<event>
 5    1  0.1946229E+000  0.7519442E+02  0.7546771E-02  0.1343270E+00
         21   -1    0    0  501  502  0.00000000000E+00  0.00000000000E+00  0.19720887788E+02  0.19720887788E+02  0.00000000000E+00 0. -1.
         21   -1    0    0  502  503 -0.00000000000E+00 -0.00000000000E+00 -0.57081821209E+03  0.57081821209E+03  0.00000000000E+00 0.  1.
         24    1    1    2    0    0 -0.48174227040E+02 -0.23531592785E+02 -0.33160480201E+03  0.34540331886E+03  0.80419002446E+02 0.  1.
          1    1    1    2  501    0  0.25295381677E+02  0.10342147156E+02 -0.35188688470E+01  0.27553562019E+02  0.00000000000E+00 0. -1.
         -2    1    1    2    0  503  0.22878845363E+02  0.13189445629E+02 -0.21597365345E+03  0.21758221900E+03  0.00000000000E+00 0.  1.
<mgrwt>
<rscale>  2 0.75194421E+02</rscale>
<asrwt>0</asrwt>
<pdfrwt beam="1">  1       21 0.30339829E-02 0.75194421E+02</pdfrwt>
<pdfrwt beam="2">  1       21 0.87818181E-01 0.75194421E+02</pdfrwt>
<totfact> 0.69659864E+05</totfact>
</mgrwt>
</event>
<event>
 5    1  0.1946229E+000  0.1149042E+03  0.7546771E-02  0.1251748E+00
         21   -1    0    0  501  502  0.00000000000E+00  0.00000000000E+00  0.44999513497E+02  0.44999513497E+02  0.00000000000E+00 0. -1.
         21   -1    0    0  502  503 -0.00000000000E+00 -0.00000000000E+00 -0.46234815642E+03  0.46234815642E+03  0.00000000000E+00 0.  1.
         24    1    1    2    0    0  0.28896105105E+02 -0.45022684070E+02 -0.14430210334E+03  0.17364429146E+03  0.80419002446E+02 0.  1.
          1    1    1    2  501    0 -0.30835904153E+02 -0.38695760776E+02 -0.14614873735E+01  0.49501018497E+02  0.00000000000E+00 0. -1.
         -2    1    1    2    0  503  0.19397990476E+01  0.83718444846E+02 -0.27158505221E+03  0.28420235997E+03  0.00000000000E+00 0.  1.
<mgrwt>
<rscale>  2 0.11490418E+03</rscale>
<asrwt>0</asrwt>
<pdfrwt beam="1">  1       21 0.69230023E-02 0.11490418E+03</pdfrwt>
<pdfrwt beam="2">  1       21 0.71130484E-01 0.11490418E+03</pdfrwt>
<totfact> 0.28091475E+05</totfact>
</mgrwt>
</event>
<event>
 5    1  0.1946229E+000  0.1059109E+03  0.7546771E-02  0.1268335E+00
         21   -1    0    0  503  502  0.00000000000E+00  0.00000000000E+00  0.10906884092E+03  0.10906884092E+03  0.00000000000E+00 0.  1.
         21   -1    0    0  501  503 -0.00000000000E+00 -0.00000000000E+00 -0.51058679014E+03  0.51058679014E+03  0.00000000000E+00 0. -1.
         24    1    1    2    0    0  0.36708408004E+02  0.41790732925E+02 -0.20201791363E+03  0.22443802253E+03  0.80419002446E+02 0. -1.
          1    1    1    2  501    0  0.11912873533E+01 -0.67968544214E+02 -0.28774960024E+03  0.29567038169E+03  0.00000000000E+00 0. -1.
         -2    1    1    2    0  502 -0.37899695357E+02  0.26177811289E+02  0.88249564643E+02  0.99547226841E+02  0.00000000000E+00 0.  1.
<mgrwt>
<rscale>  2 0.10591092E+03</rscale>
<asrwt>0</asrwt>
<pdfrwt beam="1">  1       21 0.16779822E-01 0.10591092E+03</pdfrwt>
<pdfrwt beam="2">  1       21 0.78551814E-01 0.10591092E+03</pdfrwt>
<totfact> 0.48040535E+04</totfact>
</mgrwt>
</event>
<event>
 5    1  0.1946229E+000  0.8401001E+02  0.7546771E-02  0.1318042E+00
         21   -1    0    0  501  502  0.00000000000E+00  0.00000000000E+00  0.15374558520E+02  0.15374558520E+02  0.00000000000E+00 0. -1.
         21   -1    0    0  502  503 -0.00000000000E+00 -0.00000000000E+00 -0.49174726916E+03  0.49174726916E+03  0.00000000000E+00 0.  1.
         24    1    1    2    0    0 -0.28021065415E+02  0.20999052005E+02 -0.26642245689E+03  0.28048936126E+03  0.80419002446E+02 0.  1.
          1    1    1    2  501    0  0.44689644386E+02 -0.36381741986E+02 -0.11044540594E+03  0.12457521085E+03  0.00000000000E+00 0. -1.
         -2    1    1    2    0  503 -0.16668578971E+02  0.15382689981E+02 -0.99504847815E+02  0.10205725557E+03  0.00000000000E+00 0.  1.
<mgrwt>
<rscale>  2 0.84010012E+02</rscale>
<asrwt>0</asrwt>
<pdfrwt beam="1">  1       21 0.23653164E-02 0.84010012E+02</pdfrwt>
<pdfrwt beam="2">  1       21 0.75653436E-01 0.84010012E+02</pdfrwt>
<totfact> 0.14489553E+06</totfact>
</mgrwt>
</event>
<event>
 5    1  0.1946229E+000  0.8298787E+02  0.7546771E-02  0.1320780E+00
         21   -1    0    0  503  502  0.00000000000E+00  0.00000000000E+00  0.23024128735E+03  0.23024128735E+03  0.00000000000E+00 0.  1.
         21   -1    0    0  501  503 -0.00000000000E+00 -0.00000000000E+00 -0.65887752096E+02  0.65887752096E+02  0.00000000000E+00 0. -1.
         24    1    1    2    0    0 -0.19472864622E+02  0.10458184731E+02  0.18098424689E+03  0.19927639013E+03  0.80419002446E+02 0.  1.
          1    1    1    2  501    0 -0.27360660830E+01  0.33348010854E+02 -0.31068776336E+02  0.45660100181E+02  0.00000000000E+00 0. -1.
         -2    1    1    2    0  502  0.22208930705E+02 -0.43806195585E+02  0.14438064692E+02  0.51192549133E+02  0.00000000000E+00 0.  1.
<mgrwt>
<rscale>  2 0.82987873E+02</rscale>
<asrwt>0</asrwt>
<pdfrwt beam="1">  1       21 0.35421736E-01 0.82987873E+02</pdfrwt>
<pdfrwt beam="2">  1       21 0.10136577E-01 0.82987873E+02</pdfrwt>
<totfact> 0.61233624E+05</totfact>
</mgrwt>
</event>
<event>
 5    1  0.1946229E+000  0.7466135E+02  0.7546771E-02  0.1344923E+00
         21   -1    0    0  503  502  0.00000000000E+00  0.00000000000E+00  0.14234993119E+03  0.14234993119E+03  0.00000000000E+00 0. -1.
         21   -1    0    0  501  503 -0.00000000000E+00 -0.00000000000E+00 -0.86121323175E+02  0.86121323175E+02  0.00000000000E+00 0.  1.
         24    1    1    2    0    0 -0.33762068755E+02 -0.20912107390E+02  0.54940827883E+02  0.10518034058E+03  0.80419002446E+02 0. -1.
          1    1    1    2  501    0  0.26081244862E+02 -0.98849678274E+01 -0.53293859638E+02  0.60151304205E+02  0.00000000000E+00 0. -1.
         -2    1    1    2    0  502  0.76808238933E+01  0.30797075218E+02  0.54581639770E+02  0.63139609578E+02  0.00000000000E+00 0.  1.
<mgrwt>
<rscale>  2 0.74661354E+02</rscale>
<asrwt>0</asrwt>
<pdfrwt beam="1">  1       21 0.21899989E-01 0.74661354E+02</pdfrwt>
<pdfrwt beam="2">  1       21 0.13249434E-01 0.74661354E+02</pdfrwt>
<totfact> 0.94961128E+05</totfact>
</mgrwt>
</event>
<event>
 5    1  0.1946229E+000  0.1012517E+03  0.7546771E-02  0.1277686E+00
         21   -1    0    0  501  502  0.00000000000E+00  0.00000000000E+00  0.12770924008E+02  0.12770924008E+02  0.00000000000E+00 0.  1.
         21   -1    0    0  502  503 -0.00000000000E+00 -0.00000000000E+00 -0.25915882734E+04  0.25915882734E+04  0.00000000000E+00 0.  1.
         24    1    1    2    0    0 -0.10216790166E+01  0.35417572900E+02 -0.37275458707E+03  0.38297342785E+03  0.80419002446E+02 0.  1.
          1    1    1    2  501    0 -0.94087944652E+01  0.38674250355E+02 -0.49464096460E+02  0.63489525848E+02  0.00000000000E+00 0. -1.
         -2    1    1    2    0  503  0.10430473482E+02 -0.74091823255E+02 -0.21565986658E+04  0.21578962437E+04  0.00000000000E+00 0.  1.
<mgrwt>
<rscale>  2 0.10125170E+03</rscale>
<asrwt>0</asrwt>
<pdfrwt beam="1">  1       21 0.19647579E-02 0.10125170E+03</pdfrwt>
<pdfrwt beam="2">  1       21 0.39870581E+00 0.10125170E+03</pdfrwt>
<totfact> 0.13115826E+04</totfact>
</mgrwt>
</event>
<event>
 5    1  0.1946229E+000  0.1277905E+03  0.7546771E-02  0.1230771E+00
         21   -1    0    0  501  502  0.00000000000E+00  0.00000000000E+00  0.56303031477E+02  0.56303031477E+02  0.00000000000E+00 0. -1.
         21   -1    0    0  502  503 -0.00000000000E+00 -0.00000000000E+00 -0.10366175463E+04  0.10366175463E+04  0.00000000000E+00 0. -1.
         24    1    1    2    0    0  0.10241252250E+03  0.10021404337E+01 -0.38668398154E+03  0.40802088989E+03  0.80419002446E+02 0. -1.
          1    1    1    2  501    0 -0.38431945524E+02 -0.35808240513E+02  0.27652061182E+02  0.59362286117E+02  0.00000000000E+00 0. -1.
         -2    1    1    2    0  503 -0.63980576976E+02  0.34806100080E+02 -0.62128259446E+03  0.62553740177E+03  0.00000000000E+00 0.  1.
<mgrwt>
<rscale>  2 0.12779055E+03</rscale>
<asrwt>0</asrwt>
<pdfrwt beam="1">  1       21 0.86620050E-02 0.12779055E+03</pdfrwt>
<pdfrwt beam="2">  1       21 0.15947962E+00 0.12779055E+03</pdfrwt>
<totfact> 0.27781843E+04</totfact>
</mgrwt>
</event>
<event>
 5    1  0.1946229E+000  0.1166693E+03  0.7546771E-02  0.1248695E+00
         21   -1    0    0  501  502  0.00000000000E+00  0.00000000000E+00  0.26048184068E+03  0.26048184068E+03  0.00000000000E+00 0.  1.
         21   -1    0    0  502  503 -0.00000000000E+00 -0.00000000000E+00 -0.70756736263E+02  0.70756736263E+02  0.00000000000E+00 0.  1.
         24    1    1    2    0    0 -0.37344031243E+02 -0.36464924833E+02  0.40198885707E+02  0.10395880809E+03  0.80419002446E+02 0.  0.
          1    1    1    2  501    0 -0.40807351231E+02  0.42703573852E+02  0.13525724253E+03  0.14759185883E+03  0.00000000000E+00 0. -1.
         -2    1    1    2    0  503  0.78151382474E+02 -0.62386490186E+01  0.14268976181E+02  0.79687910033E+02  0.00000000000E+00 0.  1.
<mgrwt>
<rscale>  2 0.11666929E+03</rscale>
<asrwt>0</asrwt>
<pdfrwt beam="1">  1       21 0.40074129E-01 0.11666929E+03</pdfrwt>
<pdfrwt beam="2">  1       21 0.10885652E-01 0.11666929E+03</pdfrwt>
<totfact> 0.42377537E+05</totfact>
</mgrwt>
</event>
<event>
 5    1  0.1946229E+000  0.7760758E+02  0.7546771E-02  0.1335981E+00
         21   -1    0    0  503  502  0.00000000000E+00  0.00000000000E+00  0.22953823951E+04  0.22953823951E+04  0.00000000000E+00 0. -1.
         21   -1    0    0  501  503 -0.00000000000E+00 -0.00000000000E+00 -0.87290473456E+01  0.87290473456E+01  0.00000000000E+00 0. -1.
         24    1    1    2    0    0  0.16213103452E+02 -0.18283640389E+02  0.20750725212E+04  0.20767740225E+04  0.80419002446E+02 0. -1.
          1    1    1    2  501    0 -0.24781079292E+02  0.40429460157E+02  0.75184315141E+02  0.88889394096E+02  0.00000000000E+00 0. -1.
         -2    1    1    2    0  502  0.85679758397E+01 -0.22145819768E+02  0.13639651141E+03  0.13844802587E+03  0.00000000000E+00 0.  1.
<mgrwt>
<rscale>  2 0.77607577E+02</rscale>
<asrwt>0</asrwt>
<pdfrwt beam="1">  1       21 0.35313527E+00 0.77607577E+02</pdfrwt>
<pdfrwt beam="2">  1       21 0.13429322E-02 0.77607577E+02</pdfrwt>
<totfact> 0.46769024E+04</totfact>
</mgrwt>
</event>
<event>
 5    1  0.1946229E+000  0.8162378E+02  0.7546771E-02  0.1324506E+00
         21   -1    0    0  503  502  0.00000000000E+00  0.00000000000E+00  0.90581872764E+02  0.90581872764E+02  0.00000000000E+00 0.  1.
         21   -1    0    0  501  503 -0.00000000000E+00 -0.00000000000E+00 -0.86272286175E+02  0.86272286175E+02  0.00000000000E+00 0. -1.
         24    1    1    2    0    0  0.38945868339E+02  0.22935432689E+02  0.35959962954E+02  0.99010856088E+02  0.80419002446E+02 0.  1.
          1    1    1    2  501    0 -0.25637115743E+02  0.15748926960E+02 -0.15661646832E+02  0.33920164880E+02  0.00000000000E+00 0. -1.
         -2    1    1    2    0  502 -0.13308752595E+02 -0.38684359649E+02 -0.15988729534E+02  0.43923137971E+02  0.00000000000E+00 0.  1.
<mgrwt>
<rscale>  2 0.81623780E+02</rscale>
<asrwt>0</asrwt>
<pdfrwt beam="1">  1       21 0.13935673E-01 0.81623780E+02</pdfrwt>
<pdfrwt beam="2">  1       21 0.13272659E-01 0.81623780E+02</pdfrwt>
<totfact> 0.21436442E+06</totfact>
</mgrwt>
</event>
<event>
 5    1  0.1946229E+000  0.1647535E+03  0.7546771E-02  0.1183432E+00
         21   -1    0    0  503  502  0.00000000000E+00  0.00000000000E+00  0.90467038989E+02  0.90467038989E+02  0.00000000000E+00 0.  1.
         21   -1    0    0  501  503 -0.00000000000E+00 -0.00000000000E+00 -0.32328487249E+03  0.32328487249E+03  0.00000000000E+00 0. -1.
         24    1    1    2    0    0 -0.15047157120E+03  0.89623565119E+01 -0.65315652970E+02  0.18290808634E+03  0.80419002446E+02 0.  0.
          1    1    1    2  501    0  0.13036830505E+03  0.10354216758E+02 -0.14220687742E+03  0.19319912203E+03  0.00000000000E+00 0. -1.
         -2    1    1    2    0  502  0.20103266146E+02 -0.19316573270E+02 -0.25295303119E+02  0.37644703113E+02  0.00000000000E+00 0.  1.
<mgrwt>
<rscale>  2 0.16475350E+03</rscale>
<asrwt>0</asrwt>
<pdfrwt beam="1">  1       21 0.13918006E-01 0.16475350E+03</pdfrwt>
<pdfrwt beam="2">  1       21 0.49736134E-01 0.16475350E+03</pdfrwt>
<totfact> 0.17467158E+05</totfact>
</mgrwt>
</event>
<event>
 5    1  0.1946229E+000  0.1025218E+03  0.7546771E-02  0.1275081E+00
         21   -1    0    0  503  502  0.00000000000E+00  0.00000000000E+00  0.30239552247E+03  0.30239552247E+03  0.00000000000E+00 0. -1.
         21   -1    0    0  501  503 -0.00000000000E+00 -0.00000000000E+00 -0.56264203310E+02  0.56264203310E+02  0.00000000000E+00 0. -1.
         24    1    1    2    0    0  0.41404519699E+01 -0.84966550963E+02  0.13943826849E+03  0.18206236513E+03  0.80419002446E+02 0. -1.
          1    1    1    2  501    0 -0.13374038844E+02  0.56168628321E+02 -0.77220403579E+01  0.58252979578E+02  0.00000000000E+00 0. -1.
         -2    1    1    2    0  502  0.92335868743E+01  0.28797922642E+02  0.11441509103E+03  0.11834438107E+03  0.00000000000E+00 0.  1.
<mgrwt>
<rscale>  2 0.10252180E+03</rscale>
<asrwt>0</asrwt>
<pdfrwt beam="1">  1       21 0.46522387E-01 0.10252180E+03</pdfrwt>
<pdfrwt beam="2">  1       21 0.86560315E-02 0.10252180E+03</pdfrwt>
<totfact> 0.46818383E+05</totfact>
</mgrwt>
</event>
<event>
 5    1  0.1946229E+000  0.8337909E+02  0.7546771E-02  0.1319727E+00
         21   -1    0    0  503  502  0.00000000000E+00  0.00000000000E+00  0.36155081326E+02  0.36155081326E+02  0.00000000000E+00 0.  1.
         21   -1    0    0  501  503 -0.00000000000E+00 -0.00000000000E+00 -0.77866309958E+03  0.77866309958E+03  0.00000000000E+00 0. -1.
         24    1    1    2    0    0 -0.47746461062E+01 -0.31179903246E+02 -0.31877933809E+03  0.33027634787E+03  0.80419002446E+02 0.  0.
          1    1    1    2  501    0 -0.94614467616E+01  0.53264756287E+02 -0.44650402412E+03  0.44976938179E+03  0.00000000000E+00 0. -1.
         -2    1    1    2    0  502  0.14236092868E+02 -0.22084853041E+02  0.22775343956E+02  0.34772451255E+02  0.00000000000E+00 0.  1.
<mgrwt>
<rscale>  2 0.83379087E+02</rscale>
<asrwt>0</asrwt>
<pdfrwt beam="1">  1       21 0.55623208E-02 0.83379087E+02</pdfrwt>
<pdfrwt beam="2">  1       21 0.11979431E+00 0.83379087E+02</pdfrwt>
<totfact> 0.12514832E+05</totfact>
</mgrwt>
</event>
<event>
 5    1  0.1946229E+000  0.9410327E+02  0.7546771E-02  0.1293209E+00
         21   -1    0    0  501  502  0.00000000000E+00  0.00000000000E+00  0.80599173796E+02  0.80599173796E+02  0.00000000000E+00 0.  1.
         21   -1    0    0  502  503 -0.00000000000E+00 -0.00000000000E+00 -0.13063234185E+03  0.13063234185E+03  0.00000000000E+00 0. -1.
         24    1    1    2    0    0  0.20882801455E+02 -0.69977289767E+02 -0.28445924989E+02  0.11229113537E+03  0.80419002446E+02 0.  0.
          1    1    1    2  501    0 -0.21138226990E+02  0.18471488852E+02  0.18545466532E+02  0.33644536994E+02  0.00000000000E+00 0. -1.
         -2    1    1    2    0  503  0.25542553570E+00  0.51505800916E+02 -0.40132709592E+02  0.65295843278E+02  0.00000000000E+00 0.  1.
<mgrwt>
<rscale>  2 0.94103267E+02</rscale>
<asrwt>0</asrwt>
<pdfrwt beam="1">  1       21 0.12399873E-01 0.94103267E+02</pdfrwt>
<pdfrwt beam="2">  1       21 0.20097283E-01 0.94103267E+02</pdfrwt>
<totfact> 0.12562785E+06</totfact>
</mgrwt>
</event>
<event>
 5    1  0.1946229E+000  0.7673587E+02  0.7546771E-02  0.1338578E+00
         21   -1    0    0  503  502  0.00000000000E+00  0.00000000000E+00  0.35460562577E+03  0.35460562577E+03  0.00000000000E+00 0.  1.
         21   -1    0    0  501  503 -0.00000000000E+00 -0.00000000000E+00 -0.36612406974E+02  0.36612406974E+02  0.00000000000E+00 0. -1.
         24    1    1    2    0    0 -0.42169974452E+01 -0.18587546870E+02  0.38357455263E+02  0.91114160781E+02  0.80419002446E+02 0.  0.
          1    1    1    2  501    0  0.99808717777E+01 -0.24968341729E+02  0.12989885554E+02  0.29862568825E+02  0.00000000000E+00 0. -1.
         -2    1    1    2    0  502 -0.57638743325E+01  0.43555888599E+02  0.26664587797E+03  0.27024130313E+03  0.00000000000E+00 0.  1.
<mgrwt>
<rscale>  2 0.76735875E+02</rscale>
<asrwt>0</asrwt>
<pdfrwt beam="1">  1       21 0.54554710E-01 0.76735875E+02</pdfrwt>
<pdfrwt beam="2">  1       21 0.56326782E-02 0.76735875E+02</pdfrwt>
<totfact> 0.69981641E+05</totfact>
</mgrwt>
</event>
<event>
 5    1  0.2282393E+000  0.1082771E+03  0.7546771E-02  0.1263794E+00
         21   -1    0    0  501  502  0.00000000000E+00  0.00000000000E+00  0.66077155159E+02  0.66077155159E+02  0.00000000000E+00 0. -1.
         21   -1    0    0  502  503 -0.00000000000E+00 -0.00000000000E+00 -0.11490286101E+04  0.11490286101E+04  0.00000000000E+00 0.  1.
         24    1    1    2    0    0  0.15493926504E+02 -0.11821714485E+02 -0.97848235582E+02  0.12814565093E+03  0.80419002446E+02 0. -1.
          1    1    1    2  501    0 -0.57281369215E+02 -0.38031563871E+02  0.26190455423E+02  0.73576457273E+02  0.00000000000E+00 0. -1.
         -2    1    1    2    0  503  0.41787442712E+02  0.49853278356E+02 -0.10112936748E+04  0.10133836571E+04  0.00000000000E+00 0.  1.
<mgrwt>
<rscale>  2 0.10827715E+03</rscale>
<asrwt>0</asrwt>
<pdfrwt beam="1">  1       21 0.10165716E-01 0.10827715E+03</pdfrwt>
<pdfrwt beam="2">  1       21 0.17677364E+00 0.10827715E+03</pdfrwt>
<totfact> 0.16267166E+04</totfact>
</mgrwt>
</event>
<event>
 5    1  0.1946229E+000  0.1394899E+03  0.7546771E-02  0.1214017E+00
         21   -1    0    0  501  502  0.00000000000E+00  0.00000000000E+00  0.12088159687E+04  0.12088159687E+04  0.00000000000E+00 0. -1.
         21   -1    0    0  502  503 -0.00000000000E+00 -0.00000000000E+00 -0.17474964995E+02  0.17474964995E+02  0.00000000000E+00 0. -1.
         24    1    1    2    0    0  0.71294272861E+02  0.10539667700E+03  0.55522267079E+03  0.57526581941E+03  0.80419002446E+02 0. -1.
          1    1    1    2  501    0 -0.23340228185E+02 -0.50023656474E+02  0.40040350685E+03  0.40419067376E+03  0.00000000000E+00 0. -1.
         -2    1    1    2    0  503 -0.47954044676E+02 -0.55373020523E+02  0.23571482608E+03  0.24683444054E+03  0.00000000000E+00 0.  1.
<mgrwt>
<rscale>  2 0.13948988E+03</rscale>
<asrwt>0</asrwt>
<pdfrwt beam="1">  1       21 0.18597162E+00 0.13948988E+03</pdfrwt>
<pdfrwt beam="2">  1       21 0.26884571E-02 0.13948988E+03</pdfrwt>
<totfact> 0.12941360E+05</totfact>
</mgrwt>
</event>
<event>
 5    1  0.1946229E+000  0.1072557E+03  0.7546771E-02  0.1265738E+00
         21   -1    0    0  501  502  0.00000000000E+00  0.00000000000E+00  0.59621673348E+03  0.59621673348E+03  0.00000000000E+00 0. -1.
         21   -1    0    0  502  503 -0.00000000000E+00 -0.00000000000E+00 -0.65717878780E+02  0.65717878780E+02  0.00000000000E+00 0.  1.
         24    1    1    2    0    0 -0.25754863267E+02 -0.87131004854E+02  0.85147827831E+02  0.14823121644E+03  0.80419002446E+02 0.  1.
          1    1    1    2  501    0  0.15600409398E+02  0.20424569331E+02  0.44548761558E+03  0.44622836244E+03  0.00000000000E+00 0. -1.
         -2    1    1    2    0  503  0.10154453869E+02  0.66706435523E+02 -0.13658871401E+00  0.67475033383E+02  0.00000000000E+00 0.  1.
<mgrwt>
<rscale>  2 0.10725572E+03</rscale>
<asrwt>0</asrwt>
<pdfrwt beam="1">  1       21 0.91725648E-01 0.10725572E+03</pdfrwt>
<pdfrwt beam="2">  1       21 0.10110443E-01 0.10725572E+03</pdfrwt>
<totfact> 0.83248322E+04</totfact>
</mgrwt>
</event>
<event>
 5    1  0.1946229E+000  0.8326267E+02  0.7546771E-02  0.1320039E+00
         21   -1    0    0  503  502  0.00000000000E+00  0.00000000000E+00  0.36282651107E+02  0.36282651107E+02  0.00000000000E+00 0. -1.
         21   -1    0    0  501  503 -0.00000000000E+00 -0.00000000000E+00 -0.34035104921E+03  0.34035104921E+03  0.00000000000E+00 0. -1.
         24    1    1    2    0    0  0.35951561697E+02  0.48585583338E+02 -0.46618707693E+02  0.11087647883E+03  0.80419002446E+02 0. -1.
          1    1    1    2  501    0 -0.24860544955E+02 -0.11827209480E+02 -0.10631714610E+03  0.10982379129E+03  0.00000000000E+00 0. -1.
         -2    1    1    2    0  502 -0.11091016742E+02 -0.36758373858E+02 -0.15113254432E+03  0.15593343020E+03  0.00000000000E+00 0.  1.
<mgrwt>
<rscale>  2 0.83262668E+02</rscale>
<asrwt>0</asrwt>
<pdfrwt beam="1">  1       21 0.55819463E-02 0.83262668E+02</pdfrwt>
<pdfrwt beam="2">  1       21 0.52361700E-01 0.83262668E+02</pdfrwt>
<totfact> 0.77361698E+05</totfact>
</mgrwt>
</event>
<event>
 5    1  0.1946229E+000  0.6661542E+02  0.7546771E-02  0.1371996E+00
         21   -1    0    0  503  502  0.00000000000E+00  0.00000000000E+00  0.28006093107E+03  0.28006093107E+03  0.00000000000E+00 0. -1.
         21   -1    0    0  501  503 -0.00000000000E+00 -0.00000000000E+00 -0.22440399843E+02  0.22440399843E+02  0.00000000000E+00 0. -1.
         24    1    1    2    0    0  0.20184408528E+02 -0.57769980663E+01  0.14082816858E+03  0.16352545085E+03  0.80419002446E+02 0.  0.
          1    1    1    2  501    0 -0.16516931680E+02 -0.18939162357E+02  0.65942576089E+01  0.25980476061E+02  0.00000000000E+00 0. -1.
         -2    1    1    2    0  502 -0.36674768480E+01  0.24716160423E+02  0.11019810504E+03  0.11299540401E+03  0.00000000000E+00 0.  1.
<mgrwt>
<rscale>  2 0.66615418E+02</rscale>
<asrwt>0</asrwt>
<pdfrwt beam="1">  1       21 0.43086295E-01 0.66615418E+02</pdfrwt>
<pdfrwt beam="2">  1       21 0.34523694E-02 0.66615418E+02</pdfrwt>
<totfact> 0.25077706E+06</totfact>
</mgrwt>
</event>
<event>
 5    1  0.1946229E+000  0.9311920E+02  0.7546771E-02  0.1295469E+00
         21   -1    0    0  501  502  0.00000000000E+00  0.00000000000E+00  0.24594259132E+04  0.24594259132E+04  0.00000000000E+00 0.  1.
         21   -1    0    0  502  503 -0.00000000000E+00 -0.00000000000E+00 -0.46799937316E+01  0.46799937316E+01  0.00000000000E+00 0.  1.
         24    1    1    2    0    0  0.49030808735E+02 -0.37428491627E+02  0.15597694186E+04  0.15630587856E+04  0.80419002446E+02 0.  1.
          1    1    1    2  501    0 -0.39049699290E+02 -0.67204378854E+01  0.68980783024E+03  0.69094492252E+03  0.00000000000E+00 0. -1.
         -2    1    1    2    0  503 -0.99811094445E+01  0.44148929512E+02  0.20516867063E+03  0.21010219878E+03  0.00000000000E+00 0.  1.
<mgrwt>
<rscale>  2 0.93119203E+02</rscale>
<asrwt>0</asrwt>
<pdfrwt beam="1">  1       21 0.37837219E+00 0.93119203E+02</pdfrwt>
<pdfrwt beam="2">  1       21 0.72000100E-03 0.93119203E+02</pdfrwt>
<totfact> 0.85639027E+04</totfact>
</mgrwt>
</event>
<event>
 5    1  0.1946229E+000  0.7090001E+02  0.7546771E-02  0.1357059E+00
         21   -1    0    0  503  502  0.00000000000E+00  0.00000000000E+00  0.17763131933E+04  0.17763131933E+04  0.00000000000E+00 0. -1.
         21   -1    0    0  501  503 -0.00000000000E+00 -0.00000000000E+00 -0.42282180902E+01  0.42282180902E+01  0.00000000000E+00 0. -1.
         24    1    1    2    0    0  0.31321214361E+02 -0.69034932776E+01  0.14481215515E+04  0.14507073863E+04  0.80419002446E+02 0. -1.
          1    1    1    2  501    0 -0.18109273211E+02  0.26191288042E+02  0.10764315131E+03  0.11225407507E+03  0.00000000000E+00 0. -1.
         -2    1    1    2    0  502 -0.13211941150E+02 -0.19287794765E+02  0.21632027237E+03  0.21757995002E+03  0.00000000000E+00 0.  1.
<mgrwt>
<rscale>  2 0.70900006E+02</rscale>
<asrwt>0</asrwt>
<pdfrwt beam="1">  1       21 0.27327836E+00 0.70900006E+02</pdfrwt>
<pdfrwt beam="2">  1       21 0.65049651E-03 0.70900006E+02</pdfrwt>
<totfact> 0.39747200E+05</totfact>
</mgrwt>
</event>
<event>
 5    1  0.1946229E+000  0.1039910E+03  0.7546771E-02  0.1272120E+00
         21   -1    0    0  501  502  0.00000000000E+00  0.00000000000E+00  0.71976941904E+02  0.71976941904E+02  0.00000000000E+00 0.  1.
         21   -1    0    0  502  503 -0.00000000000E+00 -0.00000000000E+00 -0.36576698361E+03  0.36576698361E+03  0.00000000000E+00 0.  1.
         24    1    1    2    0    0  0.28459231779E+01 -0.40400088786E+02 -0.27147964138E+03  0.28602216364E+03  0.80419002446E+02 0.  1.
          1    1    1    2  501    0  0.19893167485E+02 -0.34412375494E+02  0.36435094884E+02  0.53920922089E+02  0.00000000000E+00 0. -1.
         -2    1    1    2    0  503 -0.22739090663E+02  0.74812464280E+02 -0.58745495204E+02  0.97800839785E+02  0.00000000000E+00 0.  1.
<mgrwt>
<rscale>  2 0.10399101E+03</rscale>
<asrwt>0</asrwt>
<pdfrwt beam="1">  1       21 0.11073376E-01 0.10399101E+03</pdfrwt>
<pdfrwt beam="2">  1       21 0.56271843E-01 0.10399101E+03</pdfrwt>
<totfact> 0.20631889E+05</totfact>
</mgrwt>
</event>
<event>
 5    1  0.1946229E+000  0.7580518E+02  0.7546771E-02  0.1341396E+00
         21   -1    0    0  503  502  0.00000000000E+00  0.00000000000E+00  0.12808248723E+02  0.12808248723E+02  0.00000000000E+00 0. -1.
         21   -1    0    0  501  503 -0.00000000000E+00 -0.00000000000E+00 -0.55558197081E+03  0.55558197081E+03  0.00000000000E+00 0.  1.
         24    1    1    2    0    0 -0.13293651253E+02 -0.49646873471E+02 -0.44009056170E+03  0.45032038779E+03  0.80419002446E+02 0.  1.
          1    1    1    2  501    0  0.18225371005E+02  0.24448519923E+02 -0.71120081721E+02  0.77381911961E+02  0.00000000000E+00 0. -1.
         -2    1    1    2    0  502 -0.49317197519E+01  0.25198353548E+02 -0.31563078672E+02  0.40687919786E+02  0.00000000000E+00 0.  1.
<mgrwt>
<rscale>  2 0.75805181E+02</rscale>
<asrwt>0</asrwt>
<pdfrwt beam="1">  1       21 0.19705001E-02 0.75805181E+02</pdfrwt>
<pdfrwt beam="2">  1       21 0.85474135E-01 0.75805181E+02</pdfrwt>
<totfact> 0.14791950E+06</totfact>
</mgrwt>
</event>
<event>
 5    1  0.1946229E+000  0.1925368E+03  0.7546771E-02  0.1156193E+00
         21   -1    0    0  501  502  0.00000000000E+00  0.00000000000E+00  0.87055410560E+02  0.87055410560E+02  0.00000000000E+00 0. -1.
         21   -1    0    0  502  503 -0.00000000000E+00 -0.00000000000E+00 -0.10991865078E+04  0.10991865078E+04  0.00000000000E+00 0.  1.
         24    1    1    2    0    0 -0.99046683642E+02  0.88062507769E+02 -0.19189904880E+03  0.24669355828E+03  0.80419002446E+02 0. -1.
          1    1    1    2  501    0  0.14535595261E+03 -0.18565621450E+02 -0.36015737463E+02  0.15089787475E+03  0.00000000000E+00 0. -1.
         -2    1    1    2    0  503 -0.46309268967E+02 -0.69496886319E+02 -0.78421631098E+03  0.78865048533E+03  0.00000000000E+00 0.  1.
<mgrwt>
<rscale>  2 0.19253678E+03</rscale>
<asrwt>0</asrwt>
<pdfrwt beam="1">  1       21 0.13393142E-01 0.19253678E+03</pdfrwt>
<pdfrwt beam="2">  1       21 0.16910560E+00 0.19253678E+03</pdfrwt>
<totfact> 0.10430668E+04</totfact>
</mgrwt>
</event>
<event>
 5    1  0.1946229E+000  0.1034282E+03  0.7546771E-02  0.1273248E+00
         21   -1    0    0  503  502  0.00000000000E+00  0.00000000000E+00  0.14414851657E+04  0.14414851657E+04  0.00000000000E+00 0.  1.
         21   -1    0    0  501  503 -0.00000000000E+00 -0.00000000000E+00 -0.29416791810E+02  0.29416791810E+02  0.00000000000E+00 0. -1.
         24    1    1    2    0    0 -0.26063088055E+02 -0.69786692177E+02  0.29023195831E+03  0.31024389203E+03  0.80419002446E+02 0. -1.
          1    1    1    2  501    0 -0.79427491116E+01  0.61795235245E+02  0.31594462311E+02  0.69856627539E+02  0.00000000000E+00 0. -1.
         -2    1    1    2    0  502  0.34005837166E+02  0.79914569319E+01  0.10902419532E+04  0.10908014379E+04  0.00000000000E+00 0.  1.
<mgrwt>
<rscale>  2 0.10342823E+03</rscale>
<asrwt>0</asrwt>
<pdfrwt beam="1">  1       21 0.22176689E+00 0.10342823E+03</pdfrwt>
<pdfrwt beam="2">  1       21 0.45256614E-02 0.10342823E+03</pdfrwt>
<totfact> 0.33890014E+04</totfact>
</mgrwt>
</event>
<event>
 5    1  0.1946229E+000  0.8042721E+02  0.7546771E-02  0.1327843E+00
         21   -1    0    0  501  502  0.00000000000E+00  0.00000000000E+00  0.12323916941E+03  0.12323916941E+03  0.00000000000E+00 0. -1.
         21   -1    0    0  502  503 -0.00000000000E+00 -0.00000000000E+00 -0.15268408921E+03  0.15268408921E+03  0.00000000000E+00 0.  1.
         24    1    1    2    0    0  0.24319413003E+02 -0.53040304987E+02 -0.66885223926E+02  0.11977293908E+03  0.80419002446E+02 0. -1.
          1    1    1    2  501    0 -0.20189828797E+02  0.20779030532E+02  0.89885030660E+02  0.94438954005E+02  0.00000000000E+00 0. -1.
         -2    1    1    2    0  503 -0.41295842057E+01  0.32261274455E+02 -0.52444726535E+02  0.61711365538E+02  0.00000000000E+00 0.  1.
<mgrwt>
<rscale>  2 0.80427206E+02</rscale>
<asrwt>0</asrwt>
<pdfrwt beam="1">  1       21 0.18959872E-01 0.80427206E+02</pdfrwt>
<pdfrwt beam="2">  1       21 0.23489860E-01 0.80427206E+02</pdfrwt>
<totfact> 0.44036310E+05</totfact>
</mgrwt>
</event>
<event>
 5    1  0.1946229E+000  0.9221430E+02  0.7546771E-02  0.1297576E+00
         21   -1    0    0  501  502  0.00000000000E+00  0.00000000000E+00  0.30364215426E+02  0.30364215426E+02  0.00000000000E+00 0.  1.
         21   -1    0    0  502  503 -0.00000000000E+00 -0.00000000000E+00 -0.44387173240E+03  0.44387173240E+03  0.00000000000E+00 0.  1.
         24    1    1    2    0    0  0.34173945144E+02 -0.22311775789E+02 -0.18808080963E+03  0.20858398973E+03  0.80419002446E+02 0. -1.
          1    1    1    2  501    0 -0.32060318976E+02  0.53831602826E+02 -0.33318306020E+02  0.70963476744E+02  0.00000000000E+00 0. -1.
         -2    1    1    2    0  503 -0.21136261689E+01 -0.31519827037E+02 -0.19210840133E+03  0.19468848135E+03  0.00000000000E+00 0.  1.
<mgrwt>
<rscale>  2 0.92214301E+02</rscale>
<asrwt>0</asrwt>
<pdfrwt beam="1">  1       21 0.46714183E-02 0.92214301E+02</pdfrwt>
<pdfrwt beam="2">  1       21 0.68287951E-01 0.92214301E+02</pdfrwt>
<totfact> 0.59633685E+05</totfact>
</mgrwt>
</event>
<event>
 5    1  0.1946229E+000  0.1080008E+03  0.7546771E-02  0.1264317E+00
         21   -1    0    0  501  502  0.00000000000E+00  0.00000000000E+00  0.62720838153E+03  0.62720838153E+03  0.00000000000E+00 0. -1.
         21   -1    0    0  502  503 -0.00000000000E+00 -0.00000000000E+00 -0.25927419630E+02  0.25927419630E+02  0.00000000000E+00 0. -1.
         24    1    1    2    0    0  0.80288359241E+02  0.15993273076E+01  0.26854375024E+03  0.29160202369E+03  0.80419002446E+02 0. -1.
          1    1    1    2  501    0 -0.64934226292E+02  0.26658312565E+02  0.31888244339E+03  0.32651666431E+03  0.00000000000E+00 0. -1.
         -2    1    1    2    0  503 -0.15354132949E+02 -0.28257639873E+02  0.13854768281E+02  0.35017113158E+02  0.00000000000E+00 0.  1.
<mgrwt>
<rscale>  2 0.10800083E+03</rscale>
<asrwt>0</asrwt>
<pdfrwt beam="1">  1       21 0.96493586E-01 0.10800083E+03</pdfrwt>
<pdfrwt beam="2">  1       21 0.39888342E-02 0.10800083E+03</pdfrwt>
<totfact> 0.35838510E+05</totfact>
</mgrwt>
</event>
<event>
 5    1  0.1946229E+000  0.7852707E+02  0.7546771E-02  0.1333284E+00
         21   -1    0    0  501  502  0.00000000000E+00  0.00000000000E+00  0.11970584371E+03  0.11970584371E+03  0.00000000000E+00 0.  1.
         21   -1    0    0  502  503 -0.00000000000E+00 -0.00000000000E+00 -0.55890956599E+02  0.55890956599E+02  0.00000000000E+00 0. -1.
         24    1    1    2    0    0 -0.82923542581E+01  0.16098878570E+02  0.12524611031E+02  0.83378767478E+02  0.80419002446E+02 0. -1.
          1    1    1    2  501    0  0.81307478205E+01  0.28696306475E+02  0.31074623145E+02  0.43072256373E+02  0.00000000000E+00 0. -1.
         -2    1    1    2    0  503  0.16160643757E+00 -0.44795185045E+02  0.20215652933E+02  0.49145776455E+02  0.00000000000E+00 0.  1.
<mgrwt>
<rscale>  2 0.78527070E+02</rscale>
<asrwt>0</asrwt>
<pdfrwt beam="1">  1       21 0.18416284E-01 0.78527070E+02</pdfrwt>
<pdfrwt beam="2">  1       21 0.85986087E-02 0.78527070E+02</pdfrwt>
<totfact> 0.27596795E+06</totfact>
</mgrwt>
</event>
<event>
 5    1  0.2578938E+000  0.1255013E+03  0.7546771E-02  0.1234288E+00
         21   -1    0    0  503  502  0.00000000000E+00  0.00000000000E+00  0.11126005439E+03  0.11126005439E+03  0.00000000000E+00 0.  1.
         21   -1    0    0  501  503 -0.00000000000E+00 -0.00000000000E+00 -0.72378523281E+03  0.72378523281E+03  0.00000000000E+00 0. -1.
         24    1    1    2    0    0 -0.58371591385E+02  0.44383673017E+02  0.38942321978E+02  0.11558924477E+03  0.80419002446E+02 0.  0.
          1    1    1    2  501    0  0.94452401350E+02 -0.14994355126E+02 -0.66432777939E+03  0.67117619540E+03  0.00000000000E+00 0. -1.
         -2    1    1    2    0  502 -0.36080809965E+02 -0.29389317891E+02  0.12860278979E+02  0.48279847030E+02  0.00000000000E+00 0.  1.
<mgrwt>
<rscale>  2 0.12550128E+03</rscale>
<asrwt>0</asrwt>
<pdfrwt beam="1">  1       21 0.17116931E-01 0.12550128E+03</pdfrwt>
<pdfrwt beam="2">  1       21 0.11135158E+00 0.12550128E+03</pdfrwt>
<totfact> 0.20461727E+04</totfact>
</mgrwt>
</event>
<event>
 5    1  0.1946229E+000  0.8453069E+02  0.7546771E-02  0.1316664E+00
         21   -1    0    0  501  502  0.00000000000E+00  0.00000000000E+00  0.38159631871E+03  0.38159631871E+03  0.00000000000E+00 0.  1.
         21   -1    0    0  502  503 -0.00000000000E+00 -0.00000000000E+00 -0.20616769425E+02  0.20616769425E+02  0.00000000000E+00 0.  1.
         24    1    1    2    0    0 -0.21191266618E+02 -0.46913161929E+02  0.15526784230E+03  0.18227790143E+03  0.80419002446E+02 0.  1.
          1    1    1    2  501    0  0.31360809715E+02  0.66605072077E+01  0.12653716442E+03  0.13053549985E+03  0.00000000000E+00 0. -1.
         -2    1    1    2    0  503 -0.10169543097E+02  0.40252654722E+02  0.79174542574E+02  0.89399686860E+02  0.00000000000E+00 0.  1.
<mgrwt>
<rscale>  2 0.84530690E+02</rscale>
<asrwt>0</asrwt>
<pdfrwt beam="1">  1       21 0.58707121E-01 0.84530690E+02</pdfrwt>
<pdfrwt beam="2">  1       21 0.31718110E-02 0.84530690E+02</pdfrwt>
<totfact> 0.15497470E+06</totfact>
</mgrwt>
</event>
<event>
 5    1  0.1946229E+000  0.6478348E+02  0.7546771E-02  0.1378788E+00
         21   -1    0    0  503  502  0.00000000000E+00  0.00000000000E+00  0.18077366699E+03  0.18077366699E+03  0.00000000000E+00 0.  1.
         21   -1    0    0  501  503 -0.00000000000E+00 -0.00000000000E+00 -0.55085434045E+02  0.55085434045E+02  0.00000000000E+00 0.  1.
         24    1    1    2    0    0 -0.14814738545E+02 -0.50602574587E+01  0.33806594396E+02  0.88629478520E+02  0.80419002446E+02 0.  1.
          1    1    1    2  501    0  0.10803505895E+02  0.25034065591E+02 -0.19805375750E+02  0.33699749083E+02  0.00000000000E+00 0. -1.
         -2    1    1    2    0  502  0.40112326497E+01 -0.19973808132E+02  0.11168701430E+03  0.11352987343E+03  0.00000000000E+00 0.  1.
<mgrwt>
<rscale>  2 0.64783478E+02</rscale>
<asrwt>0</asrwt>
<pdfrwt beam="1">  1       21 0.27811333E-01 0.64783478E+02</pdfrwt>
<pdfrwt beam="2">  1       21 0.84746823E-02 0.64783478E+02</pdfrwt>
<totfact> 0.13129441E+06</totfact>
</mgrwt>
</event>
<event>
 5    1  0.1946229E+000  0.1342955E+03  0.7546771E-02  0.1221218E+00
         21   -1    0    0  503  502  0.00000000000E+00  0.00000000000E+00  0.16809892557E+04  0.16809892557E+04  0.00000000000E+00 0. -1.
         21   -1    0    0  501  503 -0.00000000000E+00 -0.00000000000E+00 -0.16802546105E+02  0.16802546105E+02  0.00000000000E+00 0. -1.
         24    1    1    2    0    0  0.59023547442E+02 -0.49191544066E+02  0.11265405490E+04  0.11320178496E+04  0.80419002446E+02 0. -1.
          1    1    1    2  501    0  0.45143932232E+02  0.11454096850E+02  0.62869759281E+02  0.78241789244E+02  0.00000000000E+00 0. -1.
         -2    1    1    2    0  502 -0.10416747967E+03  0.37737447217E+02  0.47477640125E+03  0.48753216297E+03  0.00000000000E+00 0.  1.
<mgrwt>
<rscale>  2 0.13429549E+03</rscale>
<asrwt>0</asrwt>
<pdfrwt beam="1">  1       21 0.25861360E+00 0.13429549E+03</pdfrwt>
<pdfrwt beam="2">  1       21 0.25850084E-02 0.13429549E+03</pdfrwt>
<totfact> 0.50408570E+04</totfact>
</mgrwt>
</event>
<event>
 5    1  0.1946229E+000  0.8609609E+02  0.7546771E-02  0.1312591E+00
         21   -1    0    0  503  502  0.00000000000E+00  0.00000000000E+00  0.57529264330E+02  0.57529264330E+02  0.00000000000E+00 0. -1.
         21   -1    0    0  501  503 -0.00000000000E+00 -0.00000000000E+00 -0.19997516752E+03  0.19997516752E+03  0.00000000000E+00 0.  1.
         24    1    1    2    0    0  0.12582688246E+02 -0.49549966753E+01 -0.12323164566E+03  0.14777053320E+03  0.80419002446E+02 0.  1.
          1    1    1    2  501    0 -0.49736753520E+02 -0.97543586797E+01 -0.40114850444E+02  0.64638172855E+02  0.00000000000E+00 0. -1.
         -2    1    1    2    0  502  0.37154065273E+02  0.14709355355E+02  0.20900592911E+02  0.45095725799E+02  0.00000000000E+00 0.  1.
<mgrwt>
<rscale>  2 0.86096094E+02</rscale>
<asrwt>0</asrwt>
<pdfrwt beam="1">  1       21 0.88506559E-02 0.86096094E+02</pdfrwt>
<pdfrwt beam="2">  1       21 0.30765411E-01 0.86096094E+02</pdfrwt>
<totfact> 0.10156178E+06</totfact>
</mgrwt>
</event>
<event>
 5    1  0.1946229E+000  0.7550318E+02  0.7546771E-02  0.1342320E+00
         21   -1    0    0  501  502  0.00000000000E+00  0.00000000000E+00  0.98855907952E+03  0.98855907952E+03  0.00000000000E+00 0. -1.
         21   -1    0    0  502  503 -0.00000000000E+00 -0.00000000000E+00 -0.11116059430E+02  0.11116059430E+02  0.00000000000E+00 0.  1.
         24    1    1    2    0    0  0.87875308251E+01  0.43972004752E+01  0.45001180492E+03  0.45724653808E+03  0.80419002446E+02 0. -1.
          1    1    1    2  501    0 -0.39164626300E+02 -0.57372479641E+01  0.49973140503E+03  0.50129658002E+03  0.00000000000E+00 0. -1.
         -2    1    1    2    0  503  0.30377095475E+02  0.13400474890E+01  0.27699810138E+02  0.41132020840E+02  0.00000000000E+00 0.  1.
<mgrwt>
<rscale>  2 0.75503185E+02</rscale>
<asrwt>0</asrwt>
<pdfrwt beam="1">  1       21 0.15208594E+00 0.75503185E+02</pdfrwt>
<pdfrwt beam="2">  1       21 0.17101638E-02 0.75503185E+02</pdfrwt>
<totfact> 0.47298259E+05</totfact>
</mgrwt>
</event>
<event>
 5    1  0.1946229E+000  0.7187907E+02  0.7546771E-02  0.1353817E+00
         21   -1    0    0  501  502  0.00000000000E+00  0.00000000000E+00  0.13927532805E+03  0.13927532805E+03  0.00000000000E+00 0.  1.
         21   -1    0    0  502  503 -0.00000000000E+00 -0.00000000000E+00 -0.10523774763E+03  0.10523774763E+03  0.00000000000E+00 0.  1.
         24    1    1    2    0    0  0.93635549784E+01 -0.48370388380E+02 -0.90419436777E+01  0.94743566186E+02  0.80419002446E+02 0.  0.
          1    1    1    2  501    0 -0.66724723794E+01  0.23421441768E+02  0.91795172477E+02  0.94970729766E+02  0.00000000000E+00 0. -1.
         -2    1    1    2    0  503 -0.26910825990E+01  0.24948946612E+02 -0.48715648381E+02  0.54798779729E+02  0.00000000000E+00 0.  1.
<mgrwt>
<rscale>  2 0.71879066E+02</rscale>
<asrwt>0</asrwt>
<pdfrwt beam="1">  1       21 0.21426974E-01 0.71879066E+02</pdfrwt>
<pdfrwt beam="2">  1       21 0.16190423E-01 0.71879066E+02</pdfrwt>
<totfact> 0.69238553E+05</totfact>
</mgrwt>
</event>
<event>
 5    1  0.1946229E+000  0.6833408E+02  0.7546771E-02  0.1365851E+00
         21   -1    0    0  501  502  0.00000000000E+00  0.00000000000E+00  0.12872298779E+02  0.12872298779E+02  0.00000000000E+00 0. -1.
         21   -1    0    0  502  503 -0.00000000000E+00 -0.00000000000E+00 -0.92906501326E+03  0.92906501326E+03  0.00000000000E+00 0. -1.
         24    1    1    2    0    0  0.33370947614E+02  0.17506994170E+02 -0.74612509547E+03  0.75139203419E+03  0.80419002446E+02 0. -1.
          1    1    1    2  501    0 -0.24910761462E+02  0.35519479338E+01 -0.72959776099E+01  0.26199115635E+02  0.00000000000E+00 0. -1.
         -2    1    1    2    0  503 -0.84601861516E+01 -0.21058942104E+02 -0.16277164140E+03  0.16434616222E+03  0.00000000000E+00 0.  1.
<mgrwt>
<rscale>  2 0.68334081E+02</rscale>
<asrwt>0</asrwt>
<pdfrwt beam="1">  1       21 0.19803537E-02 0.68334081E+02</pdfrwt>
<pdfrwt beam="2">  1       21 0.14293307E+00 0.68334081E+02</pdfrwt>
<totfact> 0.43889584E+05</totfact>
</mgrwt>
</event>
<event>
 5    1  0.1946229E+000  0.1019432E+03  0.7546771E-02  0.1276262E+00
         21   -1    0    0  503  502  0.00000000000E+00  0.00000000000E+00  0.16827473523E+02  0.16827473523E+02  0.00000000000E+00 0.  1.
         21   -1    0    0  501  503 -0.00000000000E+00 -0.00000000000E+00 -0.10396710704E+04  0.10396710704E+04  0.00000000000E+00 0.  1.
         24    1    1    2    0    0  0.57338737602E+01  0.75922432529E+02 -0.45792099010E+03  0.47112200352E+03  0.80419002446E+02 0.  1.
          1    1    1    2  501    0 -0.21468341312E+02 -0.72034014233E+01 -0.44989556949E+03  0.45046509534E+03  0.00000000000E+00 0. -1.
         -2    1    1    2    0  502  0.15734467552E+02 -0.68719031105E+02 -0.11502703733E+03  0.13491144511E+03  0.00000000000E+00 0.  1.
<mgrwt>
<rscale>  2 0.10194316E+03</rscale>
<asrwt>0</asrwt>
<pdfrwt beam="1">  1       21 0.25888422E-02 0.10194316E+03</pdfrwt>
<pdfrwt beam="2">  1       21 0.15994939E+00 0.10194316E+03</pdfrwt>
<totfact> 0.21141487E+05</totfact>
</mgrwt>
</event>
<event>
 5    1  0.1946229E+000  0.7763991E+02  0.7546771E-02  0.1335886E+00
         21   -1    0    0  501  502  0.00000000000E+00  0.00000000000E+00  0.31402138407E+03  0.31402138407E+03  0.00000000000E+00 0.  1.
         21   -1    0    0  502  503 -0.00000000000E+00 -0.00000000000E+00 -0.24386024374E+02  0.24386024374E+02  0.00000000000E+00 0. -1.
         24    1    1    2    0    0  0.99757910893E+01 -0.27812789445E+02  0.19116711676E+03  0.20948782816E+03  0.80419002446E+02 0.  0.
          1    1    1    2  501    0  0.12522161409E+02  0.41447141507E+02  0.92223678087E+02  0.10188168072E+03  0.00000000000E+00 0. -1.
         -2    1    1    2    0  503 -0.22497952498E+02 -0.13634352062E+02  0.62445648521E+01  0.27037899566E+02  0.00000000000E+00 0.  1.
<mgrwt>
<rscale>  2 0.77639912E+02</rscale>
<asrwt>0</asrwt>
<pdfrwt beam="1">  1       21 0.48310979E-01 0.77639912E+02</pdfrwt>
<pdfrwt beam="2">  1       21 0.37516963E-02 0.77639912E+02</pdfrwt>
<totfact> 0.17542398E+06</totfact>
</mgrwt>
</event>
<event>
 5    1  0.1946229E+000  0.2121774E+03  0.7546771E-02  0.1139853E+00
         21   -1    0    0  503  502  0.00000000000E+00  0.00000000000E+00  0.53055916880E+03  0.53055916880E+03  0.00000000000E+00 0. -1.
         21   -1    0    0  501  503 -0.00000000000E+00 -0.00000000000E+00 -0.87163988519E+02  0.87163988519E+02  0.00000000000E+00 0. -1.
         24    1    1    2    0    0  0.17578509038E+02  0.17255285282E+03  0.21509877832E+03  0.28778149938E+03  0.80419002446E+02 0. -1.
          1    1    1    2  501    0 -0.79971331556E+02 -0.14364999505E+03  0.12811744401E+03  0.20843419683E+03  0.00000000000E+00 0. -1.
         -2    1    1    2    0  502  0.62392822518E+02 -0.28902857774E+02  0.10017895795E+03  0.12150746111E+03  0.00000000000E+00 0.  1.
<mgrwt>
<rscale>  2 0.21217743E+03</rscale>
<asrwt>0</asrwt>
<pdfrwt beam="1">  1       21 0.81624486E-01 0.21217743E+03</pdfrwt>
<pdfrwt beam="2">  1       21 0.13409845E-01 0.21217743E+03</pdfrwt>
<totfact> 0.62589762E+04</totfact>
</mgrwt>
</event>
<event>
 5    1  0.1946229E+000  0.7184165E+02  0.7546771E-02  0.1353940E+00
         21   -1    0    0  503  502  0.00000000000E+00  0.00000000000E+00  0.15160007141E+02  0.15160007141E+02  0.00000000000E+00 0. -1.
         21   -1    0    0  501  503 -0.00000000000E+00 -0.00000000000E+00 -0.59933006738E+03  0.59933006738E+03  0.00000000000E+00 0. -1.
         24    1    1    2    0    0  0.18633777172E+02 -0.23135971469E+01 -0.12408703602E+03  0.14905495243E+03  0.80419002446E+02 0. -1.
          1    1    1    2  501    0 -0.31671553406E+02  0.21228821515E+02 -0.38583241001E+03  0.38771174701E+03  0.00000000000E+00 0. -1.
         -2    1    1    2    0  502  0.13037776234E+02 -0.18915224368E+02 -0.74250614219E+02  0.77723375081E+02  0.00000000000E+00 0.  1.
<mgrwt>
<rscale>  2 0.71841652E+02</rscale>
<asrwt>0</asrwt>
<pdfrwt beam="1">  1       21 0.23323089E-02 0.71841652E+02</pdfrwt>
<pdfrwt beam="2">  1       21 0.92204622E-01 0.71841652E+02</pdfrwt>
<totfact> 0.95278514E+05</totfact>
</mgrwt>
</event>
<event>
 5    1  0.1946229E+000  0.9710026E+02  0.7546771E-02  0.1286515E+00
         21   -1    0    0  501  502  0.00000000000E+00  0.00000000000E+00  0.13755498146E+02  0.13755498146E+02  0.00000000000E+00 0.  1.
         21   -1    0    0  502  503 -0.00000000000E+00 -0.00000000000E+00 -0.80393115697E+03  0.80393115697E+03  0.00000000000E+00 0. -1.
         24    1    1    2    0    0 -0.31549673271E+02  0.40147967177E+02 -0.23898284201E+03  0.25726883970E+03  0.80419002446E+02 0.  0.
          1    1    1    2  501    0 -0.28616938023E+02 -0.43941859052E+01 -0.11190746934E+03  0.11559203998E+03  0.00000000000E+00 0. -1.
         -2    1    1    2    0  503  0.60166611294E+02 -0.35753781272E+02 -0.43928534747E+03  0.44482577544E+03  0.00000000000E+00 0.  1.
<mgrwt>
<rscale>  2 0.97100264E+02</rscale>
<asrwt>0</asrwt>
<pdfrwt beam="1">  1       21 0.21162301E-02 0.97100264E+02</pdfrwt>
<pdfrwt beam="2">  1       21 0.12368174E+00 0.97100264E+02</pdfrwt>
<totfact> 0.56016067E+05</totfact>
</mgrwt>
</event>
<event>
 5    1  0.1946229E+000  0.9278879E+02  0.7546771E-02  0.1296235E+00
         21   -1    0    0  501  502  0.00000000000E+00  0.00000000000E+00  0.16766197102E+03  0.16766197102E+03  0.00000000000E+00 0. -1.
         21   -1    0    0  502  503 -0.00000000000E+00 -0.00000000000E+00 -0.54652325618E+02  0.54652325618E+02  0.00000000000E+00 0.  1.
         24    1    1    2    0    0  0.41900789814E+02 -0.66099427529E+01  0.51584225703E+02  0.10453475894E+03  0.80419002446E+02 0. -1.
          1    1    1    2  501    0 -0.53926155756E+02  0.34682985563E+02  0.59019084712E+02  0.87144662042E+02  0.00000000000E+00 0. -1.
         -2    1    1    2    0  503  0.12025365943E+02 -0.28073042810E+02  0.24063349879E+01  0.30634875661E+02  0.00000000000E+00 0.  1.
<mgrwt>
<rscale>  2 0.92788793E+02</rscale>
<asrwt>0</asrwt>
<pdfrwt beam="1">  1       21 0.25794149E-01 0.92788793E+02</pdfrwt>
<pdfrwt beam="2">  1       21 0.84080502E-02 0.92788793E+02</pdfrwt>
<totfact> 0.15519979E+06</totfact>
</mgrwt>
</event>
<event>
 5    1  0.1946229E+000  0.6486837E+02  0.7546771E-02  0.1378467E+00
         21   -1    0    0  501  502  0.00000000000E+00  0.00000000000E+00  0.14566392784E+02  0.14566392784E+02  0.00000000000E+00 0.  1.
         21   -1    0    0  502  503 -0.00000000000E+00 -0.00000000000E+00 -0.31705896312E+03  0.31705896312E+03  0.00000000000E+00 0. -1.
         24    1    1    2    0    0  0.33860846543E+02  0.14767165927E+02 -0.16276002056E+03  0.18526377510E+03  0.80419002446E+02 0.  0.
          1    1    1    2  501    0 -0.13268860216E+02 -0.15786027475E+02 -0.46355435885E+02  0.50735468373E+02  0.00000000000E+00 0. -1.
         -2    1    1    2    0  503 -0.20591986327E+02  0.10188615483E+01 -0.93377113894E+02  0.95626112432E+02  0.00000000000E+00 0.  1.
<mgrwt>
<rscale>  2 0.64868369E+02</rscale>
<asrwt>0</asrwt>
<pdfrwt beam="1">  1       21 0.22409837E-02 0.64868369E+02</pdfrwt>
<pdfrwt beam="2">  1       21 0.48778298E-01 0.64868369E+02</pdfrwt>
<totfact> 0.39136354E+06</totfact>
</mgrwt>
</event>
<event>
 5    1  0.1946229E+000  0.7431079E+02  0.7546771E-02  0.1346019E+00
         21   -1    0    0  501  502  0.00000000000E+00  0.00000000000E+00  0.10724045260E+04  0.10724045260E+04  0.00000000000E+00 0.  1.
         21   -1    0    0  502  503 -0.00000000000E+00 -0.00000000000E+00 -0.98329766936E+01  0.98329766936E+01  0.00000000000E+00 0.  1.
         24    1    1    2    0    0 -0.52503230623E+01 -0.51354266952E+02  0.84283519050E+03  0.84823534525E+03  0.80419002446E+02 0.  1.
          1    1    1    2  501    0 -0.39525949066E+01  0.19813242791E+02  0.18532898012E+03  0.18642697892E+03  0.00000000000E+00 0. -1.
         -2    1    1    2    0  503  0.92029179690E+01  0.31541024161E+02  0.34407378699E+02  0.47575178540E+02  0.00000000000E+00 0.  1.
<mgrwt>
<rscale>  2 0.74310787E+02</rscale>
<asrwt>0</asrwt>
<pdfrwt beam="1">  1       21 0.16498522E+00 0.74310787E+02</pdfrwt>
<pdfrwt beam="2">  1       21 0.15127665E-02 0.74310787E+02</pdfrwt>
<totfact> 0.46579742E+05</totfact>
</mgrwt>
</event>
<event>
 5    1  0.1946229E+000  0.8841468E+02  0.7546771E-02  0.1306737E+00
         21   -1    0    0  501  502  0.00000000000E+00  0.00000000000E+00  0.73787309518E+03  0.73787309518E+03  0.00000000000E+00 0. -1.
         21   -1    0    0  502  503 -0.00000000000E+00 -0.00000000000E+00 -0.77430265955E+02  0.77430265955E+02  0.00000000000E+00 0.  1.
         24    1    1    2    0    0 -0.17262724259E+02 -0.66581428566E+02  0.28251859467E+03  0.30168702419E+03  0.80419002446E+02 0.  1.
          1    1    1    2  501    0  0.15606225411E+02  0.25527662398E+02  0.43899348554E+03  0.44001192730E+03  0.00000000000E+00 0. -1.
         -2    1    1    2    0  503  0.16564988476E+01  0.41053766168E+02 -0.61069250976E+02  0.73604409649E+02  0.00000000000E+00 0.  1.
<mgrwt>
<rscale>  2 0.88414685E+02</rscale>
<asrwt>0</asrwt>
<pdfrwt beam="1">  1       21 0.11351893E+00 0.88414685E+02</pdfrwt>
<pdfrwt beam="2">  1       21 0.11912349E-01 0.88414685E+02</pdfrwt>
<totfact> 0.38567390E+04</totfact>
</mgrwt>
</event>
<event>
 5    1  0.1946229E+000  0.9074169E+02  0.7546771E-02  0.1301065E+00
         21   -1    0    0  503  502  0.00000000000E+00  0.00000000000E+00  0.29447415940E+02  0.29447415940E+02  0.00000000000E+00 0.  1.
         21   -1    0    0  501  503 -0.00000000000E+00 -0.00000000000E+00 -0.38222986619E+03  0.38222986619E+03  0.00000000000E+00 0. -1.
         24    1    1    2    0    0  0.48850999659E+02 -0.21651708872E+02 -0.23998413790E+03  0.25867898844E+03  0.80419002446E+02 0. -1.
          1    1    1    2  501    0 -0.48909035671E+02  0.42069315812E+02 -0.11560613693E+03  0.13238844360E+03  0.00000000000E+00 0. -1.
         -2    1    1    2    0  502  0.58036011858E-01 -0.20417606940E+02  0.28078245870E+01  0.20609850078E+02  0.00000000000E+00 0.  1.
<mgrwt>
<rscale>  2 0.90741694E+02</rscale>
<asrwt>0</asrwt>
<pdfrwt beam="1">  1       21 0.45303719E-02 0.90741694E+02</pdfrwt>
<pdfrwt beam="2">  1       21 0.58804592E-01 0.90741694E+02</pdfrwt>
<totfact> 0.86161878E+05</totfact>
</mgrwt>
</event>
<event>
 5    1  0.1946229E+000  0.7005481E+02  0.7546771E-02  0.1359907E+00
         21   -1    0    0  503  502  0.00000000000E+00  0.00000000000E+00  0.74202256795E+02  0.74202256795E+02  0.00000000000E+00 0.  1.
         21   -1    0    0  501  503 -0.00000000000E+00 -0.00000000000E+00 -0.88879741773E+02  0.88879741773E+02  0.00000000000E+00 0.  1.
         24    1    1    2    0    0  0.15613765740E+02  0.42577828289E+01 -0.48487848050E+02  0.95290113643E+02  0.80419002446E+02 0.  1.
          1    1    1    2  501    0  0.15926025332E+02 -0.17685205896E+02  0.88637495981E+01  0.25396276250E+02  0.00000000000E+00 0. -1.
         -2    1    1    2    0  502 -0.31539791072E+02  0.13427423067E+02  0.24946613474E+02  0.42395608675E+02  0.00000000000E+00 0.  1.
<mgrwt>
<rscale>  2 0.70054812E+02</rscale>
<asrwt>0</asrwt>
<pdfrwt beam="1">  1       21 0.11415732E-01 0.70054812E+02</pdfrwt>
<pdfrwt beam="2">  1       21 0.13673806E-01 0.70054812E+02</pdfrwt>
<totfact> 0.28619452E+06</totfact>
</mgrwt>
</event>
<event>
 5    1  0.1946229E+000  0.8665367E+02  0.7546771E-02  0.1311164E+00
         21   -1    0    0  503  502  0.00000000000E+00  0.00000000000E+00  0.66668378493E+02  0.66668378493E+02  0.00000000000E+00 0.  1.
         21   -1    0    0  501  503 -0.00000000000E+00 -0.00000000000E+00 -0.31084012313E+03  0.31084012313E+03  0.00000000000E+00 0. -1.
         24    1    1    2    0    0  0.23415129544E+01  0.17855666087E+02 -0.80491564225E+02  0.11519728886E+03  0.80419002446E+02 0. -1.
          1    1    1    2  501    0 -0.29062414504E+02 -0.44507861870E+02 -0.20179145407E+03  0.20867526121E+03  0.00000000000E+00 0. -1.
         -2    1    1    2    0  502  0.26720901549E+02  0.26652195783E+02  0.38111273658E+02  0.53635951557E+02  0.00000000000E+00 0.  1.
<mgrwt>
<rscale>  2 0.86653668E+02</rscale>
<asrwt>0</asrwt>
<pdfrwt beam="1">  1       21 0.10256674E-01 0.86653668E+02</pdfrwt>
<pdfrwt beam="2">  1       21 0.47821557E-01 0.86653668E+02</pdfrwt>
<totfact> 0.33079923E+05</totfact>
</mgrwt>
</event>
<event>
 5    1  0.1946229E+000  0.1024136E+03  0.7546771E-02  0.1275301E+00
         21   -1    0    0  503  502  0.00000000000E+00  0.00000000000E+00  0.31919315596E+02  0.31919315596E+02  0.00000000000E+00 0.  1.
         21   -1    0    0  501  503 -0.00000000000E+00 -0.00000000000E+00 -0.44631843233E+03  0.44631843233E+03  0.00000000000E+00 0. -1.
         24    1    1    2    0    0  0.39106094291E+01  0.37989309031E+02 -0.98006132099E+02  0.13240429884E+03  0.80419002446E+02 0.  0.
          1    1    1    2  501    0 -0.50478793977E+02  0.71060809095E+01 -0.24132292244E+03  0.24664824735E+03  0.00000000000E+00 0. -1.
         -2    1    1    2    0  502  0.46568184548E+02 -0.45095389941E+02 -0.75070062199E+02  0.99185201742E+02  0.00000000000E+00 0.  1.
<mgrwt>
<rscale>  2 0.10241360E+03</rscale>
<asrwt>0</asrwt>
<pdfrwt beam="1">  1       21 0.49106639E-02 0.10241360E+03</pdfrwt>
<pdfrwt beam="2">  1       21 0.68664375E-01 0.10241360E+03</pdfrwt>
<totfact> 0.54209053E+05</totfact>
</mgrwt>
</event>
<event>
 5    1  0.1946229E+000  0.1072763E+03  0.7546771E-02  0.1265698E+00
         21   -1    0    0  503  502  0.00000000000E+00  0.00000000000E+00  0.18811561852E+03  0.18811561852E+03  0.00000000000E+00 0.  1.
         21   -1    0    0  501  503 -0.00000000000E+00 -0.00000000000E+00 -0.29618035084E+03  0.29618035084E+03  0.00000000000E+00 0. -1.
         24    1    1    2    0    0  0.22015512792E+02  0.73642102523E+02 -0.23122899256E+02  0.11362097734E+03  0.80419002446E+02 0.  1.
          1    1    1    2  501    0 -0.35876360276E+02 -0.87156497969E+01 -0.21846227471E+03  0.22156001726E+03  0.00000000000E+00 0. -1.
         -2    1    1    2    0  502  0.13860847483E+02 -0.64926452727E+02  0.13352044165E+03  0.14911497475E+03  0.00000000000E+00 0.  1.
<mgrwt>
<rscale>  2 0.10727630E+03</rscale>
<asrwt>0</asrwt>
<pdfrwt beam="1">  1       21 0.28940864E-01 0.10727630E+03</pdfrwt>
<pdfrwt beam="2">  1       21 0.45566208E-01 0.10727630E+03</pdfrwt>
<totfact> 0.55123732E+04</totfact>
</mgrwt>
</event>
<event>
 5    1  0.1950825E+000  0.1168979E+03  0.7546771E-02  0.1248304E+00
         21   -1    0    0  501  502  0.00000000000E+00  0.00000000000E+00  0.31282373139E+03  0.31282373139E+03  0.00000000000E+00 0.  1.
         21   -1    0    0  502  503 -0.00000000000E+00 -0.00000000000E+00 -0.11246504808E+03  0.11246504808E+03  0.00000000000E+00 0.  1.
         24    1    1    2    0    0  0.23154175207E+02 -0.18245542876E+02  0.14073910570E+03  0.16475353560E+03  0.80419002446E+02 0.  1.
          1    1    1    2  501    0  0.19837797810E+02 -0.57622391756E+02  0.13317314822E+03  0.14645465394E+03  0.00000000000E+00 0. -1.
         -2    1    1    2    0  503 -0.42991973017E+02  0.75867934632E+02 -0.73553570611E+02  0.11408058993E+03  0.00000000000E+00 0.  1.
<mgrwt>
<rscale>  2 0.11689789E+03</rscale>
<asrwt>0</asrwt>
<pdfrwt beam="1">  1       21 0.48126728E-01 0.11689789E+03</pdfrwt>
<pdfrwt beam="2">  1       21 0.17302315E-01 0.11689789E+03</pdfrwt>
<totfact> 0.12796699E+05</totfact>
</mgrwt>
</event>
<event>
 5    1  0.1946229E+000  0.1176484E+03  0.7546771E-02  0.1247028E+00
         21   -1    0    0  503  502  0.00000000000E+00  0.00000000000E+00  0.11656677469E+03  0.11656677469E+03  0.00000000000E+00 0. -1.
         21   -1    0    0  501  503 -0.00000000000E+00 -0.00000000000E+00 -0.14312235925E+03  0.14312235925E+03  0.00000000000E+00 0.  1.
         24    1    1    2    0    0  0.67789525058E+02 -0.42110264097E+02 -0.66425294962E+02  0.13133251621E+03  0.80419002446E+02 0.  1.
          1    1    1    2  501    0 -0.71985894938E+02 -0.73527909546E+01  0.24288211373E+02  0.76327909814E+02  0.00000000000E+00 0. -1.
         -2    1    1    2    0  502  0.41963698801E+01  0.49463055051E+02  0.15581499025E+02  0.52028707912E+02  0.00000000000E+00 0.  1.
<mgrwt>
<rscale>  2 0.11764843E+03</rscale>
<asrwt>0</asrwt>
<pdfrwt beam="1">  1       21 0.17933350E-01 0.11764843E+03</pdfrwt>
<pdfrwt beam="2">  1       21 0.22018824E-01 0.11764843E+03</pdfrwt>
<totfact> 0.54891040E+05</totfact>
</mgrwt>
</event>
<event>
 5    1  0.1946229E+000  0.8077263E+02  0.7546771E-02  0.1326873E+00
         21   -1    0    0  501  502  0.00000000000E+00  0.00000000000E+00  0.60963520299E+02  0.60963520299E+02  0.00000000000E+00 0. -1.
         21   -1    0    0  502  503 -0.00000000000E+00 -0.00000000000E+00 -0.11294954218E+03  0.11294954218E+03  0.00000000000E+00 0.  1.
         24    1    1    2    0    0 -0.18409925365E+02 -0.18624350902E+02 -0.36542261562E+02  0.92132212786E+02  0.80419002446E+02 0. -1.
          1    1    1    2  501    0 -0.20718064722E+02 -0.14838951178E+02  0.57148035317E+01  0.26116884525E+02  0.00000000000E+00 0. -1.
         -2    1    1    2    0  503  0.39127990086E+02  0.33463302080E+02 -0.21158563855E+02  0.55663965172E+02  0.00000000000E+00 0.  1.
<mgrwt>
<rscale>  2 0.80772635E+02</rscale>
<asrwt>0</asrwt>
<pdfrwt beam="1">  1       21 0.93790032E-02 0.80772635E+02</pdfrwt>
<pdfrwt beam="2">  1       21 0.17376853E-01 0.80772635E+02</pdfrwt>
<totfact> 0.26444891E+06</totfact>
</mgrwt>
</event>
<event>
 5    1  0.1946229E+000  0.7174585E+02  0.7546771E-02  0.1354255E+00
         21   -1    0    0  501  502  0.00000000000E+00  0.00000000000E+00  0.31010323346E+03  0.31010323346E+03  0.00000000000E+00 0. -1.
         21   -1    0    0  502  503 -0.00000000000E+00 -0.00000000000E+00 -0.81634639512E+02  0.81634639512E+02  0.00000000000E+00 0.  1.
         24    1    1    2    0    0 -0.11516660830E+02  0.28910846175E+02 -0.87763599923E+01  0.86675896028E+02  0.80419002446E+02 0.  0.
          1    1    1    2  501    0 -0.16871503109E+02 -0.22560790024E+02  0.26402419117E+03  0.26552289993E+03  0.00000000000E+00 0. -1.
         -2    1    1    2    0  503  0.28388163939E+02 -0.63500561513E+01 -0.26779237227E+02  0.39539077018E+02  0.00000000000E+00 0.  1.
<mgrwt>
<rscale>  2 0.71745847E+02</rscale>
<asrwt>0</asrwt>
<pdfrwt beam="1">  1       21 0.47708189E-01 0.71745847E+02</pdfrwt>
<pdfrwt beam="2">  1       21 0.12559175E-01 0.71745847E+02</pdfrwt>
<totfact> 0.23428592E+05</totfact>
</mgrwt>
</event>
<event>
 5    1  0.1946229E+000  0.1323500E+03  0.7546771E-02  0.1224010E+00
         21   -1    0    0  501  502  0.00000000000E+00  0.00000000000E+00  0.76815081058E+02  0.76815081058E+02  0.00000000000E+00 0.  1.
         21   -1    0    0  502  503 -0.00000000000E+00 -0.00000000000E+00 -0.27617456745E+03  0.27617456745E+03  0.00000000000E+00 0.  1.
         24    1    1    2    0    0 -0.97336398527E+02  0.19075075794E+02 -0.33181088567E+02  0.13193344378E+03  0.80419002446E+02 0.  1.
          1    1    1    2  501    0 -0.18672931396E+02 -0.85009457139E+01 -0.32582688284E+01  0.20774040548E+02  0.00000000000E+00 0. -1.
         -2    1    1    2    0  503  0.11600932992E+03 -0.10574130081E+02 -0.16292012900E+03  0.20028216418E+03  0.00000000000E+00 0.  1.
<mgrwt>
<rscale>  2 0.13234998E+03</rscale>
<asrwt>0</asrwt>
<pdfrwt beam="1">  1       21 0.11817705E-01 0.13234998E+03</pdfrwt>
<pdfrwt beam="2">  1       21 0.42488395E-01 0.13234998E+03</pdfrwt>
<totfact> 0.32535209E+05</totfact>
</mgrwt>
</event>
<event>
 5    1  0.1946229E+000  0.7599538E+02  0.7546771E-02  0.1340816E+00
         21   -1    0    0  501  502  0.00000000000E+00  0.00000000000E+00  0.11209320284E+03  0.11209320284E+03  0.00000000000E+00 0. -1.
         21   -1    0    0  502  503 -0.00000000000E+00 -0.00000000000E+00 -0.21247774526E+03  0.21247774526E+03  0.00000000000E+00 0.  1.
         24    1    1    2    0    0  0.42926303017E+02  0.14739311030E+02  0.36577167096E+02  0.99322806482E+02  0.80419002446E+02 0.  0.
          1    1    1    2  501    0 -0.21626955700E+02 -0.27371715947E+02  0.36230210755E+02  0.50294773268E+02  0.00000000000E+00 0. -1.
         -2    1    1    2    0  503 -0.21299347316E+02  0.12632404917E+02 -0.17319192027E+03  0.17495336835E+03  0.00000000000E+00 0.  1.
<mgrwt>
<rscale>  2 0.75995377E+02</rscale>
<asrwt>0</asrwt>
<pdfrwt beam="1">  1       21 0.17245108E-01 0.75995377E+02</pdfrwt>
<pdfrwt beam="2">  1       21 0.32688884E-01 0.75995377E+02</pdfrwt>
<totfact> 0.28045025E+05</totfact>
</mgrwt>
</event>
<event>
 5    1  0.1946229E+000  0.1285000E+03  0.7546771E-02  0.1229699E+00
         21   -1    0    0  501  502  0.00000000000E+00  0.00000000000E+00  0.48931446044E+03  0.48931446044E+03  0.00000000000E+00 0. -1.
         21   -1    0    0  502  503 -0.00000000000E+00 -0.00000000000E+00 -0.61032315186E+02  0.61032315186E+02  0.00000000000E+00 0. -1.
         24    1    1    2    0    0  0.45079424316E+02  0.10454938138E+03  0.11017646451E+03  0.17767610118E+03  0.80419002446E+02 0. -1.
          1    1    1    2  501    0 -0.31898431227E+02 -0.37299565425E+02  0.29690890913E+03  0.30093798001E+03  0.00000000000E+00 0. -1.
         -2    1    1    2    0  503 -0.13180993089E+02 -0.67249815951E+02  0.21196771618E+02  0.71732694438E+02  0.00000000000E+00 0.  1.
<mgrwt>
<rscale>  2 0.12849996E+03</rscale>
<asrwt>0</asrwt>
<pdfrwt beam="1">  1       21 0.75279145E-01 0.12849996E+03</pdfrwt>
<pdfrwt beam="2">  1       21 0.93895873E-02 0.12849996E+03</pdfrwt>
<totfact> 0.14616356E+05</totfact>
</mgrwt>
</event>
<event>
 5    1  0.1946229E+000  0.6710925E+02  0.7546771E-02  0.1370208E+00
         21   -1    0    0  501  502  0.00000000000E+00  0.00000000000E+00  0.17051039288E+04  0.17051039288E+04  0.00000000000E+00 0. -1.
         21   -1    0    0  502  503 -0.00000000000E+00 -0.00000000000E+00 -0.20073618483E+02  0.20073618483E+02  0.00000000000E+00 0.  1.
         24    1    1    2    0    0  0.22547431396E+02  0.14571963235E+02  0.16008826693E+04  0.16031260916E+04  0.80419002446E+02 0. -1.
          1    1    1    2  501    0 -0.24101950133E+02  0.90638370242E+01  0.93201510570E+02  0.96693219589E+02  0.00000000000E+00 0. -1.
         -2    1    1    2    0  503  0.15545187365E+01 -0.23635800260E+02 -0.90538695691E+01  0.25358236070E+02  0.00000000000E+00 0.  1.
<mgrwt>
<rscale>  2 0.67109254E+02</rscale>
<asrwt>0</asrwt>
<pdfrwt beam="1">  1       21 0.26232357E+00 0.67109254E+02</pdfrwt>
<pdfrwt beam="2">  1       21 0.30882503E-02 0.67109254E+02</pdfrwt>
<totfact> 0.39667575E+04</totfact>
</mgrwt>
</event>
<event>
 5    1  0.1946229E+000  0.1035890E+03  0.7546771E-02  0.1272925E+00
         21   -1    0    0  501  502  0.00000000000E+00  0.00000000000E+00  0.52408788899E+03  0.52408788899E+03  0.00000000000E+00 0. -1.
         21   -1    0    0  502  503 -0.00000000000E+00 -0.00000000000E+00 -0.21916314330E+02  0.21916314330E+02  0.00000000000E+00 0. -1.
         24    1    1    2    0    0  0.29599842848E+02  0.80353364608E+02  0.26567942305E+03  0.29049197181E+03  0.80419002446E+02 0. -1.
          1    1    1    2  501    0 -0.46268395025E+01 -0.50810570777E+02  0.17965900608E+03  0.18676316610E+03  0.00000000000E+00 0. -1.
         -2    1    1    2    0  503 -0.24973003346E+02 -0.29542793832E+02  0.56833145532E+02  0.68749065408E+02  0.00000000000E+00 0.  1.
<mgrwt>
<rscale>  2 0.10358901E+03</rscale>
<asrwt>0</asrwt>
<pdfrwt beam="1">  1       21 0.80628896E-01 0.10358901E+03</pdfrwt>
<pdfrwt beam="2">  1       21 0.33717411E-02 0.10358901E+03</pdfrwt>
<totfact> 0.71006754E+05</totfact>
</mgrwt>
</event>
<event>
 5    1  0.1946229E+000  0.7468445E+02  0.7546771E-02  0.1344851E+00
         21   -1    0    0  503  502  0.00000000000E+00  0.00000000000E+00  0.14089096491E+02  0.14089096491E+02  0.00000000000E+00 0.  1.
         21   -1    0    0  501  503 -0.00000000000E+00 -0.00000000000E+00 -0.14974180813E+04  0.14974180813E+04  0.00000000000E+00 0. -1.
         24    1    1    2    0    0 -0.20927181548E+02 -0.13820011780E+02 -0.40460128902E+03  0.41327758067E+03  0.80419002446E+02 0.  1.
          1    1    1    2  501    0  0.88418520443E+01 -0.23920284668E+02 -0.10474098519E+04  0.10477202662E+04  0.00000000000E+00 0. -1.
         -2    1    1    2    0  502  0.12085329503E+02  0.37740296448E+02 -0.31317843936E+02  0.50509330959E+02  0.00000000000E+00 0.  1.
<mgrwt>
<rscale>  2 0.74684446E+02</rscale>
<asrwt>0</asrwt>
<pdfrwt beam="1">  1       21 0.21675528E-02 0.74684446E+02</pdfrwt>
<pdfrwt beam="2">  1       21 0.23037206E+00 0.74684446E+02</pdfrwt>
<totfact> 0.10387868E+05</totfact>
</mgrwt>
</event>
<event>
 5    1  0.1946229E+000  0.1115344E+03  0.7546771E-02  0.1257754E+00
         21   -1    0    0  501  502  0.00000000000E+00  0.00000000000E+00  0.25814590614E+02  0.25814590614E+02  0.00000000000E+00 0. -1.
         21   -1    0    0  502  503 -0.00000000000E+00 -0.00000000000E+00 -0.53967930897E+03  0.53967930897E+03  0.00000000000E+00 0. -1.
         24    1    1    2    0    0  0.85396486071E+02 -0.27954332909E+02 -0.20659233468E+03  0.23921039539E+03  0.80419002446E+02 0. -1.
          1    1    1    2  501    0 -0.69523787958E+02 -0.92280710365E+00 -0.14641489294E+03  0.16208556240E+03  0.00000000000E+00 0. -1.
         -2    1    1    2    0  503 -0.15872698113E+02  0.28877140013E+02 -0.16085749074E+03  0.16419794179E+03  0.00000000000E+00 0.  1.
<mgrwt>
<rscale>  2 0.11153443E+03</rscale>
<asrwt>0</asrwt>
<pdfrwt beam="1">  1       21 0.39714756E-02 0.11153443E+03</pdfrwt>
<pdfrwt beam="2">  1       21 0.83027583E-01 0.11153443E+03</pdfrwt>
<totfact> 0.50767961E+05</totfact>
</mgrwt>
</event>
<event>
 5    1  0.1946229E+000  0.1196819E+03  0.7546771E-02  0.1243623E+00
         21   -1    0    0  501  502  0.00000000000E+00  0.00000000000E+00  0.25219555538E+03  0.25219555538E+03  0.00000000000E+00 0. -1.
         21   -1    0    0  502  503 -0.00000000000E+00 -0.00000000000E+00 -0.58367413403E+02  0.58367413403E+02  0.00000000000E+00 0. -1.
         24    1    1    2    0    0  0.35124309997E+02  0.10007700461E+03  0.10671313234E+03  0.17059904036E+03  0.80419002446E+02 0. -1.
          1    1    1    2  501    0 -0.21099690135E+02 -0.50305455706E+02  0.61663427449E+02  0.82329910010E+02  0.00000000000E+00 0. -1.
         -2    1    1    2    0  503 -0.14024619863E+02 -0.49771548903E+02  0.25451582190E+02  0.57634018413E+02  0.00000000000E+00 0.  1.
<mgrwt>
<rscale>  2 0.11968185E+03</rscale>
<asrwt>0</asrwt>
<pdfrwt beam="1">  1       21 0.38799316E-01 0.11968185E+03</pdfrwt>
<pdfrwt beam="2">  1       21 0.89796022E-02 0.11968185E+03</pdfrwt>
<totfact> 0.63211503E+05</totfact>
</mgrwt>
</event>
<event>
 5    1  0.1946229E+000  0.8073402E+02  0.7546771E-02  0.1326981E+00
         21   -1    0    0  501  502  0.00000000000E+00  0.00000000000E+00  0.85204324464E+02  0.85204324464E+02  0.00000000000E+00 0. -1.
         21   -1    0    0  502  503 -0.00000000000E+00 -0.00000000000E+00 -0.21811215613E+03  0.21811215613E+03  0.00000000000E+00 0. -1.
         24    1    1    2    0    0  0.38438876106E+02  0.49569118417E+01 -0.12081947904E+03  0.15022210437E+03  0.80419002446E+02 0. -1.
          1    1    1    2  501    0 -0.40042679149E+02  0.21664224385E+02  0.60526010583E+02  0.75737393200E+02  0.00000000000E+00 0. -1.
         -2    1    1    2    0  503  0.16038030430E+01 -0.26621136227E+02 -0.72614363211E+02  0.77356983025E+02  0.00000000000E+00 0.  1.
<mgrwt>
<rscale>  2 0.80734024E+02</rscale>
<asrwt>0</asrwt>
<pdfrwt beam="1">  1       21 0.13108358E-01 0.80734024E+02</pdfrwt>
<pdfrwt beam="2">  1       21 0.33555716E-01 0.80734024E+02</pdfrwt>
<totfact> 0.43412505E+05</totfact>
</mgrwt>
</event>
<event>
 5    1  0.1946229E+000  0.6158901E+02  0.7546771E-02  0.1391282E+00
         21   -1    0    0  503  502  0.00000000000E+00  0.00000000000E+00  0.70448191183E+01  0.70448191183E+01  0.00000000000E+00 0.  1.
         21   -1    0    0  501  503 -0.00000000000E+00 -0.00000000000E+00 -0.24151240791E+04  0.24151240791E+04  0.00000000000E+00 0. -1.
         24    1    1    2    0    0 -0.52710718419E+01 -0.10326092130E+02 -0.21012510852E+04  0.21028213788E+04  0.80419002446E+02 0. -1.
          1    1    1    2  501    0  0.20822379891E+02 -0.35052745384E+01 -0.29429776624E+03  0.29505428936E+03  0.00000000000E+00 0. -1.
         -2    1    1    2    0  502 -0.15551308049E+02  0.13831366669E+02 -0.12530408551E+02  0.24293230012E+02  0.00000000000E+00 0.  1.
<mgrwt>
<rscale>  2 0.61589009E+02</rscale>
<asrwt>0</asrwt>
<pdfrwt beam="1">  1       21 0.10838198E-02 0.61589009E+02</pdfrwt>
<pdfrwt beam="2">  1       21 0.37155703E+00 0.61589009E+02</pdfrwt>
<totfact> 0.53931493E+04</totfact>
</mgrwt>
</event>
<event>
 5    1  0.1946229E+000  0.2486335E+03  0.7546771E-02  0.1114171E+00
         21   -1    0    0  503  502  0.00000000000E+00  0.00000000000E+00  0.76272635360E+03  0.76272635360E+03  0.00000000000E+00 0. -1.
         21   -1    0    0  501  503 -0.00000000000E+00 -0.00000000000E+00 -0.91037630759E+02  0.91037630759E+02  0.00000000000E+00 0. -1.
         24    1    1    2    0    0 -0.20514986750E+03  0.13302569932E+02  0.30419903064E+03  0.37585594674E+03  0.80419002446E+02 0. -1.
          1    1    1    2  501    0  0.24036410524E+03 -0.17771118482E+02  0.22041054719E+03  0.32660607014E+03  0.00000000000E+00 0. -1.
         -2    1    1    2    0  502 -0.35214237738E+02  0.44685485495E+01  0.14707914501E+03  0.15130196748E+03  0.00000000000E+00 0.  1.
<mgrwt>
<rscale>  2 0.24863348E+03</rscale>
<asrwt>0</asrwt>
<pdfrwt beam="1">  1       21 0.11734251E+00 0.24863348E+03</pdfrwt>
<pdfrwt beam="2">  1       21 0.14005790E-01 0.24863348E+03</pdfrwt>
<totfact> 0.24031909E+04</totfact>
</mgrwt>
</event>
<event>
 5    1  0.1946229E+000  0.9011169E+02  0.7546771E-02  0.1302581E+00
         21   -1    0    0  501  502  0.00000000000E+00  0.00000000000E+00  0.16351098310E+02  0.16351098310E+02  0.00000000000E+00 0.  1.
         21   -1    0    0  502  503 -0.00000000000E+00 -0.00000000000E+00 -0.53061953488E+03  0.53061953488E+03  0.00000000000E+00 0. -1.
         24    1    1    2    0    0  0.60583209050E+02 -0.25976603612E+02 -0.27398817510E+03  0.29305604447E+03  0.80419002446E+02 0.  0.
          1    1    1    2  501    0 -0.34267720979E+02  0.34454021399E+02 -0.10312475297E+03  0.11400031126E+03  0.00000000000E+00 0. -1.
         -2    1    1    2    0  503 -0.26315488071E+02 -0.84774177870E+01 -0.13715550851E+03  0.13991427746E+03  0.00000000000E+00 0.  1.
<mgrwt>
<rscale>  2 0.90111695E+02</rscale>
<asrwt>0</asrwt>
<pdfrwt beam="1">  1       21 0.25155543E-02 0.90111695E+02</pdfrwt>
<pdfrwt beam="2">  1       21 0.81633752E-01 0.90111695E+02</pdfrwt>
<totfact> 0.11115241E+06</totfact>
</mgrwt>
</event>
<event>
 5    1  0.1946229E+000  0.9739045E+02  0.7546771E-02  0.1285881E+00
         21   -1    0    0  501  502  0.00000000000E+00  0.00000000000E+00  0.56805646384E+01  0.56805646384E+01  0.00000000000E+00 0.  1.
         21   -1    0    0  502  503 -0.00000000000E+00 -0.00000000000E+00 -0.23230182374E+04  0.23230182374E+04  0.00000000000E+00 0.  1.
         24    1    1    2    0    0  0.52585415577E+02 -0.23368178264E+02 -0.62336729663E+03  0.63116186525E+03  0.80419002446E+02 0.  1.
          1    1    1    2  501    0 -0.58336542357E+02 -0.12422663800E+02 -0.59797443020E+03  0.60094167264E+03  0.00000000000E+00 0. -1.
         -2    1    1    2    0  503  0.57511267798E+01  0.35790842064E+02 -0.10959959459E+04  0.10965952641E+04  0.00000000000E+00 0.  1.
<mgrwt>
<rscale>  2 0.97390450E+02</rscale>
<asrwt>0</asrwt>
<pdfrwt beam="1">  1       21 0.87393207E-03 0.97390450E+02</pdfrwt>
<pdfrwt beam="2">  1       21 0.35738781E+00 0.97390450E+02</pdfrwt>
<totfact> 0.83100614E+04</totfact>
</mgrwt>
</event>
<event>
 5    1  0.1946229E+000  0.8560731E+02  0.7546771E-02  0.1313852E+00
         21   -1    0    0  503  502  0.00000000000E+00  0.00000000000E+00  0.16419774919E+03  0.16419774919E+03  0.00000000000E+00 0.  1.
         21   -1    0    0  501  503 -0.00000000000E+00 -0.00000000000E+00 -0.50450361712E+02  0.50450361712E+02  0.00000000000E+00 0.  1.
         24    1    1    2    0    0  0.47941143935E+01 -0.23604444508E+02  0.59123859484E+02  0.10267911203E+03  0.80419002446E+02 0.  1.
          1    1    1    2  501    0  0.18061234075E+01 -0.31608452018E+02 -0.31091912668E+01  0.31812315085E+02  0.00000000000E+00 0. -1.
         -2    1    1    2    0  502 -0.66002378010E+01  0.55212896526E+02  0.57732719259E+02  0.80156683781E+02  0.00000000000E+00 0.  1.
<mgrwt>
<rscale>  2 0.85607310E+02</rscale>
<asrwt>0</asrwt>
<pdfrwt beam="1">  1       21 0.25261192E-01 0.85607310E+02</pdfrwt>
<pdfrwt beam="2">  1       21 0.77615942E-02 0.85607310E+02</pdfrwt>
<totfact> 0.18450668E+06</totfact>
</mgrwt>
</event>
<event>
 5    1  0.1946229E+000  0.6555590E+02  0.7546771E-02  0.1375893E+00
         21   -1    0    0  501  502  0.00000000000E+00  0.00000000000E+00  0.20152250497E+04  0.20152250497E+04  0.00000000000E+00 0.  1.
         21   -1    0    0  502  503 -0.00000000000E+00 -0.00000000000E+00 -0.23549833259E+01  0.23549833259E+01  0.00000000000E+00 0. -1.
         24    1    1    2    0    0 -0.17592218098E+02  0.84424853934E+01  0.10618908972E+04  0.10651104427E+04  0.80419002446E+02 0. -1.
          1    1    1    2  501    0  0.64600772679E+01 -0.26428700919E+02  0.72286305579E+03  0.72337487257E+03  0.00000000000E+00 0. -1.
         -2    1    1    2    0  503  0.11132140830E+02  0.17986215525E+02  0.22811611341E+03  0.22909471776E+03  0.00000000000E+00 0.  1.
<mgrwt>
<rscale>  2 0.65555897E+02</rscale>
<asrwt>0</asrwt>
<pdfrwt beam="1">  1       21 0.31003324E+00 0.65555897E+02</pdfrwt>
<pdfrwt beam="2">  1       21 0.36230674E-03 0.65555897E+02</pdfrwt>
<totfact> 0.61914337E+05</totfact>
</mgrwt>
</event>
<event>
 5    1  0.1946229E+000  0.1357621E+03  0.7546771E-02  0.1219148E+00
         21   -1    0    0  501  502  0.00000000000E+00  0.00000000000E+00  0.35874348893E+02  0.35874348893E+02  0.00000000000E+00 0. -1.
         21   -1    0    0  502  503 -0.00000000000E+00 -0.00000000000E+00 -0.74334020046E+03  0.74334020046E+03  0.00000000000E+00 0. -1.
         24    1    1    2    0    0  0.93902723318E+02  0.74546240194E+02 -0.40137635348E+03  0.42655018047E+03  0.80419002446E+02 0. -1.
          1    1    1    2  501    0 -0.73602235275E+02 -0.77222919505E+02 -0.10215162383E+03  0.14770112588E+03  0.00000000000E+00 0. -1.
         -2    1    1    2    0  503 -0.20300488044E+02  0.26766793106E+01 -0.20393787425E+03  0.20496324300E+03  0.00000000000E+00 0.  1.
<mgrwt>
<rscale>  2 0.13576213E+03</rscale>
<asrwt>0</asrwt>
<pdfrwt beam="1">  1       21 0.55191306E-02 0.13576213E+03</pdfrwt>
<pdfrwt beam="2">  1       21 0.11436003E+00 0.13576213E+03</pdfrwt>
<totfact> 0.13820025E+05</totfact>
</mgrwt>
</event>
<event>
 5    1  0.1946229E+000  0.7114570E+02  0.7546771E-02  0.1356240E+00
         21   -1    0    0  503  502  0.00000000000E+00  0.00000000000E+00  0.64526070381E+02  0.64526070381E+02  0.00000000000E+00 0.  1.
         21   -1    0    0  501  503 -0.00000000000E+00 -0.00000000000E+00 -0.18400262925E+03  0.18400262925E+03  0.00000000000E+00 0.  1.
         24    1    1    2    0    0  0.47729340826E+02  0.30577022993E+01 -0.15312837945E+03  0.17945182102E+03  0.80419002446E+02 0.  1.
          1    1    1    2  501    0 -0.27020711363E+02 -0.63488550244E+01 -0.18790563845E+01  0.27820094456E+02  0.00000000000E+00 0. -1.
         -2    1    1    2    0  502 -0.20708629464E+02  0.32911527252E+01  0.35530876970E+02  0.41256784154E+02  0.00000000000E+00 0.  1.
<mgrwt>
<rscale>  2 0.71145702E+02</rscale>
<asrwt>0</asrwt>
<pdfrwt beam="1">  1       21 0.99270878E-02 0.71145702E+02</pdfrwt>
<pdfrwt beam="2">  1       21 0.28308097E-01 0.71145702E+02</pdfrwt>
<totfact> 0.97213492E+05</totfact>
</mgrwt>
</event>
<event>
 5    1  0.1946229E+000  0.1292804E+03  0.7546771E-02  0.1228527E+00
         21   -1    0    0  501  502  0.00000000000E+00  0.00000000000E+00  0.70849534161E+02  0.70849534161E+02  0.00000000000E+00 0. -1.
         21   -1    0    0  502  503 -0.00000000000E+00 -0.00000000000E+00 -0.32239610628E+03  0.32239610628E+03  0.00000000000E+00 0. -1.
         24    1    1    2    0    0 -0.81298914313E+02  0.50862150852E+00 -0.17824626661E+03  0.21177516303E+03  0.80419002446E+02 0. -1.
          1    1    1    2  501    0  0.11214593472E+03  0.73089338045E+01 -0.12798529529E+02  0.11311027162E+03  0.00000000000E+00 0. -1.
         -2    1    1    2    0  503 -0.30847020404E+02 -0.78175553130E+01 -0.60501775981E+02  0.68360205791E+02  0.00000000000E+00 0.  1.
<mgrwt>
<rscale>  2 0.12928036E+03</rscale>
<asrwt>0</asrwt>
<pdfrwt beam="1">  1       21 0.10899928E-01 0.12928036E+03</pdfrwt>
<pdfrwt beam="2">  1       21 0.49599402E-01 0.12928036E+03</pdfrwt>
<totfact> 0.27387519E+05</totfact>
</mgrwt>
</event>
<event>
 5    1  0.1946229E+000  0.8390756E+02  0.7546771E-02  0.1318314E+00
         21   -1    0    0  503  502  0.00000000000E+00  0.00000000000E+00  0.10055272790E+04  0.10055272790E+04  0.00000000000E+00 0. -1.
         21   -1    0    0  501  503 -0.00000000000E+00 -0.00000000000E+00 -0.14576777589E+02  0.14576777589E+02  0.00000000000E+00 0. -1.
         24    1    1    2    0    0 -0.16541723325E+01  0.39172132456E+01  0.61951508994E+03  0.62472733529E+03  0.80419002446E+02 0. -1.
          1    1    1    2  501    0  0.16081577069E+02  0.38904352944E+02  0.31824259553E+02  0.52772618801E+02  0.00000000000E+00 0. -1.
         -2    1    1    2    0  502 -0.14427404737E+02 -0.42821566190E+02  0.33961115194E+03  0.34260410251E+03  0.00000000000E+00 0.  1.
<mgrwt>
<rscale>  2 0.83907563E+02</rscale>
<asrwt>0</asrwt>
<pdfrwt beam="1">  1       21 0.15469645E+00 0.83907563E+02</pdfrwt>
<pdfrwt beam="2">  1       21 0.22425820E-02 0.83907563E+02</pdfrwt>
<totfact> 0.29316206E+05</totfact>
</mgrwt>
</event>
<event>
 5    1  0.1946229E+000  0.6898262E+02  0.7546771E-02  0.1363587E+00
         21   -1    0    0  501  502  0.00000000000E+00  0.00000000000E+00  0.22918032052E+02  0.22918032052E+02  0.00000000000E+00 0.  1.
         21   -1    0    0  502  503 -0.00000000000E+00 -0.00000000000E+00 -0.34518927672E+03  0.34518927672E+03  0.00000000000E+00 0. -1.
         24    1    1    2    0    0 -0.12642412212E+02 -0.76052680866E+01 -0.64110356769E+02  0.10389910726E+03  0.80419002446E+02 0.  1.
          1    1    1    2  501    0  0.28294037265E+02 -0.12325595627E+02 -0.14134188384E+03  0.14467204630E+03  0.00000000000E+00 0. -1.
         -2    1    1    2    0  503 -0.15651625053E+02  0.19930863713E+02 -0.11681900406E+03  0.11953615522E+03  0.00000000000E+00 0.  1.
<mgrwt>
<rscale>  2 0.68982615E+02</rscale>
<asrwt>0</asrwt>
<pdfrwt beam="1">  1       21 0.35258511E-02 0.68982615E+02</pdfrwt>
<pdfrwt beam="2">  1       21 0.53106043E-01 0.68982615E+02</pdfrwt>
<totfact> 0.15941189E+06</totfact>
</mgrwt>
</event>
<event>
 5    1  0.1946229E+000  0.1653948E+03  0.7546771E-02  0.1182737E+00
         21   -1    0    0  501  502  0.00000000000E+00  0.00000000000E+00  0.15432283159E+04  0.15432283159E+04  0.00000000000E+00 0. -1.
         21   -1    0    0  502  503 -0.00000000000E+00 -0.00000000000E+00 -0.18923936185E+03  0.18923936185E+03  0.00000000000E+00 0.  1.
         24    1    1    2    0    0  0.14479446562E+03 -0.22740166282E+01  0.28421441483E+03  0.32896148404E+03  0.80419002446E+02 0. -1.
          1    1    1    2  501    0 -0.12676083860E+03  0.31671815964E+02  0.12313643871E+04  0.12382768947E+04  0.00000000000E+00 0. -1.
         -2    1    1    2    0  503 -0.18033627020E+02 -0.29397799336E+02 -0.16158984789E+03  0.16522929901E+03  0.00000000000E+00 0.  1.
<mgrwt>
<rscale>  2 0.16539479E+03</rscale>
<asrwt>0</asrwt>
<pdfrwt beam="1">  1       21 0.23741973E+00 0.16539479E+03</pdfrwt>
<pdfrwt beam="2">  1       21 0.29113749E-01 0.16539479E+03</pdfrwt>
<totfact> 0.92393430E+02</totfact>
</mgrwt>
</event>
<event>
 5    1  0.1946229E+000  0.1576205E+03  0.7546771E-02  0.1191410E+00
         21   -1    0    0  501  502  0.00000000000E+00  0.00000000000E+00  0.42155549992E+03  0.42155549992E+03  0.00000000000E+00 0. -1.
         21   -1    0    0  502  503 -0.00000000000E+00 -0.00000000000E+00 -0.18374269187E+03  0.18374269187E+03  0.00000000000E+00 0. -1.
         24    1    1    2    0    0 -0.42046562125E+02  0.10824784137E+03  0.36313084374E+03  0.38963666945E+03  0.80419002446E+02 0. -1.
          1    1    1    2  501    0  0.49416745197E+02 -0.13630054762E+03 -0.93048810630E+02  0.17227285087E+03  0.00000000000E+00 0. -1.
         -2    1    1    2    0  503 -0.73701830725E+01  0.28052706244E+02 -0.32269225058E+02  0.43388671471E+02  0.00000000000E+00 0.  1.
<mgrwt>
<rscale>  2 0.15762054E+03</rscale>
<asrwt>0</asrwt>
<pdfrwt beam="1">  1       21 0.64854692E-01 0.15762054E+03</pdfrwt>
<pdfrwt beam="2">  1       21 0.28268106E-01 0.15762054E+03</pdfrwt>
<totfact> 0.26741120E+04</totfact>
</mgrwt>
</event>
<event>
 5    1  0.1946229E+000  0.8540761E+02  0.7546771E-02  0.1314370E+00
         21   -1    0    0  501  502  0.00000000000E+00  0.00000000000E+00  0.25517700102E+03  0.25517700102E+03  0.00000000000E+00 0. -1.
         21   -1    0    0  502  503 -0.00000000000E+00 -0.00000000000E+00 -0.53403976861E+02  0.53403976861E+02  0.00000000000E+00 0.  1.
         24    1    1    2    0    0  0.39057863243E+02  0.24057994950E+02  0.11261381544E+03  0.14578542858E+03  0.80419002446E+02 0.  0.
          1    1    1    2  501    0 -0.10298684307E+02 -0.42723522130E+02  0.11286066593E+03  0.12111520200E+03  0.00000000000E+00 0. -1.
         -2    1    1    2    0  503 -0.28759178935E+02  0.18665527180E+02 -0.23701457209E+02  0.41680347308E+02  0.00000000000E+00 0.  1.
<mgrwt>
<rscale>  2 0.85407611E+02</rscale>
<asrwt>0</asrwt>
<pdfrwt beam="1">  1       21 0.39257999E-01 0.85407611E+02</pdfrwt>
<pdfrwt beam="2">  1       21 0.82159966E-02 0.85407611E+02</pdfrwt>
<totfact> 0.71875222E+05</totfact>
</mgrwt>
</event>
<event>
 5    1  0.1946229E+000  0.9441423E+02  0.7546771E-02  0.1292501E+00
         21   -1    0    0  501  502  0.00000000000E+00  0.00000000000E+00  0.46155963908E+02  0.46155963908E+02  0.00000000000E+00 0. -1.
         21   -1    0    0  502  503 -0.00000000000E+00 -0.00000000000E+00 -0.23535487248E+03  0.23535487248E+03  0.00000000000E+00 0.  1.
         24    1    1    2    0    0 -0.60766107558E+02 -0.42300662597E+01 -0.40857451403E+02  0.10884374386E+03  0.80419002446E+02 0.  1.
          1    1    1    2  501    0  0.60567912239E+02 -0.19945755180E+02 -0.99700727661E+02  0.11834922999E+03  0.00000000000E+00 0. -1.
         -2    1    1    2    0  503  0.19819531870E+00  0.24175821440E+02 -0.48640729511E+02  0.54317862541E+02  0.00000000000E+00 0.  1.
<mgrwt>
<rscale>  2 0.94414229E+02</rscale>
<asrwt>0</asrwt>
<pdfrwt beam="1">  1       21 0.71009176E-02 0.94414229E+02</pdfrwt>
<pdfrwt beam="2">  1       21 0.36208441E-01 0.94414229E+02</pdfrwt>
<totfact> 0.10815182E+06</totfact>
</mgrwt>
</event>
<event>
 5    1  0.1946229E+000  0.1044900E+03  0.7546771E-02  0.1271128E+00
         21   -1    0    0  503  502  0.00000000000E+00  0.00000000000E+00  0.28704844869E+03  0.28704844869E+03  0.00000000000E+00 0. -1.
         21   -1    0    0  501  503 -0.00000000000E+00 -0.00000000000E+00 -0.84998437748E+02  0.84998437748E+02  0.00000000000E+00 0. -1.
         24    1    1    2    0    0  0.32258582286E+02 -0.50411035773E+02  0.18300126539E+03  0.20865897476E+03  0.80419002446E+02 0. -1.
          1    1    1    2  501    0 -0.42637485649E+02  0.72624860541E+02 -0.44516494700E+02  0.95257775806E+02  0.00000000000E+00 0. -1.
         -2    1    1    2    0  502  0.10378903363E+02 -0.22213824767E+02  0.63565240251E+02  0.68130135873E+02  0.00000000000E+00 0.  1.
<mgrwt>
<rscale>  2 0.10449003E+03</rscale>
<asrwt>0</asrwt>
<pdfrwt beam="1">  1       21 0.44161299E-01 0.10449003E+03</pdfrwt>
<pdfrwt beam="2">  1       21 0.13076683E-01 0.10449003E+03</pdfrwt>
<totfact> 0.25293484E+05</totfact>
</mgrwt>
</event>
<event>
 5    1  0.1946229E+000  0.1057966E+03  0.7546771E-02  0.1268558E+00
         21   -1    0    0  503  502  0.00000000000E+00  0.00000000000E+00  0.12835869265E+03  0.12835869265E+03  0.00000000000E+00 0.  1.
         21   -1    0    0  501  503 -0.00000000000E+00 -0.00000000000E+00 -0.10911714831E+03  0.10911714831E+03  0.00000000000E+00 0.  1.
         24    1    1    2    0    0  0.87364273427E+02  0.26474767608E+01  0.40156145770E+02  0.12537646271E+03  0.80419002446E+02 0.  1.
          1    1    1    2  501    0 -0.17392996328E+02  0.12260178639E+02 -0.33275223416E+02  0.39497706198E+02  0.00000000000E+00 0. -1.
         -2    1    1    2    0  502 -0.69971277099E+02 -0.14907655400E+02  0.12360621987E+02  0.72601672049E+02  0.00000000000E+00 0.  1.
<mgrwt>
<rscale>  2 0.10579664E+03</rscale>
<asrwt>0</asrwt>
<pdfrwt beam="1">  1       21 0.19747491E-01 0.10579664E+03</pdfrwt>
<pdfrwt beam="2">  1       21 0.16787254E-01 0.10579664E+03</pdfrwt>
<totfact> 0.75688265E+05</totfact>
</mgrwt>
</event>
<event>
 5    1  0.1946229E+000  0.8713432E+02  0.7546771E-02  0.1309944E+00
         21   -1    0    0  501  502  0.00000000000E+00  0.00000000000E+00  0.13856877406E+03  0.13856877406E+03  0.00000000000E+00 0.  1.
         21   -1    0    0  502  503 -0.00000000000E+00 -0.00000000000E+00 -0.82038638454E+02  0.82038638454E+02  0.00000000000E+00 0.  1.
         24    1    1    2    0    0  0.45260397015E+02 -0.32314751382E+02  0.91073558220E+02  0.13362019180E+03  0.80419002446E+02 0.  1.
          1    1    1    2  501    0 -0.10910464169E+02  0.39858707183E+02 -0.61346559279E+01  0.41777850232E+02  0.00000000000E+00 0. -1.
         -2    1    1    2    0  503 -0.34349932846E+02 -0.75439558008E+01 -0.28408766681E+02  0.45209370489E+02  0.00000000000E+00 0.  1.
<mgrwt>
<rscale>  2 0.87134317E+02</rscale>
<asrwt>0</asrwt>
<pdfrwt beam="1">  1       21 0.21318273E-01 0.87134317E+02</pdfrwt>
<pdfrwt beam="2">  1       21 0.12621329E-01 0.87134317E+02</pdfrwt>
<totfact> 0.10906857E+06</totfact>
</mgrwt>
</event>
<event>
 5    1  0.1946229E+000  0.1213062E+03  0.7546771E-02  0.1240958E+00
         21   -1    0    0  501  502  0.00000000000E+00  0.00000000000E+00  0.76610868736E+02  0.76610868736E+02  0.00000000000E+00 0. -1.
         21   -1    0    0  502  503 -0.00000000000E+00 -0.00000000000E+00 -0.34795789055E+03  0.34795789055E+03  0.00000000000E+00 0.  1.
         24    1    1    2    0    0 -0.83704148348E+02 -0.66733873148E+02 -0.17385163912E+03  0.21943427867E+03  0.80419002446E+02 0.  1.
          1    1    1    2  501    0  0.27570318668E+02  0.11199650376E+02  0.38026704556E+02  0.48286487751E+02  0.00000000000E+00 0. -1.
         -2    1    1    2    0  503  0.56133829680E+02  0.55534222772E+02 -0.13552208724E+03  0.15684799286E+03  0.00000000000E+00 0.  1.
<mgrwt>
<rscale>  2 0.12130622E+03</rscale>
<asrwt>0</asrwt>
<pdfrwt beam="1">  1       21 0.11786287E-01 0.12130622E+03</pdfrwt>
<pdfrwt beam="2">  1       21 0.53531983E-01 0.12130622E+03</pdfrwt>
<totfact> 0.20412698E+05</totfact>
</mgrwt>
</event>
<event>
 5    1  0.1946229E+000  0.1253790E+03  0.7546771E-02  0.1234478E+00
         21   -1    0    0  503  502  0.00000000000E+00  0.00000000000E+00  0.11484646976E+03  0.11484646976E+03  0.00000000000E+00 0.  1.
         21   -1    0    0  501  503 -0.00000000000E+00 -0.00000000000E+00 -0.23781828702E+03  0.23781828702E+03  0.00000000000E+00 0. -1.
         24    1    1    2    0    0 -0.95495204910E+01  0.47387950872E+02  0.65249614907E+01  0.94056378339E+02  0.80419002446E+02 0.  1.
          1    1    1    2  501    0 -0.41933238575E+02  0.38412385565E+02 -0.14646638337E+03  0.15711877456E+03  0.00000000000E+00 0. -1.
         -2    1    1    2    0  502  0.51482759066E+02 -0.85800336437E+02  0.16969604631E+02  0.10148960388E+03  0.00000000000E+00 0.  1.
<mgrwt>
<rscale>  2 0.12537904E+03</rscale>
<asrwt>0</asrwt>
<pdfrwt beam="1">  1       21 0.17668688E-01 0.12537904E+03</pdfrwt>
<pdfrwt beam="2">  1       21 0.36587429E-01 0.12537904E+03</pdfrwt>
<totfact> 0.21307224E+05</totfact>
</mgrwt>
</event>
<event>
 5    1  0.1946229E+000  0.1081396E+03  0.7546771E-02  0.1264054E+00
         21   -1    0    0  501  502  0.00000000000E+00  0.00000000000E+00  0.34899796557E+03  0.34899796557E+03  0.00000000000E+00 0. -1.
         21   -1    0    0  502  503 -0.00000000000E+00 -0.00000000000E+00 -0.16945169077E+03  0.16945169077E+03  0.00000000000E+00 0.  1.
         24    1    1    2    0    0 -0.48140279574E+02  0.71597570368E+02  0.15264510604E+03  0.19290267742E+03  0.80419002446E+02 0.  0.
          1    1    1    2  501    0  0.23468032613E+02 -0.69751330406E+02  0.16741246979E+03  0.18287408699E+03  0.00000000000E+00 0. -1.
         -2    1    1    2    0  503  0.24672246961E+02 -0.18462399622E+01 -0.14051130104E+03  0.14267289193E+03  0.00000000000E+00 0.  1.
<mgrwt>
<rscale>  2 0.10813961E+03</rscale>
<asrwt>0</asrwt>
<pdfrwt beam="1">  1       21 0.53691995E-01 0.10813961E+03</pdfrwt>
<pdfrwt beam="2">  1       21 0.26069491E-01 0.10813961E+03</pdfrwt>
<totfact> 0.48002775E+04</totfact>
</mgrwt>
</event>
<event>
 5    1  0.1946229E+000  0.7359870E+02  0.7546771E-02  0.1348266E+00
         21   -1    0    0  503  502  0.00000000000E+00  0.00000000000E+00  0.15735243139E+04  0.15735243139E+04  0.00000000000E+00 0. -1.
         21   -1    0    0  501  503 -0.00000000000E+00 -0.00000000000E+00 -0.11426650885E+02  0.11426650885E+02  0.00000000000E+00 0. -1.
         24    1    1    2    0    0 -0.38584560239E+02 -0.27551389384E+02  0.10363873905E+04  0.10405834356E+04  0.80419002446E+02 0. -1.
          1    1    1    2  501    0  0.16911165932E+02  0.27364900160E+02  0.19342455157E+02  0.37536060868E+02  0.00000000000E+00 0. -1.
         -2    1    1    2    0  502  0.21673394307E+02  0.18648922387E+00  0.50636781740E+03  0.50683146833E+03  0.00000000000E+00 0.  1.
<mgrwt>
<rscale>  2 0.73598700E+02</rscale>
<asrwt>0</asrwt>
<pdfrwt beam="1">  1       21 0.24208049E+00 0.73598700E+02</pdfrwt>
<pdfrwt beam="2">  1       21 0.17579475E-02 0.73598700E+02</pdfrwt>
<totfact> 0.12471976E+05</totfact>
</mgrwt>
</event>
<event>
 5    1  0.1946229E+000  0.1197515E+03  0.7546771E-02  0.1243508E+00
         21   -1    0    0  501  502  0.00000000000E+00  0.00000000000E+00  0.25671962768E+02  0.25671962768E+02  0.00000000000E+00 0.  1.
         21   -1    0    0  502  503 -0.00000000000E+00 -0.00000000000E+00 -0.65776321087E+03  0.65776321087E+03  0.00000000000E+00 0. -1.
         24    1    1    2    0    0  0.47562347300E+02  0.33734410091E+02 -0.14744101289E+03  0.17778148256E+03  0.80419002446E+02 0.  1.
          1    1    1    2  501    0 -0.87228473601E+02 -0.46045267866E+02 -0.28092065623E+03  0.29773375421E+03  0.00000000000E+00 0. -1.
         -2    1    1    2    0  503  0.39666126300E+02  0.12310857775E+02 -0.20372957898E+03  0.20791993687E+03  0.00000000000E+00 0.  1.
<mgrwt>
<rscale>  2 0.11975149E+03</rscale>
<asrwt>0</asrwt>
<pdfrwt beam="1">  1       21 0.39495331E-02 0.11975149E+03</pdfrwt>
<pdfrwt beam="2">  1       21 0.10119433E+00 0.11975149E+03</pdfrwt>
<totfact> 0.32530267E+05</totfact>
</mgrwt>
</event>
<event>
 5    1  0.1946229E+000  0.1117154E+03  0.7546771E-02  0.1257426E+00
         21   -1    0    0  503  502  0.00000000000E+00  0.00000000000E+00  0.55560522598E+02  0.55560522598E+02  0.00000000000E+00 0.  1.
         21   -1    0    0  501  503 -0.00000000000E+00 -0.00000000000E+00 -0.56463596089E+03  0.56463596089E+03  0.00000000000E+00 0.  1.
         24    1    1    2    0    0 -0.40598927617E+01  0.80680907172E+02 -0.24076562669E+03  0.26638542464E+03  0.80419002446E+02 0.  1.
          1    1    1    2  501    0  0.30239069975E+02 -0.67070463578E+01 -0.27342603898E+03  0.27517482555E+03  0.00000000000E+00 0. -1.
         -2    1    1    2    0  502 -0.26179177213E+02 -0.73973860815E+02  0.51162273867E+01  0.78636233290E+02  0.00000000000E+00 0.  1.
<mgrwt>
<rscale>  2 0.11171544E+03</rscale>
<asrwt>0</asrwt>
<pdfrwt beam="1">  1       21 0.85477729E-02 0.11171544E+03</pdfrwt>
<pdfrwt beam="2">  1       21 0.86867069E-01 0.11171544E+03</pdfrwt>
<totfact> 0.12574695E+05</totfact>
</mgrwt>
</event>
<event>
 5    1  0.1946229E+000  0.7333617E+02  0.7546771E-02  0.1349102E+00
         21   -1    0    0  501  502  0.00000000000E+00  0.00000000000E+00  0.19850382406E+04  0.19850382406E+04  0.00000000000E+00 0.  1.
         21   -1    0    0  502  503 -0.00000000000E+00 -0.00000000000E+00 -0.49727113216E+01  0.49727113216E+01  0.00000000000E+00 0.  1.
         24    1    1    2    0    0  0.85628467025E+00  0.48768182227E+02  0.95082200014E+03  0.95546258991E+03  0.80419002446E+02 0.  1.
          1    1    1    2  501    0  0.94415833002E+01 -0.22266850543E+02  0.95086166951E+03  0.95116921243E+03  0.00000000000E+00 0. -1.
         -2    1    1    2    0  503 -0.10297867970E+02 -0.26501331684E+02  0.78381859638E+02  0.83379149588E+02  0.00000000000E+00 0.  1.
<mgrwt>
<rscale>  2 0.73336173E+02</rscale>
<asrwt>0</asrwt>
<pdfrwt beam="1">  1       21 0.30538986E+00 0.73336173E+02</pdfrwt>
<pdfrwt beam="2">  1       21 0.76503410E-03 0.73336173E+02</pdfrwt>
<totfact> 0.20707651E+05</totfact>
</mgrwt>
</event>
<event>
 5    1  0.1946229E+000  0.1002093E+03  0.7546771E-02  0.1279856E+00
         21   -1    0    0  501  502  0.00000000000E+00  0.00000000000E+00  0.23706893605E+02  0.23706893605E+02  0.00000000000E+00 0.  1.
         21   -1    0    0  502  503 -0.00000000000E+00 -0.00000000000E+00 -0.63359427485E+03  0.63359427485E+03  0.00000000000E+00 0.  1.
         24    1    1    2    0    0  0.83689620885E+02 -0.59651681464E+01 -0.36570347282E+03  0.38372618084E+03  0.80419002446E+02 0.  1.
          1    1    1    2  501    0 -0.32920213285E+02 -0.11161505754E+01 -0.10855105382E+02  0.34681688939E+02  0.00000000000E+00 0. -1.
         -2    1    1    2    0  503 -0.50769407600E+02  0.70813187218E+01 -0.23332880304E+03  0.23889329867E+03  0.00000000000E+00 0.  1.
<mgrwt>
<rscale>  2 0.10020928E+03</rscale>
<asrwt>0</asrwt>
<pdfrwt beam="1">  1       21 0.36472149E-02 0.10020928E+03</pdfrwt>
<pdfrwt beam="2">  1       21 0.97476029E-01 0.10020928E+03</pdfrwt>
<totfact> 0.40640600E+05</totfact>
</mgrwt>
</event>
<event>
 5    1  0.1946229E+000  0.6825338E+02  0.7546771E-02  0.1366135E+00
         21   -1    0    0  503  502  0.00000000000E+00  0.00000000000E+00  0.60122591367E+03  0.60122591367E+03  0.00000000000E+00 0.  1.
         21   -1    0    0  501  503 -0.00000000000E+00 -0.00000000000E+00 -0.33078625467E+02  0.33078625467E+02  0.00000000000E+00 0. -1.
         24    1    1    2    0    0 -0.20244373265E+02 -0.10092537534E+02  0.12596496717E+03  0.15114920731E+03  0.80419002446E+02 0.  0.
          1    1    1    2  501    0  0.10981809390E+02  0.29491622231E+02 -0.79913241303E+01  0.32468710794E+02  0.00000000000E+00 0. -1.
         -2    1    1    2    0  502  0.92625638750E+01 -0.19399084697E+02  0.45017364516E+03  0.45068662103E+03  0.00000000000E+00 0.  1.
<mgrwt>
<rscale>  2 0.68253379E+02</rscale>
<asrwt>0</asrwt>
<pdfrwt beam="1">  1       21 0.92496286E-01 0.68253379E+02</pdfrwt>
<pdfrwt beam="2">  1       21 0.50890198E-02 0.68253379E+02</pdfrwt>
<totfact> 0.26628819E+05</totfact>
</mgrwt>
</event>
<event>
 5    1  0.1946229E+000  0.9731690E+02  0.7546771E-02  0.1286041E+00
         21   -1    0    0  503  502  0.00000000000E+00  0.00000000000E+00  0.23007582847E+03  0.23007582847E+03  0.00000000000E+00 0. -1.
         21   -1    0    0  501  503 -0.00000000000E+00 -0.00000000000E+00 -0.43480007668E+02  0.43480007668E+02  0.00000000000E+00 0.  1.
         24    1    1    2    0    0 -0.27634888998E+02  0.10404091879E+02  0.51929333004E+02  0.10017885904E+03  0.80419002446E+02 0.  0.
          1    1    1    2  501    0 -0.35545961016E+02 -0.25815990453E+02  0.48779109040E+02  0.65645884763E+02  0.00000000000E+00 0. -1.
         -2    1    1    2    0  502  0.63180850013E+02  0.15411898574E+02  0.85887378758E+02  0.10773109234E+03  0.00000000000E+00 0.  1.
<mgrwt>
<rscale>  2 0.97316900E+02</rscale>
<asrwt>0</asrwt>
<pdfrwt beam="1">  1       21 0.35396280E-01 0.97316900E+02</pdfrwt>
<pdfrwt beam="2">  1       21 0.66892321E-02 0.97316900E+02</pdfrwt>
<totfact> 0.12517621E+06</totfact>
</mgrwt>
</event>
<event>
 5    1  0.1946229E+000  0.7872758E+02  0.7546771E-02  0.1332702E+00
         21   -1    0    0  501  502  0.00000000000E+00  0.00000000000E+00  0.59130038855E+01  0.59130038855E+01  0.00000000000E+00 0. -1.
         21   -1    0    0  502  503 -0.00000000000E+00 -0.00000000000E+00 -0.14437655363E+04  0.14437655363E+04  0.00000000000E+00 0.  1.
         24    1    1    2    0    0  0.12658171954E+02 -0.37233037957E+02 -0.41442625894E+03  0.42398451444E+03  0.80419002446E+02 0.  1.
          1    1    1    2  501    0 -0.28148196560E+02  0.59146183081E+00 -0.38303044664E+03  0.38406378877E+03  0.00000000000E+00 0. -1.
         -2    1    1    2    0  503  0.15490024606E+02  0.36641576126E+02 -0.64039582687E+03  0.64163023700E+03  0.00000000000E+00 0.  1.
<mgrwt>
<rscale>  2 0.78727578E+02</rscale>
<asrwt>0</asrwt>
<pdfrwt beam="1">  1       21 0.90969156E-03 0.78727578E+02</pdfrwt>
<pdfrwt beam="2">  1       21 0.22211810E+00 0.78727578E+02</pdfrwt>
<totfact> 0.45252021E+05</totfact>
</mgrwt>
</event>
<event>
 5    1  0.1946229E+000  0.1283827E+03  0.7546771E-02  0.1229875E+00
         21   -1    0    0  503  502  0.00000000000E+00  0.00000000000E+00  0.93421140427E+03  0.93421140427E+03  0.00000000000E+00 0.  1.
         21   -1    0    0  501  503 -0.00000000000E+00 -0.00000000000E+00 -0.34507449582E+02  0.34507449582E+02  0.00000000000E+00 0.  1.
         24    1    1    2    0    0  0.18076682344E+01 -0.88216274856E+02  0.23950316257E+03  0.26760859413E+03  0.80419002446E+02 0.  1.
          1    1    1    2  501    0  0.12229611375E+02 -0.22590701196E+02 -0.53606351468E+01  0.26241943222E+02  0.00000000000E+00 0. -1.
         -2    1    1    2    0  502 -0.14037279609E+02  0.11080697605E+03  0.66556142726E+03  0.67486831651E+03  0.00000000000E+00 0.  1.
<mgrwt>
<rscale>  2 0.12838269E+03</rscale>
<asrwt>0</asrwt>
<pdfrwt beam="1">  1       21 0.14372481E+00 0.12838269E+03</pdfrwt>
<pdfrwt beam="2">  1       21 0.53088391E-02 0.12838269E+03</pdfrwt>
<totfact> 0.83952769E+04</totfact>
</mgrwt>
</event>
<event>
 5    1  0.1946229E+000  0.7085520E+02  0.7546771E-02  0.1357209E+00
         21   -1    0    0  503  502  0.00000000000E+00  0.00000000000E+00  0.19197823803E+02  0.19197823803E+02  0.00000000000E+00 0.  1.
         21   -1    0    0  501  503 -0.00000000000E+00 -0.00000000000E+00 -0.58445523601E+03  0.58445523601E+03  0.00000000000E+00 0.  1.
         24    1    1    2    0    0 -0.10757125825E+02  0.42349106674E+01 -0.11297129037E+03  0.13915235761E+03  0.80419002446E+02 0.  0.
          1    1    1    2  501    0  0.75661655686E+01  0.27524442159E+02 -0.41253033667E+03  0.41351677167E+03  0.00000000000E+00 0. -1.
         -2    1    1    2    0  502  0.31909602569E+01 -0.31759352827E+02 -0.39755785169E+02  0.50983930544E+02  0.00000000000E+00 0.  1.
<mgrwt>
<rscale>  2 0.70855201E+02</rscale>
<asrwt>0</asrwt>
<pdfrwt beam="1">  1       21 0.29535117E-02 0.70855201E+02</pdfrwt>
<pdfrwt beam="2">  1       21 0.89916179E-01 0.70855201E+02</pdfrwt>
<totfact> 0.68974081E+05</totfact>
</mgrwt>
</event>
<event>
 5    1  0.1946229E+000  0.7277956E+02  0.7546771E-02  0.1350888E+00
         21   -1    0    0  501  502  0.00000000000E+00  0.00000000000E+00  0.14269674454E+03  0.14269674454E+03  0.00000000000E+00 0. -1.
         21   -1    0    0  502  503 -0.00000000000E+00 -0.00000000000E+00 -0.39460735621E+02  0.39460735621E+02  0.00000000000E+00 0. -1.
         24    1    1    2    0    0 -0.21062044493E+02  0.44807878487E+02  0.68202420360E+02  0.11649095154E+03  0.80419002446E+02 0. -1.
          1    1    1    2  501    0  0.15621117324E+02 -0.18300564369E+02  0.29462483842E+02  0.38039031492E+02  0.00000000000E+00 0. -1.
         -2    1    1    2    0  503  0.54409271684E+01 -0.26507314117E+02  0.55711047204E+01  0.27627497135E+02  0.00000000000E+00 0.  1.
<mgrwt>
<rscale>  2 0.72779556E+02</rscale>
<asrwt>0</asrwt>
<pdfrwt beam="1">  1       21 0.21953345E-01 0.72779556E+02</pdfrwt>
<pdfrwt beam="2">  1       21 0.60708824E-02 0.72779556E+02</pdfrwt>
<totfact> 0.35917840E+06</totfact>
</mgrwt>
</event>
<event>
 5    1  0.1946229E+000  0.9056020E+02  0.7546771E-02  0.1301501E+00
         21   -1    0    0  503  502  0.00000000000E+00  0.00000000000E+00  0.39211653265E+03  0.39211653265E+03  0.00000000000E+00 0.  1.
         21   -1    0    0  501  503 -0.00000000000E+00 -0.00000000000E+00 -0.51770639043E+02  0.51770639043E+02  0.00000000000E+00 0.  1.
         24    1    1    2    0    0 -0.58273888915E+02  0.43466522630E+02  0.58638609120E+02  0.12325131704E+03  0.80419002446E+02 0.  1.
          1    1    1    2  501    0  0.23853764924E+02 -0.16963219892E+02 -0.58217044238E+01  0.29843678938E+02  0.00000000000E+00 0. -1.
         -2    1    1    2    0  502  0.34420123991E+02 -0.26503302738E+02  0.28752898891E+03  0.29079217571E+03  0.00000000000E+00 0.  1.
<mgrwt>
<rscale>  2 0.90560201E+02</rscale>
<asrwt>0</asrwt>
<pdfrwt beam="1">  1       21 0.60325619E-01 0.90560201E+02</pdfrwt>
<pdfrwt beam="2">  1       21 0.79647139E-02 0.90560201E+02</pdfrwt>
<totfact> 0.31631305E+05</totfact>
</mgrwt>
</event>
<event>
 5    1  0.1946229E+000  0.6347875E+02  0.7546771E-02  0.1383787E+00
         21   -1    0    0  501  502  0.00000000000E+00  0.00000000000E+00  0.20085650267E+02  0.20085650267E+02  0.00000000000E+00 0. -1.
         21   -1    0    0  502  503 -0.00000000000E+00 -0.00000000000E+00 -0.61931675461E+03  0.61931675461E+03  0.00000000000E+00 0. -1.
         24    1    1    2    0    0  0.28634920836E+02 -0.14183330916E+02 -0.88205050140E+02  0.12356566024E+03  0.80419002446E+02 0. -1.
          1    1    1    2  501    0 -0.19673774011E+02 -0.40678102290E+01 -0.44012896365E+02  0.48381189633E+02  0.00000000000E+00 0. -1.
         -2    1    1    2    0  503 -0.89611468257E+01  0.18251141145E+02 -0.46701315784E+03  0.46745555500E+03  0.00000000000E+00 0.  1.
<mgrwt>
<rscale>  2 0.63478754E+02</rscale>
<asrwt>0</asrwt>
<pdfrwt beam="1">  1       21 0.30901003E-02 0.63478754E+02</pdfrwt>
<pdfrwt beam="2">  1       21 0.95279494E-01 0.63478754E+02</pdfrwt>
<totfact> 0.56248143E+05</totfact>
</mgrwt>
</event>
<event>
 5    1  0.1946229E+000  0.1166593E+03  0.7546771E-02  0.1248712E+00
         21   -1    0    0  501  502  0.00000000000E+00  0.00000000000E+00  0.22135890789E+03  0.22135890789E+03  0.00000000000E+00 0. -1.
         21   -1    0    0  502  503 -0.00000000000E+00 -0.00000000000E+00 -0.14415474493E+03  0.14415474493E+03  0.00000000000E+00 0. -1.
         24    1    1    2    0    0  0.38366248320E+02 -0.95295944303E+02 -0.41657969308E+02  0.13695213898E+03  0.80419002446E+02 0. -1.
          1    1    1    2  501    0 -0.27287476532E+02  0.73589565523E+02  0.16143726562E+03  0.17950493381E+03  0.00000000000E+00 0. -1.
         -2    1    1    2    0  503 -0.11078771788E+02  0.21706378780E+02 -0.42575133355E+02  0.49056580031E+02  0.00000000000E+00 0.  1.
<mgrwt>
<rscale>  2 0.11665935E+03</rscale>
<asrwt>0</asrwt>
<pdfrwt beam="1">  1       21 0.34055217E-01 0.11665935E+03</pdfrwt>
<pdfrwt beam="2">  1       21 0.22177653E-01 0.11665935E+03</pdfrwt>
<totfact> 0.16171247E+05</totfact>
</mgrwt>
</event>
<event>
 5    1  0.1946229E+000  0.2618383E+03  0.7546771E-02  0.1106044E+00
         21   -1    0    0  503  502  0.00000000000E+00  0.00000000000E+00  0.11490214771E+03  0.11490214771E+03  0.00000000000E+00 0. -1.
         21   -1    0    0  501  503 -0.00000000000E+00 -0.00000000000E+00 -0.63897859154E+03  0.63897859154E+03  0.00000000000E+00 0. -1.
         24    1    1    2    0    0  0.16119625813E+03 -0.17970331349E+03 -0.16154549171E+03  0.30139952946E+03  0.80419002446E+02 0. -1.
          1    1    1    2  501    0 -0.75745142596E+02  0.16629096299E+03 -0.26779341188E+03  0.32419642571E+03  0.00000000000E+00 0. -1.
         -2    1    1    2    0  502 -0.85451115536E+02  0.13412350495E+02 -0.94737540247E+02  0.12828478407E+03  0.00000000000E+00 0.  1.
<mgrwt>
<rscale>  2 0.26183825E+03</rscale>
<asrwt>0</asrwt>
<pdfrwt beam="1">  1       21 0.17677254E-01 0.26183825E+03</pdfrwt>
<pdfrwt beam="2">  1       21 0.98304398E-01 0.26183825E+03</pdfrwt>
<totfact> 0.23921724E+04</totfact>
</mgrwt>
</event>
<event>
 5    1  0.1946229E+000  0.9307166E+02  0.7546771E-02  0.1295579E+00
         21   -1    0    0  503  502  0.00000000000E+00  0.00000000000E+00  0.38916735004E+02  0.38916735004E+02  0.00000000000E+00 0.  1.
         21   -1    0    0  501  503 -0.00000000000E+00 -0.00000000000E+00 -0.58968035932E+03  0.58968035932E+03  0.00000000000E+00 0. -1.
         24    1    1    2    0    0 -0.68284787825E+01  0.72034098458E+02 -0.50762411538E+03  0.51902311888E+03  0.80419002446E+02 0. -1.
          1    1    1    2  501    0 -0.83645143271E+01 -0.52774520278E+02 -0.59589949967E+02  0.80037973660E+02  0.00000000000E+00 0. -1.
         -2    1    1    2    0  502  0.15192993110E+02 -0.19259578180E+02  0.16450441030E+02  0.29536001784E+02  0.00000000000E+00 0.  1.
<mgrwt>
<rscale>  2 0.93071658E+02</rscale>
<asrwt>0</asrwt>
<pdfrwt beam="1">  1       21 0.59871899E-02 0.93071658E+02</pdfrwt>
<pdfrwt beam="2">  1       21 0.90720057E-01 0.93071658E+02</pdfrwt>
<totfact> 0.21053684E+05</totfact>
</mgrwt>
</event>
<event>
 5    1  0.1946229E+000  0.1117715E+03  0.7546771E-02  0.1257324E+00
         21   -1    0    0  503  502  0.00000000000E+00  0.00000000000E+00  0.80805196837E+02  0.80805196837E+02  0.00000000000E+00 0.  1.
         21   -1    0    0  501  503 -0.00000000000E+00 -0.00000000000E+00 -0.72830169392E+03  0.72830169392E+03  0.00000000000E+00 0.  1.
         24    1    1    2    0    0  0.62563937645E+02  0.50705647621E+02 -0.66672825923E+03  0.67637201051E+03  0.80419002446E+02 0.  1.
          1    1    1    2  501    0 -0.46329858949E+02  0.95720354403E+01 -0.27531677473E+02  0.54736395179E+02  0.00000000000E+00 0. -1.
         -2    1    1    2    0  502 -0.16234078695E+02 -0.60277683061E+02  0.46763439624E+02  0.77998485061E+02  0.00000000000E+00 0.  1.
<mgrwt>
<rscale>  2 0.11177151E+03</rscale>
<asrwt>0</asrwt>
<pdfrwt beam="1">  1       21 0.12431569E-01 0.11177151E+03</pdfrwt>
<pdfrwt beam="2">  1       21 0.11204641E+00 0.11177151E+03</pdfrwt>
<totfact> 0.36184081E+04</totfact>
</mgrwt>
</event>
<event>
 5    1  0.1946229E+000  0.1064374E+03  0.7546771E-02  0.1267313E+00
         21   -1    0    0  501  502  0.00000000000E+00  0.00000000000E+00  0.40135475809E+02  0.40135475809E+02  0.00000000000E+00 0. -1.
         21   -1    0    0  502  503 -0.00000000000E+00 -0.00000000000E+00 -0.10050272238E+04  0.10050272238E+04  0.00000000000E+00 0.  1.
         24    1    1    2    0    0  0.56605263688E+02  0.14956484980E+02 -0.26293849060E+03  0.28112580478E+03  0.80419002446E+02 0.  1.
          1    1    1    2  501    0  0.19917539977E+02  0.20920206395E+02  0.21282919389E+02  0.35879326806E+02  0.00000000000E+00 0. -1.
         -2    1    1    2    0  503 -0.76522803665E+02 -0.35876691375E+02 -0.72323617675E+03  0.72815756799E+03  0.00000000000E+00 0.  1.
<mgrwt>
<rscale>  2 0.10643742E+03</rscale>
<asrwt>0</asrwt>
<pdfrwt beam="1">  1       21 0.61746894E-02 0.10643742E+03</pdfrwt>
<pdfrwt beam="2">  1       21 0.15461955E+00 0.10643742E+03</pdfrwt>
<totfact> 0.54712757E+04</totfact>
</mgrwt>
</event>
<event>
 5    1  0.1946229E+000  0.8573562E+02  0.7546771E-02  0.1313520E+00
         21   -1    0    0  503  502  0.00000000000E+00  0.00000000000E+00  0.22251983037E+03  0.22251983037E+03  0.00000000000E+00 0.  1.
         21   -1    0    0  501  503 -0.00000000000E+00 -0.00000000000E+00 -0.47145001379E+02  0.47145001379E+02  0.00000000000E+00 0. -1.
         24    1    1    2    0    0  0.17124312626E+02  0.55178079731E+02  0.37922425045E+02  0.10603390421E+03  0.80419002446E+02 0. -1.
          1    1    1    2  501    0  0.14832100802E+02 -0.14750765979E+02  0.50008828377E+01  0.21507792549E+02  0.00000000000E+00 0. -1.
         -2    1    1    2    0  502 -0.31956413429E+02 -0.40427313752E+02  0.13245152110E+03  0.14212313499E+03  0.00000000000E+00 0.  1.
<mgrwt>
<rscale>  2 0.85735621E+02</rscale>
<asrwt>0</asrwt>
<pdfrwt beam="1">  1       21 0.34233820E-01 0.85735621E+02</pdfrwt>
<pdfrwt beam="2">  1       21 0.72530773E-02 0.85735621E+02</pdfrwt>
<totfact> 0.11611517E+06</totfact>
</mgrwt>
</event>
<event>
 5    1  0.1946229E+000  0.1108228E+03  0.7546771E-02  0.1259054E+00
         21   -1    0    0  501  502  0.00000000000E+00  0.00000000000E+00  0.12169198392E+03  0.12169198392E+03  0.00000000000E+00 0.  1.
         21   -1    0    0  502  503 -0.00000000000E+00 -0.00000000000E+00 -0.13419733016E+03  0.13419733016E+03  0.00000000000E+00 0.  1.
         24    1    1    2    0    0 -0.83978001435E+02  0.46096639872E+02  0.41924372960E+02  0.13191692058E+03  0.80419002446E+02 0.  1.
          1    1    1    2  501    0  0.60165324495E+02 -0.39078594958E+02 -0.91366799530E+01  0.72322069771E+02  0.00000000000E+00 0. -1.
         -2    1    1    2    0  503  0.23812676940E+02 -0.70180449143E+01 -0.45293039249E+02  0.51650323735E+02  0.00000000000E+00 0.  1.
<mgrwt>
<rscale>  2 0.11082280E+03</rscale>
<asrwt>0</asrwt>
<pdfrwt beam="1">  1       21 0.18721844E-01 0.11082280E+03</pdfrwt>
<pdfrwt beam="2">  1       21 0.20645743E-01 0.11082280E+03</pdfrwt>
<totfact> 0.57191256E+05</totfact>
</mgrwt>
</event>
<event>
 5    1  0.1946229E+000  0.8299659E+02  0.7546771E-02  0.1320756E+00
         21   -1    0    0  501  502  0.00000000000E+00  0.00000000000E+00  0.17209219475E+02  0.17209219475E+02  0.00000000000E+00 0.  1.
         21   -1    0    0  502  503 -0.00000000000E+00 -0.00000000000E+00 -0.41047183553E+03  0.41047183553E+03  0.00000000000E+00 0.  1.
         24    1    1    2    0    0 -0.48601740008E+02 -0.30601763102E+02 -0.20076890078E+03  0.22377212630E+03  0.80419002446E+02 0.  1.
          1    1    1    2  501    0  0.69411914173E+01  0.24008795473E+02 -0.76989091464E+02  0.80943947290E+02  0.00000000000E+00 0. -1.
         -2    1    1    2    0  503  0.41660548591E+02  0.65929676297E+01 -0.11550462381E+03  0.12296498141E+03  0.00000000000E+00 0.  1.
<mgrwt>
<rscale>  2 0.82996590E+02</rscale>
<asrwt>0</asrwt>
<pdfrwt beam="1">  1       21 0.26475720E-02 0.82996590E+02</pdfrwt>
<pdfrwt beam="2">  1       21 0.63149518E-01 0.82996590E+02</pdfrwt>
<totfact> 0.17804772E+06</totfact>
</mgrwt>
</event>
<event>
 5    1  0.1946229E+000  0.7089512E+02  0.7546771E-02  0.1357075E+00
         21   -1    0    0  503  502  0.00000000000E+00  0.00000000000E+00  0.44503898102E+03  0.44503898102E+03  0.00000000000E+00 0.  1.
         21   -1    0    0  501  503 -0.00000000000E+00 -0.00000000000E+00 -0.31549056324E+02  0.31549056324E+02  0.00000000000E+00 0. -1.
         24    1    1    2    0    0 -0.87839435385E+01 -0.22886641393E+02  0.11379424085E+03  0.14148251207E+03  0.80419002446E+02 0.  0.
          1    1    1    2  501    0 -0.85010265854E+01  0.35382264598E+02  0.17856471938E+01  0.36432960860E+02  0.00000000000E+00 0. -1.
         -2    1    1    2    0  502  0.17284970124E+02 -0.12495623206E+02  0.29791003666E+03  0.29867256441E+03  0.00000000000E+00 0.  1.
<mgrwt>
<rscale>  2 0.70895117E+02</rscale>
<asrwt>0</asrwt>
<pdfrwt beam="1">  1       21 0.68467531E-01 0.70895117E+02</pdfrwt>
<pdfrwt beam="2">  1       21 0.48537013E-02 0.70895117E+02</pdfrwt>
<totfact> 0.55619566E+05</totfact>
</mgrwt>
</event>
<event>
 5    1  0.1946229E+000  0.9057540E+02  0.7546771E-02  0.1301464E+00
         21   -1    0    0  501  502  0.00000000000E+00  0.00000000000E+00  0.96128539833E+02  0.96128539833E+02  0.00000000000E+00 0.  1.
         21   -1    0    0  502  503 -0.00000000000E+00 -0.00000000000E+00 -0.88040963641E+02  0.88040963641E+02  0.00000000000E+00 0.  1.
         24    1    1    2    0    0 -0.49345086791E+02 -0.18480769670E+01  0.14996107572E+02  0.95553399602E+02  0.80419002446E+02 0.  0.
          1    1    1    2  501    0  0.20749284651E+02 -0.34666814030E+02  0.50589410892E+01  0.40717486336E+02  0.00000000000E+00 0. -1.
         -2    1    1    2    0  503  0.28595802140E+02  0.36514890997E+02 -0.11967472469E+02  0.47898617536E+02  0.00000000000E+00 0.  1.
<mgrwt>
<rscale>  2 0.90575401E+02</rscale>
<asrwt>0</asrwt>
<pdfrwt beam="1">  1       21 0.14789006E-01 0.90575401E+02</pdfrwt>
<pdfrwt beam="2">  1       21 0.13544764E-01 0.90575401E+02</pdfrwt>
<totfact> 0.18691452E+06</totfact>
</mgrwt>
</event>
<event>
 5    1  0.1946229E+000  0.8119823E+02  0.7546771E-02  0.1325685E+00
         21   -1    0    0  503  502  0.00000000000E+00  0.00000000000E+00  0.92458380490E+03  0.92458380490E+03  0.00000000000E+00 0.  1.
         21   -1    0    0  501  503 -0.00000000000E+00 -0.00000000000E+00 -0.76902270100E+01  0.76902270100E+01  0.00000000000E+00 0. -1.
         24    1    1    2    0    0 -0.25804044764E+02  0.55193846502E+02  0.56585059109E+03  0.57477501408E+03  0.80419002446E+02 0.  0.
          1    1    1    2  501    0  0.17634020912E+02 -0.27835166676E+02  0.11169454721E+03  0.11645354041E+03  0.00000000000E+00 0. -1.
         -2    1    1    2    0  502  0.81700238523E+01 -0.27358679826E+02  0.23934843958E+03  0.24104547742E+03  0.00000000000E+00 0.  1.
<mgrwt>
<rscale>  2 0.81198231E+02</rscale>
<asrwt>0</asrwt>
<pdfrwt beam="1">  1       21 0.14224357E+00 0.81198231E+02</pdfrwt>
<pdfrwt beam="2">  1       21 0.11831126E-02 0.81198231E+02</pdfrwt>
<totfact> 0.99943134E+05</totfact>
</mgrwt>
</event>
<event>
 5    1  0.1946229E+000  0.1021507E+03  0.7546771E-02  0.1275837E+00
         21   -1    0    0  501  502  0.00000000000E+00  0.00000000000E+00  0.29989632430E+02  0.29989632430E+02  0.00000000000E+00 0. -1.
         21   -1    0    0  502  503 -0.00000000000E+00 -0.00000000000E+00 -0.44990607730E+03  0.44990607730E+03  0.00000000000E+00 0.  1.
         24    1    1    2    0    0  0.49813692645E+02  0.16268957355E+02 -0.13930197240E+03  0.16916955523E+03  0.80419002446E+02 0.  0.
          1    1    1    2  501    0  0.11614090738E+02  0.29504996015E+02 -0.16537462410E+02  0.35761984795E+02  0.00000000000E+00 0. -1.
         -2    1    1    2    0  503 -0.61427783383E+02 -0.45773953370E+02 -0.26407701006E+03  0.27496416970E+03  0.00000000000E+00 0.  1.
<mgrwt>
<rscale>  2 0.10215072E+03</rscale>
<asrwt>0</asrwt>
<pdfrwt beam="1">  1       21 0.46137895E-02 0.10215072E+03</pdfrwt>
<pdfrwt beam="2">  1       21 0.69216322E-01 0.10215072E+03</pdfrwt>
<totfact> 0.59112646E+05</totfact>
</mgrwt>
</event>
<event>
 5    1  0.1946229E+000  0.7143629E+02  0.7546771E-02  0.1355276E+00
         21   -1    0    0  501  502  0.00000000000E+00  0.00000000000E+00  0.68977936565E+02  0.68977936565E+02  0.00000000000E+00 0.  1.
         21   -1    0    0  502  503 -0.00000000000E+00 -0.00000000000E+00 -0.12477850085E+03  0.12477850085E+03  0.00000000000E+00 0.  1.
         24    1    1    2    0    0 -0.17849767458E+02 -0.61814495818E+01  0.18475097312E+02  0.84648506734E+02  0.80419002446E+02 0.  1.
          1    1    1    2  501    0  0.35192031978E+02  0.17753107425E+02 -0.87913191717E+01  0.40384888644E+02  0.00000000000E+00 0. -1.
         -2    1    1    2    0  503 -0.17342264520E+02 -0.11571657843E+02 -0.65484342426E+02  0.68723042038E+02  0.00000000000E+00 0.  1.
<mgrwt>
<rscale>  2 0.71436291E+02</rscale>
<asrwt>0</asrwt>
<pdfrwt beam="1">  1       21 0.10611990E-01 0.71436291E+02</pdfrwt>
<pdfrwt beam="2">  1       21 0.19196692E-01 0.71436291E+02</pdfrwt>
<totfact> 0.17748749E+06</totfact>
</mgrwt>
</event>
<event>
 5    1  0.1946229E+000  0.6782832E+02  0.7546771E-02  0.1367638E+00
         21   -1    0    0  503  502  0.00000000000E+00  0.00000000000E+00  0.66990786950E+02  0.66990786950E+02  0.00000000000E+00 0.  1.
         21   -1    0    0  501  503 -0.00000000000E+00 -0.00000000000E+00 -0.25978816327E+03  0.25978816327E+03  0.00000000000E+00 0. -1.
         24    1    1    2    0    0  0.48991160169E+01 -0.13451196413E+02 -0.65890396070E+01  0.81948565698E+02  0.80419002446E+02 0. -1.
          1    1    1    2  501    0 -0.20585240311E+02  0.26509354718E+02 -0.21046781731E+03  0.21312719237E+03  0.00000000000E+00 0. -1.
         -2    1    1    2    0  502  0.15686124294E+02 -0.13058158305E+02  0.24259480595E+02  0.31703192149E+02  0.00000000000E+00 0.  1.
<mgrwt>
<rscale>  2 0.67828316E+02</rscale>
<asrwt>0</asrwt>
<pdfrwt beam="1">  1       21 0.10306275E-01 0.67828316E+02</pdfrwt>
<pdfrwt beam="2">  1       21 0.39967410E-01 0.67828316E+02</pdfrwt>
<totfact> 0.46951375E+05</totfact>
</mgrwt>
</event>
<event>
 5    1  0.1946229E+000  0.1201914E+03  0.7546771E-02  0.1242782E+00
         21   -1    0    0  503  502  0.00000000000E+00  0.00000000000E+00  0.77047650862E+02  0.77047650862E+02  0.00000000000E+00 0. -1.
         21   -1    0    0  501  503 -0.00000000000E+00 -0.00000000000E+00 -0.25233311666E+03  0.25233311666E+03  0.00000000000E+00 0. -1.
         24    1    1    2    0    0 -0.79428237892E+02 -0.69235467967E+02 -0.83875553816E+02  0.15685891585E+03  0.80419002446E+02 0. -1.
          1    1    1    2  501    0  0.10851800425E+02  0.22095309042E+02 -0.85638079703E+02  0.89105807607E+02  0.00000000000E+00 0. -1.
         -2    1    1    2    0  502  0.68576437467E+02  0.47140158925E+02 -0.57718322753E+01  0.83416044062E+02  0.00000000000E+00 0.  1.
<mgrwt>
<rscale>  2 0.12019143E+03</rscale>
<asrwt>0</asrwt>
<pdfrwt beam="1">  1       21 0.11853485E-01 0.12019143E+03</pdfrwt>
<pdfrwt beam="2">  1       21 0.38820479E-01 0.12019143E+03</pdfrwt>
<totfact> 0.38841075E+05</totfact>
</mgrwt>
</event>
<event>
 5    1  0.1946229E+000  0.1041459E+03  0.7546771E-02  0.1271812E+00
         21   -1    0    0  503  502  0.00000000000E+00  0.00000000000E+00  0.20194233815E+02  0.20194233815E+02  0.00000000000E+00 0.  1.
         21   -1    0    0  501  503 -0.00000000000E+00 -0.00000000000E+00 -0.77979975990E+03  0.77979975990E+03  0.00000000000E+00 0.  1.
         24    1    1    2    0    0 -0.43199993752E+02 -0.56549186940E+02 -0.52975355033E+03  0.54052760341E+03  0.80419002446E+02 0.  1.
          1    1    1    2  501    0  0.31849897979E+02 -0.10011660143E+02 -0.15544395711E+03  0.15898890886E+03  0.00000000000E+00 0. -1.
         -2    1    1    2    0  502  0.11350095772E+02  0.66560847083E+02 -0.74408018647E+02  0.10047748144E+03  0.00000000000E+00 0.  1.
<mgrwt>
<rscale>  2 0.10414587E+03</rscale>
<asrwt>0</asrwt>
<pdfrwt beam="1">  1       21 0.31068058E-02 0.10414587E+03</pdfrwt>
<pdfrwt beam="2">  1       21 0.11996917E+00 0.10414587E+03</pdfrwt>
<totfact> 0.32339289E+05</totfact>
</mgrwt>
</event>
<event>
 5    1  0.1946229E+000  0.7152475E+02  0.7546771E-02  0.1354983E+00
         21   -1    0    0  503  502  0.00000000000E+00  0.00000000000E+00  0.19318867485E+02  0.19318867485E+02  0.00000000000E+00 0. -1.
         21   -1    0    0  501  503 -0.00000000000E+00 -0.00000000000E+00 -0.39757602159E+03  0.39757602159E+03  0.00000000000E+00 0.  1.
         24    1    1    2    0    0 -0.21048455710E+01  0.25527810578E+02 -0.18353893508E+03  0.20201449486E+03  0.80419002446E+02 0.  0.
          1    1    1    2  501    0 -0.19228474843E+02  0.63869298484E+01 -0.16524554244E+03  0.16648308147E+03  0.00000000000E+00 0. -1.
         -2    1    1    2    0  502  0.21333320415E+02 -0.31914740427E+02 -0.29472676577E+02  0.48397312746E+02  0.00000000000E+00 0.  1.
<mgrwt>
<rscale>  2 0.71524750E+02</rscale>
<asrwt>0</asrwt>
<pdfrwt beam="1">  1       21 0.29721333E-02 0.71524750E+02</pdfrwt>
<pdfrwt beam="2">  1       21 0.61165545E-01 0.71524750E+02</pdfrwt>
<totfact> 0.15719687E+06</totfact>
</mgrwt>
</event>
<event>
 5    1  0.1946229E+000  0.7810095E+02  0.7546771E-02  0.1334529E+00
         21   -1    0    0  503  502  0.00000000000E+00  0.00000000000E+00  0.64363409957E+01  0.64363409957E+01  0.00000000000E+00 0. -1.
         21   -1    0    0  501  503 -0.00000000000E+00 -0.00000000000E+00 -0.10614404670E+04  0.10614404670E+04  0.00000000000E+00 0.  1.
         24    1    1    2    0    0 -0.40413847626E+01  0.53725606925E+02 -0.47183155411E+03  0.48165859801E+03  0.80419002446E+02 0.  0.
          1    1    1    2  501    0  0.14556379086E+02 -0.35386692629E+02 -0.40181355734E+03  0.40363131822E+03  0.00000000000E+00 0. -1.
         -2    1    1    2    0  502 -0.10514994324E+02 -0.18338914296E+02 -0.18135901454E+03  0.18258689175E+03  0.00000000000E+00 0.  1.
<mgrwt>
<rscale>  2 0.78100952E+02</rscale>
<asrwt>0</asrwt>
<pdfrwt beam="1">  1       21 0.99020720E-03 0.78100952E+02</pdfrwt>
<pdfrwt beam="2">  1       21 0.16329839E+00 0.78100952E+02</pdfrwt>
<totfact> 0.92835114E+05</totfact>
</mgrwt>
</event>
<event>
 5    1  0.1946229E+000  0.6527006E+02  0.7546771E-02  0.1376959E+00
         21   -1    0    0  501  502  0.00000000000E+00  0.00000000000E+00  0.13724160444E+02  0.13724160444E+02  0.00000000000E+00 0.  1.
         21   -1    0    0  502  503 -0.00000000000E+00 -0.00000000000E+00 -0.13120061123E+04  0.13120061123E+04  0.00000000000E+00 0.  1.
         24    1    1    2    0    0  0.48323904051E+01  0.88743026591E+01 -0.11261124860E+03  0.13874658378E+03  0.80419002446E+02 0.  1.
          1    1    1    2  501    0 -0.12431471357E+02  0.17823479129E+02 -0.26323562053E+03  0.26413104665E+03  0.00000000000E+00 0. -1.
         -2    1    1    2    0  503  0.75990809522E+01 -0.26697781788E+02 -0.92243508277E+03  0.92285264236E+03  0.00000000000E+00 0.  1.
<mgrwt>
<rscale>  2 0.65270061E+02</rscale>
<asrwt>0</asrwt>
<pdfrwt beam="1">  1       21 0.21114084E-02 0.65270061E+02</pdfrwt>
<pdfrwt beam="2">  1       21 0.20184718E+00 0.65270061E+02</pdfrwt>
<totfact> 0.16062323E+05</totfact>
</mgrwt>
</event>
<event>
 5    1  0.1946229E+000  0.7798686E+02  0.7546771E-02  0.1334863E+00
         21   -1    0    0  501  502  0.00000000000E+00  0.00000000000E+00  0.11848414245E+04  0.11848414245E+04  0.00000000000E+00 0. -1.
         21   -1    0    0  502  503 -0.00000000000E+00 -0.00000000000E+00 -0.97024428828E+01  0.97024428828E+01  0.00000000000E+00 0.  1.
         24    1    1    2    0    0  0.12840933382E+02  0.93300307959E+01  0.23030882102E+03  0.24446126081E+03  0.80419002446E+02 0. -1.
          1    1    1    2  501    0  0.26832609036E+02 -0.19352496769E+02  0.76248719571E+03  0.76320458048E+03  0.00000000000E+00 0. -1.
         -2    1    1    2    0  503 -0.39673542418E+02  0.10022465973E+02  0.18234296488E+03  0.18687802608E+03  0.00000000000E+00 0.  1.
<mgrwt>
<rscale>  2 0.77986861E+02</rscale>
<asrwt>0</asrwt>
<pdfrwt beam="1">  1       21 0.18228318E+00 0.77986861E+02</pdfrwt>
<pdfrwt beam="2">  1       21 0.14926845E-02 0.77986861E+02</pdfrwt>
<totfact> 0.36452134E+05</totfact>
</mgrwt>
</event>
<event>
 5    1  0.1946229E+000  0.8080321E+02  0.7546771E-02  0.1326787E+00
         21   -1    0    0  501  502  0.00000000000E+00  0.00000000000E+00  0.41764133859E+03  0.41764133859E+03  0.00000000000E+00 0. -1.
         21   -1    0    0  502  503 -0.00000000000E+00 -0.00000000000E+00 -0.16980833349E+03  0.16980833349E+03  0.00000000000E+00 0.  1.
         24    1    1    2    0    0  0.15230399661E+01 -0.28263488167E+02  0.18422263879E+02  0.87222360521E+02  0.80419002446E+02 0. -1.
          1    1    1    2  501    0 -0.41805430930E+01  0.52150280318E+02  0.36185626773E+03  0.36561877300E+03  0.00000000000E+00 0. -1.
         -2    1    1    2    0  503  0.26575031269E+01 -0.23886792151E+02 -0.13244552651E+03  0.13460853856E+03  0.00000000000E+00 0.  1.
<mgrwt>
<rscale>  2 0.80803211E+02</rscale>
<asrwt>0</asrwt>
<pdfrwt beam="1">  1       21 0.64252513E-01 0.80803211E+02</pdfrwt>
<pdfrwt beam="2">  1       21 0.26124359E-01 0.80803211E+02</pdfrwt>
<totfact> 0.33539438E+04</totfact>
</mgrwt>
</event>
<event>
 5    1  0.1946229E+000  0.7012474E+02  0.7546771E-02  0.1359669E+00
         21   -1    0    0  503  502  0.00000000000E+00  0.00000000000E+00  0.31270545398E+03  0.31270545398E+03  0.00000000000E+00 0. -1.
         21   -1    0    0  501  503 -0.00000000000E+00 -0.00000000000E+00 -0.82102150799E+02  0.82102150799E+02  0.00000000000E+00 0. -1.
         24    1    1    2    0    0  0.11359366220E+02 -0.15212604401E+02  0.23786215967E+03  0.25180564229E+03  0.80419002446E+02 0. -1.
          1    1    1    2  501    0 -0.26515326778E+02 -0.98874395857E+01 -0.69040798879E+02  0.74615386654E+02  0.00000000000E+00 0. -1.
         -2    1    1    2    0  502  0.15155960558E+02  0.25100043987E+02  0.61781942389E+02  0.68386575831E+02  0.00000000000E+00 0.  1.
<mgrwt>
<rscale>  2 0.70124740E+02</rscale>
<asrwt>0</asrwt>
<pdfrwt beam="1">  1       21 0.48108531E-01 0.70124740E+02</pdfrwt>
<pdfrwt beam="2">  1       21 0.12631100E-01 0.70124740E+02</pdfrwt>
<totfact> 0.22817455E+05</totfact>
</mgrwt>
</event>
<event>
 5    1  0.1946229E+000  0.6680727E+02  0.7546771E-02  0.1371299E+00
         21   -1    0    0  501  502  0.00000000000E+00  0.00000000000E+00  0.27112942166E+03  0.27112942166E+03  0.00000000000E+00 0.  1.
         21   -1    0    0  502  503 -0.00000000000E+00 -0.00000000000E+00 -0.18664457271E+02  0.18664457271E+02  0.00000000000E+00 0. -1.
         24    1    1    2    0    0 -0.12155827807E+02 -0.13911985735E+01  0.10248425482E+03  0.13084318104E+03  0.80419002446E+02 0.  0.
          1    1    1    2  501    0 -0.15008206336E+02  0.15572167529E+02  0.71520329685E+02  0.74718780887E+02  0.00000000000E+00 0. -1.
         -2    1    1    2    0  503  0.27164034143E+02 -0.14180968955E+02  0.78460379878E+02  0.84231917003E+02  0.00000000000E+00 0.  1.
<mgrwt>
<rscale>  2 0.66807274E+02</rscale>
<asrwt>0</asrwt>
<pdfrwt beam="1">  1       21 0.41712216E-01 0.66807274E+02</pdfrwt>
<pdfrwt beam="2">  1       21 0.28714551E-02 0.66807274E+02</pdfrwt>
<totfact> 0.36013540E+06</totfact>
</mgrwt>
</event>
<event>
 5    1  0.1946229E+000  0.7292352E+02  0.7546771E-02  0.1350425E+00
         21   -1    0    0  503  502  0.00000000000E+00  0.00000000000E+00  0.87721169241E+02  0.87721169241E+02  0.00000000000E+00 0. -1.
         21   -1    0    0  501  503 -0.00000000000E+00 -0.00000000000E+00 -0.64900413268E+02  0.64900413268E+02  0.00000000000E+00 0. -1.
         24    1    1    2    0    0  0.36038252959E+02 -0.34878101688E+02  0.93229911093E+01  0.95233249295E+02  0.80419002446E+02 0. -1.
          1    1    1    2  501    0 -0.15738925321E+02  0.21932278942E+02 -0.44489652229E+01  0.27359311420E+02  0.00000000000E+00 0. -1.
         -2    1    1    2    0  502 -0.20299327638E+02  0.12945822746E+02  0.17946730086E+02  0.30029021794E+02  0.00000000000E+00 0.  1.
<mgrwt>
<rscale>  2 0.72923517E+02</rscale>
<asrwt>0</asrwt>
<pdfrwt beam="1">  1       21 0.13495565E-01 0.72923517E+02</pdfrwt>
<pdfrwt beam="2">  1       21 0.99846789E-02 0.72923517E+02</pdfrwt>
<totfact> 0.37015839E+06</totfact>
</mgrwt>
</event>
<event>
 5    1  0.1946229E+000  0.7051287E+02  0.7546771E-02  0.1358358E+00
         21   -1    0    0  501  502  0.00000000000E+00  0.00000000000E+00  0.58537953209E+02  0.58537953209E+02  0.00000000000E+00 0. -1.
         21   -1    0    0  502  503 -0.00000000000E+00 -0.00000000000E+00 -0.35410408254E+03  0.35410408254E+03  0.00000000000E+00 0.  1.
         24    1    1    2    0    0  0.15956652264E+02  0.16424267841E+02 -0.10662259495E+03  0.13549894846E+03  0.80419002446E+02 0.  1.
          1    1    1    2  501    0 -0.32939795377E+02  0.11643386429E+01  0.37188712512E+02  0.49692918431E+02  0.00000000000E+00 0. -1.
         -2    1    1    2    0  503  0.16983143112E+02 -0.17588606484E+02 -0.22613224689E+03  0.22745016885E+03  0.00000000000E+00 0.  1.
<mgrwt>
<rscale>  2 0.70512873E+02</rscale>
<asrwt>0</asrwt>
<pdfrwt beam="1">  1       21 0.90058389E-02 0.70512873E+02</pdfrwt>
<pdfrwt beam="2">  1       21 0.54477551E-01 0.70512873E+02</pdfrwt>
<totfact> 0.31792554E+05</totfact>
</mgrwt>
</event>
<event>
 5    1  0.1946229E+000  0.1141073E+03  0.7546771E-02  0.1253147E+00
         21   -1    0    0  501  502  0.00000000000E+00  0.00000000000E+00  0.47550277935E+03  0.47550277935E+03  0.00000000000E+00 0. -1.
         21   -1    0    0  502  503 -0.00000000000E+00 -0.00000000000E+00 -0.40520891175E+02  0.40520891175E+02  0.00000000000E+00 0.  1.
         24    1    1    2    0    0 -0.86436093994E+02  0.26661549718E+02  0.33050370269E+03  0.35196867762E+03  0.80419002446E+02 0.  0.
          1    1    1    2  501    0  0.86071921110E+02 -0.57479070176E+01  0.11240124538E+03  0.14168787528E+03  0.00000000000E+00 0. -1.
         -2    1    1    2    0  503  0.36417288380E+00 -0.20913642700E+02 -0.79230598930E+01  0.22367117627E+02  0.00000000000E+00 0.  1.
<mgrwt>
<rscale>  2 0.11410727E+03</rscale>
<asrwt>0</asrwt>
<pdfrwt beam="1">  1       21 0.73154270E-01 0.11410727E+03</pdfrwt>
<pdfrwt beam="2">  1       21 0.62339836E-02 0.11410727E+03</pdfrwt>
<totfact> 0.31580020E+05</totfact>
</mgrwt>
</event>
<event>
 5    1  0.1946229E+000  0.6437817E+02  0.7546771E-02  0.1380326E+00
         21   -1    0    0  501  502  0.00000000000E+00  0.00000000000E+00  0.32226211043E+02  0.32226211043E+02  0.00000000000E+00 0.  1.
         21   -1    0    0  502  503 -0.00000000000E+00 -0.00000000000E+00 -0.17926564003E+03  0.17926564003E+03  0.00000000000E+00 0.  1.
         24    1    1    2    0    0  0.29535658629E+01  0.10525138226E+02 -0.35755665369E+02  0.88685881889E+02  0.80419002446E+02 0.  1.
          1    1    1    2  501    0  0.21525086236E+02 -0.81022851550E+01 -0.29518855679E+02  0.37421106381E+02  0.00000000000E+00 0. -1.
         -2    1    1    2    0  503 -0.24478652099E+02 -0.24228530713E+01 -0.81764907939E+02  0.85384862803E+02  0.00000000000E+00 0.  1.
<mgrwt>
<rscale>  2 0.64378174E+02</rscale>
<asrwt>0</asrwt>
<pdfrwt beam="1">  1       21 0.49578786E-02 0.64378174E+02</pdfrwt>
<pdfrwt beam="2">  1       21 0.27579329E-01 0.64378174E+02</pdfrwt>
<totfact> 0.32672408E+06</totfact>
</mgrwt>
</event>
<event>
 5    1  0.1946229E+000  0.9928677E+02  0.7546771E-02  0.1281803E+00
         21   -1    0    0  501  502  0.00000000000E+00  0.00000000000E+00  0.63169395564E+02  0.63169395564E+02  0.00000000000E+00 0. -1.
         21   -1    0    0  502  503 -0.00000000000E+00 -0.00000000000E+00 -0.16070281797E+03  0.16070281797E+03  0.00000000000E+00 0. -1.
         24    1    1    2    0    0 -0.27575589930E+02  0.78202554924E+02 -0.50219342717E+02  0.12595733839E+03  0.80419002446E+02 0. -1.
          1    1    1    2  501    0  0.16097360777E+02 -0.52475880971E+02 -0.19294176311E+02  0.58181683950E+02  0.00000000000E+00 0. -1.
         -2    1    1    2    0  503  0.11478229153E+02 -0.25726673953E+02 -0.28019903374E+02  0.39733191191E+02  0.00000000000E+00 0.  1.
<mgrwt>
<rscale>  2 0.99286775E+02</rscale>
<asrwt>0</asrwt>
<pdfrwt beam="1">  1       21 0.97183685E-02 0.99286775E+02</pdfrwt>
<pdfrwt beam="2">  1       21 0.24723511E-01 0.99286775E+02</pdfrwt>
<totfact> 0.13114060E+06</totfact>
</mgrwt>
</event>
<event>
 5    1  0.1946229E+000  0.9128490E+02  0.7546771E-02  0.1299770E+00
         21   -1    0    0  503  502  0.00000000000E+00  0.00000000000E+00  0.30523191229E+02  0.30523191229E+02  0.00000000000E+00 0.  1.
         21   -1    0    0  501  503 -0.00000000000E+00 -0.00000000000E+00 -0.32394473366E+03  0.32394473366E+03  0.00000000000E+00 0.  1.
         24    1    1    2    0    0 -0.24978638837E+02  0.21532792927E+02 -0.19497046658E+03  0.21346730982E+03  0.80419002446E+02 0.  1.
          1    1    1    2  501    0  0.13945582226E+02  0.35196799170E+02 -0.62087539630E+02  0.72719711996E+02  0.00000000000E+00 0. -1.
         -2    1    1    2    0  502  0.11033056612E+02 -0.56729592097E+02 -0.36363536218E+02  0.68280903070E+02  0.00000000000E+00 0.  1.
<mgrwt>
<rscale>  2 0.91284896E+02</rscale>
<asrwt>0</asrwt>
<pdfrwt beam="1">  1       21 0.46958755E-02 0.91284896E+02</pdfrwt>
<pdfrwt beam="2">  1       21 0.49837652E-01 0.91284896E+02</pdfrwt>
<totfact> 0.11430598E+06</totfact>
</mgrwt>
</event>
<event>
 5    1  0.1946229E+000  0.8225913E+02  0.7546771E-02  0.1322760E+00
         21   -1    0    0  503  502  0.00000000000E+00  0.00000000000E+00  0.24764423985E+02  0.24764423985E+02  0.00000000000E+00 0. -1.
         21   -1    0    0  501  503 -0.00000000000E+00 -0.00000000000E+00 -0.33972085993E+03  0.33972085993E+03  0.00000000000E+00 0.  1.
         24    1    1    2    0    0  0.48377325947E+02 -0.11029562171E+02 -0.17028419858E+03  0.19474583731E+03  0.80419002446E+02 0.  0.
          1    1    1    2  501    0 -0.31553909946E+02 -0.18106126378E+02 -0.12623957480E+03  0.13137698159E+03  0.00000000000E+00 0. -1.
         -2    1    1    2    0  502 -0.16823416002E+02  0.29135688549E+02 -0.18432662562E+02  0.38362465019E+02  0.00000000000E+00 0.  1.
<mgrwt>
<rscale>  2 0.82259126E+02</rscale>
<asrwt>0</asrwt>
<pdfrwt beam="1">  1       21 0.38099116E-02 0.82259126E+02</pdfrwt>
<pdfrwt beam="2">  1       21 0.52264745E-01 0.82259126E+02</pdfrwt>
<totfact> 0.14601688E+06</totfact>
</mgrwt>
</event>
<event>
 5    1  0.1946229E+000  0.7648302E+02  0.7546771E-02  0.1339339E+00
         21   -1    0    0  503  502  0.00000000000E+00  0.00000000000E+00  0.34646590783E+03  0.34646590783E+03  0.00000000000E+00 0. -1.
         21   -1    0    0  501  503 -0.00000000000E+00 -0.00000000000E+00 -0.25526937345E+02  0.25526937345E+02  0.00000000000E+00 0. -1.
         24    1    1    2    0    0 -0.83287380442E+01 -0.50240042667E+02  0.26967753380E+03  0.28598359735E+03  0.80419002446E+02 0. -1.
          1    1    1    2  501    0  0.16028616479E+02  0.15867695468E+02 -0.14620652946E+01  0.22601724284E+02  0.00000000000E+00 0. -1.
         -2    1    1    2    0  502 -0.76998784351E+01  0.34372347200E+02  0.52723501976E+02  0.63407523532E+02  0.00000000000E+00 0.  1.
<mgrwt>
<rscale>  2 0.76483020E+02</rscale>
<asrwt>0</asrwt>
<pdfrwt beam="1">  1       21 0.53302444E-01 0.76483020E+02</pdfrwt>
<pdfrwt beam="2">  1       21 0.39272214E-02 0.76483020E+02</pdfrwt>
<totfact> 0.13317780E+06</totfact>
</mgrwt>
</event>
<event>
 5    1  0.1946229E+000  0.7170192E+02  0.7546771E-02  0.1354399E+00
         21   -1    0    0  501  502  0.00000000000E+00  0.00000000000E+00  0.96187261887E+02  0.96187261887E+02  0.00000000000E+00 0. -1.
         21   -1    0    0  502  503 -0.00000000000E+00 -0.00000000000E+00 -0.37854520248E+03  0.37854520248E+03  0.00000000000E+00 0.  1.
         24    1    1    2    0    0 -0.16128996153E+02 -0.49425438029E+01  0.58668240483E+01  0.82378448850E+02  0.80419002446E+02 0.  0.
          1    1    1    2  501    0 -0.62968859183E+01  0.28218711234E+02  0.47213034030E+02  0.55362595841E+02  0.00000000000E+00 0. -1.
         -2    1    1    2    0  503  0.22425882071E+02 -0.23276167431E+02 -0.33543779868E+03  0.33699141968E+03  0.00000000000E+00 0.  1.
<mgrwt>
<rscale>  2 0.71701916E+02</rscale>
<asrwt>0</asrwt>
<pdfrwt beam="1">  1       21 0.14798041E-01 0.71701916E+02</pdfrwt>
<pdfrwt beam="2">  1       21 0.58237721E-01 0.71701916E+02</pdfrwt>
<totfact> 0.11677135E+05</totfact>
</mgrwt>
</event>
<event>
 5    1  0.1946229E+000  0.7958598E+02  0.7546771E-02  0.1330230E+00
         21   -1    0    0  503  502  0.00000000000E+00  0.00000000000E+00  0.17745502039E+03  0.17745502039E+03  0.00000000000E+00 0. -1.
         21   -1    0    0  501  503 -0.00000000000E+00 -0.00000000000E+00 -0.44874025740E+02  0.44874025740E+02  0.00000000000E+00 0.  1.
         24    1    1    2    0    0  0.51289274306E+02 -0.34888426720E+01  0.33349101144E+02  0.10110460021E+03  0.80419002446E+02 0.  1.
          1    1    1    2  501    0 -0.34291887676E+02 -0.16021351618E+02  0.33361833646E+02  0.50454228884E+02  0.00000000000E+00 0. -1.
         -2    1    1    2    0  502 -0.16997386630E+02  0.19510194290E+02  0.65870059863E+02  0.70770217040E+02  0.00000000000E+00 0.  1.
<mgrwt>
<rscale>  2 0.79585984E+02</rscale>
<asrwt>0</asrwt>
<pdfrwt beam="1">  1       21 0.27300772E-01 0.79585984E+02</pdfrwt>
<pdfrwt beam="2">  1       21 0.69036963E-02 0.79585984E+02</pdfrwt>
<totfact> 0.19395948E+06</totfact>
</mgrwt>
</event>
<event>
 5    1  0.1946229E+000  0.7969662E+02  0.7546771E-02  0.1329915E+00
         21   -1    0    0  503  502  0.00000000000E+00  0.00000000000E+00  0.28038651861E+03  0.28038651861E+03  0.00000000000E+00 0.  1.
         21   -1    0    0  501  503 -0.00000000000E+00 -0.00000000000E+00 -0.95471433663E+02  0.95471433663E+02  0.00000000000E+00 0. -1.
         24    1    1    2    0    0 -0.23813289237E+02  0.38153790443E+02 -0.47559070300E+02  0.10369120306E+03  0.80419002446E+02 0.  0.
          1    1    1    2  501    0  0.31161910229E+02 -0.29633411674E+01 -0.52500399608E+01  0.31739706356E+02  0.00000000000E+00 0. -1.
         -2    1    1    2    0  502 -0.73486209915E+01 -0.35190449276E+02  0.23772419521E+03  0.24042704286E+03  0.00000000000E+00 0.  1.
<mgrwt>
<rscale>  2 0.79696619E+02</rscale>
<asrwt>0</asrwt>
<pdfrwt beam="1">  1       21 0.43136387E-01 0.79696619E+02</pdfrwt>
<pdfrwt beam="2">  1       21 0.14687913E-01 0.79696619E+02</pdfrwt>
<totfact> 0.21707783E+05</totfact>
</mgrwt>
</event>
<event>
 5    1  0.1946229E+000  0.1054153E+03  0.7546771E-02  0.1269304E+00
         21   -1    0    0  501  502  0.00000000000E+00  0.00000000000E+00  0.19288525463E+03  0.19288525463E+03  0.00000000000E+00 0. -1.
         21   -1    0    0  502  503 -0.00000000000E+00 -0.00000000000E+00 -0.17984140656E+03  0.17984140656E+03  0.00000000000E+00 0. -1.
         24    1    1    2    0    0  0.35675157147E+02  0.37575769460E+02 -0.10449458287E+03  0.14167211826E+03  0.80419002446E+02 0. -1.
          1    1    1    2  501    0 -0.58531650165E+02  0.12739276687E+02  0.15373454647E+03  0.16499258777E+03  0.00000000000E+00 0. -1.
         -2    1    1    2    0  503  0.22856493018E+02 -0.50315046146E+02 -0.36196115524E+02  0.66061955170E+02  0.00000000000E+00 0.  1.
<mgrwt>
<rscale>  2 0.10541529E+03</rscale>
<asrwt>0</asrwt>
<pdfrwt beam="1">  1       21 0.29674654E-01 0.10541529E+03</pdfrwt>
<pdfrwt beam="2">  1       21 0.27667909E-01 0.10541529E+03</pdfrwt>
<totfact> 0.13978732E+05</totfact>
</mgrwt>
</event>
<event>
 5    1  0.1946229E+000  0.9299353E+02  0.7546771E-02  0.1295760E+00
         21   -1    0    0  501  502  0.00000000000E+00  0.00000000000E+00  0.22671883827E+02  0.22671883827E+02  0.00000000000E+00 0. -1.
         21   -1    0    0  502  503 -0.00000000000E+00 -0.00000000000E+00 -0.41093434662E+03  0.41093434662E+03  0.00000000000E+00 0. -1.
         24    1    1    2    0    0 -0.11460227409E+02 -0.48037259510E+02 -0.14202069931E+03  0.17051689096E+03  0.80419002446E+02 0. -1.
          1    1    1    2  501    0  0.44097208122E+02  0.35652975564E+02 -0.13286591232E+03  0.14446123732E+03  0.00000000000E+00 0. -1.
         -2    1    1    2    0  503 -0.32636980713E+02  0.12384283946E+02 -0.11337585116E+03  0.11862810218E+03  0.00000000000E+00 0.  1.
<mgrwt>
<rscale>  2 0.92993532E+02</rscale>
<asrwt>0</asrwt>
<pdfrwt beam="1">  1       21 0.34879822E-02 0.92993532E+02</pdfrwt>
<pdfrwt beam="2">  1       21 0.63220668E-01 0.92993532E+02</pdfrwt>
<totfact> 0.11379931E+06</totfact>
</mgrwt>
</event>
<event>
 5    1  0.1946229E+000  0.8806725E+02  0.7546771E-02  0.1307601E+00
         21   -1    0    0  501  502  0.00000000000E+00  0.00000000000E+00  0.84966239354E+03  0.84966239354E+03  0.00000000000E+00 0. -1.
         21   -1    0    0  502  503 -0.00000000000E+00 -0.00000000000E+00 -0.38910676183E+02  0.38910676183E+02  0.00000000000E+00 0. -1.
         24    1    1    2    0    0 -0.18015059437E+02 -0.40765823580E+02  0.47230314246E+02  0.10336495188E+03  0.80419002446E+02 0. -1.
          1    1    1    2  501    0 -0.13176765491E+02 -0.15202188052E+02  0.67824428743E+03  0.67854259048E+03  0.00000000000E+00 0. -1.
         -2    1    1    2    0  503  0.31191824927E+02  0.55968011632E+02  0.85277115683E+02  0.10666552736E+03  0.00000000000E+00 0.  1.
<mgrwt>
<rscale>  2 0.88067252E+02</rscale>
<asrwt>0</asrwt>
<pdfrwt beam="1">  1       21 0.13071728E+00 0.88067252E+02</pdfrwt>
<pdfrwt beam="2">  1       21 0.59862585E-02 0.88067252E+02</pdfrwt>
<totfact> 0.89259115E+04</totfact>
</mgrwt>
</event>
<event>
 5    1  0.1946229E+000  0.1127452E+03  0.7546771E-02  0.1255569E+00
         21   -1    0    0  503  502  0.00000000000E+00  0.00000000000E+00  0.12828021465E+02  0.12828021465E+02  0.00000000000E+00 0. -1.
         21   -1    0    0  501  503 -0.00000000000E+00 -0.00000000000E+00 -0.12406566593E+04  0.12406566593E+04  0.00000000000E+00 0.  1.
         24    1    1    2    0    0 -0.78367962786E+02  0.13452045257E+02 -0.86642643249E+03  0.87377598615E+03  0.80419002446E+02 0.  1.
          1    1    1    2  501    0  0.90577597204E+02  0.44986492747E+01 -0.32409844811E+03  0.33654768314E+03  0.00000000000E+00 0. -1.
         -2    1    1    2    0  502 -0.12209634418E+02 -0.17950694532E+02 -0.37303757223E+02  0.43161011454E+02  0.00000000000E+00 0.  1.
<mgrwt>
<rscale>  2 0.11274518E+03</rscale>
<asrwt>0</asrwt>
<pdfrwt beam="1">  1       21 0.19735421E-02 0.11274518E+03</pdfrwt>
<pdfrwt beam="2">  1       21 0.19087022E+00 0.11274518E+03</pdfrwt>
<totfact> 0.20168607E+05</totfact>
</mgrwt>
</event>
<event>
 5    1  0.1946229E+000  0.1136641E+03  0.7546771E-02  0.1253931E+00
         21   -1    0    0  503  502  0.00000000000E+00  0.00000000000E+00  0.88659324833E+03  0.88659324833E+03  0.00000000000E+00 0.  1.
         21   -1    0    0  501  503 -0.00000000000E+00 -0.00000000000E+00 -0.17420477773E+02  0.17420477773E+02  0.00000000000E+00 0.  1.
         24    1    1    2    0    0  0.93750370423E+02  0.17589442275E+02  0.46908140536E+03  0.48538963859E+03  0.80419002446E+02 0.  1.
          1    1    1    2  501    0 -0.27535598486E+02  0.12003989977E+02  0.33788903566E+02  0.45210562522E+02  0.00000000000E+00 0. -1.
         -2    1    1    2    0  502 -0.66214771937E+02 -0.29593432252E+02  0.36630246163E+03  0.37341352500E+03  0.00000000000E+00 0.  1.
<mgrwt>
<rscale>  2 0.11366406E+03</rscale>
<asrwt>0</asrwt>
<pdfrwt beam="1">  1       21 0.13639893E+00 0.11366406E+03</pdfrwt>
<pdfrwt beam="2">  1       21 0.26800742E-02 0.11366406E+03</pdfrwt>
<totfact> 0.29909654E+05</totfact>
</mgrwt>
</event>
<event>
 5    1  0.1946229E+000  0.6588182E+02  0.7546771E-02  0.1374685E+00
         21   -1    0    0  503  502  0.00000000000E+00  0.00000000000E+00  0.90025934089E+02  0.90025934089E+02  0.00000000000E+00 0. -1.
         21   -1    0    0  501  503 -0.00000000000E+00 -0.00000000000E+00 -0.58002791064E+02  0.58002791064E+02  0.00000000000E+00 0.  1.
         24    1    1    2    0    0 -0.35174372604E+02 -0.11790333460E+02 -0.22465593762E+01  0.88591824874E+02  0.80419002446E+02 0. -1.
          1    1    1    2  501    0  0.13223331549E+02  0.16095787532E+02  0.30839581772E+01  0.21058054791E+02  0.00000000000E+00 0. -1.
         -2    1    1    2    0  502  0.21951041055E+02 -0.43054540729E+01  0.31185744223E+02  0.38378845487E+02  0.00000000000E+00 0.  1.
<mgrwt>
<rscale>  2 0.65881817E+02</rscale>
<asrwt>0</asrwt>
<pdfrwt beam="1">  1       21 0.13850144E-01 0.65881817E+02</pdfrwt>
<pdfrwt beam="2">  1       21 0.89235063E-02 0.65881817E+02</pdfrwt>
<totfact> 0.42563254E+06</totfact>
</mgrwt>
</event>
<event>
 5    1  0.1946229E+000  0.7471117E+02  0.7546771E-02  0.1344768E+00
         21   -1    0    0  501  502  0.00000000000E+00  0.00000000000E+00  0.24680517444E+03  0.24680517444E+03  0.00000000000E+00 0. -1.
         21   -1    0    0  502  503 -0.00000000000E+00 -0.00000000000E+00 -0.25301108560E+02  0.25301108560E+02  0.00000000000E+00 0.  1.
         24    1    1    2    0    0 -0.33949986293E+02  0.71766637445E+01  0.93883323358E+02  0.12839548446E+03  0.80419002446E+02 0.  1.
          1    1    1    2  501    0  0.12916350559E+02  0.22213014171E+02  0.79369574215E+02  0.83425292456E+02  0.00000000000E+00 0. -1.
         -2    1    1    2    0  503  0.21033635734E+02 -0.29389677915E+02  0.48251168303E+02  0.60285506075E+02  0.00000000000E+00 0.  1.
<mgrwt>
<rscale>  2 0.74711174E+02</rscale>
<asrwt>0</asrwt>
<pdfrwt beam="1">  1       21 0.37970025E-01 0.74711174E+02</pdfrwt>
<pdfrwt beam="2">  1       21 0.38924784E-02 0.74711174E+02</pdfrwt>
<totfact> 0.26613463E+06</totfact>
</mgrwt>
</event>
<event>
 5    1  0.1946229E+000  0.1080008E+03  0.7546771E-02  0.1264317E+00
         21   -1    0    0  503  502  0.00000000000E+00  0.00000000000E+00  0.26405087131E+02  0.26405087131E+02  0.00000000000E+00 0. -1.
         21   -1    0    0  501  503 -0.00000000000E+00 -0.00000000000E+00 -0.78897324339E+03  0.78897324339E+03  0.00000000000E+00 0.  1.
         24    1    1    2    0    0  0.53633918514E+02 -0.55691646347E+02 -0.51628908902E+03  0.52820431282E+03  0.80419002446E+02 0.  1.
          1    1    1    2  501    0 -0.13070775533E+02 -0.16853161492E+02 -0.17893193783E+03  0.18019853662E+03  0.00000000000E+00 0. -1.
         -2    1    1    2    0  502 -0.40563142981E+02  0.72544807838E+02 -0.67347129419E+02  0.10697548109E+03  0.00000000000E+00 0.  1.
<mgrwt>
<rscale>  2 0.10800085E+03</rscale>
<asrwt>0</asrwt>
<pdfrwt beam="1">  1       21 0.40623212E-02 0.10800085E+03</pdfrwt>
<pdfrwt beam="2">  1       21 0.12138050E+00 0.10800085E+03</pdfrwt>
<totfact> 0.20198345E+05</totfact>
</mgrwt>
</event>
<event>
 5    1  0.1946229E+000  0.1321956E+03  0.7546771E-02  0.1224234E+00
         21   -1    0    0  501  502  0.00000000000E+00  0.00000000000E+00  0.24050824308E+02  0.24050824308E+02  0.00000000000E+00 0.  1.
         21   -1    0    0  502  503 -0.00000000000E+00 -0.00000000000E+00 -0.13580357975E+04  0.13580357975E+04  0.00000000000E+00 0. -1.
         24    1    1    2    0    0  0.95843258903E+02 -0.50391662010E+02 -0.10646668250E+04  0.10731765531E+04  0.80419002446E+02 0. -1.
          1    1    1    2  501    0 -0.35326119076E+02 -0.16772169855E+02 -0.20450359594E+02  0.44130007683E+02  0.00000000000E+00 0. -1.
         -2    1    1    2    0  503 -0.60517139828E+02  0.67163831865E+02 -0.24886778858E+03  0.26478006103E+03  0.00000000000E+00 0.  1.
<mgrwt>
<rscale>  2 0.13219564E+03</rscale>
<asrwt>0</asrwt>
<pdfrwt beam="1">  1       21 0.37001263E-02 0.13219564E+03</pdfrwt>
<pdfrwt beam="2">  1       21 0.20892861E+00 0.13219564E+03</pdfrwt>
<totfact> 0.54961258E+04</totfact>
</mgrwt>
</event>
<event>
 5    1  0.1946229E+000  0.7614437E+02  0.7546771E-02  0.1340363E+00
         21   -1    0    0  501  502  0.00000000000E+00  0.00000000000E+00  0.45445911796E+02  0.45445911796E+02  0.00000000000E+00 0.  1.
         21   -1    0    0  502  503 -0.00000000000E+00 -0.00000000000E+00 -0.13161480015E+03  0.13161480015E+03  0.00000000000E+00 0.  1.
         24    1    1    2    0    0 -0.20971432194E+02 -0.62261408230E+01 -0.38033815971E+02  0.91609786101E+02  0.80419002446E+02 0. -1.
          1    1    1    2  501    0  0.39279393419E+02 -0.13968558852E+02 -0.19865586680E+02  0.46180438693E+02  0.00000000000E+00 0. -1.
         -2    1    1    2    0  503 -0.18307961224E+02  0.20194699675E+02 -0.28269485702E+02  0.39270487150E+02  0.00000000000E+00 0.  1.
<mgrwt>
<rscale>  2 0.76144371E+02</rscale>
<asrwt>0</asrwt>
<pdfrwt beam="1">  1       21 0.69916788E-02 0.76144371E+02</pdfrwt>
<pdfrwt beam="2">  1       21 0.20248431E-01 0.76144371E+02</pdfrwt>
<totfact> 0.32947993E+06</totfact>
</mgrwt>
</event>
<event>
 5    1  0.1946229E+000  0.9061013E+02  0.7546771E-02  0.1301381E+00
         21   -1    0    0  503  502  0.00000000000E+00  0.00000000000E+00  0.56843974301E+02  0.56843974301E+02  0.00000000000E+00 0.  1.
         21   -1    0    0  501  503 -0.00000000000E+00 -0.00000000000E+00 -0.15284241601E+03  0.15284241601E+03  0.00000000000E+00 0. -1.
         24    1    1    2    0    0  0.24436676844E+02  0.25805599268E+02 -0.31845603904E+02  0.93511702856E+02  0.80419002446E+02 0.  1.
          1    1    1    2  501    0 -0.37318833632E+02 -0.52059666690E+02 -0.57736974263E+02  0.86234925852E+02  0.00000000000E+00 0. -1.
         -2    1    1    2    0  502  0.12882156789E+02  0.26254067422E+02 -0.64158635380E+01  0.29939761600E+02  0.00000000000E+00 0.  1.
<mgrwt>
<rscale>  2 0.90610133E+02</rscale>
<asrwt>0</asrwt>
<pdfrwt beam="1">  1       21 0.87452267E-02 0.90610133E+02</pdfrwt>
<pdfrwt beam="2">  1       21 0.23514218E-01 0.90610133E+02</pdfrwt>
<totfact> 0.17234339E+06</totfact>
</mgrwt>
</event>
<event>
 5    1  0.1946229E+000  0.9602239E+02  0.7546771E-02  0.1288890E+00
         21   -1    0    0  501  502  0.00000000000E+00  0.00000000000E+00  0.10255195255E+04  0.10255195255E+04  0.00000000000E+00 0. -1.
         21   -1    0    0  502  503 -0.00000000000E+00 -0.00000000000E+00 -0.14041263421E+02  0.14041263421E+02  0.00000000000E+00 0.  1.
         24    1    1    2    0    0  0.25014324764E+02 -0.18671052127E+02  0.67717644349E+03  0.68264886743E+03  0.80419002446E+02 0.  0.
          1    1    1    2  501    0  0.30834277355E+02 -0.20973525427E+02  0.22395287901E+03  0.22703641436E+03  0.00000000000E+00 0. -1.
         -2    1    1    2    0  503 -0.55848602120E+02  0.39644577553E+02  0.11034893962E+03  0.12987550718E+03  0.00000000000E+00 0.  1.
<mgrwt>
<rscale>  2 0.96022392E+02</rscale>
<asrwt>0</asrwt>
<pdfrwt beam="1">  1       21 0.15777218E+00 0.96022392E+02</pdfrwt>
<pdfrwt beam="2">  1       21 0.21601952E-02 0.96022392E+02</pdfrwt>
<totfact> 0.29428280E+05</totfact>
</mgrwt>
</event>
<event>
 5    1  0.1946229E+000  0.1110865E+03  0.7546771E-02  0.1258571E+00
         21   -1    0    0  501  502  0.00000000000E+00  0.00000000000E+00  0.50236523795E+03  0.50236523795E+03  0.00000000000E+00 0. -1.
         21   -1    0    0  502  503 -0.00000000000E+00 -0.00000000000E+00 -0.54193307586E+02  0.54193307586E+02  0.00000000000E+00 0.  1.
         24    1    1    2    0    0  0.90308170517E+02 -0.74710794593E+01  0.28514716195E+03  0.30981849947E+03  0.80419002446E+02 0. -1.
          1    1    1    2  501    0 -0.58088131549E+02 -0.17037966431E+02  0.18912250872E+03  0.19857453671E+03  0.00000000000E+00 0. -1.
         -2    1    1    2    0  503 -0.32220038968E+02  0.24509045890E+02 -0.26097740310E+02  0.48165509349E+02  0.00000000000E+00 0.  1.
<mgrwt>
<rscale>  2 0.11108648E+03</rscale>
<asrwt>0</asrwt>
<pdfrwt beam="1">  1       21 0.77286957E-01 0.11108648E+03</pdfrwt>
<pdfrwt beam="2">  1       21 0.83374323E-02 0.11108648E+03</pdfrwt>
<totfact> 0.17047247E+05</totfact>
</mgrwt>
</event>
<event>
 5    1  0.1946229E+000  0.8159417E+02  0.7546771E-02  0.1324587E+00
         21   -1    0    0  503  502  0.00000000000E+00  0.00000000000E+00  0.31001002090E+03  0.31001002090E+03  0.00000000000E+00 0.  1.
         21   -1    0    0  501  503 -0.00000000000E+00 -0.00000000000E+00 -0.93933516288E+02  0.93933516288E+02  0.00000000000E+00 0. -1.
         24    1    1    2    0    0 -0.33389259845E+02  0.52229256993E+01  0.66156732385E+02  0.10948082398E+03  0.80419002446E+02 0. -1.
          1    1    1    2  501    0  0.44210380483E+02  0.19990135005E+02 -0.63148008048E+02  0.79635633735E+02  0.00000000000E+00 0. -1.
         -2    1    1    2    0  502 -0.10821120638E+02 -0.25213060704E+02  0.21306778028E+03  0.21482707947E+03  0.00000000000E+00 0.  1.
<mgrwt>
<rscale>  2 0.81594174E+02</rscale>
<asrwt>0</asrwt>
<pdfrwt beam="1">  1       21 0.47693849E-01 0.81594174E+02</pdfrwt>
<pdfrwt beam="2">  1       21 0.14451310E-01 0.81594174E+02</pdfrwt>
<totfact> 0.18253429E+05</totfact>
</mgrwt>
</event>
<event>
 5    1  0.1946229E+000  0.9667279E+02  0.7546771E-02  0.1287452E+00
         21   -1    0    0  501  502  0.00000000000E+00  0.00000000000E+00  0.47485918805E+02  0.47485918805E+02  0.00000000000E+00 0.  1.
         21   -1    0    0  502  503 -0.00000000000E+00 -0.00000000000E+00 -0.38887296792E+03  0.38887296792E+03  0.00000000000E+00 0.  1.
         24    1    1    2    0    0 -0.46982164579E+02 -0.45048458931E+02 -0.69795043622E+02  0.12480084739E+03  0.80419002446E+02 0.  1.
          1    1    1    2  501    0  0.52892032373E+02  0.93629708601E+01 -0.19903084480E+02  0.57283200711E+02  0.00000000000E+00 0. -1.
         -2    1    1    2    0  503 -0.59098677938E+01  0.35685488071E+02 -0.25168892101E+03  0.25427483862E+03  0.00000000000E+00 0.  1.
<mgrwt>
<rscale>  2 0.96672786E+02</rscale>
<asrwt>0</asrwt>
<pdfrwt beam="1">  1       21 0.73055261E-02 0.96672786E+02</pdfrwt>
<pdfrwt beam="2">  1       21 0.59826609E-01 0.96672786E+02</pdfrwt>
<totfact> 0.37258319E+05</totfact>
</mgrwt>
</event>
<event>
 5    1  0.1946229E+000  0.8608493E+02  0.7546771E-02  0.1312619E+00
         21   -1    0    0  501  502  0.00000000000E+00  0.00000000000E+00  0.34154412503E+02  0.34154412503E+02  0.00000000000E+00 0. -1.
         21   -1    0    0  502  503 -0.00000000000E+00 -0.00000000000E+00 -0.33432761043E+03  0.33432761043E+03  0.00000000000E+00 0. -1.
         24    1    1    2    0    0 -0.54783476236E+01 -0.18277381484E+02 -0.20727183805E+03  0.22314324048E+03  0.80419002446E+02 0. -1.
          1    1    1    2  501    0  0.10115737438E+02  0.53268836041E+02 -0.98641033593E+01  0.55110775463E+02  0.00000000000E+00 0. -1.
         -2    1    1    2    0  503 -0.46373898144E+01 -0.34991454557E+02 -0.83037256516E+02  0.90228006994E+02  0.00000000000E+00 0.  1.
<mgrwt>
<rscale>  2 0.86084926E+02</rscale>
<asrwt>0</asrwt>
<pdfrwt beam="1">  1       21 0.52545251E-02 0.86084926E+02</pdfrwt>
<pdfrwt beam="2">  1       21 0.51435016E-01 0.86084926E+02</pdfrwt>
<totfact> 0.88798249E+05</totfact>
</mgrwt>
</event>
<event>
 5    1  0.1946229E+000  0.1117921E+03  0.7546771E-02  0.1257287E+00
         21   -1    0    0  501  502  0.00000000000E+00  0.00000000000E+00  0.51286988207E+02  0.51286988207E+02  0.00000000000E+00 0. -1.
         21   -1    0    0  502  503 -0.00000000000E+00 -0.00000000000E+00 -0.48443851336E+03  0.48443851336E+03  0.00000000000E+00 0. -1.
         24    1    1    2    0    0  0.35047554609E+02 -0.66102612477E+02 -0.13888992549E+03  0.17707488195E+03  0.80419002446E+02 0. -1.
          1    1    1    2  501    0 -0.57797162626E+02  0.69876997182E+02 -0.33194461610E+02  0.96566966528E+02  0.00000000000E+00 0. -1.
         -2    1    1    2    0  503  0.22749608017E+02 -0.37743847051E+01 -0.26106713805E+03  0.26208365309E+03  0.00000000000E+00 0.  1.
<mgrwt>
<rscale>  2 0.11179215E+03</rscale>
<asrwt>0</asrwt>
<pdfrwt beam="1">  1       21 0.78903057E-02 0.11179215E+03</pdfrwt>
<pdfrwt beam="2">  1       21 0.74529003E-01 0.11179215E+03</pdfrwt>
<totfact> 0.20298371E+05</totfact>
</mgrwt>
</event>
<event>
 5    1  0.1946229E+000  0.1059784E+03  0.7546771E-02  0.1268204E+00
         21   -1    0    0  503  502  0.00000000000E+00  0.00000000000E+00  0.68713084173E+03  0.68713084173E+03  0.00000000000E+00 0.  1.
         21   -1    0    0  501  503 -0.00000000000E+00 -0.00000000000E+00 -0.96407219203E+02  0.96407219203E+02  0.00000000000E+00 0. -1.
         24    1    1    2    0    0  0.45114368630E+02  0.21464270666E+02  0.44887330059E+02  0.10477647411E+03  0.80419002446E+02 0.  0.
          1    1    1    2  501    0 -0.46535932064E+02 -0.61555200093E+02 -0.43149603175E+02  0.88411107253E+02  0.00000000000E+00 0. -1.
         -2    1    1    2    0  502  0.14215634334E+01  0.40090929426E+02  0.58898589564E+03  0.59035047957E+03  0.00000000000E+00 0.  1.
<mgrwt>
<rscale>  2 0.10597839E+03</rscale>
<asrwt>0</asrwt>
<pdfrwt beam="1">  1       21 0.10571243E+00 0.10597839E+03</pdfrwt>
<pdfrwt beam="2">  1       21 0.14831880E-01 0.10597839E+03</pdfrwt>
<totfact> 0.30473293E+04</totfact>
</mgrwt>
</event>
<event>
 5    1  0.1946229E+000  0.9794992E+02  0.7546771E-02  0.1284667E+00
         21   -1    0    0  503  502  0.00000000000E+00  0.00000000000E+00  0.17559729802E+04  0.17559729802E+04  0.00000000000E+00 0.  1.
         21   -1    0    0  501  503 -0.00000000000E+00 -0.00000000000E+00 -0.40642067424E+02  0.40642067424E+02  0.00000000000E+00 0. -1.
         24    1    1    2    0    0 -0.11661386557E+02 -0.44120421301E+02  0.33511519883E+02  0.98350584296E+02  0.80419002446E+02 0. -1.
          1    1    1    2  501    0  0.41961648179E+02  0.56774385195E+02  0.14679775526E+03  0.16289165627E+03  0.00000000000E+00 0. -1.
         -2    1    1    2    0  502 -0.30300261623E+02 -0.12653963894E+02  0.15350216377E+04  0.15353728071E+04  0.00000000000E+00 0.  1.
<mgrwt>
<rscale>  2 0.97949920E+02</rscale>
<asrwt>0</asrwt>
<pdfrwt beam="1">  1       21 0.27014963E+00 0.97949920E+02</pdfrwt>
<pdfrwt beam="2">  1       21 0.62526271E-02 0.97949920E+02</pdfrwt>
<totfact> 0.10554217E+04</totfact>
</mgrwt>
</event>
<event>
 5    1  0.1946229E+000  0.7506433E+02  0.7546771E-02  0.1343672E+00
         21   -1    0    0  503  502  0.00000000000E+00  0.00000000000E+00  0.10404318743E+03  0.10404318743E+03  0.00000000000E+00 0. -1.
         21   -1    0    0  501  503 -0.00000000000E+00 -0.00000000000E+00 -0.61017579942E+02  0.61017579942E+02  0.00000000000E+00 0.  1.
         24    1    1    2    0    0 -0.27675357652E+02  0.42623383171E+02  0.53225646647E+02  0.10900854842E+03  0.80419002446E+02 0.  0.
          1    1    1    2  501    0  0.41560209366E+01 -0.25671942255E+02 -0.29894819458E+01  0.26177435541E+02  0.00000000000E+00 0. -1.
         -2    1    1    2    0  502  0.23519336715E+02 -0.16951440915E+02 -0.72105572092E+01  0.29874783412E+02  0.00000000000E+00 0.  1.
<mgrwt>
<rscale>  2 0.75064333E+02</rscale>
<asrwt>0</asrwt>
<pdfrwt beam="1">  1       21 0.16006644E-01 0.75064333E+02</pdfrwt>
<pdfrwt beam="2">  1       21 0.93873200E-02 0.75064333E+02</pdfrwt>
<totfact> 0.30475157E+06</totfact>
</mgrwt>
</event>
<event>
 5    1  0.1946229E+000  0.6441411E+02  0.7546771E-02  0.1380189E+00
         21   -1    0    0  501  502  0.00000000000E+00  0.00000000000E+00  0.66330858885E+03  0.66330858885E+03  0.00000000000E+00 0. -1.
         21   -1    0    0  502  503 -0.00000000000E+00 -0.00000000000E+00 -0.63788590893E+01  0.63788590893E+01  0.00000000000E+00 0. -1.
         24    1    1    2    0    0  0.32079707389E+02  0.12926771170E+02  0.44171713721E+03  0.45030817703E+03  0.80419002446E+02 0. -1.
          1    1    1    2  501    0 -0.12522663970E+02 -0.17193182511E+02  0.13722963394E+03  0.13886826516E+03  0.00000000000E+00 0. -1.
         -2    1    1    2    0  503 -0.19557043419E+02  0.42664113415E+01  0.77982958602E+02  0.80511005740E+02  0.00000000000E+00 0.  1.
<mgrwt>
<rscale>  2 0.64414109E+02</rscale>
<asrwt>0</asrwt>
<pdfrwt beam="1">  1       21 0.10204742E+00 0.64414109E+02</pdfrwt>
<pdfrwt beam="2">  1       21 0.98136346E-03 0.64414109E+02</pdfrwt>
<totfact> 0.29424321E+06</totfact>
</mgrwt>
</event>
<event>
 5    1  0.1946229E+000  0.1378770E+03  0.7546771E-02  0.1216215E+00
         21   -1    0    0  503  502  0.00000000000E+00  0.00000000000E+00  0.42185396680E+02  0.42185396680E+02  0.00000000000E+00 0.  1.
         21   -1    0    0  501  503 -0.00000000000E+00 -0.00000000000E+00 -0.75292146310E+03  0.75292146310E+03  0.00000000000E+00 0. -1.
         24    1    1    2    0    0  0.21365578093E+02 -0.10464389262E+02 -0.11431439824E+03  0.14177795657E+03  0.80419002446E+02 0.  0.
          1    1    1    2  501    0  0.52238181169E+02 -0.67050005096E+02 -0.50667965694E+03  0.51375948217E+03  0.00000000000E+00 0. -1.
         -2    1    1    2    0  502 -0.73603759262E+02  0.77514394358E+02 -0.89742011237E+02  0.13956942105E+03  0.00000000000E+00 0.  1.
<mgrwt>
<rscale>  2 0.13787695E+03</rscale>
<asrwt>0</asrwt>
<pdfrwt beam="1">  1       21 0.64900613E-02 0.13787695E+03</pdfrwt>
<pdfrwt beam="2">  1       21 0.11583407E+00 0.13787695E+03</pdfrwt>
<totfact> 0.10167399E+05</totfact>
</mgrwt>
</event>
<event>
 5    1  0.1946229E+000  0.9032867E+02  0.7546771E-02  0.1302058E+00
         21   -1    0    0  501  502  0.00000000000E+00  0.00000000000E+00  0.18481485989E+03  0.18481485989E+03  0.00000000000E+00 0. -1.
         21   -1    0    0  502  503 -0.00000000000E+00 -0.00000000000E+00 -0.82922944864E+02  0.82922944864E+02  0.00000000000E+00 0. -1.
         24    1    1    2    0    0  0.54251464184E+02 -0.19505609589E+02  0.13082157646E+03  0.16402801893E+03  0.80419002446E+02 0. -1.
          1    1    1    2  501    0 -0.59034893309E+02 -0.25989970969E+01  0.87772755622E+01  0.59740388182E+02  0.00000000000E+00 0. -1.
         -2    1    1    2    0  503  0.47834291249E+01  0.22104606685E+02 -0.37706937001E+02  0.43969397641E+02  0.00000000000E+00 0.  1.
<mgrwt>
<rscale>  2 0.90328667E+02</rscale>
<asrwt>0</asrwt>
<pdfrwt beam="1">  1       21 0.28433055E-01 0.90328667E+02</pdfrwt>
<pdfrwt beam="2">  1       21 0.12757376E-01 0.90328667E+02</pdfrwt>
<totfact> 0.62539014E+05</totfact>
</mgrwt>
</event>
<event>
 5    1  0.1946229E+000  0.7972711E+02  0.7546771E-02  0.1329828E+00
         21   -1    0    0  501  502  0.00000000000E+00  0.00000000000E+00  0.56399582473E+02  0.56399582473E+02  0.00000000000E+00 0. -1.
         21   -1    0    0  502  503 -0.00000000000E+00 -0.00000000000E+00 -0.12522901427E+03  0.12522901427E+03  0.00000000000E+00 0.  1.
         24    1    1    2    0    0 -0.26024951302E+02  0.82171564468E+01 -0.14828590126E+02  0.86208600440E+02  0.80419002446E+02 0. -1.
          1    1    1    2  501    0  0.12172690052E+02 -0.38956581552E+02 -0.14099187519E+02  0.43180744760E+02  0.00000000000E+00 0. -1.
         -2    1    1    2    0  503  0.13852261251E+02  0.30739425105E+02 -0.39901654150E+02  0.52239251540E+02  0.00000000000E+00 0.  1.
<mgrwt>
<rscale>  2 0.79727109E+02</rscale>
<asrwt>0</asrwt>
<pdfrwt beam="1">  1       21 0.86768590E-02 0.79727109E+02</pdfrwt>
<pdfrwt beam="2">  1       21 0.19266002E-01 0.79727109E+02</pdfrwt>
<totfact> 0.25057550E+06</totfact>
</mgrwt>
</event>
<event>
 5    1  0.1946229E+000  0.6618094E+02  0.7546771E-02  0.1373584E+00
         21   -1    0    0  503  502  0.00000000000E+00  0.00000000000E+00  0.63284041828E+03  0.63284041828E+03  0.00000000000E+00 0.  1.
         21   -1    0    0  501  503 -0.00000000000E+00 -0.00000000000E+00 -0.10257194379E+02  0.10257194379E+02  0.00000000000E+00 0. -1.
         24    1    1    2    0    0  0.19946547585E+02 -0.12608830803E+02  0.40079996191E+03  0.40946876901E+03  0.80419002446E+02 0.  1.
          1    1    1    2  501    0  0.33115531188E+01  0.22886230469E+02  0.20984530224E+02  0.31226534196E+02  0.00000000000E+00 0. -1.
         -2    1    1    2    0  502 -0.23258100704E+02 -0.10277399666E+02  0.20079873177E+03  0.20240230945E+03  0.00000000000E+00 0.  1.
<mgrwt>
<rscale>  2 0.66180943E+02</rscale>
<asrwt>0</asrwt>
<pdfrwt beam="1">  1       21 0.97360034E-01 0.66180943E+02</pdfrwt>
<pdfrwt beam="2">  1       21 0.15780304E-02 0.66180943E+02</pdfrwt>
<totfact> 0.15625713E+06</totfact>
</mgrwt>
</event>
<event>
 5    1  0.1946229E+000  0.7743358E+02  0.7546771E-02  0.1336496E+00
         21   -1    0    0  501  502  0.00000000000E+00  0.00000000000E+00  0.16927834295E+03  0.16927834295E+03  0.00000000000E+00 0.  1.
         21   -1    0    0  502  503 -0.00000000000E+00 -0.00000000000E+00 -0.68386785957E+02  0.68386785957E+02  0.00000000000E+00 0. -1.
         24    1    1    2    0    0  0.56294228157E+02 -0.30497203825E+01  0.92673182762E+02  0.13503286887E+03  0.80419002446E+02 0.  1.
          1    1    1    2  501    0 -0.25440826512E+02  0.41766411596E+01  0.46671247233E+02  0.53318714382E+02  0.00000000000E+00 0. -1.
         -2    1    1    2    0  503 -0.30853401645E+02 -0.11269207771E+01 -0.38452872999E+02  0.49313545658E+02  0.00000000000E+00 0.  1.
<mgrwt>
<rscale>  2 0.77433580E+02</rscale>
<asrwt>0</asrwt>
<pdfrwt beam="1">  1       21 0.26042822E-01 0.77433580E+02</pdfrwt>
<pdfrwt beam="2">  1       21 0.10521044E-01 0.77433580E+02</pdfrwt>
<totfact> 0.10307460E+06</totfact>
</mgrwt>
</event>
<event>
 5    1  0.1946229E+000  0.8259873E+02  0.7546771E-02  0.1321834E+00
         21   -1    0    0  503  502  0.00000000000E+00  0.00000000000E+00  0.59372735817E+03  0.59372735817E+03  0.00000000000E+00 0. -1.
         21   -1    0    0  501  503 -0.00000000000E+00 -0.00000000000E+00 -0.15973284906E+02  0.15973284906E+02  0.00000000000E+00 0. -1.
         24    1    1    2    0    0 -0.10831267013E+02  0.59466337826E+02  0.47338489533E+03  0.48395664761E+03  0.80419002446E+02 0. -1.
          1    1    1    2  501    0  0.17531614996E+02 -0.33892296078E+02  0.36075367234E+02  0.52511688021E+02  0.00000000000E+00 0. -1.
         -2    1    1    2    0  502 -0.67003479829E+01 -0.25574041748E+02  0.68293810699E+02  0.73232307448E+02  0.00000000000E+00 0.  1.
<mgrwt>
<rscale>  2 0.82598725E+02</rscale>
<asrwt>0</asrwt>
<pdfrwt beam="1">  1       21 0.91342654E-01 0.82598725E+02</pdfrwt>
<pdfrwt beam="2">  1       21 0.24574289E-02 0.82598725E+02</pdfrwt>
<totfact> 0.89651408E+05</totfact>
</mgrwt>
</event>
<event>
 5    1  0.1946229E+000  0.7502739E+02  0.7546771E-02  0.1343786E+00
         21   -1    0    0  503  502  0.00000000000E+00  0.00000000000E+00  0.70876250461E+02  0.70876250461E+02  0.00000000000E+00 0.  1.
         21   -1    0    0  501  503 -0.00000000000E+00 -0.00000000000E+00 -0.20372947835E+03  0.20372947835E+03  0.00000000000E+00 0.  1.
         24    1    1    2    0    0  0.38353024544E+02 -0.14510189570E+01 -0.92302939798E+02  0.12829695475E+03  0.80419002446E+02 0.  1.
          1    1    1    2  501    0 -0.11830391844E+02  0.23595206796E+02 -0.85575792558E+02  0.89553940321E+02  0.00000000000E+00 0. -1.
         -2    1    1    2    0  502 -0.26522632700E+02 -0.22144187839E+02  0.45025504469E+02  0.56754833742E+02  0.00000000000E+00 0.  1.
<mgrwt>
<rscale>  2 0.75027389E+02</rscale>
<asrwt>0</asrwt>
<pdfrwt beam="1">  1       21 0.10904039E-01 0.75027389E+02</pdfrwt>
<pdfrwt beam="2">  1       21 0.31342996E-01 0.75027389E+02</pdfrwt>
<totfact> 0.68231418E+05</totfact>
</mgrwt>
</event>
<event>
 5    1  0.1946229E+000  0.1263727E+03  0.7546771E-02  0.1232939E+00
         21   -1    0    0  501  502  0.00000000000E+00  0.00000000000E+00  0.52980209975E+03  0.52980209975E+03  0.00000000000E+00 0. -1.
         21   -1    0    0  502  503 -0.00000000000E+00 -0.00000000000E+00 -0.88475006996E+02  0.88475006996E+02  0.00000000000E+00 0.  1.
         24    1    1    2    0    0 -0.21384858182E+02  0.29728509787E+02  0.60942193018E+02  0.10734180592E+03  0.80419002446E+02 0.  1.
          1    1    1    2  501    0 -0.29009990602E+02 -0.84863274965E+02  0.41785275450E+03  0.42736902021E+03  0.00000000000E+00 0. -1.
         -2    1    1    2    0  503  0.50394848783E+02  0.55134765178E+02 -0.37467854766E+02  0.83566280615E+02  0.00000000000E+00 0.  1.
<mgrwt>
<rscale>  2 0.12637267E+03</rscale>
<asrwt>0</asrwt>
<pdfrwt beam="1">  1       21 0.81508014E-01 0.12637267E+03</pdfrwt>
<pdfrwt beam="2">  1       21 0.13611540E-01 0.12637267E+03</pdfrwt>
<totfact> 0.63676786E+04</totfact>
</mgrwt>
</event>
<event>
 5    1  0.1946229E+000  0.7396095E+02  0.7546771E-02  0.1347119E+00
         21   -1    0    0  501  502  0.00000000000E+00  0.00000000000E+00  0.21346624665E+03  0.21346624665E+03  0.00000000000E+00 0.  1.
         21   -1    0    0  502  503 -0.00000000000E+00 -0.00000000000E+00 -0.40776165252E+02  0.40776165252E+02  0.00000000000E+00 0. -1.
         24    1    1    2    0    0  0.69009316357E+01 -0.24415156687E+02  0.14142243106E+03  0.16465492005E+03  0.80419002446E+02 0.  1.
          1    1    1    2  501    0  0.12914315753E+02  0.37625719088E+02  0.46594934980E+02  0.61266322348E+02  0.00000000000E+00 0. -1.
         -2    1    1    2    0  503 -0.19815247388E+02 -0.13210562402E+02 -0.15327284641E+02  0.28321169512E+02  0.00000000000E+00 0.  1.
<mgrwt>
<rscale>  2 0.73960946E+02</rscale>
<asrwt>0</asrwt>
<pdfrwt beam="1">  1       21 0.32840960E-01 0.73960946E+02</pdfrwt>
<pdfrwt beam="2">  1       21 0.62732563E-02 0.73960946E+02</pdfrwt>
<totfact> 0.15992000E+06</totfact>
</mgrwt>
</event>
<event>
 5    1  0.1946229E+000  0.7107133E+02  0.7546771E-02  0.1356487E+00
         21   -1    0    0  503  502  0.00000000000E+00  0.00000000000E+00  0.16447282286E+02  0.16447282286E+02  0.00000000000E+00 0. -1.
         21   -1    0    0  501  503 -0.00000000000E+00 -0.00000000000E+00 -0.76521856110E+03  0.76521856110E+03  0.00000000000E+00 0.  1.
         24    1    1    2    0    0 -0.11469719155E+02 -0.38442946677E+01 -0.51265564896E+03  0.51906585654E+03  0.80419002446E+02 0.  1.
          1    1    1    2  501    0  0.27389232146E+02  0.23103396078E+02 -0.23486415425E+03  0.23758179202E+03  0.00000000000E+00 0. -1.
         -2    1    1    2    0  502 -0.15919512992E+02 -0.19259101411E+02 -0.12514755999E+01  0.25018194823E+02  0.00000000000E+00 0.  1.
<mgrwt>
<rscale>  2 0.71071335E+02</rscale>
<asrwt>0</asrwt>
<pdfrwt beam="1">  1       21 0.25303509E-02 0.71071335E+02</pdfrwt>
<pdfrwt beam="2">  1       21 0.11772594E+00 0.71071335E+02</pdfrwt>
<totfact> 0.47522315E+05</totfact>
</mgrwt>
</event>
<event>
 5    1  0.1946229E+000  0.9300409E+02  0.7546771E-02  0.1295736E+00
         21   -1    0    0  503  502  0.00000000000E+00  0.00000000000E+00  0.37995188005E+03  0.37995188005E+03  0.00000000000E+00 0.  1.
         21   -1    0    0  501  503 -0.00000000000E+00 -0.00000000000E+00 -0.13988684986E+03  0.13988684986E+03  0.00000000000E+00 0. -1.
         24    1    1    2    0    0 -0.73724067849E+02  0.16320708103E+02 -0.10138241033E+01  0.11031703172E+03  0.80419002446E+02 0. -1.
          1    1    1    2  501    0  0.44751702967E+02 -0.12556759096E+02 -0.77087951293E+02  0.90016328252E+02  0.00000000000E+00 0. -1.
         -2    1    1    2    0  502  0.28972364882E+02 -0.37639490074E+01  0.31816680559E+03  0.31950536994E+03  0.00000000000E+00 0.  1.
<mgrwt>
<rscale>  2 0.93004088E+02</rscale>
<asrwt>0</asrwt>
<pdfrwt beam="1">  1       21 0.58454135E-01 0.93004088E+02</pdfrwt>
<pdfrwt beam="2">  1       21 0.21521054E-01 0.93004088E+02</pdfrwt>
<totfact> 0.58104505E+04</totfact>
</mgrwt>
</event>
<event>
 5    1  0.1946229E+000  0.1281243E+03  0.7546771E-02  0.1230266E+00
         21   -1    0    0  503  502  0.00000000000E+00  0.00000000000E+00  0.95459254994E+02  0.95459254994E+02  0.00000000000E+00 0.  1.
         21   -1    0    0  501  503 -0.00000000000E+00 -0.00000000000E+00 -0.23326824083E+03  0.23326824083E+03  0.00000000000E+00 0. -1.
         24    1    1    2    0    0 -0.43097799903E+02 -0.75658112558E+02 -0.59510963892E+02  0.13262858338E+03  0.80419002446E+02 0. -1.
          1    1    1    2  501    0 -0.27238003969E+02  0.59667379191E+02 -0.10104497540E+03  0.12046655989E+03  0.00000000000E+00 0. -1.
         -2    1    1    2    0  502  0.70335803871E+02  0.15990733367E+02  0.22746953456E+02  0.75632352544E+02  0.00000000000E+00 0.  1.
<mgrwt>
<rscale>  2 0.12812432E+03</rscale>
<asrwt>0</asrwt>
<pdfrwt beam="1">  1       21 0.14686039E-01 0.12812432E+03</pdfrwt>
<pdfrwt beam="2">  1       21 0.35887422E-01 0.12812432E+03</pdfrwt>
<totfact> 0.30928831E+05</totfact>
</mgrwt>
</event>
<event>
 5    1  0.1946229E+000  0.1305693E+03  0.7546771E-02  0.1226613E+00
         21   -1    0    0  501  502  0.00000000000E+00  0.00000000000E+00  0.10388081929E+03  0.10388081929E+03  0.00000000000E+00 0. -1.
         21   -1    0    0  502  503 -0.00000000000E+00 -0.00000000000E+00 -0.21439885284E+03  0.21439885284E+03  0.00000000000E+00 0.  1.
         24    1    1    2    0    0 -0.25207206462E+02 -0.56778691942E+02 -0.20867407411E+02  0.10373951881E+03  0.80419002446E+02 0. -1.
          1    1    1    2  501    0 -0.58011078276E+02 -0.13214257862E+01  0.23442898143E+02  0.62582751954E+02  0.00000000000E+00 0. -1.
         -2    1    1    2    0  503  0.83218284738E+02  0.58100117728E+02 -0.11309352428E+03  0.15195740137E+03  0.00000000000E+00 0.  1.
<mgrwt>
<rscale>  2 0.13056930E+03</rscale>
<asrwt>0</asrwt>
<pdfrwt beam="1">  1       21 0.15981665E-01 0.13056930E+03</pdfrwt>
<pdfrwt beam="2">  1       21 0.32984439E-01 0.13056930E+03</pdfrwt>
<totfact> 0.31311006E+05</totfact>
</mgrwt>
</event>
<event>
 5    1  0.1946229E+000  0.1648806E+03  0.7546771E-02  0.1183294E+00
         21   -1    0    0  503  502  0.00000000000E+00  0.00000000000E+00  0.61884892390E+03  0.61884892390E+03  0.00000000000E+00 0.  1.
         21   -1    0    0  501  503 -0.00000000000E+00 -0.00000000000E+00 -0.10818402344E+03  0.10818402344E+03  0.00000000000E+00 0. -1.
         24    1    1    2    0    0  0.14639853830E+03 -0.35597769603E+02  0.30621434875E+03  0.35061970360E+03  0.80419002446E+02 0.  1.
          1    1    1    2  501    0 -0.90653252083E+02 -0.37722358826E+01 -0.56366741697E+02  0.10681503380E+03  0.00000000000E+00 0. -1.
         -2    1    1    2    0  502 -0.55745286214E+02  0.39370005486E+02  0.26081729340E+03  0.26959820994E+03  0.00000000000E+00 0.  1.
<mgrwt>
<rscale>  2 0.16488059E+03</rscale>
<asrwt>0</asrwt>
<pdfrwt beam="1">  1       21 0.95207525E-01 0.16488059E+03</pdfrwt>
<pdfrwt beam="2">  1       21 0.16643696E-01 0.16488059E+03</pdfrwt>
<totfact> 0.30379811E+04</totfact>
</mgrwt>
</event>
<event>
 5    1  0.1946229E+000  0.1081552E+03  0.7546771E-02  0.1264025E+00
         21   -1    0    0  503  502  0.00000000000E+00  0.00000000000E+00  0.74062510057E+02  0.74062510057E+02  0.00000000000E+00 0. -1.
         21   -1    0    0  501  503 -0.00000000000E+00 -0.00000000000E+00 -0.51414920572E+03  0.51414920572E+03  0.00000000000E+00 0. -1.
         24    1    1    2    0    0  0.85153426505E+02 -0.35875715039E+02 -0.24693470141E+02  0.12496061939E+03  0.80419002446E+02 0. -1.
          1    1    1    2  501    0 -0.25701379599E+02  0.29954207035E+01 -0.38979042822E+03  0.39064832188E+03  0.00000000000E+00 0. -1.
         -2    1    1    2    0  502 -0.59452046906E+02  0.32880294335E+02 -0.25602797305E+02  0.72602774511E+02  0.00000000000E+00 0.  1.
<mgrwt>
<rscale>  2 0.10815524E+03</rscale>
<asrwt>0</asrwt>
<pdfrwt beam="1">  1       21 0.11394232E-01 0.10815524E+03</pdfrwt>
<pdfrwt beam="2">  1       21 0.79099877E-01 0.10815524E+03</pdfrwt>
<totfact> 0.94187751E+04</totfact>
</mgrwt>
</event>
<event>
 5    1  0.1946229E+000  0.7742420E+02  0.7546771E-02  0.1336524E+00
         21   -1    0    0  501  502  0.00000000000E+00  0.00000000000E+00  0.17233839411E+03  0.17233839411E+03  0.00000000000E+00 0.  1.
         21   -1    0    0  502  503 -0.00000000000E+00 -0.00000000000E+00 -0.48486903655E+02  0.48486903655E+02  0.00000000000E+00 0.  1.
         24    1    1    2    0    0 -0.13923984386E+02 -0.45110278434E+02  0.67843033970E+02  0.11532002330E+03  0.80419002446E+02 0.  1.
          1    1    1    2  501    0 -0.13907448596E+02  0.17957864703E+02  0.62122959259E+02  0.66145023231E+02  0.00000000000E+00 0. -1.
         -2    1    1    2    0  503  0.27831432981E+02  0.27152413731E+02 -0.61145027702E+01  0.39360251236E+02  0.00000000000E+00 0.  1.
<mgrwt>
<rscale>  2 0.77424201E+02</rscale>
<asrwt>0</asrwt>
<pdfrwt beam="1">  1       21 0.26513599E-01 0.77424201E+02</pdfrwt>
<pdfrwt beam="2">  1       21 0.74595237E-02 0.77424201E+02</pdfrwt>
<totfact> 0.17957361E+06</totfact>
</mgrwt>
</event>
<event>
 5    1  0.1946229E+000  0.8370629E+02  0.7546771E-02  0.1318851E+00
         21   -1    0    0  503  502  0.00000000000E+00  0.00000000000E+00  0.98604979265E+02  0.98604979265E+02  0.00000000000E+00 0.  1.
         21   -1    0    0  501  503 -0.00000000000E+00 -0.00000000000E+00 -0.12707865618E+03  0.12707865618E+03  0.00000000000E+00 0.  1.
         24    1    1    2    0    0  0.38839272193E+02 -0.15523025244E+02 -0.84747070741E+02  0.12409164086E+03  0.80419002446E+02 0.  1.
          1    1    1    2  501    0  0.17203722356E+02  0.11261735525E+02 -0.19650390269E+01  0.20655656086E+02  0.00000000000E+00 0. -1.
         -2    1    1    2    0  502 -0.56042994549E+02  0.42612897188E+01  0.58238432856E+02  0.80936338499E+02  0.00000000000E+00 0.  1.
<mgrwt>
<rscale>  2 0.83706293E+02</rscale>
<asrwt>0</asrwt>
<pdfrwt beam="1">  1       21 0.15169997E-01 0.83706293E+02</pdfrwt>
<pdfrwt beam="2">  1       21 0.19550562E-01 0.83706293E+02</pdfrwt>
<totfact> 0.92186888E+05</totfact>
</mgrwt>
</event>
<event>
 5    1  0.1946229E+000  0.7449377E+02  0.7546771E-02  0.1345446E+00
         21   -1    0    0  501  502  0.00000000000E+00  0.00000000000E+00  0.55816743130E+03  0.55816743130E+03  0.00000000000E+00 0.  1.
         21   -1    0    0  502  503 -0.00000000000E+00 -0.00000000000E+00 -0.17587210451E+02  0.17587210451E+02  0.00000000000E+00 0. -1.
         24    1    1    2    0    0 -0.19608669619E+02  0.29981372489E+01  0.13007972751E+03  0.15421232186E+03  0.80419002446E+02 0. -1.
          1    1    1    2  501    0  0.14677779575E+02 -0.32808838380E+02  0.36595501611E+03  0.36771582901E+03  0.00000000000E+00 0. -1.
         -2    1    1    2    0  503  0.49308900436E+01  0.29810701131E+02  0.44545477234E+02  0.53826490881E+02  0.00000000000E+00 0.  1.
<mgrwt>
<rscale>  2 0.74493768E+02</rscale>
<asrwt>0</asrwt>
<pdfrwt beam="1">  1       21 0.85871899E-01 0.74493768E+02</pdfrwt>
<pdfrwt beam="2">  1       21 0.27057251E-02 0.74493768E+02</pdfrwt>
<totfact> 0.88089089E+05</totfact>
</mgrwt>
</event>
<event>
 5    1  0.1946229E+000  0.1277449E+03  0.7546771E-02  0.1230841E+00
         21   -1    0    0  503  502  0.00000000000E+00  0.00000000000E+00  0.81040081479E+02  0.81040081479E+02  0.00000000000E+00 0. -1.
         21   -1    0    0  501  503 -0.00000000000E+00 -0.00000000000E+00 -0.22169902762E+03  0.22169902762E+03  0.00000000000E+00 0. -1.
         24    1    1    2    0    0  0.62652851539E+02  0.81889730132E+02 -0.46130215592E+02  0.13865972902E+03  0.80419002446E+02 0. -1.
          1    1    1    2  501    0  0.64291884824E+01 -0.46810821966E+02 -0.66730821954E+02  0.81765457965E+02  0.00000000000E+00 0. -1.
         -2    1    1    2    0  502 -0.69082040021E+02 -0.35078908166E+02 -0.27797908596E+02  0.82313922115E+02  0.00000000000E+00 0.  1.
<mgrwt>
<rscale>  2 0.12774485E+03</rscale>
<asrwt>0</asrwt>
<pdfrwt beam="1">  1       21 0.12467705E-01 0.12774485E+03</pdfrwt>
<pdfrwt beam="2">  1       21 0.34107543E-01 0.12774485E+03</pdfrwt>
<totfact> 0.45804859E+05</totfact>
</mgrwt>
</event>
<event>
 5    1  0.1946229E+000  0.6140767E+02  0.7546771E-02  0.1392018E+00
         21   -1    0    0  503  502  0.00000000000E+00  0.00000000000E+00  0.64690759023E+01  0.64690759023E+01  0.00000000000E+00 0.  1.
         21   -1    0    0  501  503 -0.00000000000E+00 -0.00000000000E+00 -0.69024879355E+03  0.69024879355E+03  0.00000000000E+00 0. -1.
         24    1    1    2    0    0 -0.54749027162E+00  0.61469069895E+01 -0.30889964656E+03  0.31925584068E+03  0.80419002446E+02 0.  1.
          1    1    1    2  501    0  0.21079373460E+02 -0.16686620971E+01 -0.24298637558E+03  0.24390470093E+03  0.00000000000E+00 0. -1.
         -2    1    1    2    0  502 -0.20531883189E+02 -0.44782448924E+01 -0.13189369551E+03  0.13355732784E+03  0.00000000000E+00 0.  1.
<mgrwt>
<rscale>  2 0.61407673E+02</rscale>
<asrwt>0</asrwt>
<pdfrwt beam="1">  1       21 0.99524266E-03 0.61407673E+02</pdfrwt>
<pdfrwt beam="2">  1       21 0.10619210E+00 0.61407673E+02</pdfrwt>
<totfact> 0.26206698E+06</totfact>
</mgrwt>
</event>
<event>
 5    1  0.1946229E+000  0.1316226E+03  0.7546771E-02  0.1225068E+00
         21   -1    0    0  503  502  0.00000000000E+00  0.00000000000E+00  0.35037214895E+02  0.35037214895E+02  0.00000000000E+00 0.  1.
         21   -1    0    0  501  503 -0.00000000000E+00 -0.00000000000E+00 -0.75959936517E+03  0.75959936517E+03  0.00000000000E+00 0.  1.
         24    1    1    2    0    0 -0.10085801590E+03  0.60732108519E+02 -0.33125291734E+03  0.36063338666E+03  0.80419002446E+02 0.  1.
          1    1    1    2  501    0  0.11605882775E+02 -0.18714479529E+02 -0.29117789853E+03  0.29200941226E+03  0.00000000000E+00 0. -1.
         -2    1    1    2    0  502  0.89252133127E+02 -0.42017628990E+02 -0.10213133441E+03  0.14199378114E+03  0.00000000000E+00 0.  1.
<mgrwt>
<rscale>  2 0.13162258E+03</rscale>
<asrwt>0</asrwt>
<pdfrwt beam="1">  1       21 0.53903412E-02 0.13162258E+03</pdfrwt>
<pdfrwt beam="2">  1       21 0.11686143E+00 0.13162258E+03</pdfrwt>
<totfact> 0.13674125E+05</totfact>
</mgrwt>
</event>
<event>
 5    1  0.1946229E+000  0.8790812E+02  0.7546771E-02  0.1307998E+00
         21   -1    0    0  501  502  0.00000000000E+00  0.00000000000E+00  0.40760535158E+02  0.40760535158E+02  0.00000000000E+00 0.  1.
         21   -1    0    0  502  503 -0.00000000000E+00 -0.00000000000E+00 -0.21712231524E+03  0.21712231524E+03  0.00000000000E+00 0. -1.
         24    1    1    2    0    0  0.45593059219E+02  0.45339180421E+02 -0.59388276999E+02  0.11886358454E+03  0.80419002446E+02 0.  1.
          1    1    1    2  501    0 -0.44633722953E+02 -0.22484081112E+02 -0.63127838368E+02  0.80516005273E+02  0.00000000000E+00 0. -1.
         -2    1    1    2    0  503 -0.95933626661E+00 -0.22855099309E+02 -0.53845664711E+02  0.58503260581E+02  0.00000000000E+00 0.  1.
<mgrwt>
<rscale>  2 0.87908123E+02</rscale>
<asrwt>0</asrwt>
<pdfrwt beam="1">  1       21 0.62708517E-02 0.87908123E+02</pdfrwt>
<pdfrwt beam="2">  1       21 0.33403433E-01 0.87908123E+02</pdfrwt>
<totfact> 0.15581287E+06</totfact>
</mgrwt>
</event>
<event>
 5    1  0.1946229E+000  0.9360674E+02  0.7546771E-02  0.1294345E+00
         21   -1    0    0  503  502  0.00000000000E+00  0.00000000000E+00  0.86749189326E+03  0.86749189326E+03  0.00000000000E+00 0.  1.
         21   -1    0    0  501  503 -0.00000000000E+00 -0.00000000000E+00 -0.52825903303E+02  0.52825903303E+02  0.00000000000E+00 0. -1.
         24    1    1    2    0    0 -0.15241938433E+02 -0.72464443361E+02  0.29719900431E+02  0.11328680715E+03  0.80419002446E+02 0. -1.
          1    1    1    2  501    0 -0.37115977328E+01  0.40962569721E+02  0.29320059213E+02  0.50511126974E+02  0.00000000000E+00 0. -1.
         -2    1    1    2    0  502  0.18953536165E+02  0.31501873640E+02  0.75562603031E+03  0.75651986244E+03  0.00000000000E+00 0.  1.
<mgrwt>
<rscale>  2 0.93606741E+02</rscale>
<asrwt>0</asrwt>
<pdfrwt beam="1">  1       21 0.13346028E+00 0.93606741E+02</pdfrwt>
<pdfrwt beam="2">  1       21 0.81270627E-02 0.93606741E+02</pdfrwt>
<totfact> 0.50297113E+04</totfact>
</mgrwt>
</event>
<event>
 5    1  0.1946229E+000  0.6744939E+02  0.7546771E-02  0.1368988E+00
         21   -1    0    0  501  502  0.00000000000E+00  0.00000000000E+00  0.70891582955E+03  0.70891582955E+03  0.00000000000E+00 0.  1.
         21   -1    0    0  502  503 -0.00000000000E+00 -0.00000000000E+00 -0.93114297591E+01  0.93114297591E+01  0.00000000000E+00 0. -1.
         24    1    1    2    0    0  0.47767534634E+01 -0.19614319462E+02  0.52697785669E+03  0.53346079172E+03  0.80419002446E+02 0.  0.
          1    1    1    2  501    0 -0.19559594833E+02 -0.76243594028E+01  0.13205010078E+03  0.13370840558E+03  0.00000000000E+00 0. -1.
         -2    1    1    2    0  503  0.14782841370E+02  0.27238678864E+02  0.40576442317E+02  0.51058062011E+02  0.00000000000E+00 0.  1.
<mgrwt>
<rscale>  2 0.67449391E+02</rscale>
<asrwt>0</asrwt>
<pdfrwt beam="1">  1       21 0.10906393E+00 0.67449391E+02</pdfrwt>
<pdfrwt beam="2">  1       21 0.14325282E-02 0.67449391E+02</pdfrwt>
<totfact> 0.14011483E+06</totfact>
</mgrwt>
</event>
<event>
 5    1  0.1946229E+000  0.1174070E+03  0.7546771E-02  0.1247437E+00
         21   -1    0    0  503  502  0.00000000000E+00  0.00000000000E+00  0.17785679433E+04  0.17785679433E+04  0.00000000000E+00 0.  1.
         21   -1    0    0  501  503 -0.00000000000E+00 -0.00000000000E+00 -0.17233837958E+02  0.17233837958E+02  0.00000000000E+00 0.  1.
         24    1    1    2    0    0  0.60525144488E+02  0.56917968829E+02  0.36080112706E+03  0.37887678410E+03  0.80419002446E+02 0.  1.
          1    1    1    2  501    0 -0.24263043891E+02 -0.74883454031E+02  0.18927085498E+03  0.20498703259E+03  0.00000000000E+00 0. -1.
         -2    1    1    2    0  502 -0.36262100596E+02  0.17965485202E+02  0.12112621233E+04  0.12119379645E+04  0.00000000000E+00 0.  1.
<mgrwt>
<rscale>  2 0.11740702E+03</rscale>
<asrwt>0</asrwt>
<pdfrwt beam="1">  1       21 0.27362569E+00 0.11740702E+03</pdfrwt>
<pdfrwt beam="2">  1       21 0.26513611E-02 0.11740702E+03</pdfrwt>
<totfact> 0.40554878E+04</totfact>
</mgrwt>
</event>
<event>
 5    1  0.1946229E+000  0.7048339E+02  0.7546771E-02  0.1358457E+00
         21   -1    0    0  501  502  0.00000000000E+00  0.00000000000E+00  0.50657835940E+03  0.50657835940E+03  0.00000000000E+00 0.  1.
         21   -1    0    0  502  503 -0.00000000000E+00 -0.00000000000E+00 -0.13735487633E+02  0.13735487633E+02  0.00000000000E+00 0. -1.
         24    1    1    2    0    0 -0.85254650429E+01 -0.11959348300E+02  0.22144586946E+03  0.23605338088E+03  0.80419002446E+02 0. -1.
          1    1    1    2  501    0  0.83047282136E+01 -0.22899073030E+02  0.22454828739E+03  0.22586560036E+03  0.00000000000E+00 0. -1.
         -2    1    1    2    0  503  0.22073682933E+00  0.34858421330E+02  0.46848714913E+02  0.58394865796E+02  0.00000000000E+00 0.  1.
<mgrwt>
<rscale>  2 0.70483386E+02</rscale>
<asrwt>0</asrwt>
<pdfrwt beam="1">  1       21 0.77935118E-01 0.70483386E+02</pdfrwt>
<pdfrwt beam="2">  1       21 0.21131523E-02 0.70483386E+02</pdfrwt>
<totfact> 0.16181462E+06</totfact>
</mgrwt>
</event>
<event>
 5    1  0.1946229E+000  0.8509607E+02  0.7546771E-02  0.1315181E+00
         21   -1    0    0  501  502  0.00000000000E+00  0.00000000000E+00  0.22919925943E+03  0.22919925943E+03  0.00000000000E+00 0.  1.
         21   -1    0    0  502  503 -0.00000000000E+00 -0.00000000000E+00 -0.54224890675E+02  0.54224890675E+02  0.00000000000E+00 0. -1.
         24    1    1    2    0    0  0.16069930366E+02 -0.25992086844E+01  0.23401598984E+02  0.85322033128E+02  0.80419002446E+02 0.  0.
          1    1    1    2  501    0 -0.28629334377E+02  0.39715317586E+02  0.15118726471E+03  0.15891675257E+03  0.00000000000E+00 0. -1.
         -2    1    1    2    0  503  0.12559404011E+02 -0.37116108902E+02  0.38550505913E+00  0.39185364401E+02  0.00000000000E+00 0.  1.
<mgrwt>
<rscale>  2 0.85096074E+02</rscale>
<asrwt>0</asrwt>
<pdfrwt beam="1">  1       21 0.35261424E-01 0.85096074E+02</pdfrwt>
<pdfrwt beam="2">  1       21 0.83422910E-02 0.85096074E+02</pdfrwt>
<totfact> 0.86387928E+05</totfact>
</mgrwt>
</event>
<event>
 5    1  0.1946229E+000  0.6765783E+02  0.7546771E-02  0.1368244E+00
         21   -1    0    0  503  502  0.00000000000E+00  0.00000000000E+00  0.96924447780E+01  0.96924447780E+01  0.00000000000E+00 0.  1.
         21   -1    0    0  501  503 -0.00000000000E+00 -0.00000000000E+00 -0.66157099475E+03  0.66157099475E+03  0.00000000000E+00 0.  1.
         24    1    1    2    0    0  0.39117200825E+02  0.10214960369E+02 -0.46398821117E+03  0.47263810349E+03  0.80419002446E+02 0.  1.
          1    1    1    2  501    0 -0.21616834799E+02  0.49191494337E+01 -0.16354075294E+03  0.16503655186E+03  0.00000000000E+00 0. -1.
         -2    1    1    2    0  502 -0.17500366027E+02 -0.15134109803E+02 -0.24349585865E+02  0.33588784176E+02  0.00000000000E+00 0.  1.
<mgrwt>
<rscale>  2 0.67657825E+02</rscale>
<asrwt>0</asrwt>
<pdfrwt beam="1">  1       21 0.14911452E-02 0.67657825E+02</pdfrwt>
<pdfrwt beam="2">  1       21 0.10178017E+00 0.67657825E+02</pdfrwt>
<totfact> 0.15442451E+06</totfact>
</mgrwt>
</event>
<event>
 5    1  0.1946229E+000  0.8034443E+02  0.7546771E-02  0.1328077E+00
         21   -1    0    0  501  502  0.00000000000E+00  0.00000000000E+00  0.75123599783E+03  0.75123599783E+03  0.00000000000E+00 0. -1.
         21   -1    0    0  502  503 -0.00000000000E+00 -0.00000000000E+00 -0.33994556932E+02  0.33994556932E+02  0.00000000000E+00 0.  1.
         24    1    1    2    0    0  0.53226272742E+02  0.99909961709E+01  0.47163516053E+03  0.48149745245E+03  0.80419002446E+02 0.  0.
          1    1    1    2  501    0 -0.35859801456E+02  0.10025428642E+02  0.26705642207E+03  0.26963969876E+03  0.00000000000E+00 0. -1.
         -2    1    1    2    0  503 -0.17366471287E+02 -0.20016424813E+02 -0.21450141696E+02  0.34093403555E+02  0.00000000000E+00 0.  1.
<mgrwt>
<rscale>  2 0.80344428E+02</rscale>
<asrwt>0</asrwt>
<pdfrwt beam="1">  1       21 0.11557476E+00 0.80344428E+02</pdfrwt>
<pdfrwt beam="2">  1       21 0.52299324E-02 0.80344428E+02</pdfrwt>
<totfact> 0.15130609E+05</totfact>
</mgrwt>
</event>
<event>
 5    1  0.1946229E+000  0.7228551E+02  0.7546771E-02  0.1352489E+00
         21   -1    0    0  501  502  0.00000000000E+00  0.00000000000E+00  0.33676650100E+03  0.33676650100E+03  0.00000000000E+00 0. -1.
         21   -1    0    0  502  503 -0.00000000000E+00 -0.00000000000E+00 -0.23474851710E+02  0.23474851710E+02  0.00000000000E+00 0. -1.
         24    1    1    2    0    0 -0.61605601334E+01  0.33363590759E+02  0.17521975854E+03  0.19575561659E+03  0.80419002446E+02 0.  0.
          1    1    1    2  501    0 -0.13899550206E+02 -0.34501176752E+02  0.13947005037E+03  0.14434480816E+03  0.00000000000E+00 0. -1.
         -2    1    1    2    0  503  0.20060110339E+02  0.11375859927E+01 -0.13981596188E+01  0.20140927958E+02  0.00000000000E+00 0.  1.
<mgrwt>
<rscale>  2 0.72285508E+02</rscale>
<asrwt>0</asrwt>
<pdfrwt beam="1">  1       21 0.51810227E-01 0.72285508E+02</pdfrwt>
<pdfrwt beam="2">  1       21 0.36115159E-02 0.72285508E+02</pdfrwt>
<totfact> 0.16152659E+06</totfact>
</mgrwt>
</event>
<event>
 5    1  0.1946229E+000  0.8374230E+02  0.7546771E-02  0.1318755E+00
         21   -1    0    0  503  502  0.00000000000E+00  0.00000000000E+00  0.38804803824E+02  0.38804803824E+02  0.00000000000E+00 0.  1.
         21   -1    0    0  501  503 -0.00000000000E+00 -0.00000000000E+00 -0.26366396630E+03  0.26366396630E+03  0.00000000000E+00 0.  1.
         24    1    1    2    0    0 -0.49338013465E+01  0.46881695001E+02 -0.12530047856E+03  0.15617189761E+03  0.80419002446E+02 0.  0.
          1    1    1    2  501    0  0.25550701925E+02 -0.47173234137E+02 -0.11058753297E+03  0.12291360721E+03  0.00000000000E+00 0. -1.
         -2    1    1    2    0  502 -0.20616900579E+02  0.29153913630E+00  0.11028849061E+02  0.23383265301E+02  0.00000000000E+00 0.  1.
<mgrwt>
<rscale>  2 0.83742302E+02</rscale>
<asrwt>0</asrwt>
<pdfrwt beam="1">  1       21 0.59699698E-02 0.83742302E+02</pdfrwt>
<pdfrwt beam="2">  1       21 0.40563688E-01 0.83742302E+02</pdfrwt>
<totfact> 0.11561622E+06</totfact>
</mgrwt>
</event>
<event>
 5    1  0.1946229E+000  0.1088911E+03  0.7546771E-02  0.1262637E+00
         21   -1    0    0  503  502  0.00000000000E+00  0.00000000000E+00  0.43494823552E+02  0.43494823552E+02  0.00000000000E+00 0.  1.
         21   -1    0    0  501  503 -0.00000000000E+00 -0.00000000000E+00 -0.33407318826E+03  0.33407318826E+03  0.00000000000E+00 0. -1.
         24    1    1    2    0    0 -0.35173383079E+02 -0.11592540569E+02 -0.75100755402E+02  0.11609863604E+03  0.80419002446E+02 0.  0.
          1    1    1    2  501    0 -0.13673298462E+02  0.59366128100E+02 -0.16680220640E+03  0.17757891856E+03  0.00000000000E+00 0. -1.
         -2    1    1    2    0  502  0.48846681542E+02 -0.47773587531E+02 -0.48675402904E+02  0.83890457211E+02  0.00000000000E+00 0.  1.
<mgrwt>
<rscale>  2 0.10889115E+03</rscale>
<asrwt>0</asrwt>
<pdfrwt beam="1">  1       21 0.66915111E-02 0.10889115E+03</pdfrwt>
<pdfrwt beam="2">  1       21 0.51395877E-01 0.10889115E+03</pdfrwt>
<totfact> 0.59297917E+05</totfact>
</mgrwt>
</event>
<event>
 5    1  0.1946229E+000  0.8699798E+02  0.7546771E-02  0.1310289E+00
         21   -1    0    0  503  502  0.00000000000E+00  0.00000000000E+00  0.31233537564E+03  0.31233537564E+03  0.00000000000E+00 0.  1.
         21   -1    0    0  501  503 -0.00000000000E+00 -0.00000000000E+00 -0.46446242683E+02  0.46446242683E+02  0.00000000000E+00 0.  1.
         24    1    1    2    0    0 -0.24269609240E+02 -0.41862023251E+02  0.61505826503E+02  0.11221241273E+03  0.80419002446E+02 0.  1.
          1    1    1    2  501    0 -0.21759121338E+02  0.18305855970E+02 -0.67260813682E+01  0.29219922908E+02  0.00000000000E+00 0. -1.
         -2    1    1    2    0  502  0.46028730577E+02  0.23556167280E+02  0.21110938782E+03  0.21734928268E+03  0.00000000000E+00 0.  1.
<mgrwt>
<rscale>  2 0.86997984E+02</rscale>
<asrwt>0</asrwt>
<pdfrwt beam="1">  1       21 0.48051595E-01 0.86997984E+02</pdfrwt>
<pdfrwt beam="2">  1       21 0.71455760E-02 0.86997984E+02</pdfrwt>
<totfact> 0.60860512E+05</totfact>
</mgrwt>
</event>
<event>
 5    1  0.1946229E+000  0.8670998E+02  0.7546771E-02  0.1311020E+00
         21   -1    0    0  501  502  0.00000000000E+00  0.00000000000E+00  0.54342745098E+01  0.54342745098E+01  0.00000000000E+00 0.  1.
         21   -1    0    0  502  503 -0.00000000000E+00 -0.00000000000E+00 -0.19084829002E+04  0.19084829002E+04  0.00000000000E+00 0. -1.
         24    1    1    2    0    0 -0.21052922628E+02 -0.51402296008E+02 -0.90896151295E+03  0.91420111002E+03  0.80419002446E+02 0.  0.
          1    1    1    2  501    0  0.23837205215E+02 -0.36523766774E+00 -0.65854300089E+02  0.70036666049E+02  0.00000000000E+00 0. -1.
         -2    1    1    2    0  503 -0.27842825864E+01  0.51767533676E+02 -0.92823281269E+03  0.92967939868E+03  0.00000000000E+00 0.  1.
<mgrwt>
<rscale>  2 0.86709977E+02</rscale>
<asrwt>0</asrwt>
<pdfrwt beam="1">  1       21 0.83604262E-03 0.86709977E+02</pdfrwt>
<pdfrwt beam="2">  1       21 0.29361262E+00 0.86709977E+02</pdfrwt>
<totfact> 0.20484274E+05</totfact>
</mgrwt>
</event>
<event>
 5    1  0.1946229E+000  0.7881194E+02  0.7546771E-02  0.1332457E+00
         21   -1    0    0  503  502  0.00000000000E+00  0.00000000000E+00  0.11779519451E+04  0.11779519451E+04  0.00000000000E+00 0.  1.
         21   -1    0    0  501  503 -0.00000000000E+00 -0.00000000000E+00 -0.14684762069E+02  0.14684762069E+02  0.00000000000E+00 0. -1.
         24    1    1    2    0    0 -0.55834166600E+02 -0.15858703143E+02  0.60696216385E+03  0.61501157463E+03  0.80419002446E+02 0.  1.
          1    1    1    2  501    0  0.18878009574E+02  0.87737528842E+01  0.78491245841E+00  0.20832044372E+02  0.00000000000E+00 0. -1.
         -2    1    1    2    0  502  0.36956157027E+02  0.70849502590E+01  0.55552010673E+03  0.55679308818E+03  0.00000000000E+00 0.  1.
<mgrwt>
<rscale>  2 0.78811939E+02</rscale>
<asrwt>0</asrwt>
<pdfrwt beam="1">  1       21 0.18122330E+00 0.78811939E+02</pdfrwt>
<pdfrwt beam="2">  1       21 0.22591951E-02 0.78811939E+02</pdfrwt>
<totfact> 0.19156795E+05</totfact>
</mgrwt>
</event>
<event>
 5    1  0.1946229E+000  0.9080269E+02  0.7546771E-02  0.1300919E+00
         21   -1    0    0  501  502  0.00000000000E+00  0.00000000000E+00  0.44289265465E+02  0.44289265465E+02  0.00000000000E+00 0. -1.
         21   -1    0    0  502  503 -0.00000000000E+00 -0.00000000000E+00 -0.39297499755E+03  0.39297499755E+03  0.00000000000E+00 0. -1.
         24    1    1    2    0    0 -0.55268506584E+02 -0.47243613831E+02 -0.28405008806E+03  0.30403656910E+03  0.80419002446E+02 0. -1.
          1    1    1    2  501    0  0.22526074534E+02  0.13957653646E+02  0.22242941677E+02  0.34597522797E+02  0.00000000000E+00 0. -1.
         -2    1    1    2    0  503  0.32742432049E+02  0.33285960184E+02 -0.86878585706E+02  0.98630171125E+02  0.00000000000E+00 0.  1.
<mgrwt>
<rscale>  2 0.90802692E+02</rscale>
<asrwt>0</asrwt>
<pdfrwt beam="1">  1       21 0.68137333E-02 0.90802692E+02</pdfrwt>
<pdfrwt beam="2">  1       21 0.60457691E-01 0.90802692E+02</pdfrwt>
<totfact> 0.41052633E+05</totfact>
</mgrwt>
</event>
<event>
 5    1  0.1946229E+000  0.1472066E+03  0.7546771E-02  0.1203948E+00
         21   -1    0    0  501  502  0.00000000000E+00  0.00000000000E+00  0.11268017371E+04  0.11268017371E+04  0.00000000000E+00 0.  1.
         21   -1    0    0  502  503 -0.00000000000E+00 -0.00000000000E+00 -0.22594018280E+02  0.22594018280E+02  0.00000000000E+00 0.  1.
         24    1    1    2    0    0  0.78369718451E+02  0.97258178800E+02  0.39391312970E+03  0.42099374796E+03  0.80419002446E+02 0.  1.
          1    1    1    2  501    0 -0.26153924773E+02  0.88408170422E+01  0.30393305417E+03  0.30518435288E+03  0.00000000000E+00 0. -1.
         -2    1    1    2    0  503 -0.52215793677E+02 -0.10609899584E+03  0.40636153493E+03  0.42321765453E+03  0.00000000000E+00 0.  1.
<mgrwt>
<rscale>  2 0.14720659E+03</rscale>
<asrwt>0</asrwt>
<pdfrwt beam="1">  1       21 0.17335407E+00 0.14720659E+03</pdfrwt>
<pdfrwt beam="2">  1       21 0.34760037E-02 0.14720659E+03</pdfrwt>
<totfact> 0.10264378E+05</totfact>
</mgrwt>
</event>
<event>
 5    1  0.1946229E+000  0.8202461E+02  0.7546771E-02  0.1323402E+00
         21   -1    0    0  501  502  0.00000000000E+00  0.00000000000E+00  0.67936108186E+03  0.67936108186E+03  0.00000000000E+00 0.  1.
         21   -1    0    0  502  503 -0.00000000000E+00 -0.00000000000E+00 -0.16496585092E+02  0.16496585092E+02  0.00000000000E+00 0.  1.
         24    1    1    2    0    0  0.31613037230E+02 -0.50739680053E+02  0.36727528788E+03  0.38069968781E+03  0.80419002446E+02 0.  1.
          1    1    1    2  501    0 -0.30816119714E+01  0.25696657294E+02  0.26538827801E+03  0.26664724382E+03  0.00000000000E+00 0. -1.
         -2    1    1    2    0  503 -0.28531425258E+02  0.25043022758E+02  0.30200930868E+02  0.48510735322E+02  0.00000000000E+00 0.  1.
<mgrwt>
<rscale>  2 0.82024609E+02</rscale>
<asrwt>0</asrwt>
<pdfrwt beam="1">  1       21 0.10451707E+00 0.82024609E+02</pdfrwt>
<pdfrwt beam="2">  1       21 0.25379367E-02 0.82024609E+02</pdfrwt>
<totfact> 0.62484560E+05</totfact>
</mgrwt>
</event>
<event>
 5    1  0.1946229E+000  0.1017308E+03  0.7546771E-02  0.1276698E+00
         21   -1    0    0  501  502  0.00000000000E+00  0.00000000000E+00  0.96701301473E+02  0.96701301473E+02  0.00000000000E+00 0.  1.
         21   -1    0    0  502  503 -0.00000000000E+00 -0.00000000000E+00 -0.10979900427E+03  0.10979900427E+03  0.00000000000E+00 0.  1.
         24    1    1    2    0    0 -0.37058303655E+02  0.44937821754E+02  0.61460099423E+01  0.99487260925E+02  0.80419002446E+02 0.  1.
          1    1    1    2  501    0 -0.28383619853E+02 -0.16295570941E+02  0.10673175118E+01  0.32746216192E+02  0.00000000000E+00 0. -1.
         -2    1    1    2    0  503  0.65441923508E+02 -0.28642250814E+02 -0.20311030248E+02  0.74266828623E+02  0.00000000000E+00 0.  1.
<mgrwt>
<rscale>  2 0.10173075E+03</rscale>
<asrwt>0</asrwt>
<pdfrwt beam="1">  1       21 0.14877123E-01 0.10173075E+03</pdfrwt>
<pdfrwt beam="2">  1       21 0.16892155E-01 0.10173075E+03</pdfrwt>
<totfact> 0.12496825E+06</totfact>
</mgrwt>
</event>
<event>
 5    1  0.1946229E+000  0.7511029E+02  0.7546771E-02  0.1343530E+00
         21   -1    0    0  501  502  0.00000000000E+00  0.00000000000E+00  0.24358623913E+02  0.24358623913E+02  0.00000000000E+00 0.  1.
         21   -1    0    0  502  503 -0.00000000000E+00 -0.00000000000E+00 -0.26152137095E+03  0.26152137095E+03  0.00000000000E+00 0. -1.
         24    1    1    2    0    0 -0.60338862672E+01 -0.20322580707E+01 -0.16382310549E+03  0.18260822463E+03  0.80419002446E+02 0. -1.
          1    1    1    2  501    0 -0.31511122636E+02  0.49248541047E+01 -0.18885655491E+02  0.37065793139E+02  0.00000000000E+00 0. -1.
         -2    1    1    2    0  503  0.37545008903E+02 -0.28925960341E+01 -0.54453986054E+02  0.66205977091E+02  0.00000000000E+00 0.  1.
<mgrwt>
<rscale>  2 0.75110287E+02</rscale>
<asrwt>0</asrwt>
<pdfrwt beam="1">  1       21 0.37474806E-02 0.75110287E+02</pdfrwt>
<pdfrwt beam="2">  1       21 0.40234058E-01 0.75110287E+02</pdfrwt>
<totfact> 0.25283697E+06</totfact>
</mgrwt>
</event>
<event>
 5    1  0.1946229E+000  0.1543795E+03  0.7546771E-02  0.1195192E+00
         21   -1    0    0  501  502  0.00000000000E+00  0.00000000000E+00  0.71858894861E+03  0.71858894861E+03  0.00000000000E+00 0. -1.
         21   -1    0    0  502  503 -0.00000000000E+00 -0.00000000000E+00 -0.37714180929E+02  0.37714180929E+02  0.00000000000E+00 0.  1.
         24    1    1    2    0    0  0.29714424173E+02  0.69722806583E+02  0.13608280596E+03  0.17529963718E+03  0.80419002446E+02 0.  1.
          1    1    1    2  501    0  0.11950389132E+02  0.60427048916E+02  0.22404115565E+03  0.23235464158E+03  0.00000000000E+00 0. -1.
         -2    1    1    2    0  503 -0.41664813306E+02 -0.13014985550E+03  0.32075080607E+03  0.34864885078E+03  0.00000000000E+00 0.  1.
<mgrwt>
<rscale>  2 0.15437952E+03</rscale>
<asrwt>0</asrwt>
<pdfrwt beam="1">  1       21 0.11055214E+00 0.15437952E+03</pdfrwt>
<pdfrwt beam="2">  1       21 0.58021822E-02 0.15437952E+03</pdfrwt>
<totfact> 0.13677884E+05</totfact>
</mgrwt>
</event>
<event>
 5    1  0.1946229E+000  0.7773565E+02  0.7546771E-02  0.1335603E+00
         21   -1    0    0  501  502  0.00000000000E+00  0.00000000000E+00  0.36113407419E+03  0.36113407419E+03  0.00000000000E+00 0.  1.
         21   -1    0    0  502  503 -0.00000000000E+00 -0.00000000000E+00 -0.40689956328E+02  0.40689956328E+02  0.00000000000E+00 0.  1.
         24    1    1    2    0    0  0.56578899531E+02  0.59839439355E+01  0.26764525743E+03  0.28519849094E+03  0.80419002446E+02 0.  1.
          1    1    1    2  501    0 -0.21712931165E+02 -0.94764150449E+00  0.72896903605E+02  0.76067785293E+02  0.00000000000E+00 0. -1.
         -2    1    1    2    0  503 -0.34865968366E+02 -0.50363024310E+01 -0.20098043180E+02  0.40557754276E+02  0.00000000000E+00 0.  1.
<mgrwt>
<rscale>  2 0.77735653E+02</rscale>
<asrwt>0</asrwt>
<pdfrwt beam="1">  1       21 0.55559086E-01 0.77735653E+02</pdfrwt>
<pdfrwt beam="2">  1       21 0.62599935E-02 0.77735653E+02</pdfrwt>
<totfact> 0.56495215E+05</totfact>
</mgrwt>
</event>
<event>
 5    1  0.1946229E+000  0.9597189E+02  0.7546771E-02  0.1289002E+00
         21   -1    0    0  501  502  0.00000000000E+00  0.00000000000E+00  0.10471940841E+03  0.10471940841E+03  0.00000000000E+00 0. -1.
         21   -1    0    0  502  503 -0.00000000000E+00 -0.00000000000E+00 -0.19427231898E+03  0.19427231898E+03  0.00000000000E+00 0.  1.
         24    1    1    2    0    0 -0.37543860548E+02 -0.68648119836E+02  0.35704671940E+01  0.11225894179E+03  0.80419002446E+02 0. -1.
          1    1    1    2  501    0  0.10603898717E+02  0.35372666653E+02  0.35467612623E+02  0.51201755432E+02  0.00000000000E+00 0. -1.
         -2    1    1    2    0  503  0.26939961832E+02  0.33275453183E+02 -0.12859099039E+03  0.13553103017E+03  0.00000000000E+00 0.  1.
<mgrwt>
<rscale>  2 0.95971889E+02</rscale>
<asrwt>0</asrwt>
<pdfrwt beam="1">  1       21 0.16110678E-01 0.95971889E+02</pdfrwt>
<pdfrwt beam="2">  1       21 0.29888049E-01 0.95971889E+02</pdfrwt>
<totfact> 0.37522301E+05</totfact>
</mgrwt>
</event>
<event>
 5    1  0.1946229E+000  0.9462216E+02  0.7546771E-02  0.1292029E+00
         21   -1    0    0  503  502  0.00000000000E+00  0.00000000000E+00  0.39423733736E+02  0.39423733736E+02  0.00000000000E+00 0.  1.
         21   -1    0    0  501  503 -0.00000000000E+00 -0.00000000000E+00 -0.30106549600E+03  0.30106549600E+03  0.00000000000E+00 0.  1.
         24    1    1    2    0    0 -0.71006112513E+02  0.29522333158E+02 -0.21259950626E+03  0.23995666730E+03  0.80419002446E+02 0.  1.
          1    1    1    2  501    0  0.49372964986E+02 -0.13901996266E+02 -0.52769270040E+02  0.73590427585E+02  0.00000000000E+00 0. -1.
         -2    1    1    2    0  502  0.21633147527E+02 -0.15620336893E+02  0.37270140294E+01  0.26942134848E+02  0.00000000000E+00 0.  1.
<mgrwt>
<rscale>  2 0.94622160E+02</rscale>
<asrwt>0</asrwt>
<pdfrwt beam="1">  1       21 0.60651897E-02 0.94622160E+02</pdfrwt>
<pdfrwt beam="2">  1       21 0.46317769E-01 0.94622160E+02</pdfrwt>
<totfact> 0.86537738E+05</totfact>
</mgrwt>
</event>
<event>
 5    1  0.1946229E+000  0.1425874E+03  0.7546771E-02  0.1209889E+00
         21   -1    0    0  501  502  0.00000000000E+00  0.00000000000E+00  0.13031610682E+04  0.13031610682E+04  0.00000000000E+00 0. -1.
         21   -1    0    0  502  503 -0.00000000000E+00 -0.00000000000E+00 -0.18143362731E+02  0.18143362731E+02  0.00000000000E+00 0.  1.
         24    1    1    2    0    0 -0.47794477621E+02  0.31955067607E+02  0.32853214324E+03  0.34308311461E+03  0.80419002446E+02 0.  1.
          1    1    1    2  501    0 -0.47452235205E+02 -0.69318909670E+02  0.64294668723E+03  0.64841134204E+03  0.00000000000E+00 0. -1.
         -2    1    1    2    0  503  0.95246712826E+02  0.37363842064E+02  0.31353887497E+03  0.32980997425E+03  0.00000000000E+00 0.  1.
<mgrwt>
<rscale>  2 0.14258743E+03</rscale>
<asrwt>0</asrwt>
<pdfrwt beam="1">  1       21 0.20048625E+00 0.14258743E+03</pdfrwt>
<pdfrwt beam="2">  1       21 0.27912876E-02 0.14258743E+03</pdfrwt>
<totfact> 0.97964852E+04</totfact>
</mgrwt>
</event>
<event>
 5    1  0.1946229E+000  0.8234200E+02  0.7546771E-02  0.1322534E+00
         21   -1    0    0  501  502  0.00000000000E+00  0.00000000000E+00  0.13583861141E+03  0.13583861141E+03  0.00000000000E+00 0.  1.
         21   -1    0    0  502  503 -0.00000000000E+00 -0.00000000000E+00 -0.50386933054E+02  0.50386933054E+02  0.00000000000E+00 0.  1.
         24    1    1    2    0    0  0.17353224950E+02 -0.52518401984E+02  0.58455335644E+02  0.11376976392E+03  0.80419002446E+02 0.  1.
          1    1    1    2  501    0  0.11235105094E+02  0.24958074845E+02  0.13471572177E+02  0.30506005037E+02  0.00000000000E+00 0. -1.
         -2    1    1    2    0  503 -0.28588330043E+02  0.27560327139E+02  0.13524770531E+02  0.41949775501E+02  0.00000000000E+00 0.  1.
<mgrwt>
<rscale>  2 0.82342003E+02</rscale>
<asrwt>0</asrwt>
<pdfrwt beam="1">  1       21 0.20898248E-01 0.82342003E+02</pdfrwt>
<pdfrwt beam="2">  1       21 0.77518359E-02 0.82342003E+02</pdfrwt>
<totfact> 0.26220698E+06</totfact>
</mgrwt>
</event>
<event>
 5    1  0.1946229E+000  0.8315409E+02  0.7546771E-02  0.1320332E+00
         21   -1    0    0  501  502  0.00000000000E+00  0.00000000000E+00  0.66142763374E+02  0.66142763374E+02  0.00000000000E+00 0.  1.
         21   -1    0    0  502  503 -0.00000000000E+00 -0.00000000000E+00 -0.33392639347E+03  0.33392639347E+03  0.00000000000E+00 0.  1.
         24    1    1    2    0    0  0.42714914869E+02  0.45979121001E+02  0.16107755832E+02  0.10327303265E+03  0.80419002446E+02 0.  1.
          1    1    1    2  501    0 -0.26817960663E+02 -0.18591054516E+02 -0.43768305464E+02  0.54593908867E+02  0.00000000000E+00 0. -1.
         -2    1    1    2    0  503 -0.15896954206E+02 -0.27388066485E+02 -0.24012308046E+03  0.24220221533E+03  0.00000000000E+00 0.  1.
<mgrwt>
<rscale>  2 0.83154088E+02</rscale>
<asrwt>0</asrwt>
<pdfrwt beam="1">  1       21 0.10175810E-01 0.83154088E+02</pdfrwt>
<pdfrwt beam="2">  1       21 0.51373290E-01 0.83154088E+02</pdfrwt>
<totfact> 0.29002183E+05</totfact>
</mgrwt>
</event>
<event>
 5    1  0.1946229E+000  0.8705823E+02  0.7546771E-02  0.1310136E+00
         21   -1    0    0  503  502  0.00000000000E+00  0.00000000000E+00  0.97741549946E+01  0.97741549946E+01  0.00000000000E+00 0.  1.
         21   -1    0    0  501  503 -0.00000000000E+00 -0.00000000000E+00 -0.12691959954E+04  0.12691959954E+04  0.00000000000E+00 0.  1.
         24    1    1    2    0    0  0.23994382331E+02  0.22932051156E+02 -0.99849318381E+03  0.10022761413E+04  0.80419002446E+02 0.  1.
          1    1    1    2  501    0 -0.19919789321E+02  0.28914030211E+02 -0.15178856531E+03  0.15579662291E+03  0.00000000000E+00 0. -1.
         -2    1    1    2    0  502 -0.40745930096E+01 -0.51846081367E+02 -0.10914009129E+03  0.12089738619E+03  0.00000000000E+00 0.  1.
<mgrwt>
<rscale>  2 0.87058233E+02</rscale>
<asrwt>0</asrwt>
<pdfrwt beam="1">  1       21 0.15037160E-02 0.87058233E+02</pdfrwt>
<pdfrwt beam="2">  1       21 0.19526094E+00 0.87058233E+02</pdfrwt>
<totfact> 0.29659669E+05</totfact>
</mgrwt>
</event>
<event>
 5    1  0.1946229E+000  0.1467894E+03  0.7546771E-02  0.1204475E+00
         21   -1    0    0  503  502  0.00000000000E+00  0.00000000000E+00  0.78599115635E+02  0.78599115635E+02  0.00000000000E+00 0. -1.
         21   -1    0    0  501  503 -0.00000000000E+00 -0.00000000000E+00 -0.54708995927E+03  0.54708995927E+03  0.00000000000E+00 0.  1.
         24    1    1    2    0    0  0.89089546881E+02 -0.44812484695E+02 -0.37888853028E+03  0.39996104870E+03  0.80419002446E+02 0.  1.
          1    1    1    2  501    0 -0.10312653631E+03  0.78086512323E+02 -0.12155684288E+03  0.17750676592E+03  0.00000000000E+00 0. -1.
         -2    1    1    2    0  502  0.14036989426E+02 -0.33274027628E+02  0.31954529518E+02  0.48221260284E+02  0.00000000000E+00 0.  1.
<mgrwt>
<rscale>  2 0.14678938E+03</rscale>
<asrwt>0</asrwt>
<pdfrwt beam="1">  1       21 0.12092172E-01 0.14678938E+03</pdfrwt>
<pdfrwt beam="2">  1       21 0.84167683E-01 0.14678938E+03</pdfrwt>
<totfact> 0.72424914E+04</totfact>
</mgrwt>
</event>
<event>
 5    1  0.1946229E+000  0.7029252E+02  0.7546771E-02  0.1359101E+00
         21   -1    0    0  501  502  0.00000000000E+00  0.00000000000E+00  0.55020293822E+02  0.55020293822E+02  0.00000000000E+00 0. -1.
         21   -1    0    0  502  503 -0.00000000000E+00 -0.00000000000E+00 -0.32587279868E+03  0.32587279868E+03  0.00000000000E+00 0. -1.
         24    1    1    2    0    0  0.79397644392E+01 -0.21488878613E+02 -0.27258292778E+03  0.28512011545E+03  0.80419002446E+02 0. -1.
          1    1    1    2  501    0  0.20759721809E+02  0.19029866892E+02  0.39351792415E+02  0.48390757897E+02  0.00000000000E+00 0. -1.
         -2    1    1    2    0  503 -0.28699486249E+02  0.24590117208E+01 -0.37621369500E+02  0.47382219161E+02  0.00000000000E+00 0.  1.
<mgrwt>
<rscale>  2 0.70292525E+02</rscale>
<asrwt>0</asrwt>
<pdfrwt beam="1">  1       21 0.84646607E-02 0.70292525E+02</pdfrwt>
<pdfrwt beam="2">  1       21 0.50134276E-01 0.70292525E+02</pdfrwt>
<totfact> 0.41861642E+05</totfact>
</mgrwt>
</event>
<event>
 5    1  0.1946229E+000  0.1299809E+03  0.7546771E-02  0.1227484E+00
         21   -1    0    0  503  502  0.00000000000E+00  0.00000000000E+00  0.67546307938E+02  0.67546307938E+02  0.00000000000E+00 0.  1.
         21   -1    0    0  501  503 -0.00000000000E+00 -0.00000000000E+00 -0.29192000037E+03  0.29192000037E+03  0.00000000000E+00 0.  1.
         24    1    1    2    0    0 -0.65618792499E+02  0.80890173438E+02 -0.16419818168E+03  0.21042173108E+03  0.80419002446E+02 0.  1.
          1    1    1    2  501    0  0.39136384835E+02  0.40994516890E+01 -0.43172908833E+02  0.58415427579E+02  0.00000000000E+00 0. -1.
         -2    1    1    2    0  502  0.26482407664E+02 -0.84989625127E+02 -0.17002601921E+02  0.90629149654E+02  0.00000000000E+00 0.  1.
<mgrwt>
<rscale>  2 0.12998087E+03</rscale>
<asrwt>0</asrwt>
<pdfrwt beam="1">  1       21 0.10391740E-01 0.12998087E+03</pdfrwt>
<pdfrwt beam="2">  1       21 0.44910769E-01 0.12998087E+03</pdfrwt>
<totfact> 0.36489950E+05</totfact>
</mgrwt>
</event>
<event>
 5    1  0.1946229E+000  0.3636228E+03  0.7546771E-02  0.1057159E+00
         21   -1    0    0  503  502  0.00000000000E+00  0.00000000000E+00  0.35638973070E+03  0.35638973070E+03  0.00000000000E+00 0.  1.
         21   -1    0    0  501  503 -0.00000000000E+00 -0.00000000000E+00 -0.72045315341E+03  0.72045315341E+03  0.00000000000E+00 0. -1.
         24    1    1    2    0    0  0.18355304834E+03  0.13738535435E+03 -0.13069100647E+03  0.27588731807E+03  0.80419002446E+02 0.  1.
          1    1    1    2  501    0  0.13867015182E+03 -0.14537153165E+02 -0.39589459962E+03  0.41973000112E+03  0.00000000000E+00 0. -1.
         -2    1    1    2    0  502 -0.32222320016E+03 -0.12284820119E+03  0.16252218338E+03  0.38122556492E+03  0.00000000000E+00 0.  1.
<mgrwt>
<rscale>  2 0.36362277E+03</rscale>
<asrwt>0</asrwt>
<pdfrwt beam="1">  1       21 0.54829189E-01 0.36362277E+03</pdfrwt>
<pdfrwt beam="2">  1       21 0.11083895E+00 0.36362277E+03</pdfrwt>
<totfact> 0.17954102E+03</totfact>
</mgrwt>
</event>
<event>
 5    1  0.1946229E+000  0.1684756E+03  0.7546771E-02  0.1179447E+00
         21   -1    0    0  501  502  0.00000000000E+00  0.00000000000E+00  0.11041100853E+03  0.11041100853E+03  0.00000000000E+00 0. -1.
         21   -1    0    0  502  503 -0.00000000000E+00 -0.00000000000E+00 -0.28229098843E+03  0.28229098843E+03  0.00000000000E+00 0. -1.
         24    1    1    2    0    0 -0.11782306048E+03 -0.69909860018E+02 -0.13846975017E+03  0.21073858160E+03  0.80419002446E+02 0. -1.
          1    1    1    2  501    0  0.12197317138E+03  0.14849776116E+02 -0.15140314225E+02  0.12380306742E+03  0.00000000000E+00 0. -1.
         -2    1    1    2    0  503 -0.41501109020E+01  0.55060083902E+02 -0.18269915509E+02  0.58160347940E+02  0.00000000000E+00 0.  1.
<mgrwt>
<rscale>  2 0.16847563E+03</rscale>
<asrwt>0</asrwt>
<pdfrwt beam="1">  1       21 0.16986309E-01 0.16847563E+03</pdfrwt>
<pdfrwt beam="2">  1       21 0.43429383E-01 0.16847563E+03</pdfrwt>
<totfact> 0.16047270E+05</totfact>
</mgrwt>
</event>
<event>
 5    1  0.1946229E+000  0.6978324E+02  0.7546771E-02  0.1360832E+00
         21   -1    0    0  503  502  0.00000000000E+00  0.00000000000E+00  0.13338002840E+04  0.13338002840E+04  0.00000000000E+00 0. -1.
         21   -1    0    0  501  503 -0.00000000000E+00 -0.00000000000E+00 -0.52487543797E+01  0.52487543797E+01  0.00000000000E+00 0.  1.
         24    1    1    2    0    0 -0.11188138161E+02  0.14809284934E+02  0.45995054278E+03  0.46729670137E+03  0.80419002446E+02 0.  1.
          1    1    1    2  501    0  0.85997920544E+01  0.20186523204E+02  0.10129018131E+03  0.10363953383E+03  0.00000000000E+00 0. -1.
         -2    1    1    2    0  502  0.25883461068E+01 -0.34995808138E+02  0.76731080551E+03  0.76811280316E+03  0.00000000000E+00 0.  1.
<mgrwt>
<rscale>  2 0.69783235E+02</rscale>
<asrwt>0</asrwt>
<pdfrwt beam="1">  1       21 0.20519977E+00 0.69783235E+02</pdfrwt>
<pdfrwt beam="2">  1       21 0.80750173E-03 0.69783235E+02</pdfrwt>
<totfact> 0.68800745E+05</totfact>
</mgrwt>
</event>
<event>
 5    1  0.1946229E+000  0.8672533E+02  0.7546771E-02  0.1310981E+00
         21   -1    0    0  503  502  0.00000000000E+00  0.00000000000E+00  0.13723886322E+03  0.13723886322E+03  0.00000000000E+00 0. -1.
         21   -1    0    0  501  503 -0.00000000000E+00 -0.00000000000E+00 -0.58599530993E+02  0.58599530993E+02  0.00000000000E+00 0.  1.
         24    1    1    2    0    0 -0.27110550495E+02 -0.56861461199E+02  0.32965465068E+02  0.10734125749E+03  0.80419002446E+02 0.  0.
          1    1    1    2  501    0  0.20647449477E+02  0.82131735555E+01  0.11770255099E+01  0.22252163463E+02  0.00000000000E+00 0. -1.
         -2    1    1    2    0  502  0.64631010183E+01  0.48648287643E+02  0.44496841647E+02  0.66244973258E+02  0.00000000000E+00 0.  1.
<mgrwt>
<rscale>  2 0.86725333E+02</rscale>
<asrwt>0</asrwt>
<pdfrwt beam="1">  1       21 0.21113671E-01 0.86725333E+02</pdfrwt>
<pdfrwt beam="2">  1       21 0.90153125E-02 0.86725333E+02</pdfrwt>
<totfact> 0.19925154E+06</totfact>
</mgrwt>
</event>
<event>
 5    1  0.1946229E+000  0.6306158E+02  0.7546771E-02  0.1385415E+00
         21   -1    0    0  503  502  0.00000000000E+00  0.00000000000E+00  0.69926980161E+01  0.69926980161E+01  0.00000000000E+00 0. -1.
         21   -1    0    0  501  503 -0.00000000000E+00 -0.00000000000E+00 -0.70043036637E+03  0.70043036637E+03  0.00000000000E+00 0.  1.
         24    1    1    2    0    0  0.32344455924E+01 -0.93138093288E+00 -0.31053349575E+03  0.32079525720E+03  0.80419002446E+02 0. -1.
          1    1    1    2  501    0  0.20673135341E+02 -0.44064464453E+01 -0.28206602129E+03  0.28285691729E+03  0.00000000000E+00 0. -1.
         -2    1    1    2    0  502 -0.23907580933E+02  0.53378273781E+01 -0.10083815132E+03  0.10377088989E+03  0.00000000000E+00 0.  1.
<mgrwt>
<rscale>  2 0.63061582E+02</rscale>
<asrwt>0</asrwt>
<pdfrwt beam="1">  1       21 0.10757996E-02 0.63061582E+02</pdfrwt>
<pdfrwt beam="2">  1       21 0.10775853E+00 0.63061582E+02</pdfrwt>
<totfact> 0.22480257E+06</totfact>
</mgrwt>
</event>
<event>
 5    1  0.1946229E+000  0.7318979E+02  0.7546771E-02  0.1349570E+00
         21   -1    0    0  501  502  0.00000000000E+00  0.00000000000E+00  0.13735161394E+02  0.13735161394E+02  0.00000000000E+00 0. -1.
         21   -1    0    0  502  503 -0.00000000000E+00 -0.00000000000E+00 -0.13103314924E+04  0.13103314924E+04  0.00000000000E+00 0.  1.
         24    1    1    2    0    0  0.26656800902E+02  0.28188608514E+02 -0.77708130803E+03  0.78219419451E+03  0.80419002446E+02 0.  1.
          1    1    1    2  501    0 -0.28880608630E+02 -0.65789365966E-01 -0.85366148722E+01  0.30115904047E+02  0.00000000000E+00 0. -1.
         -2    1    1    2    0  503  0.22238077281E+01 -0.28122819149E+02 -0.51097840809E+03  0.51175655522E+03  0.00000000000E+00 0.  1.
<mgrwt>
<rscale>  2 0.73189789E+02</rscale>
<asrwt>0</asrwt>
<pdfrwt beam="1">  1       21 0.21131019E-02 0.73189789E+02</pdfrwt>
<pdfrwt beam="2">  1       21 0.20158944E+00 0.73189789E+02</pdfrwt>
<totfact> 0.15971818E+05</totfact>
</mgrwt>
</event>
<event>
 5    1  0.1946229E+000  0.7619243E+02  0.7546771E-02  0.1340218E+00
         21   -1    0    0  501  502  0.00000000000E+00  0.00000000000E+00  0.66431502923E+03  0.66431502923E+03  0.00000000000E+00 0.  1.
         21   -1    0    0  502  503 -0.00000000000E+00 -0.00000000000E+00 -0.20958276535E+02  0.20958276535E+02  0.00000000000E+00 0.  1.
         24    1    1    2    0    0  0.30068533680E+00  0.50222344697E+02  0.60210571686E+03  0.60952513036E+03  0.80419002446E+02 0.  1.
          1    1    1    2  501    0  0.13279461992E+02 -0.33456860065E+02  0.40465092751E+02  0.54158372644E+02  0.00000000000E+00 0. -1.
         -2    1    1    2    0  503 -0.13580147328E+02 -0.16765484632E+02  0.78594308312E+00  0.21589802754E+02  0.00000000000E+00 0.  1.
<mgrwt>
<rscale>  2 0.76192427E+02</rscale>
<asrwt>0</asrwt>
<pdfrwt beam="1">  1       21 0.10220230E+00 0.76192427E+02</pdfrwt>
<pdfrwt beam="2">  1       21 0.32243507E-02 0.76192427E+02</pdfrwt>
<totfact> 0.44718833E+05</totfact>
</mgrwt>
</event>
<event>
 5    1  0.1946229E+000  0.9790057E+02  0.7546771E-02  0.1284774E+00
         21   -1    0    0  503  502  0.00000000000E+00  0.00000000000E+00  0.35094624269E+03  0.35094624269E+03  0.00000000000E+00 0.  1.
         21   -1    0    0  501  503 -0.00000000000E+00 -0.00000000000E+00 -0.74273993436E+02  0.74273993436E+02  0.00000000000E+00 0. -1.
         24    1    1    2    0    0 -0.48177830804E+02  0.35198327023E+02  0.70163774361E+02  0.12227099735E+03  0.80419002446E+02 0.  1.
          1    1    1    2  501    0  0.24877456663E+02  0.22435218851E+02 -0.38002273190E+02  0.50659645306E+02  0.00000000000E+00 0. -1.
         -2    1    1    2    0  502  0.23300374141E+02 -0.57633545873E+02  0.24451074808E+03  0.25228959347E+03  0.00000000000E+00 0.  1.
<mgrwt>
<rscale>  2 0.97900569E+02</rscale>
<asrwt>0</asrwt>
<pdfrwt beam="1">  1       21 0.53991729E-01 0.97900569E+02</pdfrwt>
<pdfrwt beam="2">  1       21 0.11426768E-01 0.97900569E+02</pdfrwt>
<totfact> 0.21318287E+05</totfact>
</mgrwt>
</event>
<event>
 5    1  0.1946229E+000  0.7050701E+02  0.7546771E-02  0.1358377E+00
         21   -1    0    0  503  502  0.00000000000E+00  0.00000000000E+00  0.18129885544E+03  0.18129885544E+03  0.00000000000E+00 0.  1.
         21   -1    0    0  501  503 -0.00000000000E+00 -0.00000000000E+00 -0.10644971636E+03  0.10644971636E+03  0.00000000000E+00 0. -1.
         24    1    1    2    0    0 -0.45640083383E+01  0.89042309839E+01 -0.23743235580E+02  0.84445678940E+02  0.80419002446E+02 0.  0.
          1    1    1    2  501    0  0.23480939178E+02 -0.25604455653E+02 -0.45371259814E+02  0.57144499920E+02  0.00000000000E+00 0. -1.
         -2    1    1    2    0  502 -0.18916930840E+02  0.16700224669E+02  0.14396363447E+03  0.14615839294E+03  0.00000000000E+00 0.  1.
<mgrwt>
<rscale>  2 0.70507008E+02</rscale>
<asrwt>0</asrwt>
<pdfrwt beam="1">  1       21 0.27892132E-01 0.70507008E+02</pdfrwt>
<pdfrwt beam="2">  1       21 0.16376879E-01 0.70507008E+02</pdfrwt>
<totfact> 0.41597212E+05</totfact>
</mgrwt>
</event>
<event>
 5    1  0.1946229E+000  0.7570183E+02  0.7546771E-02  0.1341711E+00
         21   -1    0    0  501  502  0.00000000000E+00  0.00000000000E+00  0.72593271870E+01  0.72593271870E+01  0.00000000000E+00 0.  1.
         21   -1    0    0  502  503 -0.00000000000E+00 -0.00000000000E+00 -0.88066521409E+03  0.88066521409E+03  0.00000000000E+00 0. -1.
         24    1    1    2    0    0 -0.25365954572E+01 -0.73401478170E+01 -0.32139278329E+03  0.33139228898E+03  0.80419002446E+02 0.  1.
          1    1    1    2  501    0  0.18400913120E+02 -0.27062816037E+02 -0.23679660069E+03  0.23904731689E+03  0.00000000000E+00 0. -1.
         -2    1    1    2    0  503 -0.15864317662E+02  0.34402963854E+02 -0.31521650293E+03  0.31748493541E+03  0.00000000000E+00 0.  1.
<mgrwt>
<rscale>  2 0.75701832E+02</rscale>
<asrwt>0</asrwt>
<pdfrwt beam="1">  1       21 0.11168196E-02 0.75701832E+02</pdfrwt>
<pdfrwt beam="2">  1       21 0.13548695E+00 0.75701832E+02</pdfrwt>
<totfact> 0.12339184E+06</totfact>
</mgrwt>
</event>
<event>
 5    1  0.1946229E+000  0.6925125E+02  0.7546771E-02  0.1362658E+00
         21   -1    0    0  501  502  0.00000000000E+00  0.00000000000E+00  0.22594522101E+03  0.22594522101E+03  0.00000000000E+00 0.  1.
         21   -1    0    0  502  503 -0.00000000000E+00 -0.00000000000E+00 -0.24741943235E+02  0.24741943235E+02  0.00000000000E+00 0. -1.
         24    1    1    2    0    0 -0.47783650312E+01  0.18092861456E+02  0.71653095359E+02  0.10932322003E+03  0.80419002446E+02 0. -1.
          1    1    1    2  501    0  0.28823485070E+02 -0.11180659720E+02  0.60922162374E+02  0.68317715943E+02  0.00000000000E+00 0. -1.
         -2    1    1    2    0  503 -0.24045120039E+02 -0.69122017359E+01  0.68628020040E+02  0.73046228275E+02  0.00000000000E+00 0.  1.
<mgrwt>
<rscale>  2 0.69251246E+02</rscale>
<asrwt>0</asrwt>
<pdfrwt beam="1">  1       21 0.34760802E-01 0.69251246E+02</pdfrwt>
<pdfrwt beam="2">  1       21 0.38064530E-02 0.69251246E+02</pdfrwt>
<totfact> 0.32616312E+06</totfact>
</mgrwt>
</event>
<event>
 5    1  0.1946229E+000  0.7723724E+02  0.7546771E-02  0.1337080E+00
         21   -1    0    0  503  502  0.00000000000E+00  0.00000000000E+00  0.17130664443E+03  0.17130664443E+03  0.00000000000E+00 0.  1.
         21   -1    0    0  501  503 -0.00000000000E+00 -0.00000000000E+00 -0.56755187386E+02  0.56755187386E+02  0.00000000000E+00 0.  1.
         24    1    1    2    0    0 -0.32672001002E+02 -0.43815580786E+02  0.11565243639E+03  0.15109588600E+03  0.80419002446E+02 0.  0.
          1    1    1    2  501    0  0.26125809035E+02  0.21045810805E+02 -0.26113811488E+02  0.42513706032E+02  0.00000000000E+00 0. -1.
         -2    1    1    2    0  502  0.65461919673E+01  0.22769769982E+02  0.25012832137E+02  0.34452239780E+02  0.00000000000E+00 0.  1.
<mgrwt>
<rscale>  2 0.77237239E+02</rscale>
<asrwt>0</asrwt>
<pdfrwt beam="1">  1       21 0.26354868E-01 0.77237239E+02</pdfrwt>
<pdfrwt beam="2">  1       21 0.87315674E-02 0.77237239E+02</pdfrwt>
<totfact> 0.13891169E+06</totfact>
</mgrwt>
</event>
<event>
 5    1  0.1946229E+000  0.9999510E+02  0.7546771E-02  0.1280306E+00
         21   -1    0    0  501  502  0.00000000000E+00  0.00000000000E+00  0.52104998202E+03  0.52104998202E+03  0.00000000000E+00 0. -1.
         21   -1    0    0  502  503 -0.00000000000E+00 -0.00000000000E+00 -0.29158590939E+02  0.29158590939E+02  0.00000000000E+00 0.  1.
         24    1    1    2    0    0  0.41802819401E+01 -0.42169847875E+02  0.22398888807E+03  0.24173127386E+03  0.80419002446E+02 0.  1.
          1    1    1    2  501    0 -0.51841000957E+02  0.13888388515E+02  0.24094266712E+03  0.24684761606E+03  0.00000000000E+00 0. -1.
         -2    1    1    2    0  503  0.47660719017E+02  0.28281459361E+02  0.26959835893E+02  0.61629683044E+02  0.00000000000E+00 0.  1.
<mgrwt>
<rscale>  2 0.99995096E+02</rscale>
<asrwt>0</asrwt>
<pdfrwt beam="1">  1       21 0.80161529E-01 0.99995096E+02</pdfrwt>
<pdfrwt beam="2">  1       21 0.44859375E-02 0.99995096E+02</pdfrwt>
<totfact> 0.44924412E+05</totfact>
</mgrwt>
</event>
<event>
 5    1  0.1946229E+000  0.7095455E+02  0.7546771E-02  0.1356877E+00
         21   -1    0    0  503  502  0.00000000000E+00  0.00000000000E+00  0.16189255680E+03  0.16189255680E+03  0.00000000000E+00 0. -1.
         21   -1    0    0  501  503 -0.00000000000E+00 -0.00000000000E+00 -0.49047460448E+02  0.49047460448E+02  0.00000000000E+00 0. -1.
         24    1    1    2    0    0  0.62542607073E+01 -0.41419858123E+02  0.12586606558E+03  0.15512640924E+03  0.80419002446E+02 0. -1.
          1    1    1    2  501    0 -0.17684637079E+02  0.18331702667E+02 -0.15685079445E+02  0.29913532531E+02  0.00000000000E+00 0. -1.
         -2    1    1    2    0  502  0.11430376372E+02  0.23088155456E+02  0.26641102131E+01  0.25900075475E+02  0.00000000000E+00 0.  1.
<mgrwt>
<rscale>  2 0.70954548E+02</rscale>
<asrwt>0</asrwt>
<pdfrwt beam="1">  1       21 0.24906547E-01 0.70954548E+02</pdfrwt>
<pdfrwt beam="2">  1       21 0.75457632E-02 0.70954548E+02</pdfrwt>
<totfact> 0.19711999E+06</totfact>
</mgrwt>
</event>
<event>
 5    1  0.1946229E+000  0.8952427E+02  0.7546771E-02  0.1304008E+00
         21   -1    0    0  503  502  0.00000000000E+00  0.00000000000E+00  0.76734681903E+02  0.76734681903E+02  0.00000000000E+00 0.  1.
         21   -1    0    0  501  503 -0.00000000000E+00 -0.00000000000E+00 -0.38853019471E+03  0.38853019471E+03  0.00000000000E+00 0. -1.
         24    1    1    2    0    0 -0.18325915727E+02  0.57792998594E+02 -0.13125467334E+03  0.16544145521E+03  0.80419002446E+02 0.  1.
          1    1    1    2  501    0 -0.17269680971E+02 -0.19793247810E+02 -0.22791829740E+03  0.22942703596E+03  0.00000000000E+00 0. -1.
         -2    1    1    2    0  502  0.35595596697E+02 -0.37999750784E+02  0.47377457930E+02  0.70396385445E+02  0.00000000000E+00 0.  1.
<mgrwt>
<rscale>  2 0.89524272E+02</rscale>
<asrwt>0</asrwt>
<pdfrwt beam="1">  1       21 0.11805336E-01 0.89524272E+02</pdfrwt>
<pdfrwt beam="2">  1       21 0.59773875E-01 0.89524272E+02</pdfrwt>
<totfact> 0.16332931E+05</totfact>
</mgrwt>
</event>
<event>
 5    1  0.1950729E+000  0.2119155E+03  0.7546771E-02  0.1140058E+00
         21   -1    0    0  501  502  0.00000000000E+00  0.00000000000E+00  0.11420582114E+03  0.11420582114E+03  0.00000000000E+00 0. -1.
         21   -1    0    0  502  503 -0.00000000000E+00 -0.00000000000E+00 -0.73109903861E+03  0.73109903861E+03  0.00000000000E+00 0.  1.
         24    1    1    2    0    0 -0.12898592967E+03  0.54578658768E+02 -0.45947784231E+02  0.16791252150E+03  0.80419002446E+02 0.  0.
          1    1    1    2  501    0 -0.55113939031E+02 -0.55512388889E+02 -0.76721843611E+00  0.78228896322E+02  0.00000000000E+00 0. -1.
         -2    1    1    2    0  503  0.18409986870E+03  0.93373012121E+00 -0.57017821480E+03  0.59916344193E+03  0.00000000000E+00 0.  1.
<mgrwt>
<rscale>  2 0.21191549E+03</rscale>
<asrwt>0</asrwt>
<pdfrwt beam="1">  1       21 0.17570125E-01 0.21191549E+03</pdfrwt>
<pdfrwt beam="2">  1       21 0.11247678E+00 0.21191549E+03</pdfrwt>
<totfact> 0.17945119E+04</totfact>
</mgrwt>
</event>
<event>
 5    1  0.1946229E+000  0.7670463E+02  0.7546771E-02  0.1338672E+00
         21   -1    0    0  503  502  0.00000000000E+00  0.00000000000E+00  0.64531202165E+02  0.64531202165E+02  0.00000000000E+00 0.  1.
         21   -1    0    0  501  503 -0.00000000000E+00 -0.00000000000E+00 -0.95805132903E+02  0.95805132903E+02  0.00000000000E+00 0. -1.
         24    1    1    2    0    0 -0.44987692908E+01 -0.49131176182E+01 -0.43964301466E+01  0.80814121305E+02  0.80419002446E+02 0.  1.
          1    1    1    2  501    0 -0.25920521204E+02  0.25200029736E+02 -0.22779796848E+02  0.42729779576E+02  0.00000000000E+00 0. -1.
         -2    1    1    2    0  502  0.30419290495E+02 -0.20286912118E+02 -0.40977037434E+01  0.36792434187E+02  0.00000000000E+00 0.  1.
<mgrwt>
<rscale>  2 0.76704629E+02</rscale>
<asrwt>0</asrwt>
<pdfrwt beam="1">  1       21 0.99278773E-02 0.76704629E+02</pdfrwt>
<pdfrwt beam="2">  1       21 0.14739251E-01 0.76704629E+02</pdfrwt>
<totfact> 0.32093309E+06</totfact>
</mgrwt>
</event>
<event>
 5    1  0.1946229E+000  0.1813620E+03  0.7546771E-02  0.1166491E+00
         21   -1    0    0  503  502  0.00000000000E+00  0.00000000000E+00  0.11723148546E+04  0.11723148546E+04  0.00000000000E+00 0.  1.
         21   -1    0    0  501  503 -0.00000000000E+00 -0.00000000000E+00 -0.32109727030E+02  0.32109727030E+02  0.00000000000E+00 0.  1.
         24    1    1    2    0    0  0.15397536985E+03 -0.64569120782E+02  0.36999563344E+03  0.41381344902E+03  0.80419002446E+02 0.  1.
          1    1    1    2  501    0 -0.29103204968E+02 -0.11375841197E+02  0.10587666518E+03  0.11039146042E+03  0.00000000000E+00 0. -1.
         -2    1    1    2    0  502 -0.12487216488E+03  0.75944961980E+02  0.66433282897E+03  0.68021967221E+03  0.00000000000E+00 0.  1.
<mgrwt>
<rscale>  2 0.18136200E+03</rscale>
<asrwt>0</asrwt>
<pdfrwt beam="1">  1       21 0.18035610E+00 0.18136200E+03</pdfrwt>
<pdfrwt beam="2">  1       21 0.49399589E-02 0.18136200E+03</pdfrwt>
<totfact> 0.50027006E+04</totfact>
</mgrwt>
</event>
<event>
 5    1  0.1946229E+000  0.8246302E+02  0.7546771E-02  0.1322204E+00
         21   -1    0    0  503  502  0.00000000000E+00  0.00000000000E+00  0.25002266092E+02  0.25002266092E+02  0.00000000000E+00 0. -1.
         21   -1    0    0  501  503 -0.00000000000E+00 -0.00000000000E+00 -0.33255576727E+03  0.33255576727E+03  0.00000000000E+00 0. -1.
         24    1    1    2    0    0  0.92209090424E+01  0.42451923888E+01 -0.10650557619E+03  0.13384207311E+03  0.80419002446E+02 0.  0.
          1    1    1    2  501    0  0.13412192698E+02  0.35600863959E+02 -0.15159284647E+03  0.15629363240E+03  0.00000000000E+00 0. -1.
         -2    1    1    2    0  502 -0.22633101740E+02 -0.39846056348E+02 -0.49455078517E+02  0.67422327845E+02  0.00000000000E+00 0.  1.
<mgrwt>
<rscale>  2 0.82463023E+02</rscale>
<asrwt>0</asrwt>
<pdfrwt beam="1">  1       21 0.38465028E-02 0.82463023E+02</pdfrwt>
<pdfrwt beam="2">  1       21 0.51162422E-01 0.82463023E+02</pdfrwt>
<totfact> 0.15016755E+06</totfact>
</mgrwt>
</event>
<event>
 5    1  0.1946229E+000  0.1089868E+03  0.7546771E-02  0.1262458E+00
         21   -1    0    0  501  502  0.00000000000E+00  0.00000000000E+00  0.12888233265E+02  0.12888233265E+02  0.00000000000E+00 0.  1.
         21   -1    0    0  502  503 -0.00000000000E+00 -0.00000000000E+00 -0.13984355767E+04  0.13984355767E+04  0.00000000000E+00 0. -1.
         24    1    1    2    0    0 -0.46054539208E+02 -0.30029034023E+02 -0.26248707811E+03  0.27998115222E+03  0.80419002446E+02 0.  1.
          1    1    1    2  501    0 -0.19930673777E+02  0.48164319021E+02 -0.23802033992E+03  0.24366106706E+03  0.00000000000E+00 0. -1.
         -2    1    1    2    0  503  0.65985212985E+02 -0.18135284997E+02 -0.88503992538E+03  0.88768159067E+03  0.00000000000E+00 0.  1.
<mgrwt>
<rscale>  2 0.10898684E+03</rscale>
<asrwt>0</asrwt>
<pdfrwt beam="1">  1       21 0.19828062E-02 0.10898684E+03</pdfrwt>
<pdfrwt beam="2">  1       21 0.21514382E+00 0.10898684E+03</pdfrwt>
<totfact> 0.14198814E+05</totfact>
</mgrwt>
</event>
<event>
 5    1  0.1946229E+000  0.7953881E+02  0.7546771E-02  0.1330365E+00
         21   -1    0    0  503  502  0.00000000000E+00  0.00000000000E+00  0.10167830016E+02  0.10167830016E+02  0.00000000000E+00 0.  1.
         21   -1    0    0  501  503 -0.00000000000E+00 -0.00000000000E+00 -0.10319528207E+04  0.10319528207E+04  0.00000000000E+00 0.  1.
         24    1    1    2    0    0 -0.58452041033E+02 -0.93596049235E+01 -0.58319500528E+03  0.59168224026E+03  0.80419002446E+02 0.  1.
          1    1    1    2  501    0  0.32077604639E+02  0.59814954088E+01 -0.41036841574E+03  0.41166368268E+03  0.00000000000E+00 0. -1.
         -2    1    1    2    0  502  0.26374436394E+02  0.33781095148E+01 -0.28221569668E+02  0.38774727768E+02  0.00000000000E+00 0.  1.
<mgrwt>
<rscale>  2 0.79538806E+02</rscale>
<asrwt>0</asrwt>
<pdfrwt beam="1">  1       21 0.15642810E-02 0.79538806E+02</pdfrwt>
<pdfrwt beam="2">  1       21 0.15876203E+00 0.79538806E+02</pdfrwt>
<totfact> 0.48733459E+05</totfact>
</mgrwt>
</event>
<event>
 5    1  0.1946229E+000  0.1164362E+03  0.7546771E-02  0.1249095E+00
         21   -1    0    0  501  502  0.00000000000E+00  0.00000000000E+00  0.11639209858E+03  0.11639209858E+03  0.00000000000E+00 0. -1.
         21   -1    0    0  502  503 -0.00000000000E+00 -0.00000000000E+00 -0.38615637818E+03  0.38615637818E+03  0.00000000000E+00 0.  1.
         24    1    1    2    0    0 -0.52054598396E+01 -0.34983843440E+02 -0.23866639086E+03  0.25432229197E+03  0.80419002446E+02 0.  1.
          1    1    1    2  501    0 -0.64038891479E+02  0.40146585112E+02  0.84503751977E+02  0.11337377129E+03  0.00000000000E+00 0. -1.
         -2    1    1    2    0  503  0.69244351318E+02 -0.51627416715E+01 -0.11560164072E+03  0.13485241350E+03  0.00000000000E+00 0.  1.
<mgrwt>
<rscale>  2 0.11643616E+03</rscale>
<asrwt>0</asrwt>
<pdfrwt beam="1">  1       21 0.17906477E-01 0.11643616E+03</pdfrwt>
<pdfrwt beam="2">  1       21 0.59408671E-01 0.11643616E+03</pdfrwt>
<totfact> 0.77607686E+04</totfact>
</mgrwt>
</event>
<event>
 5    1  0.1946229E+000  0.7769926E+02  0.7546771E-02  0.1335710E+00
         21   -1    0    0  501  502  0.00000000000E+00  0.00000000000E+00  0.77812383496E+02  0.77812383496E+02  0.00000000000E+00 0.  1.
         21   -1    0    0  502  503 -0.00000000000E+00 -0.00000000000E+00 -0.18037341952E+03  0.18037341952E+03  0.00000000000E+00 0.  1.
         24    1    1    2    0    0 -0.14534637373E+02  0.32124598572E+02 -0.25022527184E+02  0.91304919572E+02  0.80419002446E+02 0.  1.
          1    1    1    2  501    0  0.27232890958E+02  0.55844764069E+01  0.36625887158E+02  0.45981217217E+02  0.00000000000E+00 0. -1.
         -2    1    1    2    0  503 -0.12698253585E+02 -0.37709074979E+02 -0.11416439600E+03  0.12089966623E+03  0.00000000000E+00 0.  1.
<mgrwt>
<rscale>  2 0.77699256E+02</rscale>
<asrwt>0</asrwt>
<pdfrwt beam="1">  1       21 0.11971136E-01 0.77699256E+02</pdfrwt>
<pdfrwt beam="2">  1       21 0.27749757E-01 0.77699256E+02</pdfrwt>
<totfact> 0.73098810E+05</totfact>
</mgrwt>
</event>
<event>
 5    1  0.1946229E+000  0.1016278E+03  0.7546771E-02  0.1276910E+00
         21   -1    0    0  501  502  0.00000000000E+00  0.00000000000E+00  0.15757288346E+04  0.15757288346E+04  0.00000000000E+00 0.  1.
         21   -1    0    0  502  503 -0.00000000000E+00 -0.00000000000E+00 -0.69378685591E+01  0.69378685591E+01  0.00000000000E+00 0. -1.
         24    1    1    2    0    0 -0.84007625786E+01 -0.76584089193E+02  0.10174470246E+04  0.10235239906E+04  0.80419002446E+02 0.  1.
          1    1    1    2  501    0  0.29413776781E+02  0.49885013811E+02  0.38845916040E+03  0.39275208996E+03  0.00000000000E+00 0. -1.
         -2    1    1    2    0  503 -0.21013014203E+02  0.26699075382E+02  0.16288478104E+03  0.16639062259E+03  0.00000000000E+00 0.  1.
<mgrwt>
<rscale>  2 0.10162782E+03</rscale>
<asrwt>0</asrwt>
<pdfrwt beam="1">  1       21 0.24241954E+00 0.10162782E+03</pdfrwt>
<pdfrwt beam="2">  1       21 0.10673656E-02 0.10162782E+03</pdfrwt>
<totfact> 0.26473538E+05</totfact>
</mgrwt>
</event>
<event>
 5    1  0.1946229E+000  0.7550435E+02  0.7546771E-02  0.1342316E+00
         21   -1    0    0  501  502  0.00000000000E+00  0.00000000000E+00  0.15475977559E+02  0.15475977559E+02  0.00000000000E+00 0. -1.
         21   -1    0    0  502  503 -0.00000000000E+00 -0.00000000000E+00 -0.78842056824E+03  0.78842056824E+03  0.00000000000E+00 0. -1.
         24    1    1    2    0    0 -0.16825784629E+02 -0.25766678825E+02 -0.59852122698E+03  0.60468330874E+03  0.80419002446E+02 0. -1.
          1    1    1    2  501    0  0.62178709954E+01  0.43660397126E+02 -0.30089135236E+02  0.53387716341E+02  0.00000000000E+00 0. -1.
         -2    1    1    2    0  503  0.10607913634E+02 -0.17893718301E+02 -0.14433422846E+03  0.14582552072E+03  0.00000000000E+00 0.  1.
<mgrwt>
<rscale>  2 0.75504347E+02</rscale>
<asrwt>0</asrwt>
<pdfrwt beam="1">  1       21 0.23809191E-02 0.75504347E+02</pdfrwt>
<pdfrwt beam="2">  1       21 0.12129550E+00 0.75504347E+02</pdfrwt>
<totfact> 0.48760886E+05</totfact>
</mgrwt>
</event>
<event>
 5    1  0.1949458E+000  0.1502537E+03  0.7546771E-02  0.1200162E+00
         21   -1    0    0  503  502  0.00000000000E+00  0.00000000000E+00  0.74762052156E+02  0.74762052156E+02  0.00000000000E+00 0.  1.
         21   -1    0    0  501  503 -0.00000000000E+00 -0.00000000000E+00 -0.54859287952E+03  0.54859287952E+03  0.00000000000E+00 0. -1.
         24    1    1    2    0    0  0.20649150140E+02 -0.56452876393E+02 -0.36749537059E+02  0.10691613107E+03  0.80419002446E+02 0.  0.
          1    1    1    2  501    0 -0.99809525700E+02 -0.49350128234E+01 -0.39558179451E+03  0.40800888706E+03  0.00000000000E+00 0. -1.
         -2    1    1    2    0  502  0.79160375560E+02  0.61387889216E+02 -0.41499495801E+02  0.10842991355E+03  0.00000000000E+00 0.  1.
<mgrwt>
<rscale>  2 0.15025367E+03</rscale>
<asrwt>0</asrwt>
<pdfrwt beam="1">  1       21 0.11501854E-01 0.15025367E+03</pdfrwt>
<pdfrwt beam="2">  1       21 0.84398908E-01 0.15025367E+03</pdfrwt>
<totfact> 0.78546132E+04</totfact>
</mgrwt>
</event>
<event>
 5    1  0.1946229E+000  0.8791886E+02  0.7546771E-02  0.1307971E+00
         21   -1    0    0  501  502  0.00000000000E+00  0.00000000000E+00  0.79707588565E+03  0.79707588565E+03  0.00000000000E+00 0. -1.
         21   -1    0    0  502  503 -0.00000000000E+00 -0.00000000000E+00 -0.20816672335E+02  0.20816672335E+02  0.00000000000E+00 0. -1.
         24    1    1    2    0    0  0.32018191675E+02 -0.38556086219E+02  0.51230933690E+03  0.52099885701E+03  0.80419002446E+02 0. -1.
          1    1    1    2  501    0 -0.17026782731E+01  0.48989982367E+02  0.26001142909E+03  0.26459187580E+03  0.00000000000E+00 0. -1.
         -2    1    1    2    0  503 -0.30315513402E+02 -0.10433896148E+02  0.39384473278E+01  0.32301825165E+02  0.00000000000E+00 0.  1.
<mgrwt>
<rscale>  2 0.87918861E+02</rscale>
<asrwt>0</asrwt>
<pdfrwt beam="1">  1       21 0.12262704E+00 0.87918861E+02</pdfrwt>
<pdfrwt beam="2">  1       21 0.32025656E-02 0.87918861E+02</pdfrwt>
<totfact> 0.29328968E+05</totfact>
</mgrwt>
</event>
<event>
 5    1  0.1946229E+000  0.1558003E+03  0.7546771E-02  0.1193521E+00
         21   -1    0    0  501  502  0.00000000000E+00  0.00000000000E+00  0.21727593364E+02  0.21727593364E+02  0.00000000000E+00 0. -1.
         21   -1    0    0  502  503 -0.00000000000E+00 -0.00000000000E+00 -0.16266064240E+04  0.16266064240E+04  0.00000000000E+00 0. -1.
         24    1    1    2    0    0 -0.11605420813E+03  0.78632517706E+02 -0.81612208706E+03  0.83197002892E+03  0.80419002446E+02 0. -1.
          1    1    1    2  501    0  0.14912571280E+02 -0.38299296064E+02 -0.32740839401E+02  0.52546964003E+02  0.00000000000E+00 0. -1.
         -2    1    1    2    0  503  0.10114163685E+03 -0.40333221642E+02 -0.75601590420E+03  0.76381702447E+03  0.00000000000E+00 0.  1.
<mgrwt>
<rscale>  2 0.15580028E+03</rscale>
<asrwt>0</asrwt>
<pdfrwt beam="1">  1       21 0.33427061E-02 0.15580028E+03</pdfrwt>
<pdfrwt beam="2">  1       21 0.25024719E+00 0.15580028E+03</pdfrwt>
<totfact> 0.36178736E+04</totfact>
</mgrwt>
</event>
<event>
 5    1  0.1946229E+000  0.6702783E+02  0.7546771E-02  0.1370502E+00
         21   -1    0    0  501  502  0.00000000000E+00  0.00000000000E+00  0.20396441575E+03  0.20396441575E+03  0.00000000000E+00 0. -1.
         21   -1    0    0  502  503 -0.00000000000E+00 -0.00000000000E+00 -0.81159397406E+02  0.81159397406E+02  0.00000000000E+00 0.  1.
         24    1    1    2    0    0  0.10685112953E+02  0.15064480672E+02  0.21213893650E+02  0.85195982622E+02  0.80419002446E+02 0.  0.
          1    1    1    2  501    0 -0.21232053811E+02  0.10647314641E+02  0.14579312690E+03  0.14771527094E+03  0.00000000000E+00 0. -1.
         -2    1    1    2    0  503  0.10546940858E+02 -0.25711795313E+02 -0.44202002208E+02  0.52212559590E+02  0.00000000000E+00 0.  1.
<mgrwt>
<rscale>  2 0.67027827E+02</rscale>
<asrwt>0</asrwt>
<pdfrwt beam="1">  1       21 0.31379141E-01 0.67027827E+02</pdfrwt>
<pdfrwt beam="2">  1       21 0.12486061E-01 0.67027827E+02</pdfrwt>
<totfact> 0.53709870E+05</totfact>
</mgrwt>
</event>
<event>
 5    1  0.1946229E+000  0.1761873E+03  0.7546771E-02  0.1171545E+00
         21   -1    0    0  503  502  0.00000000000E+00  0.00000000000E+00  0.13177025468E+04  0.13177025468E+04  0.00000000000E+00 0.  1.
         21   -1    0    0  501  503 -0.00000000000E+00 -0.00000000000E+00 -0.32563006477E+02  0.32563006477E+02  0.00000000000E+00 0.  1.
         24    1    1    2    0    0 -0.34502729143E+02 -0.10219546997E+03  0.29288871684E+03  0.32231253281E+03  0.80419002446E+02 0.  0.
          1    1    1    2  501    0 -0.25986742842E+01  0.15405003515E+03  0.34832988580E+03  0.38088302112E+03  0.00000000000E+00 0. -1.
         -2    1    1    2    0  502  0.37101403427E+02 -0.51854565184E+02  0.64392093770E+03  0.64706999936E+03  0.00000000000E+00 0.  1.
<mgrwt>
<rscale>  2 0.17618729E+03</rscale>
<asrwt>0</asrwt>
<pdfrwt beam="1">  1       21 0.20272343E+00 0.17618729E+03</pdfrwt>
<pdfrwt beam="2">  1       21 0.50096943E-02 0.17618729E+03</pdfrwt>
<totfact> 0.34992774E+04</totfact>
</mgrwt>
</event>
<event>
 5    1  0.1946229E+000  0.8357934E+02  0.7546771E-02  0.1319190E+00
         21   -1    0    0  501  502  0.00000000000E+00  0.00000000000E+00  0.13675048123E+03  0.13675048123E+03  0.00000000000E+00 0.  1.
         21   -1    0    0  502  503 -0.00000000000E+00 -0.00000000000E+00 -0.90150965949E+02  0.90150965949E+02  0.00000000000E+00 0.  1.
         24    1    1    2    0    0  0.40374599596E+02  0.19757591843E+02  0.67897732212E+02  0.11444557100E+03  0.80419002446E+02 0.  1.
          1    1    1    2  501    0 -0.20290989190E+02  0.21241848167E+02  0.31220307353E+02  0.42867796154E+02  0.00000000000E+00 0. -1.
         -2    1    1    2    0  503 -0.20083610406E+02 -0.40999440010E+02 -0.52518524286E+02  0.69588080022E+02  0.00000000000E+00 0.  1.
<mgrwt>
<rscale>  2 0.83579342E+02</rscale>
<asrwt>0</asrwt>
<pdfrwt beam="1">  1       21 0.21038536E-01 0.83579342E+02</pdfrwt>
<pdfrwt beam="2">  1       21 0.13869379E-01 0.83579342E+02</pdfrwt>
<totfact> 0.94525672E+05</totfact>
</mgrwt>
</event>
<event>
 5    1  0.1946229E+000  0.7206448E+02  0.7546771E-02  0.1353210E+00
         21   -1    0    0  501  502  0.00000000000E+00  0.00000000000E+00  0.74369212924E+02  0.74369212924E+02  0.00000000000E+00 0.  1.
         21   -1    0    0  502  503 -0.00000000000E+00 -0.00000000000E+00 -0.13272871826E+03  0.13272871826E+03  0.00000000000E+00 0.  1.
         24    1    1    2    0    0  0.46919810647E+02 -0.12954881420E+02  0.15380940990E+02  0.95252752632E+02  0.80419002446E+02 0.  1.
          1    1    1    2  501    0 -0.27697021478E+02  0.14746544721E+01  0.65434220023E+01  0.28497648606E+02  0.00000000000E+00 0. -1.
         -2    1    1    2    0  503 -0.19222789169E+02  0.11480226948E+02 -0.80283868324E+02  0.83347529941E+02  0.00000000000E+00 0.  1.
<mgrwt>
<rscale>  2 0.72064481E+02</rscale>
<asrwt>0</asrwt>
<pdfrwt beam="1">  1       21 0.11441417E-01 0.72064481E+02</pdfrwt>
<pdfrwt beam="2">  1       21 0.20419803E-01 0.72064481E+02</pdfrwt>
<totfact> 0.13930612E+06</totfact>
</mgrwt>
</event>
<event>
 5    1  0.1946229E+000  0.7297641E+02  0.7546771E-02  0.1350254E+00
         21   -1    0    0  503  502  0.00000000000E+00  0.00000000000E+00  0.11572652701E+04  0.11572652701E+04  0.00000000000E+00 0. -1.
         21   -1    0    0  501  503 -0.00000000000E+00 -0.00000000000E+00 -0.12469755414E+02  0.12469755414E+02  0.00000000000E+00 0. -1.
         24    1    1    2    0    0 -0.55671083822E+01 -0.38753358429E+02  0.95323887288E+03  0.95742591369E+03  0.80419002446E+02 0. -1.
          1    1    1    2  501    0 -0.17764608965E+02  0.15649673109E+02  0.67641359213E+01  0.24622086322E+02  0.00000000000E+00 0. -1.
         -2    1    1    2    0  502  0.23331717347E+02  0.23103685320E+02  0.18479250588E+03  0.18768702550E+03  0.00000000000E+00 0.  1.
<mgrwt>
<rscale>  2 0.72976412E+02</rscale>
<asrwt>0</asrwt>
<pdfrwt beam="1">  1       21 0.17804073E+00 0.72976412E+02</pdfrwt>
<pdfrwt beam="2">  1       21 0.19184248E-02 0.72976412E+02</pdfrwt>
<totfact> 0.26182561E+05</totfact>
</mgrwt>
</event>
<event>
 5    1  0.1946229E+000  0.1871095E+03  0.7546771E-02  0.1161095E+00
         21   -1    0    0  503  502  0.00000000000E+00  0.00000000000E+00  0.42094260763E+03  0.42094260763E+03  0.00000000000E+00 0.  1.
         21   -1    0    0  501  503 -0.00000000000E+00 -0.00000000000E+00 -0.37707135145E+03  0.37707135145E+03  0.00000000000E+00 0. -1.
         24    1    1    2    0    0  0.40519994340E+02 -0.15565979163E+03 -0.11427151656E+03  0.21306580233E+03  0.80419002446E+02 0.  1.
          1    1    1    2  501    0 -0.20639155321E+02 -0.13110420769E+02 -0.19316016523E+03  0.19470158524E+03  0.00000000000E+00 0. -1.
         -2    1    1    2    0  502 -0.19880839019E+02  0.16877021240E+03  0.35130293796E+03  0.39024657151E+03  0.00000000000E+00 0.  1.
<mgrwt>
<rscale>  2 0.18710945E+03</rscale>
<asrwt>0</asrwt>
<pdfrwt beam="1">  1       21 0.64760401E-01 0.18710945E+03</pdfrwt>
<pdfrwt beam="2">  1       21 0.58010977E-01 0.18710945E+03</pdfrwt>
<totfact> 0.61449072E+03</totfact>
</mgrwt>
</event>
<event>
 5    1  0.1946229E+000  0.8316410E+02  0.7546771E-02  0.1320305E+00
         21   -1    0    0  503  502  0.00000000000E+00  0.00000000000E+00  0.21081136118E+03  0.21081136118E+03  0.00000000000E+00 0.  1.
         21   -1    0    0  501  503 -0.00000000000E+00 -0.00000000000E+00 -0.82957052552E+02  0.82957052552E+02  0.00000000000E+00 0. -1.
         24    1    1    2    0    0 -0.27577128049E+02 -0.41828545159E+02  0.22490862359E+02  0.97381620574E+02  0.80419002446E+02 0. -1.
          1    1    1    2  501    0  0.40675277192E+02  0.18195996898E+02 -0.32975267103E+02  0.55434111504E+02  0.00000000000E+00 0. -1.
         -2    1    1    2    0  502 -0.13098149143E+02  0.23632548262E+02  0.13833871337E+03  0.14095268166E+03  0.00000000000E+00 0.  1.
<mgrwt>
<rscale>  2 0.83164098E+02</rscale>
<asrwt>0</asrwt>
<pdfrwt beam="1">  1       21 0.32432517E-01 0.83164098E+02</pdfrwt>
<pdfrwt beam="2">  1       21 0.12762624E-01 0.83164098E+02</pdfrwt>
<totfact> 0.48584595E+05</totfact>
</mgrwt>
</event>
<event>
 5    1  0.1946229E+000  0.9927446E+02  0.7546771E-02  0.1281829E+00
         21   -1    0    0  501  502  0.00000000000E+00  0.00000000000E+00  0.24331574464E+03  0.24331574464E+03  0.00000000000E+00 0.  1.
         21   -1    0    0  502  503 -0.00000000000E+00 -0.00000000000E+00 -0.42650161569E+02  0.42650161569E+02  0.00000000000E+00 0.  1.
         24    1    1    2    0    0  0.34808613199E+02  0.68274822493E+02  0.10141431628E+03  0.15041665613E+03  0.80419002446E+02 0.  1.
          1    1    1    2  501    0  0.88334320236E+01 -0.22715197029E+02  0.49601748205E+02  0.55266111880E+02  0.00000000000E+00 0. -1.
         -2    1    1    2    0  503 -0.43642045223E+02 -0.45559625464E+02  0.49649518579E+02  0.80283138197E+02  0.00000000000E+00 0.  1.
<mgrwt>
<rscale>  2 0.99274464E+02</rscale>
<asrwt>0</asrwt>
<pdfrwt beam="1">  1       21 0.37433191E-01 0.99274464E+02</pdfrwt>
<pdfrwt beam="2">  1       21 0.65615635E-02 0.99274464E+02</pdfrwt>
<totfact> 0.11594780E+06</totfact>
</mgrwt>
</event>
<event>
 5    1  0.1946229E+000  0.7361006E+02  0.7546771E-02  0.1348230E+00
         21   -1    0    0  501  502  0.00000000000E+00  0.00000000000E+00  0.79328917087E+03  0.79328917087E+03  0.00000000000E+00 0.  1.
         21   -1    0    0  502  503 -0.00000000000E+00 -0.00000000000E+00 -0.14381336731E+02  0.14381336731E+02  0.00000000000E+00 0.  1.
         24    1    1    2    0    0  0.20517195371E+02  0.42143393364E+02  0.52957695406E+03  0.53769506891E+03  0.80419002446E+02 0.  1.
          1    1    1    2  501    0  0.25428938234E+01 -0.25676895579E+02  0.23810188123E+03  0.23949587704E+03  0.00000000000E+00 0. -1.
         -2    1    1    2    0  503 -0.23060089195E+02 -0.16466497785E+02  0.11228998855E+02  0.30479561648E+02  0.00000000000E+00 0.  1.
<mgrwt>
<rscale>  2 0.73610056E+02</rscale>
<asrwt>0</asrwt>
<pdfrwt beam="1">  1       21 0.12204445E+00 0.73610056E+02</pdfrwt>
<pdfrwt beam="2">  1       21 0.22125140E-02 0.73610056E+02</pdfrwt>
<totfact> 0.54040704E+05</totfact>
</mgrwt>
</event>
<event>
 5    1  0.1946229E+000  0.7587154E+02  0.7546771E-02  0.1341193E+00
         21   -1    0    0  503  502  0.00000000000E+00  0.00000000000E+00  0.11781243730E+03  0.11781243730E+03  0.00000000000E+00 0.  1.
         21   -1    0    0  501  503 -0.00000000000E+00 -0.00000000000E+00 -0.16207204222E+03  0.16207204222E+03  0.00000000000E+00 0. -1.
         24    1    1    2    0    0  0.10755670610E+02  0.18699687011E+02  0.68178959201E+02  0.10761481857E+03  0.80419002446E+02 0.  1.
          1    1    1    2  501    0  0.27543841480E+02 -0.67221318175E+01 -0.12658435295E+03  0.12972065630E+03  0.00000000000E+00 0. -1.
         -2    1    1    2    0  502 -0.38299512090E+02 -0.11977555194E+02  0.14145788827E+02  0.42549004645E+02  0.00000000000E+00 0.  1.
<mgrwt>
<rscale>  2 0.75871543E+02</rscale>
<asrwt>0</asrwt>
<pdfrwt beam="1">  1       21 0.18124990E-01 0.75871543E+02</pdfrwt>
<pdfrwt beam="2">  1       21 0.24934160E-01 0.75871543E+02</pdfrwt>
<totfact> 0.42770000E+05</totfact>
</mgrwt>
</event>
<event>
 5    1  0.1946229E+000  0.8567351E+02  0.7546771E-02  0.1313681E+00
         21   -1    0    0  503  502  0.00000000000E+00  0.00000000000E+00  0.81015599612E+02  0.81015599612E+02  0.00000000000E+00 0.  1.
         21   -1    0    0  501  503 -0.00000000000E+00 -0.00000000000E+00 -0.24556037883E+03  0.24556037883E+03  0.00000000000E+00 0.  1.
         24    1    1    2    0    0 -0.20735323981E+02 -0.11981506529E+02 -0.10035027232E+03  0.13080865136E+03  0.80419002446E+02 0.  1.
          1    1    1    2  501    0 -0.30985077458E+02  0.17227443593E+02 -0.11664826959E+03  0.12191668728E+03  0.00000000000E+00 0. -1.
         -2    1    1    2    0  502  0.51720401439E+02 -0.52459370639E+01  0.52453762692E+02  0.73850639816E+02  0.00000000000E+00 0.  1.
<mgrwt>
<rscale>  2 0.85673510E+02</rscale>
<asrwt>0</asrwt>
<pdfrwt beam="1">  1       21 0.12463938E-01 0.85673510E+02</pdfrwt>
<pdfrwt beam="2">  1       21 0.37778520E-01 0.85673510E+02</pdfrwt>
<totfact> 0.37663316E+05</totfact>
</mgrwt>
</event>
<event>
 5    1  0.1946229E+000  0.7369558E+02  0.7546771E-02  0.1347959E+00
         21   -1    0    0  503  502  0.00000000000E+00  0.00000000000E+00  0.10271063036E+02  0.10271063036E+02  0.00000000000E+00 0.  1.
         21   -1    0    0  501  503 -0.00000000000E+00 -0.00000000000E+00 -0.10744746989E+04  0.10744746989E+04  0.00000000000E+00 0.  1.
         24    1    1    2    0    0  0.18939609018E+02 -0.47914025161E+02 -0.35771336487E+03  0.37024387902E+03  0.80419002446E+02 0.  1.
          1    1    1    2  501    0 -0.12086268401E+02  0.22254587029E+02 -0.66340697215E+03  0.66389016804E+03  0.00000000000E+00 0. -1.
         -2    1    1    2    0  502 -0.68533406167E+01  0.25659438132E+02 -0.43083298884E+02  0.50611714905E+02  0.00000000000E+00 0.  1.
<mgrwt>
<rscale>  2 0.73695579E+02</rscale>
<asrwt>0</asrwt>
<pdfrwt beam="1">  1       21 0.15801644E-02 0.73695579E+02</pdfrwt>
<pdfrwt beam="2">  1       21 0.16530371E+00 0.73695579E+02</pdfrwt>
<totfact> 0.43277049E+05</totfact>
</mgrwt>
</event>
<event>
 5    1  0.2653572E+000  0.1235300E+03  0.7546771E-02  0.1237385E+00
         21   -1    0    0  501  502  0.00000000000E+00  0.00000000000E+00  0.48998200312E+03  0.48998200312E+03  0.00000000000E+00 0.  1.
         21   -1    0    0  502  503 -0.00000000000E+00 -0.00000000000E+00 -0.16263575671E+03  0.16263575671E+03  0.00000000000E+00 0.  1.
         24    1    1    2    0    0  0.46710237517E+02  0.88183696038E+02  0.41404915175E+03  0.43343064792E+03  0.80419002446E+02 0.  1.
          1    1    1    2  501    0  0.16358933708E+02 -0.22714068279E+02  0.48656925791E+02  0.56134125425E+02  0.00000000000E+00 0. -1.
         -2    1    1    2    0  503 -0.63069171225E+02 -0.65469627759E+02 -0.13535983113E+03  0.16305298648E+03  0.00000000000E+00 0.  1.
<mgrwt>
<rscale>  2 0.12353004E+03</rscale>
<asrwt>0</asrwt>
<pdfrwt beam="1">  1       21 0.75381846E-01 0.12353004E+03</pdfrwt>
<pdfrwt beam="2">  1       21 0.25020886E-01 0.12353004E+03</pdfrwt>
<totfact> 0.24835368E+04</totfact>
</mgrwt>
</event>
<event>
 5    1  0.1946229E+000  0.7125924E+02  0.7546771E-02  0.1355863E+00
         21   -1    0    0  501  502  0.00000000000E+00  0.00000000000E+00  0.11391242584E+02  0.11391242584E+02  0.00000000000E+00 0. -1.
         21   -1    0    0  502  503 -0.00000000000E+00 -0.00000000000E+00 -0.52824542542E+03  0.52824542542E+03  0.00000000000E+00 0.  1.
         24    1    1    2    0    0  0.27970280452E+01  0.11670542307E+02 -0.38552374818E+03  0.39400482394E+03  0.80419002446E+02 0.  1.
          1    1    1    2  501    0  0.23439247893E+02 -0.22809631638E+02 -0.53026187471E+02  0.62301317762E+02  0.00000000000E+00 0. -1.
         -2    1    1    2    0  503 -0.26236275938E+02  0.11139089330E+02 -0.78304247183E+02  0.83330526298E+02  0.00000000000E+00 0.  1.
<mgrwt>
<rscale>  2 0.71259236E+02</rscale>
<asrwt>0</asrwt>
<pdfrwt beam="1">  1       21 0.17524992E-02 0.71259236E+02</pdfrwt>
<pdfrwt beam="2">  1       21 0.81268511E-01 0.71259236E+02</pdfrwt>
<totfact> 0.19878358E+06</totfact>
</mgrwt>
</event>
<event>
 5    1  0.1946229E+000  0.8988154E+02  0.7546771E-02  0.1303139E+00
         21   -1    0    0  503  502  0.00000000000E+00  0.00000000000E+00  0.67024747735E+03  0.67024747735E+03  0.00000000000E+00 0.  1.
         21   -1    0    0  501  503 -0.00000000000E+00 -0.00000000000E+00 -0.31872119987E+02  0.31872119987E+02  0.00000000000E+00 0. -1.
         24    1    1    2    0    0 -0.39517885296E+01 -0.23797973970E+02  0.18837776251E+03  0.20624101813E+03  0.80419002446E+02 0.  1.
          1    1    1    2  501    0 -0.36641847854E+02 -0.15053955744E+02 -0.27013816520E+01  0.39705718235E+02  0.00000000000E+00 0. -1.
         -2    1    1    2    0  502  0.40593636384E+02  0.38851929714E+02  0.45269897650E+03  0.45617286097E+03  0.00000000000E+00 0.  1.
<mgrwt>
<rscale>  2 0.89881543E+02</rscale>
<asrwt>0</asrwt>
<pdfrwt beam="1">  1       21 0.10311499E+00 0.89881543E+02</pdfrwt>
<pdfrwt beam="2">  1       21 0.49034036E-02 0.89881543E+02</pdfrwt>
<totfact> 0.21929528E+05</totfact>
</mgrwt>
</event>
<event>
 5    1  0.1946229E+000  0.8705424E+02  0.7546771E-02  0.1310146E+00
         21   -1    0    0  501  502  0.00000000000E+00  0.00000000000E+00  0.79259892265E+03  0.79259892265E+03  0.00000000000E+00 0.  1.
         21   -1    0    0  502  503 -0.00000000000E+00 -0.00000000000E+00 -0.72170324161E+02  0.72170324161E+02  0.00000000000E+00 0.  1.
         24    1    1    2    0    0 -0.29551155934E+02  0.61734749933E+02  0.28215554317E+03  0.30126967431E+03  0.80419002446E+02 0.  1.
          1    1    1    2  501    0  0.21573563308E+02 -0.41892619234E+02  0.49791481642E+03  0.50013955512E+03  0.00000000000E+00 0. -1.
         -2    1    1    2    0  503  0.79775926254E+01 -0.19842130699E+02 -0.59641761103E+02  0.63360017379E+02  0.00000000000E+00 0.  1.
<mgrwt>
<rscale>  2 0.87054235E+02</rscale>
<asrwt>0</asrwt>
<pdfrwt beam="1">  1       21 0.12193829E+00 0.87054235E+02</pdfrwt>
<pdfrwt beam="2">  1       21 0.11103127E-01 0.87054235E+02</pdfrwt>
<totfact> 0.36804532E+04</totfact>
</mgrwt>
</event>
<event>
 5    1  0.1946229E+000  0.1104702E+03  0.7546771E-02  0.1259702E+00
         21   -1    0    0  501  502  0.00000000000E+00  0.00000000000E+00  0.53296473244E+03  0.53296473244E+03  0.00000000000E+00 0.  1.
         21   -1    0    0  502  503 -0.00000000000E+00 -0.00000000000E+00 -0.40774462855E+02  0.40774462855E+02  0.00000000000E+00 0.  1.
         24    1    1    2    0    0 -0.27764694140E+02 -0.89461516792E+02  0.42122289446E+03  0.43894211919E+03  0.80419002446E+02 0.  1.
          1    1    1    2  501    0  0.29588847217E+02  0.50869565011E+02  0.75688424709E+02  0.95874658586E+02  0.00000000000E+00 0. -1.
         -2    1    1    2    0  503 -0.18241530770E+01  0.38591951782E+02 -0.47210495796E+01  0.38922417524E+02  0.00000000000E+00 0.  1.
<mgrwt>
<rscale>  2 0.11047020E+03</rscale>
<asrwt>0</asrwt>
<pdfrwt beam="1">  1       21 0.81994569E-01 0.11047020E+03</pdfrwt>
<pdfrwt beam="2">  1       21 0.62729947E-02 0.11047020E+03</pdfrwt>
<totfact> 0.24302155E+05</totfact>
</mgrwt>
</event>
<event>
 5    1  0.1946229E+000  0.7174951E+02  0.7546771E-02  0.1354243E+00
         21   -1    0    0  501  502  0.00000000000E+00  0.00000000000E+00  0.37184329607E+03  0.37184329607E+03  0.00000000000E+00 0.  1.
         21   -1    0    0  502  503 -0.00000000000E+00 -0.00000000000E+00 -0.14598507722E+02  0.14598507722E+02  0.00000000000E+00 0. -1.
         24    1    1    2    0    0  0.85778223459E-01  0.89587567522E+01  0.15687071460E+03  0.17651035022E+03  0.80419002446E+02 0. -1.
          1    1    1    2  501    0 -0.31009467482E+02 -0.48755114378E+01  0.96803248195E+02  0.10176554695E+03  0.00000000000E+00 0. -1.
         -2    1    1    2    0  503  0.30923689259E+02 -0.40832453144E+01  0.10357082555E+03  0.10816590662E+03  0.00000000000E+00 0.  1.
<mgrwt>
<rscale>  2 0.71749515E+02</rscale>
<asrwt>0</asrwt>
<pdfrwt beam="1">  1       21 0.57206654E-01 0.71749515E+02</pdfrwt>
<pdfrwt beam="2">  1       21 0.22459245E-02 0.71749515E+02</pdfrwt>
<totfact> 0.28338776E+06</totfact>
</mgrwt>
</event>
<event>
 5    1  0.1946229E+000  0.7353034E+02  0.7546771E-02  0.1348483E+00
         21   -1    0    0  501  502  0.00000000000E+00  0.00000000000E+00  0.80699041290E+03  0.80699041290E+03  0.00000000000E+00 0.  1.
         21   -1    0    0  502  503 -0.00000000000E+00 -0.00000000000E+00 -0.18043227739E+02  0.18043227739E+02  0.00000000000E+00 0.  1.
         24    1    1    2    0    0  0.16073170457E+02 -0.11140257488E+02  0.24952744831E+03  0.26289468530E+03  0.80419002446E+02 0.  0.
          1    1    1    2  501    0  0.20341553185E+02 -0.94889070807E+01  0.51112994157E+03  0.51162255161E+03  0.00000000000E+00 0. -1.
         -2    1    1    2    0  503 -0.36414723641E+02  0.20629164569E+02  0.28289795280E+02  0.50516403729E+02  0.00000000000E+00 0.  1.
<mgrwt>
<rscale>  2 0.73530335E+02</rscale>
<asrwt>0</asrwt>
<pdfrwt beam="1">  1       21 0.12415234E+00 0.73530335E+02</pdfrwt>
<pdfrwt beam="2">  1       21 0.27758818E-02 0.73530335E+02</pdfrwt>
<totfact> 0.36039907E+05</totfact>
</mgrwt>
</event>
<event>
 5    1  0.1946229E+000  0.2135790E+03  0.7546771E-02  0.1138763E+00
         21   -1    0    0  501  502  0.00000000000E+00  0.00000000000E+00  0.56044348931E+02  0.56044348931E+02  0.00000000000E+00 0.  1.
         21   -1    0    0  502  503 -0.00000000000E+00 -0.00000000000E+00 -0.11645244732E+04  0.11645244732E+04  0.00000000000E+00 0.  1.
         24    1    1    2    0    0 -0.12782802762E+03  0.13912477343E+03 -0.27353105546E+03  0.34202655084E+03  0.80419002446E+02 0.  1.
          1    1    1    2  501    0 -0.20908718730E+02 -0.49006740823E+01 -0.16962149634E+01  0.21542243862E+02  0.00000000000E+00 0. -1.
         -2    1    1    2    0  503  0.14873674635E+03 -0.13422409935E+03 -0.83325285383E+03  0.85700002740E+03  0.00000000000E+00 0.  1.
<mgrwt>
<rscale>  2 0.21357900E+03</rscale>
<asrwt>0</asrwt>
<pdfrwt beam="1">  1       21 0.86222069E-02 0.21357900E+03</pdfrwt>
<pdfrwt beam="2">  1       21 0.17915763E+00 0.21357900E+03</pdfrwt>
<totfact> 0.19129212E+04</totfact>
</mgrwt>
</event>
<event>
 5    1  0.1946229E+000  0.8811279E+02  0.7546771E-02  0.1307487E+00
         21   -1    0    0  503  502  0.00000000000E+00  0.00000000000E+00  0.17787515309E+03  0.17787515309E+03  0.00000000000E+00 0.  1.
         21   -1    0    0  501  503 -0.00000000000E+00 -0.00000000000E+00 -0.11306479461E+03  0.11306479461E+03  0.00000000000E+00 0.  1.
         24    1    1    2    0    0  0.41568825142E+02 -0.10905444202E+02 -0.54433771167E+02  0.10619391383E+03  0.80419002446E+02 0.  1.
          1    1    1    2  501    0 -0.20309167641E+02 -0.31573855639E+02 -0.16442662825E+02  0.40984531362E+02  0.00000000000E+00 0. -1.
         -2    1    1    2    0  502 -0.21259657501E+02  0.42479299840E+02  0.13568679248E+03  0.14376150251E+03  0.00000000000E+00 0.  1.
<mgrwt>
<rscale>  2 0.88112795E+02</rscale>
<asrwt>0</asrwt>
<pdfrwt beam="1">  1       21 0.27365408E-01 0.88112795E+02</pdfrwt>
<pdfrwt beam="2">  1       21 0.17394584E-01 0.88112795E+02</pdfrwt>
<totfact> 0.38671504E+05</totfact>
</mgrwt>
</event>
<event>
 5    1  0.1946229E+000  0.9334027E+02  0.7546771E-02  0.1294959E+00
         21   -1    0    0  501  502  0.00000000000E+00  0.00000000000E+00  0.11362941048E+04  0.11362941048E+04  0.00000000000E+00 0.  1.
         21   -1    0    0  502  503 -0.00000000000E+00 -0.00000000000E+00 -0.78824870117E+01  0.78824870117E+01  0.00000000000E+00 0. -1.
         24    1    1    2    0    0  0.51469962643E+01 -0.60671362090E+02  0.69863997867E+03  0.70588422669E+03  0.80419002446E+02 0.  0.
          1    1    1    2  501    0 -0.24898063721E+02  0.32767832008E+01  0.11283500206E+03  0.11559579826E+03  0.00000000000E+00 0. -1.
         -2    1    1    2    0  503  0.19751067457E+02  0.57394578889E+02  0.31693663708E+03  0.32269656688E+03  0.00000000000E+00 0.  1.
<mgrwt>
<rscale>  2 0.93340274E+02</rscale>
<asrwt>0</asrwt>
<pdfrwt beam="1">  1       21 0.17481435E+00 0.93340274E+02</pdfrwt>
<pdfrwt beam="2">  1       21 0.12126912E-02 0.93340274E+02</pdfrwt>
<totfact> 0.56242309E+05</totfact>
</mgrwt>
</event>
<event>
 5    1  0.1946229E+000  0.8882990E+02  0.7546771E-02  0.1305710E+00
         21   -1    0    0  501  502  0.00000000000E+00  0.00000000000E+00  0.65993683232E+02  0.65993683232E+02  0.00000000000E+00 0.  1.
         21   -1    0    0  502  503 -0.00000000000E+00 -0.00000000000E+00 -0.13158055202E+03  0.13158055202E+03  0.00000000000E+00 0.  1.
         24    1    1    2    0    0  0.51965310206E+02 -0.24724711894E+01 -0.50564075548E+02  0.10830719399E+03  0.80419002446E+02 0.  1.
          1    1    1    2  501    0  0.43550272212E+01  0.21880491271E+02  0.10256817531E+02  0.24554520281E+02  0.00000000000E+00 0. -1.
         -2    1    1    2    0  503 -0.56320337428E+02 -0.19408020082E+02 -0.25279610772E+02  0.64712520985E+02  0.00000000000E+00 0.  1.
<mgrwt>
<rscale>  2 0.88829900E+02</rscale>
<asrwt>0</asrwt>
<pdfrwt beam="1">  1       21 0.10152874E-01 0.88829900E+02</pdfrwt>
<pdfrwt beam="2">  1       21 0.20243162E-01 0.88829900E+02</pdfrwt>
<totfact> 0.17549862E+06</totfact>
</mgrwt>
</event>
<event>
 5    1  0.1946229E+000  0.1263178E+03  0.7546771E-02  0.1233024E+00
         21   -1    0    0  501  502  0.00000000000E+00  0.00000000000E+00  0.14919653068E+04  0.14919653068E+04  0.00000000000E+00 0.  1.
         21   -1    0    0  502  503 -0.00000000000E+00 -0.00000000000E+00 -0.11787099126E+02  0.11787099126E+02  0.00000000000E+00 0. -1.
         24    1    1    2    0    0 -0.32146246057E+01 -0.54341030565E+02  0.50023110531E+03  0.50957006985E+03  0.80419002446E+02 0.  0.
          1    1    1    2  501    0 -0.67304990878E+02  0.13567746516E+01  0.61740632848E+03  0.62106551754E+03  0.00000000000E+00 0. -1.
         -2    1    1    2    0  503  0.70519615484E+02  0.52984255913E+02  0.36254077393E+03  0.37311681858E+03  0.00000000000E+00 0.  1.
<mgrwt>
<rscale>  2 0.12631785E+03</rscale>
<asrwt>0</asrwt>
<pdfrwt beam="1">  1       21 0.22953297E+00 0.12631785E+03</pdfrwt>
<pdfrwt beam="2">  1       21 0.18134010E-02 0.12631785E+03</pdfrwt>
<totfact> 0.13280624E+05</totfact>
</mgrwt>
</event>
<event>
 5    1  0.1946229E+000  0.8094540E+02  0.7546771E-02  0.1326390E+00
         21   -1    0    0  501  502  0.00000000000E+00  0.00000000000E+00  0.67442405897E+03  0.67442405897E+03  0.00000000000E+00 0. -1.
         21   -1    0    0  502  503 -0.00000000000E+00 -0.00000000000E+00 -0.11545211451E+02  0.11545211451E+02  0.00000000000E+00 0.  1.
         24    1    1    2    0    0  0.13409313626E+02  0.28010103090E+02  0.48370995004E+03  0.49133176906E+03  0.80419002446E+02 0. -1.
          1    1    1    2  501    0  0.27495183268E+02 -0.28058600673E+01  0.56579936583E+02  0.62969414619E+02  0.00000000000E+00 0. -1.
         -2    1    1    2    0  503 -0.40904496894E+02 -0.25204243023E+02  0.12258896090E+03  0.13166808674E+03  0.00000000000E+00 0.  1.
<mgrwt>
<rscale>  2 0.80945401E+02</rscale>
<asrwt>0</asrwt>
<pdfrwt beam="1">  1       21 0.10375752E+00 0.80945401E+02</pdfrwt>
<pdfrwt beam="2">  1       21 0.17761869E-02 0.80945401E+02</pdfrwt>
<totfact> 0.11245694E+06</totfact>
</mgrwt>
</event>
<event>
 5    1  0.1946229E+000  0.1188905E+03  0.7546771E-02  0.1244939E+00
         21   -1    0    0  501  502  0.00000000000E+00  0.00000000000E+00  0.19234489048E+03  0.19234489048E+03  0.00000000000E+00 0. -1.
         21   -1    0    0  502  503 -0.00000000000E+00 -0.00000000000E+00 -0.36449922178E+03  0.36449922178E+03  0.00000000000E+00 0.  1.
         24    1    1    2    0    0  0.24479643044E+02  0.37981312906E+02 -0.18582853172E+03  0.20746395400E+03  0.80419002446E+02 0.  1.
          1    1    1    2  501    0 -0.38248680398E+02 -0.86778453153E+02  0.16471054927E+03  0.19006058646E+03  0.00000000000E+00 0. -1.
         -2    1    1    2    0  503  0.13769037354E+02  0.48797140246E+02 -0.15103634885E+03  0.15931957180E+03  0.00000000000E+00 0.  1.
<mgrwt>
<rscale>  2 0.11889045E+03</rscale>
<asrwt>0</asrwt>
<pdfrwt beam="1">  1       21 0.29591522E-01 0.11889045E+03</pdfrwt>
<pdfrwt beam="2">  1       21 0.56076803E-01 0.11889045E+03</pdfrwt>
<totfact> 0.34191372E+04</totfact>
</mgrwt>
</event>
<event>
 5    1  0.1946229E+000  0.1872828E+03  0.7546771E-02  0.1160935E+00
         21   -1    0    0  501  502  0.00000000000E+00  0.00000000000E+00  0.78997191866E+03  0.78997191866E+03  0.00000000000E+00 0.  1.
         21   -1    0    0  502  503 -0.00000000000E+00 -0.00000000000E+00 -0.12261519460E+03  0.12261519460E+03  0.00000000000E+00 0.  1.
         24    1    1    2    0    0 -0.12184619562E+03 -0.66271913408E+02  0.19423362086E+03  0.25185785142E+03  0.80419002446E+02 0.  1.
          1    1    1    2  501    0  0.70162028024E+02  0.12042748544E+03  0.54161707548E+03  0.55926250177E+03  0.00000000000E+00 0. -1.
         -2    1    1    2    0  503  0.51684167595E+02 -0.54155572032E+02 -0.68493972280E+02  0.10146676008E+03  0.00000000000E+00 0.  1.
<mgrwt>
<rscale>  2 0.18728283E+03</rscale>
<asrwt>0</asrwt>
<pdfrwt beam="1">  1       21 0.12153414E+00 0.18728283E+03</pdfrwt>
<pdfrwt beam="2">  1       21 0.18863877E-01 0.18728283E+03</pdfrwt>
<totfact> 0.13219741E+04</totfact>
</mgrwt>
</event>
<event>
 5    1  0.1946229E+000  0.8018495E+02  0.7546771E-02  0.1328527E+00
         21   -1    0    0  501  502  0.00000000000E+00  0.00000000000E+00  0.69388987178E+02  0.69388987178E+02  0.00000000000E+00 0.  1.
         21   -1    0    0  502  503 -0.00000000000E+00 -0.00000000000E+00 -0.17610873099E+03  0.17610873099E+03  0.00000000000E+00 0.  1.
         24    1    1    2    0    0  0.35161030028E+02  0.23445924090E+02 -0.10948240306E+03  0.14226602519E+03  0.80419002446E+02 0.  1.
          1    1    1    2  501    0 -0.45032329104E+02 -0.10464246453E+01  0.38945797727E+02  0.59546459422E+02  0.00000000000E+00 0. -1.
         -2    1    1    2    0  503  0.98712990755E+01 -0.22399499445E+02 -0.36183138477E+02  0.43685233556E+02  0.00000000000E+00 0.  1.
<mgrwt>
<rscale>  2 0.80184953E+02</rscale>
<asrwt>0</asrwt>
<pdfrwt beam="1">  1       21 0.10675229E-01 0.80184953E+02</pdfrwt>
<pdfrwt beam="2">  1       21 0.27093651E-01 0.80184953E+02</pdfrwt>
<totfact> 0.93392198E+05</totfact>
</mgrwt>
</event>
<event>
 5    1  0.1946229E+000  0.7646702E+02  0.7546771E-02  0.1339387E+00
         21   -1    0    0  501  502  0.00000000000E+00  0.00000000000E+00  0.35108212639E+03  0.35108212639E+03  0.00000000000E+00 0.  1.
         21   -1    0    0  502  503 -0.00000000000E+00 -0.00000000000E+00 -0.55330067281E+02  0.55330067281E+02  0.00000000000E+00 0.  1.
         24    1    1    2    0    0  0.43154708241E+02 -0.31946051443E+02  0.32321801284E+03  0.33737216664E+03  0.80419002446E+02 0.  1.
          1    1    1    2  501    0 -0.10599417346E+02  0.17855069519E+02  0.45477274607E+01  0.21256363298E+02  0.00000000000E+00 0. -1.
         -2    1    1    2    0  503 -0.32555290895E+02  0.14090981924E+02 -0.32013681186E+02  0.47783663735E+02  0.00000000000E+00 0.  1.
<mgrwt>
<rscale>  2 0.76467021E+02</rscale>
<asrwt>0</asrwt>
<pdfrwt beam="1">  1       21 0.54012633E-01 0.76467021E+02</pdfrwt>
<pdfrwt beam="2">  1       21 0.85123183E-02 0.76467021E+02</pdfrwt>
<totfact> 0.35605007E+05</totfact>
</mgrwt>
</event>
<event>
 5    1  0.1946229E+000  0.9051388E+02  0.7546771E-02  0.1301612E+00
         21   -1    0    0  503  502  0.00000000000E+00  0.00000000000E+00  0.14665257525E+03  0.14665257525E+03  0.00000000000E+00 0.  1.
         21   -1    0    0  501  503 -0.00000000000E+00 -0.00000000000E+00 -0.12315177991E+03  0.12315177991E+03  0.00000000000E+00 0. -1.
         24    1    1    2    0    0 -0.57522152146E+02  0.38327639906E+02  0.17262284958E+02  0.10743839353E+03  0.80419002446E+02 0.  1.
          1    1    1    2  501    0  0.78752380855E+01 -0.20955886470E+02 -0.67882434690E+02  0.71478622623E+02  0.00000000000E+00 0. -1.
         -2    1    1    2    0  502  0.49646914061E+02 -0.17371753436E+02  0.74120945069E+02  0.90887339003E+02  0.00000000000E+00 0.  1.
<mgrwt>
<rscale>  2 0.90513881E+02</rscale>
<asrwt>0</asrwt>
<pdfrwt beam="1">  1       21 0.22561935E-01 0.90513881E+02</pdfrwt>
<pdfrwt beam="2">  1       21 0.18946428E-01 0.90513881E+02</pdfrwt>
<totfact> 0.47508519E+05</totfact>
</mgrwt>
</event>
<event>
 5    1  0.1946229E+000  0.8587226E+02  0.7546771E-02  0.1313167E+00
         21   -1    0    0  503  502  0.00000000000E+00  0.00000000000E+00  0.28198952685E+02  0.28198952685E+02  0.00000000000E+00 0.  1.
         21   -1    0    0  501  503 -0.00000000000E+00 -0.00000000000E+00 -0.33869165906E+03  0.33869165906E+03  0.00000000000E+00 0.  1.
         24    1    1    2    0    0 -0.50469700329E+02  0.40714565256E+02 -0.93428553573E+02  0.13928739014E+03  0.80419002446E+02 0.  1.
          1    1    1    2  501    0  0.26118661425E+02 -0.73503078323E+01 -0.88650019309E+02  0.92709424674E+02  0.00000000000E+00 0. -1.
         -2    1    1    2    0  502  0.24351038905E+02 -0.33364257424E+02 -0.12841413350E+03  0.13489379693E+03  0.00000000000E+00 0.  1.
<mgrwt>
<rscale>  2 0.85872259E+02</rscale>
<asrwt>0</asrwt>
<pdfrwt beam="1">  1       21 0.43382999E-02 0.85872259E+02</pdfrwt>
<pdfrwt beam="2">  1       21 0.52106415E-01 0.85872259E+02</pdfrwt>
<totfact> 0.11880727E+06</totfact>
</mgrwt>
</event>
<event>
 5    1  0.1946229E+000  0.7480928E+02  0.7546771E-02  0.1344463E+00
         21   -1    0    0  503  502  0.00000000000E+00  0.00000000000E+00  0.88065448882E+02  0.88065448882E+02  0.00000000000E+00 0. -1.
         21   -1    0    0  501  503 -0.00000000000E+00 -0.00000000000E+00 -0.11079262166E+03  0.11079262166E+03  0.00000000000E+00 0. -1.
         24    1    1    2    0    0  0.24943843722E+02 -0.19064790785E+02  0.27640740803E+02  0.90647052317E+02  0.80419002446E+02 0. -1.
          1    1    1    2  501    0 -0.66855468076E+01 -0.19503081134E+02 -0.60869548756E+02  0.64266388381E+02  0.00000000000E+00 0. -1.
         -2    1    1    2    0  502 -0.18258296915E+02  0.38567871919E+02  0.10501635176E+02  0.43944629842E+02  0.00000000000E+00 0.  1.
<mgrwt>
<rscale>  2 0.74809285E+02</rscale>
<asrwt>0</asrwt>
<pdfrwt beam="1">  1       21 0.13548531E-01 0.74809285E+02</pdfrwt>
<pdfrwt beam="2">  1       21 0.17045019E-01 0.74809285E+02</pdfrwt>
<totfact> 0.14389616E+06</totfact>
</mgrwt>
</event>
<event>
 5    1  0.1946229E+000  0.9396366E+02  0.7546771E-02  0.1293527E+00
         21   -1    0    0  501  502  0.00000000000E+00  0.00000000000E+00  0.76073744247E+01  0.76073744247E+01  0.00000000000E+00 0.  1.
         21   -1    0    0  502  503 -0.00000000000E+00 -0.00000000000E+00 -0.17727307147E+04  0.17727307147E+04  0.00000000000E+00 0. -1.
         24    1    1    2    0    0  0.25166034382E+02  0.58634082286E+02 -0.92098296238E+03  0.92668663411E+03  0.80419002446E+02 0. -1.
          1    1    1    2  501    0  0.12230691800E+02 -0.43054321859E+02 -0.11524653280E+03  0.12363263232E+03  0.00000000000E+00 0. -1.
         -2    1    1    2    0  503 -0.37396726182E+02 -0.15579760427E+02 -0.72889384507E+03  0.73001882267E+03  0.00000000000E+00 0.  1.
<mgrwt>
<rscale>  2 0.93963657E+02</rscale>
<asrwt>0</asrwt>
<pdfrwt beam="1">  1       21 0.11703642E-02 0.93963657E+02</pdfrwt>
<pdfrwt beam="2">  1       21 0.27272805E+00 0.93963657E+02</pdfrwt>
<totfact> 0.15617454E+05</totfact>
</mgrwt>
</event>
<event>
 5    1  0.1946229E+000  0.8362968E+02  0.7546771E-02  0.1319055E+00
         21   -1    0    0  501  502  0.00000000000E+00  0.00000000000E+00  0.87471454762E+02  0.87471454762E+02  0.00000000000E+00 0.  1.
         21   -1    0    0  502  503 -0.00000000000E+00 -0.00000000000E+00 -0.11195948940E+03  0.11195948940E+03  0.00000000000E+00 0.  1.
         24    1    1    2    0    0  0.24508302357E+02 -0.13592104073E+02  0.25568108629E+02  0.88917637794E+02  0.80419002446E+02 0.  1.
          1    1    1    2  501    0  0.25927728295E+02 -0.81439527842E+01  0.10159703167E+02  0.29013628348E+02  0.00000000000E+00 0. -1.
         -2    1    1    2    0  503 -0.50436030652E+02  0.21736056857E+02 -0.60215846436E+02  0.81499678022E+02  0.00000000000E+00 0.  1.
<mgrwt>
<rscale>  2 0.83629680E+02</rscale>
<asrwt>0</asrwt>
<pdfrwt beam="1">  1       21 0.13457147E-01 0.83629680E+02</pdfrwt>
<pdfrwt beam="2">  1       21 0.17224537E-01 0.83629680E+02</pdfrwt>
<totfact> 0.14344333E+06</totfact>
</mgrwt>
</event>
<event>
 5    1  0.1946229E+000  0.1079032E+03  0.7546771E-02  0.1264503E+00
         21   -1    0    0  501  502  0.00000000000E+00  0.00000000000E+00  0.62949161061E+03  0.62949161061E+03  0.00000000000E+00 0. -1.
         21   -1    0    0  502  503 -0.00000000000E+00 -0.00000000000E+00 -0.60098063440E+02  0.60098063440E+02  0.00000000000E+00 0. -1.
         24    1    1    2    0    0 -0.24851695360E+02 -0.46391894587E+02  0.16590990158E+03  0.19173712745E+03  0.80419002446E+02 0. -1.
          1    1    1    2  501    0  0.66092676908E+02  0.41799105436E+02  0.43735281124E+03  0.44428919484E+03  0.00000000000E+00 0. -1.
         -2    1    1    2    0  503 -0.41240981548E+02  0.45927891512E+01 -0.33869165640E+02  0.53563351766E+02  0.00000000000E+00 0.  1.
<mgrwt>
<rscale>  2 0.10790324E+03</rscale>
<asrwt>0</asrwt>
<pdfrwt beam="1">  1       21 0.96844859E-01 0.10790324E+03</pdfrwt>
<pdfrwt beam="2">  1       21 0.92458563E-02 0.10790324E+03</pdfrwt>
<totfact> 0.85810160E+04</totfact>
</mgrwt>
</event>
<event>
 5    1  0.1946229E+000  0.1159010E+03  0.7546771E-02  0.1250017E+00
         21   -1    0    0  501  502  0.00000000000E+00  0.00000000000E+00  0.59957049661E+03  0.59957049661E+03  0.00000000000E+00 0.  1.
         21   -1    0    0  502  503 -0.00000000000E+00 -0.00000000000E+00 -0.34281550515E+02  0.34281550515E+02  0.00000000000E+00 0.  1.
         24    1    1    2    0    0  0.54504613283E+02 -0.65240163630E+01  0.30576217646E+03  0.32089100980E+03  0.80419002446E+02 0.  1.
          1    1    1    2  501    0  0.31687780215E+02  0.31515372186E+02  0.20079500333E+03  0.20570845258E+03  0.00000000000E+00 0. -1.
         -2    1    1    2    0  503 -0.86192393498E+02 -0.24991355823E+02  0.58731766297E+02  0.10725258475E+03  0.00000000000E+00 0.  1.
<mgrwt>
<rscale>  2 0.11590098E+03</rscale>
<asrwt>0</asrwt>
<pdfrwt beam="1">  1       21 0.92241607E-01 0.11590098E+03</pdfrwt>
<pdfrwt beam="2">  1       21 0.52740851E-02 0.11590098E+03</pdfrwt>
<totfact> 0.24907192E+05</totfact>
</mgrwt>
</event>
<event>
 5    1  0.1946229E+000  0.7178931E+02  0.7546771E-02  0.1354112E+00
         21   -1    0    0  501  502  0.00000000000E+00  0.00000000000E+00  0.65182958072E+02  0.65182958072E+02  0.00000000000E+00 0. -1.
         21   -1    0    0  502  503 -0.00000000000E+00 -0.00000000000E+00 -0.25853991213E+03  0.25853991213E+03  0.00000000000E+00 0.  1.
         24    1    1    2    0    0  0.79144706724E+01  0.59064376218E+01 -0.25665140932E+02  0.84990824592E+02  0.80419002446E+02 0.  1.
          1    1    1    2  501    0 -0.33411361949E+02  0.67558900080E+01  0.26055073459E+02  0.42904871635E+02  0.00000000000E+00 0. -1.
         -2    1    1    2    0  503  0.25496891276E+02 -0.12662327630E+02 -0.19374688658E+03  0.19582717397E+03  0.00000000000E+00 0.  1.
<mgrwt>
<rscale>  2 0.71789311E+02</rscale>
<asrwt>0</asrwt>
<pdfrwt beam="1">  1       21 0.10028147E-01 0.71789311E+02</pdfrwt>
<pdfrwt beam="2">  1       21 0.39775372E-01 0.71789311E+02</pdfrwt>
<totfact> 0.49700439E+05</totfact>
</mgrwt>
</event>
<event>
 5    1  0.1946229E+000  0.1096760E+03  0.7546771E-02  0.1261171E+00
         21   -1    0    0  501  502  0.00000000000E+00  0.00000000000E+00  0.69081958603E+03  0.69081958603E+03  0.00000000000E+00 0.  1.
         21   -1    0    0  502  503 -0.00000000000E+00 -0.00000000000E+00 -0.50932043379E+02  0.50932043379E+02  0.00000000000E+00 0.  1.
         24    1    1    2    0    0  0.83784348800E+02  0.85952637541E+01  0.61167419025E+03  0.62266060309E+03  0.80419002446E+02 0.  1.
          1    1    1    2  501    0 -0.77468991918E+01  0.20168057959E+02  0.30955055247E+02  0.37748913285E+02  0.00000000000E+00 0. -1.
         -2    1    1    2    0  503 -0.76037449608E+02 -0.28763321713E+02 -0.27417028451E+01  0.81342113037E+02  0.00000000000E+00 0.  1.
<mgrwt>
<rscale>  2 0.10967598E+03</rscale>
<asrwt>0</asrwt>
<pdfrwt beam="1">  1       21 0.10627993E+00 0.10967598E+03</pdfrwt>
<pdfrwt beam="2">  1       21 0.78356995E-02 0.10967598E+03</pdfrwt>
<totfact> 0.91746493E+04</totfact>
</mgrwt>
</event>
<event>
 5    1  0.1946229E+000  0.1173802E+03  0.7546771E-02  0.1247483E+00
         21   -1    0    0  503  502  0.00000000000E+00  0.00000000000E+00  0.43103799850E+02  0.43103799850E+02  0.00000000000E+00 0.  1.
         21   -1    0    0  501  503 -0.00000000000E+00 -0.00000000000E+00 -0.12527874535E+04  0.12527874535E+04  0.00000000000E+00 0. -1.
         24    1    1    2    0    0  0.57973407284E+02  0.50693720658E+02 -0.25852578873E+03  0.28148457979E+03  0.80419002446E+02 0.  1.
          1    1    1    2  501    0  0.27259280542E+02 -0.11069555219E+02 -0.91217662470E+03  0.91265097276E+03  0.00000000000E+00 0. -1.
         -2    1    1    2    0  502 -0.85232687826E+02 -0.39624165440E+02 -0.38981240253E+02  0.10175570084E+03  0.00000000000E+00 0.  1.
<mgrwt>
<rscale>  2 0.11738019E+03</rscale>
<asrwt>0</asrwt>
<pdfrwt beam="1">  1       21 0.66313531E-02 0.11738019E+03</pdfrwt>
<pdfrwt beam="2">  1       21 0.19273655E+00 0.11738019E+03</pdfrwt>
<totfact> 0.26439703E+04</totfact>
</mgrwt>
</event>
<event>
 5    1  0.1946229E+000  0.1248649E+03  0.7546771E-02  0.1235281E+00
         21   -1    0    0  503  502  0.00000000000E+00  0.00000000000E+00  0.32876306498E+03  0.32876306498E+03  0.00000000000E+00 0.  1.
         21   -1    0    0  501  503 -0.00000000000E+00 -0.00000000000E+00 -0.14433989405E+03  0.14433989405E+03  0.00000000000E+00 0. -1.
         24    1    1    2    0    0 -0.90001400844E+02 -0.34807265872E+02  0.13134932476E+03  0.18174613884E+03  0.80419002446E+02 0. -1.
          1    1    1    2  501    0  0.44835335178E+02 -0.23292478260E+02 -0.10525938485E+03  0.11675737631E+03  0.00000000000E+00 0. -1.
         -2    1    1    2    0  502  0.45166065666E+02  0.58099744132E+02  0.15833323102E+03  0.17459944387E+03  0.00000000000E+00 0.  1.
<mgrwt>
<rscale>  2 0.12486485E+03</rscale>
<asrwt>0</asrwt>
<pdfrwt beam="1">  1       21 0.50578933E-01 0.12486485E+03</pdfrwt>
<pdfrwt beam="2">  1       21 0.22206138E-01 0.12486485E+03</pdfrwt>
<totfact> 0.72707172E+04</totfact>
</mgrwt>
</event>
<event>
 5    1  0.1946229E+000  0.1608727E+03  0.7546771E-02  0.1187715E+00
         21   -1    0    0  501  502  0.00000000000E+00  0.00000000000E+00  0.21977713252E+04  0.21977713252E+04  0.00000000000E+00 0.  1.
         21   -1    0    0  502  503 -0.00000000000E+00 -0.00000000000E+00 -0.20734172755E+02  0.20734172755E+02  0.00000000000E+00 0.  1.
         24    1    1    2    0    0 -0.11920150350E+03  0.92184727119E+02  0.46992631140E+03  0.50000497643E+03  0.80419002446E+02 0.  1.
          1    1    1    2  501    0  0.27568286241E+02 -0.16802367607E+02  0.10668038811E+04  0.10672922986E+04  0.00000000000E+00 0. -1.
         -2    1    1    2    0  503  0.91633217255E+02 -0.75382359512E+02  0.64030695994E+03  0.65120822290E+03  0.00000000000E+00 0.  1.
<mgrwt>
<rscale>  2 0.16087270E+03</rscale>
<asrwt>0</asrwt>
<pdfrwt beam="1">  1       21 0.33811848E+00 0.16087270E+03</pdfrwt>
<pdfrwt beam="2">  1       21 0.31898745E-02 0.16087270E+03</pdfrwt>
<totfact> 0.12206662E+04</totfact>
</mgrwt>
</event>
<event>
 5    1  0.1946229E+000  0.1109915E+03  0.7546771E-02  0.1258745E+00
         21   -1    0    0  503  502  0.00000000000E+00  0.00000000000E+00  0.39053205821E+03  0.39053205821E+03  0.00000000000E+00 0. -1.
         21   -1    0    0  501  503 -0.00000000000E+00 -0.00000000000E+00 -0.40101322445E+02  0.40101322445E+02  0.00000000000E+00 0.  1.
         24    1    1    2    0    0  0.46762099849E+02 -0.47301502042E+02  0.12676571363E+03  0.16419771066E+03  0.80419002446E+02 0. -1.
          1    1    1    2  501    0  0.23875429580E+02 -0.10756056708E+02  0.15445778222E+01  0.26231938819E+02  0.00000000000E+00 0. -1.
         -2    1    1    2    0  502 -0.70637529429E+02  0.58057558750E+02  0.22212044431E+03  0.24020373118E+03  0.00000000000E+00 0.  1.
<mgrwt>
<rscale>  2 0.11099146E+03</rscale>
<asrwt>0</asrwt>
<pdfrwt beam="1">  1       21 0.60081853E-01 0.11099146E+03</pdfrwt>
<pdfrwt beam="2">  1       21 0.61694345E-02 0.11099146E+03</pdfrwt>
<totfact> 0.49116931E+05</totfact>
</mgrwt>
</event>
<event>
 5    1  0.1946229E+000  0.8855133E+02  0.7546771E-02  0.1306398E+00
         21   -1    0    0  503  502  0.00000000000E+00  0.00000000000E+00  0.42038414459E+02  0.42038414459E+02  0.00000000000E+00 0.  1.
         21   -1    0    0  501  503 -0.00000000000E+00 -0.00000000000E+00 -0.20885345358E+03  0.20885345358E+03  0.00000000000E+00 0. -1.
         24    1    1    2    0    0 -0.61268840642E+02  0.29908708293E+02 -0.58033777474E+02  0.12034756727E+03  0.80419002446E+02 0. -1.
          1    1    1    2  501    0  0.22729824584E+02 -0.23336520612E+02 -0.41891536350E+02  0.53067305731E+02  0.00000000000E+00 0. -1.
         -2    1    1    2    0  502  0.38539016059E+02 -0.65721876814E+01 -0.66889725299E+02  0.77476995039E+02  0.00000000000E+00 0.  1.
<mgrwt>
<rscale>  2 0.88551334E+02</rscale>
<asrwt>0</asrwt>
<pdfrwt beam="1">  1       21 0.64674483E-02 0.88551334E+02</pdfrwt>
<pdfrwt beam="2">  1       21 0.32131301E-01 0.88551334E+02</pdfrwt>
<totfact> 0.15945319E+06</totfact>
</mgrwt>
</event>
<event>
 5    1  0.1946229E+000  0.6969589E+02  0.7546771E-02  0.1361130E+00
         21   -1    0    0  501  502  0.00000000000E+00  0.00000000000E+00  0.40721857483E+02  0.40721857483E+02  0.00000000000E+00 0. -1.
         21   -1    0    0  502  503 -0.00000000000E+00 -0.00000000000E+00 -0.40346618279E+03  0.40346618279E+03  0.00000000000E+00 0.  1.
         24    1    1    2    0    0  0.29622471607E+02 -0.26949050276E+02 -0.14238251139E+03  0.16835598486E+03  0.80419002446E+02 0.  0.
          1    1    1    2  501    0 -0.25090541315E+02  0.31045138921E+01  0.21236515098E+02  0.33017614139E+02  0.00000000000E+00 0. -1.
         -2    1    1    2    0  503 -0.45319302929E+01  0.23844536384E+02 -0.24159832902E+03  0.24281444127E+03  0.00000000000E+00 0.  1.
<mgrwt>
<rscale>  2 0.69695888E+02</rscale>
<asrwt>0</asrwt>
<pdfrwt beam="1">  1       21 0.62649011E-02 0.69695888E+02</pdfrwt>
<pdfrwt beam="2">  1       21 0.62071721E-01 0.69695888E+02</pdfrwt>
<totfact> 0.44783139E+05</totfact>
</mgrwt>
</event>
<event>
 5    1  0.2343580E+000  0.1162073E+03  0.7546771E-02  0.1249488E+00
         21   -1    0    0  501  502  0.00000000000E+00  0.00000000000E+00  0.64069844175E+03  0.64069844175E+03  0.00000000000E+00 0.  1.
         21   -1    0    0  502  503 -0.00000000000E+00 -0.00000000000E+00 -0.11022072717E+03  0.11022072717E+03  0.00000000000E+00 0.  1.
         24    1    1    2    0    0 -0.77404276580E+02  0.44295771326E+01  0.49886320727E+03  0.51121693899E+03  0.80419002446E+02 0.  1.
          1    1    1    2  501    0 -0.11127657086E+02  0.25039543757E+02  0.11276263764E+03  0.11604402592E+03  0.00000000000E+00 0. -1.
         -2    1    1    2    0  503  0.88531933666E+02 -0.29469120890E+02 -0.81148130333E+02  0.12365820402E+03  0.00000000000E+00 0.  1.
<mgrwt>
<rscale>  2 0.11620733E+03</rscale>
<asrwt>0</asrwt>
<pdfrwt beam="1">  1       21 0.98568989E-01 0.11620733E+03</pdfrwt>
<pdfrwt beam="2">  1       21 0.16957035E-01 0.11620733E+03</pdfrwt>
<totfact> 0.27966799E+04</totfact>
</mgrwt>
</event>
<event>
 5    1  0.1946229E+000  0.6647702E+02  0.7546771E-02  0.1372500E+00
         21   -1    0    0  503  502  0.00000000000E+00  0.00000000000E+00  0.18384584315E+03  0.18384584315E+03  0.00000000000E+00 0.  1.
         21   -1    0    0  501  503 -0.00000000000E+00 -0.00000000000E+00 -0.61033611900E+02  0.61033611900E+02  0.00000000000E+00 0.  1.
         24    1    1    2    0    0 -0.17097004793E+02 -0.14562344807E+02 -0.14816697629E+02  0.84800471356E+02  0.80419002446E+02 0.  1.
          1    1    1    2  501    0 -0.26784976411E+01  0.26316869417E+02  0.68953858913E+01  0.27336757527E+02  0.00000000000E+00 0. -1.
         -2    1    1    2    0  502  0.19775502435E+02 -0.11754524610E+02  0.13073354299E+03  0.13274222617E+03  0.00000000000E+00 0.  1.
<mgrwt>
<rscale>  2 0.66477024E+02</rscale>
<asrwt>0</asrwt>
<pdfrwt beam="1">  1       21 0.28283976E-01 0.66477024E+02</pdfrwt>
<pdfrwt beam="2">  1       21 0.93897865E-02 0.66477024E+02</pdfrwt>
<totfact> 0.10690726E+06</totfact>
</mgrwt>
</event>
<event>
 5    1  0.1946229E+000  0.1079031E+03  0.7546771E-02  0.1264503E+00
         21   -1    0    0  501  502  0.00000000000E+00  0.00000000000E+00  0.26133748929E+03  0.26133748929E+03  0.00000000000E+00 0. -1.
         21   -1    0    0  502  503 -0.00000000000E+00 -0.00000000000E+00 -0.76303721786E+02  0.76303721786E+02  0.00000000000E+00 0.  1.
         24    1    1    2    0    0  0.52636404970E+02  0.51013825856E+02  0.44063104324E+02  0.11739580348E+03  0.80419002446E+02 0.  1.
          1    1    1    2  501    0 -0.73341126378E+02 -0.39423681983E+02  0.16602714063E+03  0.18573680019E+03  0.00000000000E+00 0. -1.
         -2    1    1    2    0  503  0.20704721408E+02 -0.11590143873E+02 -0.25056477446E+02  0.34508607413E+02  0.00000000000E+00 0.  1.
<mgrwt>
<rscale>  2 0.10790313E+03</rscale>
<asrwt>0</asrwt>
<pdfrwt beam="1">  1       21 0.40205767E-01 0.10790313E+03</pdfrwt>
<pdfrwt beam="2">  1       21 0.11739034E-01 0.10790313E+03</pdfrwt>
<totfact> 0.36911878E+05</totfact>
</mgrwt>
</event>
<event>
 5    1  0.1946229E+000  0.7199682E+02  0.7546771E-02  0.1353431E+00
         21   -1    0    0  503  502  0.00000000000E+00  0.00000000000E+00  0.10949861182E+02  0.10949861182E+02  0.00000000000E+00 0.  1.
         21   -1    0    0  501  503 -0.00000000000E+00 -0.00000000000E+00 -0.57324212667E+03  0.57324212667E+03  0.00000000000E+00 0. -1.
         24    1    1    2    0    0  0.32405332256E+02 -0.37353894621E+02 -0.46436267827E+03  0.47386214443E+03  0.80419002446E+02 0. -1.
          1    1    1    2  501    0 -0.16507062064E+02  0.21810092115E+02 -0.65784619600E+02  0.71244504293E+02  0.00000000000E+00 0. -1.
         -2    1    1    2    0  502 -0.15898270192E+02  0.15543802506E+02 -0.32144967618E+02  0.39085339126E+02  0.00000000000E+00 0.  1.
<mgrwt>
<rscale>  2 0.71996820E+02</rscale>
<asrwt>0</asrwt>
<pdfrwt beam="1">  1       21 0.16845941E-02 0.71996820E+02</pdfrwt>
<pdfrwt beam="2">  1       21 0.88191094E-01 0.71996820E+02</pdfrwt>
<totfact> 0.17661073E+06</totfact>
</mgrwt>
</event>
<event>
 5    1  0.1946229E+000  0.8402007E+02  0.7546771E-02  0.1318015E+00
         21   -1    0    0  501  502  0.00000000000E+00  0.00000000000E+00  0.59906858743E+01  0.59906858743E+01  0.00000000000E+00 0.  1.
         21   -1    0    0  502  503 -0.00000000000E+00 -0.00000000000E+00 -0.13510098846E+04  0.13510098846E+04  0.00000000000E+00 0. -1.
         24    1    1    2    0    0 -0.40668199477E+02  0.49015725954E+02 -0.73221803197E+03  0.73936926237E+03  0.80419002446E+02 0. -1.
          1    1    1    2  501    0  0.17866401508E+02 -0.10577507613E+02 -0.70558371027E+02  0.73549817757E+02  0.00000000000E+00 0. -1.
         -2    1    1    2    0  503  0.22801797969E+02 -0.38438218341E+02 -0.54224279571E+03  0.54408149033E+03  0.00000000000E+00 0.  1.
<mgrwt>
<rscale>  2 0.84020067E+02</rscale>
<asrwt>0</asrwt>
<pdfrwt beam="1">  1       21 0.92164319E-03 0.84020067E+02</pdfrwt>
<pdfrwt beam="2">  1       21 0.20784785E+00 0.84020067E+02</pdfrwt>
<totfact> 0.53646915E+05</totfact>
</mgrwt>
</event>
<event>
 5    1  0.1946229E+000  0.6906755E+02  0.7546771E-02  0.1363293E+00
         21   -1    0    0  501  502  0.00000000000E+00  0.00000000000E+00  0.44658915825E+02  0.44658915825E+02  0.00000000000E+00 0. -1.
         21   -1    0    0  502  503 -0.00000000000E+00 -0.00000000000E+00 -0.13573603855E+03  0.13573603855E+03  0.00000000000E+00 0. -1.
         24    1    1    2    0    0  0.88266889527E+00  0.16096025535E+02 -0.92182489198E+02  0.12338836417E+03  0.80419002446E+02 0. -1.
          1    1    1    2  501    0  0.21061518060E+02 -0.24775616284E+02  0.55644605281E+01  0.32990633917E+02  0.00000000000E+00 0. -1.
         -2    1    1    2    0  503 -0.21944186955E+02  0.86795907495E+01 -0.44590940512E+01  0.24015956288E+02  0.00000000000E+00 0.  1.
<mgrwt>
<rscale>  2 0.69067548E+02</rscale>
<asrwt>0</asrwt>
<pdfrwt beam="1">  1       21 0.68706025E-02 0.69067548E+02</pdfrwt>
<pdfrwt beam="2">  1       21 0.20882467E-01 0.69067548E+02</pdfrwt>
<totfact> 0.31877981E+06</totfact>
</mgrwt>
</event>
<event>
 5    1  0.1946229E+000  0.8054199E+02  0.7546771E-02  0.1327520E+00
         21   -1    0    0  503  502  0.00000000000E+00  0.00000000000E+00  0.67447888819E+02  0.67447888819E+02  0.00000000000E+00 0.  1.
         21   -1    0    0  501  503 -0.00000000000E+00 -0.00000000000E+00 -0.10968165940E+03  0.10968165940E+03  0.00000000000E+00 0. -1.
         24    1    1    2    0    0 -0.43711823670E+01  0.59198500091E+02  0.46278017236E+01  0.10006099216E+03  0.80419002446E+02 0.  1.
          1    1    1    2  501    0 -0.49051959643E+01 -0.32451190628E+02 -0.26778419026E+02  0.42358286629E+02  0.00000000000E+00 0. -1.
         -2    1    1    2    0  502  0.92763783313E+01 -0.26747309463E+02 -0.20083153276E+02  0.34710269431E+02  0.00000000000E+00 0.  1.
<mgrwt>
<rscale>  2 0.80541990E+02</rscale>
<asrwt>0</asrwt>
<pdfrwt beam="1">  1       21 0.10376598E-01 0.80541990E+02</pdfrwt>
<pdfrwt beam="2">  1       21 0.16874101E-01 0.80541990E+02</pdfrwt>
<totfact> 0.23413136E+06</totfact>
</mgrwt>
</event>
<event>
 5    1  0.1946229E+000  0.8599972E+02  0.7546771E-02  0.1312839E+00
         21   -1    0    0  501  502  0.00000000000E+00  0.00000000000E+00  0.53430652118E+02  0.53430652118E+02  0.00000000000E+00 0. -1.
         21   -1    0    0  502  503 -0.00000000000E+00 -0.00000000000E+00 -0.16309528098E+03  0.16309528098E+03  0.00000000000E+00 0. -1.
         24    1    1    2    0    0 -0.16588842927E+02 -0.12958823048E+02 -0.49255249750E+02  0.96625133308E+02  0.80419002446E+02 0.  1.
          1    1    1    2  501    0 -0.20307659124E+02 -0.27453992390E+02  0.51167148537E+01  0.34529747873E+02  0.00000000000E+00 0. -1.
         -2    1    1    2    0  503  0.36896502051E+02  0.40412815438E+02 -0.65526093965E+02  0.85371051918E+02  0.00000000000E+00 0.  1.
<mgrwt>
<rscale>  2 0.85999717E+02</rscale>
<asrwt>0</asrwt>
<pdfrwt beam="1">  1       21 0.82201003E-02 0.85999717E+02</pdfrwt>
<pdfrwt beam="2">  1       21 0.25091582E-01 0.85999717E+02</pdfrwt>
<totfact> 0.16945270E+06</totfact>
</mgrwt>
</event>
<event>
 5    1  0.1946229E+000  0.8845454E+02  0.7546771E-02  0.1306638E+00
         21   -1    0    0  503  502  0.00000000000E+00  0.00000000000E+00  0.52015305378E+02  0.52015305378E+02  0.00000000000E+00 0. -1.
         21   -1    0    0  501  503 -0.00000000000E+00 -0.00000000000E+00 -0.40958946350E+03  0.40958946350E+03  0.00000000000E+00 0. -1.
         24    1    1    2    0    0 -0.39275576531E+02 -0.42539714267E+02 -0.23027335330E+02  0.10173333932E+03  0.80419002446E+02 0. -1.
          1    1    1    2  501    0 -0.68026630427E+01  0.29003792388E+02 -0.29809300453E+03  0.29957792900E+03  0.00000000000E+00 0. -1.
         -2    1    1    2    0  502  0.46078239574E+02  0.13535921879E+02 -0.36453818260E+02  0.60293500554E+02  0.00000000000E+00 0.  1.
<mgrwt>
<rscale>  2 0.88454544E+02</rscale>
<asrwt>0</asrwt>
<pdfrwt beam="1">  1       21 0.80023547E-02 0.88454544E+02</pdfrwt>
<pdfrwt beam="2">  1       21 0.63013764E-01 0.88454544E+02</pdfrwt>
<totfact> 0.28630160E+05</totfact>
</mgrwt>
</event>
<event>
 5    1  0.1946229E+000  0.1273804E+03  0.7546771E-02  0.1231395E+00
         21   -1    0    0  503  502  0.00000000000E+00  0.00000000000E+00  0.12924583558E+03  0.12924583558E+03  0.00000000000E+00 0.  1.
         21   -1    0    0  501  503 -0.00000000000E+00 -0.00000000000E+00 -0.37974574253E+03  0.37974574253E+03  0.00000000000E+00 0. -1.
         24    1    1    2    0    0  0.28540941089E+02  0.10676502255E+03 -0.85487208178E+02  0.16120990687E+03  0.80419002446E+02 0.  0.
          1    1    1    2  501    0  0.81059058760E+01 -0.49063821326E+02 -0.24070760442E+03  0.24579079539E+03  0.00000000000E+00 0. -1.
         -2    1    1    2    0  502 -0.36646846965E+02 -0.57701201220E+02  0.75694905650E+02  0.10199087585E+03  0.00000000000E+00 0.  1.
<mgrwt>
<rscale>  2 0.12738045E+03</rscale>
<asrwt>0</asrwt>
<pdfrwt beam="1">  1       21 0.19883975E-01 0.12738045E+03</pdfrwt>
<pdfrwt beam="2">  1       21 0.58422421E-01 0.12738045E+03</pdfrwt>
<totfact> 0.65969812E+04</totfact>
</mgrwt>
</event>
<event>
 5    1  0.1946229E+000  0.7367531E+02  0.7546771E-02  0.1348023E+00
         21   -1    0    0  501  502  0.00000000000E+00  0.00000000000E+00  0.45004588083E+02  0.45004588083E+02  0.00000000000E+00 0. -1.
         21   -1    0    0  502  503 -0.00000000000E+00 -0.00000000000E+00 -0.18544454590E+03  0.18544454590E+03  0.00000000000E+00 0. -1.
         24    1    1    2    0    0 -0.28465008420E+02 -0.84705767831E+01 -0.84037814387E+02  0.12004823021E+03  0.80419002446E+02 0. -1.
          1    1    1    2  501    0  0.25158226493E+02  0.30391823649E+02  0.97434370712E+01  0.40639068283E+02  0.00000000000E+00 0. -1.
         -2    1    1    2    0  503  0.33067819270E+01 -0.21921246866E+02 -0.66145580501E+02  0.69761835488E+02  0.00000000000E+00 0.  1.
<mgrwt>
<rscale>  2 0.73675314E+02</rscale>
<asrwt>0</asrwt>
<pdfrwt beam="1">  1       21 0.69237827E-02 0.73675314E+02</pdfrwt>
<pdfrwt beam="2">  1       21 0.28529931E-01 0.73675314E+02</pdfrwt>
<totfact> 0.17706579E+06</totfact>
</mgrwt>
</event>
<event>
 5    1  0.1946229E+000  0.6925001E+02  0.7546771E-02  0.1362662E+00
         21   -1    0    0  501  502  0.00000000000E+00  0.00000000000E+00  0.81846434174E+03  0.81846434174E+03  0.00000000000E+00 0. -1.
         21   -1    0    0  502  503 -0.00000000000E+00 -0.00000000000E+00 -0.72012180103E+01  0.72012180103E+01  0.00000000000E+00 0.  1.
         24    1    1    2    0    0  0.17835740539E+01 -0.94011459168E+01  0.38802248465E+03  0.39638393916E+03  0.80419002446E+02 0.  1.
          1    1    1    2  501    0 -0.28056210794E+02 -0.34480923854E+01  0.33766890916E+03  0.33885001478E+03  0.00000000000E+00 0. -1.
         -2    1    1    2    0  503  0.26272636740E+02  0.12849238302E+02  0.85571729920E+02  0.90431605801E+02  0.00000000000E+00 0.  1.
<mgrwt>
<rscale>  2 0.69250015E+02</rscale>
<asrwt>0</asrwt>
<pdfrwt beam="1">  1       21 0.12591752E+00 0.69250015E+02</pdfrwt>
<pdfrwt beam="2">  1       21 0.11078803E-02 0.69250015E+02</pdfrwt>
<totfact> 0.14910990E+06</totfact>
</mgrwt>
</event>
<event>
 5    1  0.1946229E+000  0.7620871E+02  0.7546771E-02  0.1340168E+00
         21   -1    0    0  501  502  0.00000000000E+00  0.00000000000E+00  0.87704703907E+01  0.87704703907E+01  0.00000000000E+00 0.  1.
         21   -1    0    0  502  503 -0.00000000000E+00 -0.00000000000E+00 -0.11426419972E+04  0.11426419972E+04  0.00000000000E+00 0.  1.
         24    1    1    2    0    0  0.63784661701E+00  0.17808060930E+02 -0.23354768901E+03  0.24764747702E+03  0.80419002446E+02 0.  1.
          1    1    1    2  501    0  0.30009913411E+02 -0.24425644606E+02 -0.28144311269E+03  0.28409053609E+03  0.00000000000E+00 0. -1.
         -2    1    1    2    0  503 -0.30647760028E+02  0.66175836763E+01 -0.61888072508E+03  0.61967445444E+03  0.00000000000E+00 0.  1.
<mgrwt>
<rscale>  2 0.76208710E+02</rscale>
<asrwt>0</asrwt>
<pdfrwt beam="1">  1       21 0.13493024E-02 0.76208710E+02</pdfrwt>
<pdfrwt beam="2">  1       21 0.17579117E+00 0.76208710E+02</pdfrwt>
<totfact> 0.47148316E+05</totfact>
</mgrwt>
</event>
<event>
 5    1  0.2649757E+000  0.6598207E+02  0.7546771E-02  0.1374315E+00
         21   -1    0    0  501  502  0.00000000000E+00  0.00000000000E+00  0.20647629445E+03  0.20647629445E+03  0.00000000000E+00 0. -1.
         21   -1    0    0  502  503 -0.00000000000E+00 -0.00000000000E+00 -0.62102370868E+03  0.62102370868E+03  0.00000000000E+00 0.  1.
         24    1    1    2    0    0  0.97056940444E+00  0.90887498603E+01  0.63642006547E+02  0.10296148955E+03  0.80419002446E+02 0.  1.
          1    1    1    2  501    0  0.24620414777E+02 -0.44576701211E+01  0.12161923794E+03  0.12416631864E+03  0.00000000000E+00 0. -1.
         -2    1    1    2    0  503 -0.25590984181E+02 -0.46310797393E+01 -0.59980865873E+03  0.60037219494E+03  0.00000000000E+00 0.  1.
<mgrwt>
<rscale>  2 0.65982066E+02</rscale>
<asrwt>0</asrwt>
<pdfrwt beam="1">  1       21 0.31765583E-01 0.65982066E+02</pdfrwt>
<pdfrwt beam="2">  1       21 0.95542110E-01 0.65982066E+02</pdfrwt>
<totfact> 0.99292173E+03</totfact>
</mgrwt>
</event>
<event>
 5    1  0.1946229E+000  0.7094427E+02  0.7546771E-02  0.1356911E+00
         21   -1    0    0  501  502  0.00000000000E+00  0.00000000000E+00  0.63095422249E+03  0.63095422249E+03  0.00000000000E+00 0. -1.
         21   -1    0    0  502  503 -0.00000000000E+00 -0.00000000000E+00 -0.20685312482E+02  0.20685312482E+02  0.00000000000E+00 0. -1.
         24    1    1    2    0    0  0.27701706999E+02 -0.37735218243E+02  0.14690368780E+03  0.17389433777E+03  0.80419002446E+02 0. -1.
          1    1    1    2  501    0 -0.71733726084E+01  0.21499080428E+02  0.44545417695E+03  0.44603037060E+03  0.00000000000E+00 0. -1.
         -2    1    1    2    0  503 -0.20528334391E+02  0.16236137815E+02  0.17911045262E+02  0.31714826602E+02  0.00000000000E+00 0.  1.
<mgrwt>
<rscale>  2 0.70944265E+02</rscale>
<asrwt>0</asrwt>
<pdfrwt beam="1">  1       21 0.97069866E-01 0.70944265E+02</pdfrwt>
<pdfrwt beam="2">  1       21 0.31823562E-02 0.70944265E+02</pdfrwt>
<totfact> 0.51429586E+05</totfact>
</mgrwt>
</event>
<event>
 5    1  0.1946229E+000  0.7382218E+02  0.7546771E-02  0.1347558E+00
         21   -1    0    0  503  502  0.00000000000E+00  0.00000000000E+00  0.11387999674E+03  0.11387999674E+03  0.00000000000E+00 0.  1.
         21   -1    0    0  501  503 -0.00000000000E+00 -0.00000000000E+00 -0.94654265189E+02  0.94654265189E+02  0.00000000000E+00 0. -1.
         24    1    1    2    0    0 -0.18549809649E+02 -0.22476998646E+02  0.25059348667E+02  0.89131912445E+02  0.80419002446E+02 0. -1.
          1    1    1    2  501    0  0.33643930082E+02 -0.16095719031E+01 -0.53900707591E+02  0.63559350468E+02  0.00000000000E+00 0. -1.
         -2    1    1    2    0  502 -0.15094120432E+02  0.24086570549E+02  0.48067090475E+02  0.55842999017E+02  0.00000000000E+00 0.  1.
<mgrwt>
<rscale>  2 0.73822184E+02</rscale>
<asrwt>0</asrwt>
<pdfrwt beam="1">  1       21 0.17520000E-01 0.73822184E+02</pdfrwt>
<pdfrwt beam="2">  1       21 0.14562195E-01 0.73822184E+02</pdfrwt>
<totfact> 0.12051810E+06</totfact>
</mgrwt>
</event>
<event>
 5    1  0.1946229E+000  0.1485577E+03  0.7546771E-02  0.1202257E+00
         21   -1    0    0  501  502  0.00000000000E+00  0.00000000000E+00  0.22909031926E+02  0.22909031926E+02  0.00000000000E+00 0.  1.
         21   -1    0    0  502  503 -0.00000000000E+00 -0.00000000000E+00 -0.17913816889E+04  0.17913816889E+04  0.00000000000E+00 0.  1.
         24    1    1    2    0    0 -0.12247001391E+03 -0.28014530463E+02 -0.43452534140E+03  0.45941615829E+03  0.80419002446E+02 0.  1.
          1    1    1    2  501    0 -0.46872968061E+01  0.19995983242E+02 -0.68132858766E+01  0.21638645096E+02  0.00000000000E+00 0. -1.
         -2    1    1    2    0  503  0.12715731072E+03  0.80185472211E+01 -0.13271340297E+04  0.13332359175E+04  0.00000000000E+00 0.  1.
<mgrwt>
<rscale>  2 0.14855769E+03</rscale>
<asrwt>0</asrwt>
<pdfrwt beam="1">  1       21 0.35244662E-02 0.14855769E+03</pdfrwt>
<pdfrwt beam="2">  1       21 0.27559720E+00 0.14855769E+03</pdfrwt>
<totfact> 0.23880312E+04</totfact>
</mgrwt>
</event>
<event>
 5    1  0.1946229E+000  0.1529457E+03  0.7546771E-02  0.1196899E+00
         21   -1    0    0  501  502  0.00000000000E+00  0.00000000000E+00  0.15587196947E+03  0.15587196947E+03  0.00000000000E+00 0.  1.
         21   -1    0    0  502  503 -0.00000000000E+00 -0.00000000000E+00 -0.17277668733E+03  0.17277668733E+03  0.00000000000E+00 0. -1.
         24    1    1    2    0    0 -0.82316457659E+02 -0.11450589154E+03 -0.67533469108E+02  0.17582827930E+03  0.80419002446E+02 0. -1.
          1    1    1    2  501    0  0.18965949669E+02  0.48429352415E+02  0.25323628925E+02  0.57848038897E+02  0.00000000000E+00 0. -1.
         -2    1    1    2    0  503  0.63350507990E+02  0.66076539121E+02  0.25305122318E+02  0.94972338606E+02  0.00000000000E+00 0.  1.
<mgrwt>
<rscale>  2 0.15294568E+03</rscale>
<asrwt>0</asrwt>
<pdfrwt beam="1">  1       21 0.23980303E-01 0.15294568E+03</pdfrwt>
<pdfrwt beam="2">  1       21 0.26581029E-01 0.15294568E+03</pdfrwt>
<totfact> 0.22320582E+05</totfact>
</mgrwt>
</event>
<event>
 5    1  0.1946229E+000  0.1007410E+03  0.7546771E-02  0.1278745E+00
         21   -1    0    0  501  502  0.00000000000E+00  0.00000000000E+00  0.45391019164E+02  0.45391019164E+02  0.00000000000E+00 0. -1.
         21   -1    0    0  502  503 -0.00000000000E+00 -0.00000000000E+00 -0.23634401017E+03  0.23634401017E+03  0.00000000000E+00 0. -1.
         24    1    1    2    0    0 -0.53440987442E+02  0.37125974164E+02 -0.11746180201E+03  0.15652082284E+03  0.80419002446E+02 0. -1.
          1    1    1    2  501    0  0.71882225353E+02 -0.25691514981E+02 -0.42461406681E+02  0.87350325248E+02  0.00000000000E+00 0. -1.
         -2    1    1    2    0  503 -0.18441237911E+02 -0.11434459184E+02 -0.31029782322E+02  0.37863881252E+02  0.00000000000E+00 0.  1.
<mgrwt>
<rscale>  2 0.10074102E+03</rscale>
<asrwt>0</asrwt>
<pdfrwt beam="1">  1       21 0.69832335E-02 0.10074102E+03</pdfrwt>
<pdfrwt beam="2">  1       21 0.36360618E-01 0.10074102E+03</pdfrwt>
<totfact> 0.11047925E+06</totfact>
</mgrwt>
</event>
<event>
 5    1  0.1946229E+000  0.1120990E+03  0.7546771E-02  0.1256732E+00
         21   -1    0    0  501  502  0.00000000000E+00  0.00000000000E+00  0.21721537490E+02  0.21721537490E+02  0.00000000000E+00 0.  1.
         21   -1    0    0  502  503 -0.00000000000E+00 -0.00000000000E+00 -0.68349992886E+03  0.68349992886E+03  0.00000000000E+00 0. -1.
         24    1    1    2    0    0 -0.47668504050E+02 -0.44289574458E+02 -0.35770026451E+03  0.37235809091E+03  0.80419002446E+02 0.  0.
          1    1    1    2  501    0  0.22782178755E+02  0.76629883439E+02 -0.11913904761E+03  0.14347571003E+03  0.00000000000E+00 0. -1.
         -2    1    1    2    0  503  0.24886325295E+02 -0.32340308981E+02 -0.18493907926E+03  0.18938766541E+03  0.00000000000E+00 0.  1.
<mgrwt>
<rscale>  2 0.11209895E+03</rscale>
<asrwt>0</asrwt>
<pdfrwt beam="1">  1       21 0.33417755E-02 0.11209895E+03</pdfrwt>
<pdfrwt beam="2">  1       21 0.10515382E+00 0.11209895E+03</pdfrwt>
<totfact> 0.39219578E+05</totfact>
</mgrwt>
</event>
<event>
 5    1  0.1946229E+000  0.7849047E+02  0.7546771E-02  0.1333391E+00
         21   -1    0    0  503  502  0.00000000000E+00  0.00000000000E+00  0.74866163095E+01  0.74866163095E+01  0.00000000000E+00 0. -1.
         21   -1    0    0  501  503 -0.00000000000E+00 -0.00000000000E+00 -0.10012441870E+04  0.10012441870E+04  0.00000000000E+00 0.  1.
         24    1    1    2    0    0 -0.13311176864E+02  0.39526881082E+02 -0.76272036196E+03  0.76808145939E+03  0.80419002446E+02 0.  0.
          1    1    1    2  501    0 -0.19974361082E+02 -0.16606033186E+02 -0.11071316363E+03  0.11371956753E+03  0.00000000000E+00 0. -1.
         -2    1    1    2    0  502  0.33285537946E+02 -0.22920847896E+02 -0.12032404515E+03  0.12692977643E+03  0.00000000000E+00 0.  1.
<mgrwt>
<rscale>  2 0.78490474E+02</rscale>
<asrwt>0</asrwt>
<pdfrwt beam="1">  1       21 0.11517871E-02 0.78490474E+02</pdfrwt>
<pdfrwt beam="2">  1       21 0.15403757E+00 0.78490474E+02</pdfrwt>
<totfact> 0.85246269E+05</totfact>
</mgrwt>
</event>
<event>
 5    1  0.1946229E+000  0.1170104E+03  0.7546771E-02  0.1248112E+00
         21   -1    0    0  503  502  0.00000000000E+00  0.00000000000E+00  0.36180380105E+02  0.36180380105E+02  0.00000000000E+00 0. -1.
         21   -1    0    0  501  503 -0.00000000000E+00 -0.00000000000E+00 -0.86315017208E+03  0.86315017208E+03  0.00000000000E+00 0. -1.
         24    1    1    2    0    0 -0.97121808094E+02 -0.30700120337E+02 -0.55547485392E+03  0.57043375802E+03  0.80419002446E+02 0. -1.
          1    1    1    2  501    0  0.65578359842E+02  0.95625812808E+01 -0.28185226528E+03  0.28953870844E+03  0.00000000000E+00 0. -1.
         -2    1    1    2    0  502  0.31543448252E+02  0.21137539056E+02  0.10357327224E+02  0.39358085728E+02  0.00000000000E+00 0.  1.
<mgrwt>
<rscale>  2 0.11701043E+03</rscale>
<asrwt>0</asrwt>
<pdfrwt beam="1">  1       21 0.55662132E-02 0.11701043E+03</pdfrwt>
<pdfrwt beam="2">  1       21 0.13279231E+00 0.11701043E+03</pdfrwt>
<totfact> 0.95272314E+04</totfact>
</mgrwt>
</event>
<event>
 5    1  0.1946229E+000  0.9483205E+02  0.7546771E-02  0.1291555E+00
         21   -1    0    0  503  502  0.00000000000E+00  0.00000000000E+00  0.25029325662E+03  0.25029325662E+03  0.00000000000E+00 0.  1.
         21   -1    0    0  501  503 -0.00000000000E+00 -0.00000000000E+00 -0.43892469016E+02  0.43892469016E+02  0.00000000000E+00 0.  1.
         24    1    1    2    0    0 -0.12448290624E+02 -0.28137248083E+02  0.34451849910E+02  0.92740555237E+02  0.80419002446E+02 0.  1.
          1    1    1    2  501    0  0.49827919392E+02 -0.92644009258E+01  0.67886496181E+02  0.84718516507E+02  0.00000000000E+00 0. -1.
         -2    1    1    2    0  502 -0.37379628768E+02  0.37401649009E+02  0.10406244151E+03  0.11672665389E+03  0.00000000000E+00 0.  1.
<mgrwt>
<rscale>  2 0.94832051E+02</rscale>
<asrwt>0</asrwt>
<pdfrwt beam="1">  1       21 0.38506654E-01 0.94832051E+02</pdfrwt>
<pdfrwt beam="2">  1       21 0.67526877E-02 0.94832051E+02</pdfrwt>
<totfact> 0.10438400E+06</totfact>
</mgrwt>
</event>
<event>
 5    1  0.1946229E+000  0.1039654E+03  0.7546771E-02  0.1272172E+00
         21   -1    0    0  503  502  0.00000000000E+00  0.00000000000E+00  0.46976388242E+02  0.46976388242E+02  0.00000000000E+00 0. -1.
         21   -1    0    0  501  503 -0.00000000000E+00 -0.00000000000E+00 -0.27634662318E+03  0.27634662318E+03  0.00000000000E+00 0. -1.
         24    1    1    2    0    0 -0.35382353658E+02  0.44105542824E+02 -0.14915226057E+03  0.17863600602E+03  0.80419002446E+02 0. -1.
          1    1    1    2  501    0  0.48998695768E+02 -0.66988085063E+02 -0.83652655098E+02  0.11783905309E+03  0.00000000000E+00 0. -1.
         -2    1    1    2    0  502 -0.13616342111E+02  0.22882542239E+02  0.34346807322E+01  0.26847952316E+02  0.00000000000E+00 0.  1.
<mgrwt>
<rscale>  2 0.10396540E+03</rscale>
<asrwt>0</asrwt>
<pdfrwt beam="1">  1       21 0.72271367E-02 0.10396540E+03</pdfrwt>
<pdfrwt beam="2">  1       21 0.42514865E-01 0.10396540E+03</pdfrwt>
<totfact> 0.76472388E+05</totfact>
</mgrwt>
</event>
<event>
 5    1  0.1946229E+000  0.7809804E+02  0.7546771E-02  0.1334537E+00
         21   -1    0    0  501  502  0.00000000000E+00  0.00000000000E+00  0.13267663165E+03  0.13267663165E+03  0.00000000000E+00 0. -1.
         21   -1    0    0  502  503 -0.00000000000E+00 -0.00000000000E+00 -0.66847929341E+02  0.66847929341E+02  0.00000000000E+00 0. -1.
         24    1    1    2    0    0 -0.54592743319E+02  0.51323527219E+01  0.92302228380E+02  0.13414032200E+03  0.80419002446E+02 0. -1.
          1    1    1    2  501    0  0.36236297075E+02  0.69354641706E+01 -0.10949121086E+02  0.38484453244E+02  0.00000000000E+00 0. -1.
         -2    1    1    2    0  503  0.18356446244E+02 -0.12067816893E+02 -0.15524404984E+02  0.26899785749E+02  0.00000000000E+00 0.  1.
<mgrwt>
<rscale>  2 0.78098042E+02</rscale>
<asrwt>0</asrwt>
<pdfrwt beam="1">  1       21 0.20411790E-01 0.78098042E+02</pdfrwt>
<pdfrwt beam="2">  1       21 0.10284297E-01 0.78098042E+02</pdfrwt>
<totfact> 0.16822584E+06</totfact>
</mgrwt>
</event>
<event>
 5    1  0.1946229E+000  0.7229708E+02  0.7546771E-02  0.1352451E+00
         21   -1    0    0  503  502  0.00000000000E+00  0.00000000000E+00  0.45167498331E+02  0.45167498331E+02  0.00000000000E+00 0.  1.
         21   -1    0    0  501  503 -0.00000000000E+00 -0.00000000000E+00 -0.19932293084E+03  0.19932293084E+03  0.00000000000E+00 0.  1.
         24    1    1    2    0    0 -0.13915066993E+02 -0.40039677351E+02 -0.12848095201E+03  0.15738924943E+03  0.80419002446E+02 0.  1.
          1    1    1    2  501    0 -0.10399486260E+02  0.18411879070E+02 -0.44669202045E+02  0.49421495493E+02  0.00000000000E+00 0. -1.
         -2    1    1    2    0  502  0.24314553253E+02  0.21627798281E+02  0.18994721548E+02  0.37679684248E+02  0.00000000000E+00 0.  1.
<mgrwt>
<rscale>  2 0.72297077E+02</rscale>
<asrwt>0</asrwt>
<pdfrwt beam="1">  1       21 0.69488458E-02 0.72297077E+02</pdfrwt>
<pdfrwt beam="2">  1       21 0.30665067E-01 0.72297077E+02</pdfrwt>
<totfact> 0.15337671E+06</totfact>
</mgrwt>
</event>
<event>
 5    1  0.1946229E+000  0.6906851E+02  0.7546771E-02  0.1363290E+00
         21   -1    0    0  501  502  0.00000000000E+00  0.00000000000E+00  0.14276616696E+02  0.14276616696E+02  0.00000000000E+00 0.  1.
         21   -1    0    0  502  503 -0.00000000000E+00 -0.00000000000E+00 -0.71278779344E+03  0.71278779344E+03  0.00000000000E+00 0. -1.
         24    1    1    2    0    0  0.74358033483E+00  0.30061260936E+02 -0.13200887593E+03  0.15747314564E+03  0.80419002446E+02 0.  1.
          1    1    1    2  501    0  0.20940224451E+02 -0.12592740036E+02 -0.13514883911E+03  0.13734001170E+03  0.00000000000E+00 0. -1.
         -2    1    1    2    0  503 -0.21683804786E+02 -0.17468520900E+02 -0.43135346171E+03  0.43225125279E+03  0.00000000000E+00 0.  1.
<mgrwt>
<rscale>  2 0.69068512E+02</rscale>
<asrwt>0</asrwt>
<pdfrwt beam="1">  1       21 0.21964032E-02 0.69068512E+02</pdfrwt>
<pdfrwt beam="2">  1       21 0.10965963E+00 0.69068512E+02</pdfrwt>
<totfact> 0.70403249E+05</totfact>
</mgrwt>
</event>
<event>
 5    1  0.1946229E+000  0.7148589E+02  0.7546771E-02  0.1355112E+00
         21   -1    0    0  503  502  0.00000000000E+00  0.00000000000E+00  0.18079853579E+04  0.18079853579E+04  0.00000000000E+00 0.  1.
         21   -1    0    0  501  503 -0.00000000000E+00 -0.00000000000E+00 -0.28772408266E+02  0.28772408266E+02  0.00000000000E+00 0. -1.
         24    1    1    2    0    0 -0.41372249352E+02  0.12956398432E+02  0.34256288175E+03  0.35453642293E+03  0.80419002446E+02 0.  0.
          1    1    1    2  501    0  0.21387160135E+02  0.78304455275E+01 -0.16915323299E+02  0.28369960488E+02  0.00000000000E+00 0. -1.
         -2    1    1    2    0  502  0.19985089217E+02 -0.20786843960E+02  0.14535653912E+04  0.14538513828E+04  0.00000000000E+00 0.  1.
<mgrwt>
<rscale>  2 0.71485893E+02</rscale>
<asrwt>0</asrwt>
<pdfrwt beam="1">  1       21 0.27815150E+00 0.71485893E+02</pdfrwt>
<pdfrwt beam="2">  1       21 0.44265258E-02 0.71485893E+02</pdfrwt>
<totfact> 0.17940716E+04</totfact>
</mgrwt>
</event>
<event>
 5    1  0.1946229E+000  0.6899415E+02  0.7546771E-02  0.1363547E+00
         21   -1    0    0  503  502  0.00000000000E+00  0.00000000000E+00  0.10743737094E+03  0.10743737094E+03  0.00000000000E+00 0. -1.
         21   -1    0    0  501  503 -0.00000000000E+00 -0.00000000000E+00 -0.51140118624E+02  0.51140118624E+02  0.00000000000E+00 0.  1.
         24    1    1    2    0    0  0.11390878889E+02 -0.59350584146E+01  0.23978878732E+02  0.84895109517E+02  0.80419002446E+02 0.  0.
          1    1    1    2  501    0  0.22171127241E+02 -0.13289629819E+01 -0.52106116302E+01  0.22813932131E+02  0.00000000000E+00 0. -1.
         -2    1    1    2    0  502 -0.33562006130E+02  0.72640213964E+01  0.37528985217E+02  0.50868447919E+02  0.00000000000E+00 0.  1.
<mgrwt>
<rscale>  2 0.68994153E+02</rscale>
<asrwt>0</asrwt>
<pdfrwt beam="1">  1       21 0.16528826E-01 0.68994153E+02</pdfrwt>
<pdfrwt beam="2">  1       21 0.78677106E-02 0.68994153E+02</pdfrwt>
<totfact> 0.38668317E+06</totfact>
</mgrwt>
</event>
<event>
 5    1  0.1946229E+000  0.7856315E+02  0.7546771E-02  0.1333179E+00
         21   -1    0    0  501  502  0.00000000000E+00  0.00000000000E+00  0.32942481379E+02  0.32942481379E+02  0.00000000000E+00 0. -1.
         21   -1    0    0  502  503 -0.00000000000E+00 -0.00000000000E+00 -0.40012364275E+03  0.40012364275E+03  0.00000000000E+00 0.  1.
         24    1    1    2    0    0 -0.15829063471E+02 -0.86233862926E+00 -0.24911349872E+03  0.26225189051E+03  0.80419002446E+02 0.  1.
          1    1    1    2  501    0 -0.24696659122E+02 -0.17900088189E+02  0.12392019103E+02  0.32922640635E+02  0.00000000000E+00 0. -1.
         -2    1    1    2    0  503  0.40525722592E+02  0.18762426818E+02 -0.13045968176E+03  0.13789159299E+03  0.00000000000E+00 0.  1.
<mgrwt>
<rscale>  2 0.78563153E+02</rscale>
<asrwt>0</asrwt>
<pdfrwt beam="1">  1       21 0.50680739E-02 0.78563153E+02</pdfrwt>
<pdfrwt beam="2">  1       21 0.61557485E-01 0.78563153E+02</pdfrwt>
<totfact> 0.64903247E+05</totfact>
</mgrwt>
</event>
<event>
 5    1  0.1946229E+000  0.6815378E+02  0.7546771E-02  0.1366486E+00
         21   -1    0    0  501  502  0.00000000000E+00  0.00000000000E+00  0.15040851670E+04  0.15040851670E+04  0.00000000000E+00 0. -1.
         21   -1    0    0  502  503 -0.00000000000E+00 -0.00000000000E+00 -0.45659426613E+02  0.45659426613E+02  0.00000000000E+00 0.  1.
         24    1    1    2    0    0 -0.33084203532E+02 -0.89504983314E+01  0.25174575453E+03  0.26649168246E+03  0.80419002446E+02 0. -1.
          1    1    1    2  501    0  0.25204971334E+02 -0.10954006743E+02  0.12418100979E+04  0.12421141655E+04  0.00000000000E+00 0. -1.
         -2    1    1    2    0  503  0.78792321976E+01  0.19904505075E+02 -0.35130112048E+02  0.41138745664E+02  0.00000000000E+00 0.  1.
<mgrwt>
<rscale>  2 0.68153784E+02</rscale>
<asrwt>0</asrwt>
<pdfrwt beam="1">  1       21 0.23139768E+00 0.68153784E+02</pdfrwt>
<pdfrwt beam="2">  1       21 0.70245283E-02 0.68153784E+02</pdfrwt>
<totfact> 0.15150433E+04</totfact>
</mgrwt>
</event>
<event>
 5    1  0.1946229E+000  0.1112939E+03  0.7546771E-02  0.1258192E+00
         21   -1    0    0  501  502  0.00000000000E+00  0.00000000000E+00  0.17051707637E+03  0.17051707637E+03  0.00000000000E+00 0. -1.
         21   -1    0    0  502  503 -0.00000000000E+00 -0.00000000000E+00 -0.41732638285E+03  0.41732638285E+03  0.00000000000E+00 0.  1.
         24    1    1    2    0    0  0.43003826125E+02  0.37422040043E+02 -0.86660994627E+02  0.13125197936E+03  0.80419002446E+02 0.  1.
          1    1    1    2  501    0  0.37302677785E+02 -0.17863195061E+02  0.13963034104E+03  0.14562697431E+03  0.00000000000E+00 0. -1.
         -2    1    1    2    0  503 -0.80306503910E+02 -0.19558844982E+02 -0.29977865288E+03  0.31096450555E+03  0.00000000000E+00 0.  1.
<mgrwt>
<rscale>  2 0.11129390E+03</rscale>
<asrwt>0</asrwt>
<pdfrwt beam="1">  1       21 0.26233396E-01 0.11129390E+03</pdfrwt>
<pdfrwt beam="2">  1       21 0.64204059E-01 0.11129390E+03</pdfrwt>
<totfact> 0.32478358E+04</totfact>
</mgrwt>
</event>
<event>
 5    1  0.1946229E+000  0.8480364E+02  0.7546771E-02  0.1315947E+00
         21   -1    0    0  503  502  0.00000000000E+00  0.00000000000E+00  0.69605376027E+02  0.69605376027E+02  0.00000000000E+00 0.  1.
         21   -1    0    0  501  503 -0.00000000000E+00 -0.00000000000E+00 -0.31004579645E+03  0.31004579645E+03  0.00000000000E+00 0.  1.
         24    1    1    2    0    0  0.17777525439E+02 -0.95097860500E+01 -0.13772456281E+03  0.16075368611E+03  0.80419002446E+02 0.  1.
          1    1    1    2  501    0 -0.50237056452E+02 -0.62358564141E+01 -0.15063628341E+03  0.15891487540E+03  0.00000000000E+00 0. -1.
         -2    1    1    2    0  502  0.32459531012E+02  0.15745642464E+02  0.47920425793E+02  0.59982610966E+02  0.00000000000E+00 0.  1.
<mgrwt>
<rscale>  2 0.84803643E+02</rscale>
<asrwt>0</asrwt>
<pdfrwt beam="1">  1       21 0.10708519E-01 0.84803643E+02</pdfrwt>
<pdfrwt beam="2">  1       21 0.47699353E-01 0.84803643E+02</pdfrwt>
<totfact> 0.30862806E+05</totfact>
</mgrwt>
</event>
<event>
 5    1  0.1946229E+000  0.1257762E+03  0.7546771E-02  0.1233861E+00
         21   -1    0    0  503  502  0.00000000000E+00  0.00000000000E+00  0.13223011708E+03  0.13223011708E+03  0.00000000000E+00 0.  1.
         21   -1    0    0  501  503 -0.00000000000E+00 -0.00000000000E+00 -0.32178276775E+03  0.32178276775E+03  0.00000000000E+00 0. -1.
         24    1    1    2    0    0 -0.20206391715E+02 -0.32668472449E+02 -0.72825593829E+02  0.11509261674E+03  0.80419002446E+02 0.  0.
          1    1    1    2  501    0  0.27791140108E+02 -0.61745877628E+02 -0.20102484095E+03  0.21212234100E+03  0.00000000000E+00 0. -1.
         -2    1    1    2    0  502 -0.75847483926E+01  0.94414350077E+02  0.84297784110E+02  0.12679792709E+03  0.00000000000E+00 0.  1.
<mgrwt>
<rscale>  2 0.12577624E+03</rscale>
<asrwt>0</asrwt>
<pdfrwt beam="1">  1       21 0.20343095E-01 0.12577624E+03</pdfrwt>
<pdfrwt beam="2">  1       21 0.49505040E-01 0.12577624E+03</pdfrwt>
<totfact> 0.89397151E+04</totfact>
</mgrwt>
</event>
<event>
 5    1  0.1946229E+000  0.7036432E+02  0.7546771E-02  0.1358859E+00
         21   -1    0    0  501  502  0.00000000000E+00  0.00000000000E+00  0.36941370028E+02  0.36941370028E+02  0.00000000000E+00 0. -1.
         21   -1    0    0  502  503 -0.00000000000E+00 -0.00000000000E+00 -0.27556020318E+03  0.27556020318E+03  0.00000000000E+00 0. -1.
         24    1    1    2    0    0  0.29198338061E+02  0.26691166963E+02 -0.16307941829E+03  0.18608351341E+03  0.80419002446E+02 0. -1.
          1    1    1    2  501    0 -0.26601752096E+02 -0.24366553358E+01  0.16367808898E+02  0.31328831320E+02  0.00000000000E+00 0. -1.
         -2    1    1    2    0  503 -0.25965859649E+01 -0.24254511627E+02 -0.91907223760E+02  0.95089228477E+02  0.00000000000E+00 0.  1.
<mgrwt>
<rscale>  2 0.70364318E+02</rscale>
<asrwt>0</asrwt>
<pdfrwt beam="1">  1       21 0.56832878E-02 0.70364318E+02</pdfrwt>
<pdfrwt beam="2">  1       21 0.42393877E-01 0.70364318E+02</pdfrwt>
<totfact> 0.11448041E+06</totfact>
</mgrwt>
</event>
<event>
 5    1  0.1946229E+000  0.7891229E+02  0.7546771E-02  0.1332167E+00
         21   -1    0    0  501  502  0.00000000000E+00  0.00000000000E+00  0.34108611688E+03  0.34108611688E+03  0.00000000000E+00 0.  1.
         21   -1    0    0  502  503 -0.00000000000E+00 -0.00000000000E+00 -0.21846777317E+02  0.21846777317E+02  0.00000000000E+00 0.  1.
         24    1    1    2    0    0 -0.28227777049E+02 -0.51412740181E+01  0.12401152709E+03  0.15056332522E+03  0.80419002446E+02 0.  1.
          1    1    1    2  501    0 -0.21717450587E+02 -0.26955471889E+01  0.11836118364E+03  0.12036728553E+03  0.00000000000E+00 0. -1.
         -2    1    1    2    0  503  0.49945227636E+02  0.78368212071E+01  0.76866628837E+02  0.92002283445E+02  0.00000000000E+00 0.  1.
<mgrwt>
<rscale>  2 0.78912292E+02</rscale>
<asrwt>0</asrwt>
<pdfrwt beam="1">  1       21 0.52474783E-01 0.78912292E+02</pdfrwt>
<pdfrwt beam="2">  1       21 0.33610429E-02 0.78912292E+02</pdfrwt>
<totfact> 0.17748581E+06</totfact>
</mgrwt>
</event>
<event>
 5    1  0.1946229E+000  0.9598784E+02  0.7546771E-02  0.1288967E+00
         21   -1    0    0  501  502  0.00000000000E+00  0.00000000000E+00  0.13733641267E+03  0.13733641267E+03  0.00000000000E+00 0. -1.
         21   -1    0    0  502  503 -0.00000000000E+00 -0.00000000000E+00 -0.11962157737E+03  0.11962157737E+03  0.00000000000E+00 0. -1.
         24    1    1    2    0    0  0.43996507200E+02  0.57848769712E+02 -0.15218420062E+02  0.10945770446E+03  0.80419002446E+02 0. -1.
          1    1    1    2  501    0 -0.47475231148E+02 -0.31434631339E+02  0.77144687615E+02  0.95881888004E+02  0.00000000000E+00 0. -1.
         -2    1    1    2    0  503  0.34787239480E+01 -0.26414138372E+02 -0.44211432253E+02  0.51618397574E+02  0.00000000000E+00 0.  1.
<mgrwt>
<rscale>  2 0.95987841E+02</rscale>
<asrwt>0</asrwt>
<pdfrwt beam="1">  1       21 0.21128679E-01 0.95987841E+02</pdfrwt>
<pdfrwt beam="2">  1       21 0.18403320E-01 0.95987841E+02</pdfrwt>
<totfact> 0.56544628E+05</totfact>
</mgrwt>
</event>
<event>
 5    1  0.1946229E+000  0.7266991E+02  0.7546771E-02  0.1351242E+00
         21   -1    0    0  503  502  0.00000000000E+00  0.00000000000E+00  0.49294032815E+03  0.49294032815E+03  0.00000000000E+00 0. -1.
         21   -1    0    0  501  503 -0.00000000000E+00 -0.00000000000E+00 -0.17914835774E+02  0.17914835774E+02  0.00000000000E+00 0.  1.
         24    1    1    2    0    0  0.12172756793E+02  0.14114143978E+02  0.41351425364E+03  0.42167361666E+03  0.80419002446E+02 0.  0.
          1    1    1    2  501    0 -0.32346247105E+02  0.75198255477E+01  0.22043147228E+02  0.39858848675E+02  0.00000000000E+00 0. -1.
         -2    1    1    2    0  502  0.20173490311E+02 -0.21633969526E+02  0.39468091507E+02  0.49322698588E+02  0.00000000000E+00 0.  1.
<mgrwt>
<rscale>  2 0.72669907E+02</rscale>
<asrwt>0</asrwt>
<pdfrwt beam="1">  1       21 0.75836963E-01 0.72669907E+02</pdfrwt>
<pdfrwt beam="2">  1       21 0.27561290E-02 0.72669907E+02</pdfrwt>
<totfact> 0.11231657E+06</totfact>
</mgrwt>
</event>
<event>
 5    1  0.1946229E+000  0.9176039E+02  0.7546771E-02  0.1298644E+00
         21   -1    0    0  501  502  0.00000000000E+00  0.00000000000E+00  0.12602166335E+03  0.12602166335E+03  0.00000000000E+00 0.  1.
         21   -1    0    0  502  503 -0.00000000000E+00 -0.00000000000E+00 -0.11964648359E+03  0.11964648359E+03  0.00000000000E+00 0.  1.
         24    1    1    2    0    0 -0.58707829839E+02  0.29055900194E+02  0.79600822162E+02  0.13074540705E+03  0.80419002446E+02 0.  1.
          1    1    1    2  501    0  0.57396398795E+02 -0.71334193393E+01 -0.27176195216E+02  0.63904443136E+02  0.00000000000E+00 0. -1.
         -2    1    1    2    0  503  0.13114310441E+01 -0.21922480855E+02 -0.46049447183E+02  0.51018296758E+02  0.00000000000E+00 0.  1.
<mgrwt>
<rscale>  2 0.91760387E+02</rscale>
<asrwt>0</asrwt>
<pdfrwt beam="1">  1       21 0.19387948E-01 0.91760387E+02</pdfrwt>
<pdfrwt beam="2">  1       21 0.18407151E-01 0.91760387E+02</pdfrwt>
<totfact> 0.66175565E+05</totfact>
</mgrwt>
</event>
<event>
 5    1  0.1946229E+000  0.1407551E+03  0.7546771E-02  0.1212317E+00
         21   -1    0    0  501  502  0.00000000000E+00  0.00000000000E+00  0.15805521074E+04  0.15805521074E+04  0.00000000000E+00 0. -1.
         21   -1    0    0  502  503 -0.00000000000E+00 -0.00000000000E+00 -0.60474217629E+02  0.60474217629E+02  0.00000000000E+00 0.  1.
         24    1    1    2    0    0 -0.43133227310E+02  0.11309722204E+03  0.10626068869E+04  0.10724980508E+04  0.80419002446E+02 0. -1.
          1    1    1    2  501    0 -0.87963137828E+00 -0.82684773812E+02  0.49584368807E+03  0.50269126566E+03  0.00000000000E+00 0. -1.
         -2    1    1    2    0  503  0.44012858688E+02 -0.30412448229E+02 -0.38372685154E+02  0.65837008613E+02  0.00000000000E+00 0.  1.
<mgrwt>
<rscale>  2 0.14075511E+03</rscale>
<asrwt>0</asrwt>
<pdfrwt beam="1">  1       21 0.24316183E+00 0.14075511E+03</pdfrwt>
<pdfrwt beam="2">  1       21 0.93037270E-02 0.14075511E+03</pdfrwt>
<totfact> 0.71182045E+03</totfact>
</mgrwt>
</event>
<event>
 5    1  0.1946229E+000  0.6335233E+02  0.7546771E-02  0.1384279E+00
         21   -1    0    0  501  502  0.00000000000E+00  0.00000000000E+00  0.80750723158E+02  0.80750723158E+02  0.00000000000E+00 0.  1.
         21   -1    0    0  502  503 -0.00000000000E+00 -0.00000000000E+00 -0.58633050656E+02  0.58633050656E+02  0.00000000000E+00 0. -1.
         24    1    1    2    0    0  0.68101597224E+01 -0.76688773901E+01  0.27125093925E+02  0.85487874173E+02  0.80419002446E+02 0.  1.
          1    1    1    2  501    0 -0.16689806710E+02 -0.14022708358E+02  0.11745626606E+02  0.24761779865E+02  0.00000000000E+00 0. -1.
         -2    1    1    2    0  503  0.98796469875E+01  0.21691585748E+02 -0.16753048028E+02  0.29134119776E+02  0.00000000000E+00 0.  1.
<mgrwt>
<rscale>  2 0.63352332E+02</rscale>
<asrwt>0</asrwt>
<pdfrwt beam="1">  1       21 0.12423188E-01 0.63352332E+02</pdfrwt>
<pdfrwt beam="2">  1       21 0.90204693E-02 0.63352332E+02</pdfrwt>
<totfact> 0.50389513E+06</totfact>
</mgrwt>
</event>
<event>
 5    1  0.1946229E+000  0.7187563E+02  0.7546771E-02  0.1353829E+00
         21   -1    0    0  501  502  0.00000000000E+00  0.00000000000E+00  0.58379430343E+03  0.58379430343E+03  0.00000000000E+00 0.  1.
         21   -1    0    0  502  503 -0.00000000000E+00 -0.00000000000E+00 -0.22392920232E+02  0.22392920232E+02  0.00000000000E+00 0.  1.
         24    1    1    2    0    0  0.31379380479E+02  0.30570486146E+02  0.43685955735E+03  0.44635491366E+03  0.80419002446E+02 0.  1.
          1    1    1    2  501    0 -0.23568482414E+02 -0.32898823148E+01  0.12893923703E+03  0.13111683162E+03  0.00000000000E+00 0. -1.
         -2    1    1    2    0  503 -0.78108980648E+01 -0.27280603831E+02 -0.43974111770E+01  0.28715478388E+02  0.00000000000E+00 0.  1.
<mgrwt>
<rscale>  2 0.71875626E+02</rscale>
<asrwt>0</asrwt>
<pdfrwt beam="1">  1       21 0.89814497E-01 0.71875626E+02</pdfrwt>
<pdfrwt beam="2">  1       21 0.34450651E-02 0.71875626E+02</pdfrwt>
<totfact> 0.53892251E+05</totfact>
</mgrwt>
</event>
<event>
 5    1  0.1946229E+000  0.9591933E+02  0.7546771E-02  0.1289119E+00
         21   -1    0    0  503  502  0.00000000000E+00  0.00000000000E+00  0.73870235377E+02  0.73870235377E+02  0.00000000000E+00 0.  1.
         21   -1    0    0  501  503 -0.00000000000E+00 -0.00000000000E+00 -0.31290096732E+03  0.31290096732E+03  0.00000000000E+00 0. -1.
         24    1    1    2    0    0  0.19196067954E+02 -0.20348431714E+02 -0.24185245810E+02  0.88513782923E+02  0.80419002446E+02 0.  0.
          1    1    1    2  501    0 -0.38822442019E+02 -0.32302077862E+02 -0.23361822436E+03  0.23901481333E+03  0.00000000000E+00 0. -1.
         -2    1    1    2    0  502  0.19626374065E+02  0.52650509576E+02  0.18772738227E+02  0.59242606443E+02  0.00000000000E+00 0.  1.
<mgrwt>
<rscale>  2 0.95919334E+02</rscale>
<asrwt>0</asrwt>
<pdfrwt beam="1">  1       21 0.11364651E-01 0.95919334E+02</pdfrwt>
<pdfrwt beam="2">  1       21 0.48138612E-01 0.95919334E+02</pdfrwt>
<totfact> 0.27251412E+05</totfact>
</mgrwt>
</event>
<event>
 5    1  0.1946229E+000  0.7142782E+02  0.7546771E-02  0.1355304E+00
         21   -1    0    0  501  502  0.00000000000E+00  0.00000000000E+00  0.13978612600E+02  0.13978612600E+02  0.00000000000E+00 0.  1.
         21   -1    0    0  502  503 -0.00000000000E+00 -0.00000000000E+00 -0.49180173264E+03  0.49180173264E+03  0.00000000000E+00 0.  1.
         24    1    1    2    0    0  0.37032370525E+02 -0.66812585352E+01 -0.16643031480E+03  0.18863271540E+03  0.80419002446E+02 0.  1.
          1    1    1    2  501    0 -0.16479419528E+02 -0.16339933637E+02 -0.68999206267E+02  0.72797356852E+02  0.00000000000E+00 0. -1.
         -2    1    1    2    0  503 -0.20552950997E+02  0.23021192173E+02 -0.24239359897E+03  0.24435027298E+03  0.00000000000E+00 0.  1.
<mgrwt>
<rscale>  2 0.71427819E+02</rscale>
<asrwt>0</asrwt>
<pdfrwt beam="1">  1       21 0.21505557E-02 0.71427819E+02</pdfrwt>
<pdfrwt beam="2">  1       21 0.75661808E-01 0.71427819E+02</pdfrwt>
<totfact> 0.16789883E+06</totfact>
</mgrwt>
</event>
<event>
 5    1  0.1946229E+000  0.7669284E+02  0.7546771E-02  0.1338708E+00
         21   -1    0    0  501  502  0.00000000000E+00  0.00000000000E+00  0.78884180180E+02  0.78884180180E+02  0.00000000000E+00 0.  1.
         21   -1    0    0  502  503 -0.00000000000E+00 -0.00000000000E+00 -0.13229395988E+03  0.13229395988E+03  0.00000000000E+00 0.  1.
         24    1    1    2    0    0 -0.51370412993E+01 -0.23683246551E+02  0.15232483609E+02  0.85361173093E+02  0.80419002446E+02 0.  1.
          1    1    1    2  501    0  0.59951447356E+01  0.46337696024E+02  0.66416887716E+01  0.47193599809E+02  0.00000000000E+00 0. -1.
         -2    1    1    2    0  503 -0.85810343636E+00 -0.22654449473E+02 -0.75283952082E+02  0.78623367159E+02  0.00000000000E+00 0.  1.
<mgrwt>
<rscale>  2 0.76692842E+02</rscale>
<asrwt>0</asrwt>
<pdfrwt beam="1">  1       21 0.12136028E-01 0.76692842E+02</pdfrwt>
<pdfrwt beam="2">  1       21 0.20352917E-01 0.76692842E+02</pdfrwt>
<totfact> 0.12674728E+06</totfact>
</mgrwt>
</event>
<event>
 5    1  0.1946229E+000  0.7119798E+02  0.7546771E-02  0.1356066E+00
         21   -1    0    0  503  502  0.00000000000E+00  0.00000000000E+00  0.94431430529E+03  0.94431430529E+03  0.00000000000E+00 0.  1.
         21   -1    0    0  501  503 -0.00000000000E+00 -0.00000000000E+00 -0.98087557733E+01  0.98087557733E+01  0.00000000000E+00 0.  1.
         24    1    1    2    0    0 -0.17462854617E+02  0.45096597363E+02  0.28514521402E+03  0.30018937925E+03  0.80419002446E+02 0.  1.
          1    1    1    2  501    0  0.75721293905E+01 -0.25570901049E+02  0.83610557125E+02  0.87760659676E+02  0.00000000000E+00 0. -1.
         -2    1    1    2    0  502  0.98907252262E+01 -0.19525696314E+02  0.56574977837E+03  0.56617302213E+03  0.00000000000E+00 0.  1.
<mgrwt>
<rscale>  2 0.71197982E+02</rscale>
<asrwt>0</asrwt>
<pdfrwt beam="1">  1       21 0.14527905E+00 0.71197982E+02</pdfrwt>
<pdfrwt beam="2">  1       21 0.15090401E-02 0.71197982E+02</pdfrwt>
<totfact> 0.64729314E+05</totfact>
</mgrwt>
</event>
<event>
 5    1  0.1946229E+000  0.1199832E+03  0.7546771E-02  0.1243125E+00
         21   -1    0    0  503  502  0.00000000000E+00  0.00000000000E+00  0.61362025902E+02  0.61362025902E+02  0.00000000000E+00 0. -1.
         21   -1    0    0  501  503 -0.00000000000E+00 -0.00000000000E+00 -0.28130067660E+03  0.28130067660E+03  0.00000000000E+00 0.  1.
         24    1    1    2    0    0  0.43447271266E+02 -0.64542898886E+02 -0.55149391042E+02  0.12474823632E+03  0.80419002446E+02 0. -1.
          1    1    1    2  501    0  0.22743786763E+02 -0.12937864006E+02 -0.83667566121E+02  0.87663731280E+02  0.00000000000E+00 0. -1.
         -2    1    1    2    0  502 -0.66191058029E+02  0.77480762892E+02 -0.81121693534E+02  0.13025073490E+03  0.00000000000E+00 0.  1.
<mgrwt>
<rscale>  2 0.11998322E+03</rscale>
<asrwt>0</asrwt>
<pdfrwt beam="1">  1       21 0.94403116E-02 0.11998322E+03</pdfrwt>
<pdfrwt beam="2">  1       21 0.43277028E-01 0.11998322E+03</pdfrwt>
<totfact> 0.46569634E+05</totfact>
</mgrwt>
</event>
<event>
 5    1  0.1946229E+000  0.8518025E+02  0.7546771E-02  0.1314962E+00
         21   -1    0    0  503  502  0.00000000000E+00  0.00000000000E+00  0.48047840002E+02  0.48047840002E+02  0.00000000000E+00 0.  1.
         21   -1    0    0  501  503 -0.00000000000E+00 -0.00000000000E+00 -0.64439162492E+03  0.64439162492E+03  0.00000000000E+00 0. -1.
         24    1    1    2    0    0 -0.37860402531E+01  0.34800159145E+02 -0.78542906946E+02  0.11773525115E+03  0.80419002446E+02 0.  0.
          1    1    1    2  501    0  0.31721646260E+02  0.68970935962E+01 -0.52321654469E+03  0.52422264867E+03  0.00000000000E+00 0. -1.
         -2    1    1    2    0  502 -0.27935606007E+02 -0.41697252742E+02  0.54156667169E+01  0.50481565102E+02  0.00000000000E+00 0.  1.
<mgrwt>
<rscale>  2 0.85180246E+02</rscale>
<asrwt>0</asrwt>
<pdfrwt beam="1">  1       21 0.73919751E-02 0.85180246E+02</pdfrwt>
<pdfrwt beam="2">  1       21 0.99137177E-01 0.85180246E+02</pdfrwt>
<totfact> 0.12084045E+05</totfact>
</mgrwt>
</event>
<event>
 5    1  0.1946229E+000  0.8691672E+02  0.7546771E-02  0.1310495E+00
         21   -1    0    0  501  502  0.00000000000E+00  0.00000000000E+00  0.85609294635E+02  0.85609294635E+02  0.00000000000E+00 0.  1.
         21   -1    0    0  502  503 -0.00000000000E+00 -0.00000000000E+00 -0.14679778557E+03  0.14679778557E+03  0.00000000000E+00 0.  1.
         24    1    1    2    0    0  0.18257694876E+02  0.29216138965E+02  0.36727134461E+02  0.94884269288E+02  0.80419002446E+02 0.  1.
          1    1    1    2  501    0 -0.49593121515E+02 -0.14124953245E+02 -0.26247604088E+02  0.57861288666E+02  0.00000000000E+00 0. -1.
         -2    1    1    2    0  503  0.31335426639E+02 -0.15091185720E+02 -0.71668021313E+02  0.79661522255E+02  0.00000000000E+00 0.  1.
<mgrwt>
<rscale>  2 0.86916717E+02</rscale>
<asrwt>0</asrwt>
<pdfrwt beam="1">  1       21 0.13170661E-01 0.86916717E+02</pdfrwt>
<pdfrwt beam="2">  1       21 0.22584274E-01 0.86916717E+02</pdfrwt>
<totfact> 0.90958700E+05</totfact>
</mgrwt>
</event>
<event>
 5    1  0.1946229E+000  0.6520595E+02  0.7546771E-02  0.1377198E+00
         21   -1    0    0  501  502  0.00000000000E+00  0.00000000000E+00  0.44640618587E+02  0.44640618587E+02  0.00000000000E+00 0.  1.
         21   -1    0    0  502  503 -0.00000000000E+00 -0.00000000000E+00 -0.20535899043E+03  0.20535899043E+03  0.00000000000E+00 0. -1.
         24    1    1    2    0    0 -0.27686873666E+02  0.11197983730E+02 -0.24696146684E+02  0.89269666900E+02  0.80419002446E+02 0.  0.
          1    1    1    2  501    0  0.79364255574E+01 -0.21092325307E+02  0.39125704178E+00  0.22539434765E+02  0.00000000000E+00 0. -1.
         -2    1    1    2    0  503  0.19750448109E+02  0.98943415772E+01 -0.13641348220E+03  0.13819050735E+03  0.00000000000E+00 0.  1.
<mgrwt>
<rscale>  2 0.65205947E+02</rscale>
<asrwt>0</asrwt>
<pdfrwt beam="1">  1       21 0.68677874E-02 0.65205947E+02</pdfrwt>
<pdfrwt beam="2">  1       21 0.31593691E-01 0.65205947E+02</pdfrwt>
<totfact> 0.14718462E+06</totfact>
</mgrwt>
</event>
<event>
 5    1  0.1946229E+000  0.7895679E+02  0.7546771E-02  0.1332038E+00
         21   -1    0    0  501  502  0.00000000000E+00  0.00000000000E+00  0.50215856348E+03  0.50215856348E+03  0.00000000000E+00 0.  1.
         21   -1    0    0  502  503 -0.00000000000E+00 -0.00000000000E+00 -0.19203057510E+02  0.19203057510E+02  0.00000000000E+00 0. -1.
         24    1    1    2    0    0  0.28173020892E+02 -0.22028830486E+02  0.32182650008E+03  0.33364427252E+03  0.80419002446E+02 0.  1.
          1    1    1    2  501    0  0.14526571973E+02  0.22985130600E+02  0.13486311570E+03  0.13757687851E+03  0.00000000000E+00 0. -1.
         -2    1    1    2    0  503 -0.42699592865E+02 -0.95630011394E+00  0.26265890185E+02  0.50140469961E+02  0.00000000000E+00 0.  1.
<mgrwt>
<rscale>  2 0.78956793E+02</rscale>
<asrwt>0</asrwt>
<pdfrwt beam="1">  1       21 0.77255154E-01 0.78956793E+02</pdfrwt>
<pdfrwt beam="2">  1       21 0.29543169E-02 0.78956793E+02</pdfrwt>
<totfact> 0.96586507E+05</totfact>
</mgrwt>
</event>
<event>
 5    1  0.1946229E+000  0.7253662E+02  0.7546771E-02  0.1351674E+00
         21   -1    0    0  501  502  0.00000000000E+00  0.00000000000E+00  0.27159688498E+02  0.27159688498E+02  0.00000000000E+00 0. -1.
         21   -1    0    0  502  503 -0.00000000000E+00 -0.00000000000E+00 -0.23560732538E+03  0.23560732538E+03  0.00000000000E+00 0.  1.
         24    1    1    2    0    0 -0.61196261745E+01  0.11616025314E+02 -0.10927365367E+03  0.13630968128E+03  0.80419002446E+02 0.  1.
          1    1    1    2  501    0  0.12933496057E+02  0.24034615519E+02 -0.81823027121E+01  0.28493650891E+02  0.00000000000E+00 0. -1.
         -2    1    1    2    0  503 -0.68138698824E+01 -0.35650640833E+02 -0.90991680502E+02  0.97963681715E+02  0.00000000000E+00 0.  1.
<mgrwt>
<rscale>  2 0.72536623E+02</rscale>
<asrwt>0</asrwt>
<pdfrwt beam="1">  1       21 0.41784134E-02 0.72536623E+02</pdfrwt>
<pdfrwt beam="2">  1       21 0.36247283E-01 0.72536623E+02</pdfrwt>
<totfact> 0.25896190E+06</totfact>
</mgrwt>
</event>
<event>
 5    1  0.1946229E+000  0.7973478E+02  0.7546771E-02  0.1329806E+00
         21   -1    0    0  503  502  0.00000000000E+00  0.00000000000E+00  0.99374285818E+02  0.99374285818E+02  0.00000000000E+00 0. -1.
         21   -1    0    0  501  503 -0.00000000000E+00 -0.00000000000E+00 -0.77205928263E+02  0.77205928263E+02  0.00000000000E+00 0. -1.
         24    1    1    2    0    0  0.16359591478E+02  0.59037362838E+01  0.21285369687E+02  0.84986900476E+02  0.80419002446E+02 0. -1.
          1    1    1    2  501    0 -0.18713168478E+02  0.33149805351E+02 -0.24210084493E+02  0.45113417743E+02  0.00000000000E+00 0. -1.
         -2    1    1    2    0  502  0.23535769994E+01 -0.39053541635E+02  0.25093072361E+02  0.46479895863E+02  0.00000000000E+00 0.  1.
<mgrwt>
<rscale>  2 0.79734783E+02</rscale>
<asrwt>0</asrwt>
<pdfrwt beam="1">  1       21 0.15288352E-01 0.79734783E+02</pdfrwt>
<pdfrwt beam="2">  1       21 0.11877835E-01 0.79734783E+02</pdfrwt>
<totfact> 0.22073739E+06</totfact>
</mgrwt>
</event>
<event>
 5    1  0.1946229E+000  0.7208307E+02  0.7546771E-02  0.1353149E+00
         21   -1    0    0  501  502  0.00000000000E+00  0.00000000000E+00  0.56439943022E+02  0.56439943022E+02  0.00000000000E+00 0. -1.
         21   -1    0    0  502  503 -0.00000000000E+00 -0.00000000000E+00 -0.10724002376E+03  0.10724002376E+03  0.00000000000E+00 0.  1.
         24    1    1    2    0    0 -0.17364237083E+02  0.60128212033E+01 -0.58701471520E+02  0.10124598491E+03  0.80419002446E+02 0.  1.
          1    1    1    2  501    0  0.13733550956E+02 -0.32320535552E+02  0.73113223750E+01  0.35870362071E+02  0.00000000000E+00 0. -1.
         -2    1    1    2    0  503  0.36306861277E+01  0.26307714349E+02  0.59006840703E+00  0.26563619797E+02  0.00000000000E+00 0.  1.
<mgrwt>
<rscale>  2 0.72083070E+02</rscale>
<asrwt>0</asrwt>
<pdfrwt beam="1">  1       21 0.86830683E-02 0.72083070E+02</pdfrwt>
<pdfrwt beam="2">  1       21 0.16498465E-01 0.72083070E+02</pdfrwt>
<totfact> 0.32907582E+06</totfact>
</mgrwt>
</event>
<event>
 5    1  0.1946229E+000  0.9101080E+02  0.7546771E-02  0.1300422E+00
         21   -1    0    0  501  502  0.00000000000E+00  0.00000000000E+00  0.71591317018E+01  0.71591317018E+01  0.00000000000E+00 0.  1.
         21   -1    0    0  502  503 -0.00000000000E+00 -0.00000000000E+00 -0.27174328129E+04  0.27174328129E+04  0.00000000000E+00 0.  1.
         24    1    1    2    0    0  0.60174098262E+02 -0.23014218000E+02 -0.54799890705E+03  0.55760254161E+03  0.80419002446E+02 0.  0.
          1    1    1    2  501    0 -0.49590084670E+02 -0.42111953665E+01 -0.27365761297E+03  0.27814636399E+03  0.00000000000E+00 0. -1.
         -2    1    1    2    0  503 -0.10584013592E+02  0.27225413366E+02 -0.18886171612E+04  0.18888430390E+04  0.00000000000E+00 0.  1.
<mgrwt>
<rscale>  2 0.91010796E+02</rscale>
<asrwt>0</asrwt>
<pdfrwt beam="1">  1       21 0.11014041E-02 0.91010796E+02</pdfrwt>
<pdfrwt beam="2">  1       21 0.41806689E+00 0.91010796E+02</pdfrwt>
<totfact> 0.25650501E+04</totfact>
</mgrwt>
</event>
<event>
 5    1  0.1946229E+000  0.1495788E+03  0.7546771E-02  0.1200992E+00
         21   -1    0    0  501  502  0.00000000000E+00  0.00000000000E+00  0.12002415580E+04  0.12002415580E+04  0.00000000000E+00 0. -1.
         21   -1    0    0  502  503 -0.00000000000E+00 -0.00000000000E+00 -0.29302017545E+02  0.29302017545E+02  0.00000000000E+00 0.  1.
         24    1    1    2    0    0 -0.12194732142E+03  0.65154717488E+02  0.68097794435E+03  0.69951015937E+03  0.80419002446E+02 0. -1.
          1    1    1    2  501    0  0.61336997878E+02 -0.41941807575E+02  0.44479966552E+03  0.45096350737E+03  0.00000000000E+00 0. -1.
         -2    1    1    2    0  503  0.60610323543E+02 -0.23212909913E+02  0.45161930612E+02  0.79069908836E+02  0.00000000000E+00 0.  1.
<mgrwt>
<rscale>  2 0.14957878E+03</rscale>
<asrwt>0</asrwt>
<pdfrwt beam="1">  1       21 0.18465251E+00 0.14957878E+03</pdfrwt>
<pdfrwt beam="2">  1       21 0.45080036E-02 0.14957878E+03</pdfrwt>
<totfact> 0.55768339E+04</totfact>
</mgrwt>
</event>
<event>
 5    1  0.1946229E+000  0.1465143E+03  0.7546771E-02  0.1204823E+00
         21   -1    0    0  501  502  0.00000000000E+00  0.00000000000E+00  0.21940289941E+03  0.21940289941E+03  0.00000000000E+00 0. -1.
         21   -1    0    0  502  503 -0.00000000000E+00 -0.00000000000E+00 -0.25623735567E+03  0.25623735567E+03  0.00000000000E+00 0. -1.
         24    1    1    2    0    0 -0.23934665824E+02 -0.94216578622E+02 -0.97391555652E+02  0.15937993281E+03  0.80419002446E+02 0. -1.
          1    1    1    2  501    0 -0.39201007964E+02  0.96010863214E+02  0.16460055961E+03  0.19454600768E+03  0.00000000000E+00 0. -1.
         -2    1    1    2    0  503  0.63135673788E+02 -0.17942845920E+01 -0.10404346022E+03  0.12171431459E+03  0.00000000000E+00 0.  1.
<mgrwt>
<rscale>  2 0.14651427E+03</rscale>
<asrwt>0</asrwt>
<pdfrwt beam="1">  1       21 0.33754292E-01 0.14651427E+03</pdfrwt>
<pdfrwt beam="2">  1       21 0.39421132E-01 0.14651427E+03</pdfrwt>
<totfact> 0.53618655E+04</totfact>
</mgrwt>
</event>
<event>
 5    1  0.1946229E+000  0.8014515E+02  0.7546771E-02  0.1328640E+00
         21   -1    0    0  503  502  0.00000000000E+00  0.00000000000E+00  0.18139710983E+02  0.18139710983E+02  0.00000000000E+00 0.  1.
         21   -1    0    0  501  503 -0.00000000000E+00 -0.00000000000E+00 -0.45502503157E+03  0.45502503157E+03  0.00000000000E+00 0. -1.
         24    1    1    2    0    0  0.10900354260E+02  0.25707934487E+02 -0.23665255334E+03  0.25149823573E+03  0.80419002446E+02 0. -1.
          1    1    1    2  501    0  0.85709763405E+01 -0.46144640983E+02 -0.18225285186E+03  0.18819907422E+03  0.00000000000E+00 0. -1.
         -2    1    1    2    0  502 -0.19471330600E+02  0.20436706496E+02 -0.17979915392E+02  0.33467432606E+02  0.00000000000E+00 0.  1.
<mgrwt>
<rscale>  2 0.80145147E+02</rscale>
<asrwt>0</asrwt>
<pdfrwt beam="1">  1       21 0.27907249E-02 0.80145147E+02</pdfrwt>
<pdfrwt beam="2">  1       21 0.70003848E-01 0.80145147E+02</pdfrwt>
<totfact> 0.13116338E+06</totfact>
</mgrwt>
</event>
<event>
 5    1  0.1946229E+000  0.8341238E+02  0.7546771E-02  0.1319637E+00
         21   -1    0    0  501  502  0.00000000000E+00  0.00000000000E+00  0.12888360780E+03  0.12888360780E+03  0.00000000000E+00 0.  1.
         21   -1    0    0  502  503 -0.00000000000E+00 -0.00000000000E+00 -0.54473925053E+02  0.54473925053E+02  0.00000000000E+00 0. -1.
         24    1    1    2    0    0  0.21914052027E+02  0.12820440183E+01  0.38241416780E+02  0.91714182245E+02  0.80419002446E+02 0. -1.
          1    1    1    2  501    0  0.38607372054E+01  0.37061595444E+02  0.10151185643E+02  0.38620120644E+02  0.00000000000E+00 0. -1.
         -2    1    1    2    0  503 -0.25774789232E+02 -0.38343639462E+02  0.26017080321E+02  0.53023229962E+02  0.00000000000E+00 0.  1.
<mgrwt>
<rscale>  2 0.83412385E+02</rscale>
<asrwt>0</asrwt>
<pdfrwt beam="1">  1       21 0.19828247E-01 0.83412385E+02</pdfrwt>
<pdfrwt beam="2">  1       21 0.83806039E-02 0.83412385E+02</pdfrwt>
<totfact> 0.25289291E+06</totfact>
</mgrwt>
</event>
<event>
 5    1  0.1946229E+000  0.2430373E+03  0.7546771E-02  0.1117786E+00
         21   -1    0    0  503  502  0.00000000000E+00  0.00000000000E+00  0.19744562718E+03  0.19744562718E+03  0.00000000000E+00 0.  1.
         21   -1    0    0  501  503 -0.00000000000E+00 -0.00000000000E+00 -0.69223339445E+03  0.69223339445E+03  0.00000000000E+00 0. -1.
         24    1    1    2    0    0  0.21454516862E+03  0.89478104459E+02 -0.57349287028E+02  0.25257101423E+03  0.80419002446E+02 0.  1.
          1    1    1    2  501    0 -0.75413302414E+02 -0.13868015941E+01 -0.46418696121E+03  0.47027505181E+03  0.00000000000E+00 0. -1.
         -2    1    1    2    0  502 -0.13913186620E+03 -0.88091302865E+02  0.26748480964E+02  0.16683295558E+03  0.00000000000E+00 0.  1.
<mgrwt>
<rscale>  2 0.24303734E+03</rscale>
<asrwt>0</asrwt>
<pdfrwt beam="1">  1       21 0.30376250E-01 0.24303734E+03</pdfrwt>
<pdfrwt beam="2">  1       21 0.10649745E+00 0.24303734E+03</pdfrwt>
<totfact> 0.70931764E+03</totfact>
</mgrwt>
</event>
<event>
 5    1  0.1946229E+000  0.1090786E+03  0.7546771E-02  0.1262286E+00
         21   -1    0    0  503  502  0.00000000000E+00  0.00000000000E+00  0.23042990250E+03  0.23042990250E+03  0.00000000000E+00 0. -1.
         21   -1    0    0  501  503 -0.00000000000E+00 -0.00000000000E+00 -0.18168213511E+03  0.18168213511E+03  0.00000000000E+00 0.  1.
         24    1    1    2    0    0  0.48510018209E+02  0.38103701692E+01 -0.52041031030E+02  0.10743940456E+03  0.80419002446E+02 0.  1.
          1    1    1    2  501    0 -0.71078948862E+02 -0.39963700166E+02 -0.82794123946E+02  0.11620749228E+03  0.00000000000E+00 0. -1.
         -2    1    1    2    0  502  0.22568930653E+02  0.36153329997E+02  0.18358292236E+03  0.18846514077E+03  0.00000000000E+00 0.  1.
<mgrwt>
<rscale>  2 0.10907863E+03</rscale>
<asrwt>0</asrwt>
<pdfrwt beam="1">  1       21 0.35450754E-01 0.10907863E+03</pdfrwt>
<pdfrwt beam="2">  1       21 0.27951098E-01 0.10907863E+03</pdfrwt>
<totfact> 0.97005811E+04</totfact>
</mgrwt>
</event>
<event>
 5    1  0.1946229E+000  0.8218391E+02  0.7546771E-02  0.1322966E+00
         21   -1    0    0  503  502  0.00000000000E+00  0.00000000000E+00  0.29103682959E+03  0.29103682959E+03  0.00000000000E+00 0.  1.
         21   -1    0    0  501  503 -0.00000000000E+00 -0.00000000000E+00 -0.65495227638E+02  0.65495227638E+02  0.00000000000E+00 0.  1.
         24    1    1    2    0    0 -0.20631578636E+02 -0.42163483671E+02  0.19331638632E+02  0.95101785466E+02  0.80419002446E+02 0.  1.
          1    1    1    2  501    0  0.20849740764E+02 -0.70713469280E+01 -0.20109070622E+02  0.29817618258E+02  0.00000000000E+00 0. -1.
         -2    1    1    2    0  502 -0.21816212863E+00  0.49234830599E+02  0.22631903395E+03  0.23161265351E+03  0.00000000000E+00 0.  1.
<mgrwt>
<rscale>  2 0.82183915E+02</rscale>
<asrwt>0</asrwt>
<pdfrwt beam="1">  1       21 0.44774896E-01 0.82183915E+02</pdfrwt>
<pdfrwt beam="2">  1       21 0.10076189E-01 0.82183915E+02</pdfrwt>
<totfact> 0.38970112E+05</totfact>
</mgrwt>
</event>
<event>
 5    1  0.1946229E+000  0.8399905E+02  0.7546771E-02  0.1318071E+00
         21   -1    0    0  501  502  0.00000000000E+00  0.00000000000E+00  0.25602121072E+02  0.25602121072E+02  0.00000000000E+00 0. -1.
         21   -1    0    0  502  503 -0.00000000000E+00 -0.00000000000E+00 -0.53707491450E+03  0.53707491450E+03  0.00000000000E+00 0. -1.
         24    1    1    2    0    0 -0.49324589391E+02 -0.27249037958E+02 -0.29891691760E+03  0.31463306369E+03  0.80419002446E+02 0. -1.
          1    1    1    2  501    0  0.13586516042E+02  0.31019742980E+02 -0.14441785594E+01  0.33895479409E+02  0.00000000000E+00 0. -1.
         -2    1    1    2    0  503  0.35738073349E+02 -0.37707050219E+01 -0.21111169727E+03  0.21414849247E+03  0.00000000000E+00 0.  1.
<mgrwt>
<rscale>  2 0.83999048E+02</rscale>
<asrwt>0</asrwt>
<pdfrwt beam="1">  1       21 0.39387875E-02 0.83999048E+02</pdfrwt>
<pdfrwt beam="2">  1       21 0.82626917E-01 0.83999048E+02</pdfrwt>
<totfact> 0.52139724E+05</totfact>
</mgrwt>
</event>
<event>
 5    1  0.1946229E+000  0.6578590E+02  0.7546771E-02  0.1375039E+00
         21   -1    0    0  503  502  0.00000000000E+00  0.00000000000E+00  0.36660533120E+02  0.36660533120E+02  0.00000000000E+00 0. -1.
         21   -1    0    0  501  503 -0.00000000000E+00 -0.00000000000E+00 -0.12669802032E+03  0.12669802032E+03  0.00000000000E+00 0.  1.
         24    1    1    2    0    0  0.20486193325E+01  0.14593221387E+02 -0.37176294186E+02  0.89813427478E+02  0.80419002446E+02 0.  1.
          1    1    1    2  501    0 -0.24805316265E+02 -0.89219806533E+01 -0.36180605051E+02  0.44765406685E+02  0.00000000000E+00 0. -1.
         -2    1    1    2    0  502  0.22756696933E+02 -0.56712407336E+01 -0.16680587960E+02  0.28779719273E+02  0.00000000000E+00 0.  1.
<mgrwt>
<rscale>  2 0.65785905E+02</rscale>
<asrwt>0</asrwt>
<pdfrwt beam="1">  1       21 0.56400822E-02 0.65785905E+02</pdfrwt>
<pdfrwt beam="2">  1       21 0.19492003E-01 0.65785905E+02</pdfrwt>
<totfact> 0.50057744E+06</totfact>
</mgrwt>
</event>
<event>
 5    1  0.1946229E+000  0.1816195E+03  0.7546771E-02  0.1166245E+00
         21   -1    0    0  501  502  0.00000000000E+00  0.00000000000E+00  0.89436436626E+02  0.89436436626E+02  0.00000000000E+00 0. -1.
         21   -1    0    0  502  503 -0.00000000000E+00 -0.00000000000E+00 -0.13881383888E+04  0.13881383888E+04  0.00000000000E+00 0.  1.
         24    1    1    2    0    0 -0.80125442241E+02 -0.94519654500E+02  0.42821540220E+01  0.14778228709E+03  0.80419002446E+02 0. -1.
          1    1    1    2  501    0 -0.41767096858E+02  0.83208008784E+02 -0.20676490477E+03  0.22675931943E+03  0.00000000000E+00 0. -1.
         -2    1    1    2    0  503  0.12189253910E+03  0.11311645717E+02 -0.10962192014E+04  0.11030332189E+04  0.00000000000E+00 0.  1.
<mgrwt>
<rscale>  2 0.18161947E+03</rscale>
<asrwt>0</asrwt>
<pdfrwt beam="1">  1       21 0.13759452E-01 0.18161947E+03</pdfrwt>
<pdfrwt beam="2">  1       21 0.21355974E+00 0.18161947E+03</pdfrwt>
<totfact> 0.51129770E+03</totfact>
</mgrwt>
</event>
<event>
 5    1  0.1946229E+000  0.6796743E+02  0.7546771E-02  0.1367145E+00
         21   -1    0    0  503  502  0.00000000000E+00  0.00000000000E+00  0.11373619427E+02  0.11373619427E+02  0.00000000000E+00 0. -1.
         21   -1    0    0  501  503 -0.00000000000E+00 -0.00000000000E+00 -0.43272495156E+03  0.43272495156E+03  0.00000000000E+00 0.  1.
         24    1    1    2    0    0 -0.12075720676E+02  0.10947921377E+02 -0.26723082740E+03  0.27954464952E+03  0.80419002446E+02 0.  1.
          1    1    1    2  501    0  0.32321421310E+02 -0.45013259333E+01 -0.12000519609E+03  0.12436311068E+03  0.00000000000E+00 0. -1.
         -2    1    1    2    0  502 -0.20245700634E+02 -0.64465954434E+01 -0.34115308650E+02  0.40190810781E+02  0.00000000000E+00 0.  1.
<mgrwt>
<rscale>  2 0.67967434E+02</rscale>
<asrwt>0</asrwt>
<pdfrwt beam="1">  1       21 0.17497881E-02 0.67967434E+02</pdfrwt>
<pdfrwt beam="2">  1       21 0.66573051E-01 0.67967434E+02</pdfrwt>
<totfact> 0.30578107E+06</totfact>
</mgrwt>
</event>
<event>
 5    1  0.1946229E+000  0.1367282E+03  0.7546771E-02  0.1217800E+00
         21   -1    0    0  503  502  0.00000000000E+00  0.00000000000E+00  0.36471801504E+03  0.36471801504E+03  0.00000000000E+00 0.  1.
         21   -1    0    0  501  503 -0.00000000000E+00 -0.00000000000E+00 -0.51720856107E+02  0.51720856107E+02  0.00000000000E+00 0. -1.
         24    1    1    2    0    0 -0.46066469361E+02  0.81689914167E+02  0.13570956818E+03  0.18352020196E+03  0.80419002446E+02 0. -1.
          1    1    1    2  501    0  0.37565645054E+02  0.23546579234E+02  0.39873695043E+02  0.59628270462E+02  0.00000000000E+00 0. -1.
         -2    1    1    2    0  502  0.85008243070E+01 -0.10523649340E+03  0.13741389571E+03  0.17329039873E+03  0.00000000000E+00 0.  1.
<mgrwt>
<rscale>  2 0.13672819E+03</rscale>
<asrwt>0</asrwt>
<pdfrwt beam="1">  1       21 0.56110462E-01 0.13672819E+03</pdfrwt>
<pdfrwt beam="2">  1       21 0.79570550E-02 0.13672819E+03</pdfrwt>
<totfact> 0.36611301E+05</totfact>
</mgrwt>
</event>
<event>
 5    1  0.1946229E+000  0.6870862E+02  0.7546771E-02  0.1364540E+00
         21   -1    0    0  501  502  0.00000000000E+00  0.00000000000E+00  0.14251203480E+02  0.14251203480E+02  0.00000000000E+00 0. -1.
         21   -1    0    0  502  503 -0.00000000000E+00 -0.00000000000E+00 -0.45397774809E+03  0.45397774809E+03  0.00000000000E+00 0.  1.
         24    1    1    2    0    0  0.10212596850E+02  0.73995767392E+01 -0.36030976125E+03  0.36939056685E+03  0.80419002446E+02 0.  1.
          1    1    1    2  501    0 -0.18404414213E+02 -0.28191854257E+02 -0.32138753719E+02  0.46544630191E+02  0.00000000000E+00 0. -1.
         -2    1    1    2    0  503  0.81918173634E+01  0.20792277518E+02 -0.47278029636E+02  0.52293754525E+02  0.00000000000E+00 0.  1.
<mgrwt>
<rscale>  2 0.68708617E+02</rscale>
<asrwt>0</asrwt>
<pdfrwt beam="1">  1       21 0.21924929E-02 0.68708617E+02</pdfrwt>
<pdfrwt beam="2">  1       21 0.69842728E-01 0.68708617E+02</pdfrwt>
<totfact> 0.19314203E+06</totfact>
</mgrwt>
</event>
<event>
 5    1  0.1946229E+000  0.1105275E+03  0.7546771E-02  0.1259596E+00
         21   -1    0    0  501  502  0.00000000000E+00  0.00000000000E+00  0.42165852008E+02  0.42165852008E+02  0.00000000000E+00 0.  1.
         21   -1    0    0  502  503 -0.00000000000E+00 -0.00000000000E+00 -0.87329861997E+03  0.87329861997E+03  0.00000000000E+00 0.  1.
         24    1    1    2    0    0  0.22809865155E+02  0.65221175009E+02 -0.40493792985E+02  0.11349473487E+03  0.80419002446E+02 0.  1.
          1    1    1    2  501    0 -0.40423945294E+02  0.67068630489E+01 -0.11124479048E+03  0.11855159541E+03  0.00000000000E+00 0. -1.
         -2    1    1    2    0  503  0.17614080140E+02 -0.71928038058E+02 -0.67939418449E+03  0.68341814170E+03  0.00000000000E+00 0.  1.
<mgrwt>
<rscale>  2 0.11052746E+03</rscale>
<asrwt>0</asrwt>
<pdfrwt beam="1">  1       21 0.64870544E-02 0.11052746E+03</pdfrwt>
<pdfrwt beam="2">  1       21 0.13435363E+00 0.11052746E+03</pdfrwt>
<totfact> 0.71721101E+04</totfact>
</mgrwt>
</event>
<event>
 5    1  0.1946229E+000  0.7850501E+02  0.7546771E-02  0.1333348E+00
         21   -1    0    0  501  502  0.00000000000E+00  0.00000000000E+00  0.13698668453E+04  0.13698668453E+04  0.00000000000E+00 0.  1.
         21   -1    0    0  502  503 -0.00000000000E+00 -0.00000000000E+00 -0.81103352588E+01  0.81103352588E+01  0.00000000000E+00 0. -1.
         24    1    1    2    0    0 -0.30816961479E+02 -0.84631617786E+01  0.81009013776E+03  0.81469905945E+03  0.80419002446E+02 0.  1.
          1    1    1    2  501    0  0.20420821677E+02  0.35806733583E+02  0.51368965853E+03  0.51534085556E+03  0.00000000000E+00 0. -1.
         -2    1    1    2    0  503  0.10396139802E+02 -0.27343571804E+02  0.37976713799E+02  0.47937265595E+02  0.00000000000E+00 0.  1.
<mgrwt>
<rscale>  2 0.78505009E+02</rscale>
<asrwt>0</asrwt>
<pdfrwt beam="1">  1       21 0.21074856E+00 0.78505009E+02</pdfrwt>
<pdfrwt beam="2">  1       21 0.12477450E-02 0.78505009E+02</pdfrwt>
<totfact> 0.32226831E+05</totfact>
</mgrwt>
</event>
<event>
 5    1  0.1946229E+000  0.7977592E+02  0.7546771E-02  0.1329689E+00
         21   -1    0    0  501  502  0.00000000000E+00  0.00000000000E+00  0.31780780417E+03  0.31780780417E+03  0.00000000000E+00 0.  1.
         21   -1    0    0  502  503 -0.00000000000E+00 -0.00000000000E+00 -0.20879135112E+02  0.20879135112E+02  0.00000000000E+00 0.  1.
         24    1    1    2    0    0 -0.24590251807E+02 -0.13784936296E+02  0.18588358543E+03  0.20448625440E+03  0.80419002446E+02 0.  1.
          1    1    1    2  501    0 -0.18259070317E+01 -0.26281016361E+02  0.50344742206E+02  0.56820936505E+02  0.00000000000E+00 0. -1.
         -2    1    1    2    0  503  0.26416158838E+02  0.40065952657E+02  0.60700341424E+02  0.77379748378E+02  0.00000000000E+00 0.  1.
<mgrwt>
<rscale>  2 0.79775918E+02</rscale>
<asrwt>0</asrwt>
<pdfrwt beam="1">  1       21 0.48893505E-01 0.79775918E+02</pdfrwt>
<pdfrwt beam="2">  1       21 0.32121749E-02 0.79775918E+02</pdfrwt>
<totfact> 0.22075027E+06</totfact>
</mgrwt>
</event>
<event>
 5    1  0.1946229E+000  0.7716100E+02  0.7546771E-02  0.1337307E+00
         21   -1    0    0  501  502  0.00000000000E+00  0.00000000000E+00  0.14521660467E+03  0.14521660467E+03  0.00000000000E+00 0.  1.
         21   -1    0    0  502  503 -0.00000000000E+00 -0.00000000000E+00 -0.80505102053E+02  0.80505102053E+02  0.00000000000E+00 0.  1.
         24    1    1    2    0    0  0.27228190424E+02 -0.78920311769E+01  0.81055705041E+02  0.11764736199E+03  0.80419002446E+02 0.  1.
          1    1    1    2  501    0  0.19860556524E+02  0.93277717699E+01  0.33143412854E+02  0.39748394272E+02  0.00000000000E+00 0. -1.
         -2    1    1    2    0  503 -0.47088746948E+02 -0.14357405930E+01 -0.49487615278E+02  0.68325950458E+02  0.00000000000E+00 0.  1.
<mgrwt>
<rscale>  2 0.77161000E+02</rscale>
<asrwt>0</asrwt>
<pdfrwt beam="1">  1       21 0.22341016E-01 0.77161000E+02</pdfrwt>
<pdfrwt beam="2">  1       21 0.12385400E-01 0.77161000E+02</pdfrwt>
<totfact> 0.10312234E+06</totfact>
</mgrwt>
</event>
<event>
 5    1  0.1946229E+000  0.6657093E+02  0.7546771E-02  0.1372158E+00
         21   -1    0    0  501  502  0.00000000000E+00  0.00000000000E+00  0.19118409405E+03  0.19118409405E+03  0.00000000000E+00 0.  1.
         21   -1    0    0  502  503 -0.00000000000E+00 -0.00000000000E+00 -0.25226400152E+02  0.25226400152E+02  0.00000000000E+00 0. -1.
         24    1    1    2    0    0  0.55819602105E+01 -0.15215376344E+02  0.82544756907E+02  0.11637662482E+03  0.80419002446E+02 0. -1.
          1    1    1    2  501    0  0.21037468188E+02  0.12193057607E+02  0.58897834808E+02  0.63719703912E+02  0.00000000000E+00 0. -1.
         -2    1    1    2    0  503 -0.26619428398E+02  0.30223187363E+01  0.24515102181E+02  0.36314165470E+02  0.00000000000E+00 0.  1.
<mgrwt>
<rscale>  2 0.66570928E+02</rscale>
<asrwt>0</asrwt>
<pdfrwt beam="1">  1       21 0.29412937E-01 0.66570928E+02</pdfrwt>
<pdfrwt beam="2">  1       21 0.38809848E-02 0.66570928E+02</pdfrwt>
<totfact> 0.43344440E+06</totfact>
</mgrwt>
</event>
<event>
 5    1  0.1946229E+000  0.1204944E+03  0.7546771E-02  0.1242284E+00
         21   -1    0    0  503  502  0.00000000000E+00  0.00000000000E+00  0.24408118734E+03  0.24408118734E+03  0.00000000000E+00 0.  1.
         21   -1    0    0  501  503 -0.00000000000E+00 -0.00000000000E+00 -0.28566971690E+03  0.28566971690E+03  0.00000000000E+00 0. -1.
         24    1    1    2    0    0 -0.40541211688E+02 -0.39538916470E+02  0.20076824720E+03  0.22356659142E+03  0.80419002446E+02 0.  1.
          1    1    1    2  501    0 -0.10477357023E+02  0.78024723588E+02 -0.22727318509E+03  0.24052179352E+03  0.00000000000E+00 0. -1.
         -2    1    1    2    0  502  0.51018568710E+02 -0.38485807118E+02 -0.15083591676E+02  0.65662519298E+02  0.00000000000E+00 0.  1.
<mgrwt>
<rscale>  2 0.12049440E+03</rscale>
<asrwt>0</asrwt>
<pdfrwt beam="1">  1       21 0.37550952E-01 0.12049440E+03</pdfrwt>
<pdfrwt beam="2">  1       21 0.43949187E-01 0.12049440E+03</pdfrwt>
<totfact> 0.35440401E+04</totfact>
</mgrwt>
</event>
<event>
 5    1  0.1946229E+000  0.1049576E+03  0.7546771E-02  0.1270203E+00
         21   -1    0    0  503  502  0.00000000000E+00  0.00000000000E+00  0.49028467568E+03  0.49028467568E+03  0.00000000000E+00 0.  1.
         21   -1    0    0  501  503 -0.00000000000E+00 -0.00000000000E+00 -0.67736468059E+02  0.67736468059E+02  0.00000000000E+00 0. -1.
         24    1    1    2    0    0 -0.21343651169E+00 -0.19048391781E+02  0.69676027693E+02  0.10809649196E+03  0.80419002446E+02 0.  0.
          1    1    1    2  501    0 -0.20632838256E+02 -0.50559987202E+02 -0.28565205244E+02  0.61627893612E+02  0.00000000000E+00 0. -1.
         -2    1    1    2    0  502  0.20846274767E+02  0.69608378983E+02  0.38143738517E+03  0.38829675817E+03  0.00000000000E+00 0.  1.
<mgrwt>
<rscale>  2 0.10495762E+03</rscale>
<asrwt>0</asrwt>
<pdfrwt beam="1">  1       21 0.75428409E-01 0.10495762E+03</pdfrwt>
<pdfrwt beam="2">  1       21 0.10420995E-01 0.10495762E+03</pdfrwt>
<totfact> 0.12248521E+05</totfact>
</mgrwt>
</event>
<event>
 5    1  0.1946229E+000  0.7361669E+02  0.7546771E-02  0.1348209E+00
         21   -1    0    0  501  502  0.00000000000E+00  0.00000000000E+00  0.10921124388E+03  0.10921124388E+03  0.00000000000E+00 0.  1.
         21   -1    0    0  502  503 -0.00000000000E+00 -0.00000000000E+00 -0.17441263536E+03  0.17441263536E+03  0.00000000000E+00 0.  1.
         24    1    1    2    0    0  0.14824273989E+02  0.52468529772E+01  0.35013582606E+02  0.89109233454E+02  0.80419002446E+02 0.  1.
          1    1    1    2  501    0  0.24815781026E+02  0.23607851575E+01  0.40813303599E+02  0.47823864808E+02  0.00000000000E+00 0. -1.
         -2    1    1    2    0  503 -0.39640055015E+02 -0.76076381347E+01 -0.14102827768E+03  0.14669078099E+03  0.00000000000E+00 0.  1.
<mgrwt>
<rscale>  2 0.73616689E+02</rscale>
<asrwt>0</asrwt>
<pdfrwt beam="1">  1       21 0.16801730E-01 0.73616689E+02</pdfrwt>
<pdfrwt beam="2">  1       21 0.26832713E-01 0.73616689E+02</pdfrwt>
<totfact> 0.42735947E+05</totfact>
</mgrwt>
</event>
<event>
 5    1  0.1946229E+000  0.9127908E+02  0.7546771E-02  0.1299783E+00
         21   -1    0    0  503  502  0.00000000000E+00  0.00000000000E+00  0.20950391166E+02  0.20950391166E+02  0.00000000000E+00 0.  1.
         21   -1    0    0  501  503 -0.00000000000E+00 -0.00000000000E+00 -0.76087464365E+03  0.76087464365E+03  0.00000000000E+00 0.  1.
         24    1    1    2    0    0 -0.71913039265E+02 -0.14957669416E+02 -0.60805961440E+03  0.61773694054E+03  0.80419002446E+02 0.  1.
          1    1    1    2  501    0  0.37138161783E+02  0.10430018824E+02 -0.12156492073E+03  0.12753845815E+03  0.00000000000E+00 0. -1.
         -2    1    1    2    0  502  0.34774877482E+02  0.45276505920E+01 -0.10299717352E+02  0.36549636131E+02  0.00000000000E+00 0.  1.
<mgrwt>
<rscale>  2 0.91279077E+02</rscale>
<asrwt>0</asrwt>
<pdfrwt beam="1">  1       21 0.32231369E-02 0.91279077E+02</pdfrwt>
<pdfrwt beam="2">  1       21 0.11705765E+00 0.91279077E+02</pdfrwt>
<totfact> 0.32428368E+05</totfact>
</mgrwt>
</event>
<event>
 5    1  0.1946229E+000  0.6723883E+02  0.7546771E-02  0.1369742E+00
         21   -1    0    0  503  502  0.00000000000E+00  0.00000000000E+00  0.38057126270E+03  0.38057126270E+03  0.00000000000E+00 0.  1.
         21   -1    0    0  501  503 -0.00000000000E+00 -0.00000000000E+00 -0.20223712442E+02  0.20223712442E+02  0.00000000000E+00 0.  1.
         24    1    1    2    0    0  0.71460812624E+01 -0.11633214982E+02  0.10797721469E+03  0.13532439919E+03  0.80419002446E+02 0.  1.
          1    1    1    2  501    0  0.87654224697E+00 -0.20129075194E+02  0.13245301001E+02  0.24111947103E+02  0.00000000000E+00 0. -1.
         -2    1    1    2    0  502 -0.80226235094E+01  0.31762290176E+02  0.23912503457E+03  0.24135862885E+03  0.00000000000E+00 0.  1.
<mgrwt>
<rscale>  2 0.67238828E+02</rscale>
<asrwt>0</asrwt>
<pdfrwt beam="1">  1       21 0.58549420E-01 0.67238828E+02</pdfrwt>
<pdfrwt beam="2">  1       21 0.31113407E-02 0.67238828E+02</pdfrwt>
<totfact> 0.15954323E+06</totfact>
</mgrwt>
</event>
<event>
 5    1  0.3447513E+000  0.8738039E+02  0.7546771E-02  0.1309322E+00
         21   -1    0    0  501  502  0.00000000000E+00  0.00000000000E+00  0.12548685558E+03  0.12548685558E+03  0.00000000000E+00 0.  1.
         21   -1    0    0  502  503 -0.00000000000E+00 -0.00000000000E+00 -0.51602713000E+03  0.51602713000E+03  0.00000000000E+00 0.  1.
         24    1    1    2    0    0 -0.23323428644E+02  0.35511034658E+01  0.67511434722E+02  0.10761785369E+03  0.80419002446E+02 0.  1.
          1    1    1    2  501    0 -0.32296256093E+02 -0.12474450457E+02  0.28039448394E+02  0.44551888154E+02  0.00000000000E+00 0. -1.
         -2    1    1    2    0  503  0.55619684737E+02  0.89233469908E+01 -0.48609115753E+03  0.48934424374E+03  0.00000000000E+00 0.  1.
<mgrwt>
<rscale>  2 0.87380391E+02</rscale>
<asrwt>0</asrwt>
<pdfrwt beam="1">  1       21 0.19305670E-01 0.87380391E+02</pdfrwt>
<pdfrwt beam="2">  1       21 0.79388790E-01 0.87380391E+02</pdfrwt>
<totfact> 0.36909939E+04</totfact>
</mgrwt>
</event>
<event>
 5    1  0.1946229E+000  0.1682475E+03  0.7546771E-02  0.1179688E+00
         21   -1    0    0  503  502  0.00000000000E+00  0.00000000000E+00  0.11968282467E+04  0.11968282467E+04  0.00000000000E+00 0. -1.
         21   -1    0    0  501  503 -0.00000000000E+00 -0.00000000000E+00 -0.26749584715E+02  0.26749584715E+02  0.00000000000E+00 0.  1.
         24    1    1    2    0    0  0.55277795798E+02 -0.12958575308E+03  0.75544720457E+03  0.77266797330E+03  0.80419002446E+02 0. -1.
          1    1    1    2  501    0  0.30207918265E+02  0.43453879104E+02  0.90937027290E+02  0.10521549728E+03  0.00000000000E+00 0. -1.
         -2    1    1    2    0  502 -0.85485714063E+02  0.86131873974E+02  0.32369443010E+03  0.34569436081E+03  0.00000000000E+00 0.  1.
<mgrwt>
<rscale>  2 0.16824749E+03</rscale>
<asrwt>0</asrwt>
<pdfrwt beam="1">  1       21 0.18412738E+00 0.16824749E+03</pdfrwt>
<pdfrwt beam="2">  1       21 0.41153216E-02 0.16824749E+03</pdfrwt>
<totfact> 0.64706751E+04</totfact>
</mgrwt>
</event>
<event>
 5    1  0.1946229E+000  0.7062461E+02  0.7546771E-02  0.1357982E+00
         21   -1    0    0  503  502  0.00000000000E+00  0.00000000000E+00  0.43254277999E+01  0.43254277999E+01  0.00000000000E+00 0.  1.
         21   -1    0    0  501  503 -0.00000000000E+00 -0.00000000000E+00 -0.13875126169E+04  0.13875126169E+04  0.00000000000E+00 0. -1.
         24    1    1    2    0    0  0.23666460638E+00 -0.56420257384E+01 -0.63135586336E+03  0.63648199552E+03  0.80419002446E+02 0.  0.
          1    1    1    2  501    0 -0.26088294498E+01 -0.27390567883E+02 -0.56085394402E+03  0.56152844605E+03  0.00000000000E+00 0. -1.
         -2    1    1    2    0  502  0.23721648435E+01  0.33032593622E+02 -0.19097738170E+03  0.19382760312E+03  0.00000000000E+00 0.  1.
<mgrwt>
<rscale>  2 0.70624605E+02</rscale>
<asrwt>0</asrwt>
<pdfrwt beam="1">  1       21 0.66544977E-03 0.70624605E+02</pdfrwt>
<pdfrwt beam="2">  1       21 0.21346369E+00 0.70624605E+02</pdfrwt>
<totfact> 0.82766492E+05</totfact>
</mgrwt>
</event>
<event>
 5    1  0.1946229E+000  0.7903317E+02  0.7546771E-02  0.1331818E+00
         21   -1    0    0  503  502  0.00000000000E+00  0.00000000000E+00  0.34660702793E+03  0.34660702793E+03  0.00000000000E+00 0. -1.
         21   -1    0    0  501  503 -0.00000000000E+00 -0.00000000000E+00 -0.22503028315E+02  0.22503028315E+02  0.00000000000E+00 0.  1.
         24    1    1    2    0    0 -0.64584062539E+01  0.57790942570E+02  0.22429903101E+03  0.24527285891E+03  0.80419002446E+02 0.  0.
          1    1    1    2  501    0  0.77690342812E+01 -0.29547886620E+02  0.14213031495E+02  0.33696376090E+02  0.00000000000E+00 0. -1.
         -2    1    1    2    0  502 -0.13106280273E+01 -0.28243055951E+02  0.85591937110E+02  0.90140821238E+02  0.00000000000E+00 0.  1.
<mgrwt>
<rscale>  2 0.79033172E+02</rscale>
<asrwt>0</asrwt>
<pdfrwt beam="1">  1       21 0.53324154E-01 0.79033172E+02</pdfrwt>
<pdfrwt beam="2">  1       21 0.34620046E-02 0.79033172E+02</pdfrwt>
<totfact> 0.16366273E+06</totfact>
</mgrwt>
</event>
<event>
 5    1  0.1946229E+000  0.1085720E+03  0.7546771E-02  0.1263237E+00
         21   -1    0    0  501  502  0.00000000000E+00  0.00000000000E+00  0.25235505471E+03  0.25235505471E+03  0.00000000000E+00 0. -1.
         21   -1    0    0  502  503 -0.00000000000E+00 -0.00000000000E+00 -0.15768776073E+03  0.15768776073E+03  0.00000000000E+00 0.  1.
         24    1    1    2    0    0  0.89077129497E+02 -0.13048419215E+02 -0.11461795284E+03  0.16646166919E+03  0.80419002446E+02 0.  1.
          1    1    1    2  501    0 -0.28198797882E+02 -0.11938467683E+02  0.15579853727E+03  0.15877935454E+03  0.00000000000E+00 0. -1.
         -2    1    1    2    0  503 -0.60878331614E+02  0.24986886898E+02  0.53486709553E+02  0.84801791701E+02  0.00000000000E+00 0.  1.
<mgrwt>
<rscale>  2 0.10857197E+03</rscale>
<asrwt>0</asrwt>
<pdfrwt beam="1">  1       21 0.38823854E-01 0.10857197E+03</pdfrwt>
<pdfrwt beam="2">  1       21 0.24259656E-01 0.10857197E+03</pdfrwt>
<totfact> 0.10601787E+05</totfact>
</mgrwt>
</event>
<event>
 5    1  0.1946229E+000  0.3826293E+03  0.7546771E-02  0.1049966E+00
         21   -1    0    0  501  502  0.00000000000E+00  0.00000000000E+00  0.10366082414E+04  0.10366082414E+04  0.00000000000E+00 0. -1.
         21   -1    0    0  502  503 -0.00000000000E+00 -0.00000000000E+00 -0.24692595497E+03  0.24692595497E+03  0.00000000000E+00 0.  1.
         24    1    1    2    0    0 -0.29341074812E+03 -0.22697071051E+03  0.28062335061E+02  0.38060515123E+03  0.80419002446E+02 0.  1.
          1    1    1    2  501    0  0.29412729637E+03  0.19318649183E+03  0.78605488529E+03  0.86122829133E+03  0.00000000000E+00 0. -1.
         -2    1    1    2    0  503 -0.71654825320E+00  0.33784218679E+02 -0.24434933920E+02  0.41700753816E+02  0.00000000000E+00 0.  1.
<mgrwt>
<rscale>  2 0.38262929E+03</rscale>
<asrwt>0</asrwt>
<pdfrwt beam="1">  1       21 0.15947819E+00 0.38262929E+03</pdfrwt>
<pdfrwt beam="2">  1       21 0.37988609E-01 0.38262929E+03</pdfrwt>
<totfact> 0.14854861E+03</totfact>
</mgrwt>
</event>
<event>
 5    1  0.1946229E+000  0.6771699E+02  0.7546771E-02  0.1368033E+00
         21   -1    0    0  501  502  0.00000000000E+00  0.00000000000E+00  0.42259328714E+02  0.42259328714E+02  0.00000000000E+00 0. -1.
         21   -1    0    0  502  503 -0.00000000000E+00 -0.00000000000E+00 -0.11166796351E+03  0.11166796351E+03  0.00000000000E+00 0. -1.
         24    1    1    2    0    0  0.33702974143E+02  0.26311964207E+02 -0.34879260890E+02  0.97529424899E+02  0.80419002446E+02 0. -1.
          1    1    1    2  501    0 -0.13533129867E+02 -0.18046392660E+02 -0.20461314965E+02  0.30454610523E+02  0.00000000000E+00 0. -1.
         -2    1    1    2    0  503 -0.20169844276E+02 -0.82655715470E+01 -0.14068058939E+02  0.25943256801E+02  0.00000000000E+00 0.  1.
<mgrwt>
<rscale>  2 0.67716990E+02</rscale>
<asrwt>0</asrwt>
<pdfrwt beam="1">  1       21 0.65014351E-02 0.67716990E+02</pdfrwt>
<pdfrwt beam="2">  1       21 0.17179687E-01 0.67716990E+02</pdfrwt>
<totfact> 0.49686791E+06</totfact>
</mgrwt>
</event>
<event>
 5    1  0.1946229E+000  0.6921990E+02  0.7546771E-02  0.1362766E+00
         21   -1    0    0  503  502  0.00000000000E+00  0.00000000000E+00  0.45297769663E+02  0.45297769663E+02  0.00000000000E+00 0.  1.
         21   -1    0    0  501  503 -0.00000000000E+00 -0.00000000000E+00 -0.12632748860E+03  0.12632748860E+03  0.00000000000E+00 0.  1.
         24    1    1    2    0    0  0.41303801952E+02 -0.16991868665E+02 -0.23568743661E+02  0.94960145790E+02  0.80419002446E+02 0.  1.
          1    1    1    2  501    0 -0.15913817539E+02  0.13408151392E+02 -0.41600064274E+02  0.46514443563E+02  0.00000000000E+00 0. -1.
         -2    1    1    2    0  502 -0.25389984412E+02  0.35837172724E+01 -0.15860911004E+02  0.30150668912E+02  0.00000000000E+00 0.  1.
<mgrwt>
<rscale>  2 0.69219902E+02</rscale>
<asrwt>0</asrwt>
<pdfrwt beam="1">  1       21 0.69688877E-02 0.69219902E+02</pdfrwt>
<pdfrwt beam="2">  1       21 0.19434998E-01 0.69219902E+02</pdfrwt>
<totfact> 0.35472082E+06</totfact>
</mgrwt>
</event>
<event>
 5    1  0.1980560E+000  0.1018288E+03  0.7546771E-02  0.1276497E+00
         21   -1    0    0  503  502  0.00000000000E+00  0.00000000000E+00  0.60820553816E+02  0.60820553816E+02  0.00000000000E+00 0. -1.
         21   -1    0    0  501  503 -0.00000000000E+00 -0.00000000000E+00 -0.12836749981E+04  0.12836749981E+04  0.00000000000E+00 0. -1.
         24    1    1    2    0    0  0.93406115552E+00  0.48410887589E+02 -0.58671060761E+01  0.94053843066E+02  0.80419002446E+02 0. -1.
          1    1    1    2  501    0  0.44830825355E+02 -0.24055394780E+01 -0.11686837525E+04  0.11695457678E+04  0.00000000000E+00 0. -1.
         -2    1    1    2    0  502 -0.45764886510E+02 -0.46005348111E+02 -0.48303585693E+02  0.80895941078E+02  0.00000000000E+00 0.  1.
<mgrwt>
<rscale>  2 0.10182878E+03</rscale>
<asrwt>0</asrwt>
<pdfrwt beam="1">  1       21 0.93570095E-02 0.10182878E+03</pdfrwt>
<pdfrwt beam="2">  1       21 0.19748844E+00 0.10182878E+03</pdfrwt>
<totfact> 0.13919131E+04</totfact>
</mgrwt>
</event>
<event>
 5    1  0.1946229E+000  0.6999016E+02  0.7546771E-02  0.1360126E+00
         21   -1    0    0  503  502  0.00000000000E+00  0.00000000000E+00  0.15386684835E+02  0.15386684835E+02  0.00000000000E+00 0.  1.
         21   -1    0    0  501  503 -0.00000000000E+00 -0.00000000000E+00 -0.57595353221E+03  0.57595353221E+03  0.00000000000E+00 0.  1.
         24    1    1    2    0    0 -0.13657341420E+02 -0.17128148665E+02 -0.34535396973E+03  0.35526958330E+03  0.80419002446E+02 0.  1.
          1    1    1    2  501    0  0.11339706974E+02 -0.18082586615E+02 -0.19342529242E+03  0.19459936444E+03  0.00000000000E+00 0. -1.
         -2    1    1    2    0  502  0.23176344452E+01  0.35210735280E+02 -0.21787585230E+02  0.41471269314E+02  0.00000000000E+00 0.  1.
<mgrwt>
<rscale>  2 0.69990164E+02</rscale>
<asrwt>0</asrwt>
<pdfrwt beam="1">  1       21 0.23671822E-02 0.69990164E+02</pdfrwt>
<pdfrwt beam="2">  1       21 0.88608240E-01 0.69990164E+02</pdfrwt>
<totfact> 0.10168075E+06</totfact>
</mgrwt>
</event>
<event>
 5    1  0.1946229E+000  0.7109534E+02  0.7546771E-02  0.1356407E+00
         21   -1    0    0  501  502  0.00000000000E+00  0.00000000000E+00  0.58271515893E+03  0.58271515893E+03  0.00000000000E+00 0.  1.
         21   -1    0    0  502  503 -0.00000000000E+00 -0.00000000000E+00 -0.11564544361E+02  0.11564544361E+02  0.00000000000E+00 0.  1.
         24    1    1    2    0    0 -0.20278759278E+01 -0.92444512153E+01  0.36610771463E+03  0.37495552647E+03  0.80419002446E+02 0.  1.
          1    1    1    2  501    0  0.29145897152E+02  0.16029095226E+02  0.17560878127E+03  0.17873124874E+03  0.00000000000E+00 0. -1.
         -2    1    1    2    0  503 -0.27118021224E+02 -0.67846440108E+01  0.29434118664E+02  0.40592928091E+02  0.00000000000E+00 0.  1.
<mgrwt>
<rscale>  2 0.71095340E+02</rscale>
<asrwt>0</asrwt>
<pdfrwt beam="1">  1       21 0.89648463E-01 0.71095340E+02</pdfrwt>
<pdfrwt beam="2">  1       21 0.17791611E-02 0.71095340E+02</pdfrwt>
<totfact> 0.15609766E+06</totfact>
</mgrwt>
</event>
<event>
 5    1  0.1946229E+000  0.6670492E+02  0.7546771E-02  0.1371671E+00
         21   -1    0    0  501  502  0.00000000000E+00  0.00000000000E+00  0.13418071374E+02  0.13418071374E+02  0.00000000000E+00 0.  1.
         21   -1    0    0  502  503 -0.00000000000E+00 -0.00000000000E+00 -0.33332721335E+03  0.33332721335E+03  0.00000000000E+00 0. -1.
         24    1    1    2    0    0  0.10825981360E+02  0.21301031428E+02 -0.21276875932E+03  0.22871094576E+03  0.80419002446E+02 0. -1.
          1    1    1    2  501    0  0.14745518850E+02 -0.18697674959E+02 -0.50223295144E+02  0.55582486002E+02  0.00000000000E+00 0. -1.
         -2    1    1    2    0  503 -0.25571500210E+02 -0.26033564692E+01 -0.56917087507E+02  0.62451852961E+02  0.00000000000E+00 0.  1.
<mgrwt>
<rscale>  2 0.66704917E+02</rscale>
<asrwt>0</asrwt>
<pdfrwt beam="1">  1       21 0.20643188E-02 0.66704917E+02</pdfrwt>
<pdfrwt beam="2">  1       21 0.51281106E-01 0.66704917E+02</pdfrwt>
<totfact> 0.40380503E+06</totfact>
</mgrwt>
</event>
<event>
 5    1  0.1946229E+000  0.2361218E+03  0.7546771E-02  0.1122404E+00
         21   -1    0    0  501  502  0.00000000000E+00  0.00000000000E+00  0.72111656037E+03  0.72111656037E+03  0.00000000000E+00 0. -1.
         21   -1    0    0  502  503 -0.00000000000E+00 -0.00000000000E+00 -0.80800640999E+02  0.80800640999E+02  0.00000000000E+00 0.  1.
         24    1    1    2    0    0  0.15721977895E+03  0.47274149547E+02  0.22447797490E+03  0.28950039944E+03  0.80419002446E+02 0. -1.
          1    1    1    2  501    0 -0.14237447384E+03  0.78637634233E+02  0.29713058694E+03  0.33873434135E+03  0.00000000000E+00 0. -1.
         -2    1    1    2    0  503 -0.14845305106E+02 -0.12591178378E+03  0.11870735753E+03  0.17368246057E+03  0.00000000000E+00 0.  1.
<mgrwt>
<rscale>  2 0.23612180E+03</rscale>
<asrwt>0</asrwt>
<pdfrwt beam="1">  1       21 0.11094100E+00 0.23612180E+03</pdfrwt>
<pdfrwt beam="2">  1       21 0.12430868E-01 0.23612180E+03</pdfrwt>
<totfact> 0.34439315E+04</totfact>
</mgrwt>
</event>
<event>
 5    1  0.1946229E+000  0.8093769E+02  0.7546771E-02  0.1326411E+00
         21   -1    0    0  503  502  0.00000000000E+00  0.00000000000E+00  0.26794417705E+03  0.26794417705E+03  0.00000000000E+00 0.  1.
         21   -1    0    0  501  503 -0.00000000000E+00 -0.00000000000E+00 -0.14843346975E+03  0.14843346975E+03  0.00000000000E+00 0. -1.
         24    1    1    2    0    0  0.15097300220E+02 -0.28028955244E+02  0.81153747189E+02  0.11860310891E+03  0.80419002446E+02 0.  0.
          1    1    1    2  501    0  0.76874652838E+01 -0.20433925412E+02 -0.12446854872E+03  0.12636875425E+03  0.00000000000E+00 0. -1.
         -2    1    1    2    0  502 -0.22784765504E+02  0.48462880656E+02  0.16282550882E+03  0.17140578364E+03  0.00000000000E+00 0.  1.
<mgrwt>
<rscale>  2 0.80937689E+02</rscale>
<asrwt>0</asrwt>
<pdfrwt beam="1">  1       21 0.41222181E-01 0.80937689E+02</pdfrwt>
<pdfrwt beam="2">  1       21 0.22835918E-01 0.80937689E+02</pdfrwt>
<totfact> 0.10679875E+05</totfact>
</mgrwt>
</event>
<event>
 5    1  0.1946229E+000  0.8305663E+02  0.7546771E-02  0.1320594E+00
         21   -1    0    0  501  502  0.00000000000E+00  0.00000000000E+00  0.47917179111E+02  0.47917179111E+02  0.00000000000E+00 0. -1.
         21   -1    0    0  502  503 -0.00000000000E+00 -0.00000000000E+00 -0.24543715750E+03  0.24543715750E+03  0.00000000000E+00 0. -1.
         24    1    1    2    0    0  0.22222021980E+02 -0.59543504454E+02 -0.18224915547E+03  0.20909619272E+03  0.80419002446E+02 0. -1.
          1    1    1    2  501    0 -0.12670763364E+02  0.37683492460E+02  0.17735650004E+02  0.43533287600E+02  0.00000000000E+00 0. -1.
         -2    1    1    2    0  503 -0.95512586158E+01  0.21860011994E+02 -0.33006472919E+02  0.40724856293E+02  0.00000000000E+00 0.  1.
<mgrwt>
<rscale>  2 0.83056630E+02</rscale>
<asrwt>0</asrwt>
<pdfrwt beam="1">  1       21 0.73718738E-02 0.83056630E+02</pdfrwt>
<pdfrwt beam="2">  1       21 0.37759562E-01 0.83056630E+02</pdfrwt>
<totfact> 0.93265790E+05</totfact>
</mgrwt>
</event>
<event>
 5    1  0.1946229E+000  0.1160180E+03  0.7546771E-02  0.1249814E+00
         21   -1    0    0  501  502  0.00000000000E+00  0.00000000000E+00  0.66623103039E+03  0.66623103039E+03  0.00000000000E+00 0.  1.
         21   -1    0    0  502  503 -0.00000000000E+00 -0.00000000000E+00 -0.65338866268E+02  0.65338866268E+02  0.00000000000E+00 0.  1.
         24    1    1    2    0    0  0.26766400377E+02 -0.56812322324E+02  0.32722207645E+03  0.34276170064E+03  0.80419002446E+02 0.  1.
          1    1    1    2  501    0 -0.69194080580E+02  0.15766632072E+02  0.31097908480E+03  0.31897397803E+03  0.00000000000E+00 0. -1.
         -2    1    1    2    0  503  0.42427680203E+02  0.41045690252E+02 -0.37308997127E+02  0.69834217990E+02  0.00000000000E+00 0.  1.
<mgrwt>
<rscale>  2 0.11601804E+03</rscale>
<asrwt>0</asrwt>
<pdfrwt beam="1">  1       21 0.10249708E+00 0.11601804E+03</pdfrwt>
<pdfrwt beam="2">  1       21 0.10052134E-01 0.11601804E+03</pdfrwt>
<totfact> 0.64712693E+04</totfact>
</mgrwt>
</event>
<event>
 5    1  0.1946229E+000  0.7013326E+02  0.7546771E-02  0.1359640E+00
         21   -1    0    0  501  502  0.00000000000E+00  0.00000000000E+00  0.81859680283E+02  0.81859680283E+02  0.00000000000E+00 0.  1.
         21   -1    0    0  502  503 -0.00000000000E+00 -0.00000000000E+00 -0.12432840055E+03  0.12432840055E+03  0.00000000000E+00 0. -1.
         24    1    1    2    0    0  0.22897158983E+02 -0.10267017957E+02 -0.86662568759E+02  0.12086069802E+03  0.80419002446E+02 0. -1.
          1    1    1    2  501    0 -0.13979387027E+02 -0.20038579677E+02  0.47649490637E+02  0.53548500400E+02  0.00000000000E+00 0. -1.
         -2    1    1    2    0  503 -0.89177719564E+01  0.30305597635E+02 -0.34556421400E+01  0.31778882410E+02  0.00000000000E+00 0.  1.
<mgrwt>
<rscale>  2 0.70133256E+02</rscale>
<asrwt>0</asrwt>
<pdfrwt beam="1">  1       21 0.12593797E-01 0.70133256E+02</pdfrwt>
<pdfrwt beam="2">  1       21 0.19127446E-01 0.70133256E+02</pdfrwt>
<totfact> 0.13257169E+06</totfact>
</mgrwt>
</event>
<event>
 5    1  0.1946229E+000  0.7831808E+02  0.7546771E-02  0.1333893E+00
         21   -1    0    0  501  502  0.00000000000E+00  0.00000000000E+00  0.11880233824E+03  0.11880233824E+03  0.00000000000E+00 0. -1.
         21   -1    0    0  502  503 -0.00000000000E+00 -0.00000000000E+00 -0.14878096791E+03  0.14878096791E+03  0.00000000000E+00 0.  1.
         24    1    1    2    0    0 -0.36536627146E+00 -0.30366039057E+02 -0.12337222811E+03  0.15036672651E+03  0.80419002446E+02 0.  1.
          1    1    1    2  501    0 -0.27452009975E+02  0.32774835418E+02  0.60290822784E+02  0.73910662291E+02  0.00000000000E+00 0. -1.
         -2    1    1    2    0  503  0.27817376247E+02 -0.24087963607E+01  0.33102775652E+02  0.43305917345E+02  0.00000000000E+00 0.  1.
<mgrwt>
<rscale>  2 0.78318084E+02</rscale>
<asrwt>0</asrwt>
<pdfrwt beam="1">  1       21 0.18277283E-01 0.78318084E+02</pdfrwt>
<pdfrwt beam="2">  1       21 0.22889380E-01 0.78318084E+02</pdfrwt>
<totfact> 0.49369607E+05</totfact>
</mgrwt>
</event>
<event>
 5    1  0.1946229E+000  0.1083848E+03  0.7546771E-02  0.1263590E+00
         21   -1    0    0  503  502  0.00000000000E+00  0.00000000000E+00  0.11635358762E+04  0.11635358762E+04  0.00000000000E+00 0.  1.
         21   -1    0    0  501  503 -0.00000000000E+00 -0.00000000000E+00 -0.29790049866E+02  0.29790049866E+02  0.00000000000E+00 0. -1.
         24    1    1    2    0    0 -0.70994416394E+01  0.43164733417E+02  0.73194023289E+02  0.11720997092E+03  0.80419002446E+02 0. -1.
          1    1    1    2  501    0  0.30370585117E+02  0.33433181899E+02  0.76692023582E+02  0.89004587372E+02  0.00000000000E+00 0. -1.
         -2    1    1    2    0  502 -0.23271143478E+02 -0.76597915316E+02  0.98385977948E+03  0.98711136779E+03  0.00000000000E+00 0.  1.
<mgrwt>
<rscale>  2 0.10838485E+03</rscale>
<asrwt>0</asrwt>
<pdfrwt beam="1">  1       21 0.17900548E+00 0.10838485E+03</pdfrwt>
<pdfrwt beam="2">  1       21 0.45830855E-02 0.10838485E+03</pdfrwt>
<totfact> 0.60971807E+04</totfact>
</mgrwt>
</event>
<event>
 5    1  0.1946229E+000  0.8591475E+02  0.7546771E-02  0.1313058E+00
         21   -1    0    0  503  502  0.00000000000E+00  0.00000000000E+00  0.97379805907E+03  0.97379805907E+03  0.00000000000E+00 0. -1.
         21   -1    0    0  501  503 -0.00000000000E+00 -0.00000000000E+00 -0.46617182160E+02  0.46617182160E+02  0.00000000000E+00 0. -1.
         24    1    1    2    0    0 -0.11935843133E+02 -0.55390981126E+02  0.84669209669E+03  0.85238802649E+03  0.80419002446E+02 0. -1.
          1    1    1    2  501    0  0.25415731499E+02  0.12170053504E+02 -0.34441846943E+02  0.44500678993E+02  0.00000000000E+00 0. -1.
         -2    1    1    2    0  502 -0.13479888367E+02  0.43220927622E+02  0.11493062716E+03  0.12352653575E+03  0.00000000000E+00 0.  1.
<mgrwt>
<rscale>  2 0.85914745E+02</rscale>
<asrwt>0</asrwt>
<pdfrwt beam="1">  1       21 0.14981507E+00 0.85914745E+02</pdfrwt>
<pdfrwt beam="2">  1       21 0.71718749E-02 0.85914745E+02</pdfrwt>
<totfact> 0.46896677E+04</totfact>
</mgrwt>
</event>
<event>
 5    1  0.1946229E+000  0.7337424E+02  0.7546771E-02  0.1348981E+00
         21   -1    0    0  503  502  0.00000000000E+00  0.00000000000E+00  0.82022298885E+01  0.82022298885E+01  0.00000000000E+00 0. -1.
         21   -1    0    0  501  503 -0.00000000000E+00 -0.00000000000E+00 -0.14410153179E+04  0.14410153179E+04  0.00000000000E+00 0. -1.
         24    1    1    2    0    0  0.49715252781E+02 -0.80234339990E+01 -0.41648201348E+03  0.42715391296E+03  0.80419002446E+02 0. -1.
          1    1    1    2  501    0 -0.26497786462E+02 -0.20029833160E+01 -0.95940245019E+03  0.95977039237E+03  0.00000000000E+00 0. -1.
         -2    1    1    2    0  502 -0.23217466319E+02  0.10026417315E+02 -0.56928624292E+02  0.62293242412E+02  0.00000000000E+00 0.  1.
<mgrwt>
<rscale>  2 0.73374239E+02</rscale>
<asrwt>0</asrwt>
<pdfrwt beam="1">  1       21 0.12618814E-02 0.73374239E+02</pdfrwt>
<pdfrwt beam="2">  1       21 0.22169469E+00 0.73374239E+02</pdfrwt>
<totfact> 0.27434966E+05</totfact>
</mgrwt>
</event>
<event>
 5    1  0.1946229E+000  0.9216259E+02  0.7546771E-02  0.1297698E+00
         21   -1    0    0  501  502  0.00000000000E+00  0.00000000000E+00  0.29099962981E+02  0.29099962981E+02  0.00000000000E+00 0.  1.
         21   -1    0    0  502  503 -0.00000000000E+00 -0.00000000000E+00 -0.10626473082E+04  0.10626473082E+04  0.00000000000E+00 0.  1.
         24    1    1    2    0    0 -0.14856481347E+02  0.48550556764E+02 -0.61674881130E+02  0.11335289373E+03  0.80419002446E+02 0.  1.
          1    1    1    2  501    0 -0.27044201657E+02 -0.36862758919E+02 -0.19431539446E+03  0.19962145266E+03  0.00000000000E+00 0. -1.
         -2    1    1    2    0  503  0.41900683004E+02 -0.11687797845E+02 -0.77755706965E+03  0.77877292481E+03  0.00000000000E+00 0.  1.
<mgrwt>
<rscale>  2 0.92162594E+02</rscale>
<asrwt>0</asrwt>
<pdfrwt beam="1">  1       21 0.44769172E-02 0.92162594E+02</pdfrwt>
<pdfrwt beam="2">  1       21 0.16348421E+00 0.92162594E+02</pdfrwt>
<totfact> 0.81929561E+04</totfact>
</mgrwt>
</event>
<event>
 5    1  0.1946229E+000  0.1090491E+03  0.7546771E-02  0.1262341E+00
         21   -1    0    0  501  502  0.00000000000E+00  0.00000000000E+00  0.64193547074E+02  0.64193547074E+02  0.00000000000E+00 0. -1.
         21   -1    0    0  502  503 -0.00000000000E+00 -0.00000000000E+00 -0.46878323637E+03  0.46878323637E+03  0.00000000000E+00 0.  1.
         24    1    1    2    0    0 -0.51712161654E+02  0.22728699711E+02 -0.26353426570E+03  0.28126191816E+03  0.80419002446E+02 0. -1.
          1    1    1    2  501    0  0.81581546151E+02 -0.33331485266E+02  0.17647776015E+02  0.89877586643E+02  0.00000000000E+00 0. -1.
         -2    1    1    2    0  503 -0.29869384498E+02  0.10602785555E+02 -0.15870319961E+03  0.16183727865E+03  0.00000000000E+00 0.  1.
<mgrwt>
<rscale>  2 0.10904914E+03</rscale>
<asrwt>0</asrwt>
<pdfrwt beam="1">  1       21 0.98759303E-02 0.10904914E+03</pdfrwt>
<pdfrwt beam="2">  1       21 0.72120498E-01 0.10904914E+03</pdfrwt>
<totfact> 0.14812844E+05</totfact>
</mgrwt>
</event>
<event>
 5    1  0.1946229E+000  0.1231694E+03  0.7546771E-02  0.1237958E+00
         21   -1    0    0  503  502  0.00000000000E+00  0.00000000000E+00  0.30217429090E+03  0.30217429090E+03  0.00000000000E+00 0.  1.
         21   -1    0    0  501  503 -0.00000000000E+00 -0.00000000000E+00 -0.76596992254E+02  0.76596992254E+02  0.00000000000E+00 0. -1.
         24    1    1    2    0    0 -0.87456150840E+02 -0.81438076478E+01  0.19313759541E+03  0.22690140290E+03  0.80419002446E+02 0.  1.
          1    1    1    2  501    0  0.10209788378E+03  0.24806649701E+02 -0.83911096050E+01  0.10540283897E+03  0.00000000000E+00 0. -1.
         -2    1    1    2    0  502 -0.14641732940E+02 -0.16662842053E+02  0.40830812842E+02  0.46467041289E+02  0.00000000000E+00 0.  1.
<mgrwt>
<rscale>  2 0.12316938E+03</rscale>
<asrwt>0</asrwt>
<pdfrwt beam="1">  1       21 0.46488352E-01 0.12316938E+03</pdfrwt>
<pdfrwt beam="2">  1       21 0.11784153E-01 0.12316938E+03</pdfrwt>
<totfact> 0.27290977E+05</totfact>
</mgrwt>
</event>
<event>
 5    1  0.1946229E+000  0.1460699E+03  0.7546771E-02  0.1205387E+00
         21   -1    0    0  501  502  0.00000000000E+00  0.00000000000E+00  0.23093188239E+03  0.23093188239E+03  0.00000000000E+00 0. -1.
         21   -1    0    0  502  503 -0.00000000000E+00 -0.00000000000E+00 -0.12806875988E+03  0.12806875988E+03  0.00000000000E+00 0.  1.
         24    1    1    2    0    0 -0.84626428647E+02 -0.37516751113E+02 -0.14857869381E+02  0.12351967971E+03  0.80419002446E+02 0.  0.
          1    1    1    2  501    0  0.12492418767E+03  0.25934537560E+02  0.13881688051E+03  0.18854383898E+03  0.00000000000E+00 0. -1.
         -2    1    1    2    0  503 -0.40297759022E+02  0.11582213553E+02 -0.21095888616E+02  0.46937123575E+02  0.00000000000E+00 0.  1.
<mgrwt>
<rscale>  2 0.14606992E+03</rscale>
<asrwt>0</asrwt>
<pdfrwt beam="1">  1       21 0.35527982E-01 0.14606992E+03</pdfrwt>
<pdfrwt beam="2">  1       21 0.19702886E-01 0.14606992E+03</pdfrwt>
<totfact> 0.18380109E+05</totfact>
</mgrwt>
</event>
<event>
 5    1  0.1946229E+000  0.9304927E+02  0.7546771E-02  0.1295631E+00
         21   -1    0    0  501  502  0.00000000000E+00  0.00000000000E+00  0.29059948121E+03  0.29059948121E+03  0.00000000000E+00 0.  1.
         21   -1    0    0  502  503 -0.00000000000E+00 -0.00000000000E+00 -0.82568757252E+02  0.82568757252E+02  0.00000000000E+00 0.  1.
         24    1    1    2    0    0 -0.24638783028E+02 -0.30133416049E+02  0.99553643687E+02  0.13376560215E+03  0.80419002446E+02 0.  0.
          1    1    1    2  501    0  0.31143560596E+02 -0.25801417439E+02  0.15880770947E+03  0.16387654834E+03  0.00000000000E+00 0. -1.
         -2    1    1    2    0  503 -0.65047775678E+01  0.55934833488E+02 -0.50330629202E+02  0.75526087972E+02  0.00000000000E+00 0.  1.
<mgrwt>
<rscale>  2 0.93049267E+02</rscale>
<asrwt>0</asrwt>
<pdfrwt beam="1">  1       21 0.44707612E-01 0.93049267E+02</pdfrwt>
<pdfrwt beam="2">  1       21 0.12702886E-01 0.93049267E+02</pdfrwt>
<totfact> 0.26042763E+05</totfact>
</mgrwt>
</event>
<event>
 5    1  0.1946229E+000  0.9216503E+02  0.7546771E-02  0.1297692E+00
         21   -1    0    0  501  502  0.00000000000E+00  0.00000000000E+00  0.78194616548E+02  0.78194616548E+02  0.00000000000E+00 0.  1.
         21   -1    0    0  502  503 -0.00000000000E+00 -0.00000000000E+00 -0.12307764231E+03  0.12307764231E+03  0.00000000000E+00 0.  1.
         24    1    1    2    0    0 -0.56588249253E+02 -0.48541094470E+02 -0.28155480037E+00  0.10966204007E+03  0.80419002446E+02 0.  1.
          1    1    1    2  501    0  0.30171916858E+02  0.28571869233E+02 -0.81178465110E+01  0.42339056559E+02  0.00000000000E+00 0. -1.
         -2    1    1    2    0  503  0.26416332395E+02  0.19969225237E+02 -0.36483624448E+02  0.49271162221E+02  0.00000000000E+00 0.  1.
<mgrwt>
<rscale>  2 0.92165026E+02</rscale>
<asrwt>0</asrwt>
<pdfrwt beam="1">  1       21 0.12029941E-01 0.92165026E+02</pdfrwt>
<pdfrwt beam="2">  1       21 0.18935022E-01 0.92165026E+02</pdfrwt>
<totfact> 0.14767009E+06</totfact>
</mgrwt>
</event>
<event>
 5    1  0.1946229E+000  0.8774298E+02  0.7546771E-02  0.1308411E+00
         21   -1    0    0  503  502  0.00000000000E+00  0.00000000000E+00  0.39657847950E+02  0.39657847950E+02  0.00000000000E+00 0.  1.
         21   -1    0    0  501  503 -0.00000000000E+00 -0.00000000000E+00 -0.25830015800E+03  0.25830015800E+03  0.00000000000E+00 0. -1.
         24    1    1    2    0    0 -0.40018366722E+02  0.10124034406E+02 -0.38417282794E+02  0.98219495618E+02  0.80419002446E+02 0.  1.
          1    1    1    2  501    0 -0.13741478248E+01 -0.36163426391E+02 -0.92091690120E+02  0.98947264135E+02  0.00000000000E+00 0. -1.
         -2    1    1    2    0  502  0.41392514547E+02  0.26039391985E+02 -0.88133337136E+02  0.10079124620E+03  0.00000000000E+00 0.  1.
<mgrwt>
<rscale>  2 0.87742978E+02</rscale>
<asrwt>0</asrwt>
<pdfrwt beam="1">  1       21 0.61012073E-02 0.87742978E+02</pdfrwt>
<pdfrwt beam="2">  1       21 0.39738486E-01 0.87742978E+02</pdfrwt>
<totfact> 0.11622885E+06</totfact>
</mgrwt>
</event>
<event>
 5    1  0.1946229E+000  0.9081211E+02  0.7546771E-02  0.1300897E+00
         21   -1    0    0  503  502  0.00000000000E+00  0.00000000000E+00  0.89100531699E+02  0.89100531699E+02  0.00000000000E+00 0.  1.
         21   -1    0    0  501  503 -0.00000000000E+00 -0.00000000000E+00 -0.13380104382E+03  0.13380104382E+03  0.00000000000E+00 0.  1.
         24    1    1    2    0    0  0.60809724369E+02 -0.24990543053E+01  0.19308964932E+02  0.10268456520E+03  0.80419002446E+02 0.  1.
          1    1    1    2  501    0 -0.24496123659E+02 -0.25166466949E+02 -0.65739775853E+02  0.74532739532E+02  0.00000000000E+00 0. -1.
         -2    1    1    2    0  502 -0.36313600709E+02  0.27665521254E+02  0.17302988020E+01  0.45684270780E+02  0.00000000000E+00 0.  1.
<mgrwt>
<rscale>  2 0.90812114E+02</rscale>
<asrwt>0</asrwt>
<pdfrwt beam="1">  1       21 0.13707774E-01 0.90812114E+02</pdfrwt>
<pdfrwt beam="2">  1       21 0.20584776E-01 0.90812114E+02</pdfrwt>
<totfact> 0.10063049E+06</totfact>
</mgrwt>
</event>
<event>
 5    1  0.1946229E+000  0.1763590E+03  0.7546771E-02  0.1171374E+00
         21   -1    0    0  501  502  0.00000000000E+00  0.00000000000E+00  0.14499302930E+03  0.14499302930E+03  0.00000000000E+00 0.  1.
         21   -1    0    0  502  503 -0.00000000000E+00 -0.00000000000E+00 -0.23657933272E+03  0.23657933272E+03  0.00000000000E+00 0. -1.
         24    1    1    2    0    0 -0.73111155634E+02 -0.15008225823E+03 -0.89746465078E+02  0.20589213016E+03  0.80419002446E+02 0.  0.
          1    1    1    2  501    0  0.66743792699E+02  0.12699521241E+03  0.17986807950E+02  0.14458922193E+03  0.00000000000E+00 0. -1.
         -2    1    1    2    0  503  0.63673629351E+01  0.23087045822E+02 -0.19826646286E+02  0.31091009931E+02  0.00000000000E+00 0.  1.
<mgrwt>
<rscale>  2 0.17635897E+03</rscale>
<asrwt>0</asrwt>
<pdfrwt beam="1">  1       21 0.22306620E-01 0.17635897E+03</pdfrwt>
<pdfrwt beam="2">  1       21 0.36396820E-01 0.17635897E+03</pdfrwt>
<totfact> 0.13765325E+05</totfact>
</mgrwt>
</event>
<event>
 5    1  0.1946229E+000  0.8843069E+02  0.7546771E-02  0.1306697E+00
         21   -1    0    0  503  502  0.00000000000E+00  0.00000000000E+00  0.32748173637E+03  0.32748173637E+03  0.00000000000E+00 0. -1.
         21   -1    0    0  501  503 -0.00000000000E+00 -0.00000000000E+00 -0.28704657051E+02  0.28704657051E+02  0.00000000000E+00 0. -1.
         24    1    1    2    0    0 -0.42546219851E+02  0.68877433204E+01  0.16653701762E+03  0.18989317003E+03  0.80419002446E+02 0. -1.
          1    1    1    2  501    0  0.41663154766E+02 -0.36864534808E+02  0.37933935462E+02  0.67333467543E+02  0.00000000000E+00 0. -1.
         -2    1    1    2    0  502  0.88306508498E+00  0.29976791487E+02  0.94306126234E+02  0.98959755846E+02  0.00000000000E+00 0.  1.
<mgrwt>
<rscale>  2 0.88430691E+02</rscale>
<asrwt>0</asrwt>
<pdfrwt beam="1">  1       21 0.50381803E-01 0.88430691E+02</pdfrwt>
<pdfrwt beam="2">  1       21 0.44161013E-02 0.88430691E+02</pdfrwt>
<totfact> 0.12368480E+06</totfact>
</mgrwt>
</event>
<event>
 5    1  0.1946229E+000  0.2822750E+03  0.7546771E-02  0.1094453E+00
         21   -1    0    0  503  502  0.00000000000E+00  0.00000000000E+00  0.40566738043E+03  0.40566738043E+03  0.00000000000E+00 0. -1.
         21   -1    0    0  501  503 -0.00000000000E+00 -0.00000000000E+00 -0.92878575282E+03  0.92878575282E+03  0.00000000000E+00 0. -1.
         24    1    1    2    0    0 -0.89015518295E+02  0.24252628908E+03 -0.71995079704E+03  0.76911581021E+03  0.80419002446E+02 0. -1.
          1    1    1    2  501    0  0.11648245656E+03 -0.23952479671E+03 -0.86975565234E+02  0.28018750841E+03  0.00000000000E+00 0. -1.
         -2    1    1    2    0  502 -0.27466938264E+02 -0.30014923784E+01  0.28380798989E+03  0.28514981463E+03  0.00000000000E+00 0.  1.
<mgrwt>
<rscale>  2 0.28227503E+03</rscale>
<asrwt>0</asrwt>
<pdfrwt beam="1">  1       21 0.62410367E-01 0.28227503E+03</pdfrwt>
<pdfrwt beam="2">  1       21 0.14289011E+00 0.28227503E+03</pdfrwt>
<totfact> 0.74551072E+02</totfact>
</mgrwt>
</event>
<event>
 5    1  0.1946229E+000  0.8037359E+02  0.7546771E-02  0.1327995E+00
         21   -1    0    0  501  502  0.00000000000E+00  0.00000000000E+00  0.28877493550E+03  0.28877493550E+03  0.00000000000E+00 0. -1.
         21   -1    0    0  502  503 -0.00000000000E+00 -0.00000000000E+00 -0.26340327504E+02  0.26340327504E+02  0.00000000000E+00 0.  1.
         24    1    1    2    0    0  0.23469586465E+02  0.31987014393E+02  0.97251233722E+02  0.13228381985E+03  0.80419002446E+02 0.  1.
          1    1    1    2  501    0 -0.41211596747E+02 -0.92545925245E+01  0.13334816109E+03  0.13987771536E+03  0.00000000000E+00 0. -1.
         -2    1    1    2    0  503  0.17742010282E+02 -0.22732421869E+02  0.31835213185E+02  0.42953727794E+02  0.00000000000E+00 0.  1.
<mgrwt>
<rscale>  2 0.80373589E+02</rscale>
<asrwt>0</asrwt>
<pdfrwt beam="1">  1       21 0.44426911E-01 0.80373589E+02</pdfrwt>
<pdfrwt beam="2">  1       21 0.40523583E-02 0.80373589E+02</pdfrwt>
<totfact> 0.18322706E+06</totfact>
</mgrwt>
</event>
<event>
 5    1  0.1946229E+000  0.9059181E+02  0.7546771E-02  0.1301425E+00
         21   -1    0    0  503  502  0.00000000000E+00  0.00000000000E+00  0.37162080766E+01  0.37162080766E+01  0.00000000000E+00 0.  1.
         21   -1    0    0  501  503 -0.00000000000E+00 -0.00000000000E+00 -0.25433012675E+04  0.25433012675E+04  0.00000000000E+00 0.  1.
         24    1    1    2    0    0  0.19656560742E+02  0.44675077091E+02 -0.85104805783E+03  0.85623142641E+03  0.80419002446E+02 0.  1.
          1    1    1    2  501    0 -0.38736404221E+02 -0.22171201021E+00 -0.78403811079E+03  0.78499446962E+03  0.00000000000E+00 0. -1.
         -2    1    1    2    0  502  0.19079843479E+02 -0.44453365081E+02 -0.90449889080E+03  0.90579157953E+03  0.00000000000E+00 0.  1.
<mgrwt>
<rscale>  2 0.90591808E+02</rscale>
<asrwt>0</asrwt>
<pdfrwt beam="1">  1       21 0.57172497E-03 0.90591808E+02</pdfrwt>
<pdfrwt beam="2">  1       21 0.39127667E+00 0.90591808E+02</pdfrwt>
<totfact> 0.10315888E+05</totfact>
</mgrwt>
</event>
<event>
 5    1  0.1946229E+000  0.8950135E+02  0.7546771E-02  0.1304064E+00
         21   -1    0    0  501  502  0.00000000000E+00  0.00000000000E+00  0.69062859729E+03  0.69062859729E+03  0.00000000000E+00 0. -1.
         21   -1    0    0  502  503 -0.00000000000E+00 -0.00000000000E+00 -0.16044144960E+02  0.16044144960E+02  0.00000000000E+00 0.  1.
         24    1    1    2    0    0 -0.61657015283E+02  0.34409801854E+01  0.28212496632E+03  0.29979182853E+03  0.80419002446E+02 0.  1.
          1    1    1    2  501    0  0.62316077762E+01 -0.19037275668E+02  0.27833042865E+03  0.27905031502E+03  0.00000000000E+00 0. -1.
         -2    1    1    2    0  503  0.55425407507E+02  0.15596295483E+02  0.11412905737E+03  0.12783059871E+03  0.00000000000E+00 0.  1.
<mgrwt>
<rscale>  2 0.89501352E+02</rscale>
<asrwt>0</asrwt>
<pdfrwt beam="1">  1       21 0.10625053E+00 0.89501352E+02</pdfrwt>
<pdfrwt beam="2">  1       21 0.24683305E-02 0.89501352E+02</pdfrwt>
<totfact> 0.62862261E+05</totfact>
</mgrwt>
</event>
<event>
 5    1  0.1946229E+000  0.8128910E+02  0.7546771E-02  0.1325432E+00
         21   -1    0    0  501  502  0.00000000000E+00  0.00000000000E+00  0.39236790981E+02  0.39236790981E+02  0.00000000000E+00 0.  1.
         21   -1    0    0  502  503 -0.00000000000E+00 -0.00000000000E+00 -0.51981569768E+03  0.51981569768E+03  0.00000000000E+00 0.  1.
         24    1    1    2    0    0 -0.59099406072E+02 -0.16600488899E+02 -0.51506152123E+02  0.11352715838E+03  0.80419002446E+02 0.  1.
          1    1    1    2  501    0  0.31548119394E+02  0.80333315773E+01 -0.26656245150E+02  0.42075808477E+02  0.00000000000E+00 0. -1.
         -2    1    1    2    0  503  0.27551286678E+02  0.85671573214E+01 -0.40241650943E+03  0.40344952180E+03  0.00000000000E+00 0.  1.
<mgrwt>
<rscale>  2 0.81289102E+02</rscale>
<asrwt>0</asrwt>
<pdfrwt beam="1">  1       21 0.60364294E-02 0.81289102E+02</pdfrwt>
<pdfrwt beam="2">  1       21 0.79971645E-01 0.81289102E+02</pdfrwt>
<totfact> 0.27617271E+05</totfact>
</mgrwt>
</event>
<event>
 5    1  0.1946229E+000  0.7640297E+02  0.7546771E-02  0.1339581E+00
         21   -1    0    0  503  502  0.00000000000E+00  0.00000000000E+00  0.22740387292E+02  0.22740387292E+02  0.00000000000E+00 0.  1.
         21   -1    0    0  501  503 -0.00000000000E+00 -0.00000000000E+00 -0.26914163682E+03  0.26914163682E+03  0.00000000000E+00 0. -1.
         24    1    1    2    0    0  0.32967523996E+02 -0.30115179125E+02 -0.17354662395E+03  0.19641646644E+03  0.80419002446E+02 0.  1.
          1    1    1    2  501    0 -0.13521302522E+02  0.37621546700E+02 -0.55157629514E+02  0.68121732888E+02  0.00000000000E+00 0. -1.
         -2    1    1    2    0  502 -0.19446221474E+02 -0.75063675753E+01 -0.17696996064E+02  0.27343824777E+02  0.00000000000E+00 0.  1.
<mgrwt>
<rscale>  2 0.76402972E+02</rscale>
<asrwt>0</asrwt>
<pdfrwt beam="1">  1       21 0.34985214E-02 0.76402972E+02</pdfrwt>
<pdfrwt beam="2">  1       21 0.41406402E-01 0.76402972E+02</pdfrwt>
<totfact> 0.26747156E+06</totfact>
</mgrwt>
</event>
<event>
 5    1  0.1946229E+000  0.6670404E+02  0.7546771E-02  0.1371674E+00
         21   -1    0    0  501  502  0.00000000000E+00  0.00000000000E+00  0.81117795025E+03  0.81117795025E+03  0.00000000000E+00 0.  1.
         21   -1    0    0  502  503 -0.00000000000E+00 -0.00000000000E+00 -0.69185595634E+01  0.69185595634E+01  0.00000000000E+00 0. -1.
         24    1    1    2    0    0  0.32753231844E+01 -0.20262013320E+02  0.43288835053E+03  0.44077297660E+03  0.80419002446E+02 0.  1.
          1    1    1    2  501    0  0.17331254090E+02  0.23862648172E+02  0.32635000677E+03  0.32767991282E+03  0.00000000000E+00 0. -1.
         -2    1    1    2    0  503 -0.20606577274E+02 -0.36006348518E+01  0.45021033388E+02  0.49643620392E+02  0.00000000000E+00 0.  1.
<mgrwt>
<rscale>  2 0.66704037E+02</rscale>
<asrwt>0</asrwt>
<pdfrwt beam="1">  1       21 0.12479653E+00 0.66704037E+02</pdfrwt>
<pdfrwt beam="2">  1       21 0.10643944E-02 0.66704037E+02</pdfrwt>
<totfact> 0.16200973E+06</totfact>
</mgrwt>
</event>
<event>
 5    1  0.1946229E+000  0.1128664E+03  0.7546771E-02  0.1255352E+00
         21   -1    0    0  503  502  0.00000000000E+00  0.00000000000E+00  0.46208271256E+02  0.46208271256E+02  0.00000000000E+00 0. -1.
         21   -1    0    0  501  503 -0.00000000000E+00 -0.00000000000E+00 -0.33919240088E+03  0.33919240088E+03  0.00000000000E+00 0. -1.
         24    1    1    2    0    0  0.38719249546E+02  0.50316758802E+02 -0.96949700964E+02  0.14105820420E+03  0.80419002446E+02 0. -1.
          1    1    1    2  501    0 -0.64212424936E+02 -0.67002532329E+02 -0.19245820832E+03  0.21366501071E+03  0.00000000000E+00 0. -1.
         -2    1    1    2    0  502  0.25493175389E+02  0.16685773527E+02 -0.35762203446E+01  0.30677457221E+02  0.00000000000E+00 0.  1.
<mgrwt>
<rscale>  2 0.11286642E+03</rscale>
<asrwt>0</asrwt>
<pdfrwt beam="1">  1       21 0.71089650E-02 0.11286642E+03</pdfrwt>
<pdfrwt beam="2">  1       21 0.52183445E-01 0.11286642E+03</pdfrwt>
<totfact> 0.51826680E+05</totfact>
</mgrwt>
</event>
<event>
 5    1  0.1946229E+000  0.8574803E+02  0.7546771E-02  0.1313488E+00
         21   -1    0    0  503  502  0.00000000000E+00  0.00000000000E+00  0.48488702063E+02  0.48488702063E+02  0.00000000000E+00 0. -1.
         21   -1    0    0  501  503 -0.00000000000E+00 -0.00000000000E+00 -0.20270340304E+03  0.20270340304E+03  0.00000000000E+00 0. -1.
         24    1    1    2    0    0 -0.14814455551E+02  0.60804414332E+02 -0.13205931405E+03  0.16680384671E+03  0.80419002446E+02 0. -1.
          1    1    1    2  501    0  0.24074143996E+02 -0.38022958180E+02 -0.34656981799E+02  0.56801550554E+02  0.00000000000E+00 0. -1.
         -2    1    1    2    0  502 -0.92596884452E+01 -0.22781456152E+02  0.12501594879E+02  0.27586707832E+02  0.00000000000E+00 0.  1.
<mgrwt>
<rscale>  2 0.85748032E+02</rscale>
<asrwt>0</asrwt>
<pdfrwt beam="1">  1       21 0.74598004E-02 0.85748032E+02</pdfrwt>
<pdfrwt beam="2">  1       21 0.31185139E-01 0.85748032E+02</pdfrwt>
<totfact> 0.13249050E+06</totfact>
</mgrwt>
</event>
<event>
 5    1  0.4106585E+000  0.6675855E+02  0.7546771E-02  0.1371476E+00
         21   -1    0    0  503  502  0.00000000000E+00  0.00000000000E+00  0.59012862527E+03  0.59012862527E+03  0.00000000000E+00 0. -1.
         21   -1    0    0  501  503 -0.00000000000E+00 -0.00000000000E+00 -0.10718988308E+03  0.10718988308E+03  0.00000000000E+00 0. -1.
         24    1    1    2    0    0 -0.12442529544E+01 -0.13453750203E+01  0.52573665440E+03  0.53185487112E+03  0.80419002446E+02 0. -1.
          1    1    1    2  501    0  0.24370895253E+02  0.12512800743E+02 -0.99507567153E+02  0.10320981852E+03  0.00000000000E+00 0. -1.
         -2    1    1    2    0  502 -0.23126642299E+02 -0.11167425722E+02  0.56709654939E+02  0.62253818714E+02  0.00000000000E+00 0.  1.
<mgrwt>
<rscale>  2 0.66758547E+02</rscale>
<asrwt>0</asrwt>
<pdfrwt beam="1">  1       21 0.90789017E-01 0.66758547E+02</pdfrwt>
<pdfrwt beam="2">  1       21 0.16490752E-01 0.66758547E+02</pdfrwt>
<totfact> 0.37156947E+04</totfact>
</mgrwt>
</event>
<event>
 5    1  0.1946229E+000  0.8226823E+02  0.7546771E-02  0.1322735E+00
         21   -1    0    0  503  502  0.00000000000E+00  0.00000000000E+00  0.80116064684E+02  0.80116064684E+02  0.00000000000E+00 0.  1.
         21   -1    0    0  501  503 -0.00000000000E+00 -0.00000000000E+00 -0.11737291524E+03  0.11737291524E+03  0.00000000000E+00 0. -1.
         24    1    1    2    0    0 -0.29239418970E+02 -0.22958328748E+02  0.31403116516E+02  0.93996809317E+02  0.80419002446E+02 0.  1.
          1    1    1    2  501    0 -0.60289353140E+01  0.37361239657E+02 -0.44343487984E+02  0.58297128714E+02  0.00000000000E+00 0. -1.
         -2    1    1    2    0  502  0.35268354284E+02 -0.14402910908E+02 -0.24316479090E+02  0.45195041895E+02  0.00000000000E+00 0.  1.
<mgrwt>
<rscale>  2 0.82268228E+02</rscale>
<asrwt>0</asrwt>
<pdfrwt beam="1">  1       21 0.12325548E-01 0.82268228E+02</pdfrwt>
<pdfrwt beam="2">  1       21 0.18057372E-01 0.82268228E+02</pdfrwt>
<totfact> 0.15365775E+06</totfact>
</mgrwt>
</event>
<event>
 5    1  0.1946229E+000  0.7200016E+02  0.7546771E-02  0.1353421E+00
         21   -1    0    0  501  502  0.00000000000E+00  0.00000000000E+00  0.51796642978E+02  0.51796642978E+02  0.00000000000E+00 0. -1.
         21   -1    0    0  502  503 -0.00000000000E+00 -0.00000000000E+00 -0.11549228691E+03  0.11549228691E+03  0.00000000000E+00 0.  1.
         24    1    1    2    0    0  0.43009694178E+02  0.14236929777E+02 -0.57355448771E+02  0.10867100543E+03  0.80419002446E+02 0.  0.
          1    1    1    2  501    0 -0.29718967528E+02  0.30693032587E+01  0.98366911640E+01  0.31454699911E+02  0.00000000000E+00 0. -1.
         -2    1    1    2    0  503 -0.13290726650E+02 -0.17306233036E+02 -0.16176886328E+02  0.27163224552E+02  0.00000000000E+00 0.  1.
<mgrwt>
<rscale>  2 0.72000160E+02</rscale>
<asrwt>0</asrwt>
<pdfrwt beam="1">  1       21 0.79687145E-02 0.72000160E+02</pdfrwt>
<pdfrwt beam="2">  1       21 0.17768044E-01 0.72000160E+02</pdfrwt>
<totfact> 0.33339966E+06</totfact>
</mgrwt>
</event>
<event>
 5    1  0.1946229E+000  0.8015053E+02  0.7546771E-02  0.1328625E+00
         21   -1    0    0  501  502  0.00000000000E+00  0.00000000000E+00  0.11603771171E+04  0.11603771171E+04  0.00000000000E+00 0. -1.
         21   -1    0    0  502  503 -0.00000000000E+00 -0.00000000000E+00 -0.13815030930E+02  0.13815030930E+02  0.00000000000E+00 0.  1.
         24    1    1    2    0    0  0.51732129105E+02  0.67208859747E+01  0.38386786839E+03  0.39565532958E+03  0.80419002446E+02 0.  1.
          1    1    1    2  501    0 -0.31747370085E+02 -0.22557305687E+02  0.74818739491E+03  0.74920031063E+03  0.00000000000E+00 0. -1.
         -2    1    1    2    0  503 -0.19984759021E+02  0.15836419712E+02  0.14506822913E+02  0.29336507860E+02  0.00000000000E+00 0.  1.
<mgrwt>
<rscale>  2 0.80150525E+02</rscale>
<asrwt>0</asrwt>
<pdfrwt beam="1">  1       21 0.17851948E+00 0.80150525E+02</pdfrwt>
<pdfrwt beam="2">  1       21 0.21253903E-02 0.80150525E+02</pdfrwt>
<totfact> 0.21976374E+05</totfact>
</mgrwt>
</event>
<event>
 5    1  0.1946229E+000  0.6908668E+02  0.7546771E-02  0.1363227E+00
         21   -1    0    0  501  502  0.00000000000E+00  0.00000000000E+00  0.13600973536E+02  0.13600973536E+02  0.00000000000E+00 0.  1.
         21   -1    0    0  502  503 -0.00000000000E+00 -0.00000000000E+00 -0.11714284884E+04  0.11714284884E+04  0.00000000000E+00 0.  1.
         24    1    1    2    0    0  0.26365667761E+02 -0.14633262153E+01 -0.13830614553E+03  0.16215145884E+03  0.80419002446E+02 0.  1.
          1    1    1    2  501    0 -0.14076805381E+02 -0.22533780376E+02 -0.11802725887E+03  0.12098083131E+03  0.00000000000E+00 0. -1.
         -2    1    1    2    0  503 -0.12288862380E+02  0.23997106592E+02 -0.90149411048E+03  0.90189717180E+03  0.00000000000E+00 0.  1.
<mgrwt>
<rscale>  2 0.69086682E+02</rscale>
<asrwt>0</asrwt>
<pdfrwt beam="1">  1       21 0.20924569E-02 0.69086682E+02</pdfrwt>
<pdfrwt beam="2">  1       21 0.18021981E+00 0.69086682E+02</pdfrwt>
<totfact> 0.22134714E+05</totfact>
</mgrwt>
</event>
<event>
 5    1  0.1946229E+000  0.8498337E+02  0.7546771E-02  0.1315476E+00
         21   -1    0    0  503  502  0.00000000000E+00  0.00000000000E+00  0.76489101397E+02  0.76489101397E+02  0.00000000000E+00 0. -1.
         21   -1    0    0  501  503 -0.00000000000E+00 -0.00000000000E+00 -0.41654759411E+03  0.41654759411E+03  0.00000000000E+00 0. -1.
         24    1    1    2    0    0  0.43226103560E+02  0.43029944842E+02 -0.11029866450E+03  0.14950947638E+03  0.80419002446E+02 0. -1.
          1    1    1    2  501    0 -0.36735935147E+02 -0.14040628553E+02 -0.28130150366E+03  0.28403732879E+03  0.00000000000E+00 0. -1.
         -2    1    1    2    0  502 -0.64901684132E+01 -0.28989316289E+02  0.51541675449E+02  0.59489890344E+02  0.00000000000E+00 0.  1.
<mgrwt>
<rscale>  2 0.84983373E+02</rscale>
<asrwt>0</asrwt>
<pdfrwt beam="1">  1       21 0.11767554E-01 0.84983373E+02</pdfrwt>
<pdfrwt beam="2">  1       21 0.64084245E-01 0.84983373E+02</pdfrwt>
<totfact> 0.14206330E+05</totfact>
</mgrwt>
</event>
<event>
 5    1  0.1946229E+000  0.8611226E+02  0.7546771E-02  0.1312549E+00
         21   -1    0    0  501  502  0.00000000000E+00  0.00000000000E+00  0.10505486803E+03  0.10505486803E+03  0.00000000000E+00 0. -1.
         21   -1    0    0  502  503 -0.00000000000E+00 -0.00000000000E+00 -0.94113908385E+02  0.94113908385E+02  0.00000000000E+00 0.  1.
         24    1    1    2    0    0  0.44240598239E+02  0.27157678810E+02 -0.28759222476E+02  0.99945379496E+02  0.80419002446E+02 0. -1.
          1    1    1    2  501    0 -0.40619435822E+02  0.77999642101E+01  0.47745392684E+02  0.63169617149E+02  0.00000000000E+00 0. -1.
         -2    1    1    2    0  503 -0.36211624170E+01 -0.34957643020E+02 -0.80452105620E+01  0.36053779771E+02  0.00000000000E+00 0.  1.
<mgrwt>
<rscale>  2 0.86112256E+02</rscale>
<asrwt>0</asrwt>
<pdfrwt beam="1">  1       21 0.16162288E-01 0.86112256E+02</pdfrwt>
<pdfrwt beam="2">  1       21 0.14479063E-01 0.86112256E+02</pdfrwt>
<totfact> 0.14140353E+06</totfact>
</mgrwt>
</event>
<event>
 5    1  0.1946229E+000  0.6370176E+02  0.7546771E-02  0.1382923E+00
         21   -1    0    0  501  502  0.00000000000E+00  0.00000000000E+00  0.42741614817E+03  0.42741614817E+03  0.00000000000E+00 0.  1.
         21   -1    0    0  502  503 -0.00000000000E+00 -0.00000000000E+00 -0.12060623610E+02  0.12060623610E+02  0.00000000000E+00 0. -1.
         24    1    1    2    0    0 -0.11806113379E+02  0.23385497310E+02  0.32499914799E+03  0.33582425157E+03  0.80419002446E+02 0.  0.
          1    1    1    2  501    0 -0.99297708768E+01 -0.17801342919E+02  0.71474041253E+02  0.74323796542E+02  0.00000000000E+00 0. -1.
         -2    1    1    2    0  503  0.21735884256E+02 -0.55841543906E+01  0.18882335317E+02  0.29328723662E+02  0.00000000000E+00 0.  1.
<mgrwt>
<rscale>  2 0.63701760E+02</rscale>
<asrwt>0</asrwt>
<pdfrwt beam="1">  1       21 0.65756319E-01 0.63701760E+02</pdfrwt>
<pdfrwt beam="2">  1       21 0.18554809E-02 0.63701760E+02</pdfrwt>
<totfact> 0.28507434E+06</totfact>
</mgrwt>
</event>
<event>
 5    1  0.1946229E+000  0.1020434E+03  0.7546771E-02  0.1276057E+00
         21   -1    0    0  501  502  0.00000000000E+00  0.00000000000E+00  0.11182511337E+04  0.11182511337E+04  0.00000000000E+00 0.  1.
         21   -1    0    0  502  503 -0.00000000000E+00 -0.00000000000E+00 -0.18132151597E+02  0.18132151597E+02  0.00000000000E+00 0.  1.
         24    1    1    2    0    0  0.44552359265E+02  0.56742976686E+02  0.69675292118E+03  0.70507909290E+03  0.80419002446E+02 0.  1.
          1    1    1    2  501    0 -0.19359630109E+02  0.12040472819E+02  0.31800648327E+03  0.31882266492E+03  0.00000000000E+00 0. -1.
         -2    1    1    2    0  503 -0.25192729156E+02 -0.68783449505E+02  0.85359577676E+02  0.11248152750E+03  0.00000000000E+00 0.  1.
<mgrwt>
<rscale>  2 0.10204342E+03</rscale>
<asrwt>0</asrwt>
<pdfrwt beam="1">  1       21 0.17203858E+00 0.10204342E+03</pdfrwt>
<pdfrwt beam="2">  1       21 0.27895627E-02 0.10204342E+03</pdfrwt>
<totfact> 0.15437741E+05</totfact>
</mgrwt>
</event>
<event>
 5    1  0.1946229E+000  0.6982373E+02  0.7546771E-02  0.1360693E+00
         21   -1    0    0  503  502  0.00000000000E+00  0.00000000000E+00  0.12317110502E+03  0.12317110502E+03  0.00000000000E+00 0.  1.
         21   -1    0    0  501  503 -0.00000000000E+00 -0.00000000000E+00 -0.94306813766E+02  0.94306813766E+02  0.00000000000E+00 0. -1.
         24    1    1    2    0    0  0.34844054375E+02 -0.21165251929E+02  0.95079797501E+02  0.13103228557E+03  0.80419002446E+02 0.  1.
          1    1    1    2  501    0 -0.24195921179E+02 -0.17064010547E+01 -0.52258652226E+02  0.57613549958E+02  0.00000000000E+00 0. -1.
         -2    1    1    2    0  502 -0.10648133196E+02  0.22871652984E+02 -0.13956854021E+02  0.28832083257E+02  0.00000000000E+00 0.  1.
<mgrwt>
<rscale>  2 0.69823731E+02</rscale>
<asrwt>0</asrwt>
<pdfrwt beam="1">  1       21 0.18949401E-01 0.69823731E+02</pdfrwt>
<pdfrwt beam="2">  1       21 0.14508740E-01 0.69823731E+02</pdfrwt>
<totfact> 0.10511944E+06</totfact>
</mgrwt>
</event>
<event>
 5    1  0.1946229E+000  0.8623432E+02  0.7546771E-02  0.1312236E+00
         21   -1    0    0  501  502  0.00000000000E+00  0.00000000000E+00  0.89669317375E+02  0.89669317375E+02  0.00000000000E+00 0. -1.
         21   -1    0    0  502  503 -0.00000000000E+00 -0.00000000000E+00 -0.14069338845E+03  0.14069338845E+03  0.00000000000E+00 0.  1.
         24    1    1    2    0    0 -0.37160729245E+02 -0.52603856055E+02  0.34784133640E+00  0.10303117207E+03  0.80419002446E+02 0.  1.
          1    1    1    2  501    0  0.18933954143E+02  0.67613461488E+01  0.27642677957E+02  0.34180814295E+02  0.00000000000E+00 0. -1.
         -2    1    1    2    0  503  0.18226775102E+02  0.45842509907E+02 -0.79014590366E+02  0.93150719460E+02  0.00000000000E+00 0.  1.
<mgrwt>
<rscale>  2 0.86234316E+02</rscale>
<asrwt>0</asrwt>
<pdfrwt beam="1">  1       21 0.13795280E-01 0.86234316E+02</pdfrwt>
<pdfrwt beam="2">  1       21 0.21645136E-01 0.86234316E+02</pdfrwt>
<totfact> 0.90624120E+05</totfact>
</mgrwt>
</event>
<event>
 5    1  0.1946229E+000  0.2132893E+03  0.7546771E-02  0.1138987E+00
         21   -1    0    0  503  502  0.00000000000E+00  0.00000000000E+00  0.41615244558E+03  0.41615244558E+03  0.00000000000E+00 0.  1.
         21   -1    0    0  501  503 -0.00000000000E+00 -0.00000000000E+00 -0.99818727290E+03  0.99818727290E+03  0.00000000000E+00 0. -1.
         24    1    1    2    0    0 -0.72809138808E+02 -0.18676148430E+03 -0.28203193028E+03  0.35523266793E+03  0.80419002446E+02 0. -1.
          1    1    1    2  501    0  0.46886294921E+02  0.17665847020E+03 -0.66672864836E+03  0.69132744071E+03  0.00000000000E+00 0. -1.
         -2    1    1    2    0  502  0.25922843887E+02  0.10103014098E+02  0.36672575132E+03  0.36777960984E+03  0.00000000000E+00 0.  1.
<mgrwt>
<rscale>  2 0.21328931E+03</rscale>
<asrwt>0</asrwt>
<pdfrwt beam="1">  1       21 0.64023453E-01 0.21328931E+03</pdfrwt>
<pdfrwt beam="2">  1       21 0.15356727E+00 0.21328931E+03</pdfrwt>
<totfact> 0.61879454E+02</totfact>
</mgrwt>
</event>
<event>
 5    1  0.1946229E+000  0.7257889E+02  0.7546771E-02  0.1351537E+00
         21   -1    0    0  501  502  0.00000000000E+00  0.00000000000E+00  0.14175243487E+02  0.14175243487E+02  0.00000000000E+00 0.  1.
         21   -1    0    0  502  503 -0.00000000000E+00 -0.00000000000E+00 -0.63921907316E+03  0.63921907316E+03  0.00000000000E+00 0.  1.
         24    1    1    2    0    0 -0.14345537661E+02 -0.14736604449E+02 -0.15376970454E+03  0.17474352620E+03  0.80419002446E+02 0.  1.
          1    1    1    2  501    0 -0.22871948207E+02  0.26768315131E+01 -0.44668463571E+02  0.50254980644E+02  0.00000000000E+00 0. -1.
         -2    1    1    2    0  503  0.37217485867E+02  0.12059772936E+02 -0.42660566157E+03  0.42839580980E+03  0.00000000000E+00 0.  1.
<mgrwt>
<rscale>  2 0.72578887E+02</rscale>
<asrwt>0</asrwt>
<pdfrwt beam="1">  1       21 0.21808065E-02 0.72578887E+02</pdfrwt>
<pdfrwt beam="2">  1       21 0.98341406E-01 0.72578887E+02</pdfrwt>
<totfact> 0.91662018E+05</totfact>
</mgrwt>
</event>
<event>
 5    1  0.1946229E+000  0.8445395E+02  0.7546771E-02  0.1316867E+00
         21   -1    0    0  501  502  0.00000000000E+00  0.00000000000E+00  0.61952176850E+02  0.61952176850E+02  0.00000000000E+00 0. -1.
         21   -1    0    0  502  503 -0.00000000000E+00 -0.00000000000E+00 -0.23441056439E+03  0.23441056439E+03  0.00000000000E+00 0. -1.
         24    1    1    2    0    0 -0.14733651226E+01 -0.36007283388E+02 -0.14837243181E+03  0.17256966633E+03  0.80419002446E+02 0. -1.
          1    1    1    2  501    0 -0.19246968761E+02  0.51456032248E+02  0.30903001096E+02  0.63033043223E+02  0.00000000000E+00 0. -1.
         -2    1    1    2    0  503  0.20720333883E+02 -0.15448748860E+02 -0.54988956823E+02  0.60760031683E+02  0.00000000000E+00 0.  1.
<mgrwt>
<rscale>  2 0.84453947E+02</rscale>
<asrwt>0</asrwt>
<pdfrwt beam="1">  1       21 0.95311042E-02 0.84453947E+02</pdfrwt>
<pdfrwt beam="2">  1       21 0.36063164E-01 0.84453947E+02</pdfrwt>
<totfact> 0.65779244E+05</totfact>
</mgrwt>
</event>
<event>
 5    1  0.1946229E+000  0.9850210E+02  0.7546771E-02  0.1283478E+00
         21   -1    0    0  501  502  0.00000000000E+00  0.00000000000E+00  0.32396424484E+03  0.32396424484E+03  0.00000000000E+00 0. -1.
         21   -1    0    0  502  503 -0.00000000000E+00 -0.00000000000E+00 -0.33026260749E+02  0.33026260749E+02  0.00000000000E+00 0. -1.
         24    1    1    2    0    0  0.75361147040E+02  0.16254147749E+02  0.13376292387E+03  0.17407824550E+03  0.80419002446E+02 0. -1.
          1    1    1    2  501    0 -0.30714491777E+02  0.11764608485E+02  0.99423776942E+02  0.10472284106E+03  0.00000000000E+00 0. -1.
         -2    1    1    2    0  503 -0.44646655262E+02 -0.28018756233E+02  0.57751283285E+02  0.78189419029E+02  0.00000000000E+00 0.  1.
<mgrwt>
<rscale>  2 0.98502098E+02</rscale>
<asrwt>0</asrwt>
<pdfrwt beam="1">  1       21 0.49840651E-01 0.98502098E+02</pdfrwt>
<pdfrwt beam="2">  1       21 0.50809634E-02 0.98502098E+02</pdfrwt>
<totfact> 0.10035483E+06</totfact>
</mgrwt>
</event>
<event>
 5    1  0.1946229E+000  0.9476795E+02  0.7546771E-02  0.1291700E+00
         21   -1    0    0  503  502  0.00000000000E+00  0.00000000000E+00  0.10595408981E+04  0.10595408981E+04  0.00000000000E+00 0.  1.
         21   -1    0    0  501  503 -0.00000000000E+00 -0.00000000000E+00 -0.15747358702E+02  0.15747358702E+02  0.00000000000E+00 0. -1.
         24    1    1    2    0    0 -0.37265839884E+02 -0.40434080660E+02  0.31404218868E+03  0.32880597611E+03  0.80419002446E+02 0.  1.
          1    1    1    2  501    0  0.75125706525E+01 -0.21841083242E+02  0.13176219566E+02  0.26591058592E+02  0.00000000000E+00 0. -1.
         -2    1    1    2    0  502  0.29753269231E+02  0.62275163903E+02  0.71657513112E+03  0.71989122207E+03  0.00000000000E+00 0.  1.
<mgrwt>
<rscale>  2 0.94767947E+02</rscale>
<asrwt>0</asrwt>
<pdfrwt beam="1">  1       21 0.16300624E+00 0.94767947E+02</pdfrwt>
<pdfrwt beam="2">  1       21 0.24226714E-02 0.94767947E+02</pdfrwt>
<totfact> 0.22478269E+05</totfact>
</mgrwt>
</event>
<event>
 5    1  0.1946229E+000  0.1181556E+03  0.7546771E-02  0.1246171E+00
         21   -1    0    0  501  502  0.00000000000E+00  0.00000000000E+00  0.28351819431E+03  0.28351819431E+03  0.00000000000E+00 0.  1.
         21   -1    0    0  502  503 -0.00000000000E+00 -0.00000000000E+00 -0.60946358613E+02  0.60946358613E+02  0.00000000000E+00 0.  1.
         24    1    1    2    0    0 -0.63654631704E+02  0.80679177421E+02  0.18259567780E+03  0.22443136882E+03  0.80419002446E+02 0.  1.
          1    1    1    2  501    0  0.16336738385E+02 -0.40757617329E+02  0.38037221067E+02  0.58093911712E+02  0.00000000000E+00 0. -1.
         -2    1    1    2    0  503  0.47317893319E+02 -0.39921560091E+02  0.19389368347E+01  0.61939272391E+02  0.00000000000E+00 0.  1.
<mgrwt>
<rscale>  2 0.11815555E+03</rscale>
<asrwt>0</asrwt>
<pdfrwt beam="1">  1       21 0.43618183E-01 0.11815555E+03</pdfrwt>
<pdfrwt beam="2">  1       21 0.93763630E-02 0.11815555E+03</pdfrwt>
<totfact> 0.46390656E+05</totfact>
</mgrwt>
</event>
<event>
 5    1  0.1946229E+000  0.7353657E+02  0.7546771E-02  0.1348464E+00
         21   -1    0    0  503  502  0.00000000000E+00  0.00000000000E+00  0.31005958225E+02  0.31005958225E+02  0.00000000000E+00 0.  1.
         21   -1    0    0  501  503 -0.00000000000E+00 -0.00000000000E+00 -0.14599862111E+04  0.14599862111E+04  0.00000000000E+00 0. -1.
         24    1    1    2    0    0 -0.14668872767E+02 -0.23002982555E+01 -0.17299525017E+03  0.19135056764E+03  0.80419002446E+02 0. -1.
          1    1    1    2  501    0  0.13119259029E+02  0.32503849826E+02 -0.12669777165E+04  0.12674624844E+04  0.00000000000E+00 0. -1.
         -2    1    1    2    0  502  0.15496137377E+01 -0.30203551570E+02  0.10992713836E+02  0.32179117261E+02  0.00000000000E+00 0.  1.
<mgrwt>
<rscale>  2 0.73536571E+02</rscale>
<asrwt>0</asrwt>
<pdfrwt beam="1">  1       21 0.47701458E-02 0.73536571E+02</pdfrwt>
<pdfrwt beam="2">  1       21 0.22461334E+00 0.73536571E+02</pdfrwt>
<totfact> 0.31214912E+04</totfact>
</mgrwt>
</event>
<event>
 5    1  0.1946229E+000  0.1363752E+03  0.7546771E-02  0.1218291E+00
         21   -1    0    0  503  502  0.00000000000E+00  0.00000000000E+00  0.11129854007E+03  0.11129854007E+03  0.00000000000E+00 0.  1.
         21   -1    0    0  501  503 -0.00000000000E+00 -0.00000000000E+00 -0.44623804808E+03  0.44623804808E+03  0.00000000000E+00 0. -1.
         24    1    1    2    0    0  0.78690910346E+02 -0.45845874444E+02  0.26163016892E+02  0.12428122538E+03  0.80419002446E+02 0.  1.
          1    1    1    2  501    0  0.24888755980E+02 -0.16962524343E+02 -0.29249369869E+03  0.29404037339E+03  0.00000000000E+00 0. -1.
         -2    1    1    2    0  502 -0.10357966633E+03  0.62808398787E+02 -0.68608826208E+02  0.13921498938E+03  0.00000000000E+00 0.  1.
<mgrwt>
<rscale>  2 0.13637518E+03</rscale>
<asrwt>0</asrwt>
<pdfrwt beam="1">  1       21 0.17122853E-01 0.13637518E+03</pdfrwt>
<pdfrwt beam="2">  1       21 0.68652007E-01 0.13637518E+03</pdfrwt>
<totfact> 0.61138032E+04</totfact>
</mgrwt>
</event>
<event>
 5    1  0.1946229E+000  0.9710220E+02  0.7546771E-02  0.1286510E+00
         21   -1    0    0  503  502  0.00000000000E+00  0.00000000000E+00  0.24696178655E+02  0.24696178655E+02  0.00000000000E+00 0.  1.
         21   -1    0    0  501  503 -0.00000000000E+00 -0.00000000000E+00 -0.48118464114E+03  0.48118464114E+03  0.00000000000E+00 0. -1.
         24    1    1    2    0    0 -0.33024060239E+02  0.37397673348E+02 -0.16591502981E+03  0.19100834431E+03  0.80419002446E+02 0.  1.
          1    1    1    2  501    0  0.54414952341E+02  0.23092985541E+01 -0.24413552798E+03  0.25013691435E+03  0.00000000000E+00 0. -1.
         -2    1    1    2    0  502 -0.21390892102E+02 -0.39706971902E+02 -0.46437904695E+02  0.64735561131E+02  0.00000000000E+00 0.  1.
<mgrwt>
<rscale>  2 0.97102200E+02</rscale>
<asrwt>0</asrwt>
<pdfrwt beam="1">  1       21 0.37994121E-02 0.97102200E+02</pdfrwt>
<pdfrwt beam="2">  1       21 0.74028407E-01 0.97102200E+02</pdfrwt>
<totfact> 0.70440506E+05</totfact>
</mgrwt>
</event>
<event>
 5    1  0.1946229E+000  0.7081424E+02  0.7546771E-02  0.1357346E+00
         21   -1    0    0  501  502  0.00000000000E+00  0.00000000000E+00  0.35168851920E+03  0.35168851920E+03  0.00000000000E+00 0.  1.
         21   -1    0    0  502  503 -0.00000000000E+00 -0.00000000000E+00 -0.23335080907E+02  0.23335080907E+02  0.00000000000E+00 0. -1.
         24    1    1    2    0    0  0.30082175920E+00 -0.27562416317E+02  0.11728252362E+03  0.14485228196E+03  0.80419002446E+02 0.  0.
          1    1    1    2  501    0  0.22028448555E+02  0.11894017870E+01  0.18642714374E+03  0.18772785394E+03  0.00000000000E+00 0. -1.
         -2    1    1    2    0  503 -0.22329270314E+02  0.26373014530E+02  0.24643770930E+02  0.42443464206E+02  0.00000000000E+00 0.  1.
<mgrwt>
<rscale>  2 0.70814239E+02</rscale>
<asrwt>0</asrwt>
<pdfrwt beam="1">  1       21 0.54105922E-01 0.70814239E+02</pdfrwt>
<pdfrwt beam="2">  1       21 0.35900127E-02 0.70814239E+02</pdfrwt>
<totfact> 0.14915277E+06</totfact>
</mgrwt>
</event>
<event>
 5    1  0.1946229E+000  0.1401067E+03  0.7546771E-02  0.1213186E+00
         21   -1    0    0  501  502  0.00000000000E+00  0.00000000000E+00  0.44668086880E+03  0.44668086880E+03  0.00000000000E+00 0.  1.
         21   -1    0    0  502  503 -0.00000000000E+00 -0.00000000000E+00 -0.11356573798E+03  0.11356573798E+03  0.00000000000E+00 0.  1.
         24    1    1    2    0    0  0.46730327515E+02  0.11228182055E+03  0.15245220693E+03  0.21094980940E+03  0.80419002446E+02 0.  1.
          1    1    1    2  501    0 -0.21340614523E+02 -0.10617412405E+03  0.25148582075E+03  0.27381286398E+03  0.00000000000E+00 0. -1.
         -2    1    1    2    0  503 -0.25389712992E+02 -0.61076964993E+01 -0.70822896856E+02  0.75483933399E+02  0.00000000000E+00 0.  1.
<mgrwt>
<rscale>  2 0.14010666E+03</rscale>
<asrwt>0</asrwt>
<pdfrwt beam="1">  1       21 0.68720133E-01 0.14010666E+03</pdfrwt>
<pdfrwt beam="2">  1       21 0.17471652E-01 0.14010666E+03</pdfrwt>
<totfact> 0.58689856E+04</totfact>
</mgrwt>
</event>
<event>
 5    1  0.1946229E+000  0.7176024E+02  0.7546771E-02  0.1354208E+00
         21   -1    0    0  503  502  0.00000000000E+00  0.00000000000E+00  0.79782843080E+02  0.79782843080E+02  0.00000000000E+00 0.  1.
         21   -1    0    0  501  503 -0.00000000000E+00 -0.00000000000E+00 -0.65192613077E+02  0.65192613077E+02  0.00000000000E+00 0. -1.
         24    1    1    2    0    0  0.63423848637E+01  0.43577841171E+02  0.76578943713E+01  0.92006050820E+02  0.80419002446E+02 0.  0.
          1    1    1    2  501    0 -0.15299555109E+02 -0.13345032567E+02 -0.14159531114E+01  0.20351196622E+02  0.00000000000E+00 0. -1.
         -2    1    1    2    0  502  0.89571702450E+01 -0.30232808604E+02  0.83482887429E+01  0.32618208715E+02  0.00000000000E+00 0.  1.
<mgrwt>
<rscale>  2 0.71760235E+02</rscale>
<asrwt>0</asrwt>
<pdfrwt beam="1">  1       21 0.12274284E-01 0.71760235E+02</pdfrwt>
<pdfrwt beam="2">  1       21 0.10029633E-01 0.71760235E+02</pdfrwt>
<totfact> 0.43324077E+06</totfact>
</mgrwt>
</event>
<event>
 5    1  0.1946229E+000  0.8428411E+02  0.7546771E-02  0.1317315E+00
         21   -1    0    0  501  502  0.00000000000E+00  0.00000000000E+00  0.21691634191E+02  0.21691634191E+02  0.00000000000E+00 0.  1.
         21   -1    0    0  502  503 -0.00000000000E+00 -0.00000000000E+00 -0.46027678571E+03  0.46027678571E+03  0.00000000000E+00 0.  1.
         24    1    1    2    0    0 -0.33998434947E+02  0.32244541779E+02 -0.36442431250E+03  0.37612218700E+03  0.80419002446E+02 0.  1.
          1    1    1    2  501    0 -0.16339154637E+02 -0.15290729581E+02 -0.20673052827E+02  0.30465546090E+02  0.00000000000E+00 0. -1.
         -2    1    1    2    0  503  0.50337589584E+02 -0.16953812197E+02 -0.53487786190E+02  0.75380686815E+02  0.00000000000E+00 0.  1.
<mgrwt>
<rscale>  2 0.84284108E+02</rscale>
<asrwt>0</asrwt>
<pdfrwt beam="1">  1       21 0.33371745E-02 0.84284108E+02</pdfrwt>
<pdfrwt beam="2">  1       21 0.70811812E-01 0.84284108E+02</pdfrwt>
<totfact> 0.95823895E+05</totfact>
</mgrwt>
</event>
<event>
 5    1  0.1946229E+000  0.8769901E+02  0.7546771E-02  0.1308522E+00
         21   -1    0    0  503  502  0.00000000000E+00  0.00000000000E+00  0.71655178215E+02  0.71655178215E+02  0.00000000000E+00 0.  1.
         21   -1    0    0  501  503 -0.00000000000E+00 -0.00000000000E+00 -0.31889606908E+03  0.31889606908E+03  0.00000000000E+00 0. -1.
         24    1    1    2    0    0 -0.35707097560E+02  0.48179618895E+02 -0.29601045214E+02  0.10459307016E+03  0.80419002446E+02 0.  1.
          1    1    1    2  501    0 -0.97984094523E+01 -0.17948615572E+02 -0.22920499346E+03  0.23011538553E+03  0.00000000000E+00 0. -1.
         -2    1    1    2    0  502  0.45505507013E+02 -0.30231003323E+02  0.11565147814E+02  0.55842791606E+02  0.00000000000E+00 0.  1.
<mgrwt>
<rscale>  2 0.87699013E+02</rscale>
<asrwt>0</asrwt>
<pdfrwt beam="1">  1       21 0.11023874E-01 0.87699013E+02</pdfrwt>
<pdfrwt beam="2">  1       21 0.49060934E-01 0.87699013E+02</pdfrwt>
<totfact> 0.27699707E+05</totfact>
</mgrwt>
</event>
<event>
 5    1  0.1946229E+000  0.1115882E+03  0.7546771E-02  0.1257657E+00
         21   -1    0    0  501  502  0.00000000000E+00  0.00000000000E+00  0.80814757994E+02  0.80814757994E+02  0.00000000000E+00 0. -1.
         21   -1    0    0  502  503 -0.00000000000E+00 -0.00000000000E+00 -0.23652270977E+03  0.23652270977E+03  0.00000000000E+00 0. -1.
         24    1    1    2    0    0  0.22047876394E+02  0.58473390261E+02  0.81552824077E+01  0.10217128172E+03  0.80419002446E+02 0. -1.
          1    1    1    2  501    0 -0.58857554469E+02 -0.60576603223E+02 -0.56418611459E+02  0.10157163135E+03  0.00000000000E+00 0. -1.
         -2    1    1    2    0  503  0.36809678075E+02  0.21032129611E+01 -0.10744462273E+03  0.11359455470E+03  0.00000000000E+00 0.  1.
<mgrwt>
<rscale>  2 0.11158823E+03</rscale>
<asrwt>0</asrwt>
<pdfrwt beam="1">  1       21 0.12433040E-01 0.11158823E+03</pdfrwt>
<pdfrwt beam="2">  1       21 0.36388109E-01 0.11158823E+03</pdfrwt>
<totfact> 0.40611423E+05</totfact>
</mgrwt>
</event>
<event>
 5    1  0.1946229E+000  0.9442069E+02  0.7546771E-02  0.1292486E+00
         21   -1    0    0  503  502  0.00000000000E+00  0.00000000000E+00  0.25802792999E+03  0.25802792999E+03  0.00000000000E+00 0. -1.
         21   -1    0    0  501  503 -0.00000000000E+00 -0.00000000000E+00 -0.62823766201E+02  0.62823766201E+02  0.00000000000E+00 0. -1.
         24    1    1    2    0    0  0.45099098789E+02  0.60047656632E+02  0.12167119641E+03  0.16404495045E+03  0.80419002446E+02 0. -1.
          1    1    1    2  501    0 -0.51617629866E+01 -0.25458355664E+02 -0.30538608137E+02  0.40092122134E+02  0.00000000000E+00 0. -1.
         -2    1    1    2    0  502 -0.39937335802E+02 -0.34589300968E+02  0.10407157552E+03  0.11671462360E+03  0.00000000000E+00 0.  1.
<mgrwt>
<rscale>  2 0.94420686E+02</rscale>
<asrwt>0</asrwt>
<pdfrwt beam="1">  1       21 0.39696604E-01 0.94420686E+02</pdfrwt>
<pdfrwt beam="2">  1       21 0.96651950E-02 0.94420686E+02</pdfrwt>
<totfact> 0.53206049E+05</totfact>
</mgrwt>
</event>
<event>
 5    1  0.1946229E+000  0.7441718E+02  0.7546771E-02  0.1345685E+00
         21   -1    0    0  501  502  0.00000000000E+00  0.00000000000E+00  0.61841956216E+02  0.61841956216E+02  0.00000000000E+00 0.  1.
         21   -1    0    0  502  503 -0.00000000000E+00 -0.00000000000E+00 -0.11810656719E+03  0.11810656719E+03  0.00000000000E+00 0. -1.
         24    1    1    2    0    0  0.42149190017E+02  0.31030912928E+02 -0.10838501582E+02  0.96561694513E+02  0.80419002446E+02 0.  1.
          1    1    1    2  501    0 -0.24935406332E+02 -0.13678789522E+02  0.35390815703E+01  0.28660231508E+02  0.00000000000E+00 0. -1.
         -2    1    1    2    0  503 -0.17213783685E+02 -0.17352123406E+02 -0.48965190964E+02  0.54726597388E+02  0.00000000000E+00 0.  1.
<mgrwt>
<rscale>  2 0.74417176E+02</rscale>
<asrwt>0</asrwt>
<pdfrwt beam="1">  1       21 0.95141472E-02 0.74417176E+02</pdfrwt>
<pdfrwt beam="2">  1       21 0.18170241E-01 0.74417176E+02</pdfrwt>
<totfact> 0.23709331E+06</totfact>
</mgrwt>
</event>
<event>
 5    1  0.1946229E+000  0.7647455E+02  0.7546771E-02  0.1339365E+00
         21   -1    0    0  501  502  0.00000000000E+00  0.00000000000E+00  0.80238144120E+02  0.80238144120E+02  0.00000000000E+00 0.  1.
         21   -1    0    0  502  503 -0.00000000000E+00 -0.00000000000E+00 -0.77639616086E+02  0.77639616086E+02  0.00000000000E+00 0.  1.
         24    1    1    2    0    0  0.54505133089E+02  0.88545186562E+01  0.58530606150E+01  0.97727612815E+02  0.80419002446E+02 0.  1.
          1    1    1    2  501    0 -0.27418888369E+02 -0.22114015436E+01  0.10003254569E+02  0.29270306424E+02  0.00000000000E+00 0. -1.
         -2    1    1    2    0  503 -0.27086244720E+02 -0.66431171126E+01 -0.13257787150E+02  0.30879840966E+02  0.00000000000E+00 0.  1.
<mgrwt>
<rscale>  2 0.76474545E+02</rscale>
<asrwt>0</asrwt>
<pdfrwt beam="1">  1       21 0.12344330E-01 0.76474545E+02</pdfrwt>
<pdfrwt beam="2">  1       21 0.11944556E-01 0.76474545E+02</pdfrwt>
<totfact> 0.31821484E+06</totfact>
</mgrwt>
</event>
<event>
 5    1  0.1946229E+000  0.1226694E+03  0.7546771E-02  0.1238757E+00
         21   -1    0    0  503  502  0.00000000000E+00  0.00000000000E+00  0.50760178958E+02  0.50760178958E+02  0.00000000000E+00 0.  1.
         21   -1    0    0  501  503 -0.00000000000E+00 -0.00000000000E+00 -0.65898483944E+03  0.65898483944E+03  0.00000000000E+00 0. -1.
         24    1    1    2    0    0  0.61035306954E+02 -0.69576014470E+02 -0.28306624073E+03  0.30847989089E+03  0.80419002446E+02 0. -1.
          1    1    1    2  501    0 -0.46316898515E+02  0.87821160979E+02 -0.35193798422E+03  0.36567493234E+03  0.00000000000E+00 0. -1.
         -2    1    1    2    0  502 -0.14718408440E+02 -0.18245146509E+02  0.26779564480E+02  0.35590195165E+02  0.00000000000E+00 0.  1.
<mgrwt>
<rscale>  2 0.12266942E+03</rscale>
<asrwt>0</asrwt>
<pdfrwt beam="1">  1       21 0.78092585E-02 0.12266942E+03</pdfrwt>
<pdfrwt beam="2">  1       21 0.10138228E+00 0.12266942E+03</pdfrwt>
<totfact> 0.10245381E+05</totfact>
</mgrwt>
</event>
<event>
 5    1  0.1946229E+000  0.8228008E+02  0.7546771E-02  0.1322703E+00
         21   -1    0    0  501  502  0.00000000000E+00  0.00000000000E+00  0.13860390861E+03  0.13860390861E+03  0.00000000000E+00 0.  1.
         21   -1    0    0  502  503 -0.00000000000E+00 -0.00000000000E+00 -0.81339738676E+02  0.81339738676E+02  0.00000000000E+00 0.  1.
         24    1    1    2    0    0 -0.37193497543E+02 -0.22885184848E+01  0.50521471563E+02  0.10202072642E+03  0.80419002446E+02 0.  0.
          1    1    1    2  501    0  0.89287715939E-01  0.29759928310E+02  0.47689606914E+02  0.56213520731E+02  0.00000000000E+00 0. -1.
         -2    1    1    2    0  503  0.37104209827E+02 -0.27471409825E+02 -0.40946908549E+02  0.61709400129E+02  0.00000000000E+00 0.  1.
<mgrwt>
<rscale>  2 0.82280081E+02</rscale>
<asrwt>0</asrwt>
<pdfrwt beam="1">  1       21 0.21323678E-01 0.82280081E+02</pdfrwt>
<pdfrwt beam="2">  1       21 0.12513806E-01 0.82280081E+02</pdfrwt>
<totfact> 0.11051068E+06</totfact>
</mgrwt>
</event>
<event>
 5    1  0.1946229E+000  0.7176864E+02  0.7546771E-02  0.1354180E+00
         21   -1    0    0  501  502  0.00000000000E+00  0.00000000000E+00  0.26269493238E+03  0.26269493238E+03  0.00000000000E+00 0.  1.
         21   -1    0    0  502  503 -0.00000000000E+00 -0.00000000000E+00 -0.25421124519E+02  0.25421124519E+02  0.00000000000E+00 0. -1.
         24    1    1    2    0    0  0.23355330890E+01 -0.29450932503E+02  0.11306143714E+03  0.14185526660E+03  0.80419002446E+02 0. -1.
          1    1    1    2  501    0  0.23008045533E+02  0.71184059337E+01  0.10431021040E+03  0.10705448078E+03  0.00000000000E+00 0. -1.
         -2    1    1    2    0  503 -0.25343578622E+02  0.22332526569E+02  0.19902160324E+02  0.39206309516E+02  0.00000000000E+00 0.  1.
<mgrwt>
<rscale>  2 0.71768643E+02</rscale>
<asrwt>0</asrwt>
<pdfrwt beam="1">  1       21 0.40414603E-01 0.71768643E+02</pdfrwt>
<pdfrwt beam="2">  1       21 0.39109424E-02 0.71768643E+02</pdfrwt>
<totfact> 0.23317737E+06</totfact>
</mgrwt>
</event>
<event>
 5    1  0.1946229E+000  0.8464024E+02  0.7546771E-02  0.1316376E+00
         21   -1    0    0  501  502  0.00000000000E+00  0.00000000000E+00  0.17355239528E+03  0.17355239528E+03  0.00000000000E+00 0. -1.
         21   -1    0    0  502  503 -0.00000000000E+00 -0.00000000000E+00 -0.19065263455E+03  0.19065263455E+03  0.00000000000E+00 0.  1.
         24    1    1    2    0    0 -0.14136430469E+02 -0.34763241507E+02  0.17465775372E+02  0.90446619009E+02  0.80419002446E+02 0. -1.
          1    1    1    2  501    0  0.39920934188E+02  0.35912138639E+01  0.11344544297E+03  0.12031810477E+03  0.00000000000E+00 0. -1.
         -2    1    1    2    0  503 -0.25784503719E+02  0.31172027643E+02 -0.14801145761E+03  0.15344030606E+03  0.00000000000E+00 0.  1.
<mgrwt>
<rscale>  2 0.84640243E+02</rscale>
<asrwt>0</asrwt>
<pdfrwt beam="1">  1       21 0.26700368E-01 0.84640243E+02</pdfrwt>
<pdfrwt beam="2">  1       21 0.29331175E-01 0.84640243E+02</pdfrwt>
<totfact> 0.15411394E+05</totfact>
</mgrwt>
</event>
<event>
 5    1  0.1946229E+000  0.6104220E+02  0.7546771E-02  0.1393509E+00
         21   -1    0    0  503  502  0.00000000000E+00  0.00000000000E+00  0.15291486027E+03  0.15291486027E+03  0.00000000000E+00 0.  1.
         21   -1    0    0  501  503 -0.00000000000E+00 -0.00000000000E+00 -0.46075501427E+03  0.46075501427E+03  0.00000000000E+00 0. -1.
         24    1    1    2    0    0  0.38846642967E+00 -0.24691246577E+01 -0.88149151667E+02  0.11934712555E+03  0.80419002446E+02 0.  0.
          1    1    1    2  501    0  0.17995321770E+02 -0.88331647008E+01 -0.35587517993E+03  0.35643933578E+03  0.00000000000E+00 0. -1.
         -2    1    1    2    0  502 -0.18383788199E+02  0.11302289359E+02  0.13618417759E+03  0.13788341321E+03  0.00000000000E+00 0.  1.
<mgrwt>
<rscale>  2 0.61042201E+02</rscale>
<asrwt>0</asrwt>
<pdfrwt beam="1">  1       21 0.23525363E-01 0.61042201E+02</pdfrwt>
<pdfrwt beam="2">  1       21 0.70885386E-01 0.61042201E+02</pdfrwt>
<totfact> 0.33784357E+04</totfact>
</mgrwt>
</event>
<event>
 5    1  0.1946229E+000  0.1166512E+03  0.7546771E-02  0.1248726E+00
         21   -1    0    0  503  502  0.00000000000E+00  0.00000000000E+00  0.10134472185E+04  0.10134472185E+04  0.00000000000E+00 0.  1.
         21   -1    0    0  501  503 -0.00000000000E+00 -0.00000000000E+00 -0.16098366424E+02  0.16098366424E+02  0.00000000000E+00 0. -1.
         24    1    1    2    0    0  0.31191542231E+02  0.33528581054E+02  0.25900918922E+03  0.27504554915E+03  0.80419002446E+02 0.  0.
          1    1    1    2  501    0  0.26371200873E+02  0.39671548044E+02  0.11870182765E+03  0.12790385392E+03  0.00000000000E+00 0. -1.
         -2    1    1    2    0  502 -0.57562743104E+02 -0.73200129098E+02  0.61963783519E+03  0.62659618184E+03  0.00000000000E+00 0.  1.
<mgrwt>
<rscale>  2 0.11665123E+03</rscale>
<asrwt>0</asrwt>
<pdfrwt beam="1">  1       21 0.15591491E+00 0.11665123E+03</pdfrwt>
<pdfrwt beam="2">  1       21 0.24766726E-02 0.11665123E+03</pdfrwt>
<totfact> 0.24121855E+05</totfact>
</mgrwt>
</event>
<event>
 5    1  0.1946229E+000  0.9431511E+02  0.7546771E-02  0.1292726E+00
         21   -1    0    0  501  502  0.00000000000E+00  0.00000000000E+00  0.27936264872E+02  0.27936264872E+02  0.00000000000E+00 0. -1.
         21   -1    0    0  502  503 -0.00000000000E+00 -0.00000000000E+00 -0.86013926088E+03  0.86013926088E+03  0.00000000000E+00 0.  1.
         24    1    1    2    0    0 -0.27715928832E+02  0.30695535482E+02 -0.38385732328E+03  0.39436537525E+03  0.80419002446E+02 0.  1.
          1    1    1    2  501    0 -0.10128353790E+02  0.27204797920E+02  0.95959215857E+01  0.30573947920E+02  0.00000000000E+00 0. -1.
         -2    1    1    2    0  503  0.37844282622E+02 -0.57900333402E+02 -0.45794159431E+03  0.46313620257E+03  0.00000000000E+00 0.  1.
<mgrwt>
<rscale>  2 0.94315109E+02</rscale>
<asrwt>0</asrwt>
<pdfrwt beam="1">  1       21 0.42978882E-02 0.94315109E+02</pdfrwt>
<pdfrwt beam="2">  1       21 0.13232908E+00 0.94315109E+02</pdfrwt>
<totfact> 0.14984188E+05</totfact>
</mgrwt>
</event>
<event>
 5    1  0.1946229E+000  0.7906647E+02  0.7546771E-02  0.1331722E+00
         21   -1    0    0  503  502  0.00000000000E+00  0.00000000000E+00  0.62572416193E+03  0.62572416193E+03  0.00000000000E+00 0. -1.
         21   -1    0    0  501  503 -0.00000000000E+00 -0.00000000000E+00 -0.10040042037E+02  0.10040042037E+02  0.00000000000E+00 0. -1.
         24    1    1    2    0    0 -0.23207087170E+02  0.19194739518E+02  0.33584804349E+03  0.34665275304E+03  0.80419002446E+02 0.  0.
          1    1    1    2  501    0  0.13112559925E+02 -0.43770008116E+02  0.19089064645E+03  0.19628293798E+03  0.00000000000E+00 0. -1.
         -2    1    1    2    0  502  0.10094527246E+02  0.24575268599E+02  0.88945429946E+02  0.92828512943E+02  0.00000000000E+00 0.  1.
<mgrwt>
<rscale>  2 0.79066471E+02</rscale>
<asrwt>0</asrwt>
<pdfrwt beam="1">  1       21 0.96265225E-01 0.79066471E+02</pdfrwt>
<pdfrwt beam="2">  1       21 0.15446223E-02 0.79066471E+02</pdfrwt>
<totfact> 0.16668308E+06</totfact>
</mgrwt>
</event>
<event>
 5    1  0.1946229E+000  0.9453589E+02  0.7546771E-02  0.1292225E+00
         21   -1    0    0  503  502  0.00000000000E+00  0.00000000000E+00  0.66384678405E+02  0.66384678405E+02  0.00000000000E+00 0. -1.
         21   -1    0    0  501  503 -0.00000000000E+00 -0.00000000000E+00 -0.29725521836E+03  0.29725521836E+03  0.00000000000E+00 0. -1.
         24    1    1    2    0    0  0.15792087346E+02 -0.67131846692E+02 -0.95364904195E+02  0.14254036540E+03  0.80419002446E+02 0. -1.
          1    1    1    2  501    0 -0.25472789570E+02  0.13883560189E+02 -0.15934231978E+03  0.16196169647E+03  0.00000000000E+00 0. -1.
         -2    1    1    2    0  502  0.96807022245E+01  0.53248286503E+02  0.23836684014E+02  0.59137834893E+02  0.00000000000E+00 0.  1.
<mgrwt>
<rscale>  2 0.94535890E+02</rscale>
<asrwt>0</asrwt>
<pdfrwt beam="1">  1       21 0.10213028E-01 0.94535890E+02</pdfrwt>
<pdfrwt beam="2">  1       21 0.45731571E-01 0.94535890E+02</pdfrwt>
<totfact> 0.36439224E+05</totfact>
</mgrwt>
</event>
<event>
 5    1  0.1946229E+000  0.1439812E+03  0.7546771E-02  0.1208070E+00
         21   -1    0    0  503  502  0.00000000000E+00  0.00000000000E+00  0.81284228583E+03  0.81284228583E+03  0.00000000000E+00 0. -1.
         21   -1    0    0  501  503 -0.00000000000E+00 -0.00000000000E+00 -0.32026564949E+02  0.32026564949E+02  0.00000000000E+00 0. -1.
         24    1    1    2    0    0  0.83526668819E+02  0.88668787140E+02  0.28377283321E+03  0.31911298162E+03  0.80419002446E+02 0. -1.
          1    1    1    2  501    0 -0.56176117310E+02 -0.98116323064E+02  0.22138852656E+03  0.24858690372E+03  0.00000000000E+00 0. -1.
         -2    1    1    2    0  502 -0.27350551509E+02  0.94475359240E+01  0.27565436112E+03  0.27716896545E+03  0.00000000000E+00 0.  1.
<mgrwt>
<rscale>  2 0.14398116E+03</rscale>
<asrwt>0</asrwt>
<pdfrwt beam="1">  1       21 0.12505264E+00 0.14398116E+03</pdfrwt>
<pdfrwt beam="2">  1       21 0.49271645E-02 0.14398116E+03</pdfrwt>
<totfact> 0.13406195E+05</totfact>
</mgrwt>
</event>
<event>
 5    1  0.1946229E+000  0.7822026E+02  0.7546771E-02  0.1334179E+00
         21   -1    0    0  501  502  0.00000000000E+00  0.00000000000E+00  0.36291606188E+03  0.36291606188E+03  0.00000000000E+00 0.  1.
         21   -1    0    0  502  503 -0.00000000000E+00 -0.00000000000E+00 -0.25260687168E+02  0.25260687168E+02  0.00000000000E+00 0.  1.
         24    1    1    2    0    0 -0.21493062426E+02  0.51827783228E+02  0.27157349415E+03  0.28873421953E+03  0.80419002446E+02 0.  1.
          1    1    1    2  501    0  0.14709055034E+02 -0.15274003546E+02  0.57502122212E+02  0.61287401179E+02  0.00000000000E+00 0. -1.
         -2    1    1    2    0  503  0.67840073921E+01 -0.36553779682E+02  0.85797583462E+01  0.38155128339E+02  0.00000000000E+00 0.  1.
<mgrwt>
<rscale>  2 0.78220264E+02</rscale>
<asrwt>0</asrwt>
<pdfrwt beam="1">  1       21 0.55833236E-01 0.78220264E+02</pdfrwt>
<pdfrwt beam="2">  1       21 0.38862598E-02 0.78220264E+02</pdfrwt>
<totfact> 0.12321423E+06</totfact>
</mgrwt>
</event>
<event>
 5    1  0.1946229E+000  0.8831440E+02  0.7546771E-02  0.1306986E+00
         21   -1    0    0  501  502  0.00000000000E+00  0.00000000000E+00  0.39707023771E+02  0.39707023771E+02  0.00000000000E+00 0. -1.
         21   -1    0    0  502  503 -0.00000000000E+00 -0.00000000000E+00 -0.22861523198E+04  0.22861523198E+04  0.00000000000E+00 0.  1.
         24    1    1    2    0    0 -0.42453889716E+02  0.47970634401E+02 -0.15795480159E+04  0.15828906042E+04  0.80419002446E+02 0.  1.
          1    1    1    2  501    0  0.21832696545E+02 -0.25539502595E+00  0.33858290621E+02  0.40287910207E+02  0.00000000000E+00 0. -1.
         -2    1    1    2    0  503  0.20621193171E+02 -0.47715239375E+02 -0.70075557075E+03  0.70268082913E+03  0.00000000000E+00 0.  1.
<mgrwt>
<rscale>  2 0.88314399E+02</rscale>
<asrwt>0</asrwt>
<pdfrwt beam="1">  1       21 0.61087726E-02 0.88314399E+02</pdfrwt>
<pdfrwt beam="2">  1       21 0.35171576E+00 0.88314399E+02</pdfrwt>
<totfact> 0.39696797E+03</totfact>
</mgrwt>
</event>
<event>
 5    1  0.1946229E+000  0.1677687E+03  0.7546771E-02  0.1180195E+00
         21   -1    0    0  501  502  0.00000000000E+00  0.00000000000E+00  0.55167217739E+03  0.55167217739E+03  0.00000000000E+00 0. -1.
         21   -1    0    0  502  503 -0.00000000000E+00 -0.00000000000E+00 -0.14042011745E+03  0.14042011745E+03  0.00000000000E+00 0.  1.
         24    1    1    2    0    0  0.11934835556E+03 -0.96365891947E+02 -0.44439367654E+02  0.17880852457E+03  0.80419002446E+02 0.  1.
          1    1    1    2  501    0 -0.56889298881E+02  0.13321746055E+02  0.38065301059E+03  0.38511112126E+03  0.00000000000E+00 0. -1.
         -2    1    1    2    0  503 -0.62459056681E+02  0.83044145892E+02  0.75038416999E+02  0.12817264901E+03  0.00000000000E+00 0.  1.
<mgrwt>
<rscale>  2 0.16776867E+03</rscale>
<asrwt>0</asrwt>
<pdfrwt beam="1">  1       21 0.84872642E-01 0.16776867E+03</pdfrwt>
<pdfrwt beam="2">  1       21 0.21603095E-01 0.16776867E+03</pdfrwt>
<totfact> 0.24379904E+04</totfact>
</mgrwt>
</event>
<event>
 5    1  0.1946229E+000  0.1218093E+03  0.7546771E-02  0.1240142E+00
         21   -1    0    0  503  502  0.00000000000E+00  0.00000000000E+00  0.71195129262E+02  0.71195129262E+02  0.00000000000E+00 0.  1.
         21   -1    0    0  501  503 -0.00000000000E+00 -0.00000000000E+00 -0.10462153960E+04  0.10462153960E+04  0.00000000000E+00 0. -1.
         24    1    1    2    0    0 -0.77324818065E+02  0.42405028862E+02 -0.17472955972E+03  0.21160091908E+03  0.80419002446E+02 0.  1.
          1    1    1    2  501    0  0.78526899913E+02  0.32531388317E+01 -0.84097720520E+03  0.84464176820E+03  0.00000000000E+00 0. -1.
         -2    1    1    2    0  502 -0.12020818487E+01 -0.45658167694E+02  0.40686498139E+02  0.61167838025E+02  0.00000000000E+00 0.  1.
<mgrwt>
<rscale>  2 0.12180935E+03</rscale>
<asrwt>0</asrwt>
<pdfrwt beam="1">  1       21 0.10953098E-01 0.12180935E+03</pdfrwt>
<pdfrwt beam="2">  1       21 0.16095620E+00 0.12180935E+03</pdfrwt>
<totfact> 0.18099079E+04</totfact>
</mgrwt>
</event>
<event>
 5    1  0.1946229E+000  0.1807938E+03  0.7546771E-02  0.1167037E+00
         21   -1    0    0  503  502  0.00000000000E+00  0.00000000000E+00  0.95263412262E+02  0.95263412262E+02  0.00000000000E+00 0.  1.
         21   -1    0    0  501  503 -0.00000000000E+00 -0.00000000000E+00 -0.96946281843E+03  0.96946281843E+03  0.00000000000E+00 0. -1.
         24    1    1    2    0    0  0.30512040026E+02 -0.15630238804E+03 -0.46043962858E+03  0.49379478391E+03  0.80419002446E+02 0. -1.
          1    1    1    2  501    0  0.20794353085E+02  0.11624422146E+03 -0.47018480925E+03  0.48478745755E+03  0.00000000000E+00 0. -1.
         -2    1    1    2    0  502 -0.51306393111E+02  0.40058166575E+02  0.56425031664E+02  0.86143989237E+02  0.00000000000E+00 0.  1.
<mgrwt>
<rscale>  2 0.18079378E+03</rscale>
<asrwt>0</asrwt>
<pdfrwt beam="1">  1       21 0.14655910E-01 0.18079378E+03</pdfrwt>
<pdfrwt beam="2">  1       21 0.14914812E+00 0.18079378E+03</pdfrwt>
<totfact> 0.12524467E+04</totfact>
</mgrwt>
</event>
<event>
 5    1  0.1946229E+000  0.9102276E+02  0.7546771E-02  0.1300394E+00
         21   -1    0    0  503  502  0.00000000000E+00  0.00000000000E+00  0.46473371759E+02  0.46473371759E+02  0.00000000000E+00 0. -1.
         21   -1    0    0  501  503 -0.00000000000E+00 -0.00000000000E+00 -0.33607640290E+03  0.33607640290E+03  0.00000000000E+00 0. -1.
         24    1    1    2    0    0  0.40437303645E+02  0.56258395372E+02 -0.66080281390E+02  0.12503600329E+03  0.80419002446E+02 0. -1.
          1    1    1    2  501    0 -0.12832662503E+02 -0.43746243199E+02 -0.22256971886E+03  0.22719086860E+03  0.00000000000E+00 0. -1.
         -2    1    1    2    0  502 -0.27604641142E+02 -0.12512152172E+02 -0.95303089137E+00  0.30322902771E+02  0.00000000000E+00 0.  1.
<mgrwt>
<rscale>  2 0.91022759E+02</rscale>
<asrwt>0</asrwt>
<pdfrwt beam="1">  1       21 0.71497495E-02 0.91022759E+02</pdfrwt>
<pdfrwt beam="2">  1       21 0.51704062E-01 0.91022759E+02</pdfrwt>
<totfact> 0.52366584E+05</totfact>
</mgrwt>
</event>
<event>
 5    1  0.1946229E+000  0.8673560E+02  0.7546771E-02  0.1310955E+00
         21   -1    0    0  501  502  0.00000000000E+00  0.00000000000E+00  0.13454235554E+03  0.13454235554E+03  0.00000000000E+00 0.  1.
         21   -1    0    0  502  503 -0.00000000000E+00 -0.00000000000E+00 -0.63358602451E+02  0.63358602451E+02  0.00000000000E+00 0. -1.
         24    1    1    2    0    0 -0.60405154026E+02  0.30915437211E+02  0.14991395045E+02  0.10628501668E+03  0.80419002446E+02 0. -1.
          1    1    1    2  501    0  0.30089461232E+02 -0.19496925449E+02  0.44565507707E+02  0.57197816885E+02  0.00000000000E+00 0. -1.
         -2    1    1    2    0  503  0.30315692794E+02 -0.11418511762E+02  0.11626850341E+02  0.34418124430E+02  0.00000000000E+00 0.  1.
<mgrwt>
<rscale>  2 0.86735602E+02</rscale>
<asrwt>0</asrwt>
<pdfrwt beam="1">  1       21 0.20698824E-01 0.86735602E+02</pdfrwt>
<pdfrwt beam="2">  1       21 0.97474773E-02 0.86735602E+02</pdfrwt>
<totfact> 0.18062556E+06</totfact>
</mgrwt>
</event>
<event>
 5    1  0.1946229E+000  0.1268094E+03  0.7546771E-02  0.1232268E+00
         21   -1    0    0  503  502  0.00000000000E+00  0.00000000000E+00  0.21914485887E+03  0.21914485887E+03  0.00000000000E+00 0.  1.
         21   -1    0    0  501  503 -0.00000000000E+00 -0.00000000000E+00 -0.14178649933E+03  0.14178649933E+03  0.00000000000E+00 0. -1.
         24    1    1    2    0    0  0.64521944067E+02 -0.20079216860E+02  0.12868251229E+02  0.10582563045E+03  0.80419002446E+02 0. -1.
          1    1    1    2  501    0 -0.10401392510E+03 -0.56630107005E+00 -0.61933707832E+02  0.12105784352E+03  0.00000000000E+00 0. -1.
         -2    1    1    2    0  502  0.39491981034E+02  0.20645517930E+02  0.12642381615E+03  0.13404788423E+03  0.00000000000E+00 0.  1.
<mgrwt>
<rscale>  2 0.12680936E+03</rscale>
<asrwt>0</asrwt>
<pdfrwt beam="1">  1       21 0.33714594E-01 0.12680936E+03</pdfrwt>
<pdfrwt beam="2">  1       21 0.21813307E-01 0.12680936E+03</pdfrwt>
<totfact> 0.16954964E+05</totfact>
</mgrwt>
</event>
<event>
 5    1  0.1946229E+000  0.7524386E+02  0.7546771E-02  0.1343118E+00
         21   -1    0    0  501  502  0.00000000000E+00  0.00000000000E+00  0.44174291442E+02  0.44174291442E+02  0.00000000000E+00 0. -1.
         21   -1    0    0  502  503 -0.00000000000E+00 -0.00000000000E+00 -0.34528889605E+03  0.34528889605E+03  0.00000000000E+00 0.  1.
         24    1    1    2    0    0  0.12605581519E+02 -0.52576547543E+01 -0.14098960858E+03  0.16288593954E+03  0.80419002446E+02 0. -1.
          1    1    1    2  501    0 -0.17672251316E+02  0.34753843893E+02  0.20113218636E+02  0.43871171580E+02  0.00000000000E+00 0. -1.
         -2    1    1    2    0  503  0.50666697973E+01 -0.29496189138E+02 -0.18023821467E+03  0.18270607637E+03  0.00000000000E+00 0.  1.
<mgrwt>
<rscale>  2 0.75243858E+02</rscale>
<asrwt>0</asrwt>
<pdfrwt beam="1">  1       21 0.67960447E-02 0.75243858E+02</pdfrwt>
<pdfrwt beam="2">  1       21 0.53121370E-01 0.75243858E+02</pdfrwt>
<totfact> 0.53962119E+05</totfact>
</mgrwt>
</event>
<event>
 5    1  0.1946229E+000  0.8151163E+02  0.7546771E-02  0.1324816E+00
         21   -1    0    0  503  502  0.00000000000E+00  0.00000000000E+00  0.24956002099E+03  0.24956002099E+03  0.00000000000E+00 0.  1.
         21   -1    0    0  501  503 -0.00000000000E+00 -0.00000000000E+00 -0.51418931865E+02  0.51418931865E+02  0.00000000000E+00 0.  1.
         24    1    1    2    0    0  0.13878133827E+02  0.34880865528E+02  0.29571633832E+02  0.93546645372E+02  0.80419002446E+02 0.  1.
          1    1    1    2  501    0 -0.29834012319E+02  0.59627122770E+01 -0.27897299737E+01  0.30551674620E+02  0.00000000000E+00 0. -1.
         -2    1    1    2    0  502  0.15955878492E+02 -0.40843577805E+02  0.17135918526E+03  0.17688063286E+03  0.00000000000E+00 0.  1.
<mgrwt>
<rscale>  2 0.81511628E+02</rscale>
<asrwt>0</asrwt>
<pdfrwt beam="1">  1       21 0.38393849E-01 0.81511628E+02</pdfrwt>
<pdfrwt beam="2">  1       21 0.79106051E-02 0.81511628E+02</pdfrwt>
<totfact> 0.80051003E+05</totfact>
</mgrwt>
</event>
<event>
 5    1  0.1946229E+000  0.9096977E+02  0.7546771E-02  0.1300520E+00
         21   -1    0    0  503  502  0.00000000000E+00  0.00000000000E+00  0.64501655014E+03  0.64501655014E+03  0.00000000000E+00 0.  1.
         21   -1    0    0  501  503 -0.00000000000E+00 -0.00000000000E+00 -0.24535606274E+02  0.24535606274E+02  0.00000000000E+00 0.  1.
         24    1    1    2    0    0 -0.62657854731E+02  0.17386764681E+02  0.14565705502E+03  0.17863790185E+03  0.80419002446E+02 0.  1.
          1    1    1    2  501    0  0.49247759891E+01 -0.20128534539E+02  0.10919564275E+02  0.23423240707E+02  0.00000000000E+00 0. -1.
         -2    1    1    2    0  502  0.57733078742E+02  0.27417698589E+01  0.46390432458E+03  0.46749101386E+03  0.00000000000E+00 0.  1.
<mgrwt>
<rscale>  2 0.90969773E+02</rscale>
<asrwt>0</asrwt>
<pdfrwt beam="1">  1       21 0.99233303E-01 0.90969773E+02</pdfrwt>
<pdfrwt beam="2">  1       21 0.37747091E-02 0.90969773E+02</pdfrwt>
<totfact> 0.36925604E+05</totfact>
</mgrwt>
</event>
<event>
 5    1  0.1946229E+000  0.7908493E+02  0.7546771E-02  0.1331669E+00
         21   -1    0    0  501  502  0.00000000000E+00  0.00000000000E+00  0.21388139257E+03  0.21388139257E+03  0.00000000000E+00 0. -1.
         21   -1    0    0  502  503 -0.00000000000E+00 -0.00000000000E+00 -0.41264909376E+02  0.41264909376E+02  0.00000000000E+00 0. -1.
         24    1    1    2    0    0 -0.36804948647E+02  0.45339591530E+02  0.45784807579E+02  0.10942461955E+03  0.80419002446E+02 0. -1.
          1    1    1    2  501    0  0.19098246742E+02 -0.18215243507E+02  0.10070549268E+03  0.10410636090E+03  0.00000000000E+00 0. -1.
         -2    1    1    2    0  503  0.17706701904E+02 -0.27124348024E+02  0.26126182940E+02  0.41615321494E+02  0.00000000000E+00 0.  1.
<mgrwt>
<rscale>  2 0.79084930E+02</rscale>
<asrwt>0</asrwt>
<pdfrwt beam="1">  1       21 0.32904829E-01 0.79084930E+02</pdfrwt>
<pdfrwt beam="2">  1       21 0.63484477E-02 0.79084930E+02</pdfrwt>
<totfact> 0.15655417E+06</totfact>
</mgrwt>
</event>
<event>
 5    1  0.1946229E+000  0.7633775E+02  0.7546771E-02  0.1339778E+00
         21   -1    0    0  503  502  0.00000000000E+00  0.00000000000E+00  0.35348903065E+02  0.35348903065E+02  0.00000000000E+00 0.  1.
         21   -1    0    0  501  503 -0.00000000000E+00 -0.00000000000E+00 -0.24970594351E+03  0.24970594351E+03  0.00000000000E+00 0.  1.
         24    1    1    2    0    0  0.50987680311E+01 -0.26700927033E+02 -0.11999112623E+03  0.14698307136E+03  0.80419002446E+02 0.  1.
          1    1    1    2  501    0  0.83295161307E+01 -0.18684015065E+02 -0.87963534589E+02  0.90310889018E+02  0.00000000000E+00 0. -1.
         -2    1    1    2    0  502 -0.13428284162E+02  0.45384942098E+02 -0.64023796263E+01  0.47760886190E+02  0.00000000000E+00 0.  1.
<mgrwt>
<rscale>  2 0.76337750E+02</rscale>
<asrwt>0</asrwt>
<pdfrwt beam="1">  1       21 0.54382927E-02 0.76337750E+02</pdfrwt>
<pdfrwt beam="2">  1       21 0.38416299E-01 0.76337750E+02</pdfrwt>
<totfact> 0.14997131E+06</totfact>
</mgrwt>
</event>
<event>
 5    1  0.1946229E+000  0.1231021E+03  0.7546771E-02  0.1238066E+00
         21   -1    0    0  501  502  0.00000000000E+00  0.00000000000E+00  0.20228284377E+03  0.20228284377E+03  0.00000000000E+00 0. -1.
         21   -1    0    0  502  503 -0.00000000000E+00 -0.00000000000E+00 -0.30085330563E+03  0.30085330563E+03  0.00000000000E+00 0. -1.
         24    1    1    2    0    0 -0.39848255226E+02  0.10219979946E+03 -0.55473270475E+02  0.14689173614E+03  0.80419002446E+02 0. -1.
          1    1    1    2  501    0  0.23997980203E+02 -0.74571762322E+02  0.14535417526E+03  0.16512022001E+03  0.00000000000E+00 0. -1.
         -2    1    1    2    0  503  0.15850275023E+02 -0.27628037139E+02 -0.18845136664E+03  0.19112419325E+03  0.00000000000E+00 0.  1.
<mgrwt>
<rscale>  2 0.12310211E+03</rscale>
<asrwt>0</asrwt>
<pdfrwt beam="1">  1       21 0.31120438E-01 0.12310211E+03</pdfrwt>
<pdfrwt beam="2">  1       21 0.46285124E-01 0.12310211E+03</pdfrwt>
<totfact> 0.45993164E+04</totfact>
</mgrwt>
</event>
<event>
 5    1  0.1946229E+000  0.6852153E+02  0.7546771E-02  0.1365194E+00
         21   -1    0    0  503  502  0.00000000000E+00  0.00000000000E+00  0.26094519846E+02  0.26094519846E+02  0.00000000000E+00 0.  1.
         21   -1    0    0  501  503 -0.00000000000E+00 -0.00000000000E+00 -0.44692843429E+03  0.44692843429E+03  0.00000000000E+00 0. -1.
         24    1    1    2    0    0 -0.78741772119E+01  0.41252720633E+02 -0.20668867305E+03  0.22572375406E+03  0.80419002446E+02 0.  0.
          1    1    1    2  501    0  0.12828086845E+02 -0.15626491323E+02 -0.21968813414E+03  0.22061646204E+03  0.00000000000E+00 0. -1.
         -2    1    1    2    0  502 -0.49539096326E+01 -0.25626229310E+02  0.55428927378E+01  0.26682738038E+02  0.00000000000E+00 0.  1.
<mgrwt>
<rscale>  2 0.68521525E+02</rscale>
<asrwt>0</asrwt>
<pdfrwt beam="1">  1       21 0.40145419E-02 0.68521525E+02</pdfrwt>
<pdfrwt beam="2">  1       21 0.68758214E-01 0.68521525E+02</pdfrwt>
<totfact> 0.75256701E+05</totfact>
</mgrwt>
</event>
<event>
 5    1  0.1946229E+000  0.1135892E+03  0.7546771E-02  0.1254064E+00
         21   -1    0    0  503  502  0.00000000000E+00  0.00000000000E+00  0.30391364115E+03  0.30391364115E+03  0.00000000000E+00 0. -1.
         21   -1    0    0  501  503 -0.00000000000E+00 -0.00000000000E+00 -0.65043251996E+02  0.65043251996E+02  0.00000000000E+00 0. -1.
         24    1    1    2    0    0 -0.50112330769E+02  0.57177720599E+02  0.20853579588E+03  0.23608246768E+03  0.80419002446E+02 0. -1.
          1    1    1    2  501    0  0.56404742989E+02  0.25387074800E+01 -0.14074553615E+02  0.58189630750E+02  0.00000000000E+00 0. -1.
         -2    1    1    2    0  502 -0.62924122202E+01 -0.59716428079E+02  0.44409146887E+02  0.74684794713E+02  0.00000000000E+00 0.  1.
<mgrwt>
<rscale>  2 0.11358922E+03</rscale>
<asrwt>0</asrwt>
<pdfrwt beam="1">  1       21 0.46755944E-01 0.11358922E+03</pdfrwt>
<pdfrwt beam="2">  1       21 0.10006654E-01 0.11358922E+03</pdfrwt>
<totfact> 0.36003422E+05</totfact>
</mgrwt>
</event>
<event>
 5    1  0.1946229E+000  0.1003434E+03  0.7546771E-02  0.1279575E+00
         21   -1    0    0  503  502  0.00000000000E+00  0.00000000000E+00  0.10161041776E+04  0.10161041776E+04  0.00000000000E+00 0. -1.
         21   -1    0    0  501  503 -0.00000000000E+00 -0.00000000000E+00 -0.83092441614E+02  0.83092441614E+02  0.00000000000E+00 0. -1.
         24    1    1    2    0    0 -0.13542968120E+02  0.69489883024E+02  0.38002137791E+03  0.39483631982E+03  0.80419002446E+02 0. -1.
          1    1    1    2  501    0 -0.21912689425E+02 -0.46173277421E+02 -0.66246902394E+02  0.83670721178E+02  0.00000000000E+00 0. -1.
         -2    1    1    2    0  502  0.35455657545E+02 -0.23316605603E+02  0.61923726046E+03  0.62068957820E+03  0.00000000000E+00 0.  1.
<mgrwt>
<rscale>  2 0.10034341E+03</rscale>
<asrwt>0</asrwt>
<pdfrwt beam="1">  1       21 0.15632371E+00 0.10034341E+03</pdfrwt>
<pdfrwt beam="2">  1       21 0.12783453E-01 0.10034341E+03</pdfrwt>
<totfact> 0.15227139E+04</totfact>
</mgrwt>
</event>
<event>
 5    1  0.1946229E+000  0.7771602E+02  0.7546771E-02  0.1335661E+00
         21   -1    0    0  503  502  0.00000000000E+00  0.00000000000E+00  0.42762073580E+03  0.42762073580E+03  0.00000000000E+00 0.  1.
         21   -1    0    0  501  503 -0.00000000000E+00 -0.00000000000E+00 -0.21586692266E+02  0.21586692266E+02  0.00000000000E+00 0. -1.
         24    1    1    2    0    0  0.14593687485E+02 -0.16795281705E+01  0.19108757660E+03  0.20784002121E+03  0.80419002446E+02 0.  1.
          1    1    1    2  501    0  0.89053417535E+01 -0.31662759399E+02  0.13040374519E+02  0.35382012550E+02  0.00000000000E+00 0. -1.
         -2    1    1    2    0  502 -0.23499029238E+02  0.33342287569E+02  0.20190609242E+03  0.20598539431E+03  0.00000000000E+00 0.  1.
<mgrwt>
<rscale>  2 0.77716022E+02</rscale>
<asrwt>0</asrwt>
<pdfrwt beam="1">  1       21 0.65787799E-01 0.77716022E+02</pdfrwt>
<pdfrwt beam="2">  1       21 0.33210299E-02 0.77716022E+02</pdfrwt>
<totfact> 0.11289540E+06</totfact>
</mgrwt>
</event>
<event>
 5    1  0.1946229E+000  0.8449873E+02  0.7546771E-02  0.1316749E+00
         21   -1    0    0  503  502  0.00000000000E+00  0.00000000000E+00  0.10267678275E+04  0.10267678275E+04  0.00000000000E+00 0. -1.
         21   -1    0    0  501  503 -0.00000000000E+00 -0.00000000000E+00 -0.75136546652E+01  0.75136546652E+01  0.00000000000E+00 0.  1.
         24    1    1    2    0    0 -0.10246425991E+02  0.25823981581E+02  0.39512150852E+03  0.40417828952E+03  0.80419002446E+02 0.  1.
          1    1    1    2  501    0 -0.15591312600E+02 -0.47622540880E+02  0.29350857050E+03  0.29775539690E+03  0.00000000000E+00 0. -1.
         -2    1    1    2    0  502  0.25837738591E+02  0.21798559299E+02  0.33062409385E+03  0.33234779578E+03  0.00000000000E+00 0.  1.
<mgrwt>
<rscale>  2 0.84498728E+02</rscale>
<asrwt>0</asrwt>
<pdfrwt beam="1">  1       21 0.15796417E+00 0.84498728E+02</pdfrwt>
<pdfrwt beam="2">  1       21 0.11559477E-02 0.84498728E+02</pdfrwt>
<totfact> 0.79389887E+05</totfact>
</mgrwt>
</event>
<event>
 5    1  0.1946229E+000  0.7565594E+02  0.7546771E-02  0.1341852E+00
         21   -1    0    0  503  502  0.00000000000E+00  0.00000000000E+00  0.57769498186E+02  0.57769498186E+02  0.00000000000E+00 0.  1.
         21   -1    0    0  501  503 -0.00000000000E+00 -0.00000000000E+00 -0.22292988467E+03  0.22292988467E+03  0.00000000000E+00 0. -1.
         24    1    1    2    0    0 -0.12117372274E+02 -0.31530286617E+02  0.87722505531E+00  0.87229439773E+02  0.80419002446E+02 0.  1.
          1    1    1    2  501    0 -0.20863057030E+02  0.20658969881E+02 -0.15391253047E+03  0.15668799322E+03  0.00000000000E+00 0. -1.
         -2    1    1    2    0  502  0.32980429304E+02  0.10871316736E+02 -0.12125081073E+02  0.36781949862E+02  0.00000000000E+00 0.  1.
<mgrwt>
<rscale>  2 0.75655939E+02</rscale>
<asrwt>0</asrwt>
<pdfrwt beam="1">  1       21 0.88876152E-02 0.75655939E+02</pdfrwt>
<pdfrwt beam="2">  1       21 0.34296905E-01 0.75655939E+02</pdfrwt>
<totfact> 0.81643254E+05</totfact>
</mgrwt>
</event>
<event>
 5    1  0.1946229E+000  0.6909145E+02  0.7546771E-02  0.1363210E+00
         21   -1    0    0  501  502  0.00000000000E+00  0.00000000000E+00  0.69665697596E+02  0.69665697596E+02  0.00000000000E+00 0. -1.
         21   -1    0    0  502  503 -0.00000000000E+00 -0.00000000000E+00 -0.14133329756E+03  0.14133329756E+03  0.00000000000E+00 0. -1.
         24    1    1    2    0    0  0.38495919373E+02  0.26748838211E+01 -0.21667198641E+02  0.91792016337E+02  0.80419002446E+02 0.  0.
          1    1    1    2  501    0 -0.19320296269E+02 -0.16449594145E+02  0.27955499240E+02  0.37754111475E+02  0.00000000000E+00 0. -1.
         -2    1    1    2    0  503 -0.19175623104E+02  0.13774710324E+02 -0.77955900564E+02  0.81452867344E+02  0.00000000000E+00 0.  1.
<mgrwt>
<rscale>  2 0.69091453E+02</rscale>
<asrwt>0</asrwt>
<pdfrwt beam="1">  1       21 0.10717800E-01 0.69091453E+02</pdfrwt>
<pdfrwt beam="2">  1       21 0.21743584E-01 0.69091453E+02</pdfrwt>
<totfact> 0.13886183E+06</totfact>
</mgrwt>
</event>
<event>
 5    1  0.1946229E+000  0.9132280E+02  0.7546771E-02  0.1299680E+00
         21   -1    0    0  501  502  0.00000000000E+00  0.00000000000E+00  0.17007273737E+02  0.17007273737E+02  0.00000000000E+00 0. -1.
         21   -1    0    0  502  503 -0.00000000000E+00 -0.00000000000E+00 -0.10332625892E+04  0.10332625892E+04  0.00000000000E+00 0.  1.
         24    1    1    2    0    0  0.50518503886E+02  0.56617999428E+01 -0.27590483670E+03  0.29184734037E+03  0.80419002446E+02 0.  0.
          1    1    1    2  501    0  0.52924815507E+01  0.23810752420E+02 -0.11716135443E+02  0.27059750950E+02  0.00000000000E+00 0. -1.
         -2    1    1    2    0  503 -0.55810985436E+02 -0.29472552362E+02 -0.72863434330E+03  0.73136277160E+03  0.00000000000E+00 0.  1.
<mgrwt>
<rscale>  2 0.91322801E+02</rscale>
<asrwt>0</asrwt>
<pdfrwt beam="1">  1       21 0.26165038E-02 0.91322801E+02</pdfrwt>
<pdfrwt beam="2">  1       21 0.15896347E+00 0.91322801E+02</pdfrwt>
<totfact> 0.21237006E+05</totfact>
</mgrwt>
</event>
<event>
 5    1  0.1946229E+000  0.9354433E+02  0.7546771E-02  0.1294489E+00
         21   -1    0    0  501  502  0.00000000000E+00  0.00000000000E+00  0.19619377174E+03  0.19619377174E+03  0.00000000000E+00 0.  1.
         21   -1    0    0  502  503 -0.00000000000E+00 -0.00000000000E+00 -0.46317815904E+02  0.46317815904E+02  0.00000000000E+00 0.  1.
         24    1    1    2    0    0 -0.28739252702E+02 -0.70426142929E+02  0.74427122873E+02  0.13338815100E+03  0.80419002446E+02 0.  1.
          1    1    1    2  501    0  0.11077135380E+02  0.18672871265E+02  0.34676122891E+02  0.40912254255E+02  0.00000000000E+00 0. -1.
         -2    1    1    2    0  503  0.17662117322E+02  0.51753271665E+02  0.40772710071E+02  0.68211182388E+02  0.00000000000E+00 0.  1.
<mgrwt>
<rscale>  2 0.93544326E+02</rscale>
<asrwt>0</asrwt>
<pdfrwt beam="1">  1       21 0.30183657E-01 0.93544326E+02</pdfrwt>
<pdfrwt beam="2">  1       21 0.71258179E-02 0.93544326E+02</pdfrwt>
<totfact> 0.15282997E+06</totfact>
</mgrwt>
</event>
<event>
 5    1  0.1946229E+000  0.1418340E+03  0.7546771E-02  0.1210882E+00
         21   -1    0    0  501  502  0.00000000000E+00  0.00000000000E+00  0.96998737271E+02  0.96998737271E+02  0.00000000000E+00 0. -1.
         21   -1    0    0  502  503 -0.00000000000E+00 -0.00000000000E+00 -0.48118059902E+03  0.48118059902E+03  0.00000000000E+00 0.  1.
         24    1    1    2    0    0 -0.10693953206E+03  0.61549819527E+01 -0.10873617860E+03  0.17252454843E+03  0.80419002446E+02 0. -1.
          1    1    1    2  501    0  0.12772064748E+03  0.10612136423E+01  0.16020082390E+01  0.12773510245E+03  0.00000000000E+00 0. -1.
         -2    1    1    2    0  503 -0.20781115420E+02 -0.72161955950E+01 -0.27704769138E+03  0.27791968541E+03  0.00000000000E+00 0.  1.
<mgrwt>
<rscale>  2 0.14183403E+03</rscale>
<asrwt>0</asrwt>
<pdfrwt beam="1">  1       21 0.14922882E-01 0.14183403E+03</pdfrwt>
<pdfrwt beam="2">  1       21 0.74027785E-01 0.14183403E+03</pdfrwt>
<totfact> 0.66347172E+04</totfact>
</mgrwt>
</event>
<event>
 5    1  0.1946229E+000  0.6967406E+02  0.7546771E-02  0.1361205E+00
         21   -1    0    0  503  502  0.00000000000E+00  0.00000000000E+00  0.17455881138E+03  0.17455881138E+03  0.00000000000E+00 0. -1.
         21   -1    0    0  501  503 -0.00000000000E+00 -0.00000000000E+00 -0.38784335670E+02  0.38784335670E+02  0.00000000000E+00 0. -1.
         24    1    1    2    0    0  0.77052170348E+00 -0.44850127586E+02  0.49706485167E+02  0.10464262167E+03  0.80419002446E+02 0. -1.
          1    1    1    2  501    0  0.70031487567E+01  0.24469657211E+02  0.66008517054E+01  0.26294095531E+02  0.00000000000E+00 0. -1.
         -2    1    1    2    0  502 -0.77736704602E+01  0.20380470375E+02  0.79467138840E+02  0.82406429849E+02  0.00000000000E+00 0.  1.
<mgrwt>
<rscale>  2 0.69674060E+02</rscale>
<asrwt>0</asrwt>
<pdfrwt beam="1">  1       21 0.26855201E-01 0.69674060E+02</pdfrwt>
<pdfrwt beam="2">  1       21 0.59668210E-02 0.69674060E+02</pdfrwt>
<totfact> 0.25382331E+06</totfact>
</mgrwt>
</event>
<event>
 5    1  0.1946229E+000  0.8205272E+02  0.7546771E-02  0.1323325E+00
         21   -1    0    0  501  502  0.00000000000E+00  0.00000000000E+00  0.13007656268E+02  0.13007656268E+02  0.00000000000E+00 0.  1.
         21   -1    0    0  502  503 -0.00000000000E+00 -0.00000000000E+00 -0.54351713785E+03  0.54351713785E+03  0.00000000000E+00 0. -1.
         24    1    1    2    0    0 -0.54718969750E+02 -0.38944649681E+01 -0.27653253398E+03  0.29316683102E+03  0.80419002446E+02 0.  1.
          1    1    1    2  501    0  0.30808800672E+02  0.21064394566E+02 -0.10336529259E+03  0.10989665431E+03  0.00000000000E+00 0. -1.
         -2    1    1    2    0  503  0.23910169078E+02 -0.17169929598E+02 -0.15061165500E+03  0.15346130877E+03  0.00000000000E+00 0.  1.
<mgrwt>
<rscale>  2 0.82052718E+02</rscale>
<asrwt>0</asrwt>
<pdfrwt beam="1">  1       21 0.20011777E-02 0.82052718E+02</pdfrwt>
<pdfrwt beam="2">  1       21 0.83618027E-01 0.82052718E+02</pdfrwt>
<totfact> 0.15184054E+06</totfact>
</mgrwt>
</event>
<event>
 5    1  0.1946229E+000  0.1251474E+03  0.7546771E-02  0.1234839E+00
         21   -1    0    0  501  502  0.00000000000E+00  0.00000000000E+00  0.73076581101E+01  0.73076581101E+01  0.00000000000E+00 0.  1.
         21   -1    0    0  502  503 -0.00000000000E+00 -0.00000000000E+00 -0.24600713723E+04  0.24600713723E+04  0.00000000000E+00 0. -1.
         24    1    1    2    0    0 -0.76830431709E+02 -0.55380695671E+02 -0.12170416582E+04  0.12233672999E+04  0.80419002446E+02 0.  1.
          1    1    1    2  501    0  0.93821992978E+02  0.36563381814E+02 -0.65112000337E+03  0.65886015666E+03  0.00000000000E+00 0. -1.
         -2    1    1    2    0  503 -0.16991561269E+02  0.18817313857E+02 -0.58460205268E+03  0.58515157392E+03  0.00000000000E+00 0.  1.
<mgrwt>
<rscale>  2 0.12514737E+03</rscale>
<asrwt>0</asrwt>
<pdfrwt beam="1">  1       21 0.11242542E-02 0.12514737E+03</pdfrwt>
<pdfrwt beam="2">  1       21 0.37847281E+00 0.12514737E+03</pdfrwt>
<totfact> 0.40192599E+04</totfact>
</mgrwt>
</event>
<event>
 5    1  0.1946229E+000  0.7728435E+02  0.7546771E-02  0.1336940E+00
         21   -1    0    0  501  502  0.00000000000E+00  0.00000000000E+00  0.86533928532E+02  0.86533928532E+02  0.00000000000E+00 0.  1.
         21   -1    0    0  502  503 -0.00000000000E+00 -0.00000000000E+00 -0.11473560372E+03  0.11473560372E+03  0.00000000000E+00 0. -1.
         24    1    1    2    0    0 -0.19936720596E+02 -0.39129823895E+02 -0.47176873355E+02  0.10306060974E+03  0.80419002446E+02 0.  0.
          1    1    1    2  501    0 -0.59041072658E+01  0.36490059555E+02  0.47133546086E+02  0.59899533350E+02  0.00000000000E+00 0. -1.
         -2    1    1    2    0  503  0.25840827862E+02  0.26397643402E+01 -0.28158347916E+02  0.38309389158E+02  0.00000000000E+00 0.  1.
<mgrwt>
<rscale>  2 0.77284350E+02</rscale>
<asrwt>0</asrwt>
<pdfrwt beam="1">  1       21 0.13312912E-01 0.77284350E+02</pdfrwt>
<pdfrwt beam="2">  1       21 0.17651631E-01 0.77284350E+02</pdfrwt>
<totfact> 0.13952566E+06</totfact>
</mgrwt>
</event>
<event>
 5    1  0.1946229E+000  0.7393014E+02  0.7546771E-02  0.1347216E+00
         21   -1    0    0  501  502  0.00000000000E+00  0.00000000000E+00  0.27278102796E+02  0.27278102796E+02  0.00000000000E+00 0. -1.
         21   -1    0    0  502  503 -0.00000000000E+00 -0.00000000000E+00 -0.25998532876E+03  0.25998532876E+03  0.00000000000E+00 0.  1.
         24    1    1    2    0    0  0.60160953712E+01 -0.22849596557E+02 -0.12528812271E+03  0.15074026374E+03  0.80419002446E+02 0. -1.
          1    1    1    2  501    0  0.12206445690E+02  0.38270558418E+02 -0.18082928880E+02  0.44052528587E+02  0.00000000000E+00 0. -1.
         -2    1    1    2    0  503 -0.18222541061E+02 -0.15420961862E+02 -0.89336174376E+02  0.92470639230E+02  0.00000000000E+00 0.  1.
<mgrwt>
<rscale>  2 0.73930137E+02</rscale>
<asrwt>0</asrwt>
<pdfrwt beam="1">  1       21 0.41966315E-02 0.73930137E+02</pdfrwt>
<pdfrwt beam="2">  1       21 0.39997740E-01 0.73930137E+02</pdfrwt>
<totfact> 0.21234766E+06</totfact>
</mgrwt>
</event>
<event>
 5    1  0.1946229E+000  0.7810650E+02  0.7546771E-02  0.1334512E+00
         21   -1    0    0  501  502  0.00000000000E+00  0.00000000000E+00  0.10052655209E+03  0.10052655209E+03  0.00000000000E+00 0. -1.
         21   -1    0    0  502  503 -0.00000000000E+00 -0.00000000000E+00 -0.75198450215E+02  0.75198450215E+02  0.00000000000E+00 0. -1.
         24    1    1    2    0    0  0.11936572067E+01  0.86492521984E+00 -0.44307553472E+01  0.80554456491E+02  0.80419002446E+02 0. -1.
          1    1    1    2  501    0  0.37063683922E+02 -0.45690455847E+01  0.40671082876E+02  0.55215304271E+02  0.00000000000E+00 0. -1.
         -2    1    1    2    0  503 -0.38257341129E+02  0.37041203648E+01 -0.10912225655E+02  0.39955241542E+02  0.00000000000E+00 0.  1.
<mgrwt>
<rscale>  2 0.78106500E+02</rscale>
<asrwt>0</asrwt>
<pdfrwt beam="1">  1       21 0.15465623E-01 0.78106500E+02</pdfrwt>
<pdfrwt beam="2">  1       21 0.11568992E-01 0.78106500E+02</pdfrwt>
<totfact> 0.22620822E+06</totfact>
</mgrwt>
</event>
<event>
 5    1  0.1946229E+000  0.8460447E+02  0.7546771E-02  0.1316470E+00
         21   -1    0    0  501  502  0.00000000000E+00  0.00000000000E+00  0.16645686868E+03  0.16645686868E+03  0.00000000000E+00 0.  1.
         21   -1    0    0  502  503 -0.00000000000E+00 -0.00000000000E+00 -0.46700615101E+02  0.46700615101E+02  0.00000000000E+00 0. -1.
         24    1    1    2    0    0  0.51800885177E+02  0.33123686586E+02  0.76732429328E+02  0.12702595004E+03  0.80419002446E+02 0.  1.
          1    1    1    2  501    0 -0.27496602942E+02 -0.33914548040E+02  0.43742938134E+02  0.61803756994E+02  0.00000000000E+00 0. -1.
         -2    1    1    2    0  503 -0.24304282235E+02  0.79086145392E+00 -0.71911388104E+00  0.24327776750E+02  0.00000000000E+00 0.  1.
<mgrwt>
<rscale>  2 0.84604467E+02</rscale>
<asrwt>0</asrwt>
<pdfrwt beam="1">  1       21 0.25608749E-01 0.84604467E+02</pdfrwt>
<pdfrwt beam="2">  1       21 0.71847101E-02 0.84604467E+02</pdfrwt>
<totfact> 0.20495743E+06</totfact>
</mgrwt>
</event>
<event>
 5    1  0.1946229E+000  0.6691944E+02  0.7546771E-02  0.1370893E+00
         21   -1    0    0  503  502  0.00000000000E+00  0.00000000000E+00  0.12321136076E+04  0.12321136076E+04  0.00000000000E+00 0.  1.
         21   -1    0    0  501  503 -0.00000000000E+00 -0.00000000000E+00 -0.12697861196E+02  0.12697861196E+02  0.00000000000E+00 0. -1.
         24    1    1    2    0    0 -0.14818125781E+02  0.10404686813E+02  0.89215920756E+03  0.89595931936E+03  0.80419002446E+02 0.  0.
          1    1    1    2  501    0  0.30215967973E+02  0.38045553881E+01  0.11737403493E+02  0.32638106609E+02  0.00000000000E+00 0. -1.
         -2    1    1    2    0  502 -0.15397842193E+02 -0.14209242201E+02  0.31551913534E+03  0.31621404281E+03  0.00000000000E+00 0.  1.
<mgrwt>
<rscale>  2 0.66919437E+02</rscale>
<asrwt>0</asrwt>
<pdfrwt beam="1">  1       21 0.18955584E+00 0.66919437E+02</pdfrwt>
<pdfrwt beam="2">  1       21 0.19535181E-02 0.66919437E+02</pdfrwt>
<totfact> 0.21577161E+05</totfact>
</mgrwt>
</event>
<event>
 5    1  0.1946229E+000  0.9018381E+02  0.7546771E-02  0.1302407E+00
         21   -1    0    0  501  502  0.00000000000E+00  0.00000000000E+00  0.53754563799E+03  0.53754563799E+03  0.00000000000E+00 0.  1.
         21   -1    0    0  502  503 -0.00000000000E+00 -0.00000000000E+00 -0.17280738414E+02  0.17280738414E+02  0.00000000000E+00 0. -1.
         24    1    1    2    0    0 -0.10307818156E+02  0.23849251575E+02  0.33926981976E+03  0.34963733278E+03  0.80419002446E+02 0.  1.
          1    1    1    2  501    0  0.43592346951E+02  0.13684319880E+02  0.73141741467E+02  0.86239594550E+02  0.00000000000E+00 0. -1.
         -2    1    1    2    0  503 -0.33284528795E+02 -0.37533571456E+02  0.10785333835E+03  0.11894944908E+03  0.00000000000E+00 0.  1.
<mgrwt>
<rscale>  2 0.90183810E+02</rscale>
<asrwt>0</asrwt>
<pdfrwt beam="1">  1       21 0.82699316E-01 0.90183810E+02</pdfrwt>
<pdfrwt beam="2">  1       21 0.26585756E-02 0.90183810E+02</pdfrwt>
<totfact> 0.98768954E+05</totfact>
</mgrwt>
</event>
<event>
 5    1  0.1946229E+000  0.8065728E+02  0.7546771E-02  0.1327196E+00
         21   -1    0    0  503  502  0.00000000000E+00  0.00000000000E+00  0.27080983964E+03  0.27080983964E+03  0.00000000000E+00 0. -1.
         21   -1    0    0  501  503 -0.00000000000E+00 -0.00000000000E+00 -0.26732024514E+02  0.26732024514E+02  0.00000000000E+00 0.  1.
         24    1    1    2    0    0  0.20188743924E+02  0.24577429892E+01  0.10749560994E+03  0.13577977755E+03  0.80419002446E+02 0.  0.
          1    1    1    2  501    0  0.27967040147E+02  0.79933105463E+01  0.20301435040E+02  0.35471067263E+02  0.00000000000E+00 0. -1.
         -2    1    1    2    0  502 -0.48155784071E+02 -0.10451053536E+02  0.11628077014E+03  0.12629101933E+03  0.00000000000E+00 0.  1.
<mgrwt>
<rscale>  2 0.80657280E+02</rscale>
<asrwt>0</asrwt>
<pdfrwt beam="1">  1       21 0.41663050E-01 0.80657280E+02</pdfrwt>
<pdfrwt beam="2">  1       21 0.41126193E-02 0.80657280E+02</pdfrwt>
<totfact> 0.20327410E+06</totfact>
</mgrwt>
</event>
<event>
 5    1  0.1946229E+000  0.9292680E+02  0.7546771E-02  0.1295915E+00
         21   -1    0    0  503  502  0.00000000000E+00  0.00000000000E+00  0.95643948486E+01  0.95643948486E+01  0.00000000000E+00 0.  1.
         21   -1    0    0  501  503 -0.00000000000E+00 -0.00000000000E+00 -0.95612278751E+03  0.95612278751E+03  0.00000000000E+00 0.  1.
         24    1    1    2    0    0 -0.73951059734E+02 -0.29730150823E+01 -0.56246958700E+03  0.57298939808E+03  0.80419002446E+02 0.  0.
          1    1    1    2  501    0  0.48279607195E+02 -0.74566346440E+01 -0.30517907506E+03  0.30906437796E+03  0.00000000000E+00 0. -1.
         -2    1    1    2    0  502  0.25671452538E+02  0.10429649726E+02 -0.78909730598E+02  0.83633406315E+02  0.00000000000E+00 0.  1.
<mgrwt>
<rscale>  2 0.92926798E+02</rscale>
<asrwt>0</asrwt>
<pdfrwt beam="1">  1       21 0.14714451E-02 0.92926798E+02</pdfrwt>
<pdfrwt beam="2">  1       21 0.14709584E+00 0.92926798E+02</pdfrwt>
<totfact> 0.65053432E+05</totfact>
</mgrwt>
</event>
<event>
 5    1  0.1946229E+000  0.7440372E+02  0.7546771E-02  0.1345728E+00
         21   -1    0    0  501  502  0.00000000000E+00  0.00000000000E+00  0.30646425806E+03  0.30646425806E+03  0.00000000000E+00 0. -1.
         21   -1    0    0  502  503 -0.00000000000E+00 -0.00000000000E+00 -0.10857616638E+03  0.10857616638E+03  0.00000000000E+00 0.  1.
         24    1    1    2    0    0 -0.15612130358E+02  0.10763009263E+02  0.12940882807E+03  0.15353645078E+03  0.80419002446E+02 0.  1.
          1    1    1    2  501    0 -0.13027738428E+02 -0.29301258364E+02  0.16033869029E+03  0.16351385664E+03  0.00000000000E+00 0. -1.
         -2    1    1    2    0  503  0.28639868785E+02  0.18538249100E+02 -0.91859426676E+02  0.97990117016E+02  0.00000000000E+00 0.  1.
<mgrwt>
<rscale>  2 0.74403717E+02</rscale>
<asrwt>0</asrwt>
<pdfrwt beam="1">  1       21 0.47148347E-01 0.74403717E+02</pdfrwt>
<pdfrwt beam="2">  1       21 0.16704026E-01 0.74403717E+02</pdfrwt>
<totfact> 0.14471417E+05</totfact>
</mgrwt>
</event>
<event>
 5    1  0.1946229E+000  0.8446189E+02  0.7546771E-02  0.1316846E+00
         21   -1    0    0  503  502  0.00000000000E+00  0.00000000000E+00  0.42947456466E+02  0.42947456466E+02  0.00000000000E+00 0. -1.
         21   -1    0    0  501  503 -0.00000000000E+00 -0.00000000000E+00 -0.73984511480E+03  0.73984511480E+03  0.00000000000E+00 0. -1.
         24    1    1    2    0    0 -0.51368302053E+02  0.74569441704E+01 -0.47373920718E+02  0.10679799994E+03  0.80419002446E+02 0. -1.
          1    1    1    2  501    0  0.49354111208E+02  0.14279532256E+02 -0.65200339782E+03  0.65402458983E+03  0.00000000000E+00 0. -1.
         -2    1    1    2    0  502  0.20141908453E+01 -0.21736476427E+02  0.24796602042E+01  0.21969981496E+02  0.00000000000E+00 0.  1.
<mgrwt>
<rscale>  2 0.84461893E+02</rscale>
<asrwt>0</asrwt>
<pdfrwt beam="1">  1       21 0.66073008E-02 0.84461893E+02</pdfrwt>
<pdfrwt beam="2">  1       21 0.11382233E+00 0.84461893E+02</pdfrwt>
<totfact> 0.10581345E+05</totfact>
</mgrwt>
</event>
<event>
 5    1  0.1946229E+000  0.1290970E+03  0.7546771E-02  0.1228802E+00
         21   -1    0    0  501  502  0.00000000000E+00  0.00000000000E+00  0.20371347015E+03  0.20371347015E+03  0.00000000000E+00 0.  1.
         21   -1    0    0  502  503 -0.00000000000E+00 -0.00000000000E+00 -0.97707440266E+02  0.97707440266E+02  0.00000000000E+00 0.  1.
         24    1    1    2    0    0  0.92516558445E+02 -0.35713889105E+02  0.81330760239E+02  0.15138264094E+03  0.80419002446E+02 0.  1.
          1    1    1    2  501    0 -0.59904130319E+02  0.63770800830E+02  0.49341599626E+02  0.10044806281E+03  0.00000000000E+00 0. -1.
         -2    1    1    2    0  503 -0.32612428126E+02 -0.28056911725E+02 -0.24666329976E+02  0.49590206678E+02  0.00000000000E+00 0.  1.
<mgrwt>
<rscale>  2 0.12909696E+03</rscale>
<asrwt>0</asrwt>
<pdfrwt beam="1">  1       21 0.31340534E-01 0.12909696E+03</pdfrwt>
<pdfrwt beam="2">  1       21 0.15031914E-01 0.12909696E+03</pdfrwt>
<totfact> 0.38642770E+05</totfact>
</mgrwt>
</event>
<event>
 5    1  0.1946229E+000  0.9381692E+02  0.7546771E-02  0.1293863E+00
         21   -1    0    0  501  502  0.00000000000E+00  0.00000000000E+00  0.83785795658E+03  0.83785795658E+03  0.00000000000E+00 0. -1.
         21   -1    0    0  502  503 -0.00000000000E+00 -0.00000000000E+00 -0.20176452090E+02  0.20176452090E+02  0.00000000000E+00 0.  1.
         24    1    1    2    0    0 -0.23180175680E+02  0.35201680828E+02  0.26286304439E+03  0.27810191466E+03  0.80419002446E+02 0.  1.
          1    1    1    2  501    0 -0.22012912870E+02  0.16984911045E+02  0.46886185648E+03  0.46968552884E+03  0.00000000000E+00 0. -1.
         -2    1    1    2    0  503  0.45193088550E+02 -0.52186591873E+02  0.85956603618E+02  0.11024696517E+03  0.00000000000E+00 0.  1.
<mgrwt>
<rscale>  2 0.93816924E+02</rscale>
<asrwt>0</asrwt>
<pdfrwt beam="1">  1       21 0.12890120E+00 0.93816924E+02</pdfrwt>
<pdfrwt beam="2">  1       21 0.31040702E-02 0.93816924E+02</pdfrwt>
<totfact> 0.27271884E+05</totfact>
</mgrwt>
</event>
<event>
 5    1  0.1946229E+000  0.8047033E+02  0.7546771E-02  0.1327722E+00
         21   -1    0    0  501  502  0.00000000000E+00  0.00000000000E+00  0.88345191903E+02  0.88345191903E+02  0.00000000000E+00 0.  1.
         21   -1    0    0  502  503 -0.00000000000E+00 -0.00000000000E+00 -0.11985358470E+03  0.11985358470E+03  0.00000000000E+00 0.  1.
         24    1    1    2    0    0 -0.30601953084E+02  0.25455192382E+02  0.25067959551E+02  0.93166865903E+02  0.80419002446E+02 0.  1.
          1    1    1    2  501    0  0.19258349286E+02  0.17962173799E+02  0.15181792795E+02  0.30397541632E+02  0.00000000000E+00 0. -1.
         -2    1    1    2    0  503  0.11343603798E+02 -0.43417366181E+02 -0.71758145146E+02  0.84634369070E+02  0.00000000000E+00 0.  1.
<mgrwt>
<rscale>  2 0.80470332E+02</rscale>
<asrwt>0</asrwt>
<pdfrwt beam="1">  1       21 0.13591568E-01 0.80470332E+02</pdfrwt>
<pdfrwt beam="2">  1       21 0.18439013E-01 0.80470332E+02</pdfrwt>
<totfact> 0.12448038E+06</totfact>
</mgrwt>
</event>
<event>
 5    1  0.1946229E+000  0.6923400E+02  0.7546771E-02  0.1362717E+00
         21   -1    0    0  501  502  0.00000000000E+00  0.00000000000E+00  0.45830186357E+02  0.45830186357E+02  0.00000000000E+00 0. -1.
         21   -1    0    0  502  503 -0.00000000000E+00 -0.00000000000E+00 -0.17455707153E+03  0.17455707153E+03  0.00000000000E+00 0.  1.
         24    1    1    2    0    0 -0.21426081055E+02 -0.72390271781E+01 -0.67450214802E+02  0.10736958552E+03  0.80419002446E+02 0. -1.
          1    1    1    2  501    0  0.12920902987E+02 -0.21430826090E+02  0.16307821118E+02  0.29869299800E+02  0.00000000000E+00 0. -1.
         -2    1    1    2    0  503  0.85051780677E+01  0.28669853268E+02 -0.77584491486E+02  0.83148372561E+02  0.00000000000E+00 0.  1.
<mgrwt>
<rscale>  2 0.69234003E+02</rscale>
<asrwt>0</asrwt>
<pdfrwt beam="1">  1       21 0.70507980E-02 0.69234003E+02</pdfrwt>
<pdfrwt beam="2">  1       21 0.26854934E-01 0.69234003E+02</pdfrwt>
<totfact> 0.19184658E+06</totfact>
</mgrwt>
</event>
<event>
 5    1  0.1946229E+000  0.1127562E+03  0.7546771E-02  0.1255549E+00
         21   -1    0    0  503  502  0.00000000000E+00  0.00000000000E+00  0.10388755408E+02  0.10388755408E+02  0.00000000000E+00 0. -1.
         21   -1    0    0  501  503 -0.00000000000E+00 -0.00000000000E+00 -0.16918431571E+04  0.16918431571E+04  0.00000000000E+00 0. -1.
         24    1    1    2    0    0  0.36841208102E+01  0.68125911276E+02 -0.55822750380E+03  0.56810199303E+03  0.80419002446E+02 0.  0.
          1    1    1    2  501    0  0.20256154712E+01  0.25836692724E+02 -0.70345695373E+03  0.70393417559E+03  0.00000000000E+00 0. -1.
         -2    1    1    2    0  502 -0.57097362814E+01 -0.93962604000E+02 -0.41976994418E+03  0.43019574391E+03  0.00000000000E+00 0.  1.
<mgrwt>
<rscale>  2 0.11275623E+03</rscale>
<asrwt>0</asrwt>
<pdfrwt beam="1">  1       21 0.15982721E-02 0.11275623E+03</pdfrwt>
<pdfrwt beam="2">  1       21 0.26028324E+00 0.11275623E+03</pdfrwt>
<totfact> 0.10951489E+05</totfact>
</mgrwt>
</event>
<event>
 5    1  0.3289642E+000  0.6697319E+02  0.7546771E-02  0.1370699E+00
         21   -1    0    0  501  502  0.00000000000E+00  0.00000000000E+00  0.13187965888E+03  0.13187965888E+03  0.00000000000E+00 0.  1.
         21   -1    0    0  502  503 -0.00000000000E+00 -0.00000000000E+00 -0.42375132005E+03  0.42375132005E+03  0.00000000000E+00 0.  1.
         24    1    1    2    0    0 -0.29951540472E+01 -0.16113010832E+02  0.99248485805E+02  0.12878694792E+03  0.80419002446E+02 0.  1.
          1    1    1    2  501    0  0.19212071942E+02 -0.95980893069E+01  0.10617869797E+02  0.23957591400E+02  0.00000000000E+00 0. -1.
         -2    1    1    2    0  503 -0.16216917895E+02  0.25711100139E+02 -0.40173801677E+03  0.40288643961E+03  0.00000000000E+00 0.  1.
<mgrwt>
<rscale>  2 0.66973195E+02</rscale>
<asrwt>0</asrwt>
<pdfrwt beam="1">  1       21 0.20289178E-01 0.66973195E+02</pdfrwt>
<pdfrwt beam="2">  1       21 0.65192512E-01 0.66973195E+02</pdfrwt>
<totfact> 0.52542489E+04</totfact>
</mgrwt>
</event>
<event>
 5    1  0.1946229E+000  0.8077106E+02  0.7546771E-02  0.1326877E+00
         21   -1    0    0  503  502  0.00000000000E+00  0.00000000000E+00  0.12219971864E+03  0.12219971864E+03  0.00000000000E+00 0. -1.
         21   -1    0    0  501  503 -0.00000000000E+00 -0.00000000000E+00 -0.18737935361E+03  0.18737935361E+03  0.00000000000E+00 0. -1.
         24    1    1    2    0    0  0.18532583878E+02 -0.18545443036E+01  0.82811578453E+02  0.11692676973E+03  0.80419002446E+02 0. -1.
          1    1    1    2  501    0 -0.35557968246E+02  0.29717853423E+02 -0.15277668758E+03  0.15965035605E+03  0.00000000000E+00 0. -1.
         -2    1    1    2    0  502  0.17025384369E+02 -0.27863309120E+02  0.47854741524E+01  0.33001946471E+02  0.00000000000E+00 0.  1.
<mgrwt>
<rscale>  2 0.80771059E+02</rscale>
<asrwt>0</asrwt>
<pdfrwt beam="1">  1       21 0.18799957E-01 0.80771059E+02</pdfrwt>
<pdfrwt beam="2">  1       21 0.28827593E-01 0.80771059E+02</pdfrwt>
<totfact> 0.30471844E+05</totfact>
</mgrwt>
</event>
<event>
 5    1  0.1946229E+000  0.6608446E+02  0.7546771E-02  0.1373938E+00
         21   -1    0    0  503  502  0.00000000000E+00  0.00000000000E+00  0.20161147470E+03  0.20161147470E+03  0.00000000000E+00 0.  1.
         21   -1    0    0  501  503 -0.00000000000E+00 -0.00000000000E+00 -0.96847430102E+02  0.96847430102E+02  0.00000000000E+00 0. -1.
         24    1    1    2    0    0 -0.25710631365E+02 -0.43330462119E+00 -0.45755884506E+02  0.96031459634E+02  0.80419002446E+02 0. -1.
          1    1    1    2  501    0  0.14024243531E+02  0.20309824184E+02 -0.19124258542E+02  0.31223478823E+02  0.00000000000E+00 0. -1.
         -2    1    1    2    0  502  0.11686387834E+02 -0.19876519563E+02  0.16964418765E+03  0.17120396635E+03  0.00000000000E+00 0.  1.
<mgrwt>
<rscale>  2 0.66084457E+02</rscale>
<asrwt>0</asrwt>
<pdfrwt beam="1">  1       21 0.31017150E-01 0.66084457E+02</pdfrwt>
<pdfrwt beam="2">  1       21 0.14899605E-01 0.66084457E+02</pdfrwt>
<totfact> 0.40254090E+05</totfact>
</mgrwt>
</event>
<event>
 5    1  0.1946229E+000  0.1498615E+03  0.7546771E-02  0.1200643E+00
         21   -1    0    0  503  502  0.00000000000E+00  0.00000000000E+00  0.24716299334E+03  0.24716299334E+03  0.00000000000E+00 0.  1.
         21   -1    0    0  501  503 -0.00000000000E+00 -0.00000000000E+00 -0.10591700289E+03  0.10591700289E+03  0.00000000000E+00 0.  1.
         24    1    1    2    0    0  0.11298325926E+03 -0.55345919144E+02  0.23121745970E+02  0.15109671979E+03  0.80419002446E+02 0.  1.
          1    1    1    2  501    0 -0.20601487438E+02 -0.21839661283E+02 -0.42498550999E+01  0.30322489310E+02  0.00000000000E+00 0. -1.
         -2    1    1    2    0  502 -0.92381771826E+02  0.77185580427E+02  0.12237409957E+03  0.17166078713E+03  0.00000000000E+00 0.  1.
<mgrwt>
<rscale>  2 0.14986153E+03</rscale>
<asrwt>0</asrwt>
<pdfrwt beam="1">  1       21 0.38025076E-01 0.14986153E+03</pdfrwt>
<pdfrwt beam="2">  1       21 0.16294924E-01 0.14986153E+03</pdfrwt>
<totfact> 0.22746461E+05</totfact>
</mgrwt>
</event>
<event>
 5    1  0.1946229E+000  0.7648064E+02  0.7546771E-02  0.1339346E+00
         21   -1    0    0  501  502  0.00000000000E+00  0.00000000000E+00  0.55465818228E+02  0.55465818228E+02  0.00000000000E+00 0. -1.
         21   -1    0    0  502  503 -0.00000000000E+00 -0.00000000000E+00 -0.44410050555E+03  0.44410050555E+03  0.00000000000E+00 0. -1.
         24    1    1    2    0    0 -0.38532497112E+02 -0.25322280995E+02 -0.36599408899E+03  0.37755113611E+03  0.80419002446E+02 0. -1.
          1    1    1    2  501    0  0.16708146671E+01  0.23283970342E+02  0.41726408322E+02  0.47812425666E+02  0.00000000000E+00 0. -1.
         -2    1    1    2    0  503  0.36861682445E+02  0.20383106530E+01 -0.64367006659E+02  0.74202762006E+02  0.00000000000E+00 0.  1.
<mgrwt>
<rscale>  2 0.76480641E+02</rscale>
<asrwt>0</asrwt>
<pdfrwt beam="1">  1       21 0.85332029E-02 0.76480641E+02</pdfrwt>
<pdfrwt beam="2">  1       21 0.68323154E-01 0.76480641E+02</pdfrwt>
<totfact> 0.21668440E+05</totfact>
</mgrwt>
</event>
<event>
 5    1  0.1946229E+000  0.1041825E+03  0.7546771E-02  0.1271739E+00
         21   -1    0    0  503  502  0.00000000000E+00  0.00000000000E+00  0.35232686989E+02  0.35232686989E+02  0.00000000000E+00 0. -1.
         21   -1    0    0  501  503 -0.00000000000E+00 -0.00000000000E+00 -0.36224337605E+03  0.36224337605E+03  0.00000000000E+00 0. -1.
         24    1    1    2    0    0 -0.84336435016E+02 -0.23415322745E+02 -0.22150437381E+03  0.25138081706E+03  0.80419002446E+02 0. -1.
          1    1    1    2  501    0  0.60795880963E+02  0.25380001605E+02 -0.10309876947E+03  0.12235047973E+03  0.00000000000E+00 0. -1.
         -2    1    1    2    0  502  0.23540554053E+02 -0.19646788604E+01 -0.24075457851E+01  0.23744766262E+02  0.00000000000E+00 0.  1.
<mgrwt>
<rscale>  2 0.10418251E+03</rscale>
<asrwt>0</asrwt>
<pdfrwt beam="1">  1       21 0.54204133E-02 0.10418251E+03</pdfrwt>
<pdfrwt beam="2">  1       21 0.55729751E-01 0.10418251E+03</pdfrwt>
<totfact> 0.71543861E+05</totfact>
</mgrwt>
</event>
<event>
 5    1  0.1946229E+000  0.1291201E+03  0.7546771E-02  0.1228767E+00
         21   -1    0    0  503  502  0.00000000000E+00  0.00000000000E+00  0.51822253046E+02  0.51822253046E+02  0.00000000000E+00 0.  1.
         21   -1    0    0  501  503 -0.00000000000E+00 -0.00000000000E+00 -0.47015896744E+03  0.47015896744E+03  0.00000000000E+00 0.  1.
         24    1    1    2    0    0 -0.72751830213E+02  0.87547174278E+02 -0.18373996771E+03  0.23061857734E+03  0.80419002446E+02 0.  1.
          1    1    1    2  501    0  0.25563541915E+02 -0.57497942738E+02 -0.22620393807E+03  0.23479295069E+03  0.00000000000E+00 0. -1.
         -2    1    1    2    0  502  0.47188288298E+02 -0.30049231540E+02 -0.83928086098E+01  0.56569692460E+02  0.00000000000E+00 0.  1.
<mgrwt>
<rscale>  2 0.12912013E+03</rscale>
<asrwt>0</asrwt>
<pdfrwt beam="1">  1       21 0.79726544E-02 0.12912013E+03</pdfrwt>
<pdfrwt beam="2">  1       21 0.72332148E-01 0.12912013E+03</pdfrwt>
<totfact> 0.21184369E+05</totfact>
</mgrwt>
</event>
<event>
 5    1  0.2526471E+000  0.1417483E+03  0.7546771E-02  0.1210996E+00
         21   -1    0    0  501  502  0.00000000000E+00  0.00000000000E+00  0.41190164219E+03  0.41190164219E+03  0.00000000000E+00 0. -1.
         21   -1    0    0  502  503 -0.00000000000E+00 -0.00000000000E+00 -0.92735496898E+02  0.92735496898E+02  0.00000000000E+00 0.  1.
         24    1    1    2    0    0 -0.32512896128E+02  0.92356483211E+01  0.55586356953E+02  0.10343811990E+03  0.80419002446E+02 0.  1.
          1    1    1    2  501    0 -0.46156150602E+02  0.70491431809E+02  0.27593640478E+03  0.28851400603E+03  0.00000000000E+00 0. -1.
         -2    1    1    2    0  503  0.78669046730E+02 -0.79727080131E+02 -0.12356616439E+02  0.11268501315E+03  0.00000000000E+00 0.  1.
<mgrwt>
<rscale>  2 0.14174832E+03</rscale>
<asrwt>0</asrwt>
<pdfrwt beam="1">  1       21 0.63369483E-01 0.14174832E+03</pdfrwt>
<pdfrwt beam="2">  1       21 0.14267000E-01 0.14174832E+03</pdfrwt>
<totfact> 0.10094624E+05</totfact>
</mgrwt>
</event>
<event>
 5    1  0.1946229E+000  0.8101085E+02  0.7546771E-02  0.1326207E+00
         21   -1    0    0  503  502  0.00000000000E+00  0.00000000000E+00  0.80430155942E+01  0.80430155942E+01  0.00000000000E+00 0.  1.
         21   -1    0    0  501  503 -0.00000000000E+00 -0.00000000000E+00 -0.81691678319E+03  0.81691678319E+03  0.00000000000E+00 0. -1.
         24    1    1    2    0    0  0.10298969551E+02 -0.93864821320E+01 -0.40515257588E+03  0.41329166520E+03  0.80419002446E+02 0.  1.
          1    1    1    2  501    0 -0.45076503142E+02  0.51514108773E+01 -0.21792986476E+03  0.22260245758E+03  0.00000000000E+00 0. -1.
         -2    1    1    2    0  502  0.34777533591E+02  0.42350712547E+01 -0.18579132695E+03  0.18906567600E+03  0.00000000000E+00 0.  1.
<mgrwt>
<rscale>  2 0.81010849E+02</rscale>
<asrwt>0</asrwt>
<pdfrwt beam="1">  1       21 0.12373873E-02 0.81010849E+02</pdfrwt>
<pdfrwt beam="2">  1       21 0.12567947E+00 0.81010849E+02</pdfrwt>
<totfact> 0.12632421E+06</totfact>
</mgrwt>
</event>
<event>
 5    1  0.1946229E+000  0.7441550E+02  0.7546771E-02  0.1345691E+00
         21   -1    0    0  503  502  0.00000000000E+00  0.00000000000E+00  0.19007254253E+03  0.19007254253E+03  0.00000000000E+00 0. -1.
         21   -1    0    0  501  503 -0.00000000000E+00 -0.00000000000E+00 -0.69625680871E+02  0.69625680871E+02  0.00000000000E+00 0. -1.
         24    1    1    2    0    0 -0.45783607695E+02  0.24366426009E+02  0.98626781300E+02  0.13742022920E+03  0.80419002446E+02 0. -1.
          1    1    1    2  501    0  0.27705318013E+02 -0.82191999342E+01 -0.43715087373E+02  0.52403709390E+02  0.00000000000E+00 0. -1.
         -2    1    1    2    0  502  0.18078289683E+02 -0.16147226075E+02  0.65535167736E+02  0.69874284811E+02  0.00000000000E+00 0.  1.
<mgrwt>
<rscale>  2 0.74415496E+02</rscale>
<asrwt>0</asrwt>
<pdfrwt beam="1">  1       21 0.29241929E-01 0.74415496E+02</pdfrwt>
<pdfrwt beam="2">  1       21 0.10711643E-01 0.74415496E+02</pdfrwt>
<totfact> 0.80276997E+05</totfact>
</mgrwt>
</event>
<event>
 5    1  0.1946229E+000  0.9584451E+02  0.7546771E-02  0.1289285E+00
         21   -1    0    0  503  502  0.00000000000E+00  0.00000000000E+00  0.56609323587E+02  0.56609323587E+02  0.00000000000E+00 0.  1.
         21   -1    0    0  501  503 -0.00000000000E+00 -0.00000000000E+00 -0.42307304689E+03  0.42307304689E+03  0.00000000000E+00 0. -1.
         24    1    1    2    0    0  0.84924737343E+01 -0.48023842200E+02 -0.84806096246E+02  0.12664004677E+03  0.80419002446E+02 0. -1.
          1    1    1    2  501    0  0.37551074552E+02  0.12823413488E+02 -0.29155752582E+03  0.29424532961E+03  0.00000000000E+00 0. -1.
         -2    1    1    2    0  502 -0.46043548286E+02  0.35200428712E+02  0.98998987622E+01  0.58796994105E+02  0.00000000000E+00 0.  1.
<mgrwt>
<rscale>  2 0.95844508E+02</rscale>
<asrwt>0</asrwt>
<pdfrwt beam="1">  1       21 0.87091265E-02 0.95844508E+02</pdfrwt>
<pdfrwt beam="2">  1       21 0.65088163E-01 0.95844508E+02</pdfrwt>
<totfact> 0.23075210E+05</totfact>
</mgrwt>
</event>
<event>
 5    1  0.1946229E+000  0.1002058E+03  0.7546771E-02  0.1279864E+00
         21   -1    0    0  503  502  0.00000000000E+00  0.00000000000E+00  0.30592531442E+03  0.30592531442E+03  0.00000000000E+00 0.  1.
         21   -1    0    0  501  503 -0.00000000000E+00 -0.00000000000E+00 -0.14225281667E+03  0.14225281667E+03  0.00000000000E+00 0. -1.
         24    1    1    2    0    0  0.55515851639E+02  0.19504119109E+01 -0.40338287377E+02  0.10573649925E+03  0.80419002446E+02 0.  0.
          1    1    1    2  501    0 -0.35556909598E+02 -0.43734974319E+02 -0.55339060229E+02  0.78990210696E+02  0.00000000000E+00 0. -1.
         -2    1    1    2    0  502 -0.19958942042E+02  0.41784562408E+02  0.25934984535E+03  0.26345142115E+03  0.00000000000E+00 0.  1.
<mgrwt>
<rscale>  2 0.10020577E+03</rscale>
<asrwt>0</asrwt>
<pdfrwt beam="1">  1       21 0.47065433E-01 0.10020577E+03</pdfrwt>
<pdfrwt beam="2">  1       21 0.21885049E-01 0.10020577E+03</pdfrwt>
<totfact> 0.87662412E+04</totfact>
</mgrwt>
</event>
<event>
 5    1  0.1946229E+000  0.6119033E+02  0.7546771E-02  0.1392903E+00
         21   -1    0    0  501  502  0.00000000000E+00  0.00000000000E+00  0.22329902212E+02  0.22329902212E+02  0.00000000000E+00 0. -1.
         21   -1    0    0  502  503 -0.00000000000E+00 -0.00000000000E+00 -0.21086909702E+03  0.21086909702E+03  0.00000000000E+00 0. -1.
         24    1    1    2    0    0 -0.31585669575E+01 -0.97662044385E+01 -0.93144390225E+02  0.12348460908E+03  0.80419002446E+02 0.  1.
          1    1    1    2  501    0  0.20895202745E+02 -0.33507127074E+00 -0.12516213920E+02  0.24359338690E+02  0.00000000000E+00 0. -1.
         -2    1    1    2    0  503 -0.17736635788E+02  0.10101275709E+02 -0.82878590666E+02  0.85355051466E+02  0.00000000000E+00 0.  1.
<mgrwt>
<rscale>  2 0.61190328E+02</rscale>
<asrwt>0</asrwt>
<pdfrwt beam="1">  1       21 0.34353697E-02 0.61190328E+02</pdfrwt>
<pdfrwt beam="2">  1       21 0.32441398E-01 0.61190328E+02</pdfrwt>
<totfact> 0.43607301E+06</totfact>
</mgrwt>
</event>
<event>
 5    1  0.1946229E+000  0.1115748E+03  0.7546771E-02  0.1257681E+00
         21   -1    0    0  501  502  0.00000000000E+00  0.00000000000E+00  0.13331773203E+04  0.13331773203E+04  0.00000000000E+00 0.  1.
         21   -1    0    0  502  503 -0.00000000000E+00 -0.00000000000E+00 -0.22033533334E+02  0.22033533334E+02  0.00000000000E+00 0. -1.
         24    1    1    2    0    0 -0.27744477836E+02 -0.57791243266E+02  0.11281072179E+04  0.11327853702E+04  0.80419002446E+02 0.  1.
          1    1    1    2  501    0  0.18033398056E+02  0.87350419678E+02  0.16179987780E+03  0.18475524274E+03  0.00000000000E+00 0. -1.
         -2    1    1    2    0  503  0.97110797801E+01 -0.29559176412E+02  0.21236691285E+02  0.37670240739E+02  0.00000000000E+00 0.  1.
<mgrwt>
<rscale>  2 0.11157478E+03</rscale>
<asrwt>0</asrwt>
<pdfrwt beam="1">  1       21 0.20510414E+00 0.11157478E+03</pdfrwt>
<pdfrwt beam="2">  1       21 0.33897754E-02 0.11157478E+03</pdfrwt>
<totfact> 0.68238637E+04</totfact>
</mgrwt>
</event>
<event>
 5    1  0.1946229E+000  0.6299457E+02  0.7546771E-02  0.1385678E+00
         21   -1    0    0  501  502  0.00000000000E+00  0.00000000000E+00  0.46991337970E+02  0.46991337970E+02  0.00000000000E+00 0.  1.
         21   -1    0    0  502  503 -0.00000000000E+00 -0.00000000000E+00 -0.89744805349E+02  0.89744805349E+02  0.00000000000E+00 0. -1.
         24    1    1    2    0    0 -0.81613838431E+01 -0.12218040536E+01 -0.40668332737E+02  0.90494365755E+02  0.80419002446E+02 0. -1.
          1    1    1    2  501    0  0.97809457645E+01  0.22120526998E+02  0.37687809845E+01  0.24478323571E+02  0.00000000000E+00 0. -1.
         -2    1    1    2    0  503 -0.16195619214E+01 -0.20898722945E+02 -0.58539156269E+01  0.21763453993E+02  0.00000000000E+00 0.  1.
<mgrwt>
<rscale>  2 0.62994573E+02</rscale>
<asrwt>0</asrwt>
<pdfrwt beam="1">  1       21 0.72294366E-02 0.62994573E+02</pdfrwt>
<pdfrwt beam="2">  1       21 0.13806893E-01 0.62994573E+02</pdfrwt>
<totfact> 0.60895309E+06</totfact>
</mgrwt>
</event>
<event>
 5    1  0.1946229E+000  0.8214843E+02  0.7546771E-02  0.1323063E+00
         21   -1    0    0  501  502  0.00000000000E+00  0.00000000000E+00  0.12293911270E+02  0.12293911270E+02  0.00000000000E+00 0. -1.
         21   -1    0    0  502  503 -0.00000000000E+00 -0.00000000000E+00 -0.10782248604E+04  0.10782248604E+04  0.00000000000E+00 0.  1.
         24    1    1    2    0    0  0.27535705217E+02  0.28345313441E+01 -0.33559878971E+03  0.34620804906E+03  0.80419002446E+02 0.  0.
          1    1    1    2  501    0 -0.39614779601E+00  0.33718259297E+02 -0.39314053064E+02  0.51794523952E+02  0.00000000000E+00 0. -1.
         -2    1    1    2    0  503 -0.27139557421E+02 -0.36552790642E+02 -0.69101810638E+03  0.69251619868E+03  0.00000000000E+00 0.  1.
<mgrwt>
<rscale>  2 0.82148434E+02</rscale>
<asrwt>0</asrwt>
<pdfrwt beam="1">  1       21 0.18913707E-02 0.82148434E+02</pdfrwt>
<pdfrwt beam="2">  1       21 0.16588077E+00 0.82148434E+02</pdfrwt>
<totfact> 0.32133599E+05</totfact>
</mgrwt>
</event>
<event>
 5    1  0.1946229E+000  0.2086926E+03  0.7546771E-02  0.1142606E+00
         21   -1    0    0  501  502  0.00000000000E+00  0.00000000000E+00  0.13853815026E+03  0.13853815026E+03  0.00000000000E+00 0. -1.
         21   -1    0    0  502  503 -0.00000000000E+00 -0.00000000000E+00 -0.34116081580E+03  0.34116081580E+03  0.00000000000E+00 0. -1.
         24    1    1    2    0    0 -0.16006468260E+03 -0.66565384185E+02 -0.13473485045E+03  0.23382118994E+03  0.80419002446E+02 0. -1.
          1    1    1    2  501    0  0.18602307684E+03  0.72510465014E+02 -0.33600066842E+02  0.20246312539E+03  0.00000000000E+00 0. -1.
         -2    1    1    2    0  503 -0.25958394236E+02 -0.59450808285E+01 -0.34287748256E+02  0.43414650728E+02  0.00000000000E+00 0.  1.
<mgrwt>
<rscale>  2 0.20869258E+03</rscale>
<asrwt>0</asrwt>
<pdfrwt beam="1">  1       21 0.21313562E-01 0.20869258E+03</pdfrwt>
<pdfrwt beam="2">  1       21 0.52486279E-01 0.20869258E+03</pdfrwt>
<totfact> 0.70032556E+04</totfact>
</mgrwt>
</event>
<event>
 5    1  0.1946229E+000  0.1005915E+03  0.7546771E-02  0.1279057E+00
         21   -1    0    0  503  502  0.00000000000E+00  0.00000000000E+00  0.29066651803E+02  0.29066651803E+02  0.00000000000E+00 0.  1.
         21   -1    0    0  501  503 -0.00000000000E+00 -0.00000000000E+00 -0.10434177598E+04  0.10434177598E+04  0.00000000000E+00 0. -1.
         24    1    1    2    0    0  0.35599454193E+02 -0.56819999582E+02 -0.61799856870E+03  0.62680561609E+03  0.80419002446E+02 0.  1.
          1    1    1    2  501    0 -0.20975334458E+02 -0.13308642810E+02 -0.36767742239E+03  0.36851563273E+03  0.00000000000E+00 0. -1.
         -2    1    1    2    0  502 -0.14624119735E+02  0.70128642392E+02 -0.28675116911E+02  0.77163162790E+02  0.00000000000E+00 0.  1.
<mgrwt>
<rscale>  2 0.10059150E+03</rscale>
<asrwt>0</asrwt>
<pdfrwt beam="1">  1       21 0.44717923E-02 0.10059150E+03</pdfrwt>
<pdfrwt beam="2">  1       21 0.16052582E+00 0.10059150E+03</pdfrwt>
<totfact> 0.85551143E+04</totfact>
</mgrwt>
</event>
<event>
 5    1  0.1946229E+000  0.8803930E+02  0.7546771E-02  0.1307670E+00
         21   -1    0    0  501  502  0.00000000000E+00  0.00000000000E+00  0.11073178964E+04  0.11073178964E+04  0.00000000000E+00 0. -1.
         21   -1    0    0  502  503 -0.00000000000E+00 -0.00000000000E+00 -0.20139575707E+02  0.20139575707E+02  0.00000000000E+00 0.  1.
         24    1    1    2    0    0  0.26215392258E+02 -0.11217941063E+02  0.27217815583E+03  0.28523894099E+03  0.80419002446E+02 0. -1.
          1    1    1    2  501    0 -0.50034693352E+02  0.31790802995E+02  0.80774754922E+03  0.80991989046E+03  0.00000000000E+00 0. -1.
         -2    1    1    2    0  503  0.23819301094E+02 -0.20572861933E+02  0.72526156095E+01  0.32298640620E+02  0.00000000000E+00 0.  1.
<mgrwt>
<rscale>  2 0.88039296E+02</rscale>
<asrwt>0</asrwt>
<pdfrwt beam="1">  1       21 0.17035655E+00 0.88039296E+02</pdfrwt>
<pdfrwt beam="2">  1       21 0.30983971E-02 0.88039296E+02</pdfrwt>
<totfact> 0.13488012E+05</totfact>
</mgrwt>
</event>
<event>
 5    1  0.1946229E+000  0.1074469E+03  0.7546771E-02  0.1265372E+00
         21   -1    0    0  503  502  0.00000000000E+00  0.00000000000E+00  0.71163950031E+03  0.71163950031E+03  0.00000000000E+00 0.  1.
         21   -1    0    0  501  503 -0.00000000000E+00 -0.00000000000E+00 -0.19130055675E+02  0.19130055675E+02  0.00000000000E+00 0. -1.
         24    1    1    2    0    0 -0.29861907081E+02 -0.26474895202E+02  0.31733689496E+03  0.32979171371E+03  0.80419002446E+02 0.  0.
          1    1    1    2  501    0  0.75113066337E+02  0.27126357715E+02  0.13728453118E+03  0.15882334374E+03  0.00000000000E+00 0. -1.
         -2    1    1    2    0  502 -0.45251159256E+02 -0.65146251309E+00  0.23788801850E+03  0.24215449854E+03  0.00000000000E+00 0.  1.
<mgrwt>
<rscale>  2 0.10744691E+03</rscale>
<asrwt>0</asrwt>
<pdfrwt beam="1">  1       21 0.10948298E+00 0.10744691E+03</pdfrwt>
<pdfrwt beam="2">  1       21 0.29430860E-02 0.10744691E+03</pdfrwt>
<totfact> 0.43930431E+05</totfact>
</mgrwt>
</event>
<event>
 5    1  0.1946229E+000  0.6821834E+02  0.7546771E-02  0.1366259E+00
         21   -1    0    0  501  502  0.00000000000E+00  0.00000000000E+00  0.81522110167E+01  0.81522110167E+01  0.00000000000E+00 0.  1.
         21   -1    0    0  502  503 -0.00000000000E+00 -0.00000000000E+00 -0.73817372165E+03  0.73817372165E+03  0.00000000000E+00 0. -1.
         24    1    1    2    0    0  0.20266029268E+02  0.74620261375E+01 -0.37368007772E+03  0.38284515174E+03  0.80419002446E+02 0.  0.
          1    1    1    2  501    0  0.93003410035E+01 -0.19218352158E+02 -0.38277293903E+02  0.43829129936E+02  0.00000000000E+00 0. -1.
         -2    1    1    2    0  503 -0.29566370272E+02  0.11756326020E+02 -0.31806413902E+03  0.31965165099E+03  0.00000000000E+00 0.  1.
<mgrwt>
<rscale>  2 0.68218342E+02</rscale>
<asrwt>0</asrwt>
<pdfrwt beam="1">  1       21 0.12541862E-02 0.68218342E+02</pdfrwt>
<pdfrwt beam="2">  1       21 0.11356520E+00 0.68218342E+02</pdfrwt>
<totfact> 0.15702778E+06</totfact>
</mgrwt>
</event>
<event>
 5    1  0.1946229E+000  0.6643025E+02  0.7546771E-02  0.1372671E+00
         21   -1    0    0  503  502  0.00000000000E+00  0.00000000000E+00  0.77001316134E+02  0.77001316134E+02  0.00000000000E+00 0. -1.
         21   -1    0    0  501  503 -0.00000000000E+00 -0.00000000000E+00 -0.10423560716E+03  0.10423560716E+03  0.00000000000E+00 0.  1.
         24    1    1    2    0    0  0.22850776490E+02  0.78760004666E+01  0.24739754739E+02  0.87541194808E+02  0.80419002446E+02 0. -1.
          1    1    1    2  501    0 -0.78494379660E+01 -0.24952486868E+02 -0.63160034643E+02  0.68362491568E+02  0.00000000000E+00 0. -1.
         -2    1    1    2    0  502 -0.15001338524E+02  0.17076486401E+02  0.11185988881E+02  0.25333236914E+02  0.00000000000E+00 0.  1.
<mgrwt>
<rscale>  2 0.66430247E+02</rscale>
<asrwt>0</asrwt>
<pdfrwt beam="1">  1       21 0.11846356E-01 0.66430247E+02</pdfrwt>
<pdfrwt beam="2">  1       21 0.16036247E-01 0.66430247E+02</pdfrwt>
<totfact> 0.20184069E+06</totfact>
</mgrwt>
</event>
<event>
 5    1  0.1946229E+000  0.7320513E+02  0.7546771E-02  0.1349521E+00
         21   -1    0    0  503  502  0.00000000000E+00  0.00000000000E+00  0.11131819920E+02  0.11131819920E+02  0.00000000000E+00 0. -1.
         21   -1    0    0  501  503 -0.00000000000E+00 -0.00000000000E+00 -0.50439285535E+03  0.50439285535E+03  0.00000000000E+00 0.  1.
         24    1    1    2    0    0 -0.33089214489E+02 -0.33202587421E+02 -0.30044580513E+03  0.31453490379E+03  0.80419002446E+02 0.  0.
          1    1    1    2  501    0  0.77285109518E+01  0.25763290407E+02 -0.13147302929E+03  0.13419625347E+03  0.00000000000E+00 0. -1.
         -2    1    1    2    0  502  0.25360703537E+02  0.74392970144E+01 -0.61342201007E+02  0.66793518012E+02  0.00000000000E+00 0.  1.
<mgrwt>
<rscale>  2 0.73205131E+02</rscale>
<asrwt>0</asrwt>
<pdfrwt beam="1">  1       21 0.17125878E-02 0.73205131E+02</pdfrwt>
<pdfrwt beam="2">  1       21 0.77598897E-01 0.73205131E+02</pdfrwt>
<totfact> 0.22837204E+06</totfact>
</mgrwt>
</event>
<event>
 5    1  0.1946229E+000  0.1181154E+03  0.7546771E-02  0.1246239E+00
         21   -1    0    0  503  502  0.00000000000E+00  0.00000000000E+00  0.21803358318E+02  0.21803358318E+02  0.00000000000E+00 0.  1.
         21   -1    0    0  501  503 -0.00000000000E+00 -0.00000000000E+00 -0.12883900682E+04  0.12883900682E+04  0.00000000000E+00 0. -1.
         24    1    1    2    0    0 -0.48541470729E+02  0.92562819900E+01 -0.23835545632E+03  0.25636398470E+03  0.80419002446E+02 0.  1.
          1    1    1    2  501    0  0.19705503684E+02 -0.71007030904E+02 -0.93730525553E+03  0.94019755762E+03  0.00000000000E+00 0. -1.
         -2    1    1    2    0  502  0.28835967046E+02  0.61750748914E+02 -0.90925997983E+02  0.11363188415E+03  0.00000000000E+00 0.  1.
<mgrwt>
<rscale>  2 0.11811540E+03</rscale>
<asrwt>0</asrwt>
<pdfrwt beam="1">  1       21 0.33543623E-02 0.11811540E+03</pdfrwt>
<pdfrwt beam="2">  1       21 0.19821389E+00 0.11811540E+03</pdfrwt>
<totfact> 0.76206518E+04</totfact>
</mgrwt>
</event>
<event>
 5    1  0.1946229E+000  0.8553146E+02  0.7546771E-02  0.1314049E+00
         21   -1    0    0  501  502  0.00000000000E+00  0.00000000000E+00  0.10904157297E+04  0.10904157297E+04  0.00000000000E+00 0. -1.
         21   -1    0    0  502  503 -0.00000000000E+00 -0.00000000000E+00 -0.24336457191E+02  0.24336457191E+02  0.00000000000E+00 0. -1.
         24    1    1    2    0    0 -0.33657499769E+02 -0.23245730889E+02  0.73915129734E+02  0.11663555913E+03  0.80419002446E+02 0. -1.
          1    1    1    2  501    0  0.23308657534E+02  0.48355440426E+02  0.90996664233E+03  0.91154859020E+03  0.00000000000E+00 0. -1.
         -2    1    1    2    0  503  0.10348842235E+02 -0.25109709537E+02  0.82197500424E+02  0.86568037546E+02  0.00000000000E+00 0.  1.
<mgrwt>
<rscale>  2 0.85531461E+02</rscale>
<asrwt>0</asrwt>
<pdfrwt beam="1">  1       21 0.16775623E+00 0.85531461E+02</pdfrwt>
<pdfrwt beam="2">  1       21 0.37440712E-02 0.85531461E+02</pdfrwt>
<totfact> 0.10333319E+05</totfact>
</mgrwt>
</event>
<event>
 5    1  0.1946229E+000  0.9700120E+02  0.7546771E-02  0.1286731E+00
         21   -1    0    0  503  502  0.00000000000E+00  0.00000000000E+00  0.41505258859E+02  0.41505258859E+02  0.00000000000E+00 0. -1.
         21   -1    0    0  501  503 -0.00000000000E+00 -0.00000000000E+00 -0.22898189659E+03  0.22898189659E+03  0.00000000000E+00 0.  1.
         24    1    1    2    0    0 -0.13702289112E+02 -0.50711194292E+02 -0.84042914254E+02  0.12763152175E+03  0.80419002446E+02 0.  0.
          1    1    1    2  501    0 -0.34937820821E+02  0.24716391095E+02 -0.53001713016E+02  0.68122924886E+02  0.00000000000E+00 0. -1.
         -2    1    1    2    0  502  0.48640109933E+02  0.25994803198E+02 -0.50432010464E+02  0.74732708816E+02  0.00000000000E+00 0.  1.
<mgrwt>
<rscale>  2 0.97001200E+02</rscale>
<asrwt>0</asrwt>
<pdfrwt beam="1">  1       21 0.63854244E-02 0.97001200E+02</pdfrwt>
<pdfrwt beam="2">  1       21 0.35227985E-01 0.97001200E+02</pdfrwt>
<totfact> 0.13667135E+06</totfact>
</mgrwt>
</event>
<event>
 5    1  0.1946229E+000  0.1003542E+03  0.7546771E-02  0.1279553E+00
         21   -1    0    0  503  502  0.00000000000E+00  0.00000000000E+00  0.23110316226E+02  0.23110316226E+02  0.00000000000E+00 0. -1.
         21   -1    0    0  501  503 -0.00000000000E+00 -0.00000000000E+00 -0.54443517517E+03  0.54443517517E+03  0.00000000000E+00 0. -1.
         24    1    1    2    0    0  0.83941637627E+02 -0.48047171894E+01 -0.20156617947E+03  0.23273466544E+03  0.80419002446E+02 0. -1.
          1    1    1    2  501    0 -0.36491911282E+02  0.55182431981E+01 -0.23315243269E+03  0.23605543304E+03  0.00000000000E+00 0. -1.
         -2    1    1    2    0  502 -0.47449726344E+02 -0.71352600868E+00 -0.86606246782E+02  0.98755392922E+02  0.00000000000E+00 0.  1.
<mgrwt>
<rscale>  2 0.10035417E+03</rscale>
<asrwt>0</asrwt>
<pdfrwt beam="1">  1       21 0.35554335E-02 0.10035417E+03</pdfrwt>
<pdfrwt beam="2">  1       21 0.83759253E-01 0.10035417E+03</pdfrwt>
<totfact> 0.59795048E+05</totfact>
</mgrwt>
</event>
<event>
 5    1  0.1946229E+000  0.6970085E+02  0.7546771E-02  0.1361113E+00
         21   -1    0    0  501  502  0.00000000000E+00  0.00000000000E+00  0.10914833070E+03  0.10914833070E+03  0.00000000000E+00 0. -1.
         21   -1    0    0  502  503 -0.00000000000E+00 -0.00000000000E+00 -0.13076673027E+03  0.13076673027E+03  0.00000000000E+00 0.  1.
         24    1    1    2    0    0  0.64389735317E+01 -0.23159215770E+02  0.36362016422E+02  0.91472519632E+02  0.80419002446E+02 0.  0.
          1    1    1    2  501    0  0.21787932062E+02  0.13509319287E+02  0.39171038103E+02  0.46814377249E+02  0.00000000000E+00 0. -1.
         -2    1    1    2    0  503 -0.28226905593E+02  0.96498964829E+01 -0.97151454103E+02  0.10162816409E+03  0.00000000000E+00 0.  1.
<mgrwt>
<rscale>  2 0.69700852E+02</rscale>
<asrwt>0</asrwt>
<pdfrwt beam="1">  1       21 0.16792051E-01 0.69700852E+02</pdfrwt>
<pdfrwt beam="2">  1       21 0.20117959E-01 0.69700852E+02</pdfrwt>
<totfact> 0.72731931E+05</totfact>
</mgrwt>
</event>
<event>
 5    1  0.1946229E+000  0.1189041E+03  0.7546771E-02  0.1244916E+00
         21   -1    0    0  501  502  0.00000000000E+00  0.00000000000E+00  0.15191642965E+03  0.15191642965E+03  0.00000000000E+00 0.  1.
         21   -1    0    0  502  503 -0.00000000000E+00 -0.00000000000E+00 -0.15229086577E+03  0.15229086577E+03  0.00000000000E+00 0.  1.
         24    1    1    2    0    0 -0.45132981738E+02 -0.92440346002E+02  0.83368581671E+02  0.15491849462E+03  0.80419002446E+02 0.  1.
          1    1    1    2  501    0 -0.38158667142E+00  0.29813223085E+02  0.63674534873E+01  0.30488003264E+02  0.00000000000E+00 0. -1.
         -2    1    1    2    0  503  0.45514568409E+02  0.62627122917E+02 -0.90110471276E+02  0.11880079754E+03  0.00000000000E+00 0.  1.
<mgrwt>
<rscale>  2 0.11890415E+03</rscale>
<asrwt>0</asrwt>
<pdfrwt beam="1">  1       21 0.23371758E-01 0.11890415E+03</pdfrwt>
<pdfrwt beam="2">  1       21 0.23429364E-01 0.11890415E+03</pdfrwt>
<totfact> 0.29951446E+05</totfact>
</mgrwt>
</event>
<event>
 5    1  0.1946229E+000  0.8939853E+02  0.7546771E-02  0.1304315E+00
         21   -1    0    0  503  502  0.00000000000E+00  0.00000000000E+00  0.13676894378E+03  0.13676894378E+03  0.00000000000E+00 0.  1.
         21   -1    0    0  501  503 -0.00000000000E+00 -0.00000000000E+00 -0.12590265613E+03  0.12590265613E+03  0.00000000000E+00 0. -1.
         24    1    1    2    0    0  0.36928744710E+01  0.26672606367E+02 -0.13726143855E+02  0.85910931969E+02  0.80419002446E+02 0.  1.
          1    1    1    2  501    0  0.29236902435E+02 -0.46956100569E+02 -0.61297071086E+02  0.82565142575E+02  0.00000000000E+00 0. -1.
         -2    1    1    2    0  502 -0.32929776906E+02  0.20283494202E+02  0.85889502593E+02  0.94195525370E+02  0.00000000000E+00 0.  1.
<mgrwt>
<rscale>  2 0.89398534E+02</rscale>
<asrwt>0</asrwt>
<pdfrwt beam="1">  1       21 0.21041376E-01 0.89398534E+02</pdfrwt>
<pdfrwt beam="2">  1       21 0.19369639E-01 0.89398534E+02</pdfrwt>
<totfact> 0.51902731E+05</totfact>
</mgrwt>
</event>
<event>
 5    1  0.1946229E+000  0.8772640E+02  0.7546771E-02  0.1308453E+00
         21   -1    0    0  501  502  0.00000000000E+00  0.00000000000E+00  0.32302299588E+03  0.32302299588E+03  0.00000000000E+00 0.  1.
         21   -1    0    0  502  503 -0.00000000000E+00 -0.00000000000E+00 -0.23961041793E+02  0.23961041793E+02  0.00000000000E+00 0. -1.
         24    1    1    2    0    0  0.57399310501E+02  0.35896850208E+01  0.17597124790E+03  0.20184316369E+03  0.80419002446E+02 0.  1.
          1    1    1    2  501    0 -0.30688923060E+02  0.23415743779E+02  0.68659830239E+02  0.78767247913E+02  0.00000000000E+00 0. -1.
         -2    1    1    2    0  503 -0.26710387440E+02 -0.27005428800E+02  0.54430875945E+02  0.66373626073E+02  0.00000000000E+00 0.  1.
<mgrwt>
<rscale>  2 0.87726398E+02</rscale>
<asrwt>0</asrwt>
<pdfrwt beam="1">  1       21 0.49695843E-01 0.87726398E+02</pdfrwt>
<pdfrwt beam="2">  1       21 0.36863143E-02 0.87726398E+02</pdfrwt>
<totfact> 0.17119129E+06</totfact>
</mgrwt>
</event>
<event>
 5    1  0.1946229E+000  0.6941162E+02  0.7546771E-02  0.1362105E+00
         21   -1    0    0  501  502  0.00000000000E+00  0.00000000000E+00  0.12597328709E+03  0.12597328709E+03  0.00000000000E+00 0.  1.
         21   -1    0    0  502  503 -0.00000000000E+00 -0.00000000000E+00 -0.39136628228E+02  0.39136628228E+02  0.00000000000E+00 0. -1.
         24    1    1    2    0    0 -0.17583331394E+02  0.36312947242E+02  0.44114675085E+02  0.10020541000E+03  0.80419002446E+02 0.  0.
          1    1    1    2  501    0  0.18856221295E+02 -0.79568703840E+01  0.17239827078E+02  0.26759680594E+02  0.00000000000E+00 0. -1.
         -2    1    1    2    0  503 -0.12728899007E+01 -0.28356076858E+02  0.25482156702E+02  0.38144824730E+02  0.00000000000E+00 0.  1.
<mgrwt>
<rscale>  2 0.69411623E+02</rscale>
<asrwt>0</asrwt>
<pdfrwt beam="1">  1       21 0.19380505E-01 0.69411623E+02</pdfrwt>
<pdfrwt beam="2">  1       21 0.60210198E-02 0.69411623E+02</pdfrwt>
<totfact> 0.45554323E+06</totfact>
</mgrwt>
</event>
<event>
 5    1  0.1946229E+000  0.8849557E+02  0.7546771E-02  0.1306536E+00
         21   -1    0    0  501  502  0.00000000000E+00  0.00000000000E+00  0.32248027055E+03  0.32248027055E+03  0.00000000000E+00 0. -1.
         21   -1    0    0  502  503 -0.00000000000E+00 -0.00000000000E+00 -0.28997751089E+02  0.28997751089E+02  0.00000000000E+00 0. -1.
         24    1    1    2    0    0 -0.30400211981E+02  0.31187111790E+02  0.10048235548E+03  0.13587026366E+03  0.80419002446E+02 0. -1.
          1    1    1    2  501    0  0.53413181818E+02 -0.10175356437E+02  0.16494873989E+03  0.17367956893E+03  0.00000000000E+00 0. -1.
         -2    1    1    2    0  503 -0.23012969836E+02 -0.21011755354E+02  0.28051424092E+02  0.41928189054E+02  0.00000000000E+00 0.  1.
<mgrwt>
<rscale>  2 0.88495565E+02</rscale>
<asrwt>0</asrwt>
<pdfrwt beam="1">  1       21 0.49612347E-01 0.88495565E+02</pdfrwt>
<pdfrwt beam="2">  1       21 0.44611927E-02 0.88495565E+02</pdfrwt>
<totfact> 0.12550670E+06</totfact>
</mgrwt>
</event>
<event>
 5    1  0.1946229E+000  0.8977788E+02  0.7546771E-02  0.1303390E+00
         21   -1    0    0  501  502  0.00000000000E+00  0.00000000000E+00  0.67514616085E+02  0.67514616085E+02  0.00000000000E+00 0. -1.
         21   -1    0    0  502  503 -0.00000000000E+00 -0.00000000000E+00 -0.15009475704E+03  0.15009475704E+03  0.00000000000E+00 0. -1.
         24    1    1    2    0    0  0.59491718860E+01  0.46560806824E+02 -0.70055904292E+02  0.11652616470E+03  0.80419002446E+02 0. -1.
          1    1    1    2  501    0  0.16961218802E+02 -0.58285968318E+02  0.15887141568E+02  0.62748213625E+02  0.00000000000E+00 0. -1.
         -2    1    1    2    0  503 -0.22910390688E+02  0.11725161494E+02 -0.28411378227E+02  0.38334994800E+02  0.00000000000E+00 0.  1.
<mgrwt>
<rscale>  2 0.89777878E+02</rscale>
<asrwt>0</asrwt>
<pdfrwt beam="1">  1       21 0.10386864E-01 0.89777878E+02</pdfrwt>
<pdfrwt beam="2">  1       21 0.23091501E-01 0.89777878E+02</pdfrwt>
<totfact> 0.13238574E+06</totfact>
</mgrwt>
</event>
<event>
 5    1  0.1946229E+000  0.6670728E+02  0.7546771E-02  0.1371662E+00
         21   -1    0    0  501  502  0.00000000000E+00  0.00000000000E+00  0.54538233207E+03  0.54538233207E+03  0.00000000000E+00 0. -1.
         21   -1    0    0  502  503 -0.00000000000E+00 -0.00000000000E+00 -0.10417040486E+02  0.10417040486E+02  0.00000000000E+00 0. -1.
         24    1    1    2    0    0  0.64115954107E+01  0.14190771617E+01  0.21421980483E+03  0.22891147431E+03  0.80419002446E+02 0. -1.
          1    1    1    2  501    0 -0.46896387018E+01  0.25412260914E+02  0.24782515740E+03  0.24916878688E+03  0.00000000000E+00 0. -1.
         -2    1    1    2    0  503 -0.17219567089E+01 -0.26831338076E+02  0.72920329359E+02  0.77719111366E+02  0.00000000000E+00 0.  1.
<mgrwt>
<rscale>  2 0.66707280E+02</rscale>
<asrwt>0</asrwt>
<pdfrwt beam="1">  1       21 0.83904952E-01 0.66707280E+02</pdfrwt>
<pdfrwt beam="2">  1       21 0.16026220E-02 0.66707280E+02</pdfrwt>
<totfact> 0.21280087E+06</totfact>
</mgrwt>
</event>
<event>
 5    1  0.1946229E+000  0.1290482E+03  0.7546771E-02  0.1228875E+00
         21   -1    0    0  501  502  0.00000000000E+00  0.00000000000E+00  0.11804314077E+03  0.11804314077E+03  0.00000000000E+00 0.  1.
         21   -1    0    0  502  503 -0.00000000000E+00 -0.00000000000E+00 -0.14165556207E+03  0.14165556207E+03  0.00000000000E+00 0.  1.
         24    1    1    2    0    0  0.83396971842E+01 -0.90546758945E+02 -0.12208203175E+02  0.12200214049E+03  0.80419002446E+02 0.  1.
          1    1    1    2  501    0 -0.40486793145E+02 -0.14384414204E+00  0.20600963796E+01  0.40539426579E+02  0.00000000000E+00 0. -1.
         -2    1    1    2    0  503  0.32147095961E+02  0.90690603087E+02 -0.13464314504E+02  0.97157135775E+02  0.00000000000E+00 0.  1.
<mgrwt>
<rscale>  2 0.12904825E+03</rscale>
<asrwt>0</asrwt>
<pdfrwt beam="1">  1       21 0.18160483E-01 0.12904825E+03</pdfrwt>
<pdfrwt beam="2">  1       21 0.21793163E-01 0.12904825E+03</pdfrwt>
<totfact> 0.54653333E+05</totfact>
</mgrwt>
</event>
<event>
 5    1  0.1946229E+000  0.1046491E+03  0.7546771E-02  0.1270813E+00
         21   -1    0    0  503  502  0.00000000000E+00  0.00000000000E+00  0.26163315863E+03  0.26163315863E+03  0.00000000000E+00 0.  1.
         21   -1    0    0  501  503 -0.00000000000E+00 -0.00000000000E+00 -0.67388428222E+02  0.67388428222E+02  0.00000000000E+00 0. -1.
         24    1    1    2    0    0 -0.13656671173E+02 -0.28770111770E+02 -0.13394778218E+02  0.87526339102E+02  0.80419002446E+02 0. -1.
          1    1    1    2  501    0 -0.30413708895E+02  0.61029031876E+02  0.12609149087E+03  0.14334783043E+03  0.00000000000E+00 0. -1.
         -2    1    1    2    0  502  0.44070380068E+02 -0.32258920106E+02  0.81548017758E+02  0.98147417317E+02  0.00000000000E+00 0.  1.
<mgrwt>
<rscale>  2 0.10464909E+03</rscale>
<asrwt>0</asrwt>
<pdfrwt beam="1">  1       21 0.40251255E-01 0.10464909E+03</pdfrwt>
<pdfrwt beam="2">  1       21 0.10367451E-01 0.10464909E+03</pdfrwt>
<totfact> 0.45799966E+05</totfact>
</mgrwt>
</event>
<event>
 5    1  0.1946229E+000  0.7006037E+02  0.7546771E-02  0.1359888E+00
         21   -1    0    0  501  502  0.00000000000E+00  0.00000000000E+00  0.22887932555E+02  0.22887932555E+02  0.00000000000E+00 0. -1.
         21   -1    0    0  502  503 -0.00000000000E+00 -0.00000000000E+00 -0.51521678979E+03  0.51521678979E+03  0.00000000000E+00 0.  1.
         24    1    1    2    0    0 -0.32794608418E+02 -0.21784729449E+02 -0.31137997364E+03  0.32399809370E+03  0.80419002446E+02 0.  1.
          1    1    1    2  501    0  0.21316287602E+02 -0.46010370871E+01  0.78127355497E+01  0.23164466240E+02  0.00000000000E+00 0. -1.
         -2    1    1    2    0  503  0.11478320816E+02  0.26385766536E+02 -0.18876161914E+03  0.19094216241E+03  0.00000000000E+00 0.  1.
<mgrwt>
<rscale>  2 0.70060371E+02</rscale>
<asrwt>0</asrwt>
<pdfrwt beam="1">  1       21 0.35212209E-02 0.70060371E+02</pdfrwt>
<pdfrwt beam="2">  1       21 0.79264110E-01 0.70060371E+02</pdfrwt>
<totfact> 0.68575584E+05</totfact>
</mgrwt>
</event>
<event>
 5    1  0.1946229E+000  0.7355618E+02  0.7546771E-02  0.1348401E+00
         21   -1    0    0  503  502  0.00000000000E+00  0.00000000000E+00  0.20164577790E+03  0.20164577790E+03  0.00000000000E+00 0.  1.
         21   -1    0    0  501  503 -0.00000000000E+00 -0.00000000000E+00 -0.69943371454E+02  0.69943371454E+02  0.00000000000E+00 0. -1.
         24    1    1    2    0    0 -0.84325052163E+01  0.20741210991E+02  0.17545936824E+03  0.19430520022E+03  0.80419002446E+02 0.  1.
          1    1    1    2  501    0 -0.13053417645E+02 -0.35329782917E+02 -0.27655281398E+02  0.46726864461E+02  0.00000000000E+00 0. -1.
         -2    1    1    2    0  502  0.21485922861E+02  0.14588571926E+02 -0.16101680393E+02  0.30557084670E+02  0.00000000000E+00 0.  1.
<mgrwt>
<rscale>  2 0.73556182E+02</rscale>
<asrwt>0</asrwt>
<pdfrwt beam="1">  1       21 0.31022427E-01 0.73556182E+02</pdfrwt>
<pdfrwt beam="2">  1       21 0.10760519E-01 0.73556182E+02</pdfrwt>
<totfact> 0.71173045E+05</totfact>
</mgrwt>
</event>
<event>
 5    1  0.1946229E+000  0.9704560E+02  0.7546771E-02  0.1286634E+00
         21   -1    0    0  503  502  0.00000000000E+00  0.00000000000E+00  0.15115565390E+03  0.15115565390E+03  0.00000000000E+00 0.  1.
         21   -1    0    0  501  503 -0.00000000000E+00 -0.00000000000E+00 -0.66882083151E+02  0.66882083151E+02  0.00000000000E+00 0. -1.
         24    1    1    2    0    0 -0.42802769623E+01 -0.62564511399E+02  0.15744730904E+02  0.10318794195E+03  0.80419002446E+02 0. -1.
          1    1    1    2  501    0 -0.31332837981E+02  0.22926454466E+02  0.26970437944E+02  0.47273391810E+02  0.00000000000E+00 0. -1.
         -2    1    1    2    0  502  0.35613114944E+02  0.39638056933E+02  0.41558401896E+02  0.67576403290E+02  0.00000000000E+00 0.  1.
<mgrwt>
<rscale>  2 0.97045601E+02</rscale>
<asrwt>0</asrwt>
<pdfrwt beam="1">  1       21 0.23254716E-01 0.97045601E+02</pdfrwt>
<pdfrwt beam="2">  1       21 0.10289551E-01 0.97045601E+02</pdfrwt>
<totfact> 0.13307700E+06</totfact>
</mgrwt>
</event>
<event>
 5    1  0.1946229E+000  0.8797830E+02  0.7546771E-02  0.1307823E+00
         21   -1    0    0  501  502  0.00000000000E+00  0.00000000000E+00  0.29442646326E+04  0.29442646326E+04  0.00000000000E+00 0. -1.
         21   -1    0    0  502  503 -0.00000000000E+00 -0.00000000000E+00 -0.35371346106E+01  0.35371346106E+01  0.00000000000E+00 0. -1.
         24    1    1    2    0    0  0.47982229930E+02 -0.34166210100E+02  0.14537803014E+04  0.14571938803E+04  0.80419002446E+02 0.  0.
          1    1    1    2  501    0 -0.33005326728E+02 -0.58734436619E+01  0.12024143451E+04  0.12028815845E+04  0.00000000000E+00 0. -1.
         -2    1    1    2    0  503 -0.14976903202E+02  0.40039653762E+02  0.28453285148E+03  0.28772630236E+03  0.00000000000E+00 0.  1.
<mgrwt>
<rscale>  2 0.87978305E+02</rscale>
<asrwt>0</asrwt>
<pdfrwt beam="1">  1       21 0.45296183E+00 0.87978305E+02</pdfrwt>
<pdfrwt beam="2">  1       21 0.54417691E-03 0.87978305E+02</pdfrwt>
<totfact> 0.46484249E+04</totfact>
</mgrwt>
</event>
<event>
 5    1  0.1946229E+000  0.8748855E+02  0.7546771E-02  0.1309050E+00
         21   -1    0    0  501  502  0.00000000000E+00  0.00000000000E+00  0.12072287059E+04  0.12072287059E+04  0.00000000000E+00 0. -1.
         21   -1    0    0  502  503 -0.00000000000E+00 -0.00000000000E+00 -0.69439157549E+01  0.69439157549E+01  0.00000000000E+00 0. -1.
         24    1    1    2    0    0 -0.61544324189E+02 -0.26707195852E+02  0.80221052088E+03  0.80901786996E+03  0.80419002446E+02 0. -1.
          1    1    1    2  501    0  0.41715768226E+02  0.70133134445E+01  0.30666615990E+03  0.30956990408E+03  0.00000000000E+00 0. -1.
         -2    1    1    2    0  503  0.19828555963E+02  0.19693882407E+02  0.91408109365E+02  0.95584847615E+02  0.00000000000E+00 0.  1.
<mgrwt>
<rscale>  2 0.87488549E+02</rscale>
<asrwt>0</asrwt>
<pdfrwt beam="1">  1       21 0.18572733E+00 0.87488549E+02</pdfrwt>
<pdfrwt beam="2">  1       21 0.10682957E-02 0.87488549E+02</pdfrwt>
<totfact> 0.58333701E+05</totfact>
</mgrwt>
</event>
<event>
 5    1  0.1946229E+000  0.6633851E+02  0.7546771E-02  0.1373006E+00
         21   -1    0    0  501  502  0.00000000000E+00  0.00000000000E+00  0.18546502854E+04  0.18546502854E+04  0.00000000000E+00 0. -1.
         21   -1    0    0  502  503 -0.00000000000E+00 -0.00000000000E+00 -0.47200476081E+01  0.47200476081E+01  0.00000000000E+00 0. -1.
         24    1    1    2    0    0  0.36334967768E+02 -0.11349095099E+01  0.47029209995E+03  0.47850119450E+03  0.80419002446E+02 0. -1.
          1    1    1    2  501    0 -0.19522050122E+02 -0.12150804545E+02  0.11508446567E+04  0.11510743574E+04  0.00000000000E+00 0. -1.
         -2    1    1    2    0  503 -0.16812917646E+02  0.13285714055E+02  0.22879348113E+03  0.22979478107E+03  0.00000000000E+00 0.  1.
<mgrwt>
<rscale>  2 0.66338505E+02</rscale>
<asrwt>0</asrwt>
<pdfrwt beam="1">  1       21 0.28533023E+00 0.66338505E+02</pdfrwt>
<pdfrwt beam="2">  1       21 0.72616265E-03 0.66338505E+02</pdfrwt>
<totfact> 0.29101095E+05</totfact>
</mgrwt>
</event>
<event>
 5    1  0.1946229E+000  0.7348419E+02  0.7546771E-02  0.1348630E+00
         21   -1    0    0  501  502  0.00000000000E+00  0.00000000000E+00  0.29132639529E+03  0.29132639529E+03  0.00000000000E+00 0.  1.
         21   -1    0    0  502  503 -0.00000000000E+00 -0.00000000000E+00 -0.79171210128E+02  0.79171210128E+02  0.00000000000E+00 0.  1.
         24    1    1    2    0    0 -0.15775343086E+02 -0.44824061658E+02  0.23609867057E+03  0.25390521096E+03  0.80419002446E+02 0.  1.
          1    1    1    2  501    0 -0.12729678005E+01  0.32495046391E+02  0.38677144236E+02  0.50531870866E+02  0.00000000000E+00 0. -1.
         -2    1    1    2    0  503  0.17048310886E+02  0.12329015267E+02 -0.62620629640E+02  0.66060523598E+02  0.00000000000E+00 0.  1.
<mgrwt>
<rscale>  2 0.73484191E+02</rscale>
<asrwt>0</asrwt>
<pdfrwt beam="1">  1       21 0.44819445E-01 0.73484191E+02</pdfrwt>
<pdfrwt beam="2">  1       21 0.12180186E-01 0.73484191E+02</pdfrwt>
<totfact> 0.28006597E+05</totfact>
</mgrwt>
</event>
<event>
 5    1  0.1946229E+000  0.7880050E+02  0.7546771E-02  0.1332490E+00
         21   -1    0    0  503  502  0.00000000000E+00  0.00000000000E+00  0.97357161464E+03  0.97357161464E+03  0.00000000000E+00 0. -1.
         21   -1    0    0  501  503 -0.00000000000E+00 -0.00000000000E+00 -0.46175460911E+02  0.46175460911E+02  0.00000000000E+00 0. -1.
         24    1    1    2    0    0  0.28602174218E+02 -0.82352803113E+01 -0.23591586477E+01  0.85782782630E+02  0.80419002446E+02 0. -1.
          1    1    1    2  501    0 -0.48320337515E+02  0.15639345327E+02  0.33424244532E+03  0.33807906826E+03  0.00000000000E+00 0. -1.
         -2    1    1    2    0  502  0.19718163296E+02 -0.74040650157E+01  0.59551286706E+03  0.59588522466E+03  0.00000000000E+00 0.  1.
<mgrwt>
<rscale>  2 0.78800499E+02</rscale>
<asrwt>0</asrwt>
<pdfrwt beam="1">  1       21 0.14978023E+00 0.78800499E+02</pdfrwt>
<pdfrwt beam="2">  1       21 0.71039178E-02 0.78800499E+02</pdfrwt>
<totfact> 0.48035679E+04</totfact>
</mgrwt>
</event>
<event>
 5    1  0.1946229E+000  0.6944483E+02  0.7546771E-02  0.1361991E+00
         21   -1    0    0  503  502  0.00000000000E+00  0.00000000000E+00  0.19719227158E+03  0.19719227158E+03  0.00000000000E+00 0. -1.
         21   -1    0    0  501  503 -0.00000000000E+00 -0.00000000000E+00 -0.11092701162E+03  0.11092701162E+03  0.00000000000E+00 0. -1.
         24    1    1    2    0    0  0.38675401427E+02 -0.15665474990E+02  0.15692294331E+03  0.18119939258E+03  0.80419002446E+02 0. -1.
          1    1    1    2  501    0 -0.23734004231E+02 -0.34970487114E+01 -0.91693744363E+02  0.94780140651E+02  0.00000000000E+00 0. -1.
         -2    1    1    2    0  502 -0.14941397196E+02  0.19162523701E+02  0.21036061011E+02  0.32139749962E+02  0.00000000000E+00 0.  1.
<mgrwt>
<rscale>  2 0.69444829E+02</rscale>
<asrwt>0</asrwt>
<pdfrwt beam="1">  1       21 0.30337273E-01 0.69444829E+02</pdfrwt>
<pdfrwt beam="2">  1       21 0.17065694E-01 0.69444829E+02</pdfrwt>
<totfact> 0.32973737E+05</totfact>
</mgrwt>
</event>
<event>
 5    1  0.1946229E+000  0.1047195E+03  0.7546771E-02  0.1270673E+00
         21   -1    0    0  503  502  0.00000000000E+00  0.00000000000E+00  0.12389656521E+03  0.12389656521E+03  0.00000000000E+00 0.  1.
         21   -1    0    0  501  503 -0.00000000000E+00 -0.00000000000E+00 -0.49394238448E+03  0.49394238448E+03  0.00000000000E+00 0. -1.
         24    1    1    2    0    0  0.24295848496E+01  0.47950523109E+02 -0.13184473648E+03  0.16172633070E+03  0.80419002446E+02 0.  0.
          1    1    1    2  501    0  0.25078594301E+02  0.26453572538E+02 -0.33158589316E+03  0.33358347071E+03  0.00000000000E+00 0. -1.
         -2    1    1    2    0  502 -0.27508179151E+02 -0.74404095647E+02  0.93384810372E+02  0.12252914828E+03  0.00000000000E+00 0.  1.
<mgrwt>
<rscale>  2 0.10471950E+03</rscale>
<asrwt>0</asrwt>
<pdfrwt beam="1">  1       21 0.19061010E-01 0.10471950E+03</pdfrwt>
<pdfrwt beam="2">  1       21 0.75991136E-01 0.10471950E+03</pdfrwt>
<totfact> 0.41019871E+04</totfact>
</mgrwt>
</event>
<event>
 5    1  0.1946229E+000  0.8557149E+02  0.7546771E-02  0.1313945E+00
         21   -1    0    0  503  502  0.00000000000E+00  0.00000000000E+00  0.35310396945E+02  0.35310396945E+02  0.00000000000E+00 0.  1.
         21   -1    0    0  501  503 -0.00000000000E+00 -0.00000000000E+00 -0.35867964879E+03  0.35867964879E+03  0.00000000000E+00 0.  1.
         24    1    1    2    0    0  0.16074783521E+02  0.12501706922E+02 -0.24066934850E+03  0.25456559587E+03  0.80419002446E+02 0.  1.
          1    1    1    2  501    0  0.33191657818E+02  0.90624207062E+01 -0.78227512457E+02  0.85459682441E+02  0.00000000000E+00 0. -1.
         -2    1    1    2    0  502 -0.49266441339E+02 -0.21564127629E+02 -0.44723908914E+01  0.53964767422E+02  0.00000000000E+00 0.  1.
<mgrwt>
<rscale>  2 0.85571488E+02</rscale>
<asrwt>0</asrwt>
<pdfrwt beam="1">  1       21 0.54323684E-02 0.85571488E+02</pdfrwt>
<pdfrwt beam="2">  1       21 0.55181488E-01 0.85571488E+02</pdfrwt>
<totfact> 0.72680907E+05</totfact>
</mgrwt>
</event>
<event>
 5    1  0.1946229E+000  0.7573383E+02  0.7546771E-02  0.1341614E+00
         21   -1    0    0  503  502  0.00000000000E+00  0.00000000000E+00  0.65871778178E+01  0.65871778178E+01  0.00000000000E+00 0.  1.
         21   -1    0    0  501  503 -0.00000000000E+00 -0.00000000000E+00 -0.90098128572E+03  0.90098128572E+03  0.00000000000E+00 0.  1.
         24    1    1    2    0    0  0.43017975311E+02  0.17351784311E+02 -0.46469372259E+03  0.47387667424E+03  0.80419002446E+02 0.  1.
          1    1    1    2  501    0 -0.58486957819E+01 -0.20509120040E+02 -0.14597962763E+03  0.14752926127E+03  0.00000000000E+00 0. -1.
         -2    1    1    2    0  502 -0.37169279529E+02  0.31573357289E+01 -0.28372075768E+03  0.28616252803E+03  0.00000000000E+00 0.  1.
<mgrwt>
<rscale>  2 0.75733827E+02</rscale>
<asrwt>0</asrwt>
<pdfrwt beam="1">  1       21 0.10134125E-02 0.75733827E+02</pdfrwt>
<pdfrwt beam="2">  1       21 0.13861244E+00 0.75733827E+02</pdfrwt>
<totfact> 0.13571414E+06</totfact>
</mgrwt>
</event>
<event>
 5    1  0.1946229E+000  0.8228913E+02  0.7546771E-02  0.1322678E+00
         21   -1    0    0  503  502  0.00000000000E+00  0.00000000000E+00  0.14827927473E+03  0.14827927473E+03  0.00000000000E+00 0. -1.
         21   -1    0    0  501  503 -0.00000000000E+00 -0.00000000000E+00 -0.63117194907E+02  0.63117194907E+02  0.00000000000E+00 0. -1.
         24    1    1    2    0    0  0.34571365563E+02  0.20116102749E+01 -0.53104938997E+01  0.87719115320E+02  0.80419002446E+02 0. -1.
          1    1    1    2  501    0 -0.33241656818E+02 -0.32507849154E+02  0.28339479208E+02  0.54450841007E+02  0.00000000000E+00 0. -1.
         -2    1    1    2    0  502 -0.13297087450E+01  0.30496238879E+02  0.62133094519E+02  0.69226513314E+02  0.00000000000E+00 0.  1.
<mgrwt>
<rscale>  2 0.82289126E+02</rscale>
<asrwt>0</asrwt>
<pdfrwt beam="1">  1       21 0.22812196E-01 0.82289126E+02</pdfrwt>
<pdfrwt beam="2">  1       21 0.97103377E-02 0.82289126E+02</pdfrwt>
<totfact> 0.15172097E+06</totfact>
</mgrwt>
</event>
<event>
 5    1  0.1946229E+000  0.6799375E+02  0.7546771E-02  0.1367051E+00
         21   -1    0    0  503  502  0.00000000000E+00  0.00000000000E+00  0.51990354406E+02  0.51990354406E+02  0.00000000000E+00 0.  1.
         21   -1    0    0  501  503 -0.00000000000E+00 -0.00000000000E+00 -0.93482541850E+02  0.93482541850E+02  0.00000000000E+00 0.  1.
         24    1    1    2    0    0 -0.16502404739E+02  0.59017751443E+01 -0.21867956066E+02  0.85162102892E+02  0.80419002446E+02 0.  0.
          1    1    1    2  501    0  0.33693551846E+01 -0.27877261422E+02 -0.20384052626E+02  0.34698758771E+02  0.00000000000E+00 0. -1.
         -2    1    1    2    0  502  0.13133049555E+02  0.21975486278E+02  0.75982124812E+00  0.25612034595E+02  0.00000000000E+00 0.  1.
<mgrwt>
<rscale>  2 0.67993750E+02</rscale>
<asrwt>0</asrwt>
<pdfrwt beam="1">  1       21 0.79985161E-02 0.67993750E+02</pdfrwt>
<pdfrwt beam="2">  1       21 0.14381929E-01 0.67993750E+02</pdfrwt>
<totfact> 0.48083740E+06</totfact>
</mgrwt>
</event>
<event>
 5    1  0.1946229E+000  0.9744645E+02  0.7546771E-02  0.1285759E+00
         21   -1    0    0  501  502  0.00000000000E+00  0.00000000000E+00  0.82256634832E+02  0.82256634832E+02  0.00000000000E+00 0. -1.
         21   -1    0    0  502  503 -0.00000000000E+00 -0.00000000000E+00 -0.12343258842E+03  0.12343258842E+03  0.00000000000E+00 0.  1.
         24    1    1    2    0    0 -0.54293208080E+02 -0.29619399067E+02 -0.45817226728E+02  0.11131709421E+03  0.80419002446E+02 0.  1.
          1    1    1    2  501    0  0.26062535416E+02  0.51503626968E+02  0.88815416631E+01  0.58401721940E+02  0.00000000000E+00 0. -1.
         -2    1    1    2    0  503  0.28230672663E+02 -0.21884227902E+02 -0.42402685266E+01  0.35970407102E+02  0.00000000000E+00 0.  1.
<mgrwt>
<rscale>  2 0.97446451E+02</rscale>
<asrwt>0</asrwt>
<pdfrwt beam="1">  1       21 0.12654867E-01 0.97446451E+02</pdfrwt>
<pdfrwt beam="2">  1       21 0.18989629E-01 0.97446451E+02</pdfrwt>
<totfact> 0.13455870E+06</totfact>
</mgrwt>
</event>
<event>
 5    1  0.1946229E+000  0.7957540E+02  0.7546771E-02  0.1330261E+00
         21   -1    0    0  503  502  0.00000000000E+00  0.00000000000E+00  0.47414932598E+02  0.47414932598E+02  0.00000000000E+00 0.  1.
         21   -1    0    0  501  503 -0.00000000000E+00 -0.00000000000E+00 -0.13984463068E+03  0.13984463068E+03  0.00000000000E+00 0.  1.
         24    1    1    2    0    0 -0.18672586622E+02  0.52783961065E+02 -0.44791441791E+02  0.10774182683E+03  0.80419002446E+02 0.  1.
          1    1    1    2  501    0 -0.48642189801E+01 -0.21318409427E+02 -0.69295361708E+01  0.22938039984E+02  0.00000000000E+00 0. -1.
         -2    1    1    2    0  502  0.23536805602E+02 -0.31465551638E+02 -0.40708720116E+02  0.56579696458E+02  0.00000000000E+00 0.  1.
<mgrwt>
<rscale>  2 0.79575399E+02</rscale>
<asrwt>0</asrwt>
<pdfrwt beam="1">  1       21 0.72946051E-02 0.79575399E+02</pdfrwt>
<pdfrwt beam="2">  1       21 0.21514558E-01 0.79575399E+02</pdfrwt>
<totfact> 0.27512315E+06</totfact>
</mgrwt>
</event>
<event>
 5    1  0.1946229E+000  0.9565102E+02  0.7546771E-02  0.1289717E+00
         21   -1    0    0  501  502  0.00000000000E+00  0.00000000000E+00  0.49858047827E+03  0.49858047827E+03  0.00000000000E+00 0.  1.
         21   -1    0    0  502  503 -0.00000000000E+00 -0.00000000000E+00 -0.55588102292E+02  0.55588102292E+02  0.00000000000E+00 0.  1.
         24    1    1    2    0    0 -0.51711534507E+02  0.46971636937E+02  0.42154428044E+03  0.43479560003E+03  0.80419002446E+02 0.  1.
          1    1    1    2  501    0  0.19245476596E+02  0.80736466792E+01  0.46314125795E+02  0.50799314841E+02  0.00000000000E+00 0. -1.
         -2    1    1    2    0  503  0.32466057911E+02 -0.55045283616E+02 -0.24866030264E+02  0.68573665687E+02  0.00000000000E+00 0.  1.
<mgrwt>
<rscale>  2 0.95651019E+02</rscale>
<asrwt>0</asrwt>
<pdfrwt beam="1">  1       21 0.76704686E-01 0.95651019E+02</pdfrwt>
<pdfrwt beam="2">  1       21 0.85520161E-02 0.95651019E+02</pdfrwt>
<totfact> 0.16686814E+05</totfact>
</mgrwt>
</event>
<event>
 5    1  0.1946229E+000  0.1821361E+03  0.7546771E-02  0.1165752E+00
         21   -1    0    0  503  502  0.00000000000E+00  0.00000000000E+00  0.49120304790E+03  0.49120304790E+03  0.00000000000E+00 0. -1.
         21   -1    0    0  501  503 -0.00000000000E+00 -0.00000000000E+00 -0.72545184557E+02  0.72545184557E+02  0.00000000000E+00 0.  1.
         24    1    1    2    0    0 -0.97891722616E+02  0.39531332404E+02  0.20296213503E+03  0.24250022641E+03  0.80419002446E+02 0. -1.
          1    1    1    2  501    0 -0.64769561678E+02 -0.29586407741E+01  0.29244140380E+02  0.71127135621E+02  0.00000000000E+00 0. -1.
         -2    1    1    2    0  502  0.16266128429E+03 -0.36572691630E+02  0.18645158794E+03  0.25012087043E+03  0.00000000000E+00 0.  1.
<mgrwt>
<rscale>  2 0.18213608E+03</rscale>
<asrwt>0</asrwt>
<pdfrwt beam="1">  1       21 0.75569697E-01 0.18213608E+03</pdfrwt>
<pdfrwt beam="2">  1       21 0.11160798E-01 0.18213608E+03</pdfrwt>
<totfact> 0.10482791E+05</totfact>
</mgrwt>
</event>
<event>
 5    1  0.1946229E+000  0.6387143E+02  0.7546771E-02  0.1382268E+00
         21   -1    0    0  501  502  0.00000000000E+00  0.00000000000E+00  0.30526422237E+03  0.30526422237E+03  0.00000000000E+00 0. -1.
         21   -1    0    0  502  503 -0.00000000000E+00 -0.00000000000E+00 -0.15584267321E+02  0.15584267321E+02  0.00000000000E+00 0. -1.
         24    1    1    2    0    0  0.24200034046E+01  0.26317670473E+02  0.15926245627E+03  0.18036136540E+03  0.80419002446E+02 0. -1.
          1    1    1    2  501    0 -0.17854561670E+02 -0.93485852800E+01  0.10197454186E+03  0.10394704713E+03  0.00000000000E+00 0. -1.
         -2    1    1    2    0  503  0.15434558265E+02 -0.16969085193E+02  0.28442956920E+02  0.36540077169E+02  0.00000000000E+00 0.  1.
<mgrwt>
<rscale>  2 0.63871434E+02</rscale>
<asrwt>0</asrwt>
<pdfrwt beam="1">  1       21 0.46963722E-01 0.63871434E+02</pdfrwt>
<pdfrwt beam="2">  1       21 0.23975798E-02 0.63871434E+02</pdfrwt>
<totfact> 0.37881303E+06</totfact>
</mgrwt>
</event>
<event>
 5    1  0.1946229E+000  0.8854568E+02  0.7546771E-02  0.1306412E+00
         21   -1    0    0  503  502  0.00000000000E+00  0.00000000000E+00  0.28610330942E+02  0.28610330942E+02  0.00000000000E+00 0.  1.
         21   -1    0    0  501  503 -0.00000000000E+00 -0.00000000000E+00 -0.40751774546E+03  0.40751774546E+03  0.00000000000E+00 0.  1.
         24    1    1    2    0    0 -0.59392117673E+02  0.13651616140E+02 -0.26432274701E+03  0.28292670571E+03  0.80419002446E+02 0.  1.
          1    1    1    2  501    0  0.19160535434E+02  0.16998219531E+02 -0.95935653493E+02  0.99296098596E+02  0.00000000000E+00 0. -1.
         -2    1    1    2    0  502  0.40231582239E+02 -0.30649835671E+02 -0.18649014022E+02  0.53905272099E+02  0.00000000000E+00 0.  1.
<mgrwt>
<rscale>  2 0.88545676E+02</rscale>
<asrwt>0</asrwt>
<pdfrwt beam="1">  1       21 0.44015895E-02 0.88545676E+02</pdfrwt>
<pdfrwt beam="2">  1       21 0.62695036E-01 0.88545676E+02</pdfrwt>
<totfact> 0.78948131E+05</totfact>
</mgrwt>
</event>
<event>
 5    1  0.1946229E+000  0.1135849E+03  0.7546771E-02  0.1254072E+00
         21   -1    0    0  503  502  0.00000000000E+00  0.00000000000E+00  0.51870862134E+02  0.51870862134E+02  0.00000000000E+00 0. -1.
         21   -1    0    0  501  503 -0.00000000000E+00 -0.00000000000E+00 -0.78758917763E+03  0.78758917763E+03  0.00000000000E+00 0. -1.
         24    1    1    2    0    0  0.25728550571E+02  0.71155213589E+02 -0.15497025772E+03  0.19028404943E+03  0.80419002446E+02 0. -1.
          1    1    1    2  501    0 -0.46857694484E+02 -0.80894523345E+02 -0.60696619252E+03  0.61412338036E+03  0.00000000000E+00 0. -1.
         -2    1    1    2    0  502  0.21129143913E+02  0.97393097561E+01  0.26218134741E+02  0.35052609979E+02  0.00000000000E+00 0.  1.
<mgrwt>
<rscale>  2 0.11358493E+03</rscale>
<asrwt>0</asrwt>
<pdfrwt beam="1">  1       21 0.79801329E-02 0.11358493E+03</pdfrwt>
<pdfrwt beam="2">  1       21 0.12116756E+00 0.11358493E+03</pdfrwt>
<totfact> 0.64824428E+04</totfact>
</mgrwt>
</event>
<event>
 5    1  0.1946229E+000  0.7740452E+02  0.7546771E-02  0.1336583E+00
         21   -1    0    0  503  502  0.00000000000E+00  0.00000000000E+00  0.70168248858E+01  0.70168248858E+01  0.00000000000E+00 0.  1.
         21   -1    0    0  501  503 -0.00000000000E+00 -0.00000000000E+00 -0.17484361945E+04  0.17484361945E+04  0.00000000000E+00 0. -1.
         24    1    1    2    0    0  0.48151989891E+01  0.29325922474E+02 -0.47301868037E+03  0.48072558056E+03  0.80419002446E+02 0. -1.
          1    1    1    2  501    0  0.11926201820E+02 -0.44749423592E+02 -0.12235941820E+04  0.12244702803E+04  0.00000000000E+00 0. -1.
         -2    1    1    2    0  502 -0.16741400809E+02  0.15423501118E+02 -0.44806507210E+02  0.50257158457E+02  0.00000000000E+00 0.  1.
<mgrwt>
<rscale>  2 0.77404520E+02</rscale>
<asrwt>0</asrwt>
<pdfrwt beam="1">  1       21 0.10795114E-02 0.77404520E+02</pdfrwt>
<pdfrwt beam="2">  1       21 0.26899022E+00 0.77404520E+02</pdfrwt>
<totfact> 0.18986246E+05</totfact>
</mgrwt>
</event>
<event>
 5    1  0.1946229E+000  0.1340281E+03  0.7546771E-02  0.1221598E+00
         21   -1    0    0  503  502  0.00000000000E+00  0.00000000000E+00  0.79581386407E+03  0.79581386407E+03  0.00000000000E+00 0. -1.
         21   -1    0    0  501  503 -0.00000000000E+00 -0.00000000000E+00 -0.23345516867E+02  0.23345516867E+02  0.00000000000E+00 0. -1.
         24    1    1    2    0    0  0.14866019122E+02 -0.89183569368E+02  0.41945419193E+03  0.43655897958E+03  0.80419002446E+02 0. -1.
          1    1    1    2  501    0  0.50716477687E+02  0.46470042107E+02  0.14991049564E+03  0.16493872385E+03  0.00000000000E+00 0. -1.
         -2    1    1    2    0  502 -0.65582496809E+02  0.42713527261E+02  0.20310365964E+03  0.21766167751E+03  0.00000000000E+00 0.  1.
<mgrwt>
<rscale>  2 0.13402813E+03</rscale>
<asrwt>0</asrwt>
<pdfrwt beam="1">  1       21 0.12243288E+00 0.13402813E+03</pdfrwt>
<pdfrwt beam="2">  1       21 0.35916186E-02 0.13402813E+03</pdfrwt>
<totfact> 0.24023938E+05</totfact>
</mgrwt>
</event>
<event>
 5    1  0.1946229E+000  0.9148285E+02  0.7546771E-02  0.1299300E+00
         21   -1    0    0  501  502  0.00000000000E+00  0.00000000000E+00  0.17456135662E+03  0.17456135662E+03  0.00000000000E+00 0. -1.
         21   -1    0    0  502  503 -0.00000000000E+00 -0.00000000000E+00 -0.10149898736E+03  0.10149898736E+03  0.00000000000E+00 0.  1.
         24    1    1    2    0    0  0.21363928312E+02  0.32346179247E+02  0.10404618192E+03  0.13709674202E+03  0.80419002446E+02 0. -1.
          1    1    1    2  501    0  0.21726784221E+01 -0.58480419103E+02  0.32093752131E+02  0.66743455678E+02  0.00000000000E+00 0. -1.
         -2    1    1    2    0  503 -0.23536606734E+02  0.26134239856E+02 -0.63077564793E+02  0.72220146286E+02  0.00000000000E+00 0.  1.
<mgrwt>
<rscale>  2 0.91482850E+02</rscale>
<asrwt>0</asrwt>
<pdfrwt beam="1">  1       21 0.26855593E-01 0.91482850E+02</pdfrwt>
<pdfrwt beam="2">  1       21 0.15615229E-01 0.91482850E+02</pdfrwt>
<totfact> 0.48647256E+05</totfact>
</mgrwt>
</event>
<event>
 5    1  0.1946229E+000  0.6904677E+02  0.7546771E-02  0.1363365E+00
         21   -1    0    0  503  502  0.00000000000E+00  0.00000000000E+00  0.38937046174E+02  0.38937046174E+02  0.00000000000E+00 0.  1.
         21   -1    0    0  501  503 -0.00000000000E+00 -0.00000000000E+00 -0.27006023833E+03  0.27006023833E+03  0.00000000000E+00 0.  1.
         24    1    1    2    0    0  0.10383038007E+02 -0.43635823852E+02 -0.18186805990E+03  0.20385068007E+03  0.80419002446E+02 0.  1.
          1    1    1    2  501    0  0.69791841448E-01  0.21826178791E+02 -0.69974726902E+02  0.73299722759E+02  0.00000000000E+00 0. -1.
         -2    1    1    2    0  502 -0.10452829849E+02  0.21809645061E+02  0.20719594647E+02  0.31846881666E+02  0.00000000000E+00 0.  1.
<mgrwt>
<rscale>  2 0.69046766E+02</rscale>
<asrwt>0</asrwt>
<pdfrwt beam="1">  1       21 0.59903147E-02 0.69046766E+02</pdfrwt>
<pdfrwt beam="2">  1       21 0.41547729E-01 0.69046766E+02</pdfrwt>
<totfact> 0.10907653E+06</totfact>
</mgrwt>
</event>
<event>
 5    1  0.2151114E+000  0.9157058E+02  0.7546771E-02  0.1299092E+00
         21   -1    0    0  501  502  0.00000000000E+00  0.00000000000E+00  0.11562622215E+03  0.11562622215E+03  0.00000000000E+00 0.  1.
         21   -1    0    0  502  503 -0.00000000000E+00 -0.00000000000E+00 -0.53437773736E+03  0.53437773736E+03  0.00000000000E+00 0.  1.
         24    1    1    2    0    0  0.32392231184E+02 -0.18810002460E+02  0.12714040120E+02  0.89621066743E+02  0.80419002446E+02 0.  1.
          1    1    1    2  501    0 -0.47280366598E+02  0.44374755380E+02  0.47578926841E+02  0.80425781066E+02  0.00000000000E+00 0. -1.
         -2    1    1    2    0  503  0.14888135413E+02 -0.25564752920E+02 -0.47904448218E+03  0.47995711170E+03  0.00000000000E+00 0.  1.
<mgrwt>
<rscale>  2 0.91570583E+02</rscale>
<asrwt>0</asrwt>
<pdfrwt beam="1">  1       21 0.17788649E-01 0.91570583E+02</pdfrwt>
<pdfrwt beam="2">  1       21 0.82211961E-01 0.91570583E+02</pdfrwt>
<totfact> 0.39497855E+04</totfact>
</mgrwt>
</event>
<event>
 5    1  0.1946229E+000  0.6603005E+02  0.7546771E-02  0.1374138E+00
         21   -1    0    0  501  502  0.00000000000E+00  0.00000000000E+00  0.58783672060E+02  0.58783672060E+02  0.00000000000E+00 0. -1.
         21   -1    0    0  502  503 -0.00000000000E+00 -0.00000000000E+00 -0.15210765387E+03  0.15210765387E+03  0.00000000000E+00 0. -1.
         24    1    1    2    0    0  0.20061436364E+02  0.49490422356E+01 -0.52467230312E+02  0.98219043261E+02  0.80419002446E+02 0. -1.
          1    1    1    2  501    0 -0.21174061248E+02  0.16937018095E+02  0.28855936277E+02  0.39596319401E+02  0.00000000000E+00 0. -1.
         -2    1    1    2    0  503  0.11126248839E+01 -0.21886060331E+02 -0.69712687775E+02  0.73075963270E+02  0.00000000000E+00 0.  1.
<mgrwt>
<rscale>  2 0.66030049E+02</rscale>
<asrwt>0</asrwt>
<pdfrwt beam="1">  1       21 0.90436419E-02 0.66030049E+02</pdfrwt>
<pdfrwt beam="2">  1       21 0.23401177E-01 0.66030049E+02</pdfrwt>
<totfact> 0.16211069E+06</totfact>
</mgrwt>
</event>
<event>
 5    1  0.1946229E+000  0.7368483E+02  0.7546771E-02  0.1347993E+00
         21   -1    0    0  501  502  0.00000000000E+00  0.00000000000E+00  0.42732466912E+02  0.42732466912E+02  0.00000000000E+00 0. -1.
         21   -1    0    0  502  503 -0.00000000000E+00 -0.00000000000E+00 -0.20814914140E+03  0.20814914140E+03  0.00000000000E+00 0. -1.
         24    1    1    2    0    0  0.23411322915E+01 -0.28317111221E+02 -0.25987718101E+02  0.89162307814E+02  0.80419002446E+02 0. -1.
          1    1    1    2  501    0 -0.21750704974E+02 -0.60788478345E+01 -0.71785438590E+01  0.23697616965E+02  0.00000000000E+00 0. -1.
         -2    1    1    2    0  503  0.19409572683E+02  0.34395959055E+02 -0.13225041252E+03  0.13802168353E+03  0.00000000000E+00 0.  1.
<mgrwt>
<rscale>  2 0.73684834E+02</rscale>
<asrwt>0</asrwt>
<pdfrwt beam="1">  1       21 0.65742258E-02 0.73684834E+02</pdfrwt>
<pdfrwt beam="2">  1       21 0.32022944E-01 0.73684834E+02</pdfrwt>
<totfact> 0.15512516E+06</totfact>
</mgrwt>
</event>
<event>
 5    1  0.1946229E+000  0.9937898E+02  0.7546771E-02  0.1281607E+00
         21   -1    0    0  501  502  0.00000000000E+00  0.00000000000E+00  0.25038735067E+03  0.25038735067E+03  0.00000000000E+00 0. -1.
         21   -1    0    0  502  503 -0.00000000000E+00 -0.00000000000E+00 -0.63202441063E+03  0.63202441063E+03  0.00000000000E+00 0.  1.
         24    1    1    2    0    0 -0.71738659154E+02  0.85112847219E+01 -0.22928607427E+03  0.25349200578E+03  0.80419002446E+02 0. -1.
          1    1    1    2  501    0  0.39269573832E+02 -0.31938031682E+02  0.23455150418E+03  0.23995113129E+03  0.00000000000E+00 0. -1.
         -2    1    1    2    0  503  0.32469085322E+02  0.23426746960E+02 -0.38690248987E+03  0.38896862423E+03  0.00000000000E+00 0.  1.
<mgrwt>
<rscale>  2 0.99378975E+02</rscale>
<asrwt>0</asrwt>
<pdfrwt beam="1">  1       21 0.38521131E-01 0.99378975E+02</pdfrwt>
<pdfrwt beam="2">  1       21 0.97234525E-01 0.99378975E+02</pdfrwt>
<totfact> 0.62360850E+03</totfact>
</mgrwt>
</event>
<event>
 5    1  0.1946229E+000  0.6621162E+02  0.7546771E-02  0.1373471E+00
         21   -1    0    0  501  502  0.00000000000E+00  0.00000000000E+00  0.51727055222E+02  0.51727055222E+02  0.00000000000E+00 0. -1.
         21   -1    0    0  502  503 -0.00000000000E+00 -0.00000000000E+00 -0.86914942393E+02  0.86914942393E+02  0.00000000000E+00 0.  1.
         24    1    1    2    0    0 -0.19429696741E+01  0.30757253814E+02 -0.12798468536E+02  0.87067792809E+02  0.80419002446E+02 0.  0.
          1    1    1    2  501    0  0.18217927280E+02 -0.14345683529E+02 -0.13348511363E+02  0.26755826765E+02  0.00000000000E+00 0. -1.
         -2    1    1    2    0  503 -0.16274957606E+02 -0.16411570285E+02 -0.90409072717E+01  0.24818378041E+02  0.00000000000E+00 0.  1.
<mgrwt>
<rscale>  2 0.66211624E+02</rscale>
<asrwt>0</asrwt>
<pdfrwt beam="1">  1       21 0.79580086E-02 0.66211624E+02</pdfrwt>
<pdfrwt beam="2">  1       21 0.13371529E-01 0.66211624E+02</pdfrwt>
<totfact> 0.55012794E+06</totfact>
</mgrwt>
</event>
<event>
 5    1  0.1946229E+000  0.9916032E+02  0.7546771E-02  0.1282072E+00
         21   -1    0    0  501  502  0.00000000000E+00  0.00000000000E+00  0.88258410917E+02  0.88258410917E+02  0.00000000000E+00 0. -1.
         21   -1    0    0  502  503 -0.00000000000E+00 -0.00000000000E+00 -0.16057905505E+03  0.16057905505E+03  0.00000000000E+00 0.  1.
         24    1    1    2    0    0 -0.78664005430E+00 -0.26585549960E+01 -0.65660133102E+01  0.80734225719E+02  0.80419002446E+02 0.  0.
          1    1    1    2  501    0 -0.54426029080E+02 -0.20258402644E+02  0.21847630852E+02  0.62047679191E+02  0.00000000000E+00 0. -1.
         -2    1    1    2    0  503  0.55212669135E+02  0.22916957640E+02 -0.87602261672E+02  0.10605556105E+03  0.00000000000E+00 0.  1.
<mgrwt>
<rscale>  2 0.99160321E+02</rscale>
<asrwt>0</asrwt>
<pdfrwt beam="1">  1       21 0.13578217E-01 0.99160321E+02</pdfrwt>
<pdfrwt beam="2">  1       21 0.24704470E-01 0.99160321E+02</pdfrwt>
<totfact> 0.73040188E+05</totfact>
</mgrwt>
</event>
<event>
 5    1  0.1946229E+000  0.7981050E+02  0.7546771E-02  0.1329590E+00
         21   -1    0    0  503  502  0.00000000000E+00  0.00000000000E+00  0.13638132276E+03  0.13638132276E+03  0.00000000000E+00 0.  1.
         21   -1    0    0  501  503 -0.00000000000E+00 -0.00000000000E+00 -0.30319774383E+03  0.30319774383E+03  0.00000000000E+00 0.  1.
         24    1    1    2    0    0  0.37760955789E+02 -0.70516932697E+01 -0.21642830205E+03  0.23405991122E+03  0.80419002446E+02 0.  1.
          1    1    1    2  501    0 -0.16135719633E+02 -0.26237344478E+02 -0.71615107187E+02  0.77958214902E+02  0.00000000000E+00 0. -1.
         -2    1    1    2    0  502 -0.21625236155E+02  0.33289037747E+02  0.12122698816E+03  0.12756094046E+03  0.00000000000E+00 0.  1.
<mgrwt>
<rscale>  2 0.79810498E+02</rscale>
<asrwt>0</asrwt>
<pdfrwt beam="1">  1       21 0.20981742E-01 0.79810498E+02</pdfrwt>
<pdfrwt beam="2">  1       21 0.46645807E-01 0.79810498E+02</pdfrwt>
<totfact> 0.97569207E+04</totfact>
</mgrwt>
</event>
<event>
 5    1  0.2180550E+000  0.8393870E+02  0.7546771E-02  0.1318231E+00
         21   -1    0    0  503  502  0.00000000000E+00  0.00000000000E+00  0.24846091041E+03  0.24846091041E+03  0.00000000000E+00 0. -1.
         21   -1    0    0  501  503 -0.00000000000E+00 -0.00000000000E+00 -0.12048717415E+03  0.12048717415E+03  0.00000000000E+00 0. -1.
         24    1    1    2    0    0  0.44847122248E+02  0.71666980271E+01  0.20882246073E+03  0.22833453964E+03  0.80419002446E+02 0. -1.
          1    1    1    2  501    0 -0.30251252677E+02 -0.33669918324E+02 -0.96470930064E+02  0.10656191644E+03  0.00000000000E+00 0. -1.
         -2    1    1    2    0  502 -0.14595869572E+02  0.26503220297E+02  0.15622205599E+02  0.34051628484E+02  0.00000000000E+00 0.  1.
<mgrwt>
<rscale>  2 0.83938702E+02</rscale>
<asrwt>0</asrwt>
<pdfrwt beam="1">  1       21 0.38224755E-01 0.83938702E+02</pdfrwt>
<pdfrwt beam="2">  1       21 0.18536488E-01 0.83938702E+02</pdfrwt>
<totfact> 0.18133959E+05</totfact>
</mgrwt>
</event>
<event>
 5    1  0.1946229E+000  0.7141478E+02  0.7546771E-02  0.1355347E+00
         21   -1    0    0  501  502  0.00000000000E+00  0.00000000000E+00  0.10383547543E+03  0.10383547543E+03  0.00000000000E+00 0. -1.
         21   -1    0    0  502  503 -0.00000000000E+00 -0.00000000000E+00 -0.59348650184E+02  0.59348650184E+02  0.00000000000E+00 0.  1.
         24    1    1    2    0    0 -0.16815133870E+02 -0.17506515980E+01  0.59227118388E+01  0.82389974985E+02  0.80419002446E+02 0.  1.
          1    1    1    2  501    0  0.38623761697E+02  0.34528427338E+01  0.43597328914E+02  0.58347615024E+02  0.00000000000E+00 0. -1.
         -2    1    1    2    0  503 -0.21808627827E+02 -0.17021911358E+01 -0.50332155064E+01  0.22446535606E+02  0.00000000000E+00 0.  1.
<mgrwt>
<rscale>  2 0.71414783E+02</rscale>
<asrwt>0</asrwt>
<pdfrwt beam="1">  1       21 0.15974688E-01 0.71414783E+02</pdfrwt>
<pdfrwt beam="2">  1       21 0.91305616E-02 0.71414783E+02</pdfrwt>
<totfact> 0.31970965E+06</totfact>
</mgrwt>
</event>
<event>
 5    1  0.1946229E+000  0.9936377E+02  0.7546771E-02  0.1281640E+00
         21   -1    0    0  503  502  0.00000000000E+00  0.00000000000E+00  0.25744340980E+03  0.25744340980E+03  0.00000000000E+00 0.  1.
         21   -1    0    0  501  503 -0.00000000000E+00 -0.00000000000E+00 -0.66114475098E+02  0.66114475098E+02  0.00000000000E+00 0. -1.
         24    1    1    2    0    0  0.29407336251E+02 -0.72599558804E+02  0.58995415735E+02  0.12681940859E+03  0.80419002446E+02 0. -1.
          1    1    1    2  501    0 -0.67886818822E+01  0.60374118331E+02 -0.11857878928E+01  0.60766162121E+02  0.00000000000E+00 0. -1.
         -2    1    1    2    0  502 -0.22618654369E+02  0.12225440474E+02  0.13351930686E+03  0.13597231418E+03  0.00000000000E+00 0.  1.
<mgrwt>
<rscale>  2 0.99363768E+02</rscale>
<asrwt>0</asrwt>
<pdfrwt beam="1">  1       21 0.39606678E-01 0.99363768E+02</pdfrwt>
<pdfrwt beam="2">  1       21 0.10171458E-01 0.99363768E+02</pdfrwt>
<totfact> 0.48905363E+05</totfact>
</mgrwt>
</event>
<event>
 5    1  0.1946229E+000  0.6550538E+02  0.7546771E-02  0.1376080E+00
         21   -1    0    0  503  502  0.00000000000E+00  0.00000000000E+00  0.54063846646E+03  0.54063846646E+03  0.00000000000E+00 0.  1.
         21   -1    0    0  501  503 -0.00000000000E+00 -0.00000000000E+00 -0.82451845489E+01  0.82451845489E+01  0.00000000000E+00 0. -1.
         24    1    1    2    0    0 -0.20322751231E+02 -0.89416671402E+01  0.29319521236E+03  0.30483375163E+03  0.80419002446E+02 0. -1.
          1    1    1    2  501    0  0.70266418793E+01  0.25440750389E+02  0.10975087992E+03  0.11287985259E+03  0.00000000000E+00 0. -1.
         -2    1    1    2    0  502  0.13296109352E+02 -0.16499083249E+02  0.12944718964E+03  0.13117004680E+03  0.00000000000E+00 0.  1.
<mgrwt>
<rscale>  2 0.65505384E+02</rscale>
<asrwt>0</asrwt>
<pdfrwt beam="1">  1       21 0.83175121E-01 0.65505384E+02</pdfrwt>
<pdfrwt beam="2">  1       21 0.12684904E-02 0.65505384E+02</pdfrwt>
<totfact> 0.31275785E+06</totfact>
</mgrwt>
</event>
<event>
 5    1  0.1946229E+000  0.1139739E+03  0.7546771E-02  0.1253383E+00
         21   -1    0    0  503  502  0.00000000000E+00  0.00000000000E+00  0.81736730786E+02  0.81736730786E+02  0.00000000000E+00 0.  1.
         21   -1    0    0  501  503 -0.00000000000E+00 -0.00000000000E+00 -0.21131536145E+03  0.21131536145E+03  0.00000000000E+00 0. -1.
         24    1    1    2    0    0 -0.31292321694E+02 -0.43807898636E+02 -0.51571344762E+02  0.10965929479E+03  0.80419002446E+02 0. -1.
          1    1    1    2  501    0  0.22698744528E+02  0.85572771670E+02 -0.10151943056E+03  0.13470013747E+03  0.00000000000E+00 0. -1.
         -2    1    1    2    0  502  0.85935771660E+01 -0.41764873035E+02  0.23512144659E+02  0.48692659966E+02  0.00000000000E+00 0.  1.
<mgrwt>
<rscale>  2 0.11397386E+03</rscale>
<asrwt>0</asrwt>
<pdfrwt beam="1">  1       21 0.12574882E-01 0.11397386E+03</pdfrwt>
<pdfrwt beam="2">  1       21 0.32510055E-01 0.11397386E+03</pdfrwt>
<totfact> 0.49591366E+05</totfact>
</mgrwt>
</event>
<event>
 5    1  0.1946229E+000  0.7137769E+02  0.7546771E-02  0.1355470E+00
         21   -1    0    0  503  502  0.00000000000E+00  0.00000000000E+00  0.79965484774E+02  0.79965484774E+02  0.00000000000E+00 0. -1.
         21   -1    0    0  501  503 -0.00000000000E+00 -0.00000000000E+00 -0.79065766304E+02  0.79065766304E+02  0.00000000000E+00 0. -1.
         24    1    1    2    0    0 -0.14509478561E+02 -0.18921516577E+01  0.27830418171E+02  0.86347283316E+02  0.80419002446E+02 0. -1.
          1    1    1    2  501    0  0.85550385087E+01  0.30560747807E+02 -0.29450560322E+02  0.43295305678E+02  0.00000000000E+00 0. -1.
         -2    1    1    2    0  502  0.59544400524E+01 -0.28668596150E+02  0.25198606205E+01  0.29388662084E+02  0.00000000000E+00 0.  1.
<mgrwt>
<rscale>  2 0.71377689E+02</rscale>
<asrwt>0</asrwt>
<pdfrwt beam="1">  1       21 0.12302382E-01 0.71377689E+02</pdfrwt>
<pdfrwt beam="2">  1       21 0.12163964E-01 0.71377689E+02</pdfrwt>
<totfact> 0.30877200E+06</totfact>
</mgrwt>
</event>
<event>
 5    1  0.1946229E+000  0.7096411E+02  0.7546771E-02  0.1356845E+00
         21   -1    0    0  501  502  0.00000000000E+00  0.00000000000E+00  0.77052634105E+02  0.77052634105E+02  0.00000000000E+00 0. -1.
         21   -1    0    0  502  503 -0.00000000000E+00 -0.00000000000E+00 -0.20175968379E+03  0.20175968379E+03  0.00000000000E+00 0. -1.
         24    1    1    2    0    0 -0.94812096234E-01 -0.11605857754E+02 -0.17736215218E+03  0.19508781075E+03  0.80419002446E+02 0. -1.
          1    1    1    2  501    0  0.43459159956E+01 -0.24215960081E+02  0.36925433691E+02  0.44371019391E+02  0.00000000000E+00 0. -1.
         -2    1    1    2    0  503 -0.42511038994E+01  0.35821817836E+02  0.15729668806E+02  0.39353487751E+02  0.00000000000E+00 0.  1.
<mgrwt>
<rscale>  2 0.70964114E+02</rscale>
<asrwt>0</asrwt>
<pdfrwt beam="1">  1       21 0.11854251E-01 0.70964114E+02</pdfrwt>
<pdfrwt beam="2">  1       21 0.31039951E-01 0.70964114E+02</pdfrwt>
<totfact> 0.60065002E+05</totfact>
</mgrwt>
</event>
<event>
 5    1  0.1946229E+000  0.7528037E+02  0.7546771E-02  0.1343005E+00
         21   -1    0    0  501  502  0.00000000000E+00  0.00000000000E+00  0.16106244452E+04  0.16106244452E+04  0.00000000000E+00 0. -1.
         21   -1    0    0  502  503 -0.00000000000E+00 -0.00000000000E+00 -0.80948599986E+01  0.80948599986E+01  0.00000000000E+00 0. -1.
         24    1    1    2    0    0 -0.25760524049E+02 -0.10884070986E+02  0.25916413364E+03  0.27279173690E+03  0.80419002446E+02 0. -1.
          1    1    1    2  501    0  0.30044210979E+02 -0.18790143427E+02  0.11198156756E+04  0.11203762187E+04  0.00000000000E+00 0. -1.
         -2    1    1    2    0  503 -0.42836869300E+01  0.29674214413E+02  0.22354977590E+03  0.22555134954E+03  0.00000000000E+00 0.  1.
<mgrwt>
<rscale>  2 0.75280366E+02</rscale>
<asrwt>0</asrwt>
<pdfrwt beam="1">  1       21 0.24778812E+00 0.75280366E+02</pdfrwt>
<pdfrwt beam="2">  1       21 0.12453644E-02 0.75280366E+02</pdfrwt>
<totfact> 0.19909002E+05</totfact>
</mgrwt>
</event>
<event>
 5    1  0.1946229E+000  0.1204069E+03  0.7546771E-02  0.1242427E+00
         21   -1    0    0  503  502  0.00000000000E+00  0.00000000000E+00  0.33483045796E+02  0.33483045796E+02  0.00000000000E+00 0. -1.
         21   -1    0    0  501  503 -0.00000000000E+00 -0.00000000000E+00 -0.53394810310E+03  0.53394810310E+03  0.00000000000E+00 0. -1.
         24    1    1    2    0    0  0.28088703399E+02 -0.73454771305E+02 -0.22441703589E+03  0.25102748981E+03  0.80419002446E+02 0. -1.
          1    1    1    2  501    0 -0.24822867115E+02  0.99262965057E+02 -0.27130853708E+03  0.28996143408E+03  0.00000000000E+00 0. -1.
         -2    1    1    2    0  502 -0.32658362841E+01 -0.25808193752E+02 -0.47394843291E+01  0.26442225002E+02  0.00000000000E+00 0.  1.
<mgrwt>
<rscale>  2 0.12040693E+03</rscale>
<asrwt>0</asrwt>
<pdfrwt beam="1">  1       21 0.51512385E-02 0.12040693E+03</pdfrwt>
<pdfrwt beam="2">  1       21 0.82145851E-01 0.12040693E+03</pdfrwt>
<totfact> 0.33656595E+05</totfact>
</mgrwt>
</event>
<event>
 5    1  0.1946229E+000  0.6868384E+02  0.7546771E-02  0.1364627E+00
         21   -1    0    0  503  502  0.00000000000E+00  0.00000000000E+00  0.89885736849E+02  0.89885736849E+02  0.00000000000E+00 0. -1.
         21   -1    0    0  501  503 -0.00000000000E+00 -0.00000000000E+00 -0.76408114180E+02  0.76408114180E+02  0.00000000000E+00 0. -1.
         24    1    1    2    0    0 -0.24218259279E+02 -0.66438963204E+01 -0.11280918770E+02  0.85000826605E+02  0.80419002446E+02 0. -1.
          1    1    1    2  501    0  0.13889829633E+02  0.26960151325E+02 -0.16227625310E+02  0.34396408968E+02  0.00000000000E+00 0. -1.
         -2    1    1    2    0  502  0.10328429646E+02 -0.20316255005E+02  0.40986166749E+02  0.46896615455E+02  0.00000000000E+00 0.  1.
<mgrwt>
<rscale>  2 0.68683843E+02</rscale>
<asrwt>0</asrwt>
<pdfrwt beam="1">  1       21 0.13828575E-01 0.68683843E+02</pdfrwt>
<pdfrwt beam="2">  1       21 0.11755095E-01 0.68683843E+02</pdfrwt>
<totfact> 0.26634487E+06</totfact>
</mgrwt>
</event>
<event>
 5    1  0.1946229E+000  0.9546322E+02  0.7546771E-02  0.1290136E+00
         21   -1    0    0  503  502  0.00000000000E+00  0.00000000000E+00  0.90353343023E+02  0.90353343023E+02  0.00000000000E+00 0. -1.
         21   -1    0    0  501  503 -0.00000000000E+00 -0.00000000000E+00 -0.22022711437E+03  0.22022711437E+03  0.00000000000E+00 0. -1.
         24    1    1    2    0    0  0.19818475071E+02  0.32887280318E+02 -0.10058571367E+03  0.13438395332E+03  0.80419002446E+02 0. -1.
          1    1    1    2  501    0  0.76645385515E+01 -0.61594226919E+02 -0.86543204897E+02  0.10650032983E+03  0.00000000000E+00 0. -1.
         -2    1    1    2    0  502 -0.27483013623E+02  0.28706946600E+02  0.57255147218E+02  0.69696174241E+02  0.00000000000E+00 0.  1.
<mgrwt>
<rscale>  2 0.95463215E+02</rscale>
<asrwt>0</asrwt>
<pdfrwt beam="1">  1       21 0.13900514E-01 0.95463215E+02</pdfrwt>
<pdfrwt beam="2">  1       21 0.33881094E-01 0.95463215E+02</pdfrwt>
<totfact> 0.38370959E+05</totfact>
</mgrwt>
</event>
<event>
 5    1  0.1946229E+000  0.1347915E+03  0.7546771E-02  0.1220514E+00
         21   -1    0    0  503  502  0.00000000000E+00  0.00000000000E+00  0.77713051736E+02  0.77713051736E+02  0.00000000000E+00 0. -1.
         21   -1    0    0  501  503 -0.00000000000E+00 -0.00000000000E+00 -0.24025927367E+03  0.24025927367E+03  0.00000000000E+00 0. -1.
         24    1    1    2    0    0 -0.95859308188E+02  0.19851337301E+02 -0.50514571721E+02  0.13638922417E+03  0.80419002446E+02 0. -1.
          1    1    1    2  501    0  0.11849463053E+03 -0.12794458501E+02 -0.94236449503E+02  0.15193809281E+03  0.00000000000E+00 0. -1.
         -2    1    1    2    0  502 -0.22635322343E+02 -0.70568788003E+01 -0.17795200706E+02  0.29645008419E+02  0.00000000000E+00 0.  1.
<mgrwt>
<rscale>  2 0.13479150E+03</rscale>
<asrwt>0</asrwt>
<pdfrwt beam="1">  1       21 0.11955854E-01 0.13479150E+03</pdfrwt>
<pdfrwt beam="2">  1       21 0.36962965E-01 0.13479150E+03</pdfrwt>
<totfact> 0.42088376E+05</totfact>
</mgrwt>
</event>
<event>
 5    1  0.1946229E+000  0.8505180E+02  0.7546771E-02  0.1315297E+00
         21   -1    0    0  503  502  0.00000000000E+00  0.00000000000E+00  0.10212210786E+03  0.10212210786E+03  0.00000000000E+00 0. -1.
         21   -1    0    0  501  503 -0.00000000000E+00 -0.00000000000E+00 -0.13522560508E+03  0.13522560508E+03  0.00000000000E+00 0. -1.
         24    1    1    2    0    0  0.11377831884E+02  0.48965647999E+02  0.51582694653E+02  0.10795869620E+03  0.80419002446E+02 0. -1.
          1    1    1    2  501    0  0.21222753505E+02 -0.32309268986E+02 -0.84341569155E+02  0.92778200113E+02  0.00000000000E+00 0. -1.
         -2    1    1    2    0  502 -0.32600585389E+02 -0.16656379012E+02 -0.34462271853E+00  0.36610816630E+02  0.00000000000E+00 0.  1.
<mgrwt>
<rscale>  2 0.85051804E+02</rscale>
<asrwt>0</asrwt>
<pdfrwt beam="1">  1       21 0.15711094E-01 0.85051804E+02</pdfrwt>
<pdfrwt beam="2">  1       21 0.20803939E-01 0.85051804E+02</pdfrwt>
<totfact> 0.77313883E+05</totfact>
</mgrwt>
</event>
<event>
 5    1  0.1946229E+000  0.6952129E+02  0.7546771E-02  0.1361729E+00
         21   -1    0    0  501  502  0.00000000000E+00  0.00000000000E+00  0.20350460177E+02  0.20350460177E+02  0.00000000000E+00 0. -1.
         21   -1    0    0  502  503 -0.00000000000E+00 -0.00000000000E+00 -0.37563825935E+03  0.37563825935E+03  0.00000000000E+00 0.  1.
         24    1    1    2    0    0  0.22105688607E+02 -0.32613880089E+02 -0.25492510017E+03  0.27019687137E+03  0.80419002446E+02 0.  1.
          1    1    1    2  501    0  0.37596256722E+01  0.20655307156E+02  0.48012167981E+00  0.21000167041E+02  0.00000000000E+00 0. -1.
         -2    1    1    2    0  503 -0.25865314279E+02  0.11958572933E+02 -0.10084282068E+03  0.10479168112E+03  0.00000000000E+00 0.  1.
<mgrwt>
<rscale>  2 0.69521288E+02</rscale>
<asrwt>0</asrwt>
<pdfrwt beam="1">  1       21 0.31308402E-02 0.69521288E+02</pdfrwt>
<pdfrwt beam="2">  1       21 0.57790498E-01 0.69521288E+02</pdfrwt>
<totfact> 0.16247853E+06</totfact>
</mgrwt>
</event>
<event>
 5    1  0.1946229E+000  0.7680419E+02  0.7546771E-02  0.1338373E+00
         21   -1    0    0  501  502  0.00000000000E+00  0.00000000000E+00  0.50268269548E+02  0.50268269548E+02  0.00000000000E+00 0. -1.
         21   -1    0    0  502  503 -0.00000000000E+00 -0.00000000000E+00 -0.42897046979E+03  0.42897046979E+03  0.00000000000E+00 0.  1.
         24    1    1    2    0    0 -0.39384297865E+02 -0.13606496811E+02 -0.20410249043E+03  0.22329644473E+03  0.80419002446E+02 0. -1.
          1    1    1    2  501    0  0.33917948212E+02 -0.12661832159E+02  0.31569065003E+02  0.48034935928E+02  0.00000000000E+00 0. -1.
         -2    1    1    2    0  503  0.54663496538E+01  0.26268328970E+02 -0.20616877481E+03  0.20790735868E+03  0.00000000000E+00 0.  1.
<mgrwt>
<rscale>  2 0.76804188E+02</rscale>
<asrwt>0</asrwt>
<pdfrwt beam="1">  1       21 0.77335797E-02 0.76804188E+02</pdfrwt>
<pdfrwt beam="2">  1       21 0.65995459E-01 0.76804188E+02</pdfrwt>
<totfact> 0.27578963E+05</totfact>
</mgrwt>
</event>
<event>
 5    1  0.1946229E+000  0.8306910E+02  0.7546771E-02  0.1320561E+00
         21   -1    0    0  503  502  0.00000000000E+00  0.00000000000E+00  0.42774843503E+03  0.42774843503E+03  0.00000000000E+00 0.  1.
         21   -1    0    0  501  503 -0.00000000000E+00 -0.00000000000E+00 -0.22692652101E+02  0.22692652101E+02  0.00000000000E+00 0. -1.
         24    1    1    2    0    0 -0.17879250659E+02 -0.98776854159E+01  0.87313194887E+02  0.12044935130E+03  0.80419002446E+02 0. -1.
          1    1    1    2  501    0  0.23927981798E+02 -0.32500021751E+02  0.95723965867E+02  0.10388396107E+03  0.00000000000E+00 0. -1.
         -2    1    1    2    0  502 -0.60487311397E+01  0.42377707167E+02  0.22201862217E+03  0.22610777475E+03  0.00000000000E+00 0.  1.
<mgrwt>
<rscale>  2 0.83069100E+02</rscale>
<asrwt>0</asrwt>
<pdfrwt beam="1">  1       21 0.65807446E-01 0.83069100E+02</pdfrwt>
<pdfrwt beam="2">  1       21 0.34911776E-02 0.83069100E+02</pdfrwt>
<totfact> 0.10413680E+06</totfact>
</mgrwt>
</event>
<event>
 5    1  0.1946229E+000  0.9224821E+02  0.7546771E-02  0.1297497E+00
         21   -1    0    0  501  502  0.00000000000E+00  0.00000000000E+00  0.16712066855E+03  0.16712066855E+03  0.00000000000E+00 0.  1.
         21   -1    0    0  502  503 -0.00000000000E+00 -0.00000000000E+00 -0.59687206841E+02  0.59687206841E+02  0.00000000000E+00 0.  1.
         24    1    1    2    0    0 -0.10607559621E+02  0.51842611503E+02  0.50084002833E+02  0.10851635813E+03  0.80419002446E+02 0.  1.
          1    1    1    2  501    0  0.16113190903E+02  0.14488967078E+02  0.45894909793E+02  0.50753402181E+02  0.00000000000E+00 0. -1.
         -2    1    1    2    0  503 -0.55056312821E+01 -0.66331578582E+02  0.11454549080E+02  0.67538115073E+02  0.00000000000E+00 0.  1.
<mgrwt>
<rscale>  2 0.92248212E+02</rscale>
<asrwt>0</asrwt>
<pdfrwt beam="1">  1       21 0.25710872E-01 0.92248212E+02</pdfrwt>
<pdfrwt beam="2">  1       21 0.91826473E-02 0.92248212E+02</pdfrwt>
<totfact> 0.13417313E+06</totfact>
</mgrwt>
</event>
<event>
 5    1  0.1946229E+000  0.6932409E+02  0.7546771E-02  0.1362407E+00
         21   -1    0    0  501  502  0.00000000000E+00  0.00000000000E+00  0.20454357965E+03  0.20454357965E+03  0.00000000000E+00 0. -1.
         21   -1    0    0  502  503 -0.00000000000E+00 -0.00000000000E+00 -0.64450136693E+02  0.64450136693E+02  0.00000000000E+00 0.  1.
         24    1    1    2    0    0 -0.69361905939E+01  0.84607879669E+01  0.69315643776E+02  0.10673129859E+03  0.80419002446E+02 0. -1.
          1    1    1    2  501    0  0.29346639022E+01 -0.32745228392E+02  0.11063617099E+03  0.11541760943E+03  0.00000000000E+00 0. -1.
         -2    1    1    2    0  503  0.40015266917E+01  0.24284440425E+02 -0.39858371814E+02  0.46844808317E+02  0.00000000000E+00 0.  1.
<mgrwt>
<rscale>  2 0.69324087E+02</rscale>
<asrwt>0</asrwt>
<pdfrwt beam="1">  1       21 0.31468243E-01 0.69324087E+02</pdfrwt>
<pdfrwt beam="2">  1       21 0.99154057E-02 0.69324087E+02</pdfrwt>
<totfact> 0.79664993E+05</totfact>
</mgrwt>
</event>
<event>
 5    1  0.1946229E+000  0.1025184E+03  0.7546771E-02  0.1275088E+00
         21   -1    0    0  501  502  0.00000000000E+00  0.00000000000E+00  0.12226864222E+03  0.12226864222E+03  0.00000000000E+00 0. -1.
         21   -1    0    0  502  503 -0.00000000000E+00 -0.00000000000E+00 -0.16117443027E+03  0.16117443027E+03  0.00000000000E+00 0. -1.
         24    1    1    2    0    0 -0.36644372683E+02 -0.78547322597E+02 -0.72557527277E+02  0.13872383593E+03  0.80419002446E+02 0. -1.
          1    1    1    2  501    0  0.21920271341E+02  0.52256307222E+02  0.74722443173E+02  0.93779866996E+02  0.00000000000E+00 0. -1.
         -2    1    1    2    0  503  0.14724101342E+02  0.26291015374E+02 -0.41070703942E+02  0.50939369569E+02  0.00000000000E+00 0.  1.
<mgrwt>
<rscale>  2 0.10251838E+03</rscale>
<asrwt>0</asrwt>
<pdfrwt beam="1">  1       21 0.18810560E-01 0.10251838E+03</pdfrwt>
<pdfrwt beam="2">  1       21 0.24796066E-01 0.10251838E+03</pdfrwt>
<totfact> 0.40333783E+05</totfact>
</mgrwt>
</event>
<event>
 5    1  0.1946229E+000  0.6371462E+02  0.7546771E-02  0.1382873E+00
         21   -1    0    0  501  502  0.00000000000E+00  0.00000000000E+00  0.51540126204E+01  0.51540126204E+01  0.00000000000E+00 0. -1.
         21   -1    0    0  502  503 -0.00000000000E+00 -0.00000000000E+00 -0.85667746691E+03  0.85667746691E+03  0.00000000000E+00 0.  1.
         24    1    1    2    0    0 -0.94810898864E+00  0.55863765019E+01 -0.45978801452E+03  0.46680225017E+03  0.80419002446E+02 0.  1.
          1    1    1    2  501    0  0.20378393659E+02  0.92347089634E+01 -0.11101009958E+03  0.11324222263E+03  0.00000000000E+00 0. -1.
         -2    1    1    2    0  503 -0.19430284670E+02 -0.14821085465E+02 -0.28072534019E+03  0.28178700673E+03  0.00000000000E+00 0.  1.
<mgrwt>
<rscale>  2 0.63714617E+02</rscale>
<asrwt>0</asrwt>
<pdfrwt beam="1">  1       21 0.79292517E-03 0.63714617E+02</pdfrwt>
<pdfrwt beam="2">  1       21 0.13179651E+00 0.63714617E+02</pdfrwt>
<totfact> 0.22362190E+06</totfact>
</mgrwt>
</event>
<event>
 5    1  0.1946229E+000  0.9499670E+02  0.7546771E-02  0.1291184E+00
         21   -1    0    0  501  502  0.00000000000E+00  0.00000000000E+00  0.45060361913E+02  0.45060361913E+02  0.00000000000E+00 0.  1.
         21   -1    0    0  502  503 -0.00000000000E+00 -0.00000000000E+00 -0.30842847660E+03  0.30842847660E+03  0.00000000000E+00 0. -1.
         24    1    1    2    0    0  0.12586981551E+02  0.26793834589E+02 -0.44635162702E+02  0.96622230260E+02  0.80419002446E+02 0.  1.
          1    1    1    2  501    0 -0.55759182752E+02 -0.51261636972E+01 -0.33087222471E+02  0.65039436547E+02  0.00000000000E+00 0. -1.
         -2    1    1    2    0  503  0.43172201201E+02 -0.21667670892E+02 -0.18564572952E+03  0.19182717171E+03  0.00000000000E+00 0.  1.
<mgrwt>
<rscale>  2 0.94996702E+02</rscale>
<asrwt>0</asrwt>
<pdfrwt beam="1">  1       21 0.69323636E-02 0.94996702E+02</pdfrwt>
<pdfrwt beam="2">  1       21 0.47450534E-01 0.94996702E+02</pdfrwt>
<totfact> 0.65748755E+05</totfact>
</mgrwt>
</event>
<event>
 5    1  0.1946229E+000  0.8679990E+02  0.7546771E-02  0.1310792E+00
         21   -1    0    0  503  502  0.00000000000E+00  0.00000000000E+00  0.10400816463E+04  0.10400816463E+04  0.00000000000E+00 0.  1.
         21   -1    0    0  501  503 -0.00000000000E+00 -0.00000000000E+00 -0.64130539983E+03  0.64130539983E+03  0.00000000000E+00 0. -1.
         24    1    1    2    0    0  0.56244739103E+01 -0.32685550253E+02  0.24082023087E+03  0.25604995500E+03  0.80419002446E+02 0.  0.
          1    1    1    2  501    0  0.35738962017E+02  0.27141445929E+02 -0.63234475365E+03  0.63393518515E+03  0.00000000000E+00 0. -1.
         -2    1    1    2    0  502 -0.41363435927E+02  0.55441043242E+01  0.79030076924E+03  0.79140190598E+03  0.00000000000E+00 0.  1.
<mgrwt>
<rscale>  2 0.86799905E+02</rscale>
<asrwt>0</asrwt>
<pdfrwt beam="1">  1       21 0.16001256E+00 0.86799905E+02</pdfrwt>
<pdfrwt beam="2">  1       21 0.98662369E-01 0.86799905E+02</pdfrwt>
<totfact> 0.25824456E+02</totfact>
</mgrwt>
</event>
<event>
 5    1  0.2274139E+000  0.9924465E+02  0.7546771E-02  0.1281892E+00
         21   -1    0    0  503  502  0.00000000000E+00  0.00000000000E+00  0.50774413277E+03  0.50774413277E+03  0.00000000000E+00 0.  1.
         21   -1    0    0  501  503 -0.00000000000E+00 -0.00000000000E+00 -0.29211318065E+03  0.29211318065E+03  0.00000000000E+00 0. -1.
         24    1    1    2    0    0 -0.48001695935E+02  0.30128517056E+02  0.22165728114E+03  0.24250991029E+03  0.80419002446E+02 0.  0.
          1    1    1    2  501    0  0.10645185098E+02  0.28592806280E+02 -0.27644135222E+03  0.27811991973E+03  0.00000000000E+00 0. -1.
         -2    1    1    2    0  502  0.37356510837E+02 -0.58721323336E+02  0.27041502319E+03  0.27922748340E+03  0.00000000000E+00 0.  1.
<mgrwt>
<rscale>  2 0.99244651E+02</rscale>
<asrwt>0</asrwt>
<pdfrwt beam="1">  1       21 0.78114482E-01 0.99244651E+02</pdfrwt>
<pdfrwt beam="2">  1       21 0.44940489E-01 0.99244651E+02</pdfrwt>
<totfact> 0.75113776E+03</totfact>
</mgrwt>
</event>
<event>
 5    1  0.1946229E+000  0.7426764E+02  0.7546771E-02  0.1346154E+00
         21   -1    0    0  501  502  0.00000000000E+00  0.00000000000E+00  0.15291133691E+02  0.15291133691E+02  0.00000000000E+00 0. -1.
         21   -1    0    0  502  503 -0.00000000000E+00 -0.00000000000E+00 -0.48451857630E+03  0.48451857630E+03  0.00000000000E+00 0. -1.
         24    1    1    2    0    0 -0.30637205472E+02 -0.42630435621E+02 -0.34936070829E+03  0.36232045603E+03  0.80419002446E+02 0. -1.
          1    1    1    2  501    0  0.15012553008E+02  0.20769160400E+02 -0.16019430387E+02  0.30221795471E+02  0.00000000000E+00 0. -1.
         -2    1    1    2    0  503  0.15624652463E+02  0.21861275221E+02 -0.10384730392E+03  0.10726745849E+03  0.00000000000E+00 0.  1.
<mgrwt>
<rscale>  2 0.74267635E+02</rscale>
<asrwt>0</asrwt>
<pdfrwt beam="1">  1       21 0.23524824E-02 0.74267635E+02</pdfrwt>
<pdfrwt beam="2">  1       21 0.74541311E-01 0.74267635E+02</pdfrwt>
<totfact> 0.15045038E+06</totfact>
</mgrwt>
</event>
<event>
 5    1  0.1946229E+000  0.6709331E+02  0.7546771E-02  0.1370266E+00
         21   -1    0    0  503  502  0.00000000000E+00  0.00000000000E+00  0.46150437198E+02  0.46150437198E+02  0.00000000000E+00 0. -1.
         21   -1    0    0  501  503 -0.00000000000E+00 -0.00000000000E+00 -0.11103417012E+03  0.11103417012E+03  0.00000000000E+00 0.  1.
         24    1    1    2    0    0  0.94853144558E+01 -0.19901258035E+02 -0.55856540162E+02  0.10036533413E+03  0.80419002446E+02 0.  1.
          1    1    1    2  501    0  0.18622253681E+02  0.74123783816E+01 -0.15562196792E+02  0.25375453778E+02  0.00000000000E+00 0. -1.
         -2    1    1    2    0  502 -0.28107568137E+02  0.12488879653E+02  0.65350040306E+01  0.31443819412E+02  0.00000000000E+00 0.  1.
<mgrwt>
<rscale>  2 0.67093307E+02</rscale>
<asrwt>0</asrwt>
<pdfrwt beam="1">  1       21 0.71000673E-02 0.67093307E+02</pdfrwt>
<pdfrwt beam="2">  1       21 0.17082180E-01 0.67093307E+02</pdfrwt>
<totfact> 0.43268233E+06</totfact>
</mgrwt>
</event>
<event>
 5    1  0.1946229E+000  0.1385092E+03  0.7546771E-02  0.1215349E+00
         21   -1    0    0  503  502  0.00000000000E+00  0.00000000000E+00  0.41384384489E+03  0.41384384489E+03  0.00000000000E+00 0.  1.
         21   -1    0    0  501  503 -0.00000000000E+00 -0.00000000000E+00 -0.22803228956E+03  0.22803228956E+03  0.00000000000E+00 0. -1.
         24    1    1    2    0    0 -0.48579604102E+02  0.42375620596E+01 -0.32715600891E+02  0.99576409671E+02  0.80419002446E+02 0. -1.
          1    1    1    2  501    0  0.60449369198E+02 -0.83354986801E+02 -0.14065489803E+03  0.17431574915E+03  0.00000000000E+00 0. -1.
         -2    1    1    2    0  502 -0.11869765095E+02  0.79117424742E+02  0.35918205425E+03  0.36798397563E+03  0.00000000000E+00 0.  1.
<mgrwt>
<rscale>  2 0.13850921E+03</rscale>
<asrwt>0</asrwt>
<pdfrwt beam="1">  1       21 0.63668284E-01 0.13850921E+03</pdfrwt>
<pdfrwt beam="2">  1       21 0.35081891E-01 0.13850921E+03</pdfrwt>
<totfact> 0.18499903E+04</totfact>
</mgrwt>
</event>
<event>
 5    1  0.1946229E+000  0.8026853E+02  0.7546771E-02  0.1328291E+00
         21   -1    0    0  503  502  0.00000000000E+00  0.00000000000E+00  0.14099038318E+03  0.14099038318E+03  0.00000000000E+00 0.  1.
         21   -1    0    0  501  503 -0.00000000000E+00 -0.00000000000E+00 -0.18464296844E+04  0.18464296844E+04  0.00000000000E+00 0. -1.
         24    1    1    2    0    0  0.18490938675E+02 -0.12566628503E+02 -0.18122517355E+03  0.19952346841E+03  0.80419002446E+02 0.  0.
          1    1    1    2  501    0 -0.47157915299E+02  0.50188372458E+01 -0.16540448623E+04  0.16547245887E+04  0.00000000000E+00 0. -1.
         -2    1    1    2    0  502  0.28666976624E+02  0.75477912573E+01  0.12983073470E+03  0.13317201047E+03  0.00000000000E+00 0.  1.
<mgrwt>
<rscale>  2 0.80268529E+02</rscale>
<asrwt>0</asrwt>
<pdfrwt beam="1">  1       21 0.21690829E-01 0.80268529E+02</pdfrwt>
<pdfrwt beam="2">  1       21 0.28406609E+00 0.80268529E+02</pdfrwt>
<totfact> 0.10428618E+03</totfact>
</mgrwt>
</event>
<event>
 5    1  0.1946229E+000  0.6864270E+02  0.7546771E-02  0.1364770E+00
         21   -1    0    0  501  502  0.00000000000E+00  0.00000000000E+00  0.32324620540E+02  0.32324620540E+02  0.00000000000E+00 0. -1.
         21   -1    0    0  502  503 -0.00000000000E+00 -0.00000000000E+00 -0.94354955737E+03  0.94354955737E+03  0.00000000000E+00 0.  1.
         24    1    1    2    0    0  0.34650797488E+02 -0.20115618943E+02 -0.23537291066E+03  0.25193836333E+03  0.80419002446E+02 0.  0.
          1    1    1    2  501    0 -0.13137679121E+02  0.22229417433E+02  0.16891173976E+02  0.30855426920E+02  0.00000000000E+00 0. -1.
         -2    1    1    2    0  503 -0.21513118367E+02 -0.21137984900E+01 -0.69274320015E+03  0.69308038766E+03  0.00000000000E+00 0.  1.
<mgrwt>
<rscale>  2 0.68642702E+02</rscale>
<asrwt>0</asrwt>
<pdfrwt beam="1">  1       21 0.49730185E-02 0.68642702E+02</pdfrwt>
<pdfrwt beam="2">  1       21 0.14516147E+00 0.68642702E+02</pdfrwt>
<totfact> 0.95218131E+04</totfact>
</mgrwt>
</event>
<event>
 5    1  0.1946229E+000  0.8695865E+02  0.7546771E-02  0.1310388E+00
         21   -1    0    0  501  502  0.00000000000E+00  0.00000000000E+00  0.24658156491E+02  0.24658156491E+02  0.00000000000E+00 0. -1.
         21   -1    0    0  502  503 -0.00000000000E+00 -0.00000000000E+00 -0.46086926685E+03  0.46086926685E+03  0.00000000000E+00 0.  1.
         24    1    1    2    0    0 -0.32199462161E+01 -0.37455368327E+02 -0.94278651777E+02  0.12949499143E+03  0.80419002446E+02 0.  0.
          1    1    1    2  501    0  0.10891429098E+02 -0.22343259120E+02 -0.33229790461E+02  0.41497752107E+02  0.00000000000E+00 0. -1.
         -2    1    1    2    0  503 -0.76714828819E+01  0.59798627446E+02 -0.30870266813E+03  0.31453467981E+03  0.00000000000E+00 0.  1.
<mgrwt>
<rscale>  2 0.86958647E+02</rscale>
<asrwt>0</asrwt>
<pdfrwt beam="1">  1       21 0.37935625E-02 0.86958647E+02</pdfrwt>
<pdfrwt beam="2">  1       21 0.70902964E-01 0.86958647E+02</pdfrwt>
<totfact> 0.77515859E+05</totfact>
</mgrwt>
</event>
<event>
 5    1  0.1946229E+000  0.6553555E+02  0.7546771E-02  0.1375968E+00
         21   -1    0    0  501  502  0.00000000000E+00  0.00000000000E+00  0.11797544275E+02  0.11797544275E+02  0.00000000000E+00 0.  1.
         21   -1    0    0  502  503 -0.00000000000E+00 -0.00000000000E+00 -0.67776485991E+03  0.67776485991E+03  0.00000000000E+00 0.  1.
         24    1    1    2    0    0 -0.17922650106E+02  0.78575909008E+01 -0.17605034537E+03  0.19453509498E+03  0.80419002446E+02 0.  1.
          1    1    1    2  501    0  0.12939678975E+02  0.17890470280E+02 -0.54240874773E+02  0.58562588014E+02  0.00000000000E+00 0. -1.
         -2    1    1    2    0  503  0.49829711304E+01 -0.25748061181E+02 -0.43567609550E+03  0.43646472119E+03  0.00000000000E+00 0.  1.
<mgrwt>
<rscale>  2 0.65535554E+02</rscale>
<asrwt>0</asrwt>
<pdfrwt beam="1">  1       21 0.18150065E-02 0.65535554E+02</pdfrwt>
<pdfrwt beam="2">  1       21 0.10427153E+00 0.65535554E+02</pdfrwt>
<totfact> 0.10705762E+06</totfact>
</mgrwt>
</event>
<event>
 5    1  0.2095867E+000  0.9105865E+02  0.7546771E-02  0.1300308E+00
         21   -1    0    0  503  502  0.00000000000E+00  0.00000000000E+00  0.11595266065E+03  0.11595266065E+03  0.00000000000E+00 0.  1.
         21   -1    0    0  501  503 -0.00000000000E+00 -0.00000000000E+00 -0.46384795614E+03  0.46384795614E+03  0.00000000000E+00 0. -1.
         24    1    1    2    0    0  0.11773924357E+02  0.19137599544E+02 -0.46452803453E+02  0.95550781860E+02  0.80419002446E+02 0.  1.
          1    1    1    2  501    0 -0.34101409389E+01  0.39369231223E+02 -0.38216588757E+03  0.38420350213E+03  0.00000000000E+00 0. -1.
         -2    1    1    2    0  502 -0.83637834176E+01 -0.58506830767E+02  0.80723395539E+02  0.10004633280E+03  0.00000000000E+00 0.  1.
<mgrwt>
<rscale>  2 0.91058654E+02</rscale>
<asrwt>0</asrwt>
<pdfrwt beam="1">  1       21 0.17838871E-01 0.91058654E+02</pdfrwt>
<pdfrwt beam="2">  1       21 0.71361223E-01 0.91058654E+02</pdfrwt>
<totfact> 0.53621523E+04</totfact>
</mgrwt>
</event>
<event>
 5    1  0.1946229E+000  0.8844588E+02  0.7546771E-02  0.1306659E+00
         21   -1    0    0  503  502  0.00000000000E+00  0.00000000000E+00  0.44419510803E+03  0.44419510803E+03  0.00000000000E+00 0. -1.
         21   -1    0    0  501  503 -0.00000000000E+00 -0.00000000000E+00 -0.33054983172E+02  0.33054983172E+02  0.00000000000E+00 0.  1.
         24    1    1    2    0    0 -0.62970012332E+01  0.12831959686E+02  0.34345766144E+03  0.35303638987E+03  0.80419002446E+02 0. -1.
          1    1    1    2  501    0  0.25180901485E+02 -0.48616556545E+02  0.13146367865E+02  0.56306965448E+02  0.00000000000E+00 0. -1.
         -2    1    1    2    0  502 -0.18883900252E+02  0.35784596859E+02  0.54536095557E+02  0.67906735893E+02  0.00000000000E+00 0.  1.
<mgrwt>
<rscale>  2 0.88445884E+02</rscale>
<asrwt>0</asrwt>
<pdfrwt beam="1">  1       21 0.68337705E-01 0.88445884E+02</pdfrwt>
<pdfrwt beam="2">  1       21 0.50853823E-02 0.88445884E+02</pdfrwt>
<totfact> 0.51706265E+05</totfact>
</mgrwt>
</event>
<event>
 5    1  0.1946229E+000  0.7015516E+02  0.7546771E-02  0.1359566E+00
         21   -1    0    0  503  502  0.00000000000E+00  0.00000000000E+00  0.15695125091E+02  0.15695125091E+02  0.00000000000E+00 0. -1.
         21   -1    0    0  501  503 -0.00000000000E+00 -0.00000000000E+00 -0.35215671785E+03  0.35215671785E+03  0.00000000000E+00 0.  1.
         24    1    1    2    0    0  0.13039577689E+02 -0.18957263581E+02 -0.19555344036E+03  0.21269173097E+03  0.80419002446E+02 0.  1.
          1    1    1    2  501    0  0.19159751011E+02  0.14774401899E+02 -0.10024664349E+03  0.10312501414E+03  0.00000000000E+00 0. -1.
         -2    1    1    2    0  502 -0.32199328699E+02  0.41828616820E+01 -0.40661508915E+02  0.52035097845E+02  0.00000000000E+00 0.  1.
<mgrwt>
<rscale>  2 0.70155157E+02</rscale>
<asrwt>0</asrwt>
<pdfrwt beam="1">  1       21 0.24146347E-02 0.70155157E+02</pdfrwt>
<pdfrwt beam="2">  1       21 0.54177954E-01 0.70155157E+02</pdfrwt>
<totfact> 0.28198223E+06</totfact>
</mgrwt>
</event>
<event>
 5    1  0.1946229E+000  0.7784439E+02  0.7546771E-02  0.1335282E+00
         21   -1    0    0  503  502  0.00000000000E+00  0.00000000000E+00  0.10618718087E+02  0.10618718087E+02  0.00000000000E+00 0.  1.
         21   -1    0    0  501  503 -0.00000000000E+00 -0.00000000000E+00 -0.69523655861E+03  0.69523655861E+03  0.00000000000E+00 0. -1.
         24    1    1    2    0    0  0.20582543034E+02  0.20148719019E+02 -0.22084995933E+03  0.23679428296E+03  0.80419002446E+02 0.  1.
          1    1    1    2  501    0  0.15638332196E+02 -0.29029351623E+02 -0.21671803188E+03  0.21921214846E+03  0.00000000000E+00 0. -1.
         -2    1    1    2    0  502 -0.36220875230E+02  0.88806326042E+01 -0.24704984932E+03  0.24984884527E+03  0.00000000000E+00 0.  1.
<mgrwt>
<rscale>  2 0.77844387E+02</rscale>
<asrwt>0</asrwt>
<pdfrwt beam="1">  1       21 0.16336490E-02 0.77844387E+02</pdfrwt>
<pdfrwt beam="2">  1       21 0.10695947E+00 0.77844387E+02</pdfrwt>
<totfact> 0.11955674E+06</totfact>
</mgrwt>
</event>
<event>
 5    1  0.1946229E+000  0.8388648E+02  0.7546771E-02  0.1318370E+00
         21   -1    0    0  503  502  0.00000000000E+00  0.00000000000E+00  0.14833237711E+03  0.14833237711E+03  0.00000000000E+00 0.  1.
         21   -1    0    0  501  503 -0.00000000000E+00 -0.00000000000E+00 -0.51191963004E+03  0.51191963004E+03  0.00000000000E+00 0.  1.
         24    1    1    2    0    0  0.15736822752E+02  0.46960108002E+02 -0.21691204304E+03  0.23658180341E+03  0.80419002446E+02 0.  1.
          1    1    1    2  501    0  0.67306656884E+01 -0.50180154019E+02 -0.28197275099E+03  0.28648207975E+03  0.00000000000E+00 0. -1.
         -2    1    1    2    0  502 -0.22467488440E+02  0.32200460167E+01  0.13529754111E+03  0.13718812399E+03  0.00000000000E+00 0.  1.
<mgrwt>
<rscale>  2 0.83886480E+02</rscale>
<asrwt>0</asrwt>
<pdfrwt beam="1">  1       21 0.22820365E-01 0.83886480E+02</pdfrwt>
<pdfrwt beam="2">  1       21 0.78756868E-01 0.83886480E+02</pdfrwt>
<totfact> 0.27723167E+04</totfact>
</mgrwt>
</event>
<event>
 5    1  0.1946229E+000  0.1252813E+03  0.7546771E-02  0.1234630E+00
         21   -1    0    0  503  502  0.00000000000E+00  0.00000000000E+00  0.32827554105E+03  0.32827554105E+03  0.00000000000E+00 0.  1.
         21   -1    0    0  501  503 -0.00000000000E+00 -0.00000000000E+00 -0.61240972288E+02  0.61240972288E+02  0.00000000000E+00 0. -1.
         24    1    1    2    0    0 -0.10987936067E+03  0.23234582096E+02  0.73318409176E+02  0.15638454139E+03  0.80419002446E+02 0. -1.
          1    1    1    2  501    0  0.76178141634E+02 -0.13638411668E+02  0.69324265909E+02  0.10389884205E+03  0.00000000000E+00 0. -1.
         -2    1    1    2    0  502  0.33701219036E+02 -0.95961704281E+01  0.12439189367E+03  0.12923312990E+03  0.00000000000E+00 0.  1.
<mgrwt>
<rscale>  2 0.12528125E+03</rscale>
<asrwt>0</asrwt>
<pdfrwt beam="1">  1       21 0.50503928E-01 0.12528125E+03</pdfrwt>
<pdfrwt beam="2">  1       21 0.94216882E-02 0.12528125E+03</pdfrwt>
<totfact> 0.34077395E+05</totfact>
</mgrwt>
</event>
<event>
 5    1  0.1946229E+000  0.8635964E+02  0.7546771E-02  0.1311915E+00
         21   -1    0    0  503  502  0.00000000000E+00  0.00000000000E+00  0.31812676356E+02  0.31812676356E+02  0.00000000000E+00 0. -1.
         21   -1    0    0  501  503 -0.00000000000E+00 -0.00000000000E+00 -0.25662070244E+03  0.25662070244E+03  0.00000000000E+00 0. -1.
         24    1    1    2    0    0 -0.85900388741E+01 -0.60842544672E+01 -0.10840687078E+03  0.13538859814E+03  0.80419002446E+02 0. -1.
          1    1    1    2  501    0  0.23838937539E+02  0.44389305946E+02 -0.92649298063E+02  0.10546372768E+03  0.00000000000E+00 0. -1.
         -2    1    1    2    0  502 -0.15248898665E+02 -0.38305051479E+02 -0.23751857240E+02  0.47581052969E+02  0.00000000000E+00 0.  1.
<mgrwt>
<rscale>  2 0.86359641E+02</rscale>
<asrwt>0</asrwt>
<pdfrwt beam="1">  1       21 0.48942579E-02 0.86359641E+02</pdfrwt>
<pdfrwt beam="2">  1       21 0.39480108E-01 0.86359641E+02</pdfrwt>
<totfact> 0.17005393E+06</totfact>
</mgrwt>
</event>
<event>
 5    1  0.1946229E+000  0.6288488E+02  0.7546771E-02  0.1386109E+00
         21   -1    0    0  503  502  0.00000000000E+00  0.00000000000E+00  0.40962424746E+02  0.40962424746E+02  0.00000000000E+00 0. -1.
         21   -1    0    0  501  503 -0.00000000000E+00 -0.00000000000E+00 -0.15980075871E+03  0.15980075871E+03  0.00000000000E+00 0.  1.
         24    1    1    2    0    0 -0.80550030162E+01 -0.27315225141E+01 -0.21411187132E+02  0.83654044598E+02  0.80419002446E+02 0. -1.
          1    1    1    2  501    0  0.11188777969E+01 -0.20564813203E+02 -0.89047730833E+02  0.91398368673E+02  0.00000000000E+00 0. -1.
         -2    1    1    2    0  502  0.69361252193E+01  0.23296335717E+02 -0.83794159944E+01  0.25710770181E+02  0.00000000000E+00 0.  1.
<mgrwt>
<rscale>  2 0.62884876E+02</rscale>
<asrwt>0</asrwt>
<pdfrwt beam="1">  1       21 0.63019114E-02 0.62884876E+02</pdfrwt>
<pdfrwt beam="2">  1       21 0.24584732E-01 0.62884876E+02</pdfrwt>
<totfact> 0.27145581E+06</totfact>
</mgrwt>
</event>
<event>
 5    1  0.1946229E+000  0.8311964E+02  0.7546771E-02  0.1320424E+00
         21   -1    0    0  501  502  0.00000000000E+00  0.00000000000E+00  0.42391928747E+03  0.42391928747E+03  0.00000000000E+00 0. -1.
         21   -1    0    0  502  503 -0.00000000000E+00 -0.00000000000E+00 -0.22965274437E+02  0.22965274437E+02  0.00000000000E+00 0.  1.
         24    1    1    2    0    0 -0.11395778270E+02  0.59760994050E+02  0.24999815295E+03  0.26956916108E+03  0.80419002446E+02 0. -1.
          1    1    1    2  501    0 -0.73136747144E+01 -0.23277529450E+02  0.12804178886E+03  0.13034582046E+03  0.00000000000E+00 0. -1.
         -2    1    1    2    0  503  0.18709452984E+02 -0.36483464601E+02  0.22914071215E+02  0.46969580367E+02  0.00000000000E+00 0.  1.
<mgrwt>
<rscale>  2 0.83119636E+02</rscale>
<asrwt>0</asrwt>
<pdfrwt beam="1">  1       21 0.65218346E-01 0.83119636E+02</pdfrwt>
<pdfrwt beam="2">  1       21 0.35331195E-02 0.83119636E+02</pdfrwt>
<totfact> 0.10409878E+06</totfact>
</mgrwt>
</event>
<event>
 5    1  0.1946229E+000  0.8204333E+02  0.7546771E-02  0.1323351E+00
         21   -1    0    0  501  502  0.00000000000E+00  0.00000000000E+00  0.50092790789E+03  0.50092790789E+03  0.00000000000E+00 0.  1.
         21   -1    0    0  502  503 -0.00000000000E+00 -0.00000000000E+00 -0.51538088293E+02  0.51538088293E+02  0.00000000000E+00 0.  1.
         24    1    1    2    0    0  0.44776736297E+02  0.21642418206E+02  0.40096015214E+03  0.41195826238E+03  0.80419002446E+02 0.  1.
          1    1    1    2  501    0 -0.23669503262E+01 -0.26715339733E+02  0.81940888334E+02  0.86218449371E+02  0.00000000000E+00 0. -1.
         -2    1    1    2    0  503 -0.42409785971E+02  0.50729215273E+01 -0.33511220885E+02  0.54289284432E+02  0.00000000000E+00 0.  1.
<mgrwt>
<rscale>  2 0.82043335E+02</rscale>
<asrwt>0</asrwt>
<pdfrwt beam="1">  1       21 0.77065829E-01 0.82043335E+02</pdfrwt>
<pdfrwt beam="2">  1       21 0.79289370E-02 0.82043335E+02</pdfrwt>
<totfact> 0.18893449E+05</totfact>
</mgrwt>
</event>
<event>
 5    1  0.1946229E+000  0.7559668E+02  0.7546771E-02  0.1342033E+00
         21   -1    0    0  503  502  0.00000000000E+00  0.00000000000E+00  0.54473663472E+02  0.54473663472E+02  0.00000000000E+00 0. -1.
         21   -1    0    0  501  503 -0.00000000000E+00 -0.00000000000E+00 -0.10607636041E+03  0.10607636041E+03  0.00000000000E+00 0.  1.
         24    1    1    2    0    0  0.38770544213E+02  0.92648629042E+01 -0.32739535839E+02  0.95541017079E+02  0.80419002446E+02 0.  1.
          1    1    1    2  501    0 -0.31384944905E+02  0.15919811619E+02 -0.15833045552E+02  0.38589383256E+02  0.00000000000E+00 0. -1.
         -2    1    1    2    0  502 -0.73855993084E+01 -0.25184674523E+02 -0.30301155451E+01  0.26419623543E+02  0.00000000000E+00 0.  1.
<mgrwt>
<rscale>  2 0.75596680E+02</rscale>
<asrwt>0</asrwt>
<pdfrwt beam="1">  1       21 0.83805637E-02 0.75596680E+02</pdfrwt>
<pdfrwt beam="2">  1       21 0.16319440E-01 0.75596680E+02</pdfrwt>
<totfact> 0.35759252E+06</totfact>
</mgrwt>
</event>
<event>
 5    1  0.1946229E+000  0.8935358E+02  0.7546771E-02  0.1304425E+00
         21   -1    0    0  503  502  0.00000000000E+00  0.00000000000E+00  0.33883140450E+03  0.33883140450E+03  0.00000000000E+00 0.  1.
         21   -1    0    0  501  503 -0.00000000000E+00 -0.00000000000E+00 -0.59222564378E+02  0.59222564378E+02  0.00000000000E+00 0. -1.
         24    1    1    2    0    0  0.25264165520E+02 -0.47490866097E+02  0.12330597989E+03  0.15673302477E+03  0.80419002446E+02 0.  1.
          1    1    1    2  501    0 -0.27857884984E+02 -0.59214685698E+01 -0.33591984996E+02  0.44040288394E+02  0.00000000000E+00 0. -1.
         -2    1    1    2    0  502  0.25937194645E+01  0.53412334667E+02  0.18989484523E+03  0.19728065572E+03  0.00000000000E+00 0.  1.
<mgrwt>
<rscale>  2 0.89353581E+02</rscale>
<asrwt>0</asrwt>
<pdfrwt beam="1">  1       21 0.52127907E-01 0.89353581E+02</pdfrwt>
<pdfrwt beam="2">  1       21 0.91111640E-02 0.89353581E+02</pdfrwt>
<totfact> 0.34031892E+05</totfact>
</mgrwt>
</event>
<event>
 5    1  0.1946229E+000  0.7596654E+02  0.7546771E-02  0.1340904E+00
         21   -1    0    0  503  502  0.00000000000E+00  0.00000000000E+00  0.12071345929E+04  0.12071345929E+04  0.00000000000E+00 0.  1.
         21   -1    0    0  501  503 -0.00000000000E+00 -0.00000000000E+00 -0.49254829267E+01  0.49254829267E+01  0.00000000000E+00 0. -1.
         24    1    1    2    0    0  0.13912021475E+02  0.10669769794E+02  0.68916471411E+03  0.69406239450E+03  0.80419002446E+02 0.  0.
          1    1    1    2  501    0  0.21002239297E+02  0.15407073523E+02  0.13862904355E+03  0.14105489600E+03  0.00000000000E+00 0. -1.
         -2    1    1    2    0  502 -0.34914260772E+02 -0.26076843317E+02  0.37441535231E+03  0.37694278533E+03  0.00000000000E+00 0.  1.
<mgrwt>
<rscale>  2 0.75966540E+02</rscale>
<asrwt>0</asrwt>
<pdfrwt beam="1">  1       21 0.18571278E+00 0.75966540E+02</pdfrwt>
<pdfrwt beam="2">  1       21 0.75776757E-03 0.75966540E+02</pdfrwt>
<totfact> 0.99854219E+05</totfact>
</mgrwt>
</event>
<event>
 5    1  0.1946229E+000  0.1638468E+03  0.7546771E-02  0.1184421E+00
         21   -1    0    0  501  502  0.00000000000E+00  0.00000000000E+00  0.11002198964E+03  0.11002198964E+03  0.00000000000E+00 0.  1.
         21   -1    0    0  502  503 -0.00000000000E+00 -0.00000000000E+00 -0.32379505016E+03  0.32379505016E+03  0.00000000000E+00 0. -1.
         24    1    1    2    0    0  0.41031486152E+02  0.61812125903E+02  0.21664636626E+02  0.11153875649E+03  0.80419002446E+02 0.  1.
          1    1    1    2  501    0  0.72159558093E+02 -0.75292808155E+02 -0.92054915856E+02  0.13910469553E+03  0.00000000000E+00 0. -1.
         -2    1    1    2    0  503 -0.11319104424E+03  0.13480682251E+02 -0.14338278129E+03  0.18317358779E+03  0.00000000000E+00 0.  1.
<mgrwt>
<rscale>  2 0.16384680E+03</rscale>
<asrwt>0</asrwt>
<pdfrwt beam="1">  1       21 0.16926460E-01 0.16384680E+03</pdfrwt>
<pdfrwt beam="2">  1       21 0.49814623E-01 0.16384680E+03</pdfrwt>
<totfact> 0.12203728E+05</totfact>
</mgrwt>
</event>
<event>
 5    1  0.1946229E+000  0.7539370E+02  0.7546771E-02  0.1342656E+00
         21   -1    0    0  501  502  0.00000000000E+00  0.00000000000E+00  0.49666723678E+03  0.49666723678E+03  0.00000000000E+00 0. -1.
         21   -1    0    0  502  503 -0.00000000000E+00 -0.00000000000E+00 -0.15873198731E+02  0.15873198731E+02  0.00000000000E+00 0.  1.
         24    1    1    2    0    0  0.75985520957E+01  0.24029099958E+02  0.17731785533E+03  0.19632619136E+03  0.80419002446E+02 0.  0.
          1    1    1    2  501    0  0.26048849973E+02 -0.19547133302E+02  0.25478978264E+03  0.25686273833E+03  0.00000000000E+00 0. -1.
         -2    1    1    2    0  503 -0.33647402069E+02 -0.44819666562E+01  0.48686400079E+02  0.59351505825E+02  0.00000000000E+00 0.  1.
<mgrwt>
<rscale>  2 0.75393705E+02</rscale>
<asrwt>0</asrwt>
<pdfrwt beam="1">  1       21 0.76410332E-01 0.75393705E+02</pdfrwt>
<pdfrwt beam="2">  1       21 0.24420310E-02 0.75393705E+02</pdfrwt>
<totfact> 0.13434318E+06</totfact>
</mgrwt>
</event>
<event>
 5    1  0.2709221E+000  0.7243127E+02  0.7546771E-02  0.1352015E+00
         21   -1    0    0  501  502  0.00000000000E+00  0.00000000000E+00  0.11429112031E+04  0.11429112031E+04  0.00000000000E+00 0.  1.
         21   -1    0    0  502  503 -0.00000000000E+00 -0.00000000000E+00 -0.48713617535E+02  0.48713617535E+02  0.00000000000E+00 0.  1.
         24    1    1    2    0    0 -0.31234706197E+02  0.16456762340E+02  0.80693425977E+03  0.81169978899E+03  0.80419002446E+02 0.  1.
          1    1    1    2  501    0  0.16106358443E+02  0.15075912850E+02  0.32656834439E+03  0.32731266625E+03  0.00000000000E+00 0. -1.
         -2    1    1    2    0  503  0.15128347754E+02 -0.31532675191E+02 -0.39305018570E+02  0.52612365421E+02  0.00000000000E+00 0.  1.
<mgrwt>
<rscale>  2 0.72431274E+02</rscale>
<asrwt>0</asrwt>
<pdfrwt beam="1">  1       21 0.17583247E+00 0.72431274E+02</pdfrwt>
<pdfrwt beam="2">  1       21 0.74944035E-02 0.72431274E+02</pdfrwt>
<totfact> 0.29181208E+04</totfact>
</mgrwt>
</event>
<event>
 5    1  0.1946229E+000  0.6854439E+02  0.7546771E-02  0.1365114E+00
         21   -1    0    0  503  502  0.00000000000E+00  0.00000000000E+00  0.73435675047E+02  0.73435675047E+02  0.00000000000E+00 0.  1.
         21   -1    0    0  501  503 -0.00000000000E+00 -0.00000000000E+00 -0.84562783376E+02  0.84562783376E+02  0.00000000000E+00 0. -1.
         24    1    1    2    0    0  0.17400182878E+02  0.88211303436E+01  0.17911317868E+02  0.84667644156E+02  0.80419002446E+02 0.  0.
          1    1    1    2  501    0 -0.33179275402E+02  0.47593543834E+01 -0.37995443201E+02  0.50667242617E+02  0.00000000000E+00 0. -1.
         -2    1    1    2    0  502  0.15779092524E+02 -0.13580484727E+02  0.89570170044E+01  0.22663571650E+02  0.00000000000E+00 0.  1.
<mgrwt>
<rscale>  2 0.68544387E+02</rscale>
<asrwt>0</asrwt>
<pdfrwt beam="1">  1       21 0.11297796E-01 0.68544387E+02</pdfrwt>
<pdfrwt beam="2">  1       21 0.13009659E-01 0.68544387E+02</pdfrwt>
<totfact> 0.31757344E+06</totfact>
</mgrwt>
</event>
<event>
 5    1  0.1946229E+000  0.1097991E+03  0.7546771E-02  0.1260942E+00
         21   -1    0    0  503  502  0.00000000000E+00  0.00000000000E+00  0.28242338154E+03  0.28242338154E+03  0.00000000000E+00 0.  1.
         21   -1    0    0  501  503 -0.00000000000E+00 -0.00000000000E+00 -0.67092934003E+02  0.67092934003E+02  0.00000000000E+00 0. -1.
         24    1    1    2    0    0 -0.14749460910E+02  0.12769095248E+02  0.41479106819E+02  0.92565266960E+02  0.80419002446E+02 0. -1.
          1    1    1    2  501    0  0.75445791877E+02 -0.97761535853E+01  0.35805970555E+01  0.76160760015E+02  0.00000000000E+00 0. -1.
         -2    1    1    2    0  502 -0.60696330966E+02 -0.29929416627E+01  0.17027074367E+03  0.18079028857E+03  0.00000000000E+00 0.  1.
<mgrwt>
<rscale>  2 0.10979907E+03</rscale>
<asrwt>0</asrwt>
<pdfrwt beam="1">  1       21 0.43449750E-01 0.10979907E+03</pdfrwt>
<pdfrwt beam="2">  1       21 0.10321990E-01 0.10979907E+03</pdfrwt>
<totfact> 0.39586963E+05</totfact>
</mgrwt>
</event>
<event>
 5    1  0.3946996E+000  0.2525073E+03  0.7546771E-02  0.1111730E+00
         21   -1    0    0  501  502  0.00000000000E+00  0.00000000000E+00  0.10302611767E+04  0.10302611767E+04  0.00000000000E+00 0. -1.
         21   -1    0    0  502  503 -0.00000000000E+00 -0.00000000000E+00 -0.13502619728E+03  0.13502619728E+03  0.00000000000E+00 0.  1.
         24    1    1    2    0    0  0.27231541108E+02  0.76227462522E+02  0.14081746427E+03  0.18124281247E+03  0.80419002446E+02 0. -1.
          1    1    1    2  501    0  0.17449823246E+03  0.20963167212E+01  0.74742821980E+03  0.76753043681E+03  0.00000000000E+00 0. -1.
         -2    1    1    2    0  503 -0.20172977357E+03 -0.78323779243E+02  0.69892953443E+01  0.21651412469E+03  0.00000000000E+00 0.  1.
<mgrwt>
<rscale>  2 0.25250734E+03</rscale>
<asrwt>0</asrwt>
<pdfrwt beam="1">  1       21 0.15850171E+00 0.25250734E+03</pdfrwt>
<pdfrwt beam="2">  1       21 0.20773262E-01 0.25250734E+03</pdfrwt>
<totfact> 0.53048416E+03</totfact>
</mgrwt>
</event>
<event>
 5    1  0.1946229E+000  0.9760358E+02  0.7546771E-02  0.1285418E+00
         21   -1    0    0  501  502  0.00000000000E+00  0.00000000000E+00  0.10307515200E+03  0.10307515200E+03  0.00000000000E+00 0. -1.
         21   -1    0    0  502  503 -0.00000000000E+00 -0.00000000000E+00 -0.13570935765E+03  0.13570935765E+03  0.00000000000E+00 0.  1.
         24    1    1    2    0    0  0.34172057274E+02 -0.70962499253E+02 -0.35719329678E+02  0.11809526775E+03  0.80419002446E+02 0. -1.
          1    1    1    2  501    0 -0.12495270992E+02  0.53113777748E+02  0.44666699073E+02  0.70514673578E+02  0.00000000000E+00 0. -1.
         -2    1    1    2    0  503 -0.21676786282E+02  0.17848721506E+02 -0.41581575049E+02  0.50174568324E+02  0.00000000000E+00 0.  1.
<mgrwt>
<rscale>  2 0.97603578E+02</rscale>
<asrwt>0</asrwt>
<pdfrwt beam="1">  1       21 0.15857716E-01 0.97603578E+02</pdfrwt>
<pdfrwt beam="2">  1       21 0.20878363E-01 0.97603578E+02</pdfrwt>
<totfact> 0.75659510E+05</totfact>
</mgrwt>
</event>
<event>
 5    1  0.1946229E+000  0.7136571E+02  0.7546771E-02  0.1355510E+00
         21   -1    0    0  501  502  0.00000000000E+00  0.00000000000E+00  0.11072283106E+04  0.11072283106E+04  0.00000000000E+00 0. -1.
         21   -1    0    0  502  503 -0.00000000000E+00 -0.00000000000E+00 -0.12036959905E+02  0.12036959905E+02  0.00000000000E+00 0.  1.
         24    1    1    2    0    0 -0.10061799594E+02  0.16005493967E+02  0.24428340451E+03  0.25787402607E+03  0.80419002446E+02 0.  1.
          1    1    1    2  501    0  0.10212124431E+02  0.20875128476E+02  0.78891457242E+03  0.78925677764E+03  0.00000000000E+00 0. -1.
         -2    1    1    2    0  503 -0.15032483724E+00 -0.36880622443E+02  0.61993373784E+02  0.72134466813E+02  0.00000000000E+00 0.  1.
<mgrwt>
<rscale>  2 0.71365708E+02</rscale>
<asrwt>0</asrwt>
<pdfrwt beam="1">  1       21 0.17034274E+00 0.71365708E+02</pdfrwt>
<pdfrwt beam="2">  1       21 0.18518409E-02 0.71365708E+02</pdfrwt>
<totfact> 0.31162882E+05</totfact>
</mgrwt>
</event>
<event>
 5    1  0.1946229E+000  0.7548697E+02  0.7546771E-02  0.1342370E+00
         21   -1    0    0  503  502  0.00000000000E+00  0.00000000000E+00  0.11021489498E+03  0.11021489498E+03  0.00000000000E+00 0. -1.
         21   -1    0    0  501  503 -0.00000000000E+00 -0.00000000000E+00 -0.66091835583E+02  0.66091835583E+02  0.00000000000E+00 0. -1.
         24    1    1    2    0    0  0.53152983003E+02  0.23472957479E+01 -0.12516287899E+02  0.97234884772E+02  0.80419002446E+02 0. -1.
          1    1    1    2  501    0 -0.27412601792E+02 -0.72267694917E+01  0.23469377130E+02  0.36803377524E+02  0.00000000000E+00 0. -1.
         -2    1    1    2    0  502 -0.25740381211E+02  0.48794737438E+01  0.33169970167E+02  0.42268468269E+02  0.00000000000E+00 0.  1.
<mgrwt>
<rscale>  2 0.75486971E+02</rscale>
<asrwt>0</asrwt>
<pdfrwt beam="1">  1       21 0.16956138E-01 0.75486971E+02</pdfrwt>
<pdfrwt beam="2">  1       21 0.10167975E-01 0.75486971E+02</pdfrwt>
<totfact> 0.23965595E+06</totfact>
</mgrwt>
</event>
<event>
 5    1  0.1946229E+000  0.8011326E+02  0.7546771E-02  0.1328730E+00
         21   -1    0    0  503  502  0.00000000000E+00  0.00000000000E+00  0.99784232260E+02  0.99784232260E+02  0.00000000000E+00 0. -1.
         21   -1    0    0  501  503 -0.00000000000E+00 -0.00000000000E+00 -0.70489435891E+02  0.70489435891E+02  0.00000000000E+00 0.  1.
         24    1    1    2    0    0 -0.33478922767E+02 -0.20207055431E+02  0.13537300691E+02  0.90441350185E+02  0.80419002446E+02 0.  1.
          1    1    1    2  501    0  0.34262968790E+02 -0.13690883869E+02 -0.88420582630E+01  0.37941709579E+02  0.00000000000E+00 0. -1.
         -2    1    1    2    0  502 -0.78404602360E+00  0.33897939301E+02  0.24599553941E+02  0.41890608388E+02  0.00000000000E+00 0.  1.
<mgrwt>
<rscale>  2 0.80113259E+02</rscale>
<asrwt>0</asrwt>
<pdfrwt beam="1">  1       21 0.15351420E-01 0.80113259E+02</pdfrwt>
<pdfrwt beam="2">  1       21 0.10844529E-01 0.80113259E+02</pdfrwt>
<totfact> 0.25682081E+06</totfact>
</mgrwt>
</event>
<event>
 5    1  0.1946229E+000  0.1010938E+03  0.7546771E-02  0.1278012E+00
         21   -1    0    0  501  502  0.00000000000E+00  0.00000000000E+00  0.13796702341E+04  0.13796702341E+04  0.00000000000E+00 0. -1.
         21   -1    0    0  502  503 -0.00000000000E+00 -0.00000000000E+00 -0.32938449581E+02  0.32938449581E+02  0.00000000000E+00 0.  1.
         24    1    1    2    0    0 -0.38757202386E+02  0.69269182802E+02  0.42623858050E+03  0.44096131790E+03  0.80419002446E+02 0. -1.
          1    1    1    2  501    0 -0.56809320037E+01 -0.27926173816E+02  0.90952141289E+03  0.90996777123E+03  0.00000000000E+00 0. -1.
         -2    1    1    2    0  503  0.44438134389E+02 -0.41343008986E+02  0.10971791096E+02  0.61679594518E+02  0.00000000000E+00 0.  1.
<mgrwt>
<rscale>  2 0.10109383E+03</rscale>
<asrwt>0</asrwt>
<pdfrwt beam="1">  1       21 0.21225691E+00 0.10109383E+03</pdfrwt>
<pdfrwt beam="2">  1       21 0.50674549E-02 0.10109383E+03</pdfrwt>
<totfact> 0.32071790E+04</totfact>
</mgrwt>
</event>
<event>
 5    1  0.1946229E+000  0.6852433E+02  0.7546771E-02  0.1365184E+00
         21   -1    0    0  501  502  0.00000000000E+00  0.00000000000E+00  0.69522232992E+01  0.69522232992E+01  0.00000000000E+00 0. -1.
         21   -1    0    0  502  503 -0.00000000000E+00 -0.00000000000E+00 -0.97684456892E+03  0.97684456892E+03  0.00000000000E+00 0.  1.
         24    1    1    2    0    0 -0.18015561946E+01  0.29474026340E+01 -0.77167824239E+03  0.77586497441E+03  0.80419002446E+02 0.  1.
          1    1    1    2  501    0 -0.26092817065E+02 -0.97307052208E+01 -0.52622133805E+02  0.59536633199E+02  0.00000000000E+00 0. -1.
         -2    1    1    2    0  503  0.27894373260E+02  0.67833025868E+01 -0.14559196942E+03  0.14839518460E+03  0.00000000000E+00 0.  1.
<mgrwt>
<rscale>  2 0.68524327E+02</rscale>
<asrwt>0</asrwt>
<pdfrwt beam="1">  1       21 0.10695729E-02 0.68524327E+02</pdfrwt>
<pdfrwt beam="2">  1       21 0.15028377E+00 0.68524327E+02</pdfrwt>
<totfact> 0.10189310E+06</totfact>
</mgrwt>
</event>
<event>
 5    1  0.1946229E+000  0.9466319E+02  0.7546771E-02  0.1291936E+00
         21   -1    0    0  501  502  0.00000000000E+00  0.00000000000E+00  0.24169901554E+03  0.24169901554E+03  0.00000000000E+00 0. -1.
         21   -1    0    0  502  503 -0.00000000000E+00 -0.00000000000E+00 -0.11344266490E+03  0.11344266490E+03  0.00000000000E+00 0.  1.
         24    1    1    2    0    0  0.11197410297E+02 -0.17907128943E+02  0.49644846250E+02  0.96839423676E+02  0.80419002446E+02 0. -1.
          1    1    1    2  501    0  0.90094653760E+01  0.59373143990E+02  0.15658537294E+03  0.16770605151E+03  0.00000000000E+00 0. -1.
         -2    1    1    2    0  503 -0.20206875673E+02 -0.41466015046E+02 -0.77973868552E+02  0.90596205248E+02  0.00000000000E+00 0.  1.
<mgrwt>
<rscale>  2 0.94663186E+02</rscale>
<asrwt>0</asrwt>
<pdfrwt beam="1">  1       21 0.37184464E-01 0.94663186E+02</pdfrwt>
<pdfrwt beam="2">  1       21 0.17452718E-01 0.94663186E+02</pdfrwt>
<totfact> 0.21280873E+05</totfact>
</mgrwt>
</event>
<event>
 5    1  0.1946229E+000  0.1321337E+03  0.7546771E-02  0.1224324E+00
         21   -1    0    0  501  502  0.00000000000E+00  0.00000000000E+00  0.12289938550E+03  0.12289938550E+03  0.00000000000E+00 0. -1.
         21   -1    0    0  502  503 -0.00000000000E+00 -0.00000000000E+00 -0.37257630577E+03  0.37257630577E+03  0.00000000000E+00 0.  1.
         24    1    1    2    0    0 -0.61128842830E+01 -0.92650221077E+02  0.25278517801E+02  0.12540992878E+03  0.80419002446E+02 0.  0.
          1    1    1    2  501    0  0.51872229205E+02  0.20047278970E+02  0.22863825039E+02  0.60127997241E+02  0.00000000000E+00 0. -1.
         -2    1    1    2    0  503 -0.45759344922E+02  0.72602942107E+02 -0.29781926311E+03  0.30993776525E+03  0.00000000000E+00 0.  1.
<mgrwt>
<rscale>  2 0.13213369E+03</rscale>
<asrwt>0</asrwt>
<pdfrwt beam="1">  1       21 0.18907598E-01 0.13213369E+03</pdfrwt>
<pdfrwt beam="2">  1       21 0.57319431E-01 0.13213369E+03</pdfrwt>
<totfact> 0.75189859E+04</totfact>
</mgrwt>
</event>
<event>
 5    1  0.1946229E+000  0.1201485E+03  0.7546771E-02  0.1242852E+00
         21   -1    0    0  503  502  0.00000000000E+00  0.00000000000E+00  0.87516275478E+02  0.87516275478E+02  0.00000000000E+00 0.  1.
         21   -1    0    0  501  503 -0.00000000000E+00 -0.00000000000E+00 -0.17169526788E+03  0.17169526788E+03  0.00000000000E+00 0. -1.
         24    1    1    2    0    0  0.95377133679E+01  0.69683337166E+01 -0.48811220688E+01  0.81428293351E+02  0.80419002446E+02 0.  0.
          1    1    1    2  501    0  0.56522805177E+02  0.47158243096E+02 -0.33514899104E+02  0.80882481780E+02  0.00000000000E+00 0. -1.
         -2    1    1    2    0  502 -0.66060518545E+02 -0.54126576812E+02 -0.45782971225E+02  0.96900768222E+02  0.00000000000E+00 0.  1.
<mgrwt>
<rscale>  2 0.12014845E+03</rscale>
<asrwt>0</asrwt>
<pdfrwt beam="1">  1       21 0.13464042E-01 0.12014845E+03</pdfrwt>
<pdfrwt beam="2">  1       21 0.26414657E-01 0.12014845E+03</pdfrwt>
<totfact> 0.65396309E+05</totfact>
</mgrwt>
</event>
<event>
 5    1  0.1946229E+000  0.7669805E+02  0.7546771E-02  0.1338692E+00
         21   -1    0    0  501  502  0.00000000000E+00  0.00000000000E+00  0.45696157356E+03  0.45696157356E+03  0.00000000000E+00 0.  1.
         21   -1    0    0  502  503 -0.00000000000E+00 -0.00000000000E+00 -0.19332361824E+02  0.19332361824E+02  0.00000000000E+00 0.  1.
         24    1    1    2    0    0 -0.11885464190E+01  0.31129537392E+02  0.21982657438E+03  0.23613851761E+03  0.80419002446E+02 0.  1.
          1    1    1    2  501    0 -0.28177786529E+02 -0.23807331319E+02  0.20325477178E+03  0.20657511692E+03  0.00000000000E+00 0. -1.
         -2    1    1    2    0  503  0.29366332948E+02 -0.73222060726E+01  0.14547865568E+02  0.33580300850E+02  0.00000000000E+00 0.  1.
<mgrwt>
<rscale>  2 0.76698051E+02</rscale>
<asrwt>0</asrwt>
<pdfrwt beam="1">  1       21 0.70301772E-01 0.76698051E+02</pdfrwt>
<pdfrwt beam="2">  1       21 0.29742099E-02 0.76698051E+02</pdfrwt>
<totfact> 0.11714095E+06</totfact>
</mgrwt>
</event>
<event>
 5    1  0.1946229E+000  0.7109090E+02  0.7546771E-02  0.1356422E+00
         21   -1    0    0  501  502  0.00000000000E+00  0.00000000000E+00  0.18537257412E+03  0.18537257412E+03  0.00000000000E+00 0.  1.
         21   -1    0    0  502  503 -0.00000000000E+00 -0.00000000000E+00 -0.30406728830E+02  0.30406728830E+02  0.00000000000E+00 0. -1.
         24    1    1    2    0    0 -0.93034135531E+01 -0.46443723833E+00  0.53960916062E+02  0.97292166295E+02  0.80419002446E+02 0. -1.
          1    1    1    2  501    0 -0.66098245200E+01 -0.27915939887E+02  0.56390012398E+02  0.63267866870E+02  0.00000000000E+00 0. -1.
         -2    1    1    2    0  503  0.15913238073E+02  0.28380377126E+02  0.44614916826E+02  0.55219269781E+02  0.00000000000E+00 0.  1.
<mgrwt>
<rscale>  2 0.71090898E+02</rscale>
<asrwt>0</asrwt>
<pdfrwt beam="1">  1       21 0.28518857E-01 0.71090898E+02</pdfrwt>
<pdfrwt beam="2">  1       21 0.46779584E-02 0.71090898E+02</pdfrwt>
<totfact> 0.33978901E+06</totfact>
</mgrwt>
</event>
<event>
 5    1  0.1946229E+000  0.1871838E+03  0.7546771E-02  0.1161026E+00
         21   -1    0    0  501  502  0.00000000000E+00  0.00000000000E+00  0.16238022081E+03  0.16238022081E+03  0.00000000000E+00 0. -1.
         21   -1    0    0  502  503 -0.00000000000E+00 -0.00000000000E+00 -0.27964950634E+03  0.27964950634E+03  0.00000000000E+00 0. -1.
         24    1    1    2    0    0 -0.75479443103E+02  0.15683304865E+03 -0.10841963513E+03  0.22026298989E+03  0.80419002446E+02 0. -1.
          1    1    1    2  501    0  0.25105488310E+02 -0.11333036512E+03  0.55964101293E+02  0.12886441649E+03  0.00000000000E+00 0. -1.
         -2    1    1    2    0  503  0.50373954793E+02 -0.43502683526E+02 -0.64813751698E+02  0.92902320771E+02  0.00000000000E+00 0.  1.
<mgrwt>
<rscale>  2 0.18718385E+03</rscale>
<asrwt>0</asrwt>
<pdfrwt beam="1">  1       21 0.24981572E-01 0.18718385E+03</pdfrwt>
<pdfrwt beam="2">  1       21 0.43023001E-01 0.18718385E+03</pdfrwt>
<totfact> 0.78976403E+04</totfact>
</mgrwt>
</event>
<event>
 5    1  0.1946229E+000  0.9747264E+02  0.7546771E-02  0.1285702E+00
         21   -1    0    0  503  502  0.00000000000E+00  0.00000000000E+00  0.18970116643E+03  0.18970116643E+03  0.00000000000E+00 0. -1.
         21   -1    0    0  501  503 -0.00000000000E+00 -0.00000000000E+00 -0.80319895800E+02  0.80319895800E+02  0.00000000000E+00 0. -1.
         24    1    1    2    0    0 -0.67836081694E+02  0.20500842616E+02  0.91917299191E+02  0.14120206929E+03  0.80419002446E+02 0. -1.
          1    1    1    2  501    0  0.66278534027E+02  0.91516471780E+00 -0.32949840414E+02  0.74022790967E+02  0.00000000000E+00 0. -1.
         -2    1    1    2    0  502  0.15575476675E+01 -0.21416007334E+02  0.50413811852E+02  0.54796201969E+02  0.00000000000E+00 0.  1.
<mgrwt>
<rscale>  2 0.97472635E+02</rscale>
<asrwt>0</asrwt>
<pdfrwt beam="1">  1       21 0.29184794E-01 0.97472635E+02</pdfrwt>
<pdfrwt beam="2">  1       21 0.12356907E-01 0.97472635E+02</pdfrwt>
<totfact> 0.62965681E+05</totfact>
</mgrwt>
</event>
<event>
 5    1  0.1946229E+000  0.6648114E+02  0.7546771E-02  0.1372485E+00
         21   -1    0    0  501  502  0.00000000000E+00  0.00000000000E+00  0.28245348567E+02  0.28245348567E+02  0.00000000000E+00 0.  1.
         21   -1    0    0  502  503 -0.00000000000E+00 -0.00000000000E+00 -0.30681621206E+03  0.30681621206E+03  0.00000000000E+00 0. -1.
         24    1    1    2    0    0 -0.61762682619E+01  0.57421712184E+01 -0.21277947830E+03  0.22762566016E+03  0.80419002446E+02 0. -1.
          1    1    1    2  501    0  0.47367844358E+01 -0.28705613110E+02  0.79729099325E+01  0.30166482121E+02  0.00000000000E+00 0. -1.
         -2    1    1    2    0  503  0.14394838261E+01  0.22963441891E+02 -0.73764295120E+02  0.77269418347E+02  0.00000000000E+00 0.  1.
<mgrwt>
<rscale>  2 0.66481144E+02</rscale>
<asrwt>0</asrwt>
<pdfrwt beam="1">  1       21 0.43454379E-02 0.66481144E+02</pdfrwt>
<pdfrwt beam="2">  1       21 0.47202497E-01 0.66481144E+02</pdfrwt>
<totfact> 0.14367631E+06</totfact>
</mgrwt>
</event>
<event>
 5    1  0.1946229E+000  0.7607253E+02  0.7546771E-02  0.1340582E+00
         21   -1    0    0  501  502  0.00000000000E+00  0.00000000000E+00  0.32528753091E+03  0.32528753091E+03  0.00000000000E+00 0. -1.
         21   -1    0    0  502  503 -0.00000000000E+00 -0.00000000000E+00 -0.32024320219E+02  0.32024320219E+02  0.00000000000E+00 0. -1.
         24    1    1    2    0    0 -0.23096396320E+01  0.30190160733E+02  0.99961505644E+02  0.13181918982E+03  0.80419002446E+02 0. -1.
          1    1    1    2  501    0  0.21406819941E+02 -0.39531510031E+02  0.19856581921E+03  0.20359120016E+03  0.00000000000E+00 0. -1.
         -2    1    1    2    0  503 -0.19097180309E+02  0.93413492984E+01 -0.52641141605E+01  0.21901461147E+02  0.00000000000E+00 0.  1.
<mgrwt>
<rscale>  2 0.76072527E+02</rscale>
<asrwt>0</asrwt>
<pdfrwt beam="1">  1       21 0.50044233E-01 0.76072527E+02</pdfrwt>
<pdfrwt beam="2">  1       21 0.49268187E-02 0.76072527E+02</pdfrwt>
<totfact> 0.10426865E+06</totfact>
</mgrwt>
</event>
<event>
 5    1  0.1946229E+000  0.8254618E+02  0.7546771E-02  0.1321977E+00
         21   -1    0    0  501  502  0.00000000000E+00  0.00000000000E+00  0.10059177924E+03  0.10059177924E+03  0.00000000000E+00 0. -1.
         21   -1    0    0  502  503 -0.00000000000E+00 -0.00000000000E+00 -0.11181149069E+03  0.11181149069E+03  0.00000000000E+00 0. -1.
         24    1    1    2    0    0  0.46417730002E+02 -0.40639501980E+02 -0.43356310992E+02  0.11024137353E+03  0.80419002446E+02 0. -1.
          1    1    1    2  501    0 -0.13537340980E+02  0.22294941203E+02  0.53033125448E+02  0.59100223340E+02  0.00000000000E+00 0. -1.
         -2    1    1    2    0  503 -0.32880389022E+02  0.18344560777E+02 -0.20896525908E+02  0.43061673067E+02  0.00000000000E+00 0.  1.
<mgrwt>
<rscale>  2 0.82546178E+02</rscale>
<asrwt>0</asrwt>
<pdfrwt beam="1">  1       21 0.15475658E-01 0.82546178E+02</pdfrwt>
<pdfrwt beam="2">  1       21 0.17201768E-01 0.82546178E+02</pdfrwt>
<totfact> 0.11214306E+06</totfact>
</mgrwt>
</event>
<event>
 5    1  0.1946229E+000  0.6889618E+02  0.7546771E-02  0.1363887E+00
         21   -1    0    0  501  502  0.00000000000E+00  0.00000000000E+00  0.14017451385E+04  0.14017451385E+04  0.00000000000E+00 0.  1.
         21   -1    0    0  502  503 -0.00000000000E+00 -0.00000000000E+00 -0.44533531960E+01  0.44533531960E+01  0.00000000000E+00 0. -1.
         24    1    1    2    0    0 -0.89088122729E+00  0.12166665798E+02  0.67461666689E+03  0.67950252731E+03  0.80419002446E+02 0. -1.
          1    1    1    2  501    0 -0.16226931292E+02  0.16450668805E+02  0.56787555019E+03  0.56834547444E+03  0.00000000000E+00 0. -1.
         -2    1    1    2    0  503  0.17117812519E+02 -0.28617334604E+02  0.15479956824E+03  0.15835048996E+03  0.00000000000E+00 0.  1.
<mgrwt>
<rscale>  2 0.68896178E+02</rscale>
<asrwt>0</asrwt>
<pdfrwt beam="1">  1       21 0.21565275E+00 0.68896178E+02</pdfrwt>
<pdfrwt beam="2">  1       21 0.68513238E-03 0.68896178E+02</pdfrwt>
<totfact> 0.76913857E+05</totfact>
</mgrwt>
</event>
<event>
 5    1  0.1946229E+000  0.7180810E+02  0.7546771E-02  0.1354050E+00
         21   -1    0    0  503  502  0.00000000000E+00  0.00000000000E+00  0.79977407032E+02  0.79977407032E+02  0.00000000000E+00 0. -1.
         21   -1    0    0  501  503 -0.00000000000E+00 -0.00000000000E+00 -0.81713957402E+02  0.81713957402E+02  0.00000000000E+00 0.  1.
         24    1    1    2    0    0 -0.49026804364E+02 -0.28464825885E+01 -0.15145513214E+02  0.95437584495E+02  0.80419002446E+02 0.  1.
          1    1    1    2  501    0  0.20275672913E+02  0.37648875664E+01 -0.15249911954E+02  0.25648335327E+02  0.00000000000E+00 0. -1.
         -2    1    1    2    0  502  0.28751131452E+02 -0.91840497791E+00  0.28658874798E+02  0.40605444612E+02  0.00000000000E+00 0.  1.
<mgrwt>
<rscale>  2 0.71808104E+02</rscale>
<asrwt>0</asrwt>
<pdfrwt beam="1">  1       21 0.12304217E-01 0.71808104E+02</pdfrwt>
<pdfrwt beam="2">  1       21 0.12571378E-01 0.71808104E+02</pdfrwt>
<totfact> 0.29154063E+06</totfact>
</mgrwt>
</event>
<event>
 5    1  0.1946229E+000  0.1134443E+03  0.7546771E-02  0.1254321E+00
         21   -1    0    0  503  502  0.00000000000E+00  0.00000000000E+00  0.45976614373E+02  0.45976614373E+02  0.00000000000E+00 0.  1.
         21   -1    0    0  501  503 -0.00000000000E+00 -0.00000000000E+00 -0.78801267120E+03  0.78801267120E+03  0.00000000000E+00 0. -1.
         24    1    1    2    0    0  0.20246051339E+02  0.63575187758E+02 -0.17706072437E+03  0.20559528974E+03  0.80419002446E+02 0.  1.
          1    1    1    2  501    0  0.30351566662E+02  0.10992997211E+02 -0.53116655700E+03  0.53214657273E+03  0.00000000000E+00 0. -1.
         -2    1    1    2    0  502 -0.50597618000E+02 -0.74568184968E+02 -0.33808775450E+02  0.96247423104E+02  0.00000000000E+00 0.  1.
<mgrwt>
<rscale>  2 0.11344433E+03</rscale>
<asrwt>0</asrwt>
<pdfrwt beam="1">  1       21 0.70733257E-02 0.11344433E+03</pdfrwt>
<pdfrwt beam="2">  1       21 0.12123271E+00 0.11344433E+03</pdfrwt>
<totfact> 0.79597158E+04</totfact>
</mgrwt>
</event>
<event>
 5    1  0.1946229E+000  0.6630317E+02  0.7546771E-02  0.1373135E+00
         21   -1    0    0  501  502  0.00000000000E+00  0.00000000000E+00  0.88088664443E+02  0.88088664443E+02  0.00000000000E+00 0. -1.
         21   -1    0    0  502  503 -0.00000000000E+00 -0.00000000000E+00 -0.11740472005E+03  0.11740472005E+03  0.00000000000E+00 0. -1.
         24    1    1    2    0    0  0.12691924938E+02  0.39440564898E+02 -0.85731727545E+02  0.12463461871E+03  0.80419002446E+02 0. -1.
          1    1    1    2  501    0 -0.23619822323E+01 -0.19890757672E+02  0.55191334005E+02  0.58713750946E+02  0.00000000000E+00 0. -1.
         -2    1    1    2    0  503 -0.10329942706E+02 -0.19549807226E+02  0.12243379334E+01  0.22145014840E+02  0.00000000000E+00 0.  1.
<mgrwt>
<rscale>  2 0.66303167E+02</rscale>
<asrwt>0</asrwt>
<pdfrwt beam="1">  1       21 0.13552102E-01 0.66303167E+02</pdfrwt>
<pdfrwt beam="2">  1       21 0.18062265E-01 0.66303167E+02</pdfrwt>
<totfact> 0.12900522E+06</totfact>
</mgrwt>
</event>
<event>
 5    1  0.1946229E+000  0.1086672E+03  0.7546771E-02  0.1263058E+00
         21   -1    0    0  503  502  0.00000000000E+00  0.00000000000E+00  0.28809302647E+02  0.28809302647E+02  0.00000000000E+00 0. -1.
         21   -1    0    0  501  503 -0.00000000000E+00 -0.00000000000E+00 -0.48253220767E+03  0.48253220767E+03  0.00000000000E+00 0.  1.
         24    1    1    2    0    0 -0.46225015969E+02 -0.19545428140E+02 -0.11032327238E+03  0.14545520357E+03  0.80419002446E+02 0.  0.
          1    1    1    2  501    0  0.50332410596E+02  0.62016270261E+02 -0.26306928101E+03  0.27492692837E+03  0.00000000000E+00 0. -1.
         -2    1    1    2    0  502 -0.41073946262E+01 -0.42470842121E+02 -0.80330351631E+02  0.90959378374E+02  0.00000000000E+00 0.  1.
<mgrwt>
<rscale>  2 0.10866721E+03</rscale>
<asrwt>0</asrwt>
<pdfrwt beam="1">  1       21 0.44322009E-02 0.10866721E+03</pdfrwt>
<pdfrwt beam="2">  1       21 0.74235716E-01 0.10866721E+03</pdfrwt>
<totfact> 0.54245160E+05</totfact>
</mgrwt>
</event>
<event>
 5    1  0.1946229E+000  0.7664416E+02  0.7546771E-02  0.1338854E+00
         21   -1    0    0  503  502  0.00000000000E+00  0.00000000000E+00  0.19025044844E+03  0.19025044844E+03  0.00000000000E+00 0. -1.
         21   -1    0    0  501  503 -0.00000000000E+00 -0.00000000000E+00 -0.59232403103E+02  0.59232403103E+02  0.00000000000E+00 0.  1.
         24    1    1    2    0    0 -0.11649085372E+02 -0.30756067865E+02 -0.76775764995E+01  0.87222692207E+02  0.80419002446E+02 0.  1.
          1    1    1    2  501    0  0.23009479568E+02 -0.92629046732E+01  0.95486012465E+01  0.26578437477E+02  0.00000000000E+00 0. -1.
         -2    1    1    2    0  502 -0.11360394195E+02  0.40018972538E+02  0.12914702059E+03  0.13568172186E+03  0.00000000000E+00 0.  1.
<mgrwt>
<rscale>  2 0.76644159E+02</rscale>
<asrwt>0</asrwt>
<pdfrwt beam="1">  1       21 0.29269299E-01 0.76644159E+02</pdfrwt>
<pdfrwt beam="2">  1       21 0.91126775E-02 0.76644159E+02</pdfrwt>
<totfact> 0.10594072E+06</totfact>
</mgrwt>
</event>
<event>
 5    1  0.1946229E+000  0.1246750E+03  0.7546771E-02  0.1235578E+00
         21   -1    0    0  503  502  0.00000000000E+00  0.00000000000E+00  0.18182452363E+04  0.18182452363E+04  0.00000000000E+00 0. -1.
         21   -1    0    0  501  503 -0.00000000000E+00 -0.00000000000E+00 -0.99817406783E+01  0.99817406783E+01  0.00000000000E+00 0. -1.
         24    1    1    2    0    0  0.89902037313E+02  0.15239643932E+02  0.77407558513E+03  0.78356547302E+03  0.80419002446E+02 0. -1.
          1    1    1    2  501    0 -0.94844900653E+02  0.15962027596E+02  0.47816242098E+03  0.48773931802E+03  0.00000000000E+00 0. -1.
         -2    1    1    2    0  502  0.49428633406E+01 -0.31201671528E+02  0.55602548951E+03  0.55692218594E+03  0.00000000000E+00 0.  1.
<mgrwt>
<rscale>  2 0.12467502E+03</rscale>
<asrwt>0</asrwt>
<pdfrwt beam="1">  1       21 0.27972977E+00 0.12467502E+03</pdfrwt>
<pdfrwt beam="2">  1       21 0.15356539E-02 0.12467502E+03</pdfrwt>
<totfact> 0.89626659E+04</totfact>
</mgrwt>
</event>
<event>
 5    1  0.1946229E+000  0.9631442E+02  0.7546771E-02  0.1288243E+00
         21   -1    0    0  501  502  0.00000000000E+00  0.00000000000E+00  0.10153150632E+03  0.10153150632E+03  0.00000000000E+00 0. -1.
         21   -1    0    0  502  503 -0.00000000000E+00 -0.00000000000E+00 -0.22656065705E+03  0.22656065705E+03  0.00000000000E+00 0. -1.
         24    1    1    2    0    0 -0.10575499400E+02  0.82419644137E+01 -0.72260425929E+02  0.10894290374E+03  0.80419002446E+02 0. -1.
          1    1    1    2  501    0  0.60682594068E+02 -0.40470178066E+01  0.66257581303E+02  0.89937882208E+02  0.00000000000E+00 0. -1.
         -2    1    1    2    0  503 -0.50107094668E+02 -0.41949466071E+01 -0.11902630610E+03  0.12921137743E+03  0.00000000000E+00 0.  1.
<mgrwt>
<rscale>  2 0.96314420E+02</rscale>
<asrwt>0</asrwt>
<pdfrwt beam="1">  1       21 0.15620232E-01 0.96314420E+02</pdfrwt>
<pdfrwt beam="2">  1       21 0.34855486E-01 0.96314420E+02</pdfrwt>
<totfact> 0.29481212E+05</totfact>
</mgrwt>
</event>
<event>
 5    1  0.1946229E+000  0.7364081E+02  0.7546771E-02  0.1348132E+00
         21   -1    0    0  503  502  0.00000000000E+00  0.00000000000E+00  0.80508270567E+02  0.80508270567E+02  0.00000000000E+00 0. -1.
         21   -1    0    0  501  503 -0.00000000000E+00 -0.00000000000E+00 -0.38281154543E+03  0.38281154543E+03  0.00000000000E+00 0. -1.
         24    1    1    2    0    0  0.48158947429E+00 -0.51556192213E+02 -0.13521533920E+01  0.95536993657E+02  0.80419002446E+02 0. -1.
          1    1    1    2  501    0  0.20134446994E+01  0.25090882274E+02 -0.32852153124E+03  0.32948445005E+03  0.00000000000E+00 0. -1.
         -2    1    1    2    0  502 -0.24950341737E+01  0.26465309938E+02  0.27570409768E+02  0.38298372295E+02  0.00000000000E+00 0.  1.
<mgrwt>
<rscale>  2 0.73640811E+02</rscale>
<asrwt>0</asrwt>
<pdfrwt beam="1">  1       21 0.12385888E-01 0.73640811E+02</pdfrwt>
<pdfrwt beam="2">  1       21 0.58894083E-01 0.73640811E+02</pdfrwt>
<totfact> 0.15588979E+05</totfact>
</mgrwt>
</event>
<event>
 5    1  0.1946229E+000  0.7936050E+02  0.7546771E-02  0.1330876E+00
         21   -1    0    0  501  502  0.00000000000E+00  0.00000000000E+00  0.26788023243E+03  0.26788023243E+03  0.00000000000E+00 0.  1.
         21   -1    0    0  502  503 -0.00000000000E+00 -0.00000000000E+00 -0.58651290863E+02  0.58651290863E+02  0.00000000000E+00 0.  1.
         24    1    1    2    0    0  0.43413814743E+02 -0.24004196483E+02  0.16745109874E+03  0.19227076528E+03  0.80419002446E+02 0.  1.
          1    1    1    2  501    0 -0.15683473262E+02  0.31773842267E+02  0.79361374465E+02  0.86912462529E+02  0.00000000000E+00 0. -1.
         -2    1    1    2    0  503 -0.27730341482E+02 -0.77696457835E+01 -0.37583531639E+02  0.47348295479E+02  0.00000000000E+00 0.  1.
<mgrwt>
<rscale>  2 0.79360499E+02</rscale>
<asrwt>0</asrwt>
<pdfrwt beam="1">  1       21 0.41212343E-01 0.79360499E+02</pdfrwt>
<pdfrwt beam="2">  1       21 0.90232757E-02 0.79360499E+02</pdfrwt>
<totfact> 0.55591150E+05</totfact>
</mgrwt>
</event>
<event>
 5    1  0.1946229E+000  0.2475393E+03  0.7546771E-02  0.1114870E+00
         21   -1    0    0  503  502  0.00000000000E+00  0.00000000000E+00  0.16347651321E+03  0.16347651321E+03  0.00000000000E+00 0. -1.
         21   -1    0    0  501  503 -0.00000000000E+00 -0.00000000000E+00 -0.41605011649E+03  0.41605011649E+03  0.00000000000E+00 0.  1.
         24    1    1    2    0    0 -0.15753418688E+03 -0.15678211748E+03 -0.12219600801E+03  0.26607655426E+03  0.80419002446E+02 0.  1.
          1    1    1    2  501    0  0.15542056726E+03  0.17862567469E+03 -0.15301974543E+03  0.28191794352E+03  0.00000000000E+00 0. -1.
         -2    1    1    2    0  502  0.21136196213E+01 -0.21843557208E+02  0.22642150164E+02  0.31532131920E+02  0.00000000000E+00 0.  1.
<mgrwt>
<rscale>  2 0.24753934E+03</rscale>
<asrwt>0</asrwt>
<pdfrwt beam="1">  1       21 0.25150233E-01 0.24753934E+03</pdfrwt>
<pdfrwt beam="2">  1       21 0.64007709E-01 0.24753934E+03</pdfrwt>
<totfact> 0.32839743E+04</totfact>
</mgrwt>
</event>
<event>
 5    1  0.1946229E+000  0.1115960E+03  0.7546771E-02  0.1257643E+00
         21   -1    0    0  503  502  0.00000000000E+00  0.00000000000E+00  0.83881078899E+03  0.83881078899E+03  0.00000000000E+00 0. -1.
         21   -1    0    0  501  503 -0.00000000000E+00 -0.00000000000E+00 -0.18362989917E+02  0.18362989917E+02  0.00000000000E+00 0.  1.
         24    1    1    2    0    0 -0.39361755822E+02 -0.71817883868E+02  0.59875117664E+03  0.60965346202E+03  0.80419002446E+02 0. -1.
          1    1    1    2  501    0  0.60279534170E+02  0.52400925210E+02  0.14279036060E+03  0.16361102128E+03  0.00000000000E+00 0. -1.
         -2    1    1    2    0  502 -0.20917778348E+02  0.19416958658E+02  0.78906261830E+02  0.83909295615E+02  0.00000000000E+00 0.  1.
<mgrwt>
<rscale>  2 0.11159601E+03</rscale>
<asrwt>0</asrwt>
<pdfrwt beam="1">  1       21 0.12904778E+00 0.11159601E+03</pdfrwt>
<pdfrwt beam="2">  1       21 0.28250760E-02 0.11159601E+03</pdfrwt>
<totfact> 0.31520917E+05</totfact>
</mgrwt>
</event>
<event>
 5    1  0.1946229E+000  0.6791153E+02  0.7546771E-02  0.1367343E+00
         21   -1    0    0  503  502  0.00000000000E+00  0.00000000000E+00  0.55258090398E+03  0.55258090398E+03  0.00000000000E+00 0.  1.
         21   -1    0    0  501  503 -0.00000000000E+00 -0.00000000000E+00 -0.12002279657E+02  0.12002279657E+02  0.00000000000E+00 0.  1.
         24    1    1    2    0    0  0.10098835850E-01  0.43667924368E+02  0.35931421469E+03  0.37078404571E+03  0.80419002446E+02 0.  1.
          1    1    1    2  501    0 -0.37687265678E+01 -0.20993616316E+02  0.15296232475E+02  0.26247094199E+02  0.00000000000E+00 0. -1.
         -2    1    1    2    0  502  0.37586277319E+01 -0.22674308052E+02  0.16596817716E+03  0.16755204373E+03  0.00000000000E+00 0.  1.
<mgrwt>
<rscale>  2 0.67911531E+02</rscale>
<asrwt>0</asrwt>
<pdfrwt beam="1">  1       21 0.85012427E-01 0.67911531E+02</pdfrwt>
<pdfrwt beam="2">  1       21 0.18465050E-02 0.67911531E+02</pdfrwt>
<totfact> 0.16540438E+06</totfact>
</mgrwt>
</event>
<event>
 5    1  0.2157259E+000  0.7434456E+02  0.7546771E-02  0.1345913E+00
         21   -1    0    0  503  502  0.00000000000E+00  0.00000000000E+00  0.18560874004E+03  0.18560874004E+03  0.00000000000E+00 0.  1.
         21   -1    0    0  501  503 -0.00000000000E+00 -0.00000000000E+00 -0.55282806469E+03  0.55282806469E+03  0.00000000000E+00 0. -1.
         24    1    1    2    0    0  0.62403152781E+00 -0.18699127817E+02 -0.36185524880E+02  0.90147961495E+02  0.80419002446E+02 0. -1.
          1    1    1    2  501    0 -0.20446402237E+02  0.34949067185E+02 -0.48778155546E+03  0.48945923069E+03  0.00000000000E+00 0. -1.
         -2    1    1    2    0  502  0.19822370709E+02 -0.16249939368E+02  0.15674775569E+03  0.15882961255E+03  0.00000000000E+00 0.  1.
<mgrwt>
<rscale>  2 0.74344561E+02</rscale>
<asrwt>0</asrwt>
<pdfrwt beam="1">  1       21 0.28555191E-01 0.74344561E+02</pdfrwt>
<pdfrwt beam="2">  1       21 0.85050471E-01 0.74344561E+02</pdfrwt>
<totfact> 0.15564967E+04</totfact>
</mgrwt>
</event>
<event>
 5    1  0.1946229E+000  0.1639679E+03  0.7546771E-02  0.1184288E+00
         21   -1    0    0  503  502  0.00000000000E+00  0.00000000000E+00  0.16297404198E+04  0.16297404198E+04  0.00000000000E+00 0.  1.
         21   -1    0    0  501  503 -0.00000000000E+00 -0.00000000000E+00 -0.34141637894E+02  0.34141637894E+02  0.00000000000E+00 0. -1.
         24    1    1    2    0    0 -0.16817238989E+02  0.78352638298E+02  0.46539202718E+03  0.47903957078E+03  0.80419002446E+02 0.  0.
          1    1    1    2  501    0  0.63712183427E+02 -0.12992142526E+03  0.17491500368E+03  0.22701118380E+03  0.00000000000E+00 0. -1.
         -2    1    1    2    0  502 -0.46894944438E+02  0.51568786965E+02  0.95529175102E+03  0.95783130309E+03  0.00000000000E+00 0.  1.
<mgrwt>
<rscale>  2 0.16396789E+03</rscale>
<asrwt>0</asrwt>
<pdfrwt beam="1">  1       21 0.25072924E+00 0.16396789E+03</pdfrwt>
<pdfrwt beam="2">  1       21 0.52525609E-02 0.16396789E+03</pdfrwt>
<totfact> 0.16739796E+04</totfact>
</mgrwt>
</event>
<event>
 5    1  0.1946229E+000  0.8727303E+02  0.7546771E-02  0.1309593E+00
         21   -1    0    0  501  502  0.00000000000E+00  0.00000000000E+00  0.74358746126E+02  0.74358746126E+02  0.00000000000E+00 0.  1.
         21   -1    0    0  502  503 -0.00000000000E+00 -0.00000000000E+00 -0.12417380490E+03  0.12417380490E+03  0.00000000000E+00 0. -1.
         24    1    1    2    0    0  0.40383576466E+02 -0.25847569365E+02  0.40951164967E+01  0.93717213060E+02  0.80419002446E+02 0.  1.
          1    1    1    2  501    0  0.10333451162E+01  0.37797760592E+02 -0.27439793639E+01  0.37911316657E+02  0.00000000000E+00 0. -1.
         -2    1    1    2    0  503 -0.41416921582E+02 -0.11950191227E+02 -0.51166195906E+02  0.66904021308E+02  0.00000000000E+00 0.  1.
<mgrwt>
<rscale>  2 0.87273030E+02</rscale>
<asrwt>0</asrwt>
<pdfrwt beam="1">  1       21 0.11439807E-01 0.87273030E+02</pdfrwt>
<pdfrwt beam="2">  1       21 0.19103662E-01 0.87273030E+02</pdfrwt>
<totfact> 0.15839904E+06</totfact>
</mgrwt>
</event>
<event>
 5    1  0.1946229E+000  0.1309084E+03  0.7546771E-02  0.1226114E+00
         21   -1    0    0  503  502  0.00000000000E+00  0.00000000000E+00  0.46212079794E+02  0.46212079794E+02  0.00000000000E+00 0.  1.
         21   -1    0    0  501  503 -0.00000000000E+00 -0.00000000000E+00 -0.14060784452E+04  0.14060784452E+04  0.00000000000E+00 0. -1.
         24    1    1    2    0    0  0.46728178373E+02  0.61365794155E+02 -0.99134027946E+03  0.99758310380E+03  0.80419002446E+02 0. -1.
          1    1    1    2  501    0 -0.88653518571E+02 -0.18767486566E+02 -0.38269863200E+03  0.39328095281E+03  0.00000000000E+00 0. -1.
         -2    1    1    2    0  502  0.41925340198E+02 -0.42598307589E+02  0.14172546035E+02  0.61426468409E+02  0.00000000000E+00 0.  1.
<mgrwt>
<rscale>  2 0.13090836E+03</rscale>
<asrwt>0</asrwt>
<pdfrwt beam="1">  1       21 0.71095500E-02 0.13090836E+03</pdfrwt>
<pdfrwt beam="2">  1       21 0.21631978E+00 0.13090836E+03</pdfrwt>
<totfact> 0.16522980E+04</totfact>
</mgrwt>
</event>
<event>
 5    1  0.1946229E+000  0.8967365E+02  0.7546771E-02  0.1303644E+00
         21   -1    0    0  501  502  0.00000000000E+00  0.00000000000E+00  0.12230238599E+03  0.12230238599E+03  0.00000000000E+00 0.  1.
         21   -1    0    0  502  503 -0.00000000000E+00 -0.00000000000E+00 -0.75192596477E+02  0.75192596477E+02  0.00000000000E+00 0.  1.
         24    1    1    2    0    0 -0.80305432933E+01 -0.75472026288E+01  0.23808576838E+02  0.84590272364E+02  0.80419002446E+02 0.  1.
          1    1    1    2  501    0 -0.33694549228E+02 -0.27651338423E+02  0.36375375029E+02  0.56772238575E+02  0.00000000000E+00 0. -1.
         -2    1    1    2    0  503  0.41725092521E+02  0.35198541052E+02 -0.13074162359E+02  0.56132471525E+02  0.00000000000E+00 0.  1.
<mgrwt>
<rscale>  2 0.89673654E+02</rscale>
<asrwt>0</asrwt>
<pdfrwt beam="1">  1       21 0.18815752E-01 0.89673654E+02</pdfrwt>
<pdfrwt beam="2">  1       21 0.11568092E-01 0.89673654E+02</pdfrwt>
<totfact> 0.15985081E+06</totfact>
</mgrwt>
</event>
<event>
 5    1  0.1946229E+000  0.1497899E+03  0.7546771E-02  0.1200731E+00
         21   -1    0    0  501  502  0.00000000000E+00  0.00000000000E+00  0.46624161094E+03  0.46624161094E+03  0.00000000000E+00 0.  1.
         21   -1    0    0  502  503 -0.00000000000E+00 -0.00000000000E+00 -0.62566064676E+02  0.62566064676E+02  0.00000000000E+00 0.  1.
         24    1    1    2    0    0 -0.61181830232E+02  0.12119591794E+03  0.15252627795E+03  0.21946104049E+03  0.80419002446E+02 0.  1.
          1    1    1    2  501    0  0.17589692533E+02 -0.79642337903E+02  0.23236055641E+03  0.24625947179E+03  0.00000000000E+00 0. -1.
         -2    1    1    2    0  503  0.43592137699E+02 -0.41553580034E+02  0.18788711908E+02  0.63087163338E+02  0.00000000000E+00 0.  1.
<mgrwt>
<rscale>  2 0.14978990E+03</rscale>
<asrwt>0</asrwt>
<pdfrwt beam="1">  1       21 0.71729476E-01 0.14978990E+03</pdfrwt>
<pdfrwt beam="2">  1       21 0.96255487E-02 0.14978990E+03</pdfrwt>
<totfact> 0.15459595E+05</totfact>
</mgrwt>
</event>
<event>
 5    1  0.1946229E+000  0.1178598E+03  0.7546771E-02  0.1246670E+00
         21   -1    0    0  501  502  0.00000000000E+00  0.00000000000E+00  0.10841077881E+04  0.10841077881E+04  0.00000000000E+00 0. -1.
         21   -1    0    0  502  503 -0.00000000000E+00 -0.00000000000E+00 -0.14874131188E+02  0.14874131188E+02  0.00000000000E+00 0. -1.
         24    1    1    2    0    0  0.36526739621E+02 -0.61573218931E+02  0.39818697959E+03  0.41248703091E+03  0.80419002446E+02 0. -1.
          1    1    1    2  501    0 -0.39762999748E+02  0.90548693422E+02  0.61889647650E+03  0.62674796422E+03  0.00000000000E+00 0. -1.
         -2    1    1    2    0  503  0.32362601266E+01 -0.28975474491E+02  0.52150200861E+02  0.59746924201E+02  0.00000000000E+00 0.  1.
<mgrwt>
<rscale>  2 0.11785983E+03</rscale>
<asrwt>0</asrwt>
<pdfrwt beam="1">  1       21 0.16678575E+00 0.11785983E+03</pdfrwt>
<pdfrwt beam="2">  1       21 0.22883287E-02 0.11785983E+03</pdfrwt>
<totfact> 0.22930365E+05</totfact>
</mgrwt>
</event>
<event>
 5    1  0.2414261E+000  0.7655848E+02  0.7546771E-02  0.1339112E+00
         21   -1    0    0  503  502  0.00000000000E+00  0.00000000000E+00  0.76203409385E+03  0.76203409385E+03  0.00000000000E+00 0. -1.
         21   -1    0    0  501  503 -0.00000000000E+00 -0.00000000000E+00 -0.42567179900E+02  0.42567179900E+02  0.00000000000E+00 0. -1.
         24    1    1    2    0    0  0.39307451541E+02 -0.38653275206E+02  0.70709515527E+03  0.71378563028E+03  0.80419002446E+02 0. -1.
          1    1    1    2  501    0 -0.17758245599E+02  0.22614098796E+02 -0.29418377700E+02  0.41136282010E+02  0.00000000000E+00 0. -1.
         -2    1    1    2    0  502 -0.21549205943E+02  0.16039176409E+02  0.41790136381E+02  0.49679361463E+02  0.00000000000E+00 0.  1.
<mgrwt>
<rscale>  2 0.76558480E+02</rscale>
<asrwt>0</asrwt>
<pdfrwt beam="1">  1       21 0.11723600E+00 0.76558480E+02</pdfrwt>
<pdfrwt beam="2">  1       21 0.65487975E-02 0.76558480E+02</pdfrwt>
<totfact> 0.10068100E+05</totfact>
</mgrwt>
</event>
<event>
 5    1  0.1946229E+000  0.1257219E+03  0.7546771E-02  0.1233945E+00
         21   -1    0    0  503  502  0.00000000000E+00  0.00000000000E+00  0.30622504270E+03  0.30622504270E+03  0.00000000000E+00 0.  1.
         21   -1    0    0  501  503 -0.00000000000E+00 -0.00000000000E+00 -0.91480306685E+02  0.91480306685E+02  0.00000000000E+00 0. -1.
         24    1    1    2    0    0  0.44690580523E+02 -0.56317001290E+02  0.91006036596E+01  0.10825382009E+03  0.80419002446E+02 0. -1.
          1    1    1    2  501    0 -0.51434201806E+02  0.92999972460E+02  0.30764428053E+02  0.11063870040E+03  0.00000000000E+00 0. -1.
         -2    1    1    2    0  502  0.67436212828E+01 -0.36682971171E+02  0.17487970430E+03  0.17881282890E+03  0.00000000000E+00 0.  1.
<mgrwt>
<rscale>  2 0.12572187E+03</rscale>
<asrwt>0</asrwt>
<pdfrwt beam="1">  1       21 0.47111545E-01 0.12572187E+03</pdfrwt>
<pdfrwt beam="2">  1       21 0.14073893E-01 0.12572187E+03</pdfrwt>
<totfact> 0.19351568E+05</totfact>
</mgrwt>
</event>
<event>
 5    1  0.1946229E+000  0.8986702E+02  0.7546771E-02  0.1303174E+00
         21   -1    0    0  501  502  0.00000000000E+00  0.00000000000E+00  0.11468526687E+03  0.11468526687E+03  0.00000000000E+00 0. -1.
         21   -1    0    0  502  503 -0.00000000000E+00 -0.00000000000E+00 -0.16660430649E+03  0.16660430649E+03  0.00000000000E+00 0.  1.
         24    1    1    2    0    0 -0.69396884235E+02  0.17843069336E+02 -0.79760975845E+02  0.13402735500E+03  0.80419002446E+02 0.  0.
          1    1    1    2  501    0  0.30158265362E+02 -0.11495977021E+02  0.77325652893E+02  0.83791020119E+02  0.00000000000E+00 0. -1.
         -2    1    1    2    0  503  0.39238618873E+02 -0.63470923156E+01 -0.49483716661E+02  0.63471198244E+02  0.00000000000E+00 0.  1.
<mgrwt>
<rscale>  2 0.89867017E+02</rscale>
<asrwt>0</asrwt>
<pdfrwt beam="1">  1       21 0.17643887E-01 0.89867017E+02</pdfrwt>
<pdfrwt beam="2">  1       21 0.25631432E-01 0.89867017E+02</pdfrwt>
<totfact> 0.42626592E+05</totfact>
</mgrwt>
</event>
<event>
 5    1  0.1946229E+000  0.6801807E+02  0.7546771E-02  0.1366965E+00
         21   -1    0    0  501  502  0.00000000000E+00  0.00000000000E+00  0.17081570578E+03  0.17081570578E+03  0.00000000000E+00 0. -1.
         21   -1    0    0  502  503 -0.00000000000E+00 -0.00000000000E+00 -0.42478547765E+02  0.42478547765E+02  0.00000000000E+00 0.  1.
         24    1    1    2    0    0  0.19523777988E+02 -0.18282212136E+02  0.39846377023E+02  0.93650237073E+02  0.80419002446E+02 0.  1.
          1    1    1    2  501    0 -0.16629181717E+02 -0.12226392802E+02  0.86505931742E+02  0.88934192480E+02  0.00000000000E+00 0. -1.
         -2    1    1    2    0  503 -0.28945962711E+01  0.30508604938E+02  0.19848492458E+01  0.30709823988E+02  0.00000000000E+00 0.  1.
<mgrwt>
<rscale>  2 0.68018073E+02</rscale>
<asrwt>0</asrwt>
<pdfrwt beam="1">  1       21 0.26279339E-01 0.68018073E+02</pdfrwt>
<pdfrwt beam="2">  1       21 0.65351613E-02 0.68018073E+02</pdfrwt>
<totfact> 0.22672892E+06</totfact>
</mgrwt>
</event>
<event>
 5    1  0.1946229E+000  0.9768555E+02  0.7546771E-02  0.1285240E+00
         21   -1    0    0  503  502  0.00000000000E+00  0.00000000000E+00  0.35859129114E+02  0.35859129114E+02  0.00000000000E+00 0.  1.
         21   -1    0    0  501  503 -0.00000000000E+00 -0.00000000000E+00 -0.64393639628E+03  0.64393639628E+03  0.00000000000E+00 0.  1.
         24    1    1    2    0    0  0.18874166981E+02  0.60785810490E+02 -0.52495212047E+03  0.53487670886E+03  0.80419002446E+02 0.  1.
          1    1    1    2  501    0  0.11565619791E+02 -0.61286373558E+02 -0.93813424970E+02  0.11265319281E+03  0.00000000000E+00 0. -1.
         -2    1    1    2    0  502 -0.30439786772E+02  0.50056306836E+00  0.10688278276E+02  0.32265623729E+02  0.00000000000E+00 0.  1.
<mgrwt>
<rscale>  2 0.97685554E+02</rscale>
<asrwt>0</asrwt>
<pdfrwt beam="1">  1       21 0.55167890E-02 0.97685554E+02</pdfrwt>
<pdfrwt beam="2">  1       21 0.99067140E-01 0.97685554E+02</pdfrwt>
<totfact> 0.19713630E+05</totfact>
</mgrwt>
</event>
<event>
 5    1  0.1946229E+000  0.1163122E+03  0.7546771E-02  0.1249308E+00
         21   -1    0    0  503  502  0.00000000000E+00  0.00000000000E+00  0.29878244109E+03  0.29878244109E+03  0.00000000000E+00 0. -1.
         21   -1    0    0  501  503 -0.00000000000E+00 -0.00000000000E+00 -0.68107066472E+02  0.68107066472E+02  0.00000000000E+00 0. -1.
         24    1    1    2    0    0 -0.86722750554E+02  0.83744702541E+01  0.16608808131E+03  0.20406722893E+03  0.80419002446E+02 0. -1.
          1    1    1    2  501    0  0.67508790163E+02  0.27869504395E+02 -0.13820801858E+02  0.74331423964E+02  0.00000000000E+00 0. -1.
         -2    1    1    2    0  502  0.19213960391E+02 -0.36243974649E+02  0.78408095159E+02  0.88490854662E+02  0.00000000000E+00 0.  1.
<mgrwt>
<rscale>  2 0.11631221E+03</rscale>
<asrwt>0</asrwt>
<pdfrwt beam="1">  1       21 0.45966529E-01 0.11631221E+03</pdfrwt>
<pdfrwt beam="2">  1       21 0.10478010E-01 0.11631221E+03</pdfrwt>
<totfact> 0.34377372E+05</totfact>
</mgrwt>
</event>
<event>
 5    1  0.1946229E+000  0.7264736E+02  0.7546771E-02  0.1351315E+00
         21   -1    0    0  501  502  0.00000000000E+00  0.00000000000E+00  0.87048398704E+01  0.87048398704E+01  0.00000000000E+00 0.  1.
         21   -1    0    0  502  503 -0.00000000000E+00 -0.00000000000E+00 -0.80016886211E+03  0.80016886211E+03  0.00000000000E+00 0. -1.
         24    1    1    2    0    0  0.28509769133E+02  0.20342388017E+01 -0.48142925241E+03  0.48893587115E+03  0.80419002446E+02 0.  0.
          1    1    1    2  501    0  0.62599769855E+01 -0.19896353734E+02 -0.26513210677E+02  0.33734293295E+02  0.00000000000E+00 0. -1.
         -2    1    1    2    0  503 -0.34769746119E+02  0.17862114932E+02 -0.28352155915E+03  0.28620353753E+03  0.00000000000E+00 0.  1.
<mgrwt>
<rscale>  2 0.72647360E+02</rscale>
<asrwt>0</asrwt>
<pdfrwt beam="1">  1       21 0.13392059E-02 0.72647360E+02</pdfrwt>
<pdfrwt beam="2">  1       21 0.12310293E+00 0.72647360E+02</pdfrwt>
<totfact> 0.11715982E+06</totfact>
</mgrwt>
</event>
<event>
 5    1  0.1946229E+000  0.9889894E+02  0.7546771E-02  0.1282629E+00
         21   -1    0    0  501  502  0.00000000000E+00  0.00000000000E+00  0.38383014087E+03  0.38383014087E+03  0.00000000000E+00 0.  1.
         21   -1    0    0  502  503 -0.00000000000E+00 -0.00000000000E+00 -0.39667433774E+02  0.39667433774E+02  0.00000000000E+00 0.  1.
         24    1    1    2    0    0  0.58631752309E+02 -0.42295527593E+02  0.30644210229E+03  0.32496241636E+03  0.80419002446E+02 0.  1.
          1    1    1    2  501    0  0.23035805614E+00  0.29401172913E+02  0.20572855105E+02  0.35884877047E+02  0.00000000000E+00 0. -1.
         -2    1    1    2    0  503 -0.58862110365E+02  0.12894354679E+02  0.17147749694E+02  0.62650281235E+02  0.00000000000E+00 0.  1.
<mgrwt>
<rscale>  2 0.98898940E+02</rscale>
<asrwt>0</asrwt>
<pdfrwt beam="1">  1       21 0.59050788E-01 0.98898940E+02</pdfrwt>
<pdfrwt beam="2">  1       21 0.61026824E-02 0.98898940E+02</pdfrwt>
<totfact> 0.51928247E+05</totfact>
</mgrwt>
</event>
<event>
 5    1  0.1946229E+000  0.6907573E+02  0.7546771E-02  0.1363265E+00
         21   -1    0    0  501  502  0.00000000000E+00  0.00000000000E+00  0.62504136629E+02  0.62504136629E+02  0.00000000000E+00 0.  1.
         21   -1    0    0  502  503 -0.00000000000E+00 -0.00000000000E+00 -0.11073100625E+03  0.11073100625E+03  0.00000000000E+00 0. -1.
         24    1    1    2    0    0 -0.47125522320E+00 -0.12989861192E+02 -0.53078326846E+02  0.97229025041E+02  0.80419002446E+02 0. -1.
          1    1    1    2  501    0 -0.25215544932E+02  0.17386153636E+02  0.27738678495E+02  0.41322346607E+02  0.00000000000E+00 0. -1.
         -2    1    1    2    0  503  0.25686800155E+02 -0.43962924437E+01 -0.22887221272E+02  0.34683771234E+02  0.00000000000E+00 0.  1.
<mgrwt>
<rscale>  2 0.69075734E+02</rscale>
<asrwt>0</asrwt>
<pdfrwt beam="1">  1       21 0.96160210E-02 0.69075734E+02</pdfrwt>
<pdfrwt beam="2">  1       21 0.17035539E-01 0.69075734E+02</pdfrwt>
<totfact> 0.26028915E+06</totfact>
</mgrwt>
</event>
<event>
 5    1  0.1946229E+000  0.7739602E+02  0.7546771E-02  0.1336608E+00
         21   -1    0    0  501  502  0.00000000000E+00  0.00000000000E+00  0.12473759864E+03  0.12473759864E+03  0.00000000000E+00 0. -1.
         21   -1    0    0  502  503 -0.00000000000E+00 -0.00000000000E+00 -0.75556465236E+02  0.75556465236E+02  0.00000000000E+00 0. -1.
         24    1    1    2    0    0 -0.52795269532E+02 -0.19000138923E+02 -0.12130426344E+02  0.98806421662E+02  0.80419002446E+02 0. -1.
          1    1    1    2  501    0  0.27666022324E+02  0.55013169461E+01  0.66734706535E+02  0.72451323906E+02  0.00000000000E+00 0. -1.
         -2    1    1    2    0  503  0.25129247208E+02  0.13498821976E+02 -0.54231467844E+01  0.29036318311E+02  0.00000000000E+00 0.  1.
<mgrwt>
<rscale>  2 0.77396016E+02</rscale>
<asrwt>0</asrwt>
<pdfrwt beam="1">  1       21 0.19190400E-01 0.77396016E+02</pdfrwt>
<pdfrwt beam="2">  1       21 0.11624072E-01 0.77396016E+02</pdfrwt>
<totfact> 0.15213616E+06</totfact>
</mgrwt>
</event>
<event>
 5    1  0.1946229E+000  0.7397879E+02  0.7546771E-02  0.1347063E+00
         21   -1    0    0  503  502  0.00000000000E+00  0.00000000000E+00  0.15817937547E+04  0.15817937547E+04  0.00000000000E+00 0. -1.
         21   -1    0    0  501  503 -0.00000000000E+00 -0.00000000000E+00 -0.46304715729E+01  0.46304715729E+01  0.00000000000E+00 0. -1.
         24    1    1    2    0    0  0.78178516259E+00  0.26806845075E+02  0.48402198891E+03  0.49138958051E+03  0.80419002446E+02 0. -1.
          1    1    1    2  501    0  0.28171838893E+02 -0.14999874215E+02  0.44756133174E+03  0.44869788767E+03  0.00000000000E+00 0. -1.
         -2    1    1    2    0  502 -0.28953624056E+02 -0.11806970861E+02  0.64557996252E+03  0.64633675813E+03  0.00000000000E+00 0.  1.
<mgrwt>
<rscale>  2 0.73978790E+02</rscale>
<asrwt>0</asrwt>
<pdfrwt beam="1">  1       21 0.24335246E+00 0.73978790E+02</pdfrwt>
<pdfrwt beam="2">  1       21 0.71238150E-03 0.73978790E+02</pdfrwt>
<totfact> 0.50236304E+05</totfact>
</mgrwt>
</event>
<event>
 5    1  0.1946229E+000  0.8295951E+02  0.7546771E-02  0.1320857E+00
         21   -1    0    0  503  502  0.00000000000E+00  0.00000000000E+00  0.36153189340E+03  0.36153189340E+03  0.00000000000E+00 0.  1.
         21   -1    0    0  501  503 -0.00000000000E+00 -0.00000000000E+00 -0.45664441063E+02  0.45664441063E+02  0.00000000000E+00 0. -1.
         24    1    1    2    0    0  0.27593079399E+02  0.12042327760E+02  0.29657416167E+03  0.30875531576E+03  0.80419002446E+02 0.  1.
          1    1    1    2  501    0 -0.15599358997E+00  0.29916061257E+02 -0.18926729700E+02  0.35400793103E+02  0.00000000000E+00 0. -1.
         -2    1    1    2    0  502 -0.27437085809E+02 -0.41958389017E+02  0.38220020375E+02  0.63040225603E+02  0.00000000000E+00 0.  1.
<mgrwt>
<rscale>  2 0.82959514E+02</rscale>
<asrwt>0</asrwt>
<pdfrwt beam="1">  1       21 0.55620289E-01 0.82959514E+02</pdfrwt>
<pdfrwt beam="2">  1       21 0.70252989E-02 0.82959514E+02</pdfrwt>
<totfact> 0.46415696E+05</totfact>
</mgrwt>
</event>
<event>
 5    1  0.1946229E+000  0.6355641E+02  0.7546771E-02  0.1383485E+00
         21   -1    0    0  503  502  0.00000000000E+00  0.00000000000E+00  0.91467030572E+02  0.91467030572E+02  0.00000000000E+00 0.  1.
         21   -1    0    0  501  503 -0.00000000000E+00 -0.00000000000E+00 -0.87705016404E+02  0.87705016404E+02  0.00000000000E+00 0. -1.
         24    1    1    2    0    0 -0.16667880321E+02  0.13809486900E+02  0.54867770202E+02  0.99730678952E+02  0.80419002446E+02 0.  1.
          1    1    1    2  501    0  0.22074800807E+02  0.63417944911E+01 -0.53710660753E+02  0.58415325614E+02  0.00000000000E+00 0. -1.
         -2    1    1    2    0  502 -0.54069204865E+01 -0.20151281391E+02  0.26049047192E+01  0.21026042411E+02  0.00000000000E+00 0.  1.
<mgrwt>
<rscale>  2 0.63556412E+02</rscale>
<asrwt>0</asrwt>
<pdfrwt beam="1">  1       21 0.14071851E-01 0.63556412E+02</pdfrwt>
<pdfrwt beam="2">  1       21 0.13493079E-01 0.63556412E+02</pdfrwt>
<totfact> 0.20218914E+06</totfact>
</mgrwt>
</event>
<event>
 5    1  0.1946229E+000  0.8212558E+02  0.7546771E-02  0.1323125E+00
         21   -1    0    0  501  502  0.00000000000E+00  0.00000000000E+00  0.71146013157E+02  0.71146013157E+02  0.00000000000E+00 0. -1.
         21   -1    0    0  502  503 -0.00000000000E+00 -0.00000000000E+00 -0.65058072119E+03  0.65058072119E+03  0.00000000000E+00 0. -1.
         24    1    1    2    0    0 -0.13470121357E+02 -0.37491813666E+02 -0.25397490778E+03  0.26936508682E+03  0.80419002446E+02 0. -1.
          1    1    1    2  501    0 -0.98172260431E+01  0.47973632242E+02  0.53509116469E+02  0.72533253497E+02  0.00000000000E+00 0. -1.
         -2    1    1    2    0  503  0.23287347400E+02 -0.10481818576E+02 -0.37896891672E+03  0.37982839403E+03  0.00000000000E+00 0.  1.
<mgrwt>
<rscale>  2 0.82125576E+02</rscale>
<asrwt>0</asrwt>
<pdfrwt beam="1">  1       21 0.10945541E-01 0.82125576E+02</pdfrwt>
<pdfrwt beam="2">  1       21 0.10008934E+00 0.82125576E+02</pdfrwt>
<totfact> 0.60364157E+04</totfact>
</mgrwt>
</event>
<event>
 5    1  0.1946229E+000  0.8716916E+02  0.7546771E-02  0.1309855E+00
         21   -1    0    0  503  502  0.00000000000E+00  0.00000000000E+00  0.53534604845E+02  0.53534604845E+02  0.00000000000E+00 0.  1.
         21   -1    0    0  501  503 -0.00000000000E+00 -0.00000000000E+00 -0.14004069701E+04  0.14004069701E+04  0.00000000000E+00 0. -1.
         24    1    1    2    0    0  0.44610461709E+02 -0.51588559882E+02 -0.37997861295E+03  0.39433797060E+03  0.80419002446E+02 0.  1.
          1    1    1    2  501    0 -0.13064297099E+02  0.22310022361E+02 -0.10030558126E+04  0.10033889456E+04  0.00000000000E+00 0. -1.
         -2    1    1    2    0  502 -0.31546164611E+02  0.29278537522E+02  0.36162060251E+02  0.56214658788E+02  0.00000000000E+00 0.  1.
<mgrwt>
<rscale>  2 0.87169158E+02</rscale>
<asrwt>0</asrwt>
<pdfrwt beam="1">  1       21 0.82360932E-02 0.87169158E+02</pdfrwt>
<pdfrwt beam="2">  1       21 0.21544722E+00 0.87169158E+02</pdfrwt>
<totfact> 0.13784383E+04</totfact>
</mgrwt>
</event>
<event>
 5    1  0.1946229E+000  0.8220109E+02  0.7546771E-02  0.1322919E+00
         21   -1    0    0  501  502  0.00000000000E+00  0.00000000000E+00  0.34132766024E+02  0.34132766024E+02  0.00000000000E+00 0. -1.
         21   -1    0    0  502  503 -0.00000000000E+00 -0.00000000000E+00 -0.22361980225E+03  0.22361980225E+03  0.00000000000E+00 0.  1.
         24    1    1    2    0    0  0.48389641437E+02 -0.57755897230E+00 -0.67462794743E+02  0.11558691795E+03  0.80419002446E+02 0. -1.
          1    1    1    2  501    0 -0.36168559254E+02  0.24497668679E+02 -0.57020299162E+02  0.71830459874E+02  0.00000000000E+00 0. -1.
         -2    1    1    2    0  503 -0.12221082183E+02 -0.23920109707E+02 -0.65003942319E+02  0.70335190446E+02  0.00000000000E+00 0.  1.
<mgrwt>
<rscale>  2 0.82201093E+02</rscale>
<asrwt>0</asrwt>
<pdfrwt beam="1">  1       21 0.52511949E-02 0.82201093E+02</pdfrwt>
<pdfrwt beam="2">  1       21 0.34403046E-01 0.82201093E+02</pdfrwt>
<totfact> 0.19757582E+06</totfact>
</mgrwt>
</event>
<event>
 5    1  0.1946229E+000  0.9393287E+02  0.7546771E-02  0.1293598E+00
         21   -1    0    0  501  502  0.00000000000E+00  0.00000000000E+00  0.55246391034E+03  0.55246391034E+03  0.00000000000E+00 0.  1.
         21   -1    0    0  502  503 -0.00000000000E+00 -0.00000000000E+00 -0.22281301254E+02  0.22281301254E+02  0.00000000000E+00 0. -1.
         24    1    1    2    0    0 -0.70522907353E+02  0.29160329959E+02  0.34734626364E+03  0.36460999455E+03  0.80419002446E+02 0. -1.
          1    1    1    2  501    0  0.18754947504E+02 -0.12810122587E+02  0.13762341532E+03  0.13948495166E+03  0.00000000000E+00 0. -1.
         -2    1    1    2    0  503  0.51767959849E+02 -0.16350207372E+02  0.45212930130E+02  0.70650265385E+02  0.00000000000E+00 0.  1.
<mgrwt>
<rscale>  2 0.93932870E+02</rscale>
<asrwt>0</asrwt>
<pdfrwt beam="1">  1       21 0.84994437E-01 0.93932870E+02</pdfrwt>
<pdfrwt beam="2">  1       21 0.34278929E-02 0.93932870E+02</pdfrwt>
<totfact> 0.61459352E+05</totfact>
</mgrwt>
</event>
<event>
 5    1  0.1946229E+000  0.8238438E+02  0.7546771E-02  0.1322418E+00
         21   -1    0    0  503  502  0.00000000000E+00  0.00000000000E+00  0.22203049620E+02  0.22203049620E+02  0.00000000000E+00 0.  1.
         21   -1    0    0  501  503 -0.00000000000E+00 -0.00000000000E+00 -0.55880242615E+03  0.55880242615E+03  0.00000000000E+00 0. -1.
         24    1    1    2    0    0  0.76684681495E+01 -0.17109903117E+02 -0.13200057267E+03  0.15570138512E+03  0.80419002446E+02 0.  0.
          1    1    1    2  501    0 -0.18912149979E+02  0.46782983785E+02 -0.38438011135E+03  0.38767820030E+03  0.00000000000E+00 0. -1.
         -2    1    1    2    0  502  0.11243681829E+02 -0.29673080668E+02 -0.20218692501E+02  0.37625890340E+02  0.00000000000E+00 0.  1.
<mgrwt>
<rscale>  2 0.82384384E+02</rscale>
<asrwt>0</asrwt>
<pdfrwt beam="1">  1       21 0.34158538E-02 0.82384384E+02</pdfrwt>
<pdfrwt beam="2">  1       21 0.85969603E-01 0.82384384E+02</pdfrwt>
<totfact> 0.60267294E+05</totfact>
</mgrwt>
</event>
<event>
 5    1  0.1946229E+000  0.1711311E+03  0.7546771E-02  0.1176673E+00
         21   -1    0    0  503  502  0.00000000000E+00  0.00000000000E+00  0.15522518443E+03  0.15522518443E+03  0.00000000000E+00 0.  1.
         21   -1    0    0  501  503 -0.00000000000E+00 -0.00000000000E+00 -0.15960161505E+04  0.15960161505E+04  0.00000000000E+00 0. -1.
         24    1    1    2    0    0  0.15717769576E+03  0.15767260543E+01 -0.37971268321E+03  0.41875559919E+03  0.80419002446E+02 0. -1.
          1    1    1    2  501    0 -0.10150444643E+03  0.24197837527E+02 -0.11874411064E+04  0.11920172269E+04  0.00000000000E+00 0. -1.
         -2    1    1    2    0  502 -0.55673249323E+02 -0.25774563582E+02  0.12636282353E+03  0.14046850888E+03  0.00000000000E+00 0.  1.
<mgrwt>
<rscale>  2 0.17113106E+03</rscale>
<asrwt>0</asrwt>
<pdfrwt beam="1">  1       21 0.23880796E-01 0.17113106E+03</pdfrwt>
<pdfrwt beam="2">  1       21 0.24554096E+00 0.17113106E+03</pdfrwt>
<totfact> 0.11998900E+03</totfact>
</mgrwt>
</event>
<event>
 5    1  0.1946229E+000  0.7066551E+02  0.7546771E-02  0.1357844E+00
         21   -1    0    0  501  502  0.00000000000E+00  0.00000000000E+00  0.40349172771E+02  0.40349172771E+02  0.00000000000E+00 0. -1.
         21   -1    0    0  502  503 -0.00000000000E+00 -0.00000000000E+00 -0.53597932526E+03  0.53597932526E+03  0.00000000000E+00 0.  1.
         24    1    1    2    0    0 -0.15877276954E+02  0.43334133860E+02 -0.25971450033E+03  0.27576941947E+03  0.80419002446E+02 0. -1.
          1    1    1    2  501    0  0.13723681765E+02 -0.15538410058E+02  0.28186552001E+02  0.34989474732E+02  0.00000000000E+00 0. -1.
         -2    1    1    2    0  503  0.21535951888E+01 -0.27795723802E+02 -0.26410220416E+03  0.26556960383E+03  0.00000000000E+00 0.  1.
<mgrwt>
<rscale>  2 0.70665513E+02</rscale>
<asrwt>0</asrwt>
<pdfrwt beam="1">  1       21 0.62075645E-02 0.70665513E+02</pdfrwt>
<pdfrwt beam="2">  1       21 0.82458365E-01 0.70665513E+02</pdfrwt>
<totfact> 0.24703023E+05</totfact>
</mgrwt>
</event>
<event>
 5    1  0.1946229E+000  0.8050547E+02  0.7546771E-02  0.1327623E+00
         21   -1    0    0  503  502  0.00000000000E+00  0.00000000000E+00  0.80541062727E+02  0.80541062727E+02  0.00000000000E+00 0. -1.
         21   -1    0    0  501  503 -0.00000000000E+00 -0.00000000000E+00 -0.11071277417E+03  0.11071277417E+03  0.00000000000E+00 0.  1.
         24    1    1    2    0    0  0.13081001907E+02  0.42210142164E+02  0.28593870877E+02  0.96112611652E+02  0.80419002446E+02 0.  0.
          1    1    1    2  501    0  0.20495282478E+02 -0.21968520080E+02 -0.43932204217E+02  0.53223219047E+02  0.00000000000E+00 0. -1.
         -2    1    1    2    0  502 -0.33576284386E+02 -0.20241622084E+02 -0.14833378104E+02  0.41918006199E+02  0.00000000000E+00 0.  1.
<mgrwt>
<rscale>  2 0.80505471E+02</rscale>
<asrwt>0</asrwt>
<pdfrwt beam="1">  1       21 0.12390933E-01 0.80505471E+02</pdfrwt>
<pdfrwt beam="2">  1       21 0.17032734E-01 0.80505471E+02</pdfrwt>
<totfact> 0.16901623E+06</totfact>
</mgrwt>
</event>
<event>
 5    1  0.1946229E+000  0.1109774E+03  0.7546771E-02  0.1258770E+00
         21   -1    0    0  501  502  0.00000000000E+00  0.00000000000E+00  0.70902514249E+02  0.70902514249E+02  0.00000000000E+00 0. -1.
         21   -1    0    0  502  503 -0.00000000000E+00 -0.00000000000E+00 -0.49898446042E+03  0.49898446042E+03  0.00000000000E+00 0.  1.
         24    1    1    2    0    0 -0.12134597636E+01 -0.68461536145E+02 -0.42903694123E+03  0.44184654272E+03  0.80419002446E+02 0.  1.
          1    1    1    2  501    0 -0.23717396225E+02 -0.15776022551E+02  0.23967599842E+02  0.37226920547E+02  0.00000000000E+00 0. -1.
         -2    1    1    2    0  503  0.24930855989E+02  0.84237558696E+02 -0.23012604786E+02  0.90813511409E+02  0.00000000000E+00 0.  1.
<mgrwt>
<rscale>  2 0.11097742E+03</rscale>
<asrwt>0</asrwt>
<pdfrwt beam="1">  1       21 0.10908079E-01 0.11097742E+03</pdfrwt>
<pdfrwt beam="2">  1       21 0.76766843E-01 0.11097742E+03</pdfrwt>
<totfact> 0.10849223E+05</totfact>
</mgrwt>
</event>
<event>
 5    1  0.2018866E+000  0.7622228E+02  0.7546771E-02  0.1340127E+00
         21   -1    0    0  501  502  0.00000000000E+00  0.00000000000E+00  0.18395934396E+03  0.18395934396E+03  0.00000000000E+00 0. -1.
         21   -1    0    0  502  503 -0.00000000000E+00 -0.00000000000E+00 -0.49284784278E+03  0.49284784278E+03  0.00000000000E+00 0.  1.
         24    1    1    2    0    0  0.52195809667E+02  0.16854115499E+02  0.16831914545E+03  0.19444025930E+03  0.80419002446E+02 0. -1.
          1    1    1    2  501    0 -0.26886060951E+02 -0.11442126369E+02 -0.97651837807E+02  0.10192970105E+03  0.00000000000E+00 0. -1.
         -2    1    1    2    0  503 -0.25309748715E+02 -0.54119891303E+01 -0.37955580646E+03  0.38043722639E+03  0.00000000000E+00 0.  1.
<mgrwt>
<rscale>  2 0.76222283E+02</rscale>
<asrwt>0</asrwt>
<pdfrwt beam="1">  1       21 0.28301438E-01 0.76222283E+02</pdfrwt>
<pdfrwt beam="2">  1       21 0.75822744E-01 0.76222283E+02</pdfrwt>
<totfact> 0.20324963E+04</totfact>
</mgrwt>
</event>
<event>
 5    1  0.1946229E+000  0.7248498E+02  0.7546771E-02  0.1351841E+00
         21   -1    0    0  501  502  0.00000000000E+00  0.00000000000E+00  0.45516639339E+03  0.45516639339E+03  0.00000000000E+00 0.  1.
         21   -1    0    0  502  503 -0.00000000000E+00 -0.00000000000E+00 -0.17095314718E+02  0.17095314718E+02  0.00000000000E+00 0. -1.
         24    1    1    2    0    0  0.29606560856E+02  0.42336008342E+01  0.16809498535E+03  0.18872628825E+03  0.80419002446E+02 0. -1.
          1    1    1    2  501    0  0.48155175494E+01 -0.20528336347E+02  0.21843563183E+03  0.21945096732E+03  0.00000000000E+00 0. -1.
         -2    1    1    2    0  503 -0.34422078406E+02  0.16294735512E+02  0.51540461494E+02  0.64084452546E+02  0.00000000000E+00 0.  1.
<mgrwt>
<rscale>  2 0.72484975E+02</rscale>
<asrwt>0</asrwt>
<pdfrwt beam="1">  1       21 0.70025590E-01 0.72484975E+02</pdfrwt>
<pdfrwt beam="2">  1       21 0.26300488E-02 0.72484975E+02</pdfrwt>
<totfact> 0.14381927E+06</totfact>
</mgrwt>
</event>
<event>
 5    1  0.1946229E+000  0.8527624E+02  0.7546771E-02  0.1314712E+00
         21   -1    0    0  503  502  0.00000000000E+00  0.00000000000E+00  0.55049771055E+03  0.55049771055E+03  0.00000000000E+00 0.  1.
         21   -1    0    0  501  503 -0.00000000000E+00 -0.00000000000E+00 -0.39018191448E+02  0.39018191448E+02  0.00000000000E+00 0. -1.
         24    1    1    2    0    0  0.34668402827E+01 -0.37738665644E+02  0.27092695924E+03  0.28514006920E+03  0.80419002446E+02 0.  0.
          1    1    1    2  501    0  0.31905499850E+02  0.33104059122E+02 -0.13431733896E+02  0.47898341584E+02  0.00000000000E+00 0. -1.
         -2    1    1    2    0  502 -0.35372340132E+02  0.46346065213E+01  0.25398429376E+03  0.25647749122E+03  0.00000000000E+00 0.  1.
<mgrwt>
<rscale>  2 0.85276242E+02</rscale>
<asrwt>0</asrwt>
<pdfrwt beam="1">  1       21 0.84691950E-01 0.85276242E+02</pdfrwt>
<pdfrwt beam="2">  1       21 0.60027991E-02 0.85276242E+02</pdfrwt>
<totfact> 0.24525066E+05</totfact>
</mgrwt>
</event>
<event>
 5    1  0.1946229E+000  0.1047181E+03  0.7546771E-02  0.1270676E+00
         21   -1    0    0  501  502  0.00000000000E+00  0.00000000000E+00  0.16705799607E+02  0.16705799607E+02  0.00000000000E+00 0.  1.
         21   -1    0    0  502  503 -0.00000000000E+00 -0.00000000000E+00 -0.16628500790E+04  0.16628500790E+04  0.00000000000E+00 0.  1.
         24    1    1    2    0    0 -0.23718703164E+01 -0.39025963347E+02 -0.31547826410E+03  0.32790608817E+03  0.80419002446E+02 0.  1.
          1    1    1    2  501    0  0.81093330427E+01 -0.39984246832E+02 -0.35551568372E+02  0.54114834296E+02  0.00000000000E+00 0. -1.
         -2    1    1    2    0  503 -0.57374627263E+01  0.79010210179E+02 -0.12951144469E+04  0.12975349561E+04  0.00000000000E+00 0.  1.
<mgrwt>
<rscale>  2 0.10471808E+03</rscale>
<asrwt>0</asrwt>
<pdfrwt beam="1">  1       21 0.25701235E-02 0.10471808E+03</pdfrwt>
<pdfrwt beam="2">  1       21 0.25582304E+00 0.10471808E+03</pdfrwt>
<totfact> 0.54561703E+04</totfact>
</mgrwt>
</event>
<event>
 5    1  0.1946229E+000  0.6887106E+02  0.7546771E-02  0.1363975E+00
         21   -1    0    0  503  502  0.00000000000E+00  0.00000000000E+00  0.13473012925E+02  0.13473012925E+02  0.00000000000E+00 0. -1.
         21   -1    0    0  501  503 -0.00000000000E+00 -0.00000000000E+00 -0.64393645604E+03  0.64393645604E+03  0.00000000000E+00 0.  1.
         24    1    1    2    0    0  0.79027014682E+01 -0.14908492112E+02 -0.13504176679E+03  0.15807659713E+03  0.80419002446E+02 0. -1.
          1    1    1    2  501    0  0.22454973534E+02  0.18698609020E+01 -0.32230108486E+03  0.32308777680E+03  0.00000000000E+00 0. -1.
         -2    1    1    2    0  502 -0.30357675002E+02  0.13038631209E+02 -0.17312059146E+03  0.17624509503E+03  0.00000000000E+00 0.  1.
<mgrwt>
<rscale>  2 0.68871058E+02</rscale>
<asrwt>0</asrwt>
<pdfrwt beam="1">  1       21 0.20727708E-02 0.68871058E+02</pdfrwt>
<pdfrwt beam="2">  1       21 0.99067168E-01 0.68871058E+02</pdfrwt>
<totfact> 0.97657413E+05</totfact>
</mgrwt>
</event>
<event>
 5    1  0.1946229E+000  0.1141002E+03  0.7546771E-02  0.1253160E+00
         21   -1    0    0  501  502  0.00000000000E+00  0.00000000000E+00  0.15765331416E+03  0.15765331416E+03  0.00000000000E+00 0. -1.
         21   -1    0    0  502  503 -0.00000000000E+00 -0.00000000000E+00 -0.17587391728E+03  0.17587391728E+03  0.00000000000E+00 0.  1.
         24    1    1    2    0    0  0.41810738680E+01 -0.43530035214E+02 -0.17573884209E+02  0.93211601772E+02  0.80419002446E+02 0.  1.
          1    1    1    2  501    0 -0.58866566669E+02  0.55249973988E+02  0.97967207429E+02  0.12694646914E+03  0.00000000000E+00 0. -1.
         -2    1    1    2    0  503  0.54685492801E+02 -0.11719938774E+02 -0.98613926341E+02  0.11336916052E+03  0.00000000000E+00 0.  1.
<mgrwt>
<rscale>  2 0.11410016E+03</rscale>
<asrwt>0</asrwt>
<pdfrwt beam="1">  1       21 0.24254356E-01 0.11410016E+03</pdfrwt>
<pdfrwt beam="2">  1       21 0.27057526E-01 0.11410016E+03</pdfrwt>
<totfact> 0.21319502E+05</totfact>
</mgrwt>
</event>
<event>
 5    1  0.1946229E+000  0.9169784E+02  0.7546771E-02  0.1298791E+00
         21   -1    0    0  501  502  0.00000000000E+00  0.00000000000E+00  0.85778623481E+03  0.85778623481E+03  0.00000000000E+00 0.  1.
         21   -1    0    0  502  503 -0.00000000000E+00 -0.00000000000E+00 -0.17502739754E+02  0.17502739754E+02  0.00000000000E+00 0.  1.
         24    1    1    2    0    0 -0.22221709895E+02 -0.13933679916E+02  0.55279201357E+03  0.55922641036E+03  0.80419002446E+02 0.  1.
          1    1    1    2  501    0 -0.28636049051E+02 -0.22356501237E+02  0.22421434665E+03  0.22713852535E+03  0.00000000000E+00 0. -1.
         -2    1    1    2    0  503  0.50857758946E+02  0.36290181153E+02  0.63277134837E+02  0.88924038855E+02  0.00000000000E+00 0.  1.
<mgrwt>
<rscale>  2 0.91697843E+02</rscale>
<asrwt>0</asrwt>
<pdfrwt beam="1">  1       21 0.13196708E+00 0.91697843E+02</pdfrwt>
<pdfrwt beam="2">  1       21 0.26927299E-02 0.91697843E+02</pdfrwt>
<totfact> 0.32451209E+05</totfact>
</mgrwt>
</event>
<event>
 5    1  0.1946229E+000  0.7253225E+02  0.7546771E-02  0.1351688E+00
         21   -1    0    0  501  502  0.00000000000E+00  0.00000000000E+00  0.17440458823E+04  0.17440458823E+04  0.00000000000E+00 0. -1.
         21   -1    0    0  502  503 -0.00000000000E+00 -0.00000000000E+00 -0.75030641659E+01  0.75030641659E+01  0.00000000000E+00 0. -1.
         24    1    1    2    0    0  0.25326139785E+02 -0.26976413031E+02  0.28930251266E+03  0.30254305479E+03  0.80419002446E+02 0. -1.
          1    1    1    2  501    0  0.92548672189E+01  0.18878204872E+02  0.10420222370E+04  0.10422343218E+04  0.00000000000E+00 0. -1.
         -2    1    1    2    0  503 -0.34581007004E+02  0.80982081592E+01  0.40521806850E+03  0.40677156988E+03  0.00000000000E+00 0.  1.
<mgrwt>
<rscale>  2 0.72532249E+02</rscale>
<asrwt>0</asrwt>
<pdfrwt beam="1">  1       21 0.26831443E+00 0.72532249E+02</pdfrwt>
<pdfrwt beam="2">  1       21 0.11543190E-02 0.72532249E+02</pdfrwt>
<totfact> 0.17367646E+05</totfact>
</mgrwt>
</event>
<event>
 5    1  0.1946229E+000  0.8873096E+02  0.7546771E-02  0.1305954E+00
         21   -1    0    0  501  502  0.00000000000E+00  0.00000000000E+00  0.14066688203E+03  0.14066688203E+03  0.00000000000E+00 0. -1.
         21   -1    0    0  502  503 -0.00000000000E+00 -0.00000000000E+00 -0.73248250673E+03  0.73248250673E+03  0.00000000000E+00 0.  1.
         24    1    1    2    0    0  0.20839582455E+02 -0.42454756620E+02 -0.13623311211E+03  0.16511623586E+03  0.80419002446E+02 0.  1.
          1    1    1    2  501    0 -0.46561781415E+02  0.31459951135E+02  0.11961437619E+03  0.13215644897E+03  0.00000000000E+00 0. -1.
         -2    1    1    2    0  503  0.25722198959E+02  0.10994805485E+02 -0.57519688877E+03  0.57587670392E+03  0.00000000000E+00 0.  1.
<mgrwt>
<rscale>  2 0.88730963E+02</rscale>
<asrwt>0</asrwt>
<pdfrwt beam="1">  1       21 0.21641058E-01 0.88730963E+02</pdfrwt>
<pdfrwt beam="2">  1       21 0.11268962E+00 0.88730963E+02</pdfrwt>
<totfact> 0.13429228E+04</totfact>
</mgrwt>
</event>
<event>
 5    1  0.1946229E+000  0.6455467E+02  0.7546771E-02  0.1379655E+00
         21   -1    0    0  503  502  0.00000000000E+00  0.00000000000E+00  0.34237449737E+02  0.34237449737E+02  0.00000000000E+00 0.  1.
         21   -1    0    0  501  503 -0.00000000000E+00 -0.00000000000E+00 -0.15281612775E+03  0.15281612775E+03  0.00000000000E+00 0. -1.
         24    1    1    2    0    0 -0.10534232047E+02  0.11246971787E+02 -0.31155908895E+02  0.87609194909E+02  0.80419002446E+02 0.  1.
          1    1    1    2  501    0  0.16922628926E+02  0.13513324422E+02 -0.44300006127E+02  0.49309997460E+02  0.00000000000E+00 0. -1.
         -2    1    1    2    0  502 -0.63883968788E+01 -0.24760296209E+02 -0.43122762989E+02  0.50134385115E+02  0.00000000000E+00 0.  1.
<mgrwt>
<rscale>  2 0.64554667E+02</rscale>
<asrwt>0</asrwt>
<pdfrwt beam="1">  1       21 0.52673000E-02 0.64554667E+02</pdfrwt>
<pdfrwt beam="2">  1       21 0.23510173E-01 0.64554667E+02</pdfrwt>
<totfact> 0.39767175E+06</totfact>
</mgrwt>
</event>
<event>
 5    1  0.1946229E+000  0.7714120E+02  0.7546771E-02  0.1337366E+00
         21   -1    0    0  503  502  0.00000000000E+00  0.00000000000E+00  0.12325707556E+03  0.12325707556E+03  0.00000000000E+00 0.  1.
         21   -1    0    0  501  503 -0.00000000000E+00 -0.00000000000E+00 -0.86831912643E+02  0.86831912643E+02  0.00000000000E+00 0.  1.
         24    1    1    2    0    0  0.96890634299E+01  0.53477345311E+02 -0.44986076066E+02  0.10697975232E+03  0.80419002446E+02 0.  1.
          1    1    1    2  501    0 -0.11652182546E+02 -0.16544276026E+02  0.97403039756E+01  0.22457959588E+02  0.00000000000E+00 0. -1.
         -2    1    1    2    0  502  0.19631191166E+01 -0.36933069285E+02  0.71670935003E+02  0.80651276293E+02  0.00000000000E+00 0.  1.
<mgrwt>
<rscale>  2 0.77141201E+02</rscale>
<asrwt>0</asrwt>
<pdfrwt beam="1">  1       21 0.18962627E-01 0.77141201E+02</pdfrwt>
<pdfrwt beam="2">  1       21 0.13358756E-01 0.77141201E+02</pdfrwt>
<totfact> 0.12183604E+06</totfact>
</mgrwt>
</event>
<event>
 5    1  0.1946229E+000  0.8585428E+02  0.7546771E-02  0.1313213E+00
         21   -1    0    0  503  502  0.00000000000E+00  0.00000000000E+00  0.44437353128E+01  0.44437353128E+01  0.00000000000E+00 0. -1.
         21   -1    0    0  501  503 -0.00000000000E+00 -0.00000000000E+00 -0.23833087787E+04  0.23833087787E+04  0.00000000000E+00 0.  1.
         24    1    1    2    0    0 -0.23487195710E+02 -0.77660663141E+01 -0.10605755212E+04  0.10639077086E+04  0.80419002446E+02 0.  0.
          1    1    1    2  501    0  0.45030346239E+02  0.31926895134E+02 -0.11981442140E+04  0.11994151142E+04  0.00000000000E+00 0. -1.
         -2    1    1    2    0  502 -0.21543150529E+02 -0.24160828820E+02 -0.12014530815E+03  0.12442969121E+03  0.00000000000E+00 0.  1.
<mgrwt>
<rscale>  2 0.85854283E+02</rscale>
<asrwt>0</asrwt>
<pdfrwt beam="1">  1       21 0.68365187E-03 0.85854283E+02</pdfrwt>
<pdfrwt beam="2">  1       21 0.36666274E+00 0.85854283E+02</pdfrwt>
<totfact> 0.11011271E+05</totfact>
</mgrwt>
</event>
<event>
 5    1  0.1946229E+000  0.6491617E+02  0.7546771E-02  0.1378287E+00
         21   -1    0    0  503  502  0.00000000000E+00  0.00000000000E+00  0.59610876813E+02  0.59610876813E+02  0.00000000000E+00 0. -1.
         21   -1    0    0  501  503 -0.00000000000E+00 -0.00000000000E+00 -0.85687374854E+02  0.85687374854E+02  0.00000000000E+00 0.  1.
         24    1    1    2    0    0 -0.10969877924E+02  0.37201853995E+02 -0.17128977086E+02  0.90911682268E+02  0.80419002446E+02 0.  0.
          1    1    1    2  501    0  0.11226355523E+02 -0.17163783609E+02 -0.22306787570E+02  0.30302133552E+02  0.00000000000E+00 0. -1.
         -2    1    1    2    0  502 -0.25647759915E+00 -0.20038070386E+02  0.13359266615E+02  0.24084435847E+02  0.00000000000E+00 0.  1.
<mgrwt>
<rscale>  2 0.64916165E+02</rscale>
<asrwt>0</asrwt>
<pdfrwt beam="1">  1       21 0.91709042E-02 0.64916165E+02</pdfrwt>
<pdfrwt beam="2">  1       21 0.13182673E-01 0.64916165E+02</pdfrwt>
<totfact> 0.44251402E+06</totfact>
</mgrwt>
</event>
<event>
 5    1  0.1946229E+000  0.8575506E+02  0.7546771E-02  0.1313470E+00
         21   -1    0    0  501  502  0.00000000000E+00  0.00000000000E+00  0.16202974319E+02  0.16202974319E+02  0.00000000000E+00 0. -1.
         21   -1    0    0  502  503 -0.00000000000E+00 -0.00000000000E+00 -0.14071620095E+04  0.14071620095E+04  0.00000000000E+00 0.  1.
         24    1    1    2    0    0 -0.30899963978E+02  0.59069191089E+02 -0.10344066605E+04  0.10396674143E+04  0.80419002446E+02 0.  0.
          1    1    1    2  501    0  0.71557021299E+01 -0.21007355232E+02  0.20619395529E+01  0.22288217549E+02  0.00000000000E+00 0. -1.
         -2    1    1    2    0  503  0.23744261848E+02 -0.38061835858E+02 -0.35861431419E+03  0.36140935193E+03  0.00000000000E+00 0.  1.
<mgrwt>
<rscale>  2 0.85755057E+02</rscale>
<asrwt>0</asrwt>
<pdfrwt beam="1">  1       21 0.24927659E-02 0.85755057E+02</pdfrwt>
<pdfrwt beam="2">  1       21 0.21648641E+00 0.85755057E+02</pdfrwt>
<totfact> 0.98574464E+04</totfact>
</mgrwt>
</event>
<event>
 5    1  0.1946229E+000  0.6716061E+02  0.7546771E-02  0.1370024E+00
         21   -1    0    0  503  502  0.00000000000E+00  0.00000000000E+00  0.17927895103E+03  0.17927895103E+03  0.00000000000E+00 0.  1.
         21   -1    0    0  501  503 -0.00000000000E+00 -0.00000000000E+00 -0.62973271624E+02  0.62973271624E+02  0.00000000000E+00 0. -1.
         24    1    1    2    0    0  0.16889560539E+02  0.30578340674E+02  0.60704471089E+02  0.10664211616E+03  0.80419002446E+02 0.  1.
          1    1    1    2  501    0 -0.22025421072E+02 -0.79143912613E+01 -0.34984432401E+02  0.42091178089E+02  0.00000000000E+00 0. -1.
         -2    1    1    2    0  502  0.51358605331E+01 -0.22663949413E+02  0.90585640720E+02  0.93518928411E+02  0.00000000000E+00 0.  1.
<mgrwt>
<rscale>  2 0.67160611E+02</rscale>
<asrwt>0</asrwt>
<pdfrwt beam="1">  1       21 0.27581377E-01 0.67160611E+02</pdfrwt>
<pdfrwt beam="2">  1       21 0.96881957E-02 0.67160611E+02</pdfrwt>
<totfact> 0.10626345E+06</totfact>
</mgrwt>
</event>
<event>
 5    1  0.1946229E+000  0.9934441E+02  0.7546771E-02  0.1281681E+00
         21   -1    0    0  501  502  0.00000000000E+00  0.00000000000E+00  0.10152551497E+03  0.10152551497E+03  0.00000000000E+00 0.  1.
         21   -1    0    0  502  503 -0.00000000000E+00 -0.00000000000E+00 -0.16747284962E+03  0.16747284962E+03  0.00000000000E+00 0.  1.
         24    1    1    2    0    0 -0.70335419042E+02  0.38642509769E+02 -0.29047705177E+02  0.11726593650E+03  0.80419002446E+02 0.  1.
          1    1    1    2  501    0  0.22559895829E+02  0.15933775558E+01  0.44032000952E+02  0.49500554136E+02  0.00000000000E+00 0. -1.
         -2    1    1    2    0  503  0.47775523213E+02 -0.40235887325E+02 -0.80931630431E+02  0.10223187395E+03  0.00000000000E+00 0.  1.
<mgrwt>
<rscale>  2 0.99344408E+02</rscale>
<asrwt>0</asrwt>
<pdfrwt beam="1">  1       21 0.15619310E-01 0.99344408E+02</pdfrwt>
<pdfrwt beam="2">  1       21 0.25765054E-01 0.99344408E+02</pdfrwt>
<totfact> 0.52560983E+05</totfact>
</mgrwt>
</event>
<event>
 5    1  0.1946229E+000  0.7717916E+02  0.7546771E-02  0.1337253E+00
         21   -1    0    0  503  502  0.00000000000E+00  0.00000000000E+00  0.32786371967E+03  0.32786371967E+03  0.00000000000E+00 0.  1.
         21   -1    0    0  501  503 -0.00000000000E+00 -0.00000000000E+00 -0.19598308206E+02  0.19598308206E+02  0.00000000000E+00 0.  1.
         24    1    1    2    0    0  0.51802442457E+02  0.59986848615E+01  0.15118837743E+03  0.17901010779E+03  0.80419002446E+02 0.  1.
          1    1    1    2  501    0 -0.21060936689E+02 -0.15706988535E+02  0.48114808617E+02  0.54820683609E+02  0.00000000000E+00 0. -1.
         -2    1    1    2    0  502 -0.30741505767E+02  0.97083036737E+01  0.10896222541E+03  0.11363123648E+03  0.00000000000E+00 0.  1.
<mgrwt>
<rscale>  2 0.77179160E+02</rscale>
<asrwt>0</asrwt>
<pdfrwt beam="1">  1       21 0.50440568E-01 0.77179160E+02</pdfrwt>
<pdfrwt beam="2">  1       21 0.30151246E-02 0.77179160E+02</pdfrwt>
<totfact> 0.22931099E+06</totfact>
</mgrwt>
</event>
<event>
 5    1  0.1946229E+000  0.1092132E+03  0.7546771E-02  0.1262034E+00
         21   -1    0    0  501  502  0.00000000000E+00  0.00000000000E+00  0.17139426009E+04  0.17139426009E+04  0.00000000000E+00 0. -1.
         21   -1    0    0  502  503 -0.00000000000E+00 -0.00000000000E+00 -0.15775458233E+02  0.15775458233E+02  0.00000000000E+00 0.  1.
         24    1    1    2    0    0 -0.69278461706E+02  0.12577946995E+02  0.33048151089E+03  0.34733694736E+03  0.80419002446E+02 0.  0.
          1    1    1    2  501    0 -0.18556108439E+02  0.96784092516E+01  0.10917211030E+04  0.10919216856E+04  0.00000000000E+00 0. -1.
         -2    1    1    2    0  503  0.87834570145E+02 -0.22256356247E+02  0.27596452881E+03  0.29045942619E+03  0.00000000000E+00 0.  1.
<mgrwt>
<rscale>  2 0.10921319E+03</rscale>
<asrwt>0</asrwt>
<pdfrwt beam="1">  1       21 0.26368333E+00 0.10921319E+03</pdfrwt>
<pdfrwt beam="2">  1       21 0.24269949E-02 0.10921319E+03</pdfrwt>
<totfact> 0.53768979E+04</totfact>
</mgrwt>
</event>
<event>
 5    1  0.1946229E+000  0.1142239E+03  0.7546771E-02  0.1252942E+00
         21   -1    0    0  501  502  0.00000000000E+00  0.00000000000E+00  0.17559265185E+03  0.17559265185E+03  0.00000000000E+00 0.  1.
         21   -1    0    0  502  503 -0.00000000000E+00 -0.00000000000E+00 -0.10132953577E+03  0.10132953577E+03  0.00000000000E+00 0. -1.
         24    1    1    2    0    0  0.31313241017E+02 -0.55823675690E+02  0.45948295492E+02  0.11258447337E+03  0.80419002446E+02 0.  1.
          1    1    1    2  501    0 -0.21708867662E+02  0.88750765252E+02  0.66503363266E+02  0.11300739177E+03  0.00000000000E+00 0. -1.
         -2    1    1    2    0  503 -0.96043733558E+01 -0.32927089563E+02 -0.38188542673E+02  0.51330322482E+02  0.00000000000E+00 0.  1.
<mgrwt>
<rscale>  2 0.11422394E+03</rscale>
<asrwt>0</asrwt>
<pdfrwt beam="1">  1       21 0.27014254E-01 0.11422394E+03</pdfrwt>
<pdfrwt beam="2">  1       21 0.15589159E-01 0.11422394E+03</pdfrwt>
<totfact> 0.48197722E+05</totfact>
</mgrwt>
</event>
<event>
 5    1  0.1946229E+000  0.7380292E+02  0.7546771E-02  0.1347619E+00
         21   -1    0    0  501  502  0.00000000000E+00  0.00000000000E+00  0.64977452359E+02  0.64977452359E+02  0.00000000000E+00 0. -1.
         21   -1    0    0  502  503 -0.00000000000E+00 -0.00000000000E+00 -0.11760482925E+03  0.11760482925E+03  0.00000000000E+00 0.  1.
         24    1    1    2    0    0 -0.83261231423E+01  0.39235742773E+02 -0.68729721268E+01  0.90128916213E+02  0.80419002446E+02 0.  1.
          1    1    1    2  501    0 -0.16290783775E+02 -0.23243163902E+02  0.94613658802E+01  0.29919086692E+02  0.00000000000E+00 0. -1.
         -2    1    1    2    0  503  0.24616906918E+02 -0.15992578871E+02 -0.55215770647E+02  0.62534278706E+02  0.00000000000E+00 0.  1.
<mgrwt>
<rscale>  2 0.73802917E+02</rscale>
<asrwt>0</asrwt>
<pdfrwt beam="1">  1       21 0.99965312E-02 0.73802917E+02</pdfrwt>
<pdfrwt beam="2">  1       21 0.18093050E-01 0.73802917E+02</pdfrwt>
<totfact> 0.21933500E+06</totfact>
</mgrwt>
</event>
<event>
 5    1  0.1946229E+000  0.8431466E+02  0.7546771E-02  0.1317235E+00
         21   -1    0    0  503  502  0.00000000000E+00  0.00000000000E+00  0.30731027036E+03  0.30731027036E+03  0.00000000000E+00 0.  1.
         21   -1    0    0  501  503 -0.00000000000E+00 -0.00000000000E+00 -0.25421551058E+02  0.25421551058E+02  0.00000000000E+00 0. -1.
         24    1    1    2    0    0 -0.20393743999E+02 -0.11005400848E+02  0.12312496647E+03  0.14887577696E+03  0.80419002446E+02 0.  1.
          1    1    1    2  501    0  0.97578311195E+01 -0.35714094785E+02  0.34228760200E+02  0.50421422623E+02  0.00000000000E+00 0. -1.
         -2    1    1    2    0  502  0.10635912880E+02  0.46719495633E+02  0.12453499263E+03  0.13343462184E+03  0.00000000000E+00 0.  1.
<mgrwt>
<rscale>  2 0.84314661E+02</rscale>
<asrwt>0</asrwt>
<pdfrwt beam="1">  1       21 0.47278500E-01 0.84314661E+02</pdfrwt>
<pdfrwt beam="2">  1       21 0.39110081E-02 0.84314661E+02</pdfrwt>
<totfact> 0.17167681E+06</totfact>
</mgrwt>
</event>
<event>
 5    1  0.1946229E+000  0.7307264E+02  0.7546771E-02  0.1349945E+00
         21   -1    0    0  501  502  0.00000000000E+00  0.00000000000E+00  0.91035792272E+03  0.91035792272E+03  0.00000000000E+00 0.  1.
         21   -1    0    0  502  503 -0.00000000000E+00 -0.00000000000E+00 -0.98724263339E+01  0.98724263339E+01  0.00000000000E+00 0.  1.
         24    1    1    2    0    0 -0.16165814962E+02  0.12592135221E+00  0.32928266037E+03  0.33934589404E+03  0.80419002446E+02 0.  0.
          1    1    1    2  501    0  0.12212835784E+02  0.30699524277E+02  0.51957519332E+03  0.52062462069E+03  0.00000000000E+00 0. -1.
         -2    1    1    2    0  503  0.39529791774E+01 -0.30825445629E+02  0.51627642692E+02  0.60259834322E+02  0.00000000000E+00 0.  1.
<mgrwt>
<rscale>  2 0.73072645E+02</rscale>
<asrwt>0</asrwt>
<pdfrwt beam="1">  1       21 0.14005500E+00 0.73072645E+02</pdfrwt>
<pdfrwt beam="2">  1       21 0.15188355E-02 0.73072645E+02</pdfrwt>
<totfact> 0.70183370E+05</totfact>
</mgrwt>
</event>
<event>
 5    1  0.1946229E+000  0.6784843E+02  0.7546771E-02  0.1367566E+00
         21   -1    0    0  503  502  0.00000000000E+00  0.00000000000E+00  0.50128863076E+02  0.50128863076E+02  0.00000000000E+00 0.  1.
         21   -1    0    0  501  503 -0.00000000000E+00 -0.00000000000E+00 -0.14637778770E+03  0.14637778770E+03  0.00000000000E+00 0.  1.
         24    1    1    2    0    0  0.91026459430E+01  0.21297824727E+01 -0.89335543713E+02  0.12056305181E+03  0.80419002446E+02 0.  1.
          1    1    1    2  501    0  0.22795827202E+01  0.25110435787E+02 -0.29474310721E+02  0.38787439659E+02  0.00000000000E+00 0. -1.
         -2    1    1    2    0  502 -0.11382228663E+02 -0.27240218260E+02  0.22560929813E+02  0.37156159304E+02  0.00000000000E+00 0.  1.
<mgrwt>
<rscale>  2 0.67848427E+02</rscale>
<asrwt>0</asrwt>
<pdfrwt beam="1">  1       21 0.77121328E-02 0.67848427E+02</pdfrwt>
<pdfrwt beam="2">  1       21 0.22519660E-01 0.67848427E+02</pdfrwt>
<totfact> 0.22829167E+06</totfact>
</mgrwt>
</event>
<event>
 5    1  0.1946229E+000  0.8830022E+02  0.7546771E-02  0.1307021E+00
         21   -1    0    0  501  502  0.00000000000E+00  0.00000000000E+00  0.90235337683E+02  0.90235337683E+02  0.00000000000E+00 0.  1.
         21   -1    0    0  502  503 -0.00000000000E+00 -0.00000000000E+00 -0.98195007015E+02  0.98195007015E+02  0.00000000000E+00 0.  1.
         24    1    1    2    0    0 -0.33802170750E+02  0.53847538146E+02 -0.20106650164E+02  0.10446835620E+03  0.80419002446E+02 0.  0.
          1    1    1    2  501    0  0.23889837567E+02 -0.52144357596E+01  0.22536002811E+02  0.33253362266E+02  0.00000000000E+00 0. -1.
         -2    1    1    2    0  503  0.99123331829E+01 -0.48633102386E+02 -0.10389021979E+02  0.50708626234E+02  0.00000000000E+00 0.  1.
<mgrwt>
<rscale>  2 0.88300223E+02</rscale>
<asrwt>0</asrwt>
<pdfrwt beam="1">  1       21 0.13882360E-01 0.88300223E+02</pdfrwt>
<pdfrwt beam="2">  1       21 0.15106924E-01 0.88300223E+02</pdfrwt>
<totfact> 0.17209829E+06</totfact>
</mgrwt>
</event>
<event>
 5    1  0.1946229E+000  0.8720810E+02  0.7546771E-02  0.1309757E+00
         21   -1    0    0  503  502  0.00000000000E+00  0.00000000000E+00  0.24328580806E+03  0.24328580806E+03  0.00000000000E+00 0.  1.
         21   -1    0    0  501  503 -0.00000000000E+00 -0.00000000000E+00 -0.93229873742E+02  0.93229873742E+02  0.00000000000E+00 0.  1.
         24    1    1    2    0    0  0.66857785532E+01 -0.14095393497E+02 -0.35962764026E+02  0.89464608106E+02  0.80419002446E+02 0.  1.
          1    1    1    2  501    0  0.40850047721E+02 -0.52309785511E+01 -0.11674783344E+02  0.42806425937E+02  0.00000000000E+00 0. -1.
         -2    1    1    2    0  502 -0.47535826274E+02  0.19326372048E+02  0.19769348169E+03  0.20424464776E+03  0.00000000000E+00 0.  1.
<mgrwt>
<rscale>  2 0.87208096E+02</rscale>
<asrwt>0</asrwt>
<pdfrwt beam="1">  1       21 0.37428586E-01 0.87208096E+02</pdfrwt>
<pdfrwt beam="2">  1       21 0.14343058E-01 0.87208096E+02</pdfrwt>
<totfact> 0.29922022E+05</totfact>
</mgrwt>
</event>
<event>
 5    1  0.1946229E+000  0.8837721E+02  0.7546771E-02  0.1306830E+00
         21   -1    0    0  501  502  0.00000000000E+00  0.00000000000E+00  0.38472178221E+03  0.38472178221E+03  0.00000000000E+00 0. -1.
         21   -1    0    0  502  503 -0.00000000000E+00 -0.00000000000E+00 -0.50176718600E+02  0.50176718600E+02  0.00000000000E+00 0. -1.
         24    1    1    2    0    0  0.11315559163E+02 -0.46297513538E+02  0.22451970959E+03  0.24320324337E+03  0.80419002446E+02 0.  0.
          1    1    1    2  501    0  0.21883614690E+02  0.45011486404E+02  0.13892212960E+03  0.14766273935E+03  0.00000000000E+00 0. -1.
         -2    1    1    2    0  503 -0.33199173853E+02  0.12860271340E+01 -0.28896775577E+02  0.44032518087E+02  0.00000000000E+00 0.  1.
<mgrwt>
<rscale>  2 0.88377211E+02</rscale>
<asrwt>0</asrwt>
<pdfrwt beam="1">  1       21 0.59187965E-01 0.88377211E+02</pdfrwt>
<pdfrwt beam="2">  1       21 0.77194954E-02 0.88377211E+02</pdfrwt>
<totfact> 0.34735983E+05</totfact>
</mgrwt>
</event>
<event>
 5    1  0.1946229E+000  0.8238818E+02  0.7546771E-02  0.1322408E+00
         21   -1    0    0  501  502  0.00000000000E+00  0.00000000000E+00  0.13737596846E+03  0.13737596846E+03  0.00000000000E+00 0. -1.
         21   -1    0    0  502  503 -0.00000000000E+00 -0.00000000000E+00 -0.73817886255E+02  0.73817886255E+02  0.00000000000E+00 0.  1.
         24    1    1    2    0    0  0.12069553679E+02 -0.15741467369E+01  0.86676344332E+02  0.11886192277E+03  0.80419002446E+02 0. -1.
          1    1    1    2  501    0 -0.29455097161E+02  0.35011871707E+02  0.39603618314E+01  0.45925138813E+02  0.00000000000E+00 0. -1.
         -2    1    1    2    0  503  0.17385543481E+02 -0.33437724970E+02 -0.27078623956E+02  0.46406793131E+02  0.00000000000E+00 0.  1.
<mgrwt>
<rscale>  2 0.82388176E+02</rscale>
<asrwt>0</asrwt>
<pdfrwt beam="1">  1       21 0.21134764E-01 0.82388176E+02</pdfrwt>
<pdfrwt beam="2">  1       21 0.11356598E-01 0.82388176E+02</pdfrwt>
<totfact> 0.13311563E+06</totfact>
</mgrwt>
</event>
<event>
 5    1  0.1946229E+000  0.1124040E+03  0.7546771E-02  0.1256182E+00
         21   -1    0    0  503  502  0.00000000000E+00  0.00000000000E+00  0.84786109272E+02  0.84786109272E+02  0.00000000000E+00 0. -1.
         21   -1    0    0  501  503 -0.00000000000E+00 -0.00000000000E+00 -0.18767774934E+03  0.18767774934E+03  0.00000000000E+00 0. -1.
         24    1    1    2    0    0 -0.32150483721E+01 -0.97831769779E+02  0.46965820166E+00  0.12668396997E+03  0.80419002446E+02 0. -1.
          1    1    1    2  501    0 -0.15172329097E+01  0.56945094626E+02 -0.80741847042E+02  0.98814430431E+02  0.00000000000E+00 0. -1.
         -2    1    1    2    0  502  0.47322812819E+01  0.40886675153E+02 -0.22619451229E+02  0.46965458213E+02  0.00000000000E+00 0.  1.
<mgrwt>
<rscale>  2 0.11240401E+03</rscale>
<asrwt>0</asrwt>
<pdfrwt beam="1">  1       21 0.13044017E-01 0.11240401E+03</pdfrwt>
<pdfrwt beam="2">  1       21 0.28873500E-01 0.11240401E+03</pdfrwt>
<totfact> 0.58409820E+05</totfact>
</mgrwt>
</event>
<event>
 5    1  0.1946229E+000  0.7496045E+02  0.7546771E-02  0.1343994E+00
         21   -1    0    0  503  502  0.00000000000E+00  0.00000000000E+00  0.26889419432E+02  0.26889419432E+02  0.00000000000E+00 0.  1.
         21   -1    0    0  501  503 -0.00000000000E+00 -0.00000000000E+00 -0.21610574648E+03  0.21610574648E+03  0.00000000000E+00 0. -1.
         24    1    1    2    0    0  0.13187379394E+02 -0.11798419548E+02 -0.84615031967E+02  0.11806790109E+03  0.80419002446E+02 0.  1.
          1    1    1    2  501    0 -0.19364647766E+02  0.36929700496E+02 -0.73118150938E+02  0.84172776825E+02  0.00000000000E+00 0. -1.
         -2    1    1    2    0  502  0.61772683723E+01 -0.25131280948E+02 -0.31483144147E+02  0.40754487998E+02  0.00000000000E+00 0.  1.
<mgrwt>
<rscale>  2 0.74960448E+02</rscale>
<asrwt>0</asrwt>
<pdfrwt beam="1">  1       21 0.41368337E-02 0.74960448E+02</pdfrwt>
<pdfrwt beam="2">  1       21 0.33247038E-01 0.74960448E+02</pdfrwt>
<totfact> 0.31162861E+06</totfact>
</mgrwt>
</event>
<event>
 5    1  0.1946229E+000  0.7948421E+02  0.7546771E-02  0.1330522E+00
         21   -1    0    0  501  502  0.00000000000E+00  0.00000000000E+00  0.89115051511E+02  0.89115051511E+02  0.00000000000E+00 0. -1.
         21   -1    0    0  502  503 -0.00000000000E+00 -0.00000000000E+00 -0.15292961569E+03  0.15292961569E+03  0.00000000000E+00 0. -1.
         24    1    1    2    0    0  0.11147722901E+02 -0.17325557660E+02  0.50657349205E+02  0.97251373548E+02  0.80419002446E+02 0. -1.
          1    1    1    2  501    0  0.20443882339E+02  0.34419059081E+02 -0.22199389588E+02  0.45775941839E+02  0.00000000000E+00 0. -1.
         -2    1    1    2    0  503 -0.31591605240E+02 -0.17093501421E+02 -0.92272523793E+02  0.99017351810E+02  0.00000000000E+00 0.  1.
<mgrwt>
<rscale>  2 0.79484210E+02</rscale>
<asrwt>0</asrwt>
<pdfrwt beam="1">  1       21 0.13710008E-01 0.79484210E+02</pdfrwt>
<pdfrwt beam="2">  1       21 0.23527633E-01 0.79484210E+02</pdfrwt>
<totfact> 0.78431187E+05</totfact>
</mgrwt>
</event>
<event>
 5    1  0.1946229E+000  0.7971931E+02  0.7546771E-02  0.1329850E+00
         21   -1    0    0  503  502  0.00000000000E+00  0.00000000000E+00  0.36804142236E+02  0.36804142236E+02  0.00000000000E+00 0.  1.
         21   -1    0    0  501  503 -0.00000000000E+00 -0.00000000000E+00 -0.28303692171E+03  0.28303692171E+03  0.00000000000E+00 0. -1.
         24    1    1    2    0    0 -0.40747648972E+02 -0.20205140105E+02 -0.12126132871E+03  0.15244718554E+03  0.80419002446E+02 0.  1.
          1    1    1    2  501    0  0.21520875381E+02  0.36149923234E+02 -0.13429636573E+03  0.14073193978E+03  0.00000000000E+00 0. -1.
         -2    1    1    2    0  502  0.19226773591E+02 -0.15944783129E+02  0.93249149717E+01  0.26661938621E+02  0.00000000000E+00 0.  1.
<mgrwt>
<rscale>  2 0.79719311E+02</rscale>
<asrwt>0</asrwt>
<pdfrwt beam="1">  1       21 0.56621756E-02 0.79719311E+02</pdfrwt>
<pdfrwt beam="2">  1       21 0.43544143E-01 0.79719311E+02</pdfrwt>
<totfact> 0.10959647E+06</totfact>
</mgrwt>
</event>
<event>
 5    1  0.1946229E+000  0.1192478E+03  0.7546771E-02  0.1244343E+00
         21   -1    0    0  503  502  0.00000000000E+00  0.00000000000E+00  0.49738894152E+02  0.49738894152E+02  0.00000000000E+00 0.  1.
         21   -1    0    0  501  503 -0.00000000000E+00 -0.00000000000E+00 -0.33726969803E+03  0.33726969803E+03  0.00000000000E+00 0.  1.
         24    1    1    2    0    0  0.42854982109E+02  0.54907785888E+02 -0.17798643566E+03  0.20735911283E+03  0.80419002446E+02 0.  1.
          1    1    1    2  501    0  0.32272722553E+02  0.89671485794E+01 -0.61334032735E+02  0.69884203839E+02  0.00000000000E+00 0. -1.
         -2    1    1    2    0  502 -0.75127704662E+02 -0.63874934467E+02 -0.48210335492E+02  0.10976527552E+03  0.00000000000E+00 0.  1.
<mgrwt>
<rscale>  2 0.11924783E+03</rscale>
<asrwt>0</asrwt>
<pdfrwt beam="1">  1       21 0.76521378E-02 0.11924783E+03</pdfrwt>
<pdfrwt beam="2">  1       21 0.51887644E-01 0.11924783E+03</pdfrwt>
<totfact> 0.46204937E+05</totfact>
</mgrwt>
</event>
<event>
 5    1  0.2074105E+000  0.7724607E+02  0.7546771E-02  0.1337053E+00
         21   -1    0    0  501  502  0.00000000000E+00  0.00000000000E+00  0.10042657859E+03  0.10042657859E+03  0.00000000000E+00 0.  1.
         21   -1    0    0  502  503 -0.00000000000E+00 -0.00000000000E+00 -0.41190617449E+03  0.41190617449E+03  0.00000000000E+00 0.  1.
         24    1    1    2    0    0 -0.32656313881E+02  0.10831687853E+02  0.57705354372E+02  0.10478971407E+03  0.80419002446E+02 0.  1.
          1    1    1    2  501    0  0.24857705013E+02 -0.34261232594E+02 -0.51152530618E+01  0.42636878066E+02  0.00000000000E+00 0. -1.
         -2    1    1    2    0  503  0.77986088683E+01  0.23429544741E+02 -0.36406969721E+03  0.36490616094E+03  0.00000000000E+00 0.  1.
<mgrwt>
<rscale>  2 0.77246068E+02</rscale>
<asrwt>0</asrwt>
<pdfrwt beam="1">  1       21 0.15450243E-01 0.77246068E+02</pdfrwt>
<pdfrwt beam="2">  1       21 0.63370181E-01 0.77246068E+02</pdfrwt>
<totfact> 0.90337711E+04</totfact>
</mgrwt>
</event>
<event>
 5    1  0.1946229E+000  0.1016973E+03  0.7546771E-02  0.1276767E+00
         21   -1    0    0  501  502  0.00000000000E+00  0.00000000000E+00  0.17499164715E+03  0.17499164715E+03  0.00000000000E+00 0. -1.
         21   -1    0    0  502  503 -0.00000000000E+00 -0.00000000000E+00 -0.87036134659E+02  0.87036134659E+02  0.00000000000E+00 0.  1.
         24    1    1    2    0    0 -0.16808425041E+02  0.81880665601E+02  0.11787921253E+03  0.16537742063E+03  0.80419002446E+02 0. -1.
          1    1    1    2  501    0 -0.40455790242E+00 -0.57805124452E+02 -0.51160053958E+01  0.58032487377E+02  0.00000000000E+00 0. -1.
         -2    1    1    2    0  503  0.17212982943E+02 -0.24075541149E+02 -0.24807694647E+02  0.38617873804E+02  0.00000000000E+00 0.  1.
<mgrwt>
<rscale>  2 0.10169731E+03</rscale>
<asrwt>0</asrwt>
<pdfrwt beam="1">  1       21 0.26921792E-01 0.10169731E+03</pdfrwt>
<pdfrwt beam="2">  1       21 0.13390175E-01 0.10169731E+03</pdfrwt>
<totfact> 0.63692835E+05</totfact>
</mgrwt>
</event>
<event>
 5    1  0.1946229E+000  0.6773332E+02  0.7546771E-02  0.1367975E+00
         21   -1    0    0  503  502  0.00000000000E+00  0.00000000000E+00  0.33039084128E+03  0.33039084128E+03  0.00000000000E+00 0. -1.
         21   -1    0    0  501  503 -0.00000000000E+00 -0.00000000000E+00 -0.17466032893E+02  0.17466032893E+02  0.00000000000E+00 0.  1.
         24    1    1    2    0    0 -0.45706173866E+01 -0.56437095186E+01  0.24849775917E+03  0.26128737870E+03  0.80419002446E+02 0. -1.
          1    1    1    2  501    0  0.29279542889E+02 -0.40311321905E+00  0.20284352210E+02  0.35621750051E+02  0.00000000000E+00 0. -1.
         -2    1    1    2    0  502 -0.24708925503E+02  0.60468227377E+01  0.44142697011E+02  0.50947745427E+02  0.00000000000E+00 0.  1.
<mgrwt>
<rscale>  2 0.67733319E+02</rscale>
<asrwt>0</asrwt>
<pdfrwt beam="1">  1       21 0.50829356E-01 0.67733319E+02</pdfrwt>
<pdfrwt beam="2">  1       21 0.26870822E-02 0.67733319E+02</pdfrwt>
<totfact> 0.27006673E+06</totfact>
</mgrwt>
</event>
<event>
 5    1  0.1946229E+000  0.8588017E+02  0.7546771E-02  0.1313147E+00
         21   -1    0    0  503  502  0.00000000000E+00  0.00000000000E+00  0.25802901224E+03  0.25802901224E+03  0.00000000000E+00 0. -1.
         21   -1    0    0  501  503 -0.00000000000E+00 -0.00000000000E+00 -0.43953241244E+02  0.43953241244E+02  0.00000000000E+00 0. -1.
         24    1    1    2    0    0 -0.16202274936E+02 -0.34040823674E+02  0.16881905552E+03  0.19075738740E+03  0.80419002446E+02 0. -1.
          1    1    1    2  501    0  0.32957580608E+02 -0.11113005890E+02 -0.11643496206E+02  0.36677950097E+02  0.00000000000E+00 0. -1.
         -2    1    1    2    0  502 -0.16755305672E+02  0.45153829564E+02  0.56900211683E+02  0.74546915979E+02  0.00000000000E+00 0.  1.
<mgrwt>
<rscale>  2 0.85880170E+02</rscale>
<asrwt>0</asrwt>
<pdfrwt beam="1">  1       21 0.39696770E-01 0.85880170E+02</pdfrwt>
<pdfrwt beam="2">  1       21 0.67620373E-02 0.85880170E+02</pdfrwt>
<totfact> 0.97894795E+05</totfact>
</mgrwt>
</event>
<event>
 5    1  0.3162481E+000  0.6902922E+02  0.7546771E-02  0.1363426E+00
         21   -1    0    0  503  502  0.00000000000E+00  0.00000000000E+00  0.51176662361E+03  0.51176662361E+03  0.00000000000E+00 0.  1.
         21   -1    0    0  501  503 -0.00000000000E+00 -0.00000000000E+00 -0.12230945816E+03  0.12230945816E+03  0.00000000000E+00 0. -1.
         24    1    1    2    0    0  0.95532846689E+01 -0.87373341937E+01  0.30477043791E+03  0.31546765608E+03  0.80419002446E+02 0.  0.
          1    1    1    2  501    0 -0.32707231320E+02  0.37759235115E+01 -0.11392646871E+03  0.11858862025E+03  0.00000000000E+00 0. -1.
         -2    1    1    2    0  502  0.23153946651E+02  0.49614106823E+01  0.19861319626E+03  0.20001980544E+03  0.00000000000E+00 0.  1.
<mgrwt>
<rscale>  2 0.69029215E+02</rscale>
<asrwt>0</asrwt>
<pdfrwt beam="1">  1       21 0.78733325E-01 0.69029215E+02</pdfrwt>
<pdfrwt beam="2">  1       21 0.18816840E-01 0.69029215E+02</pdfrwt>
<totfact> 0.40084803E+04</totfact>
</mgrwt>
</event>
<event>
 5    1  0.1946229E+000  0.8168261E+02  0.7546771E-02  0.1324343E+00
         21   -1    0    0  503  502  0.00000000000E+00  0.00000000000E+00  0.16903151941E+04  0.16903151941E+04  0.00000000000E+00 0. -1.
         21   -1    0    0  501  503 -0.00000000000E+00 -0.00000000000E+00 -0.98321018942E+01  0.98321018942E+01  0.00000000000E+00 0. -1.
         24    1    1    2    0    0 -0.50810009396E+01 -0.16689785018E+02  0.14563475376E+04  0.14586705357E+04  0.80419002446E+02 0. -1.
          1    1    1    2  501    0 -0.97118157391E+01  0.46656506898E+02  0.76688870046E+02  0.90290264092E+02  0.00000000000E+00 0. -1.
         -2    1    1    2    0  502  0.14792816679E+02 -0.29966721880E+02  0.14744668451E+03  0.15118649615E+03  0.00000000000E+00 0.  1.
<mgrwt>
<rscale>  2 0.81682614E+02</rscale>
<asrwt>0</asrwt>
<pdfrwt beam="1">  1       21 0.26004826E+00 0.81682614E+02</pdfrwt>
<pdfrwt beam="2">  1       21 0.15126324E-02 0.81682614E+02</pdfrwt>
<totfact> 0.12443019E+05</totfact>
</mgrwt>
</event>
<event>
 5    1  0.1946229E+000  0.8024328E+02  0.7546771E-02  0.1328362E+00
         21   -1    0    0  503  502  0.00000000000E+00  0.00000000000E+00  0.26530143595E+03  0.26530143595E+03  0.00000000000E+00 0. -1.
         21   -1    0    0  501  503 -0.00000000000E+00 -0.00000000000E+00 -0.35646616851E+02  0.35646616851E+02  0.00000000000E+00 0.  1.
         24    1    1    2    0    0  0.50488377553E+02 -0.17566531268E+02  0.21134707921E+03  0.23236278346E+03  0.80419002446E+02 0.  0.
          1    1    1    2  501    0 -0.22126712873E+02 -0.10079638486E+02 -0.13832436556E+01  0.24353724512E+02  0.00000000000E+00 0. -1.
         -2    1    1    2    0  502 -0.28361664680E+02  0.27646169753E+02  0.19690983538E+02  0.44231544831E+02  0.00000000000E+00 0.  1.
<mgrwt>
<rscale>  2 0.80243277E+02</rscale>
<asrwt>0</asrwt>
<pdfrwt beam="1">  1       21 0.40815604E-01 0.80243277E+02</pdfrwt>
<pdfrwt beam="2">  1       21 0.54840951E-02 0.80243277E+02</pdfrwt>
<totfact> 0.13147106E+06</totfact>
</mgrwt>
</event>
<event>
 5    1  0.1946229E+000  0.1145819E+03  0.7546771E-02  0.1252313E+00
         21   -1    0    0  503  502  0.00000000000E+00  0.00000000000E+00  0.57333467606E+02  0.57333467606E+02  0.00000000000E+00 0.  1.
         21   -1    0    0  501  503 -0.00000000000E+00 -0.00000000000E+00 -0.45853156588E+03  0.45853156588E+03  0.00000000000E+00 0. -1.
         24    1    1    2    0    0  0.57559352483E+02 -0.48562924260E+02 -0.14342468783E+02  0.11110517106E+03  0.80419002446E+02 0.  1.
          1    1    1    2  501    0 -0.63542466528E+02 -0.62506382361E+01 -0.20099404037E+03  0.21089172529E+03  0.00000000000E+00 0. -1.
         -2    1    1    2    0  502  0.59831140453E+01  0.54813562496E+02 -0.18586158912E+03  0.19386813714E+03  0.00000000000E+00 0.  1.
<mgrwt>
<rscale>  2 0.11458193E+03</rscale>
<asrwt>0</asrwt>
<pdfrwt beam="1">  1       21 0.88205339E-02 0.11458193E+03</pdfrwt>
<pdfrwt beam="2">  1       21 0.70543315E-01 0.11458193E+03</pdfrwt>
<totfact> 0.18873908E+05</totfact>
</mgrwt>
</event>
<event>
 5    1  0.2168312E+000  0.7944941E+02  0.7546771E-02  0.1330621E+00
         21   -1    0    0  501  502  0.00000000000E+00  0.00000000000E+00  0.58965160414E+02  0.58965160414E+02  0.00000000000E+00 0.  1.
         21   -1    0    0  502  503 -0.00000000000E+00 -0.00000000000E+00 -0.50133934454E+03  0.50133934454E+03  0.00000000000E+00 0.  1.
         24    1    1    2    0    0  0.37492375069E+02  0.10714595870E+02  0.13685013079E+02  0.90415575485E+02  0.80419002446E+02 0.  1.
          1    1    1    2  501    0 -0.70924261769E+01 -0.31765678209E+02 -0.37315307512E+02  0.49515583364E+02  0.00000000000E+00 0. -1.
         -2    1    1    2    0  503 -0.30399948892E+02  0.21051082339E+02 -0.41874388969E+03  0.42037334610E+03  0.00000000000E+00 0.  1.
<mgrwt>
<rscale>  2 0.79449413E+02</rscale>
<asrwt>0</asrwt>
<pdfrwt beam="1">  1       21 0.90715632E-02 0.79449413E+02</pdfrwt>
<pdfrwt beam="2">  1       21 0.77129129E-01 0.79449413E+02</pdfrwt>
<totfact> 0.14999958E+05</totfact>
</mgrwt>
</event>
<event>
 5    1  0.1946229E+000  0.6651409E+02  0.7546771E-02  0.1372365E+00
         21   -1    0    0  501  502  0.00000000000E+00  0.00000000000E+00  0.17128403443E+03  0.17128403443E+03  0.00000000000E+00 0.  1.
         21   -1    0    0  502  503 -0.00000000000E+00 -0.00000000000E+00 -0.58666688841E+02  0.58666688841E+02  0.00000000000E+00 0.  1.
         24    1    1    2    0    0 -0.40474282010E+02 -0.41845365533E+01  0.14051878018E+03  0.16693837602E+03  0.80419002446E+02 0.  1.
          1    1    1    2  501    0  0.19929895835E+02  0.88930956331E+01  0.64085746174E+01  0.22745499039E+02  0.00000000000E+00 0. -1.
         -2    1    1    2    0  503  0.20544386176E+02 -0.47085590798E+01 -0.34310009216E+02  0.40266848205E+02  0.00000000000E+00 0.  1.
<mgrwt>
<rscale>  2 0.66514088E+02</rscale>
<asrwt>0</asrwt>
<pdfrwt beam="1">  1       21 0.26351390E-01 0.66514088E+02</pdfrwt>
<pdfrwt beam="2">  1       21 0.90256445E-02 0.66514088E+02</pdfrwt>
<totfact> 0.13058504E+06</totfact>
</mgrwt>
</event>
<event>
 5    1  0.1946229E+000  0.6877246E+02  0.7546771E-02  0.1364318E+00
         21   -1    0    0  503  502  0.00000000000E+00  0.00000000000E+00  0.36885584753E+02  0.36885584753E+02  0.00000000000E+00 0. -1.
         21   -1    0    0  501  503 -0.00000000000E+00 -0.00000000000E+00 -0.16111013093E+03  0.16111013093E+03  0.00000000000E+00 0.  1.
         24    1    1    2    0    0  0.30804907340E+02 -0.28213216814E+02 -0.36997132180E+02  0.97882233644E+02  0.80419002446E+02 0. -1.
          1    1    1    2  501    0 -0.23540944701E+02  0.70880564664E+01 -0.60343645892E+02  0.65159590402E+02  0.00000000000E+00 0. -1.
         -2    1    1    2    0  502 -0.72639626393E+01  0.21125160348E+02 -0.26883768103E+02  0.34953891634E+02  0.00000000000E+00 0.  1.
<mgrwt>
<rscale>  2 0.68772457E+02</rscale>
<asrwt>0</asrwt>
<pdfrwt beam="1">  1       21 0.56747053E-02 0.68772457E+02</pdfrwt>
<pdfrwt beam="2">  1       21 0.24786174E-01 0.68772457E+02</pdfrwt>
<totfact> 0.32013053E+06</totfact>
</mgrwt>
</event>
<event>
 5    1  0.1946229E+000  0.8155721E+02  0.7546771E-02  0.1324689E+00
         21   -1    0    0  501  502  0.00000000000E+00  0.00000000000E+00  0.52818077363E+02  0.52818077363E+02  0.00000000000E+00 0. -1.
         21   -1    0    0  502  503 -0.00000000000E+00 -0.00000000000E+00 -0.17218628622E+03  0.17218628622E+03  0.00000000000E+00 0. -1.
         24    1    1    2    0    0 -0.28496524435E+02  0.34251564136E+02 -0.99984195745E+02  0.13582811529E+03  0.80419002446E+02 0. -1.
          1    1    1    2  501    0  0.29384560888E+02  0.67632599430E+01  0.16762782000E+02  0.34499057437E+02  0.00000000000E+00 0. -1.
         -2    1    1    2    0  503 -0.88803645328E+00 -0.41014824079E+02 -0.36146795113E+02  0.54677190856E+02  0.00000000000E+00 0.  1.
<mgrwt>
<rscale>  2 0.81557211E+02</rscale>
<asrwt>0</asrwt>
<pdfrwt beam="1">  1       21 0.81258580E-02 0.81557211E+02</pdfrwt>
<pdfrwt beam="2">  1       21 0.26490198E-01 0.81557211E+02</pdfrwt>
<totfact> 0.15583010E+06</totfact>
</mgrwt>
</event>
<event>
 5    1  0.1946229E+000  0.1998113E+03  0.7546771E-02  0.1149898E+00
         21   -1    0    0  501  502  0.00000000000E+00  0.00000000000E+00  0.22763730932E+03  0.22763730932E+03  0.00000000000E+00 0. -1.
         21   -1    0    0  502  503 -0.00000000000E+00 -0.00000000000E+00 -0.99479353402E+03  0.99479353402E+03  0.00000000000E+00 0.  1.
         24    1    1    2    0    0 -0.16345735332E+03 -0.11042533155E+02  0.95821029367E+02  0.20612891480E+03  0.80419002446E+02 0. -1.
          1    1    1    2  501    0 -0.23781980694E+02 -0.14940683400E+02  0.64187414266E+02  0.70063048580E+02  0.00000000000E+00 0. -1.
         -2    1    1    2    0  503  0.18723933401E+03  0.25983216555E+02 -0.92716466833E+03  0.94623887996E+03  0.00000000000E+00 0.  1.
<mgrwt>
<rscale>  2 0.19981130E+03</rscale>
<asrwt>0</asrwt>
<pdfrwt beam="1">  1       21 0.35021125E-01 0.19981130E+03</pdfrwt>
<pdfrwt beam="2">  1       21 0.15304516E+00 0.19981130E+03</pdfrwt>
<totfact> 0.22129508E+03</totfact>
</mgrwt>
</event>
<event>
 5    1  0.1946229E+000  0.9827199E+02  0.7546771E-02  0.1283972E+00
         21   -1    0    0  501  502  0.00000000000E+00  0.00000000000E+00  0.17090392263E+02  0.17090392263E+02  0.00000000000E+00 0.  1.
         21   -1    0    0  502  503 -0.00000000000E+00 -0.00000000000E+00 -0.68978733731E+03  0.68978733731E+03  0.00000000000E+00 0. -1.
         24    1    1    2    0    0  0.49935342806E+02 -0.10267849481E+02 -0.18249030237E+03  0.20583705596E+03  0.80419002446E+02 0.  1.
          1    1    1    2  501    0 -0.23441433985E+02 -0.38933833490E+02 -0.16871981668E+03  0.17473328463E+03  0.00000000000E+00 0. -1.
         -2    1    1    2    0  503 -0.26493908821E+02  0.49201682971E+02 -0.32148682600E+03  0.32630738898E+03  0.00000000000E+00 0.  1.
<mgrwt>
<rscale>  2 0.98271991E+02</rscale>
<asrwt>0</asrwt>
<pdfrwt beam="1">  1       21 0.26292911E-02 0.98271991E+02</pdfrwt>
<pdfrwt beam="2">  1       21 0.10612113E+00 0.98271991E+02</pdfrwt>
<totfact> 0.56878627E+05</totfact>
</mgrwt>
</event>
<event>
 5    1  0.1946229E+000  0.8726353E+02  0.7546771E-02  0.1309617E+00
         21   -1    0    0  501  502  0.00000000000E+00  0.00000000000E+00  0.31694724368E+02  0.31694724368E+02  0.00000000000E+00 0. -1.
         21   -1    0    0  502  503 -0.00000000000E+00 -0.00000000000E+00 -0.41925283991E+03  0.41925283991E+03  0.00000000000E+00 0.  1.
         24    1    1    2    0    0  0.38697217315E+02 -0.28955188709E+02 -0.16346487106E+03  0.18847773769E+03  0.80419002446E+02 0.  0.
          1    1    1    2  501    0 -0.45280083793E+02 -0.55099398011E+01 -0.11555292019E+02  0.47054969967E+02  0.00000000000E+00 0. -1.
         -2    1    1    2    0  503  0.65828664779E+01  0.34465128510E+02 -0.21253795247E+03  0.21541485662E+03  0.00000000000E+00 0.  1.
<mgrwt>
<rscale>  2 0.87263529E+02</rscale>
<asrwt>0</asrwt>
<pdfrwt beam="1">  1       21 0.48761120E-02 0.87263529E+02</pdfrwt>
<pdfrwt beam="2">  1       21 0.64500430E-01 0.87263529E+02</pdfrwt>
<totfact> 0.62730901E+05</totfact>
</mgrwt>
</event>
<event>
 5    1  0.1946229E+000  0.9726413E+02  0.7546771E-02  0.1286157E+00
         21   -1    0    0  501  502  0.00000000000E+00  0.00000000000E+00  0.11244391167E+03  0.11244391167E+03  0.00000000000E+00 0. -1.
         21   -1    0    0  502  503 -0.00000000000E+00 -0.00000000000E+00 -0.26358519791E+03  0.26358519791E+03  0.00000000000E+00 0. -1.
         24    1    1    2    0    0 -0.55679592371E+02  0.74673449514E+01 -0.21744381274E+03  0.23854770152E+03  0.80419002446E+02 0. -1.
          1    1    1    2  501    0  0.23557100927E+02  0.35608836656E+02  0.71728018722E+02  0.83473558220E+02  0.00000000000E+00 0. -1.
         -2    1    1    2    0  503  0.32122491444E+02 -0.43076181607E+02 -0.54254922151E+01  0.54007849839E+02  0.00000000000E+00 0.  1.
<mgrwt>
<rscale>  2 0.97264132E+02</rscale>
<asrwt>0</asrwt>
<pdfrwt beam="1">  1       21 0.17299064E-01 0.97264132E+02</pdfrwt>
<pdfrwt beam="2">  1       21 0.40551568E-01 0.97264132E+02</pdfrwt>
<totfact> 0.18208127E+05</totfact>
</mgrwt>
</event>
<event>
 5    1  0.1946229E+000  0.1072261E+03  0.7546771E-02  0.1265795E+00
         21   -1    0    0  503  502  0.00000000000E+00  0.00000000000E+00  0.49636886416E+03  0.49636886416E+03  0.00000000000E+00 0.  1.
         21   -1    0    0  501  503 -0.00000000000E+00 -0.00000000000E+00 -0.27098046815E+02  0.27098046815E+02  0.00000000000E+00 0. -1.
         24    1    1    2    0    0 -0.43886863846E+02 -0.37927869993E+02  0.25182087362E+03  0.27063914810E+03  0.80419002446E+02 0.  0.
          1    1    1    2  501    0  0.73269955832E+02  0.43756556666E+02  0.99272132398E+02  0.13091248584E+03  0.00000000000E+00 0. -1.
         -2    1    1    2    0  502 -0.29383091986E+02 -0.58286866728E+01  0.11817781133E+03  0.12191527703E+03  0.00000000000E+00 0.  1.
<mgrwt>
<rscale>  2 0.10722613E+03</rscale>
<asrwt>0</asrwt>
<pdfrwt beam="1">  1       21 0.76364434E-01 0.10722613E+03</pdfrwt>
<pdfrwt beam="2">  1       21 0.41689307E-02 0.10722613E+03</pdfrwt>
<totfact> 0.56436756E+05</totfact>
</mgrwt>
</event>
<event>
 5    1  0.1946229E+000  0.7568476E+02  0.7546771E-02  0.1341764E+00
         21   -1    0    0  503  502  0.00000000000E+00  0.00000000000E+00  0.89482075063E+02  0.89482075063E+02  0.00000000000E+00 0.  1.
         21   -1    0    0  501  503 -0.00000000000E+00 -0.00000000000E+00 -0.79923229795E+02  0.79923229795E+02  0.00000000000E+00 0. -1.
         24    1    1    2    0    0  0.52863560081E+01  0.25788374018E+02  0.29594914226E+02  0.89644077868E+02  0.80419002446E+02 0.  0.
          1    1    1    2  501    0 -0.15687467003E+02  0.16756454378E+02 -0.26972705596E+02  0.35417541296E+02  0.00000000000E+00 0. -1.
         -2    1    1    2    0  502  0.10401110994E+02 -0.42544828395E+02  0.69366366381E+01  0.44343685694E+02  0.00000000000E+00 0.  1.
<mgrwt>
<rscale>  2 0.75684761E+02</rscale>
<asrwt>0</asrwt>
<pdfrwt beam="1">  1       21 0.13766473E-01 0.75684761E+02</pdfrwt>
<pdfrwt beam="2">  1       21 0.12295881E-01 0.75684761E+02</pdfrwt>
<totfact> 0.24961989E+06</totfact>
</mgrwt>
</event>
<event>
 5    1  0.1946229E+000  0.8001233E+02  0.7546771E-02  0.1329016E+00
         21   -1    0    0  503  502  0.00000000000E+00  0.00000000000E+00  0.20079733731E+03  0.20079733731E+03  0.00000000000E+00 0.  1.
         21   -1    0    0  501  503 -0.00000000000E+00 -0.00000000000E+00 -0.42416293203E+02  0.42416293203E+02  0.00000000000E+00 0.  1.
         24    1    1    2    0    0 -0.29131521806E+02  0.51950005764E+02  0.39531978178E+02  0.10759852190E+03  0.80419002446E+02 0.  1.
          1    1    1    2  501    0  0.18484310962E+02 -0.25990263342E+02  0.35757932088E+02  0.47914436734E+02  0.00000000000E+00 0. -1.
         -2    1    1    2    0  502  0.10647210844E+02 -0.25959742422E+02  0.83091133840E+02  0.87700671880E+02  0.00000000000E+00 0.  1.
<mgrwt>
<rscale>  2 0.80012327E+02</rscale>
<asrwt>0</asrwt>
<pdfrwt beam="1">  1       21 0.30891897E-01 0.80012327E+02</pdfrwt>
<pdfrwt beam="2">  1       21 0.65255837E-02 0.80012327E+02</pdfrwt>
<totfact> 0.16876237E+06</totfact>
</mgrwt>
</event>
<event>
 5    1  0.1946229E+000  0.6392759E+02  0.7546771E-02  0.1382051E+00
         21   -1    0    0  503  502  0.00000000000E+00  0.00000000000E+00  0.39932442081E+02  0.39932442081E+02  0.00000000000E+00 0. -1.
         21   -1    0    0  501  503 -0.00000000000E+00 -0.00000000000E+00 -0.12206790618E+03  0.12206790618E+03  0.00000000000E+00 0.  1.
         24    1    1    2    0    0  0.36143362462E+01  0.13689941603E+01 -0.81541274910E+02  0.11459115603E+03  0.80419002446E+02 0.  1.
          1    1    1    2  501    0 -0.24125115207E+02  0.71071075671E+01 -0.15263329850E+01  0.25196465111E+02  0.00000000000E+00 0. -1.
         -2    1    1    2    0  502  0.20510778961E+02 -0.84761017275E+01  0.93214379748E+00  0.22212727120E+02  0.00000000000E+00 0.  1.
<mgrwt>
<rscale>  2 0.63927587E+02</rscale>
<asrwt>0</asrwt>
<pdfrwt beam="1">  1       21 0.61434526E-02 0.63927587E+02</pdfrwt>
<pdfrwt beam="2">  1       21 0.18779678E-01 0.63927587E+02</pdfrwt>
<totfact> 0.46342100E+06</totfact>
</mgrwt>
</event>
<event>
 5    1  0.1946229E+000  0.7311406E+02  0.7546771E-02  0.1349813E+00
         21   -1    0    0  503  502  0.00000000000E+00  0.00000000000E+00  0.29965130742E+03  0.29965130742E+03  0.00000000000E+00 0.  1.
         21   -1    0    0  501  503 -0.00000000000E+00 -0.00000000000E+00 -0.71008221190E+02  0.71008221190E+02  0.00000000000E+00 0. -1.
         24    1    1    2    0    0 -0.63022290666E+01 -0.71918699520E+01 -0.12100561158E+02  0.81884556660E+02  0.80419002446E+02 0. -1.
          1    1    1    2  501    0  0.30998752203E+02  0.20523866317E+02 -0.83514762462E+01  0.38103790917E+02  0.00000000000E+00 0. -1.
         -2    1    1    2    0  502 -0.24696523137E+02 -0.13331996365E+02  0.24909512363E+03  0.25067118103E+03  0.00000000000E+00 0.  1.
<mgrwt>
<rscale>  2 0.73114063E+02</rscale>
<asrwt>0</asrwt>
<pdfrwt beam="1">  1       21 0.46100200E-01 0.73114063E+02</pdfrwt>
<pdfrwt beam="2">  1       21 0.10924342E-01 0.73114063E+02</pdfrwt>
<totfact> 0.31987938E+05</totfact>
</mgrwt>
</event>
<event>
 5    1  0.1946229E+000  0.6498565E+02  0.7546771E-02  0.1378025E+00
         21   -1    0    0  503  502  0.00000000000E+00  0.00000000000E+00  0.81523593313E+03  0.81523593313E+03  0.00000000000E+00 0.  1.
         21   -1    0    0  501  503 -0.00000000000E+00 -0.00000000000E+00 -0.21561067235E+02  0.21561067235E+02  0.00000000000E+00 0. -1.
         24    1    1    2    0    0 -0.15803756311E+02 -0.15194071394E+02  0.27013698353E+03  0.28270448236E+03  0.80419002446E+02 0.  0.
          1    1    1    2  501    0 -0.82896354470E+01  0.20354488376E+02 -0.69363173009E+01  0.23046382592E+02  0.00000000000E+00 0. -1.
         -2    1    1    2    0  502  0.24093391758E+02 -0.51604169818E+01  0.53047419966E+03  0.53104613541E+03  0.00000000000E+00 0.  1.
<mgrwt>
<rscale>  2 0.64985648E+02</rscale>
<asrwt>0</asrwt>
<pdfrwt beam="1">  1       21 0.12542089E+00 0.64985648E+02</pdfrwt>
<pdfrwt beam="2">  1       21 0.33170879E-02 0.64985648E+02</pdfrwt>
<totfact> 0.26447057E+05</totfact>
</mgrwt>
</event>
<event>
 5    1  0.1946229E+000  0.6503376E+02  0.7546771E-02  0.1377845E+00
         21   -1    0    0  501  502  0.00000000000E+00  0.00000000000E+00  0.78107916812E+02  0.78107916812E+02  0.00000000000E+00 0.  1.
         21   -1    0    0  502  503 -0.00000000000E+00 -0.00000000000E+00 -0.56327202425E+02  0.56327202425E+02  0.00000000000E+00 0. -1.
         24    1    1    2    0    0  0.16021734588E+01 -0.11702434716E+02  0.11826649509E+02  0.82137686424E+02  0.80419002446E+02 0.  1.
          1    1    1    2  501    0 -0.20650728255E+02  0.19311717836E+02  0.13745563908E+02  0.31437804478E+02  0.00000000000E+00 0. -1.
         -2    1    1    2    0  503  0.19048554796E+02 -0.76092831204E+01 -0.37914990303E+01  0.20859628336E+02  0.00000000000E+00 0.  1.
<mgrwt>
<rscale>  2 0.65033763E+02</rscale>
<asrwt>0</asrwt>
<pdfrwt beam="1">  1       21 0.12016603E-01 0.65033763E+02</pdfrwt>
<pdfrwt beam="2">  1       21 0.86657234E-02 0.65033763E+02</pdfrwt>
<totfact> 0.57286154E+06</totfact>
</mgrwt>
</event>
<event>
 5    1  0.1946229E+000  0.7307849E+02  0.7546771E-02  0.1349927E+00
         21   -1    0    0  503  502  0.00000000000E+00  0.00000000000E+00  0.10256899808E+02  0.10256899808E+02  0.00000000000E+00 0.  1.
         21   -1    0    0  501  503 -0.00000000000E+00 -0.00000000000E+00 -0.15371004313E+04  0.15371004313E+04  0.00000000000E+00 0.  1.
         24    1    1    2    0    0 -0.53863650778E+01  0.29063295904E+02 -0.12732754677E+04  0.12761548969E+04  0.80419002446E+02 0.  1.
          1    1    1    2  501    0 -0.21576611593E+02 -0.25303858544E+02 -0.23702500765E+03  0.23934638012E+03  0.00000000000E+00 0. -1.
         -2    1    1    2    0  502  0.26962976671E+02 -0.37594373601E+01 -0.16543056146E+02  0.31856054163E+02  0.00000000000E+00 0.  1.
<mgrwt>
<rscale>  2 0.73078492E+02</rscale>
<asrwt>0</asrwt>
<pdfrwt beam="1">  1       21 0.15779860E-02 0.73078492E+02</pdfrwt>
<pdfrwt beam="2">  1       21 0.23647678E+00 0.73078492E+02</pdfrwt>
<totfact> 0.15912363E+05</totfact>
</mgrwt>
</event>
<event>
 5    1  0.1946229E+000  0.9159013E+02  0.7546771E-02  0.1299046E+00
         21   -1    0    0  503  502  0.00000000000E+00  0.00000000000E+00  0.24691499320E+02  0.24691499320E+02  0.00000000000E+00 0.  1.
         21   -1    0    0  501  503 -0.00000000000E+00 -0.00000000000E+00 -0.12511310106E+04  0.12511310106E+04  0.00000000000E+00 0.  1.
         24    1    1    2    0    0  0.39113181096E+02  0.62738093701E+02 -0.50022589243E+03  0.51201471536E+03  0.80419002446E+02 0.  1.
          1    1    1    2  501    0 -0.24809060716E+02 -0.38700013019E+02 -0.73347056619E+03  0.73490968967E+03  0.00000000000E+00 0. -1.
         -2    1    1    2    0  502 -0.14304120380E+02 -0.24038080682E+02  0.72569473231E+01  0.28898104906E+02  0.00000000000E+00 0.  1.
<mgrwt>
<rscale>  2 0.91590133E+02</rscale>
<asrwt>0</asrwt>
<pdfrwt beam="1">  1       21 0.37986931E-02 0.91590133E+02</pdfrwt>
<pdfrwt beam="2">  1       21 0.19248165E+00 0.91590133E+02</pdfrwt>
<totfact> 0.69116061E+04</totfact>
</mgrwt>
</event>
<event>
 5    1  0.1946229E+000  0.6352942E+02  0.7546771E-02  0.1383590E+00
         21   -1    0    0  503  502  0.00000000000E+00  0.00000000000E+00  0.52738306627E+01  0.52738306627E+01  0.00000000000E+00 0.  1.
         21   -1    0    0  501  503 -0.00000000000E+00 -0.00000000000E+00 -0.17326524644E+04  0.17326524644E+04  0.00000000000E+00 0. -1.
         24    1    1    2    0    0 -0.17017283392E+01  0.82788115382E-01 -0.11449002537E+04  0.11477224010E+04  0.80419002446E+02 0.  0.
          1    1    1    2  501    0  0.23711881456E+02 -0.45972844088E+01 -0.55100146343E+03  0.55153059847E+03  0.00000000000E+00 0. -1.
         -2    1    1    2    0  502 -0.22010153117E+02  0.45144962934E+01 -0.31476916545E+02  0.38673295595E+02  0.00000000000E+00 0.  1.
<mgrwt>
<rscale>  2 0.63529424E+02</rscale>
<asrwt>0</asrwt>
<pdfrwt beam="1">  1       21 0.81135751E-03 0.63529424E+02</pdfrwt>
<pdfrwt beam="2">  1       21 0.26656226E+00 0.63529424E+02</pdfrwt>
<totfact> 0.31060535E+05</totfact>
</mgrwt>
</event>
<event>
 5    1  0.1946229E+000  0.8313752E+02  0.7546771E-02  0.1320376E+00
         21   -1    0    0  501  502  0.00000000000E+00  0.00000000000E+00  0.22696028628E+03  0.22696028628E+03  0.00000000000E+00 0.  1.
         21   -1    0    0  502  503 -0.00000000000E+00 -0.00000000000E+00 -0.76423139740E+02  0.76423139740E+02  0.00000000000E+00 0.  1.
         24    1    1    2    0    0 -0.45982003237E+02  0.25708027127E+02  0.18926954276E+03  0.21228618196E+03  0.80419002446E+02 0.  1.
          1    1    1    2  501    0  0.29901508550E+02  0.95465967876E+01  0.59563686552E+01  0.31948647098E+02  0.00000000000E+00 0. -1.
         -2    1    1    2    0  503  0.16080494687E+02 -0.35254623914E+02 -0.44688764874E+02  0.59148596963E+02  0.00000000000E+00 0.  1.
<mgrwt>
<rscale>  2 0.83137522E+02</rscale>
<asrwt>0</asrwt>
<pdfrwt beam="1">  1       21 0.34916967E-01 0.83137522E+02</pdfrwt>
<pdfrwt beam="2">  1       21 0.11757406E-01 0.83137522E+02</pdfrwt>
<totfact> 0.48648206E+05</totfact>
</mgrwt>
</event>
<event>
 5    1  0.1946229E+000  0.1006546E+03  0.7546771E-02  0.1278925E+00
         21   -1    0    0  501  502  0.00000000000E+00  0.00000000000E+00  0.10137456668E+02  0.10137456668E+02  0.00000000000E+00 0. -1.
         21   -1    0    0  502  503 -0.00000000000E+00 -0.00000000000E+00 -0.13100412215E+04  0.13100412215E+04  0.00000000000E+00 0.  1.
         24    1    1    2    0    0  0.41114756594E+02  0.46018187783E+02 -0.46274176594E+03  0.47371431762E+03  0.80419002446E+02 0.  0.
          1    1    1    2  501    0 -0.75519889633E+01 -0.62217683400E+02 -0.23702102118E+03  0.24516736558E+03  0.00000000000E+00 0. -1.
         -2    1    1    2    0  503 -0.33562767631E+02  0.16199495616E+02 -0.60014097767E+03  0.60129699493E+03  0.00000000000E+00 0.  1.
<mgrwt>
<rscale>  2 0.10065464E+03</rscale>
<asrwt>0</asrwt>
<pdfrwt beam="1">  1       21 0.15596086E-02 0.10065464E+03</pdfrwt>
<pdfrwt beam="2">  1       21 0.20154482E+00 0.10065464E+03</pdfrwt>
<totfact> 0.25366611E+05</totfact>
</mgrwt>
</event>
<event>
 5    1  0.1946229E+000  0.6723446E+02  0.7546771E-02  0.1369758E+00
         21   -1    0    0  501  502  0.00000000000E+00  0.00000000000E+00  0.19834217218E+02  0.19834217218E+02  0.00000000000E+00 0. -1.
         21   -1    0    0  502  503 -0.00000000000E+00 -0.00000000000E+00 -0.35714376174E+03  0.35714376174E+03  0.00000000000E+00 0. -1.
         24    1    1    2    0    0 -0.27807840576E+02 -0.28101043148E+02 -0.26527527361E+03  0.28000202029E+03  0.80419002446E+02 0. -1.
          1    1    1    2  501    0  0.63638302988E+01  0.21498038695E+02 -0.95627650734E+00  0.22440554105E+02  0.00000000000E+00 0. -1.
         -2    1    1    2    0  503  0.21444010277E+02  0.66030044531E+01 -0.71077994407E+02  0.74535404564E+02  0.00000000000E+00 0.  1.
<mgrwt>
<rscale>  2 0.67234459E+02</rscale>
<asrwt>0</asrwt>
<pdfrwt beam="1">  1       21 0.30514182E-02 0.67234459E+02</pdfrwt>
<pdfrwt beam="2">  1       21 0.54945190E-01 0.67234459E+02</pdfrwt>
<totfact> 0.18768574E+06</totfact>
</mgrwt>
</event>
<event>
 5    1  0.1946229E+000  0.7328231E+02  0.7546771E-02  0.1349274E+00
         21   -1    0    0  501  502  0.00000000000E+00  0.00000000000E+00  0.43769713871E+01  0.43769713871E+01  0.00000000000E+00 0.  1.
         21   -1    0    0  502  503 -0.00000000000E+00 -0.00000000000E+00 -0.18256094382E+04  0.18256094382E+04  0.00000000000E+00 0.  1.
         24    1    1    2    0    0 -0.33559583281E+02 -0.30438552637E+01 -0.54252430803E+03  0.54948644336E+03  0.80419002446E+02 0.  1.
          1    1    1    2  501    0  0.18010141831E+02  0.26009554268E+02 -0.36423882655E+03  0.36561015425E+03  0.00000000000E+00 0. -1.
         -2    1    1    2    0  503  0.15549441450E+02 -0.22965699004E+02 -0.91446933220E+03  0.91488981194E+03  0.00000000000E+00 0.  1.
<mgrwt>
<rscale>  2 0.73282314E+02</rscale>
<asrwt>0</asrwt>
<pdfrwt beam="1">  1       21 0.67338016E-03 0.73282314E+02</pdfrwt>
<pdfrwt beam="2">  1       21 0.28086301E+00 0.73282314E+02</pdfrwt>
<totfact> 0.34187620E+05</totfact>
</mgrwt>
</event>
<event>
 5    1  0.1946229E+000  0.9897435E+02  0.7546771E-02  0.1282468E+00
         21   -1    0    0  503  502  0.00000000000E+00  0.00000000000E+00  0.81822351121E+02  0.81822351121E+02  0.00000000000E+00 0.  1.
         21   -1    0    0  501  503 -0.00000000000E+00 -0.00000000000E+00 -0.23425217846E+03  0.23425217846E+03  0.00000000000E+00 0. -1.
         24    1    1    2    0    0  0.67164116260E+02  0.46206283939E+02 -0.20863733780E+02  0.11639824110E+03  0.80419002446E+02 0.  1.
          1    1    1    2  501    0 -0.18790414398E+02 -0.23242242970E+02 -0.14200871316E+03  0.14511979929E+03  0.00000000000E+00 0. -1.
         -2    1    1    2    0  502 -0.48373701863E+02 -0.22964040969E+02  0.10442619601E+02  0.54556489198E+02  0.00000000000E+00 0.  1.
<mgrwt>
<rscale>  2 0.98974347E+02</rscale>
<asrwt>0</asrwt>
<pdfrwt beam="1">  1       21 0.12588054E-01 0.98974347E+02</pdfrwt>
<pdfrwt beam="2">  1       21 0.36038796E-01 0.98974347E+02</pdfrwt>
<totfact> 0.40541086E+05</totfact>
</mgrwt>
</event>
<event>
 5    1  0.1946229E+000  0.1173046E+03  0.7546771E-02  0.1247611E+00
         21   -1    0    0  503  502  0.00000000000E+00  0.00000000000E+00  0.29145091346E+03  0.29145091346E+03  0.00000000000E+00 0.  1.
         21   -1    0    0  501  503 -0.00000000000E+00 -0.00000000000E+00 -0.72080604317E+02  0.72080604317E+02  0.00000000000E+00 0.  1.
         24    1    1    2    0    0  0.82672091405E+02 -0.39968726472E+02  0.43985113811E+02  0.12974621376E+03  0.80419002446E+02 0.  1.
          1    1    1    2  501    0 -0.99065767377E+00  0.30275270371E+02 -0.92370350139E+01  0.31668536665E+02  0.00000000000E+00 0. -1.
         -2    1    1    2    0  502 -0.81681433731E+02  0.96934561017E+01  0.18462223034E+03  0.20211676735E+03  0.00000000000E+00 0.  1.
<mgrwt>
<rscale>  2 0.11730457E+03</rscale>
<asrwt>0</asrwt>
<pdfrwt beam="1">  1       21 0.44838602E-01 0.11730457E+03</pdfrwt>
<pdfrwt beam="2">  1       21 0.11089324E-01 0.11730457E+03</pdfrwt>
<totfact> 0.32726742E+05</totfact>
</mgrwt>
</event>
<event>
 5    1  0.1946229E+000  0.6780379E+02  0.7546771E-02  0.1367725E+00
         21   -1    0    0  501  502  0.00000000000E+00  0.00000000000E+00  0.27510938555E+02  0.27510938555E+02  0.00000000000E+00 0. -1.
         21   -1    0    0  502  503 -0.00000000000E+00 -0.00000000000E+00 -0.43250066562E+03  0.43250066562E+03  0.00000000000E+00 0. -1.
         24    1    1    2    0    0 -0.90101375144E+01 -0.42647985422E+01 -0.32296151243E+03  0.33297255976E+03  0.80419002446E+02 0. -1.
          1    1    1    2  501    0 -0.93531597519E+01  0.25108585367E+02  0.11732170284E+02  0.29250067967E+02  0.00000000000E+00 0. -1.
         -2    1    1    2    0  503  0.18363297266E+02 -0.20843786825E+02 -0.93760384913E+02  0.97788976448E+02  0.00000000000E+00 0.  1.
<mgrwt>
<rscale>  2 0.67803791E+02</rscale>
<asrwt>0</asrwt>
<pdfrwt beam="1">  1       21 0.42324523E-02 0.67803791E+02</pdfrwt>
<pdfrwt beam="2">  1       21 0.66538560E-01 0.67803791E+02</pdfrwt>
<totfact> 0.73995357E+05</totfact>
</mgrwt>
</event>
<event>
 5    1  0.1946229E+000  0.6261805E+02  0.7546771E-02  0.1387162E+00
         21   -1    0    0  503  502  0.00000000000E+00  0.00000000000E+00  0.11328679243E+04  0.11328679243E+04  0.00000000000E+00 0. -1.
         21   -1    0    0  501  503 -0.00000000000E+00 -0.00000000000E+00 -0.13745051440E+02  0.13745051440E+02  0.00000000000E+00 0. -1.
         24    1    1    2    0    0  0.58863654757E+01  0.11330488056E+02  0.89636848815E+03  0.90005928236E+03  0.80419002446E+02 0. -1.
          1    1    1    2  501    0  0.16674783571E+02 -0.13062847093E+02 -0.14298471966E+01  0.21230422613E+02  0.00000000000E+00 0. -1.
         -2    1    1    2    0  502 -0.22561149046E+02  0.17323590374E+01  0.22418423195E+03  0.22532327081E+03  0.00000000000E+00 0.  1.
<mgrwt>
<rscale>  2 0.62618049E+02</rscale>
<asrwt>0</asrwt>
<pdfrwt beam="1">  1       21 0.17428730E+00 0.62618049E+02</pdfrwt>
<pdfrwt beam="2">  1       21 0.21146242E-02 0.62618049E+02</pdfrwt>
<totfact> 0.23898427E+05</totfact>
</mgrwt>
</event>
<event>
 5    1  0.1946229E+000  0.8132451E+02  0.7546771E-02  0.1325334E+00
         21   -1    0    0  501  502  0.00000000000E+00  0.00000000000E+00  0.26482627178E+03  0.26482627178E+03  0.00000000000E+00 0.  1.
         21   -1    0    0  502  503 -0.00000000000E+00 -0.00000000000E+00 -0.39457799153E+02  0.39457799153E+02  0.00000000000E+00 0.  1.
         24    1    1    2    0    0 -0.85757812245E+01 -0.35027253637E+02  0.16550159431E+03  0.18750585643E+03  0.80419002446E+02 0.  1.
          1    1    1    2  501    0 -0.22990150845E+02 -0.50107280824E+01  0.61416793781E+02  0.65769879049E+02  0.00000000000E+00 0. -1.
         -2    1    1    2    0  503  0.31565932069E+02  0.40037981719E+02 -0.15499154710E+01  0.51008335451E+02  0.00000000000E+00 0.  1.
<mgrwt>
<rscale>  2 0.81324511E+02</rscale>
<asrwt>0</asrwt>
<pdfrwt beam="1">  1       21 0.40742502E-01 0.81324511E+02</pdfrwt>
<pdfrwt beam="2">  1       21 0.60704308E-02 0.81324511E+02</pdfrwt>
<totfact> 0.11137517E+06</totfact>
</mgrwt>
</event>
<event>
 5    1  0.1946229E+000  0.7436532E+02  0.7546771E-02  0.1345848E+00
         21   -1    0    0  501  502  0.00000000000E+00  0.00000000000E+00  0.80938925366E+02  0.80938925366E+02  0.00000000000E+00 0.  1.
         21   -1    0    0  502  503 -0.00000000000E+00 -0.00000000000E+00 -0.19590756354E+03  0.19590756354E+03  0.00000000000E+00 0.  1.
         24    1    1    2    0    0 -0.28164387544E+02  0.57788284132E+01  0.49404279640E+02  0.98664210252E+02  0.80419002446E+02 0.  1.
          1    1    1    2  501    0  0.24107899246E+01  0.23906037602E+02 -0.31489062978E+02  0.39608984197E+02  0.00000000000E+00 0. -1.
         -2    1    1    2    0  503  0.25753597619E+02 -0.29684866015E+02 -0.13288385484E+03  0.13857329446E+03  0.00000000000E+00 0.  1.
<mgrwt>
<rscale>  2 0.74365321E+02</rscale>
<asrwt>0</asrwt>
<pdfrwt beam="1">  1       21 0.12452142E-01 0.74365321E+02</pdfrwt>
<pdfrwt beam="2">  1       21 0.30139625E-01 0.74365321E+02</pdfrwt>
<totfact> 0.58330386E+05</totfact>
</mgrwt>
</event>
<event>
 5    1  0.1946229E+000  0.6906996E+02  0.7546771E-02  0.1363285E+00
         21   -1    0    0  501  502  0.00000000000E+00  0.00000000000E+00  0.26781370895E+03  0.26781370895E+03  0.00000000000E+00 0.  1.
         21   -1    0    0  502  503 -0.00000000000E+00 -0.00000000000E+00 -0.85303362566E+02  0.85303362566E+02  0.00000000000E+00 0. -1.
         24    1    1    2    0    0 -0.92427300776E+01  0.11845287551E+00 -0.61011536410E+02  0.10136599834E+03  0.80419002446E+02 0. -1.
          1    1    1    2  501    0 -0.10848255333E+02  0.23679851594E+02  0.16880749070E+03  0.17080511975E+03  0.00000000000E+00 0. -1.
         -2    1    1    2    0  503  0.20090985411E+02 -0.23798304470E+02  0.74714392091E+02  0.80945953425E+02  0.00000000000E+00 0.  1.
<mgrwt>
<rscale>  2 0.69069961E+02</rscale>
<asrwt>0</asrwt>
<pdfrwt beam="1">  1       21 0.41202109E-01 0.69069961E+02</pdfrwt>
<pdfrwt beam="2">  1       21 0.13123594E-01 0.69069961E+02</pdfrwt>
<totfact> 0.29064726E+05</totfact>
</mgrwt>
</event>
<event>
 5    1  0.1946229E+000  0.9913163E+02  0.7546771E-02  0.1282133E+00
         21   -1    0    0  501  502  0.00000000000E+00  0.00000000000E+00  0.17282059106E+02  0.17282059106E+02  0.00000000000E+00 0. -1.
         21   -1    0    0  502  503 -0.00000000000E+00 -0.00000000000E+00 -0.14392481541E+04  0.14392481541E+04  0.00000000000E+00 0.  1.
         24    1    1    2    0    0  0.33284751433E+02  0.69849756155E+02 -0.43564703091E+03  0.44971370294E+03  0.80419002446E+02 0. -1.
          1    1    1    2  501    0 -0.12317835103E+02 -0.63607184547E+02 -0.93635198916E+02  0.11386462780E+03  0.00000000000E+00 0. -1.
         -2    1    1    2    0  503 -0.20966916330E+02 -0.62425716073E+01 -0.89268386518E+03  0.89295188248E+03  0.00000000000E+00 0.  1.
<mgrwt>
<rscale>  2 0.99131628E+02</rscale>
<asrwt>0</asrwt>
<pdfrwt beam="1">  1       21 0.26587778E-02 0.99131628E+02</pdfrwt>
<pdfrwt beam="2">  1       21 0.22142284E+00 0.99131628E+02</pdfrwt>
<totfact> 0.81895124E+04</totfact>
</mgrwt>
</event>
<event>
 5    1  0.1946229E+000  0.7365818E+02  0.7546771E-02  0.1348077E+00
         21   -1    0    0  501  502  0.00000000000E+00  0.00000000000E+00  0.29160741644E+03  0.29160741644E+03  0.00000000000E+00 0. -1.
         21   -1    0    0  502  503 -0.00000000000E+00 -0.00000000000E+00 -0.96056145047E+02  0.96056145047E+02  0.00000000000E+00 0.  1.
         24    1    1    2    0    0 -0.32024903555E+02 -0.11072103585E+02  0.17652804005E+03  0.19692016353E+03  0.80419002446E+02 0.  0.
          1    1    1    2  501    0  0.36605691353E+02 -0.10432286636E+02  0.99913480814E+02  0.10691825332E+03  0.00000000000E+00 0. -1.
         -2    1    1    2    0  503 -0.45807877986E+01  0.21504390221E+02 -0.80890249469E+02  0.83825144645E+02  0.00000000000E+00 0.  1.
<mgrwt>
<rscale>  2 0.73658183E+02</rscale>
<asrwt>0</asrwt>
<pdfrwt beam="1">  1       21 0.44862679E-01 0.73658183E+02</pdfrwt>
<pdfrwt beam="2">  1       21 0.14777869E-01 0.73658183E+02</pdfrwt>
<totfact> 0.19893107E+05</totfact>
</mgrwt>
</event>
<event>
 5    1  0.1946229E+000  0.6460872E+02  0.7546771E-02  0.1379449E+00
         21   -1    0    0  503  502  0.00000000000E+00  0.00000000000E+00  0.16811791943E+03  0.16811791943E+03  0.00000000000E+00 0. -1.
         21   -1    0    0  501  503 -0.00000000000E+00 -0.00000000000E+00 -0.72265179859E+02  0.72265179859E+02  0.00000000000E+00 0. -1.
         24    1    1    2    0    0 -0.74565599670E+01  0.27155883291E+02  0.10643816004E+01  0.85213796690E+02  0.80419002446E+02 0.  0.
          1    1    1    2  501    0  0.20415610169E+02 -0.10654560348E+02 -0.24748274166E+02  0.33805234343E+02  0.00000000000E+00 0. -1.
         -2    1    1    2    0  502 -0.12959050202E+02 -0.16501322942E+02  0.11953663213E+03  0.12136406825E+03  0.00000000000E+00 0.  1.
<mgrwt>
<rscale>  2 0.64608716E+02</rscale>
<asrwt>0</asrwt>
<pdfrwt beam="1">  1       21 0.25864295E-01 0.64608716E+02</pdfrwt>
<pdfrwt beam="2">  1       21 0.11117720E-01 0.64608716E+02</pdfrwt>
<totfact> 0.94429851E+05</totfact>
</mgrwt>
</event>
<event>
 5    1  0.1946229E+000  0.1322732E+03  0.7546771E-02  0.1224121E+00
         21   -1    0    0  503  502  0.00000000000E+00  0.00000000000E+00  0.35751233360E+03  0.35751233360E+03  0.00000000000E+00 0. -1.
         21   -1    0    0  501  503 -0.00000000000E+00 -0.00000000000E+00 -0.54710950961E+02  0.54710950961E+02  0.00000000000E+00 0. -1.
         24    1    1    2    0    0 -0.31190854569E+02 -0.10238793373E+03  0.16226778565E+03  0.21036684291E+03  0.80419002446E+02 0. -1.
          1    1    1    2  501    0  0.52488688096E+02  0.94227407794E+02  0.72143445687E+02  0.12976341362E+03  0.00000000000E+00 0. -1.
         -2    1    1    2    0  502 -0.21297833527E+02  0.81605259325E+01  0.68390151295E+02  0.72093028030E+02  0.00000000000E+00 0.  1.
<mgrwt>
<rscale>  2 0.13227316E+03</rscale>
<asrwt>0</asrwt>
<pdfrwt beam="1">  1       21 0.55001896E-01 0.13227316E+03</pdfrwt>
<pdfrwt beam="2">  1       21 0.84170696E-02 0.13227316E+03</pdfrwt>
<totfact> 0.34669281E+05</totfact>
</mgrwt>
</event>
<event>
 5    1  0.1946229E+000  0.9912821E+02  0.7546771E-02  0.1282140E+00
         21   -1    0    0  503  502  0.00000000000E+00  0.00000000000E+00  0.13856655389E+03  0.13856655389E+03  0.00000000000E+00 0.  1.
         21   -1    0    0  501  503 -0.00000000000E+00 -0.00000000000E+00 -0.61432326580E+03  0.61432326580E+03  0.00000000000E+00 0. -1.
         24    1    1    2    0    0 -0.68974089411E+02 -0.34667632318E+02 -0.95041223151E+02  0.14648999895E+03  0.80419002446E+02 0.  1.
          1    1    1    2  501    0  0.11837999075E+02  0.26553654605E+02 -0.48571608749E+03  0.48658540097E+03  0.00000000000E+00 0. -1.
         -2    1    1    2    0  502  0.57136090336E+02  0.81139777131E+01  0.10500059872E+03  0.11981441977E+03  0.00000000000E+00 0.  1.
<mgrwt>
<rscale>  2 0.99128212E+02</rscale>
<asrwt>0</asrwt>
<pdfrwt beam="1">  1       21 0.21317931E-01 0.99128212E+02</pdfrwt>
<pdfrwt beam="2">  1       21 0.94511272E-01 0.99128212E+02</pdfrwt>
<totfact> 0.20570547E+04</totfact>
</mgrwt>
</event>
<event>
 5    1  0.1946229E+000  0.7000847E+02  0.7546771E-02  0.1360064E+00
         21   -1    0    0  503  502  0.00000000000E+00  0.00000000000E+00  0.22957059980E+02  0.22957059980E+02  0.00000000000E+00 0. -1.
         21   -1    0    0  501  503 -0.00000000000E+00 -0.00000000000E+00 -0.38086066337E+03  0.38086066337E+03  0.00000000000E+00 0.  1.
         24    1    1    2    0    0  0.41235316443E+01  0.34634046953E+02 -0.21155684560E+03  0.22899789430E+03  0.80419002446E+02 0.  1.
          1    1    1    2  501    0  0.15497313181E+02 -0.27340911590E+02 -0.15027144389E+03  0.15352263355E+03  0.00000000000E+00 0. -1.
         -2    1    1    2    0  502 -0.19620844826E+02 -0.72931353624E+01  0.39246860998E+01  0.21297195498E+02  0.00000000000E+00 0.  1.
<mgrwt>
<rscale>  2 0.70008472E+02</rscale>
<asrwt>0</asrwt>
<pdfrwt beam="1">  1       21 0.35318554E-02 0.70008472E+02</pdfrwt>
<pdfrwt beam="2">  1       21 0.58593949E-01 0.70008472E+02</pdfrwt>
<totfact> 0.12989413E+06</totfact>
</mgrwt>
</event>
<event>
 5    1  0.1946229E+000  0.6726842E+02  0.7546771E-02  0.1369636E+00
         21   -1    0    0  501  502  0.00000000000E+00  0.00000000000E+00  0.32548010041E+02  0.32548010041E+02  0.00000000000E+00 0. -1.
         21   -1    0    0  502  503 -0.00000000000E+00 -0.00000000000E+00 -0.20017851636E+03  0.20017851636E+03  0.00000000000E+00 0. -1.
         24    1    1    2    0    0  0.10893158490E+02  0.27133250804E+01 -0.13429140420E+03  0.15693125957E+03  0.80419002446E+02 0. -1.
          1    1    1    2  501    0 -0.31355073638E+02 -0.76801550106E+01  0.43991002646E+01  0.32580323923E+02  0.00000000000E+00 0. -1.
         -2    1    1    2    0  503  0.20461915147E+02  0.49668299302E+01 -0.37738202387E+02  0.43214942907E+02  0.00000000000E+00 0.  1.
<mgrwt>
<rscale>  2 0.67268415E+02</rscale>
<asrwt>0</asrwt>
<pdfrwt beam="1">  1       21 0.50073861E-02 0.67268415E+02</pdfrwt>
<pdfrwt beam="2">  1       21 0.30796695E-01 0.67268415E+02</pdfrwt>
<totfact> 0.26174408E+06</totfact>
</mgrwt>
</event>
<event>
 5    1  0.1946229E+000  0.1340390E+03  0.7546771E-02  0.1221583E+00
         21   -1    0    0  501  502  0.00000000000E+00  0.00000000000E+00  0.16056903984E+03  0.16056903984E+03  0.00000000000E+00 0. -1.
         21   -1    0    0  502  503 -0.00000000000E+00 -0.00000000000E+00 -0.24982051730E+03  0.24982051730E+03  0.00000000000E+00 0.  1.
         24    1    1    2    0    0  0.51871599357E+02  0.96892876329E+02  0.10293602395E+03  0.17071008548E+03  0.80419002446E+02 0. -1.
          1    1    1    2  501    0  0.76510319916E+00 -0.74807879386E+02 -0.60711873722E+02  0.96346955385E+02  0.00000000000E+00 0. -1.
         -2    1    1    2    0  503 -0.52636702557E+02 -0.22084996943E+02 -0.13147562769E+03  0.14333251628E+03  0.00000000000E+00 0.  1.
<mgrwt>
<rscale>  2 0.13403901E+03</rscale>
<asrwt>0</asrwt>
<pdfrwt beam="1">  1       21 0.24702929E-01 0.13403901E+03</pdfrwt>
<pdfrwt beam="2">  1       21 0.38433926E-01 0.13403901E+03</pdfrwt>
<totfact> 0.10343442E+05</totfact>
</mgrwt>
</event>
<event>
 5    1  0.1946229E+000  0.7256878E+02  0.7546771E-02  0.1351569E+00
         21   -1    0    0  501  502  0.00000000000E+00  0.00000000000E+00  0.78221428971E+02  0.78221428971E+02  0.00000000000E+00 0.  1.
         21   -1    0    0  502  503 -0.00000000000E+00 -0.00000000000E+00 -0.93514332671E+02  0.93514332671E+02  0.00000000000E+00 0. -1.
         24    1    1    2    0    0  0.21692020559E+02  0.36162088547E+02  0.20329325995E+02  0.93052339325E+02  0.80419002446E+02 0.  0.
          1    1    1    2  501    0  0.61067842862E+01 -0.22584636710E+02  0.84168873421E+01  0.24863680785E+02  0.00000000000E+00 0. -1.
         -2    1    1    2    0  503 -0.27798804845E+02 -0.13577451837E+02 -0.44039117038E+02  0.53819741533E+02  0.00000000000E+00 0.  1.
<mgrwt>
<rscale>  2 0.72568780E+02</rscale>
<asrwt>0</asrwt>
<pdfrwt beam="1">  1       21 0.12034066E-01 0.72568780E+02</pdfrwt>
<pdfrwt beam="2">  1       21 0.14386820E-01 0.72568780E+02</pdfrwt>
<totfact> 0.23920577E+06</totfact>
</mgrwt>
</event>
<event>
 5    1  0.1946229E+000  0.9433119E+02  0.7546771E-02  0.1292690E+00
         21   -1    0    0  501  502  0.00000000000E+00  0.00000000000E+00  0.81246412744E+02  0.81246412744E+02  0.00000000000E+00 0.  1.
         21   -1    0    0  502  503 -0.00000000000E+00 -0.00000000000E+00 -0.11890879909E+03  0.11890879909E+03  0.00000000000E+00 0. -1.
         24    1    1    2    0    0  0.11659348963E+02 -0.33426650513E+02  0.68245573060E+01  0.88130992957E+02  0.80419002446E+02 0.  0.
          1    1    1    2  501    0 -0.52217327901E+02  0.77391756163E+01 -0.12231067020E+02  0.54186189872E+02  0.00000000000E+00 0. -1.
         -2    1    1    2    0  503  0.40557978939E+02  0.25687474897E+02 -0.32255876635E+02  0.57838029009E+02  0.00000000000E+00 0.  1.
<mgrwt>
<rscale>  2 0.94331190E+02</rscale>
<asrwt>0</asrwt>
<pdfrwt beam="1">  1       21 0.12499448E-01 0.94331190E+02</pdfrwt>
<pdfrwt beam="2">  1       21 0.18293661E-01 0.94331190E+02</pdfrwt>
<totfact> 0.14707996E+06</totfact>
</mgrwt>
</event>
<event>
 5    1  0.1946229E+000  0.8078309E+02  0.7546771E-02  0.1326844E+00
         21   -1    0    0  501  502  0.00000000000E+00  0.00000000000E+00  0.47677656862E+03  0.47677656862E+03  0.00000000000E+00 0.  1.
         21   -1    0    0  502  503 -0.00000000000E+00 -0.00000000000E+00 -0.16310517085E+02  0.16310517085E+02  0.00000000000E+00 0. -1.
         24    1    1    2    0    0  0.21405670731E+02 -0.34416929200E+02  0.26469206439E+03  0.27959226145E+03  0.80419002446E+02 0.  1.
          1    1    1    2  501    0 -0.77139007962E+01  0.50101011817E+02  0.18100391703E+03  0.18796817186E+03  0.00000000000E+00 0. -1.
         -2    1    1    2    0  503 -0.13691769935E+02 -0.15684082617E+02  0.14770070104E+02  0.25526652392E+02  0.00000000000E+00 0.  1.
<mgrwt>
<rscale>  2 0.80783092E+02</rscale>
<asrwt>0</asrwt>
<pdfrwt beam="1">  1       21 0.73350231E-01 0.80783092E+02</pdfrwt>
<pdfrwt beam="2">  1       21 0.25093107E-02 0.80783092E+02</pdfrwt>
<totfact> 0.14078571E+06</totfact>
</mgrwt>
</event>
<event>
 5    1  0.1946229E+000  0.7882954E+02  0.7546771E-02  0.1332406E+00
         21   -1    0    0  501  502  0.00000000000E+00  0.00000000000E+00  0.25468230099E+03  0.25468230099E+03  0.00000000000E+00 0. -1.
         21   -1    0    0  502  503 -0.00000000000E+00 -0.00000000000E+00 -0.33244979343E+02  0.33244979343E+02  0.00000000000E+00 0. -1.
         24    1    1    2    0    0 -0.47729330566E+02 -0.94345421363E+01  0.61531828935E+02  0.11234091645E+03  0.80419002446E+02 0. -1.
          1    1    1    2  501    0  0.32962250505E+02 -0.14126471429E+02  0.12954260778E+03  0.13441485924E+03  0.00000000000E+00 0. -1.
         -2    1    1    2    0  503  0.14767080061E+02  0.23561013565E+02  0.30362884939E+02  0.41171504655E+02  0.00000000000E+00 0.  1.
<mgrwt>
<rscale>  2 0.78829538E+02</rscale>
<asrwt>0</asrwt>
<pdfrwt beam="1">  1       21 0.39181891E-01 0.78829538E+02</pdfrwt>
<pdfrwt beam="2">  1       21 0.51146124E-02 0.78829538E+02</pdfrwt>
<totfact> 0.15993809E+06</totfact>
</mgrwt>
</event>
<event>
 5    1  0.1946229E+000  0.7464640E+02  0.7546771E-02  0.1344970E+00
         21   -1    0    0  501  502  0.00000000000E+00  0.00000000000E+00  0.65822508881E+03  0.65822508881E+03  0.00000000000E+00 0. -1.
         21   -1    0    0  502  503 -0.00000000000E+00 -0.00000000000E+00 -0.37269176774E+02  0.37269176774E+02  0.00000000000E+00 0.  1.
         24    1    1    2    0    0  0.31809033526E+02 -0.41808648828E+02  0.59398810233E+03  0.60170496042E+03  0.80419002446E+02 0. -1.
          1    1    1    2  501    0 -0.16189203128E+02  0.14294392702E+02  0.50126099241E+02  0.54580635630E+02  0.00000000000E+00 0. -1.
         -2    1    1    2    0  503 -0.15619830398E+02  0.27514256126E+02 -0.23158289540E+02  0.39208669529E+02  0.00000000000E+00 0.  1.
<mgrwt>
<rscale>  2 0.74646398E+02</rscale>
<asrwt>0</asrwt>
<pdfrwt beam="1">  1       21 0.10126539E+00 0.74646398E+02</pdfrwt>
<pdfrwt beam="2">  1       21 0.57337200E-02 0.74646398E+02</pdfrwt>
<totfact> 0.17735223E+05</totfact>
</mgrwt>
</event>
<event>
 5    1  0.1946229E+000  0.1031123E+03  0.7546771E-02  0.1273884E+00
         21   -1    0    0  503  502  0.00000000000E+00  0.00000000000E+00  0.89531303094E+02  0.89531303094E+02  0.00000000000E+00 0.  1.
         21   -1    0    0  501  503 -0.00000000000E+00 -0.00000000000E+00 -0.26114737025E+03  0.26114737025E+03  0.00000000000E+00 0.  1.
         24    1    1    2    0    0  0.14458372173E+02 -0.81554863277E+02 -0.10981311245E+03  0.15933102608E+03  0.80419002446E+02 0.  1.
          1    1    1    2  501    0  0.12593443182E+02  0.21567230841E+02 -0.10806168202E+03  0.11091017707E+03  0.00000000000E+00 0. -1.
         -2    1    1    2    0  502 -0.27051815355E+02  0.59987632436E+02  0.46258727312E+02  0.80437470198E+02  0.00000000000E+00 0.  1.
<mgrwt>
<rscale>  2 0.10311227E+03</rscale>
<asrwt>0</asrwt>
<pdfrwt beam="1">  1       21 0.13774047E-01 0.10311227E+03</pdfrwt>
<pdfrwt beam="2">  1       21 0.40176518E-01 0.10311227E+03</pdfrwt>
<totfact> 0.27876191E+05</totfact>
</mgrwt>
</event>
<event>
 5    1  0.1946229E+000  0.9069252E+02  0.7546771E-02  0.1301183E+00
         21   -1    0    0  503  502  0.00000000000E+00  0.00000000000E+00  0.18838475810E+03  0.18838475810E+03  0.00000000000E+00 0. -1.
         21   -1    0    0  501  503 -0.00000000000E+00 -0.00000000000E+00 -0.49072570916E+02  0.49072570916E+02  0.00000000000E+00 0. -1.
         24    1    1    2    0    0 -0.37409141119E+02 -0.42351101451E+02  0.11237799763E+03  0.14929531117E+03  0.80419002446E+02 0. -1.
          1    1    1    2  501    0  0.14918906737E+02  0.55210929281E+02  0.12633397216E+02  0.58569814884E+02  0.00000000000E+00 0. -1.
         -2    1    1    2    0  502  0.22490234381E+02 -0.12859827830E+02  0.14300792340E+02  0.29592202958E+02  0.00000000000E+00 0.  1.
<mgrwt>
<rscale>  2 0.90692521E+02</rscale>
<asrwt>0</asrwt>
<pdfrwt beam="1">  1       21 0.28982270E-01 0.90692521E+02</pdfrwt>
<pdfrwt beam="2">  1       21 0.75496264E-02 0.90692521E+02</pdfrwt>
<totfact> 0.14956500E+06</totfact>
</mgrwt>
</event>
<event>
 5    1  0.1946229E+000  0.8922799E+02  0.7546771E-02  0.1304732E+00
         21   -1    0    0  503  502  0.00000000000E+00  0.00000000000E+00  0.46263157077E+02  0.46263157077E+02  0.00000000000E+00 0.  1.
         21   -1    0    0  501  503 -0.00000000000E+00 -0.00000000000E+00 -0.27423720688E+03  0.27423720688E+03  0.00000000000E+00 0. -1.
         24    1    1    2    0    0 -0.94894318812E-01 -0.38729773319E+01 -0.74148570752E+02  0.10945426194E+03  0.80419002446E+02 0.  1.
          1    1    1    2  501    0  0.48933361852E+02  0.40987747604E+01 -0.15458956818E+03  0.16220113577E+03  0.00000000000E+00 0. -1.
         -2    1    1    2    0  502 -0.48838467533E+02 -0.22579742853E+00  0.76408912318E+00  0.48844966246E+02  0.00000000000E+00 0.  1.
<mgrwt>
<rscale>  2 0.89227989E+02</rscale>
<asrwt>0</asrwt>
<pdfrwt beam="1">  1       21 0.71174086E-02 0.89227989E+02</pdfrwt>
<pdfrwt beam="2">  1       21 0.42190340E-01 0.89227989E+02</pdfrwt>
<totfact> 0.79599005E+05</totfact>
</mgrwt>
</event>
<event>
 5    1  0.1946229E+000  0.8527342E+02  0.7546771E-02  0.1314719E+00
         21   -1    0    0  501  502  0.00000000000E+00  0.00000000000E+00  0.15867899011E+03  0.15867899011E+03  0.00000000000E+00 0.  1.
         21   -1    0    0  502  503 -0.00000000000E+00 -0.00000000000E+00 -0.67533578845E+02  0.67533578845E+02  0.00000000000E+00 0.  1.
         24    1    1    2    0    0  0.23246397828E+02 -0.45437568606E+02  0.77649829200E+02  0.12288889121E+03  0.80419002446E+02 0.  1.
          1    1    1    2  501    0 -0.29240180033E+02 -0.22851602815E+00  0.40484962453E+02  0.49940690151E+02  0.00000000000E+00 0. -1.
         -2    1    1    2    0  503  0.59937822045E+01  0.45666084634E+02 -0.26989380389E+02  0.53382987596E+02  0.00000000000E+00 0.  1.
<mgrwt>
<rscale>  2 0.85273419E+02</rscale>
<asrwt>0</asrwt>
<pdfrwt beam="1">  1       21 0.24412152E-01 0.85273419E+02</pdfrwt>
<pdfrwt beam="2">  1       21 0.10389781E-01 0.85273419E+02</pdfrwt>
<totfact> 0.11914459E+06</totfact>
</mgrwt>
</event>
<event>
 5    1  0.1946229E+000  0.6210093E+02  0.7546771E-02  0.1389221E+00
         21   -1    0    0  501  502  0.00000000000E+00  0.00000000000E+00  0.41266014415E+03  0.41266014415E+03  0.00000000000E+00 0.  1.
         21   -1    0    0  502  503 -0.00000000000E+00 -0.00000000000E+00 -0.17531899652E+02  0.17531899652E+02  0.00000000000E+00 0.  1.
         24    1    1    2    0    0  0.57135395516E+01  0.12759520879E+02  0.31456548965E+03  0.32498325055E+03  0.80419002446E+02 0.  1.
          1    1    1    2  501    0 -0.22271897900E+02 -0.10505202747E+01  0.81903793576E+02  0.84884465193E+02  0.00000000000E+00 0. -1.
         -2    1    1    2    0  503  0.16558358349E+02 -0.11709000605E+02 -0.13410387209E+01  0.20324328063E+02  0.00000000000E+00 0.  1.
<mgrwt>
<rscale>  2 0.62100926E+02</rscale>
<asrwt>0</asrwt>
<pdfrwt beam="1">  1       21 0.63486169E-01 0.62100926E+02</pdfrwt>
<pdfrwt beam="2">  1       21 0.26972156E-02 0.62100926E+02</pdfrwt>
<totfact> 0.16904034E+06</totfact>
</mgrwt>
</event>
<event>
 5    1  0.1946229E+000  0.7035879E+02  0.7546771E-02  0.1358877E+00
         21   -1    0    0  501  502  0.00000000000E+00  0.00000000000E+00  0.24374369377E+03  0.24374369377E+03  0.00000000000E+00 0. -1.
         21   -1    0    0  502  503 -0.00000000000E+00 -0.00000000000E+00 -0.22121140321E+02  0.22121140321E+02  0.00000000000E+00 0.  1.
         24    1    1    2    0    0 -0.26993748344E+02  0.15670589154E+02  0.13025368358E+03  0.15622889571E+03  0.80419002446E+02 0. -1.
          1    1    1    2  501    0 -0.16514573253E+01 -0.24440438768E+02  0.65933198454E+02  0.70336683294E+02  0.00000000000E+00 0. -1.
         -2    1    1    2    0  503  0.28645205669E+02  0.87698496146E+01  0.25435671413E+02  0.39299255086E+02  0.00000000000E+00 0.  1.
<mgrwt>
<rscale>  2 0.70358795E+02</rscale>
<asrwt>0</asrwt>
<pdfrwt beam="1">  1       21 0.37499028E-01 0.70358795E+02</pdfrwt>
<pdfrwt beam="2">  1       21 0.34032525E-02 0.70358795E+02</pdfrwt>
<totfact> 0.33821964E+06</totfact>
</mgrwt>
</event>
<event>
 5    1  0.1946229E+000  0.1219482E+03  0.7546771E-02  0.1239917E+00
         21   -1    0    0  501  502  0.00000000000E+00  0.00000000000E+00  0.12046731756E+04  0.12046731756E+04  0.00000000000E+00 0. -1.
         21   -1    0    0  502  503 -0.00000000000E+00 -0.00000000000E+00 -0.55760139604E+02  0.55760139604E+02  0.00000000000E+00 0.  1.
         24    1    1    2    0    0  0.23864158705E+02  0.83991451064E+02  0.30103457768E+02  0.12246426437E+03  0.80419002446E+02 0.  1.
          1    1    1    2  501    0  0.10095408347E+02 -0.90118111268E+02  0.10878063613E+04  0.10915795303E+04  0.00000000000E+00 0. -1.
         -2    1    1    2    0  503 -0.33959567051E+02  0.61266602041E+01  0.31003216994E+02  0.46389520622E+02  0.00000000000E+00 0.  1.
<mgrwt>
<rscale>  2 0.12194815E+03</rscale>
<asrwt>0</asrwt>
<pdfrwt beam="1">  1       21 0.18533432E+00 0.12194815E+03</pdfrwt>
<pdfrwt beam="2">  1       21 0.85784839E-02 0.12194815E+03</pdfrwt>
<totfact> 0.18892130E+04</totfact>
</mgrwt>
</event>
<event>
 5    1  0.1946229E+000  0.1059643E+03  0.7546771E-02  0.1268231E+00
         21   -1    0    0  503  502  0.00000000000E+00  0.00000000000E+00  0.35430906480E+02  0.35430906480E+02  0.00000000000E+00 0.  1.
         21   -1    0    0  501  503 -0.00000000000E+00 -0.00000000000E+00 -0.32516048650E+03  0.32516048650E+03  0.00000000000E+00 0. -1.
         24    1    1    2    0    0 -0.20432686085E+02  0.85684320620E+02 -0.13791656798E+03  0.18233895124E+03  0.80419002446E+02 0.  1.
          1    1    1    2  501    0 -0.47511754551E+01 -0.41701092651E+02 -0.80206023130E+02  0.90523814231E+02  0.00000000000E+00 0. -1.
         -2    1    1    2    0  502  0.25183861540E+02 -0.43983227968E+02 -0.71606988910E+02  0.87728627513E+02  0.00000000000E+00 0.  1.
<mgrwt>
<rscale>  2 0.10596434E+03</rscale>
<asrwt>0</asrwt>
<pdfrwt beam="1">  1       21 0.54509084E-02 0.10596434E+03</pdfrwt>
<pdfrwt beam="2">  1       21 0.50024693E-01 0.10596434E+03</pdfrwt>
<totfact> 0.88617669E+05</totfact>
</mgrwt>
</event>
<event>
 5    1  0.1946229E+000  0.7146593E+02  0.7546771E-02  0.1355178E+00
         21   -1    0    0  501  502  0.00000000000E+00  0.00000000000E+00  0.66484228566E+02  0.66484228566E+02  0.00000000000E+00 0. -1.
         21   -1    0    0  502  503 -0.00000000000E+00 -0.00000000000E+00 -0.15878639848E+03  0.15878639848E+03  0.00000000000E+00 0. -1.
         24    1    1    2    0    0 -0.15080383230E+02  0.79312291339E+01 -0.12198583437E+03  0.14709888543E+03  0.80419002446E+02 0. -1.
          1    1    1    2  501    0  0.33658234207E+02  0.97900309334E+01  0.37501795496E+02  0.51333284534E+02  0.00000000000E+00 0. -1.
         -2    1    1    2    0  503 -0.18577850977E+02 -0.17721260067E+02 -0.78181310351E+01  0.26838457075E+02  0.00000000000E+00 0.  1.
<mgrwt>
<rscale>  2 0.71465932E+02</rscale>
<asrwt>0</asrwt>
<pdfrwt beam="1">  1       21 0.10228343E-01 0.71465932E+02</pdfrwt>
<pdfrwt beam="2">  1       21 0.24428677E-01 0.71465932E+02</pdfrwt>
<totfact> 0.12162187E+06</totfact>
</mgrwt>
</event>
<event>
 5    1  0.1946229E+000  0.1168351E+03  0.7546771E-02  0.1248411E+00
         21   -1    0    0  501  502  0.00000000000E+00  0.00000000000E+00  0.34077255445E+03  0.34077255445E+03  0.00000000000E+00 0.  1.
         21   -1    0    0  502  503 -0.00000000000E+00 -0.00000000000E+00 -0.91735622158E+02  0.91735622158E+02  0.00000000000E+00 0.  1.
         24    1    1    2    0    0 -0.49198111826E+02  0.86074121995E+02  0.96102126632E+02  0.15978749445E+03  0.80419002446E+02 0.  1.
          1    1    1    2  501    0 -0.19746320428E+01 -0.30129412450E+02  0.18712802381E+03  0.18954835257E+03  0.00000000000E+00 0. -1.
         -2    1    1    2    0  503  0.51172743869E+02 -0.55944709545E+02 -0.34193218155E+02  0.83172329587E+02  0.00000000000E+00 0.  1.
<mgrwt>
<rscale>  2 0.11683505E+03</rscale>
<asrwt>0</asrwt>
<pdfrwt beam="1">  1       21 0.52426546E-01 0.11683505E+03</pdfrwt>
<pdfrwt beam="2">  1       21 0.14113173E-01 0.11683505E+03</pdfrwt>
<totfact> 0.15496076E+05</totfact>
</mgrwt>
</event>
<event>
 5    1  0.1946229E+000  0.1367464E+03  0.7546771E-02  0.1217775E+00
         21   -1    0    0  503  502  0.00000000000E+00  0.00000000000E+00  0.59011228634E+02  0.59011228634E+02  0.00000000000E+00 0. -1.
         21   -1    0    0  501  503 -0.00000000000E+00 -0.00000000000E+00 -0.89270035332E+03  0.89270035332E+03  0.00000000000E+00 0. -1.
         24    1    1    2    0    0 -0.86860634195E+02  0.15822196790E+02 -0.18108589309E+02  0.12079010160E+03  0.80419002446E+02 0. -1.
          1    1    1    2  501    0  0.31165153739E+02 -0.69841083804E+02 -0.50701049205E+03  0.51274621680E+03  0.00000000000E+00 0. -1.
         -2    1    1    2    0  502  0.55695480456E+02  0.54018887014E+02 -0.30857004333E+03  0.31817526356E+03  0.00000000000E+00 0.  1.
<mgrwt>
<rscale>  2 0.13674643E+03</rscale>
<asrwt>0</asrwt>
<pdfrwt beam="1">  1       21 0.90786508E-02 0.13674643E+03</pdfrwt>
<pdfrwt beam="2">  1       21 0.13733851E+00 0.13674643E+03</pdfrwt>
<totfact> 0.37437816E+04</totfact>
</mgrwt>
</event>
<event>
 5    1  0.1946229E+000  0.5039992E+03  0.7546771E-02  0.1012740E+00
         21   -1    0    0  501  502  0.00000000000E+00  0.00000000000E+00  0.16638577889E+04  0.16638577889E+04  0.00000000000E+00 0. -1.
         21   -1    0    0  502  503 -0.00000000000E+00 -0.00000000000E+00 -0.18559098387E+03  0.18559098387E+03  0.00000000000E+00 0. -1.
         24    1    1    2    0    0  0.45269942136E+03 -0.11739812088E+03  0.58889665695E+03  0.75629727846E+03  0.80419002446E+02 0. -1.
          1    1    1    2  501    0 -0.47757691309E+03  0.73774268850E+02  0.91648317066E+03  0.10360809586E+04  0.00000000000E+00 0. -1.
         -2    1    1    2    0  503  0.24877491729E+02  0.43623852026E+02 -0.27113022534E+02  0.57070535754E+02  0.00000000000E+00 0.  1.
<mgrwt>
<rscale>  2 0.50399916E+03</rscale>
<asrwt>0</asrwt>
<pdfrwt beam="1">  1       21 0.25597811E+00 0.50399916E+03</pdfrwt>
<pdfrwt beam="2">  1       21 0.28552460E-01 0.50399916E+03</pdfrwt>
<totfact> 0.56833827E+02</totfact>
</mgrwt>
</event>
<event>
 5    1  0.1946229E+000  0.1428623E+03  0.7546771E-02  0.1209529E+00
         21   -1    0    0  503  502  0.00000000000E+00  0.00000000000E+00  0.22479286044E+03  0.22479286044E+03  0.00000000000E+00 0.  1.
         21   -1    0    0  501  503 -0.00000000000E+00 -0.00000000000E+00 -0.10308744335E+03  0.10308744335E+03  0.00000000000E+00 0. -1.
         24    1    1    2    0    0 -0.24686416127E+02 -0.70473673251E+02  0.96879540218E+02  0.14638585666E+03  0.80419002446E+02 0. -1.
          1    1    1    2  501    0  0.86570823004E+02  0.62501763372E+01 -0.63186255987E+01  0.87025841732E+02  0.00000000000E+00 0. -1.
         -2    1    1    2    0  502 -0.61884406877E+02  0.64223496914E+02  0.31144502471E+02  0.94468605391E+02  0.00000000000E+00 0.  1.
<mgrwt>
<rscale>  2 0.14286232E+03</rscale>
<asrwt>0</asrwt>
<pdfrwt beam="1">  1       21 0.34583517E-01 0.14286232E+03</pdfrwt>
<pdfrwt beam="2">  1       21 0.15859607E-01 0.14286232E+03</pdfrwt>
<totfact> 0.28872619E+05</totfact>
</mgrwt>
</event>
<event>
 5    1  0.1946229E+000  0.6360233E+02  0.7546771E-02  0.1383307E+00
         21   -1    0    0  503  502  0.00000000000E+00  0.00000000000E+00  0.83496873012E+02  0.83496873012E+02  0.00000000000E+00 0. -1.
         21   -1    0    0  501  503 -0.00000000000E+00 -0.00000000000E+00 -0.13229418784E+03  0.13229418784E+03  0.00000000000E+00 0. -1.
         24    1    1    2    0    0 -0.80621587692E+01 -0.49159192429E+01  0.36788342241E+02  0.88936846949E+02  0.80419002446E+02 0. -1.
          1    1    1    2  501    0  0.36334570983E+01  0.25205420714E+02 -0.98939372477E+02  0.10216415551E+03  0.00000000000E+00 0. -1.
         -2    1    1    2    0  502  0.44287016709E+01 -0.20289501471E+02  0.13353715409E+02  0.24690058398E+02  0.00000000000E+00 0.  1.
<mgrwt>
<rscale>  2 0.63602329E+02</rscale>
<asrwt>0</asrwt>
<pdfrwt beam="1">  1       21 0.12845673E-01 0.63602329E+02</pdfrwt>
<pdfrwt beam="2">  1       21 0.20352952E-01 0.63602329E+02</pdfrwt>
<totfact> 0.11403400E+06</totfact>
</mgrwt>
</event>
<event>
 5    1  0.1946229E+000  0.7321193E+02  0.7546771E-02  0.1349499E+00
         21   -1    0    0  501  502  0.00000000000E+00  0.00000000000E+00  0.11731247223E+02  0.11731247223E+02  0.00000000000E+00 0. -1.
         21   -1    0    0  502  503 -0.00000000000E+00 -0.00000000000E+00 -0.14602648796E+04  0.14602648796E+04  0.00000000000E+00 0.  1.
         24    1    1    2    0    0  0.11828373209E+02  0.55210422848E+01 -0.13466285999E+04  0.13490908770E+04  0.80419002446E+02 0.  1.
          1    1    1    2  501    0 -0.35343548293E+02  0.10055451015E+02 -0.37050502423E+02  0.52182547186E+02  0.00000000000E+00 0. -1.
         -2    1    1    2    0  503  0.23515175083E+02 -0.15576493300E+02 -0.64854530034E+02  0.70722702640E+02  0.00000000000E+00 0.  1.
<mgrwt>
<rscale>  2 0.73211935E+02</rscale>
<asrwt>0</asrwt>
<pdfrwt beam="1">  1       21 0.18048060E-02 0.73211935E+02</pdfrwt>
<pdfrwt beam="2">  1       21 0.22465630E+00 0.73211935E+02</pdfrwt>
<totfact> 0.15013895E+05</totfact>
</mgrwt>
</event>
<event>
 5    1  0.1946229E+000  0.1278730E+03  0.7546771E-02  0.1230646E+00
         21   -1    0    0  501  502  0.00000000000E+00  0.00000000000E+00  0.16295925238E+03  0.16295925238E+03  0.00000000000E+00 0. -1.
         21   -1    0    0  502  503 -0.00000000000E+00 -0.00000000000E+00 -0.33417763028E+03  0.33417763028E+03  0.00000000000E+00 0.  1.
         24    1    1    2    0    0  0.10898287509E+03 -0.10290035321E+02 -0.13864961132E+03  0.19409812612E+03  0.80419002446E+02 0.  1.
          1    1    1    2  501    0 -0.65485477773E+02 -0.18137541435E+02  0.12217684485E+03  0.13980164386E+03  0.00000000000E+00 0. -1.
         -2    1    1    2    0  503 -0.43497397320E+02  0.28427576756E+02 -0.15474561143E+03  0.16323711267E+03  0.00000000000E+00 0.  1.
<mgrwt>
<rscale>  2 0.12787298E+03</rscale>
<asrwt>0</asrwt>
<pdfrwt beam="1">  1       21 0.25070655E-01 0.12787298E+03</pdfrwt>
<pdfrwt beam="2">  1       21 0.51411942E-01 0.12787298E+03</pdfrwt>
<totfact> 0.55885806E+04</totfact>
</mgrwt>
</event>
<event>
 5    1  0.1946229E+000  0.8029890E+02  0.7546771E-02  0.1328205E+00
         21   -1    0    0  501  502  0.00000000000E+00  0.00000000000E+00  0.11727779989E+03  0.11727779989E+03  0.00000000000E+00 0. -1.
         21   -1    0    0  502  503 -0.00000000000E+00 -0.00000000000E+00 -0.62830054898E+02  0.62830054898E+02  0.00000000000E+00 0. -1.
         24    1    1    2    0    0 -0.58707935079E+02 -0.50421213561E+01  0.43193427693E+01  0.99789364691E+02  0.80419002446E+02 0. -1.
          1    1    1    2  501    0  0.39329898322E+02  0.10617425475E+02  0.42190484383E+02  0.58648167901E+02  0.00000000000E+00 0. -1.
         -2    1    1    2    0  503  0.19378036757E+02 -0.55753041184E+01  0.79379178428E+01  0.21670322200E+02  0.00000000000E+00 0.  1.
<mgrwt>
<rscale>  2 0.80298901E+02</rscale>
<asrwt>0</asrwt>
<pdfrwt beam="1">  1       21 0.18042738E-01 0.80298901E+02</pdfrwt>
<pdfrwt beam="2">  1       21 0.96661623E-02 0.80298901E+02</pdfrwt>
<totfact> 0.23453396E+06</totfact>
</mgrwt>
</event>
<event>
 5    1  0.1946229E+000  0.8174551E+02  0.7546771E-02  0.1324170E+00
         21   -1    0    0  503  502  0.00000000000E+00  0.00000000000E+00  0.19153870659E+02  0.19153870659E+02  0.00000000000E+00 0.  1.
         21   -1    0    0  501  503 -0.00000000000E+00 -0.00000000000E+00 -0.85983780069E+03  0.85983780069E+03  0.00000000000E+00 0. -1.
         24    1    1    2    0    0  0.95306832889E+01  0.20540708909E+02 -0.30071517255E+03  0.31210508743E+03  0.80419002446E+02 0.  1.
          1    1    1    2  501    0 -0.36311552317E+02  0.11590237514E+02 -0.51844683334E+03  0.51984611322E+03  0.00000000000E+00 0. -1.
         -2    1    1    2    0  502  0.26780869028E+02 -0.32130946423E+02 -0.21521924146E+02  0.47040470691E+02  0.00000000000E+00 0.  1.
<mgrwt>
<rscale>  2 0.81745511E+02</rscale>
<asrwt>0</asrwt>
<pdfrwt beam="1">  1       21 0.29467489E-02 0.81745511E+02</pdfrwt>
<pdfrwt beam="2">  1       21 0.13228276E+00 0.81745511E+02</pdfrwt>
<totfact> 0.27976151E+05</totfact>
</mgrwt>
</event>
<event>
 5    1  0.1946229E+000  0.6843236E+02  0.7546771E-02  0.1365506E+00
         21   -1    0    0  503  502  0.00000000000E+00  0.00000000000E+00  0.68421880416E+02  0.68421880416E+02  0.00000000000E+00 0.  1.
         21   -1    0    0  501  503 -0.00000000000E+00 -0.00000000000E+00 -0.86242415465E+02  0.86242415465E+02  0.00000000000E+00 0.  1.
         24    1    1    2    0    0  0.14646861294E+02 -0.19504677287E+02 -0.34019430290E+02  0.90661461346E+02  0.80419002446E+02 0.  1.
          1    1    1    2  501    0  0.92733575003E+01  0.26360972692E+02 -0.82310468017E+01  0.29131532264E+02  0.00000000000E+00 0. -1.
         -2    1    1    2    0  502 -0.23920218794E+02 -0.68562954050E+01  0.24429942043E+02  0.34871302271E+02  0.00000000000E+00 0.  1.
<mgrwt>
<rscale>  2 0.68432365E+02</rscale>
<asrwt>0</asrwt>
<pdfrwt beam="1">  1       21 0.10526443E-01 0.68432365E+02</pdfrwt>
<pdfrwt beam="2">  1       21 0.13268064E-01 0.68432365E+02</pdfrwt>
<totfact> 0.34667841E+06</totfact>
</mgrwt>
</event>
<event>
 5    1  0.1946229E+000  0.1052602E+03  0.7546771E-02  0.1269608E+00
         21   -1    0    0  503  502  0.00000000000E+00  0.00000000000E+00  0.14984790207E+03  0.14984790207E+03  0.00000000000E+00 0.  1.
         21   -1    0    0  501  503 -0.00000000000E+00 -0.00000000000E+00 -0.49149359758E+03  0.49149359758E+03  0.00000000000E+00 0. -1.
         24    1    1    2    0    0 -0.59197656711E+02 -0.48792731604E+02 -0.23349839264E+03  0.25859970715E+03  0.80419002446E+02 0. -1.
          1    1    1    2  501    0  0.64153551601E+02  0.15871974794E+02 -0.23887143493E+03  0.24784503262E+03  0.00000000000E+00 0. -1.
         -2    1    1    2    0  502 -0.49558948898E+01  0.32920756809E+02  0.13072413206E+03  0.13489675988E+03  0.00000000000E+00 0.  1.
<mgrwt>
<rscale>  2 0.10526022E+03</rscale>
<asrwt>0</asrwt>
<pdfrwt beam="1">  1       21 0.23053524E-01 0.10526022E+03</pdfrwt>
<pdfrwt beam="2">  1       21 0.75614399E-01 0.10526022E+03</pdfrwt>
<totfact> 0.29175341E+04</totfact>
</mgrwt>
</event>
<event>
 5    1  0.1946229E+000  0.1072977E+03  0.7546771E-02  0.1265658E+00
         21   -1    0    0  503  502  0.00000000000E+00  0.00000000000E+00  0.42769188086E+03  0.42769188086E+03  0.00000000000E+00 0. -1.
         21   -1    0    0  501  503 -0.00000000000E+00 -0.00000000000E+00 -0.33954545600E+02  0.33954545600E+02  0.00000000000E+00 0. -1.
         24    1    1    2    0    0 -0.28514071858E+02  0.87704164269E+02  0.16554804057E+03  0.20586024972E+03  0.80419002446E+02 0. -1.
          1    1    1    2  501    0  0.17848480146E+02 -0.57104209102E+02  0.60841115521E+02  0.85329363519E+02  0.00000000000E+00 0. -1.
         -2    1    1    2    0  502  0.10665591713E+02 -0.30599955168E+02  0.16734817916E+03  0.17045681322E+03  0.00000000000E+00 0.  1.
<mgrwt>
<rscale>  2 0.10729766E+03</rscale>
<asrwt>0</asrwt>
<pdfrwt beam="1">  1       21 0.65798747E-01 0.10729766E+03</pdfrwt>
<pdfrwt beam="2">  1       21 0.52237766E-02 0.10729766E+03</pdfrwt>
<totfact> 0.53568233E+05</totfact>
</mgrwt>
</event>
<event>
 5    1  0.1946229E+000  0.7844511E+02  0.7546771E-02  0.1333523E+00
         21   -1    0    0  501  502  0.00000000000E+00  0.00000000000E+00  0.59375421987E+02  0.59375421987E+02  0.00000000000E+00 0. -1.
         21   -1    0    0  502  503 -0.00000000000E+00 -0.00000000000E+00 -0.10518745683E+03  0.10518745683E+03  0.00000000000E+00 0. -1.
         24    1    1    2    0    0  0.64405571650E+01 -0.33609667589E+02 -0.29671373169E+02  0.92296786900E+02  0.80419002446E+02 0. -1.
          1    1    1    2  501    0  0.19488229701E+02  0.38458670929E+02 -0.42239464382E+01  0.43320920927E+02  0.00000000000E+00 0. -1.
         -2    1    1    2    0  503 -0.25928786866E+02 -0.48490033404E+01 -0.11916715239E+02  0.28945170993E+02  0.00000000000E+00 0.  1.
<mgrwt>
<rscale>  2 0.78445106E+02</rscale>
<asrwt>0</asrwt>
<pdfrwt beam="1">  1       21 0.91346804E-02 0.78445106E+02</pdfrwt>
<pdfrwt beam="2">  1       21 0.16182685E-01 0.78445106E+02</pdfrwt>
<totfact> 0.31395415E+06</totfact>
</mgrwt>
</event>
<event>
 5    1  0.1946229E+000  0.1666412E+03  0.7546771E-02  0.1181396E+00
         21   -1    0    0  503  502  0.00000000000E+00  0.00000000000E+00  0.72194765519E+03  0.72194765519E+03  0.00000000000E+00 0.  1.
         21   -1    0    0  501  503 -0.00000000000E+00 -0.00000000000E+00 -0.48355057412E+02  0.48355057412E+02  0.00000000000E+00 0.  1.
         24    1    1    2    0    0  0.70221333481E+02  0.11810070600E+03  0.24415412806E+03  0.29147429842E+03  0.80419002446E+02 0.  1.
          1    1    1    2  501    0 -0.26170760657E+02  0.17512688146E+02  0.60386021170E+01  0.32063494429E+02  0.00000000000E+00 0. -1.
         -2    1    1    2    0  502 -0.44050572824E+02 -0.13561339415E+03  0.42339986760E+03  0.44676491975E+03  0.00000000000E+00 0.  1.
<mgrwt>
<rscale>  2 0.16664123E+03</rscale>
<asrwt>0</asrwt>
<pdfrwt beam="1">  1       21 0.11106886E+00 0.16664123E+03</pdfrwt>
<pdfrwt beam="2">  1       21 0.74392401E-02 0.16664123E+03</pdfrwt>
<totfact> 0.87887278E+04</totfact>
</mgrwt>
</event>
<event>
 5    1  0.1946229E+000  0.6551987E+02  0.7546771E-02  0.1376027E+00
         21   -1    0    0  501  502  0.00000000000E+00  0.00000000000E+00  0.11787456582E+03  0.11787456582E+03  0.00000000000E+00 0. -1.
         21   -1    0    0  502  503 -0.00000000000E+00 -0.00000000000E+00 -0.11439019382E+03  0.11439019382E+03  0.00000000000E+00 0. -1.
         24    1    1    2    0    0 -0.26405414598E+02 -0.80585357492E+01 -0.90828511826E+02  0.12441551524E+03  0.80419002446E+02 0. -1.
          1    1    1    2  501    0  0.19395309727E+02 -0.13311169592E+02  0.73623188612E+02  0.77289968151E+02  0.00000000000E+00 0. -1.
         -2    1    1    2    0  503  0.70101048704E+01  0.21369705342E+02  0.20689695217E+02  0.30559276249E+02  0.00000000000E+00 0.  1.
<mgrwt>
<rscale>  2 0.65519868E+02</rscale>
<asrwt>0</asrwt>
<pdfrwt beam="1">  1       21 0.18134549E-01 0.65519868E+02</pdfrwt>
<pdfrwt beam="2">  1       21 0.17598491E-01 0.65519868E+02</pdfrwt>
<totfact> 0.80565324E+05</totfact>
</mgrwt>
</event>
<event>
 5    1  0.1946229E+000  0.7898955E+02  0.7546771E-02  0.1331944E+00
         21   -1    0    0  501  502  0.00000000000E+00  0.00000000000E+00  0.29532984780E+03  0.29532984780E+03  0.00000000000E+00 0. -1.
         21   -1    0    0  502  503 -0.00000000000E+00 -0.00000000000E+00 -0.84099975353E+02  0.84099975353E+02  0.00000000000E+00 0. -1.
         24    1    1    2    0    0  0.17875172502E+02  0.55702834603E+02 -0.49396746091E+02  0.11103865117E+03  0.80419002446E+02 0. -1.
          1    1    1    2  501    0 -0.88338636703E+01 -0.30693999217E+02  0.19471220754E+03  0.19731447615E+03  0.00000000000E+00 0. -1.
         -2    1    1    2    0  503 -0.90413088318E+01 -0.25008835386E+02  0.65914410997E+02  0.71076695828E+02  0.00000000000E+00 0.  1.
<mgrwt>
<rscale>  2 0.78989549E+02</rscale>
<asrwt>0</asrwt>
<pdfrwt beam="1">  1       21 0.45435361E-01 0.78989549E+02</pdfrwt>
<pdfrwt beam="2">  1       21 0.12938458E-01 0.78989549E+02</pdfrwt>
<totfact> 0.24487594E+05</totfact>
</mgrwt>
</event>
<event>
 5    1  0.1946229E+000  0.1150637E+03  0.7546771E-02  0.1251470E+00
         21   -1    0    0  503  502  0.00000000000E+00  0.00000000000E+00  0.45808246357E+03  0.45808246357E+03  0.00000000000E+00 0.  1.
         21   -1    0    0  501  503 -0.00000000000E+00 -0.00000000000E+00 -0.72541795680E+02  0.72541795680E+02  0.00000000000E+00 0. -1.
         24    1    1    2    0    0 -0.53115095447E+02 -0.51909907829E+02  0.26350498388E+02  0.11259403454E+03  0.80419002446E+02 0. -1.
          1    1    1    2  501    0  0.53231300263E+02  0.78075001826E+02  0.48452435893E+02  0.10619282359E+03  0.00000000000E+00 0. -1.
         -2    1    1    2    0  502 -0.11620481635E+00 -0.26165093997E+02  0.31073773361E+03  0.31183740112E+03  0.00000000000E+00 0.  1.
<mgrwt>
<rscale>  2 0.11506370E+03</rscale>
<asrwt>0</asrwt>
<pdfrwt beam="1">  1       21 0.70474223E-01 0.11506370E+03</pdfrwt>
<pdfrwt beam="2">  1       21 0.11160277E-01 0.11506370E+03</pdfrwt>
<totfact> 0.12548200E+05</totfact>
</mgrwt>
</event>
<event>
 5    1  0.1946229E+000  0.6952787E+02  0.7546771E-02  0.1361706E+00
         21   -1    0    0  501  502  0.00000000000E+00  0.00000000000E+00  0.30892230352E+03  0.30892230352E+03  0.00000000000E+00 0. -1.
         21   -1    0    0  502  503 -0.00000000000E+00 -0.00000000000E+00 -0.15758299560E+02  0.15758299560E+02  0.00000000000E+00 0.  1.
         24    1    1    2    0    0  0.97273357778E+01  0.46669171680E+01  0.15985676621E+03  0.17927019505E+03  0.80419002446E+02 0.  0.
          1    1    1    2  501    0 -0.33216449458E+02  0.26285088983E+01  0.71232249044E+02  0.78640160717E+02  0.00000000000E+00 0. -1.
         -2    1    1    2    0  503  0.23489113681E+02 -0.72954260663E+01  0.62074988706E+02  0.66770247310E+02  0.00000000000E+00 0.  1.
<mgrwt>
<rscale>  2 0.69527874E+02</rscale>
<asrwt>0</asrwt>
<pdfrwt beam="1">  1       21 0.47526504E-01 0.69527874E+02</pdfrwt>
<pdfrwt beam="2">  1       21 0.24243540E-02 0.69527874E+02</pdfrwt>
<totfact> 0.36533750E+06</totfact>
</mgrwt>
</event>
<event>
 5    1  0.1946229E+000  0.1467157E+03  0.7546771E-02  0.1204568E+00
         21   -1    0    0  503  502  0.00000000000E+00  0.00000000000E+00  0.44872879081E+02  0.44872879081E+02  0.00000000000E+00 0. -1.
         21   -1    0    0  501  503 -0.00000000000E+00 -0.00000000000E+00 -0.53415471107E+03  0.53415471107E+03  0.00000000000E+00 0. -1.
         24    1    1    2    0    0 -0.12452585334E+02  0.10865316425E+03 -0.18513109093E+03  0.22956766707E+03  0.80419002446E+02 0. -1.
          1    1    1    2  501    0  0.46828190946E+02 -0.11367427912E+03 -0.28358734067E+03  0.30908979438E+03  0.00000000000E+00 0. -1.
         -2    1    1    2    0  502 -0.34375605612E+02  0.50211148715E+01 -0.20563400394E+02  0.40370128703E+02  0.00000000000E+00 0.  1.
<mgrwt>
<rscale>  2 0.14671566E+03</rscale>
<asrwt>0</asrwt>
<pdfrwt beam="1">  1       21 0.69035197E-02 0.14671566E+03</pdfrwt>
<pdfrwt beam="2">  1       21 0.82177650E-01 0.14671566E+03</pdfrwt>
<totfact> 0.20332557E+05</totfact>
</mgrwt>
</event>
<event>
 5    1  0.1946229E+000  0.8959901E+02  0.7546771E-02  0.1303826E+00
         21   -1    0    0  503  502  0.00000000000E+00  0.00000000000E+00  0.30819938792E+03  0.30819938792E+03  0.00000000000E+00 0.  1.
         21   -1    0    0  501  503 -0.00000000000E+00 -0.00000000000E+00 -0.48528355905E+02  0.48528355905E+02  0.00000000000E+00 0.  1.
         24    1    1    2    0    0  0.68609814425E+01 -0.70887889081E+02  0.24758089965E+02  0.11023767440E+03  0.80419002446E+02 0.  1.
          1    1    1    2  501    0  0.20023164134E+01  0.22060293039E+02  0.44385318449E+02  0.49605667961E+02  0.00000000000E+00 0. -1.
         -2    1    1    2    0  502 -0.88632978559E+01  0.48827596042E+02  0.19052762360E+03  0.19688440147E+03  0.00000000000E+00 0.  1.
<mgrwt>
<rscale>  2 0.89599006E+02</rscale>
<asrwt>0</asrwt>
<pdfrwt beam="1">  1       21 0.47415289E-01 0.89599006E+02</pdfrwt>
<pdfrwt beam="2">  1       21 0.74659011E-02 0.89599006E+02</pdfrwt>
<totfact> 0.58048935E+05</totfact>
</mgrwt>
</event>
<event>
 5    1  0.1946229E+000  0.1120159E+03  0.7546771E-02  0.1256882E+00
         21   -1    0    0  503  502  0.00000000000E+00  0.00000000000E+00  0.49600797726E+03  0.49600797726E+03  0.00000000000E+00 0.  1.
         21   -1    0    0  501  503 -0.00000000000E+00 -0.00000000000E+00 -0.19236597020E+03  0.19236597020E+03  0.00000000000E+00 0. -1.
         24    1    1    2    0    0 -0.44696047852E+01  0.56700892917E+02  0.33661465662E+02  0.10409264551E+03  0.80419002446E+02 0.  1.
          1    1    1    2  501    0 -0.53743964044E+02 -0.28882471252E+02 -0.14866248267E+03  0.16069581379E+03  0.00000000000E+00 0. -1.
         -2    1    1    2    0  502  0.58213568829E+02 -0.27818421666E+02  0.41864302407E+03  0.42358548816E+03  0.00000000000E+00 0.  1.
<mgrwt>
<rscale>  2 0.11201587E+03</rscale>
<asrwt>0</asrwt>
<pdfrwt beam="1">  1       21 0.76308919E-01 0.11201587E+03</pdfrwt>
<pdfrwt beam="2">  1       21 0.29594765E-01 0.11201587E+03</pdfrwt>
<totfact> 0.17729664E+04</totfact>
</mgrwt>
</event>
<event>
 5    1  0.1946229E+000  0.8527147E+02  0.7546771E-02  0.1314724E+00
         21   -1    0    0  503  502  0.00000000000E+00  0.00000000000E+00  0.13540136584E+02  0.13540136584E+02  0.00000000000E+00 0. -1.
         21   -1    0    0  501  503 -0.00000000000E+00 -0.00000000000E+00 -0.74157968043E+03  0.74157968043E+03  0.00000000000E+00 0.  1.
         24    1    1    2    0    0 -0.19536435079E+02  0.48130599201E+02 -0.33826410022E+03  0.35155091285E+03  0.80419002446E+02 0.  1.
          1    1    1    2  501    0  0.38272477595E+02 -0.35573022329E+02 -0.36969812368E+03  0.37337236790E+03  0.00000000000E+00 0. -1.
         -2    1    1    2    0  502 -0.18736042516E+02 -0.12557576872E+02 -0.20077319948E+02  0.30196536264E+02  0.00000000000E+00 0.  1.
<mgrwt>
<rscale>  2 0.85271469E+02</rscale>
<asrwt>0</asrwt>
<pdfrwt beam="1">  1       21 0.20830978E-02 0.85271469E+02</pdfrwt>
<pdfrwt beam="2">  1       21 0.11408919E+00 0.85271469E+02</pdfrwt>
<totfact> 0.69822897E+05</totfact>
</mgrwt>
</event>
<event>
 5    1  0.1946229E+000  0.1055270E+03  0.7546771E-02  0.1269085E+00
         21   -1    0    0  501  502  0.00000000000E+00  0.00000000000E+00  0.17215787206E+03  0.17215787206E+03  0.00000000000E+00 0. -1.
         21   -1    0    0  502  503 -0.00000000000E+00 -0.00000000000E+00 -0.11349663300E+03  0.11349663300E+03  0.00000000000E+00 0.  1.
         24    1    1    2    0    0  0.13927000223E+02  0.88595193001E+01 -0.46035279946E+02  0.94121811348E+02  0.80419002446E+02 0.  0.
          1    1    1    2  501    0 -0.27839070978E+02 -0.65216492503E+02  0.11247844550E+03  0.13296467752E+03  0.00000000000E+00 0. -1.
         -2    1    1    2    0  503  0.13912070755E+02  0.56356973202E+02 -0.77819264878E+01  0.58568016196E+02  0.00000000000E+00 0.  1.
<mgrwt>
<rscale>  2 0.10552702E+03</rscale>
<asrwt>0</asrwt>
<pdfrwt beam="1">  1       21 0.26485826E-01 0.10552702E+03</pdfrwt>
<pdfrwt beam="2">  1       21 0.17461020E-01 0.10552702E+03</pdfrwt>
<totfact> 0.40785291E+05</totfact>
</mgrwt>
</event>
<event>
 5    1  0.1946229E+000  0.8121761E+02  0.7546771E-02  0.1325631E+00
         21   -1    0    0  501  502  0.00000000000E+00  0.00000000000E+00  0.54662002066E+02  0.54662002066E+02  0.00000000000E+00 0. -1.
         21   -1    0    0  502  503 -0.00000000000E+00 -0.00000000000E+00 -0.18315524669E+03  0.18315524669E+03  0.00000000000E+00 0.  1.
         24    1    1    2    0    0 -0.51923406054E+02 -0.21124988148E+02 -0.11755047946E+03  0.15306089114E+03  0.80419002446E+02 0.  1.
          1    1    1    2  501    0  0.34805539453E+02 -0.28792677671E+01  0.21426154789E+02  0.40973111531E+02  0.00000000000E+00 0. -1.
         -2    1    1    2    0  503  0.17117866601E+02  0.24004255915E+02 -0.32368919957E+02  0.43783246090E+02  0.00000000000E+00 0.  1.
<mgrwt>
<rscale>  2 0.81217614E+02</rscale>
<asrwt>0</asrwt>
<pdfrwt beam="1">  1       21 0.84095390E-02 0.81217614E+02</pdfrwt>
<pdfrwt beam="2">  1       21 0.28177730E-01 0.81217614E+02</pdfrwt>
<totfact> 0.13081082E+06</totfact>
</mgrwt>
</event>
<event>
 5    1  0.1946229E+000  0.9853973E+02  0.7546771E-02  0.1283397E+00
         21   -1    0    0  503  502  0.00000000000E+00  0.00000000000E+00  0.23844087642E+03  0.23844087642E+03  0.00000000000E+00 0.  1.
         21   -1    0    0  501  503 -0.00000000000E+00 -0.00000000000E+00 -0.91993979087E+02  0.91993979087E+02  0.00000000000E+00 0. -1.
         24    1    1    2    0    0  0.89933625928E+01 -0.12297341051E+01  0.68762570138E+02  0.10619745676E+03  0.80419002446E+02 0.  0.
          1    1    1    2  501    0  0.34576609510E+02  0.43416623183E+02 -0.55131211743E+02  0.78230400753E+02  0.00000000000E+00 0. -1.
         -2    1    1    2    0  502 -0.43569972103E+02 -0.42186889078E+02  0.13281553894E+03  0.14600699799E+03  0.00000000000E+00 0.  1.
<mgrwt>
<rscale>  2 0.98539728E+02</rscale>
<asrwt>0</asrwt>
<pdfrwt beam="1">  1       21 0.36683212E-01 0.98539728E+02</pdfrwt>
<pdfrwt beam="2">  1       21 0.14152920E-01 0.98539728E+02</pdfrwt>
<totfact> 0.31812210E+05</totfact>
</mgrwt>
</event>
<event>
 5    1  0.1946229E+000  0.6825883E+02  0.7546771E-02  0.1366116E+00
         21   -1    0    0  501  502  0.00000000000E+00  0.00000000000E+00  0.13606881098E+03  0.13606881098E+03  0.00000000000E+00 0. -1.
         21   -1    0    0  502  503 -0.00000000000E+00 -0.00000000000E+00 -0.45523082925E+02  0.45523082925E+02  0.00000000000E+00 0. -1.
         24    1    1    2    0    0 -0.39718725964E+02  0.86481781583E+01  0.63230216984E+02  0.11008017293E+03  0.80419002446E+02 0. -1.
          1    1    1    2  501    0  0.18939680602E+02 -0.15558685796E+02  0.39473907402E+02  0.46464756220E+02  0.00000000000E+00 0. -1.
         -2    1    1    2    0  503  0.20779045362E+02  0.69105076378E+01 -0.12158396334E+02  0.25046964754E+02  0.00000000000E+00 0.  1.
<mgrwt>
<rscale>  2 0.68258834E+02</rscale>
<asrwt>0</asrwt>
<pdfrwt beam="1">  1       21 0.20933663E-01 0.68258834E+02</pdfrwt>
<pdfrwt beam="2">  1       21 0.70035513E-02 0.68258834E+02</pdfrwt>
<totfact> 0.30706913E+06</totfact>
</mgrwt>
</event>
<event>
 5    1  0.1946229E+000  0.1151846E+03  0.7546771E-02  0.1251259E+00
         21   -1    0    0  503  502  0.00000000000E+00  0.00000000000E+00  0.22057444660E+03  0.22057444660E+03  0.00000000000E+00 0. -1.
         21   -1    0    0  501  503 -0.00000000000E+00 -0.00000000000E+00 -0.19663125921E+03  0.19663125921E+03  0.00000000000E+00 0. -1.
         24    1    1    2    0    0 -0.98720790111E+02  0.88263730955E+01  0.97606933201E+02  0.16067989490E+03  0.80419002446E+02 0.  0.
          1    1    1    2  501    0  0.76452326929E+02 -0.18173633621E+02 -0.15386319040E+03  0.17276898047E+03  0.00000000000E+00 0. -1.
         -2    1    1    2    0  502  0.22268463181E+02  0.93472605257E+01  0.80199444596E+02  0.83756830439E+02  0.00000000000E+00 0.  1.
<mgrwt>
<rscale>  2 0.11518462E+03</rscale>
<asrwt>0</asrwt>
<pdfrwt beam="1">  1       21 0.33934530E-01 0.11518462E+03</pdfrwt>
<pdfrwt beam="2">  1       21 0.30250963E-01 0.11518462E+03</pdfrwt>
<totfact> 0.90551242E+04</totfact>
</mgrwt>
</event>
<event>
 5    1  0.1946229E+000  0.9084528E+02  0.7546771E-02  0.1300818E+00
         21   -1    0    0  501  502  0.00000000000E+00  0.00000000000E+00  0.64985037330E+02  0.64985037330E+02  0.00000000000E+00 0. -1.
         21   -1    0    0  502  503 -0.00000000000E+00 -0.00000000000E+00 -0.15741511484E+03  0.15741511484E+03  0.00000000000E+00 0.  1.
         24    1    1    2    0    0  0.40612132580E+02  0.14445425641E+02 -0.42348616544E+02  0.10059143558E+03  0.80419002446E+02 0. -1.
          1    1    1    2  501    0 -0.62342549874E+02 -0.23877475048E+02 -0.39040218878E+00  0.66759866337E+02  0.00000000000E+00 0. -1.
         -2    1    1    2    0  503  0.21730417294E+02  0.94320494066E+01 -0.49691058778E+02  0.55048850254E+02  0.00000000000E+00 0.  1.
<mgrwt>
<rscale>  2 0.90845278E+02</rscale>
<asrwt>0</asrwt>
<pdfrwt beam="1">  1       21 0.99976981E-02 0.90845278E+02</pdfrwt>
<pdfrwt beam="2">  1       21 0.24217710E-01 0.90845278E+02</pdfrwt>
<totfact> 0.12950571E+06</totfact>
</mgrwt>
</event>
<event>
 5    1  0.1946229E+000  0.1091972E+03  0.7546771E-02  0.1262064E+00
         21   -1    0    0  501  502  0.00000000000E+00  0.00000000000E+00  0.13617241711E+03  0.13617241711E+03  0.00000000000E+00 0. -1.
         21   -1    0    0  502  503 -0.00000000000E+00 -0.00000000000E+00 -0.13246582422E+03  0.13246582422E+03  0.00000000000E+00 0.  1.
         24    1    1    2    0    0  0.39529204734E+02  0.66136381307E+01  0.27298393641E+02  0.93908021414E+02  0.80419002446E+02 0.  0.
          1    1    1    2  501    0  0.24130596696E+02 -0.47223725402E+02  0.47371186684E+02  0.71108334712E+02  0.00000000000E+00 0. -1.
         -2    1    1    2    0  503 -0.63659801429E+02  0.40610087272E+02 -0.70962987434E+02  0.10362188520E+03  0.00000000000E+00 0.  1.
<mgrwt>
<rscale>  2 0.10919721E+03</rscale>
<asrwt>0</asrwt>
<pdfrwt beam="1">  1       21 0.20949603E-01 0.10919721E+03</pdfrwt>
<pdfrwt beam="2">  1       21 0.20379358E-01 0.10919721E+03</pdfrwt>
<totfact> 0.47638012E+05</totfact>
</mgrwt>
</event>
<event>
 5    1  0.1946229E+000  0.6597503E+02  0.7546771E-02  0.1374341E+00
         21   -1    0    0  503  502  0.00000000000E+00  0.00000000000E+00  0.77916401608E+02  0.77916401608E+02  0.00000000000E+00 0.  1.
         21   -1    0    0  501  503 -0.00000000000E+00 -0.00000000000E+00 -0.58290222460E+02  0.58290222460E+02  0.00000000000E+00 0. -1.
         24    1    1    2    0    0 -0.19382495745E+02  0.13962768857E+01  0.25501284854E+02  0.86574604903E+02  0.80419002446E+02 0.  1.
          1    1    1    2  501    0  0.16546588180E+02 -0.22496592004E+02 -0.46103904467E+01  0.28304450750E+02  0.00000000000E+00 0. -1.
         -2    1    1    2    0  502  0.28359075650E+01  0.21100315119E+02 -0.12647152604E+01  0.21327568415E+02  0.00000000000E+00 0.  1.
<mgrwt>
<rscale>  2 0.65975034E+02</rscale>
<asrwt>0</asrwt>
<pdfrwt beam="1">  1       21 0.11987139E-01 0.65975034E+02</pdfrwt>
<pdfrwt beam="2">  1       21 0.89677265E-02 0.65975034E+02</pdfrwt>
<totfact> 0.54335759E+06</totfact>
</mgrwt>
</event>
<event>
 5    1  0.1946229E+000  0.7114751E+02  0.7546771E-02  0.1356234E+00
         21   -1    0    0  501  502  0.00000000000E+00  0.00000000000E+00  0.36797715200E+02  0.36797715200E+02  0.00000000000E+00 0.  1.
         21   -1    0    0  502  503 -0.00000000000E+00 -0.00000000000E+00 -0.22108314647E+03  0.22108314647E+03  0.00000000000E+00 0.  1.
         24    1    1    2    0    0  0.31972844429E+02  0.14068814948E+02 -0.27681186623E+02  0.91943778377E+02  0.80419002446E+02 0.  1.
          1    1    1    2  501    0 -0.28990272314E+01 -0.23786329658E+02 -0.60967173126E+02  0.65507175458E+02  0.00000000000E+00 0. -1.
         -2    1    1    2    0  503 -0.29073817198E+02  0.97175147097E+01 -0.95637071518E+02  0.10042990783E+03  0.00000000000E+00 0.  1.
<mgrwt>
<rscale>  2 0.71147511E+02</rscale>
<asrwt>0</asrwt>
<pdfrwt beam="1">  1       21 0.56611869E-02 0.71147511E+02</pdfrwt>
<pdfrwt beam="2">  1       21 0.34012792E-01 0.71147511E+02</pdfrwt>
<totfact> 0.17715312E+06</totfact>
</mgrwt>
</event>
<event>
 5    1  0.1946229E+000  0.7376458E+02  0.7546771E-02  0.1347740E+00
         21   -1    0    0  503  502  0.00000000000E+00  0.00000000000E+00  0.18313349701E+02  0.18313349701E+02  0.00000000000E+00 0. -1.
         21   -1    0    0  501  503 -0.00000000000E+00 -0.00000000000E+00 -0.60775630023E+03  0.60775630023E+03  0.00000000000E+00 0.  1.
         24    1    1    2    0    0 -0.26365135341E+02  0.32904425105E+02 -0.30543311058E+03  0.31864466502E+03  0.80419002446E+02 0. -1.
          1    1    1    2  501    0  0.30499692110E+02 -0.80679887008E+01 -0.28018772889E+03  0.28195830735E+03  0.00000000000E+00 0. -1.
         -2    1    1    2    0  502 -0.41345567697E+01 -0.24836436405E+02 -0.38221110508E+01  0.25466677558E+02  0.00000000000E+00 0.  1.
<mgrwt>
<rscale>  2 0.73764583E+02</rscale>
<asrwt>0</asrwt>
<pdfrwt beam="1">  1       21 0.28174385E-02 0.73764583E+02</pdfrwt>
<pdfrwt beam="2">  1       21 0.93500966E-01 0.73764583E+02</pdfrwt>
<totfact> 0.68178347E+05</totfact>
</mgrwt>
</event>
<event>
 5    1  0.1946229E+000  0.1209129E+03  0.7546771E-02  0.1241599E+00
         21   -1    0    0  501  502  0.00000000000E+00  0.00000000000E+00  0.19614573646E+03  0.19614573646E+03  0.00000000000E+00 0.  1.
         21   -1    0    0  502  503 -0.00000000000E+00 -0.00000000000E+00 -0.11244547106E+03  0.11244547106E+03  0.00000000000E+00 0. -1.
         24    1    1    2    0    0  0.92136729699E+02  0.15132663299E+00  0.95774154495E+02  0.15533545791E+03  0.80419002446E+02 0.  1.
          1    1    1    2  501    0 -0.97403457958E+02  0.19369384775E+02  0.32350313248E+02  0.10444687384E+03  0.00000000000E+00 0. -1.
         -2    1    1    2    0  503  0.52667282591E+01 -0.19520711408E+02 -0.44424202341E+02  0.48808875771E+02  0.00000000000E+00 0.  1.
<mgrwt>
<rscale>  2 0.12091290E+03</rscale>
<asrwt>0</asrwt>
<pdfrwt beam="1">  1       21 0.30176267E-01 0.12091290E+03</pdfrwt>
<pdfrwt beam="2">  1       21 0.17299303E-01 0.12091290E+03</pdfrwt>
<totfact> 0.32269525E+05</totfact>
</mgrwt>
</event>
<event>
 5    1  0.1946229E+000  0.1322459E+03  0.7546771E-02  0.1224161E+00
         21   -1    0    0  501  502  0.00000000000E+00  0.00000000000E+00  0.33930566396E+02  0.33930566396E+02  0.00000000000E+00 0.  1.
         21   -1    0    0  502  503 -0.00000000000E+00 -0.00000000000E+00 -0.63915401902E+03  0.63915401902E+03  0.00000000000E+00 0.  1.
         24    1    1    2    0    0 -0.10519111139E+03  0.55671399863E+02 -0.46707727560E+03  0.48866437563E+03  0.80419002446E+02 0.  1.
          1    1    1    2  501    0  0.29579784758E+02 -0.54329091191E+01 -0.23394216023E+02  0.38102093265E+02  0.00000000000E+00 0. -1.
         -2    1    1    2    0  503  0.75611326632E+02 -0.50238490744E+02 -0.11475196100E+03  0.14631811652E+03  0.00000000000E+00 0.  1.
<mgrwt>
<rscale>  2 0.13224589E+03</rscale>
<asrwt>0</asrwt>
<pdfrwt beam="1">  1       21 0.52200878E-02 0.13224589E+03</pdfrwt>
<pdfrwt beam="2">  1       21 0.98331375E-01 0.13224589E+03</pdfrwt>
<totfact> 0.21758507E+05</totfact>
</mgrwt>
</event>
<event>
 5    1  0.1946229E+000  0.6709801E+02  0.7546771E-02  0.1370249E+00
         21   -1    0    0  501  502  0.00000000000E+00  0.00000000000E+00  0.56469902381E+02  0.56469902381E+02  0.00000000000E+00 0. -1.
         21   -1    0    0  502  503 -0.00000000000E+00 -0.00000000000E+00 -0.16847623317E+03  0.16847623317E+03  0.00000000000E+00 0.  1.
         24    1    1    2    0    0  0.12653930640E+02 -0.59922435561E+01 -0.10316644572E+03  0.13155440099E+03  0.80419002446E+02 0.  0.
          1    1    1    2  501    0 -0.24313038283E+02 -0.14990533690E+02  0.33926496418E+02  0.44349149824E+02  0.00000000000E+00 0. -1.
         -2    1    1    2    0  503  0.11659107644E+02  0.20982777247E+02 -0.42766381491E+02  0.49042584738E+02  0.00000000000E+00 0.  1.
<mgrwt>
<rscale>  2 0.67098012E+02</rscale>
<asrwt>0</asrwt>
<pdfrwt beam="1">  1       21 0.86876774E-02 0.67098012E+02</pdfrwt>
<pdfrwt beam="2">  1       21 0.25919420E-01 0.67098012E+02</pdfrwt>
<totfact> 0.14376538E+06</totfact>
</mgrwt>
</event>
<event>
 5    1  0.1946229E+000  0.8431240E+02  0.7546771E-02  0.1317241E+00
         21   -1    0    0  503  502  0.00000000000E+00  0.00000000000E+00  0.63769843740E+03  0.63769843740E+03  0.00000000000E+00 0. -1.
         21   -1    0    0  501  503 -0.00000000000E+00 -0.00000000000E+00 -0.11496396832E+02  0.11496396832E+02  0.00000000000E+00 0.  1.
         24    1    1    2    0    0  0.35106493644E+02  0.14614123261E+02  0.37434022177E+03  0.38476467624E+03  0.80419002446E+02 0. -1.
          1    1    1    2  501    0  0.10391948354E+02 -0.29912931859E+02  0.81529978088E+02  0.87463783419E+02  0.00000000000E+00 0. -1.
         -2    1    1    2    0  502 -0.45498441998E+02  0.15298808598E+02  0.17033184071E+03  0.17696637457E+03  0.00000000000E+00 0.  1.
<mgrwt>
<rscale>  2 0.84312400E+02</rscale>
<asrwt>0</asrwt>
<pdfrwt beam="1">  1       21 0.98107424E-01 0.84312400E+02</pdfrwt>
<pdfrwt beam="2">  1       21 0.17686769E-02 0.84312400E+02</pdfrwt>
<totfact> 0.12894878E+06</totfact>
</mgrwt>
</event>
<event>
 5    1  0.1946229E+000  0.1002705E+03  0.7546771E-02  0.1279728E+00
         21   -1    0    0  501  502  0.00000000000E+00  0.00000000000E+00  0.25771190197E+02  0.25771190197E+02  0.00000000000E+00 0. -1.
         21   -1    0    0  502  503 -0.00000000000E+00 -0.00000000000E+00 -0.63479534132E+03  0.63479534132E+03  0.00000000000E+00 0. -1.
         24    1    1    2    0    0  0.81645823340E+02  0.19555928242E+02 -0.45488735480E+03  0.46950846245E+03  0.80419002446E+02 0. -1.
          1    1    1    2  501    0 -0.34917469929E+02 -0.45915868559E+01 -0.69352957200E+01  0.35894438327E+02  0.00000000000E+00 0. -1.
         -2    1    1    2    0  503 -0.46728353411E+02 -0.14964341386E+02 -0.14720150060E+03  0.15516363074E+03  0.00000000000E+00 0.  1.
<mgrwt>
<rscale>  2 0.10027053E+03</rscale>
<asrwt>0</asrwt>
<pdfrwt beam="1">  1       21 0.39647993E-02 0.10027053E+03</pdfrwt>
<pdfrwt beam="2">  1       21 0.97660803E-01 0.10027053E+03</pdfrwt>
<totfact> 0.35264951E+05</totfact>
</mgrwt>
</event>
<event>
 5    1  0.1946229E+000  0.8720163E+02  0.7546771E-02  0.1309773E+00
         21   -1    0    0  503  502  0.00000000000E+00  0.00000000000E+00  0.54819288474E+02  0.54819288474E+02  0.00000000000E+00 0. -1.
         21   -1    0    0  501  503 -0.00000000000E+00 -0.00000000000E+00 -0.32978616694E+03  0.32978616694E+03  0.00000000000E+00 0. -1.
         24    1    1    2    0    0  0.56986543177E+02 -0.64036151080E+01 -0.20877578105E+02  0.10095326449E+03  0.80419002446E+02 0. -1.
          1    1    1    2  501    0 -0.40006184030E+02 -0.19620483018E+02 -0.24802038008E+03  0.25199120431E+03  0.00000000000E+00 0. -1.
         -2    1    1    2    0  502 -0.16980359147E+02  0.26024098126E+02 -0.60689202846E+01  0.31660986616E+02  0.00000000000E+00 0.  1.
<mgrwt>
<rscale>  2 0.87201626E+02</rscale>
<asrwt>0</asrwt>
<pdfrwt beam="1">  1       21 0.84337368E-02 0.87201626E+02</pdfrwt>
<pdfrwt beam="2">  1       21 0.50736333E-01 0.87201626E+02</pdfrwt>
<totfact> 0.41082425E+05</totfact>
</mgrwt>
</event>
<event>
 5    1  0.1946229E+000  0.7010251E+02  0.7546771E-02  0.1359745E+00
         21   -1    0    0  503  502  0.00000000000E+00  0.00000000000E+00  0.50179949418E+02  0.50179949418E+02  0.00000000000E+00 0.  1.
         21   -1    0    0  501  503 -0.00000000000E+00 -0.00000000000E+00 -0.16288711853E+03  0.16288711853E+03  0.00000000000E+00 0. -1.
         24    1    1    2    0    0 -0.20772054425E+02 -0.11445553344E+02 -0.11427146622E+03  0.14173095245E+03  0.80419002446E+02 0. -1.
          1    1    1    2  501    0 -0.84497247702E+01  0.23332029612E+02 -0.21034202211E+02  0.32530280005E+02  0.00000000000E+00 0. -1.
         -2    1    1    2    0  502  0.29221779196E+02 -0.11886476269E+02  0.22598499313E+02  0.38805835497E+02  0.00000000000E+00 0.  1.
<mgrwt>
<rscale>  2 0.70102511E+02</rscale>
<asrwt>0</asrwt>
<pdfrwt beam="1">  1       21 0.77199922E-02 0.70102511E+02</pdfrwt>
<pdfrwt beam="2">  1       21 0.25059557E-01 0.70102511E+02</pdfrwt>
<totfact> 0.18739962E+06</totfact>
</mgrwt>
</event>
<event>
 5    1  0.1946229E+000  0.6972919E+02  0.7546771E-02  0.1361016E+00
         21   -1    0    0  503  502  0.00000000000E+00  0.00000000000E+00  0.79970683374E+02  0.79970683374E+02  0.00000000000E+00 0. -1.
         21   -1    0    0  501  503 -0.00000000000E+00 -0.00000000000E+00 -0.64922172288E+02  0.64922172288E+02  0.00000000000E+00 0.  1.
         24    1    1    2    0    0 -0.21024267851E+02 -0.39851462171E+02 -0.68098806138E+01  0.92432403972E+02  0.80419002446E+02 0.  0.
          1    1    1    2  501    0  0.15804865298E+02  0.14681477688E+02  0.13419775864E+02  0.25405313193E+02  0.00000000000E+00 0. -1.
         -2    1    1    2    0  502  0.52194025523E+01  0.25169984483E+02  0.84386158349E+01  0.27055138496E+02  0.00000000000E+00 0.  1.
<mgrwt>
<rscale>  2 0.69729195E+02</rscale>
<asrwt>0</asrwt>
<pdfrwt beam="1">  1       21 0.12303182E-01 0.69729195E+02</pdfrwt>
<pdfrwt beam="2">  1       21 0.99880265E-02 0.69729195E+02</pdfrwt>
<totfact> 0.43364186E+06</totfact>
</mgrwt>
</event>
<event>
 5    1  0.1946229E+000  0.1266921E+03  0.7546771E-02  0.1232448E+00
         21   -1    0    0  501  502  0.00000000000E+00  0.00000000000E+00  0.24442245608E+03  0.24442245608E+03  0.00000000000E+00 0.  1.
         21   -1    0    0  502  503 -0.00000000000E+00 -0.00000000000E+00 -0.80659975439E+02  0.80659975439E+02  0.00000000000E+00 0.  1.
         24    1    1    2    0    0  0.24046567545E+02  0.11123495164E+03  0.78087583632E+02  0.15973834402E+03  0.80419002446E+02 0.  1.
          1    1    1    2  501    0 -0.19383603399E+01 -0.22594054197E+02  0.68801771037E+02  0.72442613314E+02  0.00000000000E+00 0. -1.
         -2    1    1    2    0  503 -0.22108207205E+02 -0.88640897447E+02  0.16873125972E+02  0.92901474186E+02  0.00000000000E+00 0.  1.
<mgrwt>
<rscale>  2 0.12669214E+03</rscale>
<asrwt>0</asrwt>
<pdfrwt beam="1">  1       21 0.37603455E-01 0.12669214E+03</pdfrwt>
<pdfrwt beam="2">  1       21 0.12409227E-01 0.12669214E+03</pdfrwt>
<totfact> 0.38118351E+05</totfact>
</mgrwt>
</event>
<event>
 5    1  0.1946229E+000  0.9219264E+02  0.7546771E-02  0.1297627E+00
         21   -1    0    0  503  502  0.00000000000E+00  0.00000000000E+00  0.49679416297E+02  0.49679416297E+02  0.00000000000E+00 0.  1.
         21   -1    0    0  501  503 -0.00000000000E+00 -0.00000000000E+00 -0.31876781063E+03  0.31876781063E+03  0.00000000000E+00 0. -1.
         24    1    1    2    0    0  0.60670276308E+01 -0.21266368782E+02 -0.11890756351E+03  0.14524218354E+03  0.80419002446E+02 0.  0.
          1    1    1    2  501    0 -0.45075164323E+02 -0.15213111215E+02 -0.16171385566E+03  0.16856624901E+03  0.00000000000E+00 0. -1.
         -2    1    1    2    0  502  0.39008136693E+02  0.36479479997E+02  0.11533024840E+02  0.54638794378E+02  0.00000000000E+00 0.  1.
<mgrwt>
<rscale>  2 0.92192639E+02</rscale>
<asrwt>0</asrwt>
<pdfrwt beam="1">  1       21 0.76429870E-02 0.92192639E+02</pdfrwt>
<pdfrwt beam="2">  1       21 0.49041203E-01 0.92192639E+02</pdfrwt>
<totfact> 0.52085574E+05</totfact>
</mgrwt>
</event>
<event>
 5    1  0.1946229E+000  0.1009779E+03  0.7546771E-02  0.1278253E+00
         21   -1    0    0  501  502  0.00000000000E+00  0.00000000000E+00  0.11579383411E+04  0.11579383411E+04  0.00000000000E+00 0. -1.
         21   -1    0    0  502  503 -0.00000000000E+00 -0.00000000000E+00 -0.11832227916E+02  0.11832227916E+02  0.00000000000E+00 0. -1.
         24    1    1    2    0    0 -0.80162845061E+02 -0.28073741672E+02  0.40783896641E+03  0.42428063257E+03  0.80419002446E+02 0. -1.
          1    1    1    2  501    0  0.43351765902E+02  0.13617945103E+02  0.59886789202E+03  0.60058935732E+03  0.00000000000E+00 0. -1.
         -2    1    1    2    0  503  0.36811079159E+02  0.14455796570E+02  0.13939925473E+03  0.14490057909E+03  0.00000000000E+00 0.  1.
<mgrwt>
<rscale>  2 0.10097788E+03</rscale>
<asrwt>0</asrwt>
<pdfrwt beam="1">  1       21 0.17814427E+00 0.10097788E+03</pdfrwt>
<pdfrwt beam="2">  1       21 0.18203437E-02 0.10097788E+03</pdfrwt>
<totfact> 0.27969795E+05</totfact>
</mgrwt>
</event>
<event>
 5    1  0.1946229E+000  0.6341944E+02  0.7546771E-02  0.1384017E+00
         21   -1    0    0  501  502  0.00000000000E+00  0.00000000000E+00  0.67138016463E+01  0.67138016463E+01  0.00000000000E+00 0. -1.
         21   -1    0    0  502  503 -0.00000000000E+00 -0.00000000000E+00 -0.10705492818E+04  0.10705492818E+04  0.00000000000E+00 0. -1.
         24    1    1    2    0    0  0.69154198789E+01  0.10352252519E+02 -0.45119618054E+03  0.45847595515E+03  0.80419002446E+02 0. -1.
          1    1    1    2  501    0 -0.23220450695E+02  0.42120112831E+01 -0.45765116332E+02  0.51491516218E+02  0.00000000000E+00 0. -1.
         -2    1    1    2    0  503  0.16305030816E+02 -0.14564263802E+02 -0.56687418325E+03  0.56729561205E+03  0.00000000000E+00 0.  1.
<mgrwt>
<rscale>  2 0.63419445E+02</rscale>
<asrwt>0</asrwt>
<pdfrwt beam="1">  1       21 0.10328929E-02 0.63419445E+02</pdfrwt>
<pdfrwt beam="2">  1       21 0.16469983E+00 0.63419445E+02</pdfrwt>
<totfact> 0.85164812E+05</totfact>
</mgrwt>
</event>
<event>
 5    1  0.1946229E+000  0.1084448E+03  0.7546771E-02  0.1263477E+00
         21   -1    0    0  501  502  0.00000000000E+00  0.00000000000E+00  0.25449368508E+02  0.25449368508E+02  0.00000000000E+00 0.  1.
         21   -1    0    0  502  503 -0.00000000000E+00 -0.00000000000E+00 -0.47757334184E+03  0.47757334184E+03  0.00000000000E+00 0. -1.
         24    1    1    2    0    0  0.21171313851E+01 -0.86361010623E+02 -0.28592792056E+03  0.30932943298E+03  0.80419002446E+02 0.  1.
          1    1    1    2  501    0 -0.24315653849E+02  0.57685237350E+02 -0.94603288093E+02  0.11343993895E+03  0.00000000000E+00 0. -1.
         -2    1    1    2    0  503  0.22198522464E+02  0.28675773273E+02 -0.71592764685E+02  0.80253338421E+02  0.00000000000E+00 0.  1.
<mgrwt>
<rscale>  2 0.10844483E+03</rscale>
<asrwt>0</asrwt>
<pdfrwt beam="1">  1       21 0.39152877E-02 0.10844483E+03</pdfrwt>
<pdfrwt beam="2">  1       21 0.73472818E-01 0.10844483E+03</pdfrwt>
<totfact> 0.68146897E+05</totfact>
</mgrwt>
</event>
<event>
 5    1  0.1946229E+000  0.7201882E+02  0.7546771E-02  0.1353359E+00
         21   -1    0    0  503  502  0.00000000000E+00  0.00000000000E+00  0.46693596098E+02  0.46693596098E+02  0.00000000000E+00 0. -1.
         21   -1    0    0  501  503 -0.00000000000E+00 -0.00000000000E+00 -0.15292613669E+03  0.15292613669E+03  0.00000000000E+00 0. -1.
         24    1    1    2    0    0  0.41135314682E+02 -0.17618455929E+02 -0.11417396241E+03  0.14664731075E+03  0.80419002446E+02 0. -1.
          1    1    1    2  501    0 -0.22595886295E+02 -0.46100594523E+01  0.41618510823E+00  0.23065123795E+02  0.00000000000E+00 0. -1.
         -2    1    1    2    0  502 -0.18539428387E+02  0.22228515381E+02  0.75252367060E+01  0.29907298247E+02  0.00000000000E+00 0.  1.
<mgrwt>
<rscale>  2 0.72018817E+02</rscale>
<asrwt>0</asrwt>
<pdfrwt beam="1">  1       21 0.71836300E-02 0.72018817E+02</pdfrwt>
<pdfrwt beam="2">  1       21 0.23527098E-01 0.72018817E+02</pdfrwt>
<totfact> 0.23821003E+06</totfact>
</mgrwt>
</event>
<event>
 5    1  0.1946229E+000  0.7670194E+02  0.7546771E-02  0.1338680E+00
         21   -1    0    0  501  502  0.00000000000E+00  0.00000000000E+00  0.10754662107E+03  0.10754662107E+03  0.00000000000E+00 0. -1.
         21   -1    0    0  502  503 -0.00000000000E+00 -0.00000000000E+00 -0.96990825081E+02  0.96990825081E+02  0.00000000000E+00 0. -1.
         24    1    1    2    0    0  0.13806833483E+02  0.53215156193E+02  0.51634801668E+02  0.11025357226E+03  0.80419002446E+02 0. -1.
          1    1    1    2  501    0 -0.13079713431E+02 -0.29583681890E+02  0.13310652551E+02  0.34977801660E+02  0.00000000000E+00 0. -1.
         -2    1    1    2    0  503 -0.72712005195E+00 -0.23631474303E+02 -0.54389658227E+02  0.59306072230E+02  0.00000000000E+00 0.  1.
<mgrwt>
<rscale>  2 0.76701941E+02</rscale>
<asrwt>0</asrwt>
<pdfrwt beam="1">  1       21 0.16545634E-01 0.76701941E+02</pdfrwt>
<pdfrwt beam="2">  1       21 0.14921665E-01 0.76701941E+02</pdfrwt>
<totfact> 0.12805889E+06</totfact>
</mgrwt>
</event>
<event>
 5    1  0.1946229E+000  0.6658341E+02  0.7546771E-02  0.1372112E+00
         21   -1    0    0  501  502  0.00000000000E+00  0.00000000000E+00  0.63021243070E+03  0.63021243070E+03  0.00000000000E+00 0. -1.
         21   -1    0    0  502  503 -0.00000000000E+00 -0.00000000000E+00 -0.12986124148E+03  0.12986124148E+03  0.00000000000E+00 0.  1.
         24    1    1    2    0    0  0.20153349730E+02 -0.83106094727E+01  0.11846861860E+03  0.14483526257E+03  0.80419002446E+02 0.  1.
          1    1    1    2  501    0 -0.15846858281E+02 -0.17540138263E+02  0.49680432184E+03  0.49736637760E+03  0.00000000000E+00 0. -1.
         -2    1    1    2    0  503 -0.43064914486E+01  0.25850747735E+02 -0.11492175122E+03  0.11787203201E+03  0.00000000000E+00 0.  1.
<mgrwt>
<rscale>  2 0.66583411E+02</rscale>
<asrwt>0</asrwt>
<pdfrwt beam="1">  1       21 0.96955757E-01 0.66583411E+02</pdfrwt>
<pdfrwt beam="2">  1       21 0.19978653E-01 0.66583411E+02</pdfrwt>
<totfact> 0.22696140E+04</totfact>
</mgrwt>
</event>
<event>
 5    1  0.1946229E+000  0.1285920E+03  0.7546771E-02  0.1229560E+00
         21   -1    0    0  503  502  0.00000000000E+00  0.00000000000E+00  0.72367414177E+02  0.72367414177E+02  0.00000000000E+00 0.  1.
         21   -1    0    0  501  503 -0.00000000000E+00 -0.00000000000E+00 -0.11083760303E+04  0.11083760303E+04  0.00000000000E+00 0. -1.
         24    1    1    2    0    0 -0.89108962691E+02  0.21184593692E+01 -0.71071179228E+02  0.13951065756E+03  0.80419002446E+02 0.  1.
          1    1    1    2  501    0  0.97098576926E+01 -0.45590208226E+02 -0.94799482072E+03  0.94914009953E+03  0.00000000000E+00 0. -1.
         -2    1    1    2    0  502  0.79399104998E+02  0.43471748857E+02 -0.16942616149E+02  0.92092687360E+02  0.00000000000E+00 0.  1.
<mgrwt>
<rscale>  2 0.12859199E+03</rscale>
<asrwt>0</asrwt>
<pdfrwt beam="1">  1       21 0.11133448E-01 0.12859199E+03</pdfrwt>
<pdfrwt beam="2">  1       21 0.17051939E+00 0.12859199E+03</pdfrwt>
<totfact> 0.14970402E+04</totfact>
</mgrwt>
</event>
<event>
 5    1  0.1946229E+000  0.6546456E+02  0.7546771E-02  0.1376232E+00
         21   -1    0    0  501  502  0.00000000000E+00  0.00000000000E+00  0.25210717180E+04  0.25210717180E+04  0.00000000000E+00 0. -1.
         21   -1    0    0  502  503 -0.00000000000E+00 -0.00000000000E+00 -0.18496920382E+01  0.18496920382E+01  0.00000000000E+00 0.  1.
         24    1    1    2    0    0  0.28417376217E+02  0.15660607195E+02  0.15231945631E+04  0.15256610682E+04  0.80419002446E+02 0.  1.
          1    1    1    2  501    0 -0.23762927004E+02  0.39206983093E+01  0.75830728190E+03  0.75868964824E+03  0.00000000000E+00 0. -1.
         -2    1    1    2    0  503 -0.46544492139E+01 -0.19581305505E+02  0.23772018091E+03  0.23857069357E+03  0.00000000000E+00 0.  1.
<mgrwt>
<rscale>  2 0.65464559E+02</rscale>
<asrwt>0</asrwt>
<pdfrwt beam="1">  1       21 0.38785444E+00 0.65464559E+02</pdfrwt>
<pdfrwt beam="2">  1       21 0.28457002E-03 0.65464559E+02</pdfrwt>
<totfact> 0.33055528E+05</totfact>
</mgrwt>
</event>
<event>
 5    1  0.1946229E+000  0.1252240E+03  0.7546771E-02  0.1234720E+00
         21   -1    0    0  503  502  0.00000000000E+00  0.00000000000E+00  0.12313039207E+03  0.12313039207E+03  0.00000000000E+00 0. -1.
         21   -1    0    0  501  503 -0.00000000000E+00 -0.00000000000E+00 -0.13306182171E+03  0.13306182171E+03  0.00000000000E+00 0. -1.
         24    1    1    2    0    0 -0.84735082280E+02  0.36429060450E+02 -0.29970561735E+02  0.12598635299E+03  0.80419002446E+02 0. -1.
          1    1    1    2  501    0  0.31150790223E+02 -0.61484640320E+02  0.16913978648E+02  0.70970524871E+02  0.00000000000E+00 0. -1.
         -2    1    1    2    0  502  0.53584292057E+02  0.25055579870E+02  0.31251534474E+01  0.59235335923E+02  0.00000000000E+00 0.  1.
<mgrwt>
<rscale>  2 0.12522401E+03</rscale>
<asrwt>0</asrwt>
<pdfrwt beam="1">  1       21 0.18943137E-01 0.12522401E+03</pdfrwt>
<pdfrwt beam="2">  1       21 0.20471049E-01 0.12522401E+03</pdfrwt>
<totfact> 0.56827197E+05</totfact>
</mgrwt>
</event>
<event>
 5    1  0.1946229E+000  0.7417589E+02  0.7546771E-02  0.1346442E+00
         21   -1    0    0  503  502  0.00000000000E+00  0.00000000000E+00  0.24048369713E+03  0.24048369713E+03  0.00000000000E+00 0.  1.
         21   -1    0    0  501  503 -0.00000000000E+00 -0.00000000000E+00 -0.30771720097E+02  0.30771720097E+02  0.00000000000E+00 0.  1.
         24    1    1    2    0    0  0.34823593466E+02 -0.30194615611E+02  0.10925689633E+03  0.14327834038E+03  0.80419002446E+02 0.  1.
          1    1    1    2  501    0 -0.43536143597E+01  0.24223065593E+02  0.19431587742E+01  0.24687785051E+02  0.00000000000E+00 0. -1.
         -2    1    1    2    0  502 -0.30469979106E+02  0.59715500189E+01  0.98511921930E+02  0.10328929179E+03  0.00000000000E+00 0.  1.
<mgrwt>
<rscale>  2 0.74175886E+02</rscale>
<asrwt>0</asrwt>
<pdfrwt beam="1">  1       21 0.36997491E-01 0.74175886E+02</pdfrwt>
<pdfrwt beam="2">  1       21 0.47341110E-02 0.74175886E+02</pdfrwt>
<totfact> 0.20286785E+06</totfact>
</mgrwt>
</event>
<event>
 5    1  0.1946229E+000  0.1410219E+03  0.7546771E-02  0.1211961E+00
         21   -1    0    0  501  502  0.00000000000E+00  0.00000000000E+00  0.14065495355E+02  0.14065495355E+02  0.00000000000E+00 0.  1.
         21   -1    0    0  502  503 -0.00000000000E+00 -0.00000000000E+00 -0.23120794845E+04  0.23120794845E+04  0.00000000000E+00 0.  1.
         24    1    1    2    0    0  0.79245473801E+02  0.97295040098E+02 -0.74546201633E+03  0.76021510356E+03  0.80419002446E+02 0.  1.
          1    1    1    2  501    0 -0.81331150999E+02 -0.75074385010E+02 -0.45923472905E+03  0.47238485981E+03  0.00000000000E+00 0. -1.
         -2    1    1    2    0  503  0.20856771981E+01 -0.22220655088E+02 -0.10933172438E+04  0.10935450165E+04  0.00000000000E+00 0.  1.
<mgrwt>
<rscale>  2 0.14102188E+03</rscale>
<asrwt>0</asrwt>
<pdfrwt beam="1">  1       21 0.21639205E-02 0.14102188E+03</pdfrwt>
<pdfrwt beam="2">  1       21 0.35570484E+00 0.14102188E+03</pdfrwt>
<totfact> 0.18720860E+04</totfact>
</mgrwt>
</event>
<event>
 5    1  0.1946229E+000  0.8635516E+02  0.7546771E-02  0.1311926E+00
         21   -1    0    0  501  502  0.00000000000E+00  0.00000000000E+00  0.13751195310E+03  0.13751195310E+03  0.00000000000E+00 0.  1.
         21   -1    0    0  502  503 -0.00000000000E+00 -0.00000000000E+00 -0.10301368427E+03  0.10301368427E+03  0.00000000000E+00 0.  1.
         24    1    1    2    0    0 -0.61761440726E+02 -0.44620139517E+01  0.73028292503E+01  0.10175918828E+03  0.80419002446E+02 0.  1.
          1    1    1    2  501    0  0.22898182746E+02 -0.15374174619E+02  0.71468614412E+02  0.76605840928E+02  0.00000000000E+00 0. -1.
         -2    1    1    2    0  503  0.38863257979E+02  0.19836188571E+02 -0.44273174828E+02  0.62160608163E+02  0.00000000000E+00 0.  1.
<mgrwt>
<rscale>  2 0.86355159E+02</rscale>
<asrwt>0</asrwt>
<pdfrwt beam="1">  1       21 0.21155685E-01 0.86355159E+02</pdfrwt>
<pdfrwt beam="2">  1       21 0.15848259E-01 0.86355159E+02</pdfrwt>
<totfact> 0.73828373E+05</totfact>
</mgrwt>
</event>
<event>
 5    1  0.1946229E+000  0.6490821E+02  0.7546771E-02  0.1378317E+00
         21   -1    0    0  503  502  0.00000000000E+00  0.00000000000E+00  0.16476598862E+02  0.16476598862E+02  0.00000000000E+00 0. -1.
         21   -1    0    0  501  503 -0.00000000000E+00 -0.00000000000E+00 -0.45498664770E+03  0.45498664770E+03  0.00000000000E+00 0.  1.
         24    1    1    2    0    0  0.79297188812E+01  0.54439739111E+00 -0.11726800059E+03  0.14241550733E+03  0.80419002446E+02 0.  0.
          1    1    1    2  501    0 -0.45948647228E+01 -0.24445173650E+02 -0.28118551970E+03  0.28228350250E+03  0.00000000000E+00 0. -1.
         -2    1    1    2    0  502 -0.33348541585E+01  0.23900776259E+02 -0.40056528553E+02  0.46764236738E+02  0.00000000000E+00 0.  1.
<mgrwt>
<rscale>  2 0.64908210E+02</rscale>
<asrwt>0</asrwt>
<pdfrwt beam="1">  1       21 0.25348611E-02 0.64908210E+02</pdfrwt>
<pdfrwt beam="2">  1       21 0.69997954E-01 0.64908210E+02</pdfrwt>
<totfact> 0.15213409E+06</totfact>
</mgrwt>
</event>
<event>
 5    1  0.1946229E+000  0.1121259E+03  0.7546771E-02  0.1256683E+00
         21   -1    0    0  501  502  0.00000000000E+00  0.00000000000E+00  0.15480940636E+03  0.15480940636E+03  0.00000000000E+00 0. -1.
         21   -1    0    0  502  503 -0.00000000000E+00 -0.00000000000E+00 -0.13935180192E+03  0.13935180192E+03  0.00000000000E+00 0.  1.
         24    1    1    2    0    0  0.48490410394E+01  0.67477430915E+02 -0.41405504020E+02  0.11295286008E+03  0.80419002446E+02 0.  1.
          1    1    1    2  501    0 -0.39353381094E+02  0.42345845740E+01  0.87419544756E+02  0.95962477643E+02  0.00000000000E+00 0. -1.
         -2    1    1    2    0  503  0.34504340055E+02 -0.71712015489E+02 -0.30556436299E+02  0.85245870559E+02  0.00000000000E+00 0.  1.
<mgrwt>
<rscale>  2 0.11212592E+03</rscale>
<asrwt>0</asrwt>
<pdfrwt beam="1">  1       21 0.23816832E-01 0.11212592E+03</pdfrwt>
<pdfrwt beam="2">  1       21 0.21438739E-01 0.11212592E+03</pdfrwt>
<totfact> 0.34154373E+05</totfact>
</mgrwt>
</event>
<event>
 5    1  0.1946229E+000  0.1084295E+03  0.7546771E-02  0.1263506E+00
         21   -1    0    0  503  502  0.00000000000E+00  0.00000000000E+00  0.41152910686E+03  0.41152910686E+03  0.00000000000E+00 0.  1.
         21   -1    0    0  501  503 -0.00000000000E+00 -0.00000000000E+00 -0.46153182702E+02  0.46153182702E+02  0.00000000000E+00 0. -1.
         24    1    1    2    0    0 -0.50554414778E+02 -0.38785409838E+02  0.16666222959E+03  0.19571298269E+03  0.80419002446E+02 0. -1.
          1    1    1    2  501    0  0.61239739873E+02  0.62956761749E+02  0.32470561506E+02  0.93638650963E+02  0.00000000000E+00 0. -1.
         -2    1    1    2    0  502 -0.10685325095E+02 -0.24171351911E+02  0.16624313306E+03  0.16833065590E+03  0.00000000000E+00 0.  1.
<mgrwt>
<rscale>  2 0.10842946E+03</rscale>
<asrwt>0</asrwt>
<pdfrwt beam="1">  1       21 0.63312168E-01 0.10842946E+03</pdfrwt>
<pdfrwt beam="2">  1       21 0.71004899E-02 0.10842946E+03</pdfrwt>
<totfact> 0.34626038E+05</totfact>
</mgrwt>
</event>
<event>
 5    1  0.1946229E+000  0.1249641E+03  0.7546771E-02  0.1235125E+00
         21   -1    0    0  503  502  0.00000000000E+00  0.00000000000E+00  0.16392403205E+03  0.16392403205E+03  0.00000000000E+00 0.  1.
         21   -1    0    0  501  503 -0.00000000000E+00 -0.00000000000E+00 -0.22005664329E+03  0.22005664329E+03  0.00000000000E+00 0. -1.
         24    1    1    2    0    0  0.61236093576E+02 -0.48767749142E+02  0.44245109456E+02  0.12063580803E+03  0.80419002446E+02 0.  1.
          1    1    1    2  501    0  0.28666467014E+02  0.37337545921E+02 -0.15194838845E+03  0.15907284941E+03  0.00000000000E+00 0. -1.
         -2    1    1    2    0  502 -0.89902560589E+02  0.11430203221E+02  0.51570667751E+02  0.10427201791E+03  0.00000000000E+00 0.  1.
<mgrwt>
<rscale>  2 0.12496413E+03</rscale>
<asrwt>0</asrwt>
<pdfrwt beam="1">  1       21 0.25219082E-01 0.12496413E+03</pdfrwt>
<pdfrwt beam="2">  1       21 0.33854868E-01 0.12496413E+03</pdfrwt>
<totfact> 0.12817605E+05</totfact>
</mgrwt>
</event>
<event>
 5    1  0.1946229E+000  0.7063306E+02  0.7546771E-02  0.1357953E+00
         21   -1    0    0  503  502  0.00000000000E+00  0.00000000000E+00  0.93058074825E+03  0.93058074825E+03  0.00000000000E+00 0.  1.
         21   -1    0    0  501  503 -0.00000000000E+00 -0.00000000000E+00 -0.11076984160E+02  0.11076984160E+02  0.00000000000E+00 0.  1.
         24    1    1    2    0    0  0.23109599534E+02 -0.20645244024E+02  0.20411400746E+03  0.22156268568E+03  0.80419002446E+02 0.  1.
          1    1    1    2  501    0 -0.50946652296E+01  0.32901981976E+02  0.12667774677E+03  0.13097995098E+03  0.00000000000E+00 0. -1.
         -2    1    1    2    0  502 -0.18014934304E+02 -0.12256737953E+02  0.58871200986E+03  0.58911509574E+03  0.00000000000E+00 0.  1.
<mgrwt>
<rscale>  2 0.70633059E+02</rscale>
<asrwt>0</asrwt>
<pdfrwt beam="1">  1       21 0.14316621E+00 0.70633059E+02</pdfrwt>
<pdfrwt beam="2">  1       21 0.17041521E-02 0.70633059E+02</pdfrwt>
<totfact> 0.55427007E+05</totfact>
</mgrwt>
</event>
<event>
 5    1  0.1946229E+000  0.8672510E+02  0.7546771E-02  0.1310982E+00
         21   -1    0    0  501  502  0.00000000000E+00  0.00000000000E+00  0.31907576419E+02  0.31907576419E+02  0.00000000000E+00 0.  1.
         21   -1    0    0  502  503 -0.00000000000E+00 -0.00000000000E+00 -0.29763256900E+03  0.29763256900E+03  0.00000000000E+00 0. -1.
         24    1    1    2    0    0  0.32019309551E+02 -0.29524452218E+02 -0.67146239156E+02  0.11345819869E+03  0.80419002446E+02 0.  1.
          1    1    1    2  501    0 -0.69672659539E+00  0.46406738396E+02 -0.82347189454E+02  0.94525818735E+02  0.00000000000E+00 0. -1.
         -2    1    1    2    0  503 -0.31322582956E+02 -0.16882286178E+02 -0.11623156397E+03  0.12155612799E+03  0.00000000000E+00 0.  1.
<mgrwt>
<rscale>  2 0.86725096E+02</rscale>
<asrwt>0</asrwt>
<pdfrwt beam="1">  1       21 0.49088577E-02 0.86725096E+02</pdfrwt>
<pdfrwt beam="2">  1       21 0.45789628E-01 0.86725096E+02</pdfrwt>
<totfact> 0.12593741E+06</totfact>
</mgrwt>
</event>
<event>
 5    1  0.1946229E+000  0.7241149E+02  0.7546771E-02  0.1352079E+00
         21   -1    0    0  501  502  0.00000000000E+00  0.00000000000E+00  0.10562544119E+03  0.10562544119E+03  0.00000000000E+00 0. -1.
         21   -1    0    0  502  503 -0.00000000000E+00 -0.00000000000E+00 -0.17610042496E+04  0.17610042496E+04  0.00000000000E+00 0.  1.
         24    1    1    2    0    0  0.48270935271E+02  0.10300965351E+02  0.14478046822E+02  0.95462154141E+02  0.80419002446E+02 0.  0.
          1    1    1    2  501    0 -0.23567925423E+02 -0.10403233719E+02  0.47285302644E+02  0.53847694721E+02  0.00000000000E+00 0. -1.
         -2    1    1    2    0  503 -0.24703009848E+02  0.10226836807E+00 -0.17171421578E+04  0.17173198419E+04  0.00000000000E+00 0.  1.
<mgrwt>
<rscale>  2 0.72411489E+02</rscale>
<asrwt>0</asrwt>
<pdfrwt beam="1">  1       21 0.16250069E-01 0.72411489E+02</pdfrwt>
<pdfrwt beam="2">  1       21 0.27092372E+00 0.72411489E+02</pdfrwt>
<totfact> 0.21264915E+03</totfact>
</mgrwt>
</event>
<event>
 5    1  0.1946229E+000  0.1230247E+03  0.7546771E-02  0.1238189E+00
         21   -1    0    0  501  502  0.00000000000E+00  0.00000000000E+00  0.11538001813E+04  0.11538001813E+04  0.00000000000E+00 0. -1.
         21   -1    0    0  502  503 -0.00000000000E+00 -0.00000000000E+00 -0.13688708952E+03  0.13688708952E+03  0.00000000000E+00 0.  1.
         24    1    1    2    0    0 -0.56327285303E+02 -0.78410284500E+02  0.62509302639E+02  0.14034088733E+03  0.80419002446E+02 0. -1.
          1    1    1    2  501    0  0.20638937348E+02  0.81974352708E+02  0.10473315894E+04  0.10507374641E+04  0.00000000000E+00 0. -1.
         -2    1    1    2    0  503  0.35688347955E+02 -0.35640682076E+01 -0.92927800275E+02  0.99608919409E+02  0.00000000000E+00 0.  1.
<mgrwt>
<rscale>  2 0.12302469E+03</rscale>
<asrwt>0</asrwt>
<pdfrwt beam="1">  1       21 0.17750771E+00 0.12302469E+03</pdfrwt>
<pdfrwt beam="2">  1       21 0.21059553E-01 0.12302469E+03</pdfrwt>
<totfact> 0.42711691E+03</totfact>
</mgrwt>
</event>
<event>
 5    1  0.1946229E+000  0.6873227E+02  0.7546771E-02  0.1364458E+00
         21   -1    0    0  501  502  0.00000000000E+00  0.00000000000E+00  0.22573430418E+02  0.22573430418E+02  0.00000000000E+00 0. -1.
         21   -1    0    0  502  503 -0.00000000000E+00 -0.00000000000E+00 -0.24202097105E+03  0.24202097105E+03  0.00000000000E+00 0.  1.
         24    1    1    2    0    0 -0.23507990111E+02 -0.26248045301E+02 -0.10216849814E+03  0.13471155647E+03  0.80419002446E+02 0.  0.
          1    1    1    2  501    0  0.26445732276E+01  0.28552264874E+02 -0.36473150614E+02  0.46395218640E+02  0.00000000000E+00 0. -1.
         -2    1    1    2    0  503  0.20863416883E+02 -0.23042195726E+01 -0.80805891882E+02  0.83487626357E+02  0.00000000000E+00 0.  1.
<mgrwt>
<rscale>  2 0.68732265E+02</rscale>
<asrwt>0</asrwt>
<pdfrwt beam="1">  1       21 0.34728353E-02 0.68732265E+02</pdfrwt>
<pdfrwt beam="2">  1       21 0.37233997E-01 0.68732265E+02</pdfrwt>
<totfact> 0.33134845E+06</totfact>
</mgrwt>
</event>
<event>
 5    1  0.1946229E+000  0.1100365E+03  0.7546771E-02  0.1260502E+00
         21   -1    0    0  503  502  0.00000000000E+00  0.00000000000E+00  0.19066799983E+02  0.19066799983E+02  0.00000000000E+00 0.  1.
         21   -1    0    0  501  503 -0.00000000000E+00 -0.00000000000E+00 -0.10804927277E+04  0.10804927277E+04  0.00000000000E+00 0. -1.
         24    1    1    2    0    0  0.67053338822E+02 -0.59713415173E+02 -0.67723455473E+03  0.68787767828E+03  0.80419002446E+02 0. -1.
          1    1    1    2  501    0 -0.57768861230E+02  0.23863136766E+02 -0.36434252773E+03  0.36966494037E+03  0.00000000000E+00 0. -1.
         -2    1    1    2    0  502 -0.92844775919E+01  0.35850278407E+02 -0.19848845233E+02  0.42016909014E+02  0.00000000000E+00 0.  1.
<mgrwt>
<rscale>  2 0.11003654E+03</rscale>
<asrwt>0</asrwt>
<pdfrwt beam="1">  1       21 0.29333531E-02 0.11003654E+03</pdfrwt>
<pdfrwt beam="2">  1       21 0.16622969E+00 0.11003654E+03</pdfrwt>
<totfact> 0.15515782E+05</totfact>
</mgrwt>
</event>
<event>
 5    1  0.1946229E+000  0.1308019E+03  0.7546771E-02  0.1226271E+00
         21   -1    0    0  501  502  0.00000000000E+00  0.00000000000E+00  0.17146888231E+04  0.17146888231E+04  0.00000000000E+00 0.  1.
         21   -1    0    0  502  503 -0.00000000000E+00 -0.00000000000E+00 -0.12542803911E+02  0.12542803911E+02  0.00000000000E+00 0. -1.
         24    1    1    2    0    0 -0.51167579446E+01  0.95186020503E+02  0.48554562726E+03  0.50130662455E+03  0.80419002446E+02 0.  0.
          1    1    1    2  501    0 -0.87462597038E+01 -0.11354641226E+03  0.11465838551E+04  0.11522255949E+04  0.00000000000E+00 0. -1.
         -2    1    1    2    0  503  0.13863017648E+02  0.18360391753E+02  0.70016536809E+02  0.73699407531E+02  0.00000000000E+00 0.  1.
<mgrwt>
<rscale>  2 0.13080189E+03</rscale>
<asrwt>0</asrwt>
<pdfrwt beam="1">  1       21 0.26379809E+00 0.13080189E+03</pdfrwt>
<pdfrwt beam="2">  1       21 0.19296635E-02 0.13080189E+03</pdfrwt>
<totfact> 0.75930058E+04</totfact>
</mgrwt>
</event>
<event>
 5    1  0.2452368E+000  0.2009968E+03  0.7546771E-02  0.1148901E+00
         21   -1    0    0  501  502  0.00000000000E+00  0.00000000000E+00  0.43593404512E+03  0.43593404512E+03  0.00000000000E+00 0. -1.
         21   -1    0    0  502  503 -0.00000000000E+00 -0.00000000000E+00 -0.16123645911E+03  0.16123645911E+03  0.00000000000E+00 0.  1.
         24    1    1    2    0    0 -0.80163598325E+02 -0.15839695169E+02  0.29066873269E+02  0.11827593802E+03  0.80419002446E+02 0.  1.
          1    1    1    2  501    0 -0.97229639695E+02  0.45737139237E+02  0.27625112072E+03  0.29641216311E+03  0.00000000000E+00 0. -1.
         -2    1    1    2    0  503  0.17739323802E+03 -0.29897444068E+02 -0.30620407976E+02  0.18248240310E+03  0.00000000000E+00 0.  1.
<mgrwt>
<rscale>  2 0.20099681E+03</rscale>
<asrwt>0</asrwt>
<pdfrwt beam="1">  1       21 0.67066776E-01 0.20099681E+03</pdfrwt>
<pdfrwt beam="2">  1       21 0.24805609E-01 0.20099681E+03</pdfrwt>
<totfact> 0.31151560E+04</totfact>
</mgrwt>
</event>
<event>
 5    1  0.1946229E+000  0.6628289E+02  0.7546771E-02  0.1373210E+00
         21   -1    0    0  501  502  0.00000000000E+00  0.00000000000E+00  0.35330177628E+02  0.35330177628E+02  0.00000000000E+00 0. -1.
         21   -1    0    0  502  503 -0.00000000000E+00 -0.00000000000E+00 -0.51888394907E+03  0.51888394907E+03  0.00000000000E+00 0.  1.
         24    1    1    2    0    0 -0.10738601468E+02  0.44899854861E+01 -0.53363405910E+02  0.97212893054E+02  0.80419002446E+02 0.  0.
          1    1    1    2  501    0  0.26457514716E+02  0.11533858405E+02 -0.27733312508E+01  0.28995195134E+02  0.00000000000E+00 0. -1.
         -2    1    1    2    0  503 -0.15718913248E+02 -0.16023843891E+02 -0.42741703428E+03  0.42800603851E+03  0.00000000000E+00 0.  1.
<mgrwt>
<rscale>  2 0.66282886E+02</rscale>
<asrwt>0</asrwt>
<pdfrwt beam="1">  1       21 0.54354117E-02 0.66282886E+02</pdfrwt>
<pdfrwt beam="2">  1       21 0.79828303E-01 0.66282886E+02</pdfrwt>
<totfact> 0.33116571E+05</totfact>
</mgrwt>
</event>
<event>
 5    1  0.1946229E+000  0.8605487E+02  0.7546771E-02  0.1312697E+00
         21   -1    0    0  501  502  0.00000000000E+00  0.00000000000E+00  0.27000570538E+03  0.27000570538E+03  0.00000000000E+00 0.  1.
         21   -1    0    0  502  503 -0.00000000000E+00 -0.00000000000E+00 -0.35298435824E+02  0.35298435824E+02  0.00000000000E+00 0.  1.
         24    1    1    2    0    0  0.66355605700E+02  0.82895359687E+01  0.14969045052E+03  0.18260950070E+03  0.80419002446E+02 0.  1.
          1    1    1    2  501    0 -0.31661533488E+02  0.74014948231E+00  0.80568879133E+02  0.86569883960E+02  0.00000000000E+00 0. -1.
         -2    1    1    2    0  503 -0.34694072211E+02 -0.90296854510E+01  0.44479399020E+01  0.36124756544E+02  0.00000000000E+00 0.  1.
<mgrwt>
<rscale>  2 0.86054866E+02</rscale>
<asrwt>0</asrwt>
<pdfrwt beam="1">  1       21 0.41539338E-01 0.86054866E+02</pdfrwt>
<pdfrwt beam="2">  1       21 0.54305288E-02 0.86054866E+02</pdfrwt>
<totfact> 0.12931532E+06</totfact>
</mgrwt>
</event>
<event>
 5    1  0.1946229E+000  0.7558882E+02  0.7546771E-02  0.1342057E+00
         21   -1    0    0  501  502  0.00000000000E+00  0.00000000000E+00  0.91104003692E+01  0.91104003692E+01  0.00000000000E+00 0.  1.
         21   -1    0    0  502  503 -0.00000000000E+00 -0.00000000000E+00 -0.64449493907E+03  0.64449493907E+03  0.00000000000E+00 0.  1.
         24    1    1    2    0    0  0.20247313498E+02  0.12609623660E+02 -0.30504961501E+03  0.31637231214E+03  0.80419002446E+02 0.  1.
          1    1    1    2  501    0 -0.25730076106E+02  0.21018441553E+02 -0.14142611478E+03  0.14527614272E+03  0.00000000000E+00 0. -1.
         -2    1    1    2    0  503  0.54827626081E+01 -0.33628065213E+02 -0.18890880890E+03  0.19195688457E+03  0.00000000000E+00 0.  1.
<mgrwt>
<rscale>  2 0.75588824E+02</rscale>
<asrwt>0</asrwt>
<pdfrwt beam="1">  1       21 0.14016001E-02 0.75588824E+02</pdfrwt>
<pdfrwt beam="2">  1       21 0.99153065E-01 0.75588824E+02</pdfrwt>
<totfact> 0.18136217E+06</totfact>
</mgrwt>
</event>
<event>
 5    1  0.1946229E+000  0.1085345E+03  0.7546771E-02  0.1263308E+00
         21   -1    0    0  503  502  0.00000000000E+00  0.00000000000E+00  0.30039967320E+02  0.30039967320E+02  0.00000000000E+00 0.  1.
         21   -1    0    0  501  503 -0.00000000000E+00 -0.00000000000E+00 -0.39457456995E+03  0.39457456995E+03  0.00000000000E+00 0. -1.
         24    1    1    2    0    0  0.86720813227E+02  0.30684002735E+02 -0.21977754695E+03  0.25145853250E+03  0.80419002446E+02 0. -1.
          1    1    1    2  501    0 -0.51400531879E+02 -0.30086620314E+02 -0.95256308597E+02  0.11234315167E+03  0.00000000000E+00 0. -1.
         -2    1    1    2    0  502 -0.35320281348E+02 -0.59738242116E+00 -0.49500747083E+02  0.60812853099E+02  0.00000000000E+00 0.  1.
<mgrwt>
<rscale>  2 0.10853454E+03</rscale>
<asrwt>0</asrwt>
<pdfrwt beam="1">  1       21 0.46215338E-02 0.10853454E+03</pdfrwt>
<pdfrwt beam="2">  1       21 0.60703776E-01 0.10853454E+03</pdfrwt>
<totfact> 0.78050947E+05</totfact>
</mgrwt>
</event>
<event>
 5    1  0.1946229E+000  0.2046459E+03  0.7546771E-02  0.1145877E+00
         21   -1    0    0  503  502  0.00000000000E+00  0.00000000000E+00  0.39873034915E+03  0.39873034915E+03  0.00000000000E+00 0.  1.
         21   -1    0    0  501  503 -0.00000000000E+00 -0.00000000000E+00 -0.69453975669E+03  0.69453975669E+03  0.00000000000E+00 0. -1.
         24    1    1    2    0    0  0.14480845105E+03  0.11611055173E+03  0.38888126932E+02  0.20598701437E+03  0.80419002446E+02 0.  0.
          1    1    1    2  501    0 -0.64746361803E+02  0.14649129979E+01 -0.59079435855E+03  0.59433341774E+03  0.00000000000E+00 0. -1.
         -2    1    1    2    0  502 -0.80062089251E+02 -0.11757546472E+03  0.25609682408E+03  0.29294967373E+03  0.00000000000E+00 0.  1.
<mgrwt>
<rscale>  2 0.20464591E+03</rscale>
<asrwt>0</asrwt>
<pdfrwt beam="1">  1       21 0.61343131E-01 0.20464591E+03</pdfrwt>
<pdfrwt beam="2">  1       21 0.10685227E+00 0.20464591E+03</pdfrwt>
<totfact> 0.17116535E+03</totfact>
</mgrwt>
</event>
<event>
 5    1  0.1946229E+000  0.7508513E+02  0.7546771E-02  0.1343608E+00
         21   -1    0    0  503  502  0.00000000000E+00  0.00000000000E+00  0.90962853527E+02  0.90962853527E+02  0.00000000000E+00 0. -1.
         21   -1    0    0  501  503 -0.00000000000E+00 -0.00000000000E+00 -0.85440676718E+02  0.85440676718E+02  0.00000000000E+00 0. -1.
         24    1    1    2    0    0 -0.47301927934E+02  0.17206806025E+02 -0.92728067456E+01  0.95324432645E+02  0.80419002446E+02 0. -1.
          1    1    1    2  501    0  0.23995779343E+02  0.33409354665E+01 -0.22135546919E+02  0.32816790116E+02  0.00000000000E+00 0. -1.
         -2    1    1    2    0  502  0.23306148591E+02 -0.20547741492E+02  0.36930530474E+02  0.48262307484E+02  0.00000000000E+00 0.  1.
<mgrwt>
<rscale>  2 0.75085128E+02</rscale>
<asrwt>0</asrwt>
<pdfrwt beam="1">  1       21 0.13994285E-01 0.75085128E+02</pdfrwt>
<pdfrwt beam="2">  1       21 0.13144719E-01 0.75085128E+02</pdfrwt>
<totfact> 0.21562235E+06</totfact>
</mgrwt>
</event>
<event>
 5    1  0.1946229E+000  0.7129068E+02  0.7546771E-02  0.1355758E+00
         21   -1    0    0  501  502  0.00000000000E+00  0.00000000000E+00  0.17864429138E+02  0.17864429138E+02  0.00000000000E+00 0. -1.
         21   -1    0    0  502  503 -0.00000000000E+00 -0.00000000000E+00 -0.10659879209E+04  0.10659879209E+04  0.00000000000E+00 0. -1.
         24    1    1    2    0    0 -0.11147426421E+02 -0.37937990816E+02 -0.21971704837E+03  0.23728959851E+03  0.80419002446E+02 0.  1.
          1    1    1    2  501    0 -0.85015526442E+01  0.30975076790E+02 -0.19895482453E+02  0.37783091477E+02  0.00000000000E+00 0. -1.
         -2    1    1    2    0  503  0.19648979065E+02  0.69629140254E+01 -0.80851096092E+03  0.80877966003E+03  0.00000000000E+00 0.  1.
<mgrwt>
<rscale>  2 0.71290685E+02</rscale>
<asrwt>0</asrwt>
<pdfrwt beam="1">  1       21 0.27483731E-02 0.71290685E+02</pdfrwt>
<pdfrwt beam="2">  1       21 0.16399818E+00 0.71290685E+02</pdfrwt>
<totfact> 0.18313853E+05</totfact>
</mgrwt>
</event>
<event>
 5    1  0.1946229E+000  0.7553207E+02  0.7546771E-02  0.1342231E+00
         21   -1    0    0  503  502  0.00000000000E+00  0.00000000000E+00  0.29782222155E+02  0.29782222155E+02  0.00000000000E+00 0.  1.
         21   -1    0    0  501  503 -0.00000000000E+00 -0.00000000000E+00 -0.37321998336E+03  0.37321998336E+03  0.00000000000E+00 0.  1.
         24    1    1    2    0    0  0.33325728135E+02 -0.15992952143E+02 -0.31398100864E+03  0.32621721048E+03  0.80419002446E+02 0.  1.
          1    1    1    2  501    0 -0.12627694752E+02 -0.18459104918E+02 -0.28959717626E+02  0.36590469717E+02  0.00000000000E+00 0. -1.
         -2    1    1    2    0  502 -0.20698033383E+02  0.34452057061E+02 -0.49703493960E+00  0.40194525316E+02  0.00000000000E+00 0.  1.
<mgrwt>
<rscale>  2 0.75532069E+02</rscale>
<asrwt>0</asrwt>
<pdfrwt beam="1">  1       21 0.45818803E-02 0.75532069E+02</pdfrwt>
<pdfrwt beam="2">  1       21 0.57418459E-01 0.75532069E+02</pdfrwt>
<totfact> 0.88645206E+05</totfact>
</mgrwt>
</event>
<event>
 5    1  0.1946229E+000  0.8749289E+02  0.7546771E-02  0.1309039E+00
         21   -1    0    0  501  502  0.00000000000E+00  0.00000000000E+00  0.14958516132E+03  0.14958516132E+03  0.00000000000E+00 0. -1.
         21   -1    0    0  502  503 -0.00000000000E+00 -0.00000000000E+00 -0.60935933932E+02  0.60935933932E+02  0.00000000000E+00 0. -1.
         24    1    1    2    0    0 -0.42334188704E+02 -0.17922476002E+02  0.34886401689E+02  0.98983208962E+02  0.80419002446E+02 0. -1.
          1    1    1    2  501    0  0.19310453005E+02  0.43709139997E+02  0.59693224446E+02  0.76463478598E+02  0.00000000000E+00 0. -1.
         -2    1    1    2    0  503  0.23023735699E+02 -0.25786663995E+02 -0.59303987487E+01  0.35074407691E+02  0.00000000000E+00 0.  1.
<mgrwt>
<rscale>  2 0.87492887E+02</rscale>
<asrwt>0</asrwt>
<pdfrwt beam="1">  1       21 0.23013102E-01 0.87492887E+02</pdfrwt>
<pdfrwt beam="2">  1       21 0.93747591E-02 0.87492887E+02</pdfrwt>
<totfact> 0.15895014E+06</totfact>
</mgrwt>
</event>
<event>
 5    1  0.1946229E+000  0.1104950E+03  0.7546771E-02  0.1259656E+00
         21   -1    0    0  501  502  0.00000000000E+00  0.00000000000E+00  0.34292098580E+03  0.34292098580E+03  0.00000000000E+00 0. -1.
         21   -1    0    0  502  503 -0.00000000000E+00 -0.00000000000E+00 -0.39342939184E+02  0.39342939184E+02  0.00000000000E+00 0. -1.
         24    1    1    2    0    0  0.35162685727E+02  0.82993249549E+02  0.14854898115E+03  0.19146359887E+03  0.80419002446E+02 0. -1.
          1    1    1    2  501    0 -0.34569833175E+02 -0.26144858949E+02  0.11014584312E+03  0.11836694544E+03  0.00000000000E+00 0. -1.
         -2    1    1    2    0  503 -0.59285255195E+00 -0.56848390601E+02  0.44883222349E+02  0.72433380678E+02  0.00000000000E+00 0.  1.
<mgrwt>
<rscale>  2 0.11049497E+03</rscale>
<asrwt>0</asrwt>
<pdfrwt beam="1">  1       21 0.52757073E-01 0.11049497E+03</pdfrwt>
<pdfrwt beam="2">  1       21 0.60527601E-02 0.11049497E+03</pdfrwt>
<totfact> 0.66589366E+05</totfact>
</mgrwt>
</event>
<event>
 5    1  0.1946229E+000  0.6682288E+02  0.7546771E-02  0.1371243E+00
         21   -1    0    0  501  502  0.00000000000E+00  0.00000000000E+00  0.18613356068E+02  0.18613356068E+02  0.00000000000E+00 0.  1.
         21   -1    0    0  502  503 -0.00000000000E+00 -0.00000000000E+00 -0.28732384463E+03  0.28732384463E+03  0.00000000000E+00 0. -1.
         24    1    1    2    0    0  0.20005106159E+02 -0.10905332378E+02 -0.20607750203E+03  0.22238319033E+03  0.80419002446E+02 0.  0.
          1    1    1    2  501    0 -0.15410222220E+02 -0.16323007817E+02 -0.10994024920E+02  0.24995681967E+02  0.00000000000E+00 0. -1.
         -2    1    1    2    0  503 -0.45948839394E+01  0.27228340195E+02 -0.51638961619E+02  0.58558328402E+02  0.00000000000E+00 0.  1.
<mgrwt>
<rscale>  2 0.66822876E+02</rscale>
<asrwt>0</asrwt>
<pdfrwt beam="1">  1       21 0.28635934E-02 0.66822876E+02</pdfrwt>
<pdfrwt beam="2">  1       21 0.44203666E-01 0.66822876E+02</pdfrwt>
<totfact> 0.32248400E+06</totfact>
</mgrwt>
</event>
<event>
 5    1  0.1946229E+000  0.1395765E+03  0.7546771E-02  0.1213900E+00
         21   -1    0    0  503  502  0.00000000000E+00  0.00000000000E+00  0.60449976456E+03  0.60449976456E+03  0.00000000000E+00 0. -1.
         21   -1    0    0  501  503 -0.00000000000E+00 -0.00000000000E+00 -0.40980559432E+02  0.40980559432E+02  0.00000000000E+00 0. -1.
         24    1    1    2    0    0 -0.96849322655E+02 -0.58822363894E+01  0.20391336397E+03  0.23971288652E+03  0.80419002446E+02 0. -1.
          1    1    1    2  501    0  0.11445207204E+03 -0.25399410213E+02  0.13712528117E+03  0.18040994864E+03  0.00000000000E+00 0. -1.
         -2    1    1    2    0  502 -0.17602749383E+02  0.31281646603E+02  0.22248055999E+03  0.22535748883E+03  0.00000000000E+00 0.  1.
<mgrwt>
<rscale>  2 0.13957653E+03</rscale>
<asrwt>0</asrwt>
<pdfrwt beam="1">  1       21 0.92999957E-01 0.13957653E+03</pdfrwt>
<pdfrwt beam="2">  1       21 0.63047019E-02 0.13957653E+03</pdfrwt>
<totfact> 0.17944444E+05</totfact>
</mgrwt>
</event>
<event>
 5    1  0.1946229E+000  0.6952380E+02  0.7546771E-02  0.1361720E+00
         21   -1    0    0  503  502  0.00000000000E+00  0.00000000000E+00  0.27190301400E+03  0.27190301400E+03  0.00000000000E+00 0.  1.
         21   -1    0    0  501  503 -0.00000000000E+00 -0.00000000000E+00 -0.27548066486E+02  0.27548066486E+02  0.00000000000E+00 0. -1.
         24    1    1    2    0    0 -0.18234882120E+02  0.41192750160E+02  0.16994264008E+03  0.19333150406E+03  0.80419002446E+02 0.  1.
          1    1    1    2  501    0  0.30055077934E+01 -0.22773243756E+02 -0.47253263624E+01  0.23451703936E+02  0.00000000000E+00 0. -1.
         -2    1    1    2    0  502  0.15229374326E+02 -0.18419506404E+02  0.79137633795E+02  0.82667872485E+02  0.00000000000E+00 0.  1.
<mgrwt>
<rscale>  2 0.69523798E+02</rscale>
<asrwt>0</asrwt>
<pdfrwt beam="1">  1       21 0.41831231E-01 0.69523798E+02</pdfrwt>
<pdfrwt beam="2">  1       21 0.42381643E-02 0.69523798E+02</pdfrwt>
<totfact> 0.19072432E+06</totfact>
</mgrwt>
</event>
<event>
 5    1  0.1946229E+000  0.6654238E+02  0.7546771E-02  0.1372262E+00
         21   -1    0    0  501  502  0.00000000000E+00  0.00000000000E+00  0.74887439502E+01  0.74887439502E+01  0.00000000000E+00 0.  1.
         21   -1    0    0  502  503 -0.00000000000E+00 -0.00000000000E+00 -0.68995644142E+03  0.68995644142E+03  0.00000000000E+00 0.  1.
         24    1    1    2    0    0  0.34221679043E+02  0.23489293792E+02 -0.34530262040E+03  0.35696496445E+03  0.80419002446E+02 0.  1.
          1    1    1    2  501    0 -0.14302181070E+02 -0.15591341100E+02 -0.92983206656E+02  0.95359944530E+02  0.00000000000E+00 0. -1.
         -2    1    1    2    0  503 -0.19919497972E+02 -0.78979526922E+01 -0.24418187042E+03  0.24512027639E+03  0.00000000000E+00 0.  1.
<mgrwt>
<rscale>  2 0.66542384E+02</rscale>
<asrwt>0</asrwt>
<pdfrwt beam="1">  1       21 0.11521149E-02 0.66542384E+02</pdfrwt>
<pdfrwt beam="2">  1       21 0.10614710E+00 0.66542384E+02</pdfrwt>
<totfact> 0.20969002E+06</totfact>
</mgrwt>
</event>
<event>
 5    1  0.2911795E+000  0.8322988E+02  0.7546771E-02  0.1320128E+00
         21   -1    0    0  501  502  0.00000000000E+00  0.00000000000E+00  0.65561647962E+03  0.65561647962E+03  0.00000000000E+00 0.  1.
         21   -1    0    0  502  503 -0.00000000000E+00 -0.00000000000E+00 -0.15161037936E+03  0.15161037936E+03  0.00000000000E+00 0.  1.
         24    1    1    2    0    0  0.28926570738E+02  0.41678652694E+02  0.40414526420E+03  0.41518004181E+03  0.80419002446E+02 0.  1.
          1    1    1    2  501    0 -0.42482809977E+02 -0.23040906022E+02  0.24264680330E+03  0.24741290113E+03  0.00000000000E+00 0. -1.
         -2    1    1    2    0  503  0.13556239239E+02 -0.18637746672E+02 -0.14278596725E+03  0.14463391603E+03  0.00000000000E+00 0.  1.
<mgrwt>
<rscale>  2 0.83229882E+02</rscale>
<asrwt>0</asrwt>
<pdfrwt beam="1">  1       21 0.10086407E+00 0.83229882E+02</pdfrwt>
<pdfrwt beam="2">  1       21 0.23324674E-01 0.83229882E+02</pdfrwt>
<totfact> 0.15265633E+04</totfact>
</mgrwt>
</event>
<event>
 5    1  0.1946229E+000  0.8647550E+02  0.7546771E-02  0.1311618E+00
         21   -1    0    0  503  502  0.00000000000E+00  0.00000000000E+00  0.10820855590E+03  0.10820855590E+03  0.00000000000E+00 0. -1.
         21   -1    0    0  501  503 -0.00000000000E+00 -0.00000000000E+00 -0.16786108451E+03  0.16786108451E+03  0.00000000000E+00 0. -1.
         24    1    1    2    0    0 -0.58123195444E+02  0.31603785548E+02 -0.33058757537E+01  0.10418853046E+03  0.80419002446E+02 0.  0.
          1    1    1    2  501    0  0.21482482262E+02 -0.17530815431E+01 -0.10314339992E+03  0.10537139691E+03  0.00000000000E+00 0. -1.
         -2    1    1    2    0  502  0.36640713182E+02 -0.29850704004E+02  0.46796747070E+02  0.66509713038E+02  0.00000000000E+00 0.  1.
<mgrwt>
<rscale>  2 0.86475504E+02</rscale>
<asrwt>0</asrwt>
<pdfrwt beam="1">  1       21 0.16647470E-01 0.86475504E+02</pdfrwt>
<pdfrwt beam="2">  1       21 0.25824782E-01 0.86475504E+02</pdfrwt>
<totfact> 0.46678733E+05</totfact>
</mgrwt>
</event>
<event>
 5    1  0.1946229E+000  0.1100974E+03  0.7546771E-02  0.1260390E+00
         21   -1    0    0  503  502  0.00000000000E+00  0.00000000000E+00  0.88029744831E+01  0.88029744831E+01  0.00000000000E+00 0. -1.
         21   -1    0    0  501  503 -0.00000000000E+00 -0.00000000000E+00 -0.17433263835E+04  0.17433263835E+04  0.00000000000E+00 0. -1.
         24    1    1    2    0    0 -0.35558942501E+02  0.57664915502E+02 -0.56810026620E+03  0.57774978086E+03  0.80419002446E+02 0. -1.
          1    1    1    2  501    0  0.61509497705E+02 -0.63540727543E+02 -0.10875436484E+04  0.10911333693E+04  0.00000000000E+00 0. -1.
         -2    1    1    2    0  502 -0.25950555204E+02  0.58758120409E+01 -0.78879494454E+02  0.83246207888E+02  0.00000000000E+00 0.  1.
<mgrwt>
<rscale>  2 0.11009738E+03</rscale>
<asrwt>0</asrwt>
<pdfrwt beam="1">  1       21 0.13543047E-02 0.11009738E+03</pdfrwt>
<pdfrwt beam="2">  1       21 0.26820388E+00 0.11009738E+03</pdfrwt>
<totfact> 0.12899914E+05</totfact>
</mgrwt>
</event>
<event>
 5    1  0.1946229E+000  0.8818010E+02  0.7546771E-02  0.1307320E+00
         21   -1    0    0  501  502  0.00000000000E+00  0.00000000000E+00  0.23192107866E+03  0.23192107866E+03  0.00000000000E+00 0.  1.
         21   -1    0    0  502  503 -0.00000000000E+00 -0.00000000000E+00 -0.36096622939E+02  0.36096622939E+02  0.00000000000E+00 0. -1.
         24    1    1    2    0    0  0.34471374191E+02  0.89717465204E+00  0.61931617652E+02  0.10719991502E+03  0.80419002446E+02 0.  0.
          1    1    1    2  501    0 -0.55354090221E+02 -0.21632846867E+02  0.94745453751E+02  0.11184255172E+03  0.00000000000E+00 0. -1.
         -2    1    1    2    0  503  0.20882716030E+02  0.20735672214E+02  0.39147384316E+02  0.48975234862E+02  0.00000000000E+00 0.  1.
<mgrwt>
<rscale>  2 0.88180096E+02</rscale>
<asrwt>0</asrwt>
<pdfrwt beam="1">  1       21 0.35680165E-01 0.88180096E+02</pdfrwt>
<pdfrwt beam="2">  1       21 0.55533267E-02 0.88180096E+02</pdfrwt>
<totfact> 0.16811933E+06</totfact>
</mgrwt>
</event>
<event>
 5    1  0.1946229E+000  0.1216457E+03  0.7546771E-02  0.1240407E+00
         21   -1    0    0  503  502  0.00000000000E+00  0.00000000000E+00  0.51342167510E+03  0.51342167510E+03  0.00000000000E+00 0. -1.
         21   -1    0    0  501  503 -0.00000000000E+00 -0.00000000000E+00 -0.30632491905E+02  0.30632491905E+02  0.00000000000E+00 0.  1.
         24    1    1    2    0    0  0.67023938432E+02 -0.51992389007E+02  0.22245835808E+03  0.25129734155E+03  0.80419002446E+02 0.  1.
          1    1    1    2  501    0 -0.36372763179E+01  0.62108822745E+02  0.80013552053E+02  0.10135533609E+03  0.00000000000E+00 0. -1.
         -2    1    1    2    0  502 -0.63386662114E+02 -0.10116433739E+02  0.18031727307E+03  0.19140148937E+03  0.00000000000E+00 0.  1.
<mgrwt>
<rscale>  2 0.12164569E+03</rscale>
<asrwt>0</asrwt>
<pdfrwt beam="1">  1       21 0.78987944E-01 0.12164569E+03</pdfrwt>
<pdfrwt beam="2">  1       21 0.47126914E-02 0.12164569E+03</pdfrwt>
<totfact> 0.42632587E+05</totfact>
</mgrwt>
</event>
<event>
 5    1  0.1946229E+000  0.8858030E+02  0.7546771E-02  0.1306327E+00
         21   -1    0    0  501  502  0.00000000000E+00  0.00000000000E+00  0.61970409250E+03  0.61970409250E+03  0.00000000000E+00 0. -1.
         21   -1    0    0  502  503 -0.00000000000E+00 -0.00000000000E+00 -0.34904846527E+02  0.34904846527E+02  0.00000000000E+00 0. -1.
         24    1    1    2    0    0  0.43668578271E+02 -0.12951765924E+02  0.55534121927E+02  0.10782368766E+03  0.80419002446E+02 0. -1.
          1    1    1    2  501    0  0.13891296692E+02 -0.15260459127E+02  0.41698476108E+03  0.41749507867E+03  0.00000000000E+00 0. -1.
         -2    1    1    2    0  503 -0.57559874964E+02  0.28212225051E+02  0.11228036296E+03  0.12929017269E+03  0.00000000000E+00 0.  1.
<mgrwt>
<rscale>  2 0.88580297E+02</rscale>
<asrwt>0</asrwt>
<pdfrwt beam="1">  1       21 0.95339083E-01 0.88580297E+02</pdfrwt>
<pdfrwt beam="2">  1       21 0.53699768E-02 0.88580297E+02</pdfrwt>
<totfact> 0.22597715E+05</totfact>
</mgrwt>
</event>
<event>
 5    1  0.1946229E+000  0.1355674E+03  0.7546771E-02  0.1219421E+00
         21   -1    0    0  501  502  0.00000000000E+00  0.00000000000E+00  0.35119407457E+03  0.35119407457E+03  0.00000000000E+00 0. -1.
         21   -1    0    0  502  503 -0.00000000000E+00 -0.00000000000E+00 -0.26661994356E+03  0.26661994356E+03  0.00000000000E+00 0.  1.
         24    1    1    2    0    0  0.34433766618E+02 -0.19147012500E+02 -0.11440213149E+03  0.14528370871E+03  0.80419002446E+02 0.  0.
          1    1    1    2  501    0 -0.82522039834E+02  0.72436344573E+02  0.31639657005E+03  0.33490849588E+03  0.00000000000E+00 0. -1.
         -2    1    1    2    0  503  0.48088273217E+02 -0.53289332073E+02 -0.11742030755E+03  0.13762181353E+03  0.00000000000E+00 0.  1.
<mgrwt>
<rscale>  2 0.13556737E+03</rscale>
<asrwt>0</asrwt>
<pdfrwt beam="1">  1       21 0.54029858E-01 0.13556737E+03</pdfrwt>
<pdfrwt beam="2">  1       21 0.41018453E-01 0.13556737E+03</pdfrwt>
<totfact> 0.19239386E+04</totfact>
</mgrwt>
</event>
<event>
 5    1  0.1946229E+000  0.1003928E+03  0.7546771E-02  0.1279472E+00
         21   -1    0    0  503  502  0.00000000000E+00  0.00000000000E+00  0.54408715264E+02  0.54408715264E+02  0.00000000000E+00 0. -1.
         21   -1    0    0  501  503 -0.00000000000E+00 -0.00000000000E+00 -0.25240471280E+03  0.25240471280E+03  0.00000000000E+00 0. -1.
         24    1    1    2    0    0 -0.93201934660E+01 -0.81745215637E+02 -0.70502582420E+02  0.13493322930E+03  0.80419002446E+02 0. -1.
          1    1    1    2  501    0  0.17535281023E+02  0.59117558762E+02 -0.13351411652E+03  0.14706594148E+03  0.00000000000E+00 0. -1.
         -2    1    1    2    0  502 -0.82150875568E+01  0.22627656876E+02  0.60207014031E+01  0.24814257285E+02  0.00000000000E+00 0.  1.
<mgrwt>
<rscale>  2 0.10039277E+03</rscale>
<asrwt>0</asrwt>
<pdfrwt beam="1">  1       21 0.83705714E-02 0.10039277E+03</pdfrwt>
<pdfrwt beam="2">  1       21 0.38831495E-01 0.10039277E+03</pdfrwt>
<totfact> 0.71222310E+05</totfact>
</mgrwt>
</event>
<event>
 5    1  0.1946229E+000  0.1175842E+03  0.7546771E-02  0.1247136E+00
         21   -1    0    0  501  502  0.00000000000E+00  0.00000000000E+00  0.13963026186E+04  0.13963026186E+04  0.00000000000E+00 0.  1.
         21   -1    0    0  502  503 -0.00000000000E+00 -0.00000000000E+00 -0.12356821207E+02  0.12356821207E+02  0.00000000000E+00 0. -1.
         24    1    1    2    0    0  0.86057861498E+02 -0.29261218790E+01  0.10066870901E+04  0.10135584004E+04  0.80419002446E+02 0.  1.
          1    1    1    2  501    0 -0.74862837884E+02  0.35536576735E+02  0.27125841080E+03  0.28363430365E+03  0.00000000000E+00 0. -1.
         -2    1    1    2    0  503 -0.11195023614E+02 -0.32610454856E+02  0.10600029653E+03  0.11146673577E+03  0.00000000000E+00 0.  1.
<mgrwt>
<rscale>  2 0.11758422E+03</rscale>
<asrwt>0</asrwt>
<pdfrwt beam="1">  1       21 0.21481566E+00 0.11758422E+03</pdfrwt>
<pdfrwt beam="2">  1       21 0.19010505E-02 0.11758422E+03</pdfrwt>
<totfact> 0.15163505E+05</totfact>
</mgrwt>
</event>
<event>
 5    1  0.1946229E+000  0.6948695E+02  0.7546771E-02  0.1361846E+00
         21   -1    0    0  503  502  0.00000000000E+00  0.00000000000E+00  0.10594759945E+02  0.10594759945E+02  0.00000000000E+00 0. -1.
         21   -1    0    0  501  503 -0.00000000000E+00 -0.00000000000E+00 -0.90080269565E+03  0.90080269565E+03  0.00000000000E+00 0. -1.
         24    1    1    2    0    0  0.26441776152E+02  0.18082590070E+02 -0.18628295545E+03  0.20541349282E+03  0.80419002446E+02 0. -1.
          1    1    1    2  501    0 -0.15828276063E+02  0.12416111833E+02 -0.35435873001E+03  0.35492929393E+03  0.00000000000E+00 0. -1.
         -2    1    1    2    0  502 -0.10613500090E+02 -0.30498701903E+02 -0.34956625025E+03  0.35105466884E+03  0.00000000000E+00 0.  1.
<mgrwt>
<rscale>  2 0.69486954E+02</rscale>
<asrwt>0</asrwt>
<pdfrwt beam="1">  1       21 0.16299640E-02 0.69486954E+02</pdfrwt>
<pdfrwt beam="2">  1       21 0.13858496E+00 0.69486954E+02</pdfrwt>
<totfact> 0.64469650E+05</totfact>
</mgrwt>
</event>
<event>
 5    1  0.1946229E+000  0.7540666E+02  0.7546771E-02  0.1342616E+00
         21   -1    0    0  501  502  0.00000000000E+00  0.00000000000E+00  0.44962195154E+02  0.44962195154E+02  0.00000000000E+00 0.  1.
         21   -1    0    0  502  503 -0.00000000000E+00 -0.00000000000E+00 -0.13028919435E+03  0.13028919435E+03  0.00000000000E+00 0.  1.
         24    1    1    2    0    0 -0.93082211470E+01  0.43582113902E+02 -0.62552775165E+02  0.11120300926E+03  0.80419002446E+02 0.  1.
          1    1    1    2  501    0 -0.14366949690E+02 -0.24759789249E+02 -0.52836902890E+01  0.29109685504E+02  0.00000000000E+00 0. -1.
         -2    1    1    2    0  503  0.23675170837E+02 -0.18822324653E+02 -0.17490533739E+02  0.34938694738E+02  0.00000000000E+00 0.  1.
<mgrwt>
<rscale>  2 0.75406657E+02</rscale>
<asrwt>0</asrwt>
<pdfrwt beam="1">  1       21 0.69172608E-02 0.75406657E+02</pdfrwt>
<pdfrwt beam="2">  1       21 0.20044491E-01 0.75406657E+02</pdfrwt>
<totfact> 0.34153416E+06</totfact>
</mgrwt>
</event>
<event>
 5    1  0.1946229E+000  0.1097094E+03  0.7546771E-02  0.1261109E+00
         21   -1    0    0  503  502  0.00000000000E+00  0.00000000000E+00  0.70432212236E+01  0.70432212236E+01  0.00000000000E+00 0.  1.
         21   -1    0    0  501  503 -0.00000000000E+00 -0.00000000000E+00 -0.33300472577E+04  0.33300472577E+04  0.00000000000E+00 0.  1.
         24    1    1    2    0    0  0.57225378478E+02  0.55211242730E+02 -0.26397305444E+04  0.26421520752E+04  0.80419002446E+02 0.  1.
          1    1    1    2  501    0 -0.34204547592E+02 -0.70726789224E+02 -0.62986496179E+03  0.63474569702E+03  0.00000000000E+00 0. -1.
         -2    1    1    2    0  502 -0.23020830886E+02  0.15515546495E+02 -0.53408530225E+02  0.60192706688E+02  0.00000000000E+00 0.  1.
<mgrwt>
<rscale>  2 0.10970940E+03</rscale>
<asrwt>0</asrwt>
<pdfrwt beam="1">  1       21 0.10835711E-02 0.10970940E+03</pdfrwt>
<pdfrwt beam="2">  1       21 0.51231564E+00 0.10970940E+03</pdfrwt>
<totfact> 0.59533595E+03</totfact>
</mgrwt>
</event>
<event>
 5    1  0.1946229E+000  0.7325986E+02  0.7546771E-02  0.1349346E+00
         21   -1    0    0  501  502  0.00000000000E+00  0.00000000000E+00  0.17898281278E+04  0.17898281278E+04  0.00000000000E+00 0. -1.
         21   -1    0    0  502  503 -0.00000000000E+00 -0.00000000000E+00 -0.66463223329E+01  0.66463223329E+01  0.00000000000E+00 0.  1.
         24    1    1    2    0    0  0.39930145296E+01  0.24984954015E+02  0.87972418875E+03  0.88375452265E+03  0.80419002446E+02 0. -1.
          1    1    1    2  501    0 -0.24209791003E+02 -0.32603938737E+02  0.87958747230E+03  0.88052441888E+03  0.00000000000E+00 0. -1.
         -2    1    1    2    0  503  0.20216776473E+02  0.76189847221E+01  0.23870144382E+02  0.32195508568E+02  0.00000000000E+00 0.  1.
<mgrwt>
<rscale>  2 0.73259864E+02</rscale>
<asrwt>0</asrwt>
<pdfrwt beam="1">  1       21 0.27535779E+00 0.73259864E+02</pdfrwt>
<pdfrwt beam="2">  1       21 0.10225126E-02 0.73259864E+02</pdfrwt>
<totfact> 0.19192680E+05</totfact>
</mgrwt>
</event>
<event>
 5    1  0.1946229E+000  0.1173668E+03  0.7546771E-02  0.1247505E+00
         21   -1    0    0  503  502  0.00000000000E+00  0.00000000000E+00  0.28899699005E+03  0.28899699005E+03  0.00000000000E+00 0.  1.
         21   -1    0    0  501  503 -0.00000000000E+00 -0.00000000000E+00 -0.15548681424E+03  0.15548681424E+03  0.00000000000E+00 0.  1.
         24    1    1    2    0    0 -0.99989393200E+01  0.10526030414E+02 -0.99172261772E+02  0.12850342238E+03  0.80419002446E+02 0.  1.
          1    1    1    2  501    0 -0.71322732780E+02 -0.56836716722E+01  0.22641012803E+01  0.71584652611E+02  0.00000000000E+00 0. -1.
         -2    1    1    2    0  502  0.81321672100E+02 -0.48423587419E+01  0.23041833631E+03  0.24439572930E+03  0.00000000000E+00 0.  1.
<mgrwt>
<rscale>  2 0.11736677E+03</rscale>
<asrwt>0</asrwt>
<pdfrwt beam="1">  1       21 0.44461075E-01 0.11736677E+03</pdfrwt>
<pdfrwt beam="2">  1       21 0.23921048E-01 0.11736677E+03</pdfrwt>
<totfact> 0.82629705E+04</totfact>
</mgrwt>
</event>
<event>
 5    1  0.1946229E+000  0.7094961E+02  0.7546771E-02  0.1356893E+00
         21   -1    0    0  503  502  0.00000000000E+00  0.00000000000E+00  0.92072520255E+03  0.92072520255E+03  0.00000000000E+00 0.  1.
         21   -1    0    0  501  503 -0.00000000000E+00 -0.00000000000E+00 -0.31303319049E+02  0.31303319049E+02  0.00000000000E+00 0.  1.
         24    1    1    2    0    0  0.37076556024E+02 -0.22639163330E+02  0.44187692670E+02  0.10152325281E+03  0.80419002446E+02 0.  1.
          1    1    1    2  501    0 -0.13672700155E+02  0.23376294942E+02  0.72125732427E+02  0.77042294702E+02  0.00000000000E+00 0. -1.
         -2    1    1    2    0  502 -0.23403855868E+02 -0.73713161203E+00  0.77310845840E+03  0.77346297409E+03  0.00000000000E+00 0.  1.
<mgrwt>
<rscale>  2 0.70949608E+02</rscale>
<asrwt>0</asrwt>
<pdfrwt beam="1">  1       21 0.14165001E+00 0.70949608E+02</pdfrwt>
<pdfrwt beam="2">  1       21 0.48158960E-02 0.70949608E+02</pdfrwt>
<totfact> 0.10651121E+05</totfact>
</mgrwt>
</event>
<event>
 5    1  0.1946229E+000  0.7370557E+02  0.7546771E-02  0.1347927E+00
         21   -1    0    0  501  502  0.00000000000E+00  0.00000000000E+00  0.70263865181E+03  0.70263865181E+03  0.00000000000E+00 0.  1.
         21   -1    0    0  502  503 -0.00000000000E+00 -0.00000000000E+00 -0.97226861047E+01  0.97226861047E+01  0.00000000000E+00 0. -1.
         24    1    1    2    0    0 -0.40228500182E+02 -0.14456951454E+01  0.39775520630E+03  0.40779509849E+03  0.80419002446E+02 0.  0.
          1    1    1    2  501    0  0.32148400796E+02 -0.17700029678E+02  0.26730756698E+03  0.26981502199E+03  0.00000000000E+00 0. -1.
         -2    1    1    2    0  503  0.80800993856E+01  0.19145724823E+02  0.27853192429E+02  0.34751217441E+02  0.00000000000E+00 0.  1.
<mgrwt>
<rscale>  2 0.73705570E+02</rscale>
<asrwt>0</asrwt>
<pdfrwt beam="1">  1       21 0.10809821E+00 0.73705570E+02</pdfrwt>
<pdfrwt beam="2">  1       21 0.14957984E-02 0.73705570E+02</pdfrwt>
<totfact> 0.13392385E+06</totfact>
</mgrwt>
</event>
<event>
 5    1  0.1946229E+000  0.9135371E+02  0.7546771E-02  0.1299606E+00
         21   -1    0    0  501  502  0.00000000000E+00  0.00000000000E+00  0.19428664814E+02  0.19428664814E+02  0.00000000000E+00 0. -1.
         21   -1    0    0  502  503 -0.00000000000E+00 -0.00000000000E+00 -0.79663258466E+03  0.79663258466E+03  0.00000000000E+00 0. -1.
         24    1    1    2    0    0 -0.71773357543E+02 -0.39693911043E+01 -0.48969950271E+03  0.50143792221E+03  0.80419002446E+02 0. -1.
          1    1    1    2  501    0  0.49659703381E+02 -0.70156350170E+01 -0.35580128990E+02  0.61491876322E+02  0.00000000000E+00 0. -1.
         -2    1    1    2    0  503  0.22113654162E+02  0.10985026121E+02 -0.25192428815E+03  0.25313145095E+03  0.00000000000E+00 0.  1.
<mgrwt>
<rscale>  2 0.91353712E+02</rscale>
<asrwt>0</asrwt>
<pdfrwt beam="1">  1       21 0.29890253E-02 0.91353712E+02</pdfrwt>
<pdfrwt beam="2">  1       21 0.12255886E+00 0.91353712E+02</pdfrwt>
<totfact> 0.32824672E+05</totfact>
</mgrwt>
</event>
<event>
 5    1  0.1946229E+000  0.1059670E+03  0.7546771E-02  0.1268226E+00
         21   -1    0    0  503  502  0.00000000000E+00  0.00000000000E+00  0.11600544518E+03  0.11600544518E+03  0.00000000000E+00 0.  1.
         21   -1    0    0  501  503 -0.00000000000E+00 -0.00000000000E+00 -0.27919263248E+03  0.27919263248E+03  0.00000000000E+00 0. -1.
         24    1    1    2    0    0  0.23527065107E+02 -0.83572402532E+02  0.29599973521E+02  0.12198870294E+03  0.80419002446E+02 0.  1.
          1    1    1    2  501    0 -0.28527052369E+02  0.36849743054E+02 -0.21587963590E+03  0.22085224354E+03  0.00000000000E+00 0. -1.
         -2    1    1    2    0  502  0.49999872627E+01  0.46722659478E+02  0.23092475073E+02  0.52357131189E+02  0.00000000000E+00 0.  1.
<mgrwt>
<rscale>  2 0.10596699E+03</rscale>
<asrwt>0</asrwt>
<pdfrwt beam="1">  1       21 0.17846992E-01 0.10596699E+03</pdfrwt>
<pdfrwt beam="2">  1       21 0.42952713E-01 0.10596699E+03</pdfrwt>
<totfact> 0.15293112E+05</totfact>
</mgrwt>
</event>
<event>
 5    1  0.1946229E+000  0.7969364E+02  0.7546771E-02  0.1329923E+00
         21   -1    0    0  501  502  0.00000000000E+00  0.00000000000E+00  0.27723213927E+02  0.27723213927E+02  0.00000000000E+00 0.  1.
         21   -1    0    0  502  503 -0.00000000000E+00 -0.00000000000E+00 -0.23203742063E+03  0.23203742063E+03  0.00000000000E+00 0. -1.
         24    1    1    2    0    0 -0.66329484421E+01  0.39851999646E+02 -0.11296851734E+03  0.14443434406E+03  0.80419002446E+02 0.  0.
          1    1    1    2  501    0 -0.18936255317E+02 -0.39516370897E+02 -0.47946147095E+02  0.64953509186E+02  0.00000000000E+00 0. -1.
         -2    1    1    2    0  503  0.25569203759E+02 -0.33562874874E+00 -0.43399542270E+02  0.50372781309E+02  0.00000000000E+00 0.  1.
<mgrwt>
<rscale>  2 0.79693637E+02</rscale>
<asrwt>0</asrwt>
<pdfrwt beam="1">  1       21 0.42651100E-02 0.79693637E+02</pdfrwt>
<pdfrwt beam="2">  1       21 0.35698063E-01 0.79693637E+02</pdfrwt>
<totfact> 0.25913431E+06</totfact>
</mgrwt>
</event>
<event>
 5    1  0.1946229E+000  0.8626367E+02  0.7546771E-02  0.1312161E+00
         21   -1    0    0  501  502  0.00000000000E+00  0.00000000000E+00  0.30035306374E+03  0.30035306374E+03  0.00000000000E+00 0. -1.
         21   -1    0    0  502  503 -0.00000000000E+00 -0.00000000000E+00 -0.26077066910E+02  0.26077066910E+02  0.00000000000E+00 0.  1.
         24    1    1    2    0    0 -0.36788957804E+02  0.11883901455E+02  0.11763191021E+03  0.14764530735E+03  0.80419002446E+02 0.  0.
          1    1    1    2  501    0 -0.92928752764E+01  0.23453076873E+02  0.70656747727E+02  0.75025198067E+02  0.00000000000E+00 0. -1.
         -2    1    1    2    0  503  0.46081833080E+02 -0.35336978328E+02  0.85987338894E+02  0.10375962523E+03  0.00000000000E+00 0.  1.
<mgrwt>
<rscale>  2 0.86263669E+02</rscale>
<asrwt>0</asrwt>
<pdfrwt beam="1">  1       21 0.46208161E-01 0.86263669E+02</pdfrwt>
<pdfrwt beam="2">  1       21 0.40118567E-02 0.86263669E+02</pdfrwt>
<totfact> 0.17256756E+06</totfact>
</mgrwt>
</event>
<event>
 5    1  0.1946229E+000  0.9558954E+02  0.7546771E-02  0.1289854E+00
         21   -1    0    0  501  502  0.00000000000E+00  0.00000000000E+00  0.19220954303E+03  0.19220954303E+03  0.00000000000E+00 0.  1.
         21   -1    0    0  502  503 -0.00000000000E+00 -0.00000000000E+00 -0.55982775132E+02  0.55982775132E+02  0.00000000000E+00 0.  1.
         24    1    1    2    0    0  0.57734889158E+02 -0.41775240885E+02  0.64104438707E+02  0.12512027491E+03  0.80419002446E+02 0.  1.
          1    1    1    2  501    0 -0.39159397215E+02  0.12851866892E+01  0.67810944740E+02  0.78316245579E+02  0.00000000000E+00 0. -1.
         -2    1    1    2    0  503 -0.18575491943E+02  0.40490054196E+02  0.43113844544E+01  0.44755797676E+02  0.00000000000E+00 0.  1.
<mgrwt>
<rscale>  2 0.95589536E+02</rscale>
<asrwt>0</asrwt>
<pdfrwt beam="1">  1       21 0.29570699E-01 0.95589536E+02</pdfrwt>
<pdfrwt beam="2">  1       21 0.86127347E-02 0.95589536E+02</pdfrwt>
<totfact> 0.11504581E+06</totfact>
</mgrwt>
</event>
<event>
 5    1  0.1946229E+000  0.1600025E+03  0.7546771E-02  0.1188694E+00
         21   -1    0    0  501  502  0.00000000000E+00  0.00000000000E+00  0.97226658485E+03  0.97226658485E+03  0.00000000000E+00 0. -1.
         21   -1    0    0  502  503 -0.00000000000E+00 -0.00000000000E+00 -0.18037817740E+03  0.18037817740E+03  0.00000000000E+00 0.  1.
         24    1    1    2    0    0 -0.47004643649E+02 -0.55587819359E+02  0.13184602857E+02  0.10927255782E+03  0.80419002446E+02 0.  0.
          1    1    1    2  501    0 -0.43265757638E+02 -0.54229389964E+02  0.87107974759E+03  0.87383790212E+03  0.00000000000E+00 0. -1.
         -2    1    1    2    0  503  0.90270401287E+02  0.10981720932E+03 -0.92375942997E+02  0.16953430230E+03  0.00000000000E+00 0.  1.
<mgrwt>
<rscale>  2 0.16000253E+03</rscale>
<asrwt>0</asrwt>
<pdfrwt beam="1">  1       21 0.14957947E+00 0.16000253E+03</pdfrwt>
<pdfrwt beam="2">  1       21 0.27750489E-01 0.16000253E+03</pdfrwt>
<totfact> 0.38491641E+03</totfact>
</mgrwt>
</event>
<event>
 5    1  0.1946229E+000  0.8853160E+02  0.7546771E-02  0.1306447E+00
         21   -1    0    0  501  502  0.00000000000E+00  0.00000000000E+00  0.18641442975E+04  0.18641442975E+04  0.00000000000E+00 0. -1.
         21   -1    0    0  502  503 -0.00000000000E+00 -0.00000000000E+00 -0.10177229549E+02  0.10177229549E+02  0.00000000000E+00 0.  1.
         24    1    1    2    0    0 -0.47623112874E+02  0.51618740932E+02  0.11007295639E+04  0.11058956750E+04  0.80419002446E+02 0. -1.
          1    1    1    2  501    0  0.32431004933E+02 -0.33080306487E+02  0.73919860067E+03  0.74064880206E+03  0.00000000000E+00 0. -1.
         -2    1    1    2    0  503  0.15192107941E+02 -0.18538434445E+02  0.14038903382E+02  0.27777049943E+02  0.00000000000E+00 0.  1.
<mgrwt>
<rscale>  2 0.88531596E+02</rscale>
<asrwt>0</asrwt>
<pdfrwt beam="1">  1       21 0.28679116E+00 0.88531596E+02</pdfrwt>
<pdfrwt beam="2">  1       21 0.15657291E-02 0.88531596E+02</pdfrwt>
<totfact> 0.83196590E+04</totfact>
</mgrwt>
</event>
<event>
 5    1  0.1946229E+000  0.9020007E+02  0.7546771E-02  0.1302368E+00
         21   -1    0    0  501  502  0.00000000000E+00  0.00000000000E+00  0.17358466144E+02  0.17358466144E+02  0.00000000000E+00 0. -1.
         21   -1    0    0  502  503 -0.00000000000E+00 -0.00000000000E+00 -0.58939055115E+03  0.58939055115E+03  0.00000000000E+00 0.  1.
         24    1    1    2    0    0  0.25736041524E+02 -0.73793974147E+01 -0.27637762669E+03  0.28908235475E+03  0.80419002446E+02 0.  1.
          1    1    1    2  501    0 -0.12035740695E+02 -0.42366836461E+02 -0.49913183581E+02  0.66566761833E+02  0.00000000000E+00 0. -1.
         -2    1    1    2    0  503 -0.13700300829E+02  0.49746233875E+02 -0.24574127473E+03  0.25109990071E+03  0.00000000000E+00 0.  1.
<mgrwt>
<rscale>  2 0.90200067E+02</rscale>
<asrwt>0</asrwt>
<pdfrwt beam="1">  1       21 0.26705337E-02 0.90200067E+02</pdfrwt>
<pdfrwt beam="2">  1       21 0.90675455E-01 0.90200067E+02</pdfrwt>
<totfact> 0.79757480E+05</totfact>
</mgrwt>
</event>
<event>
 5    1  0.1946229E+000  0.6973683E+02  0.7546771E-02  0.1360990E+00
         21   -1    0    0  503  502  0.00000000000E+00  0.00000000000E+00  0.10580143734E+03  0.10580143734E+03  0.00000000000E+00 0.  1.
         21   -1    0    0  501  503 -0.00000000000E+00 -0.00000000000E+00 -0.51853628129E+02  0.51853628129E+02  0.00000000000E+00 0.  1.
         24    1    1    2    0    0 -0.11382563887E+02  0.35802733442E+02  0.44551997410E+02  0.99315129312E+02  0.80419002446E+02 0.  1.
          1    1    1    2  501    0 -0.10008014026E+02 -0.24616514642E+02 -0.89292028005E+01  0.28033262395E+02  0.00000000000E+00 0. -1.
         -2    1    1    2    0  502  0.21390577913E+02 -0.11186218800E+02  0.18325014605E+02  0.30306673767E+02  0.00000000000E+00 0.  1.
<mgrwt>
<rscale>  2 0.69736831E+02</rscale>
<asrwt>0</asrwt>
<pdfrwt beam="1">  1       21 0.16277144E-01 0.69736831E+02</pdfrwt>
<pdfrwt beam="2">  1       21 0.79774813E-02 0.69736831E+02</pdfrwt>
<totfact> 0.38848834E+06</totfact>
</mgrwt>
</event>
<event>
 5    1  0.1946229E+000  0.9999374E+02  0.7546771E-02  0.1280309E+00
         21   -1    0    0  503  502  0.00000000000E+00  0.00000000000E+00  0.21776386135E+03  0.21776386135E+03  0.00000000000E+00 0.  1.
         21   -1    0    0  501  503 -0.00000000000E+00 -0.00000000000E+00 -0.41895471830E+03  0.41895471830E+03  0.00000000000E+00 0. -1.
         24    1    1    2    0    0 -0.25518768743E+01  0.81820633399E+02  0.34148290888E+01  0.11480420348E+03  0.80419002446E+02 0. -1.
          1    1    1    2  501    0 -0.94622076126E+01 -0.55504212825E+02 -0.35973297242E+03  0.36411270572E+03  0.00000000000E+00 0. -1.
         -2    1    1    2    0  502  0.12014084487E+02 -0.26316420574E+02  0.15512728638E+03  0.15780167045E+03  0.00000000000E+00 0.  1.
<mgrwt>
<rscale>  2 0.99993739E+02</rscale>
<asrwt>0</asrwt>
<pdfrwt beam="1">  1       21 0.33502133E-01 0.99993739E+02</pdfrwt>
<pdfrwt beam="2">  1       21 0.64454571E-01 0.99993739E+02</pdfrwt>
<totfact> 0.20352827E+04</totfact>
</mgrwt>
</event>
<event>
 5    1  0.1946229E+000  0.9170372E+02  0.7546771E-02  0.1298778E+00
         21   -1    0    0  503  502  0.00000000000E+00  0.00000000000E+00  0.36393605415E+03  0.36393605415E+03  0.00000000000E+00 0. -1.
         21   -1    0    0  501  503 -0.00000000000E+00 -0.00000000000E+00 -0.25924719108E+02  0.25924719108E+02  0.00000000000E+00 0.  1.
         24    1    1    2    0    0  0.27454931782E+02 -0.41108573829E+02  0.11357191043E+03  0.14768034031E+03  0.80419002446E+02 0.  1.
          1    1    1    2  501    0 -0.21896114083E+02  0.62857364000E+02  0.14349973458E+03  0.15818552983E+03  0.00000000000E+00 0. -1.
         -2    1    1    2    0  502 -0.55588176988E+01 -0.21748790171E+02  0.80939690033E+02  0.83994903124E+02  0.00000000000E+00 0.  1.
<mgrwt>
<rscale>  2 0.91703722E+02</rscale>
<asrwt>0</asrwt>
<pdfrwt beam="1">  1       21 0.55990159E-01 0.91703722E+02</pdfrwt>
<pdfrwt beam="2">  1       21 0.39884186E-02 0.91703722E+02</pdfrwt>
<totfact> 0.11781838E+06</totfact>
</mgrwt>
</event>
<event>
 5    1  0.4799588E+000  0.6349527E+02  0.7546771E-02  0.1383723E+00
         21   -1    0    0  501  502  0.00000000000E+00  0.00000000000E+00  0.39587387667E+03  0.39587387667E+03  0.00000000000E+00 0.  1.
         21   -1    0    0  502  503 -0.00000000000E+00 -0.00000000000E+00 -0.10466143778E+02  0.10466143778E+02  0.00000000000E+00 0. -1.
         24    1    1    2    0    0  0.39829499641E+01  0.87531575378E+00  0.21626299348E+03  0.23076726018E+03  0.80419002446E+02 0. -1.
          1    1    1    2  501    0  0.21227323774E+02 -0.11184223671E+01  0.91533803029E+02  0.93969608066E+02  0.00000000000E+00 0. -1.
         -2    1    1    2    0  503 -0.25210273738E+02  0.24310661333E+00  0.77610936387E+02  0.81603152204E+02  0.00000000000E+00 0.  1.
<mgrwt>
<rscale>  2 0.63495273E+02</rscale>
<asrwt>0</asrwt>
<pdfrwt beam="1">  1       21 0.60903662E-01 0.63495273E+02</pdfrwt>
<pdfrwt beam="2">  1       21 0.16101763E-02 0.63495273E+02</pdfrwt>
<totfact> 0.41858337E+06</totfact>
</mgrwt>
</event>
<event>
 5    1  0.1946229E+000  0.6952734E+02  0.7546771E-02  0.1361708E+00
         21   -1    0    0  503  502  0.00000000000E+00  0.00000000000E+00  0.14651995897E+02  0.14651995897E+02  0.00000000000E+00 0.  1.
         21   -1    0    0  501  503 -0.00000000000E+00 -0.00000000000E+00 -0.33524187325E+03  0.33524187325E+03  0.00000000000E+00 0. -1.
         24    1    1    2    0    0  0.40472968885E+02  0.18108804544E+02 -0.19001808921E+03  0.21104520889E+03  0.80419002446E+02 0.  0.
          1    1    1    2  501    0 -0.23607638592E+02 -0.16635445444E+01 -0.65660607281E+02  0.69795439169E+02  0.00000000000E+00 0. -1.
         -2    1    1    2    0  502 -0.16865330293E+02 -0.16445259999E+02 -0.64911180864E+02  0.69053221094E+02  0.00000000000E+00 0.  1.
<mgrwt>
<rscale>  2 0.69527342E+02</rscale>
<asrwt>0</asrwt>
<pdfrwt beam="1">  1       21 0.22541531E-02 0.69527342E+02</pdfrwt>
<pdfrwt beam="2">  1       21 0.51575676E-01 0.69527342E+02</pdfrwt>
<totfact> 0.34785769E+06</totfact>
</mgrwt>
</event>
<event>
 5    1  0.1946229E+000  0.8124516E+02  0.7546771E-02  0.1325555E+00
         21   -1    0    0  501  502  0.00000000000E+00  0.00000000000E+00  0.11338101680E+03  0.11338101680E+03  0.00000000000E+00 0. -1.
         21   -1    0    0  502  503 -0.00000000000E+00 -0.00000000000E+00 -0.84298559705E+02  0.84298559705E+02  0.00000000000E+00 0. -1.
         24    1    1    2    0    0  0.22897099417E+02 -0.56878812273E+02 -0.34205393134E+02  0.10675533392E+03  0.80419002446E+02 0. -1.
          1    1    1    2  501    0 -0.10078494843E+02  0.28306180240E+02  0.46578457483E+02  0.55428950915E+02  0.00000000000E+00 0. -1.
         -2    1    1    2    0  503 -0.12818604574E+02  0.28572632033E+02  0.16709392745E+02  0.35495291665E+02  0.00000000000E+00 0.  1.
<mgrwt>
<rscale>  2 0.81245163E+02</rscale>
<asrwt>0</asrwt>
<pdfrwt beam="1">  1       21 0.17443233E-01 0.81245163E+02</pdfrwt>
<pdfrwt beam="2">  1       21 0.12969009E-01 0.81245163E+02</pdfrwt>
<totfact> 0.14951267E+06</totfact>
</mgrwt>
</event>
<event>
 5    1  0.1946229E+000  0.1022986E+03  0.7546771E-02  0.1275535E+00
         21   -1    0    0  503  502  0.00000000000E+00  0.00000000000E+00  0.34655861859E+02  0.34655861859E+02  0.00000000000E+00 0. -1.
         21   -1    0    0  501  503 -0.00000000000E+00 -0.00000000000E+00 -0.43677921268E+03  0.43677921268E+03  0.00000000000E+00 0.  1.
         24    1    1    2    0    0  0.43438654579E+02  0.39805788761E+02 -0.11505379368E+03  0.15223668718E+03  0.80419002446E+02 0.  1.
          1    1    1    2  501    0 -0.58071876077E+02 -0.57649446671E+02 -0.28443562642E+03  0.29597200386E+03  0.00000000000E+00 0. -1.
         -2    1    1    2    0  502  0.14633221498E+02  0.17843657910E+02 -0.26339307191E+01  0.23226383491E+02  0.00000000000E+00 0.  1.
<mgrwt>
<rscale>  2 0.10229856E+03</rscale>
<asrwt>0</asrwt>
<pdfrwt beam="1">  1       21 0.53316714E-02 0.10229856E+03</pdfrwt>
<pdfrwt beam="2">  1       21 0.67196797E-01 0.10229856E+03</pdfrwt>
<totfact> 0.49495655E+05</totfact>
</mgrwt>
</event>
<event>
 5    1  0.1946229E+000  0.1590523E+03  0.7546771E-02  0.1189771E+00
         21   -1    0    0  501  502  0.00000000000E+00  0.00000000000E+00  0.12780973968E+04  0.12780973968E+04  0.00000000000E+00 0.  1.
         21   -1    0    0  502  503 -0.00000000000E+00 -0.00000000000E+00 -0.93580718183E+02  0.93580718183E+02  0.00000000000E+00 0.  1.
         24    1    1    2    0    0 -0.10040517063E+03  0.34656612168E+02  0.75374107770E+03  0.76542478874E+03  0.80419002446E+02 0.  1.
          1    1    1    2  501    0  0.11489178456E+03  0.29897276528E+02  0.49798735239E+03  0.51194274332E+03  0.00000000000E+00 0. -1.
         -2    1    1    2    0  503 -0.14486613926E+02 -0.64553888696E+02 -0.67211751427E+02  0.94310582962E+02  0.00000000000E+00 0.  1.
<mgrwt>
<rscale>  2 0.15905233E+03</rscale>
<asrwt>0</asrwt>
<pdfrwt beam="1">  1       21 0.19663036E+00 0.15905233E+03</pdfrwt>
<pdfrwt beam="2">  1       21 0.14397034E-01 0.15905233E+03</pdfrwt>
<totfact> 0.61622312E+03</totfact>
</mgrwt>
</event>
<event>
 5    1  0.1946229E+000  0.7373710E+02  0.7546771E-02  0.1347827E+00
         21   -1    0    0  501  502  0.00000000000E+00  0.00000000000E+00  0.35503965192E+02  0.35503965192E+02  0.00000000000E+00 0.  1.
         21   -1    0    0  502  503 -0.00000000000E+00 -0.00000000000E+00 -0.25098170407E+03  0.25098170407E+03  0.00000000000E+00 0.  1.
         24    1    1    2    0    0 -0.44380568913E+02 -0.17149773106E+02 -0.84495839844E+02  0.12597822240E+03  0.80419002446E+02 0.  1.
          1    1    1    2  501    0  0.21915781388E+02 -0.50082325999E+01  0.31623381496E+01  0.22702075900E+02  0.00000000000E+00 0. -1.
         -2    1    1    2    0  503  0.22464787525E+02  0.22158005706E+02 -0.13414423718E+03  0.13780537096E+03  0.00000000000E+00 0.  1.
<mgrwt>
<rscale>  2 0.73737103E+02</rscale>
<asrwt>0</asrwt>
<pdfrwt beam="1">  1       21 0.54621486E-02 0.73737103E+02</pdfrwt>
<pdfrwt beam="2">  1       21 0.38612569E-01 0.73737103E+02</pdfrwt>
<totfact> 0.14722014E+06</totfact>
</mgrwt>
</event>
<event>
 5    1  0.1946229E+000  0.6246810E+02  0.7546771E-02  0.1387757E+00
         21   -1    0    0  501  502  0.00000000000E+00  0.00000000000E+00  0.28712600664E+04  0.28712600664E+04  0.00000000000E+00 0.  1.
         21   -1    0    0  502  503 -0.00000000000E+00 -0.00000000000E+00 -0.17982528837E+01  0.17982528837E+01  0.00000000000E+00 0. -1.
         24    1    1    2    0    0 -0.46297231801E+01  0.10087897461E+02  0.15704222211E+04  0.15725191155E+04  0.80419002446E+02 0.  1.
          1    1    1    2  501    0 -0.18089804391E+02 -0.10717984085E+02  0.11008259952E+04  0.11010267880E+04  0.00000000000E+00 0. -1.
         -2    1    1    2    0  503  0.22719527571E+02  0.63008662394E+00  0.19821359719E+03  0.19951241579E+03  0.00000000000E+00 0.  1.
<mgrwt>
<rscale>  2 0.62468100E+02</rscale>
<asrwt>0</asrwt>
<pdfrwt beam="1">  1       21 0.44172865E+00 0.62468100E+02</pdfrwt>
<pdfrwt beam="2">  1       21 0.27665659E-03 0.62468100E+02</pdfrwt>
<totfact> 0.16482088E+05</totfact>
</mgrwt>
</event>
<event>
 5    1  0.1946229E+000  0.1111644E+03  0.7546771E-02  0.1258429E+00
         21   -1    0    0  501  502  0.00000000000E+00  0.00000000000E+00  0.76023394511E+02  0.76023394511E+02  0.00000000000E+00 0.  1.
         21   -1    0    0  502  503 -0.00000000000E+00 -0.00000000000E+00 -0.40197360355E+03  0.40197360355E+03  0.00000000000E+00 0.  1.
         24    1    1    2    0    0  0.73214844894E+02 -0.32232620253E+02 -0.11114997465E+02  0.11397418324E+03  0.80419002446E+02 0.  1.
          1    1    1    2  501    0 -0.74453386077E+02 -0.21582619944E+01 -0.35386492785E+02  0.82463135186E+02  0.00000000000E+00 0. -1.
         -2    1    1    2    0  503  0.12385411830E+01  0.34390882247E+02 -0.27944871879E+03  0.28155967964E+03  0.00000000000E+00 0.  1.
<mgrwt>
<rscale>  2 0.11116437E+03</rscale>
<asrwt>0</asrwt>
<pdfrwt beam="1">  1       21 0.11695907E-01 0.11116437E+03</pdfrwt>
<pdfrwt beam="2">  1       21 0.61842094E-01 0.11116437E+03</pdfrwt>
<totfact> 0.15326499E+05</totfact>
</mgrwt>
</event>
<event>
 5    1  0.1946229E+000  0.7334229E+02  0.7546771E-02  0.1349083E+00
         21   -1    0    0  501  502  0.00000000000E+00  0.00000000000E+00  0.93990164106E+02  0.93990164106E+02  0.00000000000E+00 0. -1.
         21   -1    0    0  502  503 -0.00000000000E+00 -0.00000000000E+00 -0.15323228494E+03  0.15323228494E+03  0.00000000000E+00 0. -1.
         24    1    1    2    0    0  0.50499679876E+01 -0.17179719195E+02 -0.10166642735E+03  0.13085840948E+03  0.80419002446E+02 0. -1.
          1    1    1    2  501    0 -0.94394349896E+01  0.39978931981E+02  0.69478112802E+02  0.80713233696E+02  0.00000000000E+00 0. -1.
         -2    1    1    2    0  503  0.43894670020E+01 -0.22799212786E+02 -0.27053806285E+02  0.35650805864E+02  0.00000000000E+00 0.  1.
<mgrwt>
<rscale>  2 0.73342291E+02</rscale>
<asrwt>0</asrwt>
<pdfrwt beam="1">  1       21 0.14460025E-01 0.73342291E+02</pdfrwt>
<pdfrwt beam="2">  1       21 0.23574198E-01 0.73342291E+02</pdfrwt>
<totfact> 0.71030561E+05</totfact>
</mgrwt>
</event>
<event>
 5    1  0.1946229E+000  0.7375339E+02  0.7546771E-02  0.1347775E+00
         21   -1    0    0  501  502  0.00000000000E+00  0.00000000000E+00  0.58964963573E+02  0.58964963573E+02  0.00000000000E+00 0.  1.
         21   -1    0    0  502  503 -0.00000000000E+00 -0.00000000000E+00 -0.20540269120E+03  0.20540269120E+03  0.00000000000E+00 0.  1.
         24    1    1    2    0    0 -0.34178653950E+02 -0.27107873704E+02 -0.21295420842E+02  0.93934701286E+02  0.80419002446E+02 0.  1.
          1    1    1    2  501    0  0.30084903786E+02  0.15400225892E+01  0.10833951879E+02  0.32013241302E+02  0.00000000000E+00 0. -1.
         -2    1    1    2    0  503  0.40937501643E+01  0.25567851115E+02 -0.13597625866E+03  0.13841971218E+03  0.00000000000E+00 0.  1.
<mgrwt>
<rscale>  2 0.73753391E+02</rscale>
<asrwt>0</asrwt>
<pdfrwt beam="1">  1       21 0.90715328E-02 0.73753391E+02</pdfrwt>
<pdfrwt beam="2">  1       21 0.31600414E-01 0.73753391E+02</pdfrwt>
<totfact> 0.92193513E+05</totfact>
</mgrwt>
</event>
<event>
 5    1  0.1946229E+000  0.9066159E+02  0.7546771E-02  0.1301257E+00
         21   -1    0    0  503  502  0.00000000000E+00  0.00000000000E+00  0.45387223541E+02  0.45387223541E+02  0.00000000000E+00 0. -1.
         21   -1    0    0  501  503 -0.00000000000E+00 -0.00000000000E+00 -0.23523857314E+03  0.23523857314E+03  0.00000000000E+00 0.  1.
         24    1    1    2    0    0  0.37495191277E+02 -0.13811167890E+02 -0.63615994444E+02  0.11004930000E+03  0.80419002446E+02 0. -1.
          1    1    1    2  501    0  0.22884349267E+02  0.20566360173E+02 -0.99589460967E+02  0.10423401243E+03  0.00000000000E+00 0. -1.
         -2    1    1    2    0  502 -0.60379540545E+02 -0.67551922829E+01 -0.26645894193E+02  0.66342484250E+02  0.00000000000E+00 0.  1.
<mgrwt>
<rscale>  2 0.90661595E+02</rscale>
<asrwt>0</asrwt>
<pdfrwt beam="1">  1       21 0.69826498E-02 0.90661595E+02</pdfrwt>
<pdfrwt beam="2">  1       21 0.36190550E-01 0.90661595E+02</pdfrwt>
<totfact> 0.11130405E+06</totfact>
</mgrwt>
</event>
<event>
 5    1  0.1946229E+000  0.9470014E+02  0.7546771E-02  0.1291853E+00
         21   -1    0    0  501  502  0.00000000000E+00  0.00000000000E+00  0.10098172513E+03  0.10098172513E+03  0.00000000000E+00 0.  1.
         21   -1    0    0  502  503 -0.00000000000E+00 -0.00000000000E+00 -0.12830875528E+03  0.12830875528E+03  0.00000000000E+00 0.  1.
         24    1    1    2    0    0 -0.35267196069E+01 -0.73537534903E+02  0.32459599339E+02  0.11375872861E+03  0.80419002446E+02 0.  1.
          1    1    1    2  501    0  0.17173623730E+02  0.52996954584E+02 -0.55919176967E+01  0.55989999917E+02  0.00000000000E+00 0. -1.
         -2    1    1    2    0  503 -0.13646904123E+02  0.20540580319E+02 -0.54194711794E+02  0.59541751892E+02  0.00000000000E+00 0.  1.
<mgrwt>
<rscale>  2 0.94700142E+02</rscale>
<asrwt>0</asrwt>
<pdfrwt beam="1">  1       21 0.15535650E-01 0.94700142E+02</pdfrwt>
<pdfrwt beam="2">  1       21 0.19739808E-01 0.94700142E+02</pdfrwt>
<totfact> 0.86987001E+05</totfact>
</mgrwt>
</event>
<event>
 5    1  0.1946229E+000  0.8085046E+02  0.7546771E-02  0.1326655E+00
         21   -1    0    0  503  502  0.00000000000E+00  0.00000000000E+00  0.10216948077E+02  0.10216948077E+02  0.00000000000E+00 0. -1.
         21   -1    0    0  501  503 -0.00000000000E+00 -0.00000000000E+00 -0.68363922552E+03  0.68363922552E+03  0.00000000000E+00 0.  1.
         24    1    1    2    0    0 -0.11851918203E+02  0.46795946719E+02 -0.32704659774E+03  0.34023083582E+03  0.80419002446E+02 0.  0.
          1    1    1    2  501    0  0.29819486956E+02 -0.36730041107E+02 -0.28463957622E+03  0.28854459980E+03  0.00000000000E+00 0. -1.
         -2    1    1    2    0  502 -0.17967568753E+02 -0.10065905612E+02 -0.61736103480E+02  0.65080737976E+02  0.00000000000E+00 0.  1.
<mgrwt>
<rscale>  2 0.80850463E+02</rscale>
<asrwt>0</asrwt>
<pdfrwt beam="1">  1       21 0.15718379E-02 0.80850463E+02</pdfrwt>
<pdfrwt beam="2">  1       21 0.10517529E+00 0.80850463E+02</pdfrwt>
<totfact> 0.13224608E+06</totfact>
</mgrwt>
</event>
<event>
 5    1  0.1946229E+000  0.6792341E+02  0.7546771E-02  0.1367300E+00
         21   -1    0    0  503  502  0.00000000000E+00  0.00000000000E+00  0.23399082844E+02  0.23399082844E+02  0.00000000000E+00 0. -1.
         21   -1    0    0  501  503 -0.00000000000E+00 -0.00000000000E+00 -0.22921932273E+03  0.22921932273E+03  0.00000000000E+00 0.  1.
         24    1    1    2    0    0 -0.41400680338E-01 -0.58505371869E+01 -0.16335641402E+03  0.18217234822E+03  0.80419002446E+02 0.  1.
          1    1    1    2  501    0  0.13802097433E+02 -0.20950348505E+02 -0.25930085529E+02  0.36080248496E+02  0.00000000000E+00 0. -1.
         -2    1    1    2    0  502 -0.13760696753E+02  0.26800885692E+02 -0.16533740336E+02  0.34365808859E+02  0.00000000000E+00 0.  1.
<mgrwt>
<rscale>  2 0.67923413E+02</rscale>
<asrwt>0</asrwt>
<pdfrwt beam="1">  1       21 0.35998590E-02 0.67923413E+02</pdfrwt>
<pdfrwt beam="2">  1       21 0.35264511E-01 0.67923413E+02</pdfrwt>
<totfact> 0.34698911E+06</totfact>
</mgrwt>
</event>
<event>
 5    1  0.1946229E+000  0.7882877E+02  0.7546771E-02  0.1332408E+00
         21   -1    0    0  503  502  0.00000000000E+00  0.00000000000E+00  0.40973130100E+02  0.40973130100E+02  0.00000000000E+00 0.  1.
         21   -1    0    0  501  503 -0.00000000000E+00 -0.00000000000E+00 -0.27200770716E+03  0.27200770716E+03  0.00000000000E+00 0. -1.
         24    1    1    2    0    0  0.56966655594E+00 -0.33943235748E+02 -0.22281936961E+02  0.90089779899E+02  0.80419002446E+02 0.  1.
          1    1    1    2  501    0  0.26162569930E+02 -0.12257727636E+01 -0.12983736397E+03  0.13245272238E+03  0.00000000000E+00 0. -1.
         -2    1    1    2    0  502 -0.26732236486E+02  0.35169008512E+02 -0.78915276132E+02  0.90438334982E+02  0.00000000000E+00 0.  1.
<mgrwt>
<rscale>  2 0.78828767E+02</rscale>
<asrwt>0</asrwt>
<pdfrwt beam="1">  1       21 0.63035585E-02 0.78828767E+02</pdfrwt>
<pdfrwt beam="2">  1       21 0.41847340E-01 0.78828767E+02</pdfrwt>
<totfact> 0.99088626E+05</totfact>
</mgrwt>
</event>
<event>
 5    1  0.1946229E+000  0.7469042E+02  0.7546771E-02  0.1344832E+00
         21   -1    0    0  501  502  0.00000000000E+00  0.00000000000E+00  0.58370059797E+02  0.58370059797E+02  0.00000000000E+00 0.  1.
         21   -1    0    0  502  503 -0.00000000000E+00 -0.00000000000E+00 -0.99651167869E+02  0.99651167869E+02  0.00000000000E+00 0.  1.
         24    1    1    2    0    0  0.16090244617E+02 -0.49930370878E+02 -0.35484623407E+02  0.10236362811E+03  0.80419002446E+02 0.  1.
          1    1    1    2  501    0 -0.13147417760E+02  0.24865265969E+02  0.43414470273E+01  0.28460221499E+02  0.00000000000E+00 0. -1.
         -2    1    1    2    0  503 -0.29428268573E+01  0.25065104909E+02 -0.10137931692E+02  0.27197378054E+02  0.00000000000E+00 0.  1.
<mgrwt>
<rscale>  2 0.74690417E+02</rscale>
<asrwt>0</asrwt>
<pdfrwt beam="1">  1       21 0.89800093E-02 0.74690417E+02</pdfrwt>
<pdfrwt beam="2">  1       21 0.15330949E-01 0.74690417E+02</pdfrwt>
<totfact> 0.35497851E+06</totfact>
</mgrwt>
</event>
<event>
 5    1  0.1946229E+000  0.7367891E+02  0.7546771E-02  0.1348012E+00
         21   -1    0    0  503  502  0.00000000000E+00  0.00000000000E+00  0.64850226233E+02  0.64850226233E+02  0.00000000000E+00 0. -1.
         21   -1    0    0  501  503 -0.00000000000E+00 -0.00000000000E+00 -0.12895587551E+03  0.12895587551E+03  0.00000000000E+00 0. -1.
         24    1    1    2    0    0 -0.45299002415E+02 -0.12948392325E+02  0.18396357019E+01  0.93221567770E+02  0.80419002446E+02 0. -1.
          1    1    1    2  501    0  0.21379678374E+02 -0.75293542943E+01 -0.65265484569E+02  0.69089545515E+02  0.00000000000E+00 0. -1.
         -2    1    1    2    0  502  0.23919324040E+02  0.20477746619E+02 -0.67980040694E+00  0.31494988454E+02  0.00000000000E+00 0.  1.
<mgrwt>
<rscale>  2 0.73678911E+02</rscale>
<asrwt>0</asrwt>
<pdfrwt beam="1">  1       21 0.99769580E-02 0.73678911E+02</pdfrwt>
<pdfrwt beam="2">  1       21 0.19839365E-01 0.73678911E+02</pdfrwt>
<totfact> 0.18624417E+06</totfact>
</mgrwt>
</event>
<event>
 5    1  0.1946229E+000  0.9088619E+02  0.7546771E-02  0.1300720E+00
         21   -1    0    0  503  502  0.00000000000E+00  0.00000000000E+00  0.33648594890E+02  0.33648594890E+02  0.00000000000E+00 0.  1.
         21   -1    0    0  501  503 -0.00000000000E+00 -0.00000000000E+00 -0.29229366014E+03  0.29229366014E+03  0.00000000000E+00 0.  1.
         24    1    1    2    0    0  0.34879177954E+02  0.53808144888E+02 -0.20114453244E+03  0.22591638363E+03  0.80419002446E+02 0.  1.
          1    1    1    2  501    0  0.97881725694E+01 -0.22008975748E+02 -0.30626282834E+02  0.38963733598E+02  0.00000000000E+00 0. -1.
         -2    1    1    2    0  502 -0.44667350523E+02 -0.31799169140E+02 -0.26874249985E+02  0.61062137802E+02  0.00000000000E+00 0.  1.
<mgrwt>
<rscale>  2 0.90886194E+02</rscale>
<asrwt>0</asrwt>
<pdfrwt beam="1">  1       21 0.51767068E-02 0.90886194E+02</pdfrwt>
<pdfrwt beam="2">  1       21 0.44968256E-01 0.90886194E+02</pdfrwt>
<totfact> 0.11969712E+06</totfact>
</mgrwt>
</event>
<event>
 5    1  0.1946229E+000  0.7082331E+02  0.7546771E-02  0.1357316E+00
         21   -1    0    0  501  502  0.00000000000E+00  0.00000000000E+00  0.36252578022E+02  0.36252578022E+02  0.00000000000E+00 0. -1.
         21   -1    0    0  502  503 -0.00000000000E+00 -0.00000000000E+00 -0.42589446072E+03  0.42589446072E+03  0.00000000000E+00 0. -1.
         24    1    1    2    0    0 -0.23112131939E+02 -0.41984057638E+02 -0.34817612872E+03  0.36054218103E+03  0.80419002446E+02 0. -1.
          1    1    1    2  501    0  0.11945127560E+02  0.24949265476E+02  0.21750217230E+02  0.35188405331E+02  0.00000000000E+00 0. -1.
         -2    1    1    2    0  503  0.11167004379E+02  0.17034792162E+02 -0.63215971215E+02  0.66416452386E+02  0.00000000000E+00 0.  1.
<mgrwt>
<rscale>  2 0.70823313E+02</rscale>
<asrwt>0</asrwt>
<pdfrwt beam="1">  1       21 0.55773198E-02 0.70823313E+02</pdfrwt>
<pdfrwt beam="2">  1       21 0.65522223E-01 0.70823313E+02</pdfrwt>
<totfact> 0.48507964E+05</totfact>
</mgrwt>
</event>
<event>
 5    1  0.1946229E+000  0.6673870E+02  0.7546771E-02  0.1371548E+00
         21   -1    0    0  503  502  0.00000000000E+00  0.00000000000E+00  0.26363910948E+03  0.26363910948E+03  0.00000000000E+00 0. -1.
         21   -1    0    0  501  503 -0.00000000000E+00 -0.00000000000E+00 -0.21032556149E+02  0.21032556149E+02  0.00000000000E+00 0.  1.
         24    1    1    2    0    0  0.88052107933E+01  0.54709705569E+01  0.90225665992E+02  0.12130684240E+03  0.80419002446E+02 0.  1.
          1    1    1    2  501    0  0.16223886043E+02 -0.18142933782E+02  0.34690811816E+02  0.42377269249E+02  0.00000000000E+00 0. -1.
         -2    1    1    2    0  502 -0.25029096836E+02  0.12671963225E+02  0.11769007553E+03  0.12098755398E+03  0.00000000000E+00 0.  1.
<mgrwt>
<rscale>  2 0.66738698E+02</rscale>
<asrwt>0</asrwt>
<pdfrwt beam="1">  1       21 0.40559861E-01 0.66738698E+02</pdfrwt>
<pdfrwt beam="2">  1       21 0.32357781E-02 0.66738698E+02</pdfrwt>
<totfact> 0.31381628E+06</totfact>
</mgrwt>
</event>
<event>
 5    1  0.1946229E+000  0.1410177E+03  0.7546771E-02  0.1211966E+00
         21   -1    0    0  501  502  0.00000000000E+00  0.00000000000E+00  0.34275860720E+02  0.34275860720E+02  0.00000000000E+00 0. -1.
         21   -1    0    0  502  503 -0.00000000000E+00 -0.00000000000E+00 -0.67981183638E+03  0.67981183638E+03  0.00000000000E+00 0.  1.
         24    1    1    2    0    0 -0.35607108824E+01 -0.64196988471E+02 -0.28939137095E+03  0.30716203138E+03  0.80419002446E+02 0.  1.
          1    1    1    2  501    0 -0.47543864764E+02 -0.40573971386E+02 -0.52337590301E+02  0.81522325710E+02  0.00000000000E+00 0. -1.
         -2    1    1    2    0  503  0.51104575646E+02  0.10477095986E+03 -0.30380701441E+03  0.32540334000E+03  0.00000000000E+00 0.  1.
<mgrwt>
<rscale>  2 0.14101775E+03</rscale>
<asrwt>0</asrwt>
<pdfrwt beam="1">  1       21 0.52732090E-02 0.14101775E+03</pdfrwt>
<pdfrwt beam="2">  1       21 0.10458644E+00 0.14101775E+03</pdfrwt>
<totfact> 0.18446382E+05</totfact>
</mgrwt>
</event>
<event>
 5    1  0.1946229E+000  0.1101785E+03  0.7546771E-02  0.1260240E+00
         21   -1    0    0  501  502  0.00000000000E+00  0.00000000000E+00  0.10905038089E+03  0.10905038089E+03  0.00000000000E+00 0. -1.
         21   -1    0    0  502  503 -0.00000000000E+00 -0.00000000000E+00 -0.39285570469E+03  0.39285570469E+03  0.00000000000E+00 0.  1.
         24    1    1    2    0    0 -0.62773081670E+01 -0.68506984148E+02 -0.15107815414E+03  0.18445713889E+03  0.80419002446E+02 0. -1.
          1    1    1    2  501    0  0.48145353791E+02  0.25398525575E+02  0.79795237885E+02  0.96593686037E+02  0.00000000000E+00 0. -1.
         -2    1    1    2    0  503 -0.41868045624E+02  0.43108458573E+02 -0.21252240755E+03  0.22085526065E+03  0.00000000000E+00 0.  1.
<mgrwt>
<rscale>  2 0.11017855E+03</rscale>
<asrwt>0</asrwt>
<pdfrwt beam="1">  1       21 0.16776982E-01 0.11017855E+03</pdfrwt>
<pdfrwt beam="2">  1       21 0.60439339E-01 0.11017855E+03</pdfrwt>
<totfact> 0.84517550E+04</totfact>
</mgrwt>
</event>
<event>
 5    1  0.1946229E+000  0.1264898E+03  0.7546771E-02  0.1232759E+00
         21   -1    0    0  501  502  0.00000000000E+00  0.00000000000E+00  0.83503098206E+02  0.83503098206E+02  0.00000000000E+00 0. -1.
         21   -1    0    0  502  503 -0.00000000000E+00 -0.00000000000E+00 -0.38532461054E+03  0.38532461054E+03  0.00000000000E+00 0.  1.
         24    1    1    2    0    0 -0.10043177767E+02 -0.13469909377E+02 -0.22859679282E+03  0.24291153435E+03  0.80419002446E+02 0.  1.
          1    1    1    2  501    0 -0.42842220578E+02  0.77028193766E+02  0.30500057292E+02  0.93268708546E+02  0.00000000000E+00 0. -1.
         -2    1    1    2    0  503  0.52885398345E+02 -0.63558284389E+02 -0.10372477680E+03  0.13264746585E+03  0.00000000000E+00 0.  1.
<mgrwt>
<rscale>  2 0.12648975E+03</rscale>
<asrwt>0</asrwt>
<pdfrwt beam="1">  1       21 0.12846631E-01 0.12648975E+03</pdfrwt>
<pdfrwt beam="2">  1       21 0.59280709E-01 0.12648975E+03</pdfrwt>
<totfact> 0.14121497E+05</totfact>
</mgrwt>
</event>
<event>
 5    1  0.1946229E+000  0.6143218E+02  0.7546771E-02  0.1391918E+00
         21   -1    0    0  503  502  0.00000000000E+00  0.00000000000E+00  0.41989652433E+03  0.41989652433E+03  0.00000000000E+00 0.  1.
         21   -1    0    0  501  503 -0.00000000000E+00 -0.00000000000E+00 -0.26714107130E+02  0.26714107130E+02  0.00000000000E+00 0.  1.
         24    1    1    2    0    0  0.12506759112E+01  0.15886106621E+02  0.24111394325E+03  0.25467053650E+03  0.80419002446E+02 0. -1.
          1    1    1    2  501    0  0.18150421231E+02 -0.92919989248E+01 -0.13921688816E+02  0.24689926172E+02  0.00000000000E+00 0. -1.
         -2    1    1    2    0  502 -0.19401097142E+02 -0.65941076961E+01  0.16599016276E+03  0.16725016879E+03  0.00000000000E+00 0.  1.
<mgrwt>
<rscale>  2 0.61432182E+02</rscale>
<asrwt>0</asrwt>
<pdfrwt beam="1">  1       21 0.64599460E-01 0.61432182E+02</pdfrwt>
<pdfrwt beam="2">  1       21 0.41098630E-02 0.61432182E+02</pdfrwt>
<totfact> 0.82483313E+05</totfact>
</mgrwt>
</event>
<event>
 5    1  0.1946229E+000  0.1128515E+03  0.7546771E-02  0.1255379E+00
         21   -1    0    0  501  502  0.00000000000E+00  0.00000000000E+00  0.73244009217E+03  0.73244009217E+03  0.00000000000E+00 0.  1.
         21   -1    0    0  502  503 -0.00000000000E+00 -0.00000000000E+00 -0.21079185593E+02  0.21079185593E+02  0.00000000000E+00 0.  1.
         24    1    1    2    0    0  0.79154273103E+02  0.25989647004E+02  0.27208389693E+03  0.29569870413E+03  0.80419002446E+02 0.  1.
          1    1    1    2  501    0 -0.69659052485E+01  0.22098858580E+02  0.23161758493E+03  0.23277368630E+03  0.00000000000E+00 0. -1.
         -2    1    1    2    0  503 -0.72188367855E+02 -0.48088505584E+02  0.20765942471E+03  0.22504688733E+03  0.00000000000E+00 0.  1.
<mgrwt>
<rscale>  2 0.11285153E+03</rscale>
<asrwt>0</asrwt>
<pdfrwt beam="1">  1       21 0.11268307E+00 0.11285153E+03</pdfrwt>
<pdfrwt beam="2">  1       21 0.32429522E-02 0.11285153E+03</pdfrwt>
<totfact> 0.34958283E+05</totfact>
</mgrwt>
</event>
<event>
 5    1  0.1946229E+000  0.1701004E+03  0.7546771E-02  0.1177743E+00
         21   -1    0    0  501  502  0.00000000000E+00  0.00000000000E+00  0.12142142643E+03  0.12142142643E+03  0.00000000000E+00 0. -1.
         21   -1    0    0  502  503 -0.00000000000E+00 -0.00000000000E+00 -0.14112004790E+04  0.14112004790E+04  0.00000000000E+00 0. -1.
         24    1    1    2    0    0 -0.99656858083E+02 -0.12563305035E+03 -0.85517232671E+03  0.87378605907E+03  0.80419002446E+02 0. -1.
          1    1    1    2  501    0  0.68964908157E+02  0.95468728118E+02  0.80037634521E+02  0.14239543372E+03  0.00000000000E+00 0. -1.
         -2    1    1    2    0  503  0.30691949925E+02  0.30164322228E+02 -0.51464436036E+03  0.51644041261E+03  0.00000000000E+00 0.  1.
<mgrwt>
<rscale>  2 0.17010038E+03</rscale>
<asrwt>0</asrwt>
<pdfrwt beam="1">  1       21 0.18680220E-01 0.17010038E+03</pdfrwt>
<pdfrwt beam="2">  1       21 0.21710776E+00 0.17010038E+03</pdfrwt>
<totfact> 0.28154138E+03</totfact>
</mgrwt>
</event>
<event>
 5    1  0.1946229E+000  0.8889612E+02  0.7546771E-02  0.1305547E+00
         21   -1    0    0  501  502  0.00000000000E+00  0.00000000000E+00  0.19761724224E+03  0.19761724224E+03  0.00000000000E+00 0.  1.
         21   -1    0    0  502  503 -0.00000000000E+00 -0.00000000000E+00 -0.56350303508E+02  0.56350303508E+02  0.00000000000E+00 0.  1.
         24    1    1    2    0    0 -0.18688220587E+02 -0.19738875013E+01  0.86231539256E+02  0.11939949806E+03  0.80419002446E+02 0.  1.
          1    1    1    2  501    0 -0.38210021382E+02  0.26828531131E+01  0.66292061739E+02  0.76562659858E+02  0.00000000000E+00 0. -1.
         -2    1    1    2    0  503  0.56898241969E+02 -0.70896561186E+00 -0.11256662266E+02  0.58005387825E+02  0.00000000000E+00 0.  1.
<mgrwt>
<rscale>  2 0.88896116E+02</rscale>
<asrwt>0</asrwt>
<pdfrwt beam="1">  1       21 0.30402652E-01 0.88896116E+02</pdfrwt>
<pdfrwt beam="2">  1       21 0.86692775E-02 0.88896116E+02</pdfrwt>
<totfact> 0.10772725E+06</totfact>
</mgrwt>
</event>
<event>
 5    1  0.1946229E+000  0.1227784E+03  0.7546771E-02  0.1238583E+00
         21   -1    0    0  501  502  0.00000000000E+00  0.00000000000E+00  0.99312353158E+02  0.99312353158E+02  0.00000000000E+00 0. -1.
         21   -1    0    0  502  503 -0.00000000000E+00 -0.00000000000E+00 -0.26062094632E+03  0.26062094632E+03  0.00000000000E+00 0.  1.
         24    1    1    2    0    0  0.35988455520E+02  0.63820974087E+00 -0.46702251624E+02  0.99719067903E+02  0.80419002446E+02 0. -1.
          1    1    1    2  501    0 -0.82225552262E+02 -0.44691786482E+02  0.33120228488E+02  0.99274099134E+02  0.00000000000E+00 0. -1.
         -2    1    1    2    0  503  0.46237096743E+02  0.44053576741E+02 -0.14772657003E+03  0.16094013244E+03  0.00000000000E+00 0.  1.
<mgrwt>
<rscale>  2 0.12277842E+03</rscale>
<asrwt>0</asrwt>
<pdfrwt beam="1">  1       21 0.15278824E-01 0.12277842E+03</pdfrwt>
<pdfrwt beam="2">  1       21 0.40095530E-01 0.12277842E+03</pdfrwt>
<totfact> 0.23141300E+05</totfact>
</mgrwt>
</event>
<event>
 5    1  0.1946229E+000  0.7608275E+02  0.7546771E-02  0.1340551E+00
         21   -1    0    0  501  502  0.00000000000E+00  0.00000000000E+00  0.21217812475E+03  0.21217812475E+03  0.00000000000E+00 0.  1.
         21   -1    0    0  502  503 -0.00000000000E+00 -0.00000000000E+00 -0.27849741348E+02  0.27849741348E+02  0.00000000000E+00 0.  1.
         24    1    1    2    0    0  0.30776778728E+02 -0.11030119768E+02  0.10313699152E+03  0.13480848870E+03  0.80419002446E+02 0.  0.
          1    1    1    2  501    0  0.92312209337E+00 -0.20572466950E+02  0.36847293575E+02  0.42211391763E+02  0.00000000000E+00 0. -1.
         -2    1    1    2    0  503 -0.31699900822E+02  0.31602586717E+02  0.44344098304E+02  0.63007985635E+02  0.00000000000E+00 0.  1.
<mgrwt>
<rscale>  2 0.76082746E+02</rscale>
<asrwt>0</asrwt>
<pdfrwt beam="1">  1       21 0.32642787E-01 0.76082746E+02</pdfrwt>
<pdfrwt beam="2">  1       21 0.42845757E-02 0.76082746E+02</pdfrwt>
<totfact> 0.30497677E+06</totfact>
</mgrwt>
</event>
<event>
 5    1  0.1946229E+000  0.6822550E+02  0.7546771E-02  0.1366233E+00
         21   -1    0    0  501  502  0.00000000000E+00  0.00000000000E+00  0.17463680217E+04  0.17463680217E+04  0.00000000000E+00 0.  1.
         21   -1    0    0  502  503 -0.00000000000E+00 -0.00000000000E+00 -0.43433088786E+01  0.43433088786E+01  0.00000000000E+00 0. -1.
         24    1    1    2    0    0  0.16003422968E+02 -0.74619322197E+01  0.14810322504E+04  0.14833190933E+04  0.80419002446E+02 0.  1.
          1    1    1    2  501    0 -0.28561490425E+02 -0.11979169244E+02  0.19533031261E+03  0.19777054951E+03  0.00000000000E+00 0. -1.
         -2    1    1    2    0  503  0.12558067457E+02  0.19441101464E+02  0.65662149854E+02  0.69621687769E+02  0.00000000000E+00 0.  1.
<mgrwt>
<rscale>  2 0.68225496E+02</rscale>
<asrwt>0</asrwt>
<pdfrwt beam="1">  1       21 0.26867144E+00 0.68225496E+02</pdfrwt>
<pdfrwt beam="2">  1       21 0.66820276E-03 0.68225496E+02</pdfrwt>
<totfact> 0.40530564E+05</totfact>
</mgrwt>
</event>
<event>
 5    1  0.1946229E+000  0.8633308E+02  0.7546771E-02  0.1311983E+00
         21   -1    0    0  503  502  0.00000000000E+00  0.00000000000E+00  0.13451605560E+03  0.13451605560E+03  0.00000000000E+00 0. -1.
         21   -1    0    0  501  503 -0.00000000000E+00 -0.00000000000E+00 -0.69302027111E+02  0.69302027111E+02  0.00000000000E+00 0.  1.
         24    1    1    2    0    0  0.85055269264E+01 -0.62058343982E+01  0.10406276665E+02  0.81770183547E+02  0.80419002446E+02 0.  1.
          1    1    1    2  501    0  0.25151637274E+02  0.37796700004E+02 -0.59017412886E+01  0.45782375855E+02  0.00000000000E+00 0. -1.
         -2    1    1    2    0  502 -0.33657164200E+02 -0.31590865605E+02  0.60709493116E+02  0.76265523312E+02  0.00000000000E+00 0.  1.
<mgrwt>
<rscale>  2 0.86333080E+02</rscale>
<asrwt>0</asrwt>
<pdfrwt beam="1">  1       21 0.20694778E-01 0.86333080E+02</pdfrwt>
<pdfrwt beam="2">  1       21 0.10661850E-01 0.86333080E+02</pdfrwt>
<totfact> 0.15465994E+06</totfact>
</mgrwt>
</event>
<event>
 5    1  0.1946229E+000  0.1141201E+03  0.7546771E-02  0.1253125E+00
         21   -1    0    0  501  502  0.00000000000E+00  0.00000000000E+00  0.29931911002E+02  0.29931911002E+02  0.00000000000E+00 0. -1.
         21   -1    0    0  502  503 -0.00000000000E+00 -0.00000000000E+00 -0.56021971930E+03  0.56021971930E+03  0.00000000000E+00 0.  1.
         24    1    1    2    0    0 -0.15352092084E+02  0.71139472787E+01 -0.73458741764E+02  0.11022566703E+03  0.80419002446E+02 0. -1.
          1    1    1    2  501    0 -0.32074146512E+02  0.57540830817E+02 -0.23459033618E+03  0.24366436735E+03  0.00000000000E+00 0. -1.
         -2    1    1    2    0  503  0.47426238596E+02 -0.64654778096E+02 -0.22223873035E+03  0.23626159592E+03  0.00000000000E+00 0.  1.
<mgrwt>
<rscale>  2 0.11412011E+03</rscale>
<asrwt>0</asrwt>
<pdfrwt beam="1">  1       21 0.46049094E-02 0.11412011E+03</pdfrwt>
<pdfrwt beam="2">  1       21 0.86187650E-01 0.11412011E+03</pdfrwt>
<totfact> 0.36489674E+05</totfact>
</mgrwt>
</event>
<event>
 5    1  0.1946229E+000  0.8593353E+02  0.7546771E-02  0.1313009E+00
         21   -1    0    0  501  502  0.00000000000E+00  0.00000000000E+00  0.21344593487E+02  0.21344593487E+02  0.00000000000E+00 0. -1.
         21   -1    0    0  502  503 -0.00000000000E+00 -0.00000000000E+00 -0.69196198603E+03  0.69196198603E+03  0.00000000000E+00 0.  1.
         24    1    1    2    0    0  0.84172808488E-01  0.17256601537E+02 -0.22288581574E+03  0.23757756669E+03  0.80419002446E+02 0.  1.
          1    1    1    2  501    0  0.20809222546E+02  0.30825551506E+02 -0.15438945329E+02  0.40269087417E+02  0.00000000000E+00 0. -1.
         -2    1    1    2    0  503 -0.20893395354E+02 -0.48082153043E+02 -0.43229263148E+03  0.43545992541E+03  0.00000000000E+00 0.  1.
<mgrwt>
<rscale>  2 0.85933530E+02</rscale>
<asrwt>0</asrwt>
<pdfrwt beam="1">  1       21 0.32837837E-02 0.85933530E+02</pdfrwt>
<pdfrwt beam="2">  1       21 0.10645569E+00 0.85933530E+02</pdfrwt>
<totfact> 0.39416086E+05</totfact>
</mgrwt>
</event>
<event>
 5    1  0.1946229E+000  0.7187903E+02  0.7546771E-02  0.1353817E+00
         21   -1    0    0  503  502  0.00000000000E+00  0.00000000000E+00  0.38331610218E+03  0.38331610218E+03  0.00000000000E+00 0. -1.
         21   -1    0    0  501  503 -0.00000000000E+00 -0.00000000000E+00 -0.16813186812E+02  0.16813186812E+02  0.00000000000E+00 0.  1.
         24    1    1    2    0    0  0.30967090567E+02 -0.14995764969E+02  0.17141809013E+03  0.19244534612E+03  0.80419002446E+02 0.  1.
          1    1    1    2  501    0  0.17830016665E+01  0.22596928971E+02  0.22803549396E+02  0.32152793952E+02  0.00000000000E+00 0. -1.
         -2    1    1    2    0  502 -0.32750092233E+02 -0.76011640018E+01  0.17228127584E+03  0.17553114892E+03  0.00000000000E+00 0.  1.
<mgrwt>
<rscale>  2 0.71879032E+02</rscale>
<asrwt>0</asrwt>
<pdfrwt beam="1">  1       21 0.58971701E-01 0.71879032E+02</pdfrwt>
<pdfrwt beam="2">  1       21 0.25866444E-02 0.71879032E+02</pdfrwt>
<totfact> 0.21221975E+06</totfact>
</mgrwt>
</event>
<event>
 5    1  0.1946229E+000  0.8169553E+02  0.7546771E-02  0.1324307E+00
         21   -1    0    0  501  502  0.00000000000E+00  0.00000000000E+00  0.63054475471E+03  0.63054475471E+03  0.00000000000E+00 0. -1.
         21   -1    0    0  502  503 -0.00000000000E+00 -0.00000000000E+00 -0.44021445343E+02  0.44021445343E+02  0.00000000000E+00 0. -1.
         24    1    1    2    0    0 -0.43212865792E+02  0.39115840707E+02  0.21167669162E+02  0.10155140046E+03  0.80419002446E+02 0. -1.
          1    1    1    2  501    0  0.31988931884E+02 -0.11050547822E+02  0.49845601057E+03  0.49960364374E+03  0.00000000000E+00 0. -1.
         -2    1    1    2    0  503  0.11223933908E+02 -0.28065292886E+02  0.66899629641E+02  0.73411155850E+02  0.00000000000E+00 0.  1.
<mgrwt>
<rscale>  2 0.81695532E+02</rscale>
<asrwt>0</asrwt>
<pdfrwt beam="1">  1       21 0.97006879E-01 0.81695532E+02</pdfrwt>
<pdfrwt beam="2">  1       21 0.67725305E-02 0.81695532E+02</pdfrwt>
<totfact> 0.14755630E+05</totfact>
</mgrwt>
</event>
<event>
 5    1  0.1946229E+000  0.7194425E+02  0.7546771E-02  0.1353604E+00
         21   -1    0    0  503  502  0.00000000000E+00  0.00000000000E+00  0.11859909797E+04  0.11859909797E+04  0.00000000000E+00 0. -1.
         21   -1    0    0  501  503 -0.00000000000E+00 -0.00000000000E+00 -0.12293342832E+02  0.12293342832E+02  0.00000000000E+00 0. -1.
         24    1    1    2    0    0  0.28738643493E+02 -0.38455562545E+02  0.83704928595E+03  0.84227279606E+03  0.80419002446E+02 0. -1.
          1    1    1    2  501    0 -0.11053556682E+02  0.26957095960E+02  0.13388739190E+02  0.32064380159E+02  0.00000000000E+00 0. -1.
         -2    1    1    2    0  502 -0.17685086811E+02  0.11498466586E+02  0.32325961172E+03  0.32394714630E+03  0.00000000000E+00 0.  1.
<mgrwt>
<rscale>  2 0.71944253E+02</rscale>
<asrwt>0</asrwt>
<pdfrwt beam="1">  1       21 0.18246006E+00 0.71944253E+02</pdfrwt>
<pdfrwt beam="2">  1       21 0.18912845E-02 0.71944253E+02</pdfrwt>
<totfact> 0.25092341E+05</totfact>
</mgrwt>
</event>
<event>
 5    1  0.1946229E+000  0.7344902E+02  0.7546771E-02  0.1348742E+00
         21   -1    0    0  501  502  0.00000000000E+00  0.00000000000E+00  0.13854657074E+03  0.13854657074E+03  0.00000000000E+00 0. -1.
         21   -1    0    0  502  503 -0.00000000000E+00 -0.00000000000E+00 -0.81279493169E+02  0.81279493169E+02  0.00000000000E+00 0. -1.
         24    1    1    2    0    0  0.50249408456E+02 -0.65579871017E+01 -0.39447515034E+02  0.10291420039E+03  0.80419002446E+02 0. -1.
          1    1    1    2  501    0 -0.22251271884E+02  0.84037349984E+01  0.81692581849E+02  0.85084780023E+02  0.00000000000E+00 0. -1.
         -2    1    1    2    0  503 -0.27998136572E+02 -0.18457478967E+01  0.15022010760E+02  0.31827083499E+02  0.00000000000E+00 0.  1.
<mgrwt>
<rscale>  2 0.73449023E+02</rscale>
<asrwt>0</asrwt>
<pdfrwt beam="1">  1       21 0.21314857E-01 0.73449023E+02</pdfrwt>
<pdfrwt beam="2">  1       21 0.12504537E-01 0.73449023E+02</pdfrwt>
<totfact> 0.11040022E+06</totfact>
</mgrwt>
</event>
<event>
 5    1  0.1946229E+000  0.8800933E+02  0.7546771E-02  0.1307745E+00
         21   -1    0    0  501  502  0.00000000000E+00  0.00000000000E+00  0.29702910435E+03  0.29702910435E+03  0.00000000000E+00 0. -1.
         21   -1    0    0  502  503 -0.00000000000E+00 -0.00000000000E+00 -0.44268264448E+02  0.44268264448E+02  0.00000000000E+00 0. -1.
         24    1    1    2    0    0  0.25868316775E+02 -0.40367551652E+01  0.22749152923E+03  0.24270368153E+03  0.80419002446E+02 0. -1.
          1    1    1    2  501    0 -0.16887522498E+02  0.45754564791E+02  0.27261667144E+02  0.55873670998E+02  0.00000000000E+00 0. -1.
         -2    1    1    2    0  503 -0.89807942768E+01 -0.41717809625E+02 -0.19923564679E+01  0.42720016270E+02  0.00000000000E+00 0.  1.
<mgrwt>
<rscale>  2 0.88009327E+02</rscale>
<asrwt>0</asrwt>
<pdfrwt beam="1">  1       21 0.45696784E-01 0.88009327E+02</pdfrwt>
<pdfrwt beam="2">  1       21 0.68105024E-02 0.88009327E+02</pdfrwt>
<totfact> 0.73078633E+05</totfact>
</mgrwt>
</event>
<event>
 5    1  0.1946229E+000  0.7227797E+02  0.7546771E-02  0.1352514E+00
         21   -1    0    0  503  502  0.00000000000E+00  0.00000000000E+00  0.37370180548E+02  0.37370180548E+02  0.00000000000E+00 0. -1.
         21   -1    0    0  501  503 -0.00000000000E+00 -0.00000000000E+00 -0.18864912138E+03  0.18864912138E+03  0.00000000000E+00 0.  1.
         24    1    1    2    0    0  0.19911809354E+02  0.34897022080E+02 -0.86084956979E+02  0.12446733738E+03  0.80419002446E+02 0.  0.
          1    1    1    2  501    0  0.54108960989E+00 -0.34189361787E+02 -0.72226967676E+02  0.79912077292E+02  0.00000000000E+00 0. -1.
         -2    1    1    2    0  502 -0.20452898964E+02 -0.70766029313E+00  0.70329838217E+01  0.21639887258E+02  0.00000000000E+00 0.  1.
<mgrwt>
<rscale>  2 0.72277967E+02</rscale>
<asrwt>0</asrwt>
<pdfrwt beam="1">  1       21 0.57492586E-02 0.72277967E+02</pdfrwt>
<pdfrwt beam="2">  1       21 0.29022941E-01 0.72277967E+02</pdfrwt>
<totfact> 0.23382613E+06</totfact>
</mgrwt>
</event>
<event>
 5    1  0.1946229E+000  0.1138528E+03  0.7546771E-02  0.1253597E+00
         21   -1    0    0  503  502  0.00000000000E+00  0.00000000000E+00  0.42175230480E+03  0.42175230480E+03  0.00000000000E+00 0.  1.
         21   -1    0    0  501  503 -0.00000000000E+00 -0.00000000000E+00 -0.82812516825E+02  0.82812516825E+02  0.00000000000E+00 0.  1.
         24    1    1    2    0    0  0.64039932445E+02 -0.70812967369E+02  0.26057320577E+02  0.12752172052E+03  0.80419002446E+02 0.  1.
          1    1    1    2  501    0 -0.13702334860E+02  0.43494159333E+02 -0.11997599538E+02  0.47153348464E+02  0.00000000000E+00 0. -1.
         -2    1    1    2    0  502 -0.50337597585E+02  0.27318808036E+02  0.32488006694E+03  0.32988975264E+03  0.00000000000E+00 0.  1.
<mgrwt>
<rscale>  2 0.11385277E+03</rscale>
<asrwt>0</asrwt>
<pdfrwt beam="1">  1       21 0.64884969E-01 0.11385277E+03</pdfrwt>
<pdfrwt beam="2">  1       21 0.12740387E-01 0.11385277E+03</pdfrwt>
<totfact> 0.11879317E+05</totfact>
</mgrwt>
</event>
<event>
 5    1  0.1946229E+000  0.6964582E+02  0.7546771E-02  0.1361302E+00
         21   -1    0    0  503  502  0.00000000000E+00  0.00000000000E+00  0.28918030190E+02  0.28918030190E+02  0.00000000000E+00 0. -1.
         21   -1    0    0  501  503 -0.00000000000E+00 -0.00000000000E+00 -0.21729895802E+03  0.21729895802E+03  0.00000000000E+00 0. -1.
         24    1    1    2    0    0  0.38065083643E+02  0.84252538201E+01 -0.59510520272E+02  0.10737156734E+03  0.80419002446E+02 0. -1.
          1    1    1    2  501    0 -0.21424827494E+02 -0.20271105088E+02 -0.93022951229E+02  0.97586937600E+02  0.00000000000E+00 0. -1.
         -2    1    1    2    0  502 -0.16640256150E+02  0.11845851268E+02 -0.35847456332E+02  0.41258483279E+02  0.00000000000E+00 0.  1.
<mgrwt>
<rscale>  2 0.69645823E+02</rscale>
<asrwt>0</asrwt>
<pdfrwt beam="1">  1       21 0.44489279E-02 0.69645823E+02</pdfrwt>
<pdfrwt beam="2">  1       21 0.33430608E-01 0.69645823E+02</pdfrwt>
<totfact> 0.27246037E+06</totfact>
</mgrwt>
</event>
<event>
 5    1  0.1946229E+000  0.1005505E+03  0.7546771E-02  0.1279143E+00
         21   -1    0    0  501  502  0.00000000000E+00  0.00000000000E+00  0.47381593877E+03  0.47381593877E+03  0.00000000000E+00 0.  1.
         21   -1    0    0  502  503 -0.00000000000E+00 -0.00000000000E+00 -0.23142954115E+02  0.23142954115E+02  0.00000000000E+00 0.  1.
         24    1    1    2    0    0 -0.69376994208E+02  0.48042952908E+02  0.29655619864E+03  0.31864413937E+03  0.80419002446E+02 0.  1.
          1    1    1    2  501    0  0.27262109922E+02 -0.21827310627E+02  0.94565152055E+02  0.10080784746E+03  0.00000000000E+00 0. -1.
         -2    1    1    2    0  503  0.42114884286E+02 -0.26215642281E+02  0.59551633965E+02  0.77506906057E+02  0.00000000000E+00 0.  1.
<mgrwt>
<rscale>  2 0.10055050E+03</rscale>
<asrwt>0</asrwt>
<pdfrwt beam="1">  1       21 0.72894752E-01 0.10055050E+03</pdfrwt>
<pdfrwt beam="2">  1       21 0.35604548E-02 0.10055050E+03</pdfrwt>
<totfact> 0.81068727E+05</totfact>
</mgrwt>
</event>
<event>
 5    1  0.1946229E+000  0.9160817E+02  0.7546771E-02  0.1299003E+00
         21   -1    0    0  503  502  0.00000000000E+00  0.00000000000E+00  0.10164325394E+04  0.10164325394E+04  0.00000000000E+00 0.  1.
         21   -1    0    0  501  503 -0.00000000000E+00 -0.00000000000E+00 -0.16336405556E+02  0.16336405556E+02  0.00000000000E+00 0. -1.
         24    1    1    2    0    0 -0.64381002378E+02  0.24871587077E+01  0.86945523977E+03  0.87554024998E+03  0.80419002446E+02 0.  1.
          1    1    1    2  501    0  0.56332632498E+02  0.17201965603E+02  0.62658104922E+02  0.85995995355E+02  0.00000000000E+00 0. -1.
         -2    1    1    2    0  502  0.80483698804E+01 -0.19689124311E+02  0.67982789182E+02  0.71232699646E+02  0.00000000000E+00 0.  1.
<mgrwt>
<rscale>  2 0.91608167E+02</rscale>
<asrwt>0</asrwt>
<pdfrwt beam="1">  1       21 0.15637419E+00 0.91608167E+02</pdfrwt>
<pdfrwt beam="2">  1       21 0.25132940E-02 0.91608167E+02</pdfrwt>
<totfact> 0.23647790E+05</totfact>
</mgrwt>
</event>
<event>
 5    1  0.1946229E+000  0.1491795E+03  0.7546771E-02  0.1201485E+00
         21   -1    0    0  501  502  0.00000000000E+00  0.00000000000E+00  0.28006867820E+03  0.28006867820E+03  0.00000000000E+00 0.  1.
         21   -1    0    0  502  503 -0.00000000000E+00 -0.00000000000E+00 -0.12452818275E+03  0.12452818275E+03  0.00000000000E+00 0.  1.
         24    1    1    2    0    0 -0.76111247193E+02 -0.94952340423E+02  0.19005021426E+03  0.23957288827E+03  0.80419002446E+02 0.  1.
          1    1    1    2  501    0  0.30029699592E+02  0.10159294755E+03  0.18443827939E+01  0.10595429013E+03  0.00000000000E+00 0. -1.
         -2    1    1    2    0  503  0.46081547601E+02 -0.66406071256E+01 -0.36354101604E+02  0.59069682543E+02  0.00000000000E+00 0.  1.
<mgrwt>
<rscale>  2 0.14917952E+03</rscale>
<asrwt>0</asrwt>
<pdfrwt beam="1">  1       21 0.43087489E-01 0.14917952E+03</pdfrwt>
<pdfrwt beam="2">  1       21 0.19158182E-01 0.14917952E+03</pdfrwt>
<totfact> 0.13148998E+05</totfact>
</mgrwt>
</event>
<event>
 5    1  0.1946229E+000  0.9069188E+02  0.7546771E-02  0.1301185E+00
         21   -1    0    0  501  502  0.00000000000E+00  0.00000000000E+00  0.17864128903E+02  0.17864128903E+02  0.00000000000E+00 0.  1.
         21   -1    0    0  502  503 -0.00000000000E+00 -0.00000000000E+00 -0.60047296332E+03  0.60047296332E+03  0.00000000000E+00 0. -1.
         24    1    1    2    0    0  0.98609498883E+01  0.96928163951E+01 -0.20492341754E+03  0.22057201099E+03  0.80419002446E+02 0.  1.
          1    1    1    2  501    0 -0.52581889290E+02 -0.19273088772E+02 -0.84788252018E+02  0.10161375257E+03  0.00000000000E+00 0. -1.
         -2    1    1    2    0  503  0.42720939402E+02  0.95802723769E+01 -0.29289716486E+03  0.29615132866E+03  0.00000000000E+00 0.  1.
<mgrwt>
<rscale>  2 0.90691877E+02</rscale>
<asrwt>0</asrwt>
<pdfrwt beam="1">  1       21 0.27483272E-02 0.90691877E+02</pdfrwt>
<pdfrwt beam="2">  1       21 0.92380468E-01 0.90691877E+02</pdfrwt>
<totfact> 0.72987121E+05</totfact>
</mgrwt>
</event>
<event>
 5    1  0.1946229E+000  0.8965554E+02  0.7546771E-02  0.1303688E+00
         21   -1    0    0  501  502  0.00000000000E+00  0.00000000000E+00  0.38219994177E+03  0.38219994177E+03  0.00000000000E+00 0. -1.
         21   -1    0    0  502  503 -0.00000000000E+00 -0.00000000000E+00 -0.38491212020E+02  0.38491212020E+02  0.00000000000E+00 0.  1.
         24    1    1    2    0    0  0.10490142386E+02  0.97567557198E+01  0.24776258393E+03  0.26088072240E+03  0.80419002446E+02 0. -1.
          1    1    1    2  501    0  0.36933914789E+02 -0.28480413248E+02  0.98264689852E+02  0.10877130721E+03  0.00000000000E+00 0. -1.
         -2    1    1    2    0  503 -0.47424057175E+02  0.18723657528E+02 -0.23185440369E+01  0.51039124176E+02  0.00000000000E+00 0.  1.
<mgrwt>
<rscale>  2 0.89655538E+02</rscale>
<asrwt>0</asrwt>
<pdfrwt beam="1">  1       21 0.58799988E-01 0.89655538E+02</pdfrwt>
<pdfrwt beam="2">  1       21 0.59217252E-02 0.89655538E+02</pdfrwt>
<totfact> 0.55134093E+05</totfact>
</mgrwt>
</event>
<event>
 5    1  0.1946229E+000  0.1391410E+03  0.7546771E-02  0.1214489E+00
         21   -1    0    0  501  502  0.00000000000E+00  0.00000000000E+00  0.15686212596E+04  0.15686212596E+04  0.00000000000E+00 0. -1.
         21   -1    0    0  502  503 -0.00000000000E+00 -0.00000000000E+00 -0.53657597415E+02  0.53657597415E+02  0.00000000000E+00 0. -1.
         24    1    1    2    0    0 -0.10940723823E+03 -0.63086480499E+02  0.15867881995E+03  0.21816514766E+03  0.80419002446E+02 0. -1.
          1    1    1    2  501    0  0.59852622132E+02  0.48107596926E+02  0.13497515108E+04  0.13519341027E+04  0.00000000000E+00 0. -1.
         -2    1    1    2    0  503  0.49554616099E+02  0.14978883573E+02  0.65333314741E+01  0.52179606648E+02  0.00000000000E+00 0.  1.
<mgrwt>
<rscale>  2 0.13914105E+03</rscale>
<asrwt>0</asrwt>
<pdfrwt beam="1">  1       21 0.24132631E+00 0.13914105E+03</pdfrwt>
<pdfrwt beam="2">  1       21 0.82550162E-02 0.13914105E+03</pdfrwt>
<totfact> 0.89979237E+03</totfact>
</mgrwt>
</event>
<event>
 5    1  0.1946229E+000  0.1013739E+03  0.7546771E-02  0.1277433E+00
         21   -1    0    0  501  502  0.00000000000E+00  0.00000000000E+00  0.39109069655E+03  0.39109069655E+03  0.00000000000E+00 0.  1.
         21   -1    0    0  502  503 -0.00000000000E+00 -0.00000000000E+00 -0.41968400617E+02  0.41968400617E+02  0.00000000000E+00 0.  1.
         24    1    1    2    0    0 -0.29005583547E+02  0.53412235923E+02  0.11820036261E+03  0.15534713547E+03  0.80419002446E+02 0.  1.
          1    1    1    2  501    0 -0.23719503055E+02  0.39336042823E+01  0.18648488185E+03  0.18802845324E+03  0.00000000000E+00 0. -1.
         -2    1    1    2    0  503  0.52725086602E+02 -0.57345840205E+02  0.44437051470E+02  0.89683508458E+02  0.00000000000E+00 0.  1.
<mgrwt>
<rscale>  2 0.10137386E+03</rscale>
<asrwt>0</asrwt>
<pdfrwt beam="1">  1       21 0.60167797E-01 0.10137386E+03</pdfrwt>
<pdfrwt beam="2">  1       21 0.64566773E-02 0.10137386E+03</pdfrwt>
<totfact> 0.45375439E+05</totfact>
</mgrwt>
</event>
<event>
 5    1  0.1946229E+000  0.9418038E+02  0.7546771E-02  0.1293033E+00
         21   -1    0    0  503  502  0.00000000000E+00  0.00000000000E+00  0.57139075568E+02  0.57139075568E+02  0.00000000000E+00 0. -1.
         21   -1    0    0  501  503 -0.00000000000E+00 -0.00000000000E+00 -0.23682863664E+03  0.23682863664E+03  0.00000000000E+00 0.  1.
         24    1    1    2    0    0 -0.14058346372E+01 -0.68548681760E+02 -0.17132174585E+03  0.20129395097E+03  0.80419002446E+02 0.  1.
          1    1    1    2  501    0  0.22159923771E+02  0.50611378345E+02 -0.24947335203E+02  0.60621311213E+02  0.00000000000E+00 0. -1.
         -2    1    1    2    0  502 -0.20754089134E+02  0.17937303415E+02  0.16579519983E+02  0.32052450022E+02  0.00000000000E+00 0.  1.
<mgrwt>
<rscale>  2 0.94180376E+02</rscale>
<asrwt>0</asrwt>
<pdfrwt beam="1">  1       21 0.87906268E-02 0.94180376E+02</pdfrwt>
<pdfrwt beam="2">  1       21 0.36435176E-01 0.94180376E+02</pdfrwt>
<totfact> 0.74182405E+05</totfact>
</mgrwt>
</event>
<event>
 5    1  0.1946229E+000  0.7336566E+02  0.7546771E-02  0.1349008E+00
         21   -1    0    0  503  502  0.00000000000E+00  0.00000000000E+00  0.52711702502E+02  0.52711702502E+02  0.00000000000E+00 0. -1.
         21   -1    0    0  501  503 -0.00000000000E+00 -0.00000000000E+00 -0.10696384957E+03  0.10696384957E+03  0.00000000000E+00 0.  1.
         24    1    1    2    0    0  0.73935078457E+00  0.51196853020E+02 -0.39882592771E+02  0.10334167388E+03  0.80419002446E+02 0.  0.
          1    1    1    2  501    0 -0.25715679732E+01 -0.24054532666E+02 -0.16125063035E+02  0.29073203496E+02  0.00000000000E+00 0. -1.
         -2    1    1    2    0  502  0.18322171886E+01 -0.27142320354E+02  0.17555087406E+01  0.27260674698E+02  0.00000000000E+00 0.  1.
<mgrwt>
<rscale>  2 0.73365655E+02</rscale>
<asrwt>0</asrwt>
<pdfrwt beam="1">  1       21 0.81094927E-02 0.73365655E+02</pdfrwt>
<pdfrwt beam="2">  1       21 0.16455977E-01 0.73365655E+02</pdfrwt>
<totfact> 0.37182600E+06</totfact>
</mgrwt>
</event>
<event>
 5    1  0.1946229E+000  0.1065582E+03  0.7546771E-02  0.1267080E+00
         21   -1    0    0  501  502  0.00000000000E+00  0.00000000000E+00  0.34869766180E+02  0.34869766180E+02  0.00000000000E+00 0. -1.
         21   -1    0    0  502  503 -0.00000000000E+00 -0.00000000000E+00 -0.85289958071E+03  0.85289958071E+03  0.00000000000E+00 0.  1.
         24    1    1    2    0    0  0.53211427033E+01  0.74139869811E+02 -0.13064719979E+03  0.17047270052E+03  0.80419002446E+02 0. -1.
          1    1    1    2  501    0 -0.38827618318E+02 -0.38114757038E+02 -0.38741485542E+02  0.66792374942E+02  0.00000000000E+00 0. -1.
         -2    1    1    2    0  503  0.33506475615E+02 -0.36025112772E+02 -0.64864112920E+03  0.65050427143E+03  0.00000000000E+00 0.  1.
<mgrwt>
<rscale>  2 0.10655822E+03</rscale>
<asrwt>0</asrwt>
<pdfrwt beam="1">  1       21 0.53645797E-02 0.10655822E+03</pdfrwt>
<pdfrwt beam="2">  1       21 0.13121531E+00 0.10655822E+03</pdfrwt>
<totfact> 0.10504070E+05</totfact>
</mgrwt>
</event>
<event>
 5    1  0.1946229E+000  0.6222854E+02  0.7546771E-02  0.1388711E+00
         21   -1    0    0  503  502  0.00000000000E+00  0.00000000000E+00  0.92592710309E+03  0.92592710309E+03  0.00000000000E+00 0.  1.
         21   -1    0    0  501  503 -0.00000000000E+00 -0.00000000000E+00 -0.99200807732E+01  0.99200807732E+01  0.00000000000E+00 0. -1.
         24    1    1    2    0    0  0.13538960555E+02  0.10899253800E+02  0.41674087896E+03  0.42478497306E+03  0.80419002446E+02 0.  1.
          1    1    1    2  501    0 -0.18606003361E+02  0.96897113717E+01  0.13748436765E+02  0.25081734011E+02  0.00000000000E+00 0. -1.
         -2    1    1    2    0  502  0.50670428061E+01 -0.20588965172E+02  0.48551770659E+03  0.48598047679E+03  0.00000000000E+00 0.  1.
<mgrwt>
<rscale>  2 0.62228542E+02</rscale>
<asrwt>0</asrwt>
<pdfrwt beam="1">  1       21 0.14245026E+00 0.62228542E+02</pdfrwt>
<pdfrwt beam="2">  1       21 0.15261670E-02 0.62228542E+02</pdfrwt>
<totfact> 0.66826750E+05</totfact>
</mgrwt>
</event>
<event>
 5    1  0.1946229E+000  0.6827360E+02  0.7546771E-02  0.1366064E+00
         21   -1    0    0  503  502  0.00000000000E+00  0.00000000000E+00  0.13428831015E+02  0.13428831015E+02  0.00000000000E+00 0.  1.
         21   -1    0    0  501  503 -0.00000000000E+00 -0.00000000000E+00 -0.39822908194E+03  0.39822908194E+03  0.00000000000E+00 0. -1.
         24    1    1    2    0    0  0.28299245839E+02  0.30460449466E+02 -0.30766059509E+03  0.32070382601E+03  0.80419002446E+02 0.  0.
          1    1    1    2  501    0 -0.88682344850E+01 -0.23924415892E+02 -0.55829697985E+02  0.61383861362E+02  0.00000000000E+00 0. -1.
         -2    1    1    2    0  502 -0.19431011354E+02 -0.65360335739E+01 -0.21309957857E+02  0.29570225582E+02  0.00000000000E+00 0.  1.
<mgrwt>
<rscale>  2 0.68273604E+02</rscale>
<asrwt>0</asrwt>
<pdfrwt beam="1">  1       21 0.20659745E-02 0.68273604E+02</pdfrwt>
<pdfrwt beam="2">  1       21 0.61265998E-01 0.68273604E+02</pdfrwt>
<totfact> 0.27996123E+06</totfact>
</mgrwt>
</event>
<event>
 5    1  0.1946229E+000  0.1055232E+03  0.7546771E-02  0.1269092E+00
         21   -1    0    0  501  502  0.00000000000E+00  0.00000000000E+00  0.56720685270E+02  0.56720685270E+02  0.00000000000E+00 0. -1.
         21   -1    0    0  502  503 -0.00000000000E+00 -0.00000000000E+00 -0.72874332441E+03  0.72874332441E+03  0.00000000000E+00 0. -1.
         24    1    1    2    0    0  0.28624661121E+02  0.44037608970E+02 -0.30061242688E+03  0.31558474199E+03  0.80419002446E+02 0. -1.
          1    1    1    2  501    0 -0.61072600697E+02 -0.98087805041E+00  0.27754113330E+02  0.67090353140E+02  0.00000000000E+00 0. -1.
         -2    1    1    2    0  503  0.32447939576E+02 -0.43056730920E+02 -0.39916432560E+03  0.40278891456E+03  0.00000000000E+00 0.  1.
<mgrwt>
<rscale>  2 0.10552315E+03</rscale>
<asrwt>0</asrwt>
<pdfrwt beam="1">  1       21 0.87262593E-02 0.10552315E+03</pdfrwt>
<pdfrwt beam="2">  1       21 0.11211436E+00 0.10552315E+03</pdfrwt>
<totfact> 0.67337419E+04</totfact>
</mgrwt>
</event>
<event>
 5    1  0.1946229E+000  0.8053417E+02  0.7546771E-02  0.1327542E+00
         21   -1    0    0  501  502  0.00000000000E+00  0.00000000000E+00  0.13379290765E+04  0.13379290765E+04  0.00000000000E+00 0.  1.
         21   -1    0    0  502  503 -0.00000000000E+00 -0.00000000000E+00 -0.70903245345E+01  0.70903245345E+01  0.00000000000E+00 0.  1.
         24    1    1    2    0    0  0.72881366659E+01 -0.48959634804E+00  0.69018313602E+03  0.69489087909E+03  0.80419002446E+02 0.  1.
          1    1    1    2  501    0 -0.22979628876E+01  0.40215039616E+02  0.54426334491E+03  0.54575188378E+03  0.00000000000E+00 0. -1.
         -2    1    1    2    0  503 -0.49901737783E+01 -0.39725443268E+02  0.96392270997E+02  0.10437663812E+03  0.00000000000E+00 0.  1.
<mgrwt>
<rscale>  2 0.80534172E+02</rscale>
<asrwt>0</asrwt>
<pdfrwt beam="1">  1       21 0.20583504E+00 0.80534172E+02</pdfrwt>
<pdfrwt beam="2">  1       21 0.10908202E-02 0.80534172E+02</pdfrwt>
<totfact> 0.42499142E+05</totfact>
</mgrwt>
</event>
<event>
 5    1  0.1946229E+000  0.7068376E+02  0.7546771E-02  0.1357783E+00
         21   -1    0    0  501  502  0.00000000000E+00  0.00000000000E+00  0.11090780587E+03  0.11090780587E+03  0.00000000000E+00 0. -1.
         21   -1    0    0  502  503 -0.00000000000E+00 -0.00000000000E+00 -0.21046852753E+03  0.21046852753E+03  0.00000000000E+00 0.  1.
         24    1    1    2    0    0  0.23219501137E+01  0.11507760528E+02 -0.18131977215E+03  0.19870051769E+03  0.80419002446E+02 0.  1.
          1    1    1    2  501    0  0.59280354135E+01 -0.34843930661E+02  0.89917237562E+02  0.96614443633E+02  0.00000000000E+00 0. -1.
         -2    1    1    2    0  503 -0.82499855272E+01  0.23336170133E+02 -0.81581870713E+01  0.26061372066E+02  0.00000000000E+00 0.  1.
<mgrwt>
<rscale>  2 0.70683762E+02</rscale>
<asrwt>0</asrwt>
<pdfrwt beam="1">  1       21 0.17062740E-01 0.70683762E+02</pdfrwt>
<pdfrwt beam="2">  1       21 0.32379773E-01 0.70683762E+02</pdfrwt>
<totfact> 0.29131006E+05</totfact>
</mgrwt>
</event>
<event>
 5    1  0.1946229E+000  0.1621142E+03  0.7546771E-02  0.1186330E+00
         21   -1    0    0  503  502  0.00000000000E+00  0.00000000000E+00  0.12478882008E+03  0.12478882008E+03  0.00000000000E+00 0.  1.
         21   -1    0    0  501  503 -0.00000000000E+00 -0.00000000000E+00 -0.33939782356E+03  0.33939782356E+03  0.00000000000E+00 0. -1.
         24    1    1    2    0    0  0.49838678215E+02  0.12902161994E+03 -0.87824088809E+02  0.18251235242E+03  0.80419002446E+02 0.  0.
          1    1    1    2  501    0  0.30923009111E+01 -0.10677482080E+03 -0.17611442740E+03  0.20597746532E+03  0.00000000000E+00 0. -1.
         -2    1    1    2    0  502 -0.52930979127E+02 -0.22246799139E+02  0.49329512731E+02  0.75696825888E+02  0.00000000000E+00 0.  1.
<mgrwt>
<rscale>  2 0.16211423E+03</rscale>
<asrwt>0</asrwt>
<pdfrwt beam="1">  1       21 0.19198280E-01 0.16211423E+03</pdfrwt>
<pdfrwt beam="2">  1       21 0.52215049E-01 0.16211423E+03</pdfrwt>
<totfact> 0.87802448E+04</totfact>
</mgrwt>
</event>
<event>
 5    1  0.1946229E+000  0.8673624E+02  0.7546771E-02  0.1310954E+00
         21   -1    0    0  503  502  0.00000000000E+00  0.00000000000E+00  0.17451609410E+03  0.17451609410E+03  0.00000000000E+00 0.  1.
         21   -1    0    0  501  503 -0.00000000000E+00 -0.00000000000E+00 -0.78390979752E+03  0.78390979752E+03  0.00000000000E+00 0. -1.
         24    1    1    2    0    0  0.17781806557E+02  0.61745412590E+02 -0.14317644390E+03  0.17633887451E+03  0.80419002446E+02 0.  0.
          1    1    1    2  501    0  0.35841344505E+01 -0.39607557247E+02 -0.62201267381E+03  0.62328273760E+03  0.00000000000E+00 0. -1.
         -2    1    1    2    0  502 -0.21365941007E+02 -0.22137855343E+02  0.15579541430E+03  0.15880427951E+03  0.00000000000E+00 0.  1.
<mgrwt>
<rscale>  2 0.86736237E+02</rscale>
<asrwt>0</asrwt>
<pdfrwt beam="1">  1       21 0.26848630E-01 0.86736237E+02</pdfrwt>
<pdfrwt beam="2">  1       21 0.12060151E+00 0.86736237E+02</pdfrwt>
<totfact> 0.76658323E+03</totfact>
</mgrwt>
</event>
<event>
 5    1  0.1946229E+000  0.9457630E+02  0.7546771E-02  0.1292133E+00
         21   -1    0    0  503  502  0.00000000000E+00  0.00000000000E+00  0.58372667482E+02  0.58372667482E+02  0.00000000000E+00 0.  1.
         21   -1    0    0  501  503 -0.00000000000E+00 -0.00000000000E+00 -0.25395314468E+03  0.25395314468E+03  0.00000000000E+00 0.  1.
         24    1    1    2    0    0 -0.58331042858E+02 -0.47929685664E+02 -0.46416186329E+02  0.11967223419E+03  0.80419002446E+02 0.  1.
          1    1    1    2  501    0  0.20196035926E+02  0.38456301176E+01 -0.12952184879E+03  0.13114334925E+03  0.00000000000E+00 0. -1.
         -2    1    1    2    0  502  0.38135006932E+02  0.44084055547E+02 -0.19642442084E+02  0.61510228728E+02  0.00000000000E+00 0.  1.
<mgrwt>
<rscale>  2 0.94576297E+02</rscale>
<asrwt>0</asrwt>
<pdfrwt beam="1">  1       21 0.89804103E-02 0.94576297E+02</pdfrwt>
<pdfrwt beam="2">  1       21 0.39069715E-01 0.94576297E+02</pdfrwt>
<totfact> 0.62336961E+05</totfact>
</mgrwt>
</event>
<event>
 5    1  0.1946229E+000  0.6435512E+02  0.7546771E-02  0.1380414E+00
         21   -1    0    0  503  502  0.00000000000E+00  0.00000000000E+00  0.22988025903E+02  0.22988025903E+02  0.00000000000E+00 0. -1.
         21   -1    0    0  501  503 -0.00000000000E+00 -0.00000000000E+00 -0.25622174348E+03  0.25622174348E+03  0.00000000000E+00 0.  1.
         24    1    1    2    0    0 -0.54342937335E+01 -0.23600152786E+01 -0.13339012017E+03  0.15586930850E+03  0.80419002446E+02 0.  1.
          1    1    1    2  501    0  0.26724793413E+02  0.13429063649E+01 -0.98403824294E+02  0.10197710829E+03  0.00000000000E+00 0. -1.
         -2    1    1    2    0  502 -0.21290499679E+02  0.10171089136E+01 -0.14397731170E+01  0.21363352587E+02  0.00000000000E+00 0.  1.
<mgrwt>
<rscale>  2 0.64355120E+02</rscale>
<asrwt>0</asrwt>
<pdfrwt beam="1">  1       21 0.35366192E-02 0.64355120E+02</pdfrwt>
<pdfrwt beam="2">  1       21 0.39418732E-01 0.64355120E+02</pdfrwt>
<totfact> 0.28673494E+06</totfact>
</mgrwt>
</event>
<event>
 5    1  0.1946229E+000  0.6303012E+02  0.7546771E-02  0.1385538E+00
         21   -1    0    0  503  502  0.00000000000E+00  0.00000000000E+00  0.14713253881E+03  0.14713253881E+03  0.00000000000E+00 0. -1.
         21   -1    0    0  501  503 -0.00000000000E+00 -0.00000000000E+00 -0.75229719021E+02  0.75229719021E+02  0.00000000000E+00 0.  1.
         24    1    1    2    0    0  0.47592651057E+01  0.28427735047E+01  0.16743935683E+02  0.82330476144E+02  0.80419002446E+02 0.  1.
          1    1    1    2  501    0 -0.15985011297E+01 -0.24002613851E+02 -0.37710500001E+02  0.44729883612E+02  0.00000000000E+00 0. -1.
         -2    1    1    2    0  502 -0.31607639760E+01  0.21159840347E+02  0.92869384112E+02  0.95301898081E+02  0.00000000000E+00 0.  1.
<mgrwt>
<rscale>  2 0.63030121E+02</rscale>
<asrwt>0</asrwt>
<pdfrwt beam="1">  1       21 0.22635775E-01 0.63030121E+02</pdfrwt>
<pdfrwt beam="2">  1       21 0.11573803E-01 0.63030121E+02</pdfrwt>
<totfact> 0.11257355E+06</totfact>
</mgrwt>
</event>
<event>
 5    1  0.1946229E+000  0.8129918E+02  0.7546771E-02  0.1325404E+00
         21   -1    0    0  503  502  0.00000000000E+00  0.00000000000E+00  0.86478312585E+03  0.86478312585E+03  0.00000000000E+00 0.  1.
         21   -1    0    0  501  503 -0.00000000000E+00 -0.00000000000E+00 -0.12587120500E+03  0.12587120500E+03  0.00000000000E+00 0. -1.
         24    1    1    2    0    0 -0.40027413522E+02 -0.27547142629E+02  0.29327854389E+03  0.30796194434E+03  0.80419002446E+02 0.  0.
          1    1    1    2  501    0  0.20777969771E+02  0.40443996466E+02 -0.11392029983E+03  0.12265918470E+03  0.00000000000E+00 0. -1.
         -2    1    1    2    0  502  0.19249443751E+02 -0.12896853837E+02  0.55955367678E+03  0.56003320180E+03  0.00000000000E+00 0.  1.
<mgrwt>
<rscale>  2 0.81299184E+02</rscale>
<asrwt>0</asrwt>
<pdfrwt beam="1">  1       21 0.13304355E+00 0.81299184E+02</pdfrwt>
<pdfrwt beam="2">  1       21 0.19364801E-01 0.81299184E+02</pdfrwt>
<totfact> 0.11141882E+04</totfact>
</mgrwt>
</event>
<event>
 5    1  0.1946229E+000  0.2256538E+03  0.7546771E-02  0.1129737E+00
         21   -1    0    0  503  502  0.00000000000E+00  0.00000000000E+00  0.67453848923E+03  0.67453848923E+03  0.00000000000E+00 0.  1.
         21   -1    0    0  501  503 -0.00000000000E+00 -0.00000000000E+00 -0.31245206438E+03  0.31245206438E+03  0.00000000000E+00 0. -1.
         24    1    1    2    0    0 -0.17406039743E+03  0.49007185282E+02  0.32813088822E+03  0.38319162559E+03  0.80419002446E+02 0.  0.
          1    1    1    2  501    0  0.12235944529E+03 -0.11611845660E+03 -0.25329021913E+03  0.30432098995E+03  0.00000000000E+00 0. -1.
         -2    1    1    2    0  502  0.51700952132E+02  0.67111271316E+02  0.28724575576E+03  0.29947793807E+03  0.00000000000E+00 0.  1.
<mgrwt>
<rscale>  2 0.22565380E+03</rscale>
<asrwt>0</asrwt>
<pdfrwt beam="1">  1       21 0.10377515E+00 0.22565380E+03</pdfrwt>
<pdfrwt beam="2">  1       21 0.48069549E-01 0.22565380E+03</pdfrwt>
<totfact> 0.30250320E+03</totfact>
</mgrwt>
</event>
<event>
 5    1  0.1946229E+000  0.7800810E+02  0.7546771E-02  0.1334801E+00
         21   -1    0    0  503  502  0.00000000000E+00  0.00000000000E+00  0.57360411724E+03  0.57360411724E+03  0.00000000000E+00 0. -1.
         21   -1    0    0  501  503 -0.00000000000E+00 -0.00000000000E+00 -0.25471086670E+02  0.25471086670E+02  0.00000000000E+00 0. -1.
         24    1    1    2    0    0  0.22965502532E+02 -0.31773876172E+02  0.27526793935E+03  0.28944195947E+03  0.80419002446E+02 0. -1.
          1    1    1    2  501    0 -0.40564190438E+02  0.18935872991E+02  0.10003233001E+02  0.45870311775E+02  0.00000000000E+00 0. -1.
         -2    1    1    2    0  502  0.17598687906E+02  0.12838003181E+02  0.26286185822E+03  0.26376293267E+03  0.00000000000E+00 0.  1.
<mgrwt>
<rscale>  2 0.78008103E+02</rscale>
<asrwt>0</asrwt>
<pdfrwt beam="1">  1       21 0.88246778E-01 0.78008103E+02</pdfrwt>
<pdfrwt beam="2">  1       21 0.39186291E-02 0.78008103E+02</pdfrwt>
<totfact> 0.45425747E+05</totfact>
</mgrwt>
</event>
<event>
 5    1  0.1946229E+000  0.7967806E+02  0.7546771E-02  0.1329968E+00
         21   -1    0    0  501  502  0.00000000000E+00  0.00000000000E+00  0.48602501346E+03  0.48602501346E+03  0.00000000000E+00 0. -1.
         21   -1    0    0  502  503 -0.00000000000E+00 -0.00000000000E+00 -0.34627962962E+02  0.34627962962E+02  0.00000000000E+00 0. -1.
         24    1    1    2    0    0 -0.33090967205E+02 -0.78551530001E+01  0.15850519738E+03  0.18096361262E+03  0.80419002446E+02 0.  1.
          1    1    1    2  501    0 -0.12167695499E+02 -0.16612445056E+02  0.28718773150E+03  0.28792502369E+03  0.00000000000E+00 0. -1.
         -2    1    1    2    0  503  0.45258662704E+02  0.24467598056E+02  0.57041216187E+01  0.51764340118E+02  0.00000000000E+00 0.  1.
<mgrwt>
<rscale>  2 0.79678061E+02</rscale>
<asrwt>0</asrwt>
<pdfrwt beam="1">  1       21 0.74773074E-01 0.79678061E+02</pdfrwt>
<pdfrwt beam="2">  1       21 0.53273793E-02 0.79678061E+02</pdfrwt>
<totfact> 0.39425159E+05</totfact>
</mgrwt>
</event>
<event>
 5    1  0.1946229E+000  0.1195625E+03  0.7546771E-02  0.1243821E+00
         21   -1    0    0  501  502  0.00000000000E+00  0.00000000000E+00  0.11918746760E+03  0.11918746760E+03  0.00000000000E+00 0. -1.
         21   -1    0    0  502  503 -0.00000000000E+00 -0.00000000000E+00 -0.25254038861E+03  0.25254038861E+03  0.00000000000E+00 0. -1.
         24    1    1    2    0    0  0.10350834461E+03 -0.87240262056E+01 -0.10303726972E+03  0.16695502670E+03  0.80419002446E+02 0. -1.
          1    1    1    2  501    0 -0.19140991058E+02  0.13233448829E+02  0.69913707974E+02  0.73684654232E+02  0.00000000000E+00 0. -1.
         -2    1    1    2    0  503 -0.84367353549E+02 -0.45094226236E+01 -0.10022935926E+03  0.13108817527E+03  0.00000000000E+00 0.  1.
<mgrwt>
<rscale>  2 0.11956251E+03</rscale>
<asrwt>0</asrwt>
<pdfrwt beam="1">  1       21 0.18336533E-01 0.11956251E+03</pdfrwt>
<pdfrwt beam="2">  1       21 0.38852368E-01 0.11956251E+03</pdfrwt>
<totfact> 0.17706226E+05</totfact>
</mgrwt>
</event>
<event>
 5    1  0.1946229E+000  0.1151931E+03  0.7546771E-02  0.1251244E+00
         21   -1    0    0  501  502  0.00000000000E+00  0.00000000000E+00  0.83672276315E+02  0.83672276315E+02  0.00000000000E+00 0.  1.
         21   -1    0    0  502  503 -0.00000000000E+00 -0.00000000000E+00 -0.18781098646E+03  0.18781098646E+03  0.00000000000E+00 0. -1.
         24    1    1    2    0    0 -0.35314804346E+02  0.87182252258E+02 -0.38058985206E+02  0.12947425545E+03  0.80419002446E+02 0. -1.
          1    1    1    2  501    0 -0.12643432325E+02 -0.25842520418E+02  0.12516856078E+02  0.31374574557E+02  0.00000000000E+00 0. -1.
         -2    1    1    2    0  503  0.47958236671E+02 -0.61339731839E+02 -0.78596581015E+02  0.11063443277E+03  0.00000000000E+00 0.  1.
<mgrwt>
<rscale>  2 0.11519312E+03</rscale>
<asrwt>0</asrwt>
<pdfrwt beam="1">  1       21 0.12872658E-01 0.11519312E+03</pdfrwt>
<pdfrwt beam="2">  1       21 0.28893997E-01 0.11519312E+03</pdfrwt>
<totfact> 0.59711312E+05</totfact>
</mgrwt>
</event>
<event>
 5    1  0.1946229E+000  0.6691826E+02  0.7546771E-02  0.1370898E+00
         21   -1    0    0  503  502  0.00000000000E+00  0.00000000000E+00  0.13645072392E+03  0.13645072392E+03  0.00000000000E+00 0.  1.
         21   -1    0    0  501  503 -0.00000000000E+00 -0.00000000000E+00 -0.14110388643E+03  0.14110388643E+03  0.00000000000E+00 0. -1.
         24    1    1    2    0    0 -0.90389159005E+01 -0.91755155726E+01 -0.58160976028E+01  0.81651301474E+02  0.80419002446E+02 0.  0.
          1    1    1    2  501    0  0.11630911911E+02 -0.19981793090E+02 -0.93760419668E+02  0.96568972570E+02  0.00000000000E+00 0. -1.
         -2    1    1    2    0  502 -0.25919960101E+01  0.29157308663E+02  0.94923354760E+02  0.99334336312E+02  0.00000000000E+00 0.  1.
<mgrwt>
<rscale>  2 0.66918264E+02</rscale>
<asrwt>0</asrwt>
<pdfrwt beam="1">  1       21 0.20992419E-01 0.66918264E+02</pdfrwt>
<pdfrwt beam="2">  1       21 0.21708290E-01 0.66918264E+02</pdfrwt>
<totfact> 0.42293787E+05</totfact>
</mgrwt>
</event>
<event>
 5    1  0.1946229E+000  0.7874528E+02  0.7546771E-02  0.1332650E+00
         21   -1    0    0  503  502  0.00000000000E+00  0.00000000000E+00  0.95731005353E+02  0.95731005353E+02  0.00000000000E+00 0.  1.
         21   -1    0    0  501  503 -0.00000000000E+00 -0.00000000000E+00 -0.20555437170E+03  0.20555437170E+03  0.00000000000E+00 0. -1.
         24    1    1    2    0    0 -0.78529227103E+01  0.81274910859E+01 -0.12897108383E+03  0.15240892666E+03  0.80419002446E+02 0. -1.
          1    1    1    2  501    0 -0.32253285288E+02  0.77088840866E+01 -0.54347449377E+02  0.63665897933E+02  0.00000000000E+00 0. -1.
         -2    1    1    2    0  502  0.40106207999E+02 -0.15836375172E+02  0.73495166862E+02  0.85210552461E+02  0.00000000000E+00 0.  1.
<mgrwt>
<rscale>  2 0.78745285E+02</rscale>
<asrwt>0</asrwt>
<pdfrwt beam="1">  1       21 0.14727847E-01 0.78745285E+02</pdfrwt>
<pdfrwt beam="2">  1       21 0.31623749E-01 0.78745285E+02</pdfrwt>
<totfact> 0.39597012E+05</totfact>
</mgrwt>
</event>
<event>
 5    1  0.1946229E+000  0.1341710E+03  0.7546771E-02  0.1221395E+00
         21   -1    0    0  501  502  0.00000000000E+00  0.00000000000E+00  0.48678254981E+02  0.48678254981E+02  0.00000000000E+00 0.  1.
         21   -1    0    0  502  503 -0.00000000000E+00 -0.00000000000E+00 -0.46387403418E+03  0.46387403418E+03  0.00000000000E+00 0. -1.
         24    1    1    2    0    0 -0.28870878656E+02  0.95841016314E+02 -0.11239797250E+03  0.17064450831E+03  0.80419002446E+02 0.  1.
          1    1    1    2  501    0  0.61457479903E+02 -0.86378213600E+02 -0.13998321556E+03  0.17559475579E+03  0.00000000000E+00 0. -1.
         -2    1    1    2    0  503 -0.32586601248E+02 -0.94628027137E+01 -0.16281459114E+03  0.16631302506E+03  0.00000000000E+00 0.  1.
<mgrwt>
<rscale>  2 0.13417099E+03</rscale>
<asrwt>0</asrwt>
<pdfrwt beam="1">  1       21 0.74889624E-02 0.13417099E+03</pdfrwt>
<pdfrwt beam="2">  1       21 0.71365236E-01 0.13417099E+03</pdfrwt>
<totfact> 0.24268796E+05</totfact>
</mgrwt>
</event>
<event>
 5    1  0.1946229E+000  0.1330719E+03  0.7546771E-02  0.1222967E+00
         21   -1    0    0  503  502  0.00000000000E+00  0.00000000000E+00  0.34543124158E+03  0.34543124158E+03  0.00000000000E+00 0.  1.
         21   -1    0    0  501  503 -0.00000000000E+00 -0.00000000000E+00 -0.60431187481E+02  0.60431187481E+02  0.00000000000E+00 0. -1.
         24    1    1    2    0    0 -0.65546890394E+02 -0.35778645076E+02  0.19855154493E+03  0.22686215690E+03  0.80419002446E+02 0.  0.
          1    1    1    2  501    0  0.74621799753E+02  0.81083585801E+02  0.66219082184E+02  0.12856098837E+03  0.00000000000E+00 0. -1.
         -2    1    1    2    0  502 -0.90749093589E+01 -0.45304940725E+02  0.20229426989E+02  0.50439283800E+02  0.00000000000E+00 0.  1.
<mgrwt>
<rscale>  2 0.13307194E+03</rscale>
<asrwt>0</asrwt>
<pdfrwt beam="1">  1       21 0.53143267E-01 0.13307194E+03</pdfrwt>
<pdfrwt beam="2">  1       21 0.92971060E-02 0.13307194E+03</pdfrwt>
<totfact> 0.31339041E+05</totfact>
</mgrwt>
</event>
<event>
 5    1  0.1946229E+000  0.7330299E+02  0.7546771E-02  0.1349208E+00
         21   -1    0    0  501  502  0.00000000000E+00  0.00000000000E+00  0.22434275126E+02  0.22434275126E+02  0.00000000000E+00 0. -1.
         21   -1    0    0  502  503 -0.00000000000E+00 -0.00000000000E+00 -0.34313149090E+03  0.34313149090E+03  0.00000000000E+00 0. -1.
         24    1    1    2    0    0  0.12403283290E+02  0.35299893920E+02 -0.26683058130E+03  0.28118623547E+03  0.80419002446E+02 0. -1.
          1    1    1    2  501    0 -0.25421493779E+02 -0.64034428131E+01 -0.58728579803E+01  0.26865347321E+02  0.00000000000E+00 0. -1.
         -2    1    1    2    0  503  0.13018210489E+02 -0.28896451107E+02 -0.47993776497E+02  0.57514183237E+02  0.00000000000E+00 0.  1.
<mgrwt>
<rscale>  2 0.73302993E+02</rscale>
<asrwt>0</asrwt>
<pdfrwt beam="1">  1       21 0.34514269E-02 0.73302993E+02</pdfrwt>
<pdfrwt beam="2">  1       21 0.52789461E-01 0.73302993E+02</pdfrwt>
<totfact> 0.16746601E+06</totfact>
</mgrwt>
</event>
<event>
 5    1  0.1946229E+000  0.7026812E+02  0.7546771E-02  0.1359184E+00
         21   -1    0    0  501  502  0.00000000000E+00  0.00000000000E+00  0.93939957264E+02  0.93939957264E+02  0.00000000000E+00 0. -1.
         21   -1    0    0  502  503 -0.00000000000E+00 -0.00000000000E+00 -0.19229446950E+03  0.19229446950E+03  0.00000000000E+00 0. -1.
         24    1    1    2    0    0  0.17300144523E+02  0.14852671739E+02 -0.15662658551E+03  0.17753591214E+03  0.80419002446E+02 0. -1.
          1    1    1    2  501    0 -0.30028215886E+02  0.77456071198E+01  0.72686876653E+02  0.79025756665E+02  0.00000000000E+00 0. -1.
         -2    1    1    2    0  503  0.12728071363E+02 -0.22598278859E+02 -0.14414803375E+02  0.29672757950E+02  0.00000000000E+00 0.  1.
<mgrwt>
<rscale>  2 0.70268120E+02</rscale>
<asrwt>0</asrwt>
<pdfrwt beam="1">  1       21 0.14452301E-01 0.70268120E+02</pdfrwt>
<pdfrwt beam="2">  1       21 0.29583764E-01 0.70268120E+02</pdfrwt>
<totfact> 0.46478155E+05</totfact>
</mgrwt>
</event>
<event>
 5    1  0.1946229E+000  0.8492329E+02  0.7546771E-02  0.1315633E+00
         21   -1    0    0  501  502  0.00000000000E+00  0.00000000000E+00  0.34329860975E+02  0.34329860975E+02  0.00000000000E+00 0.  1.
         21   -1    0    0  502  503 -0.00000000000E+00 -0.00000000000E+00 -0.21986446680E+03  0.21986446680E+03  0.00000000000E+00 0. -1.
         24    1    1    2    0    0  0.63938680408E+02 -0.11154836846E+02 -0.91676899403E+02  0.13814649860E+03  0.80419002446E+02 0.  1.
          1    1    1    2  501    0 -0.34799346754E+02 -0.12775201633E+01 -0.36011533440E+02  0.50094482061E+02  0.00000000000E+00 0. -1.
         -2    1    1    2    0  503 -0.29139333654E+02  0.12432357009E+02 -0.57846172985E+02  0.65953347115E+02  0.00000000000E+00 0.  1.
<mgrwt>
<rscale>  2 0.84923286E+02</rscale>
<asrwt>0</asrwt>
<pdfrwt beam="1">  1       21 0.52815170E-02 0.84923286E+02</pdfrwt>
<pdfrwt beam="2">  1       21 0.33825303E-01 0.84923286E+02</pdfrwt>
<totfact> 0.20247281E+06</totfact>
</mgrwt>
</event>
<event>
 5    1  0.1946229E+000  0.1560353E+03  0.7546771E-02  0.1193247E+00
         21   -1    0    0  501  502  0.00000000000E+00  0.00000000000E+00  0.38499066754E+03  0.38499066754E+03  0.00000000000E+00 0. -1.
         21   -1    0    0  502  503 -0.00000000000E+00 -0.00000000000E+00 -0.77459131483E+02  0.77459131483E+02  0.00000000000E+00 0. -1.
         24    1    1    2    0    0  0.12714804661E+03 -0.18852400022E+02  0.13154807255E+03  0.20073402823E+03  0.80419002446E+02 0. -1.
          1    1    1    2  501    0 -0.13121802747E+03  0.41355283011E+02  0.19023400563E+03  0.23477096725E+03  0.00000000000E+00 0. -1.
         -2    1    1    2    0  503  0.40699808572E+01 -0.22502882989E+02 -0.14250542122E+02  0.26944803539E+02  0.00000000000E+00 0.  1.
<mgrwt>
<rscale>  2 0.15603534E+03</rscale>
<asrwt>0</asrwt>
<pdfrwt beam="1">  1       21 0.59229332E-01 0.15603534E+03</pdfrwt>
<pdfrwt beam="2">  1       21 0.11916790E-01 0.15603534E+03</pdfrwt>
<totfact> 0.16021446E+05</totfact>
</mgrwt>
</event>
<event>
 5    1  0.1946229E+000  0.1469445E+03  0.7546771E-02  0.1204279E+00
         21   -1    0    0  501  502  0.00000000000E+00  0.00000000000E+00  0.84894091572E+02  0.84894091572E+02  0.00000000000E+00 0.  1.
         21   -1    0    0  502  503 -0.00000000000E+00 -0.00000000000E+00 -0.53089888696E+03  0.53089888696E+03  0.00000000000E+00 0.  1.
         24    1    1    2    0    0  0.11191312578E+03  0.48836878754E+01 -0.26974061997E+03  0.30294490612E+03  0.80419002446E+02 0.  1.
          1    1    1    2  501    0 -0.35973512313E+02 -0.54484225210E+02  0.41216931489E+02  0.77210490390E+02  0.00000000000E+00 0. -1.
         -2    1    1    2    0  503 -0.75939613470E+02  0.49600537334E+02 -0.21748110691E+03  0.23563758202E+03  0.00000000000E+00 0.  1.
<mgrwt>
<rscale>  2 0.14694446E+03</rscale>
<asrwt>0</asrwt>
<pdfrwt beam="1">  1       21 0.13060629E-01 0.14694446E+03</pdfrwt>
<pdfrwt beam="2">  1       21 0.81676752E-01 0.14694446E+03</pdfrwt>
<totfact> 0.67553543E+04</totfact>
</mgrwt>
</event>
<event>
 5    1  0.1946229E+000  0.1350815E+03  0.7546771E-02  0.1220105E+00
         21   -1    0    0  501  502  0.00000000000E+00  0.00000000000E+00  0.32479930229E+03  0.32479930229E+03  0.00000000000E+00 0. -1.
         21   -1    0    0  502  503 -0.00000000000E+00 -0.00000000000E+00 -0.83230085434E+02  0.83230085434E+02  0.00000000000E+00 0. -1.
         24    1    1    2    0    0 -0.79690047963E+02  0.17068601640E+02  0.93220603096E+02  0.14764531046E+03  0.80419002446E+02 0. -1.
          1    1    1    2  501    0  0.10261837771E+03  0.26895609183E+02  0.17458362311E+03  0.20428741199E+03  0.00000000000E+00 0. -1.
         -2    1    1    2    0  503 -0.22928329749E+02 -0.43964210822E+02 -0.26235009356E+02  0.56096665268E+02  0.00000000000E+00 0.  1.
<mgrwt>
<rscale>  2 0.13508154E+03</rscale>
<asrwt>0</asrwt>
<pdfrwt beam="1">  1       21 0.49969123E-01 0.13508154E+03</pdfrwt>
<pdfrwt beam="2">  1       21 0.12804629E-01 0.13508154E+03</pdfrwt>
<totfact> 0.20251673E+05</totfact>
</mgrwt>
</event>
<event>
 5    1  0.1946229E+000  0.6869237E+02  0.7546771E-02  0.1364597E+00
         21   -1    0    0  501  502  0.00000000000E+00  0.00000000000E+00  0.35331763347E+03  0.35331763347E+03  0.00000000000E+00 0.  1.
         21   -1    0    0  502  503 -0.00000000000E+00 -0.00000000000E+00 -0.16236125739E+02  0.16236125739E+02  0.00000000000E+00 0.  1.
         24    1    1    2    0    0 -0.14811556970E+02  0.41355279505E+02  0.23623964358E+03  0.25338908129E+03  0.80419002446E+02 0.  1.
          1    1    1    2  501    0  0.86094654445E+00 -0.21315634576E+02  0.83585824229E+02  0.86265216155E+02  0.00000000000E+00 0. -1.
         -2    1    1    2    0  503  0.13950610425E+02 -0.20039644930E+02  0.17256039924E+02  0.29899461768E+02  0.00000000000E+00 0.  1.
<mgrwt>
<rscale>  2 0.68692365E+02</rscale>
<asrwt>0</asrwt>
<pdfrwt beam="1">  1       21 0.54356553E-01 0.68692365E+02</pdfrwt>
<pdfrwt beam="2">  1       21 0.24978658E-02 0.68692365E+02</pdfrwt>
<totfact> 0.26499391E+06</totfact>
</mgrwt>
</event>
<event>
 5    1  0.1946229E+000  0.7366129E+02  0.7546771E-02  0.1348067E+00
         21   -1    0    0  501  502  0.00000000000E+00  0.00000000000E+00  0.26531924005E+03  0.26531924005E+03  0.00000000000E+00 0.  1.
         21   -1    0    0  502  503 -0.00000000000E+00 -0.00000000000E+00 -0.27412943318E+02  0.27412943318E+02  0.00000000000E+00 0. -1.
         24    1    1    2    0    0 -0.29308717894E+02 -0.15074850291E+02  0.11480608820E+03  0.14399272863E+03  0.80419002446E+02 0.  0.
          1    1    1    2  501    0 -0.41459951955E+01  0.25137098986E+02  0.10750304827E+03  0.11048062458E+03  0.00000000000E+00 0. -1.
         -2    1    1    2    0  503  0.33454713089E+02 -0.10062248695E+02  0.15597160267E+02  0.38258830158E+02  0.00000000000E+00 0.  1.
<mgrwt>
<rscale>  2 0.73661292E+02</rscale>
<asrwt>0</asrwt>
<pdfrwt beam="1">  1       21 0.40818343E-01 0.73661292E+02</pdfrwt>
<pdfrwt beam="2">  1       21 0.42173761E-02 0.73661292E+02</pdfrwt>
<totfact> 0.20234115E+06</totfact>
</mgrwt>
</event>
<event>
 5    1  0.1946229E+000  0.8725178E+02  0.7546771E-02  0.1309647E+00
         21   -1    0    0  501  502  0.00000000000E+00  0.00000000000E+00  0.40347158233E+02  0.40347158233E+02  0.00000000000E+00 0.  1.
         21   -1    0    0  502  503 -0.00000000000E+00 -0.00000000000E+00 -0.19850973440E+03  0.19850973440E+03  0.00000000000E+00 0.  1.
         24    1    1    2    0    0 -0.20032488319E+02 -0.10572255881E+02 -0.10227198925E+03  0.13206002015E+03  0.80419002446E+02 0.  1.
          1    1    1    2  501    0  0.48396685815E+02  0.29664101435E+02 -0.33175313908E+02  0.65748000462E+02  0.00000000000E+00 0. -1.
         -2    1    1    2    0  503 -0.28364197496E+02 -0.19091845554E+02 -0.22715273008E+02  0.41048872020E+02  0.00000000000E+00 0.  1.
<mgrwt>
<rscale>  2 0.87251780E+02</rscale>
<asrwt>0</asrwt>
<pdfrwt beam="1">  1       21 0.62072551E-02 0.87251780E+02</pdfrwt>
<pdfrwt beam="2">  1       21 0.30539959E-01 0.87251780E+02</pdfrwt>
<totfact> 0.18825113E+06</totfact>
</mgrwt>
</event>
<event>
 5    1  0.1946229E+000  0.7738765E+02  0.7546771E-02  0.1336633E+00
         21   -1    0    0  501  502  0.00000000000E+00  0.00000000000E+00  0.35474298195E+02  0.35474298195E+02  0.00000000000E+00 0.  1.
         21   -1    0    0  502  503 -0.00000000000E+00 -0.00000000000E+00 -0.59637671227E+03  0.59637671227E+03  0.00000000000E+00 0.  1.
         24    1    1    2    0    0  0.44617872116E+02  0.23912748274E+02 -0.97188623776E+02  0.13592431198E+03  0.80419002446E+02 0.  1.
          1    1    1    2  501    0 -0.30266038589E+02  0.17824877752E+01  0.94843146593E+00  0.30333312988E+02  0.00000000000E+00 0. -1.
         -2    1    1    2    0  503 -0.14351833526E+02 -0.25695236049E+02 -0.46466222177E+03  0.46559338550E+03  0.00000000000E+00 0.  1.
<mgrwt>
<rscale>  2 0.77387655E+02</rscale>
<asrwt>0</asrwt>
<pdfrwt beam="1">  1       21 0.54575848E-02 0.77387655E+02</pdfrwt>
<pdfrwt beam="2">  1       21 0.91750255E-01 0.77387655E+02</pdfrwt>
<totfact> 0.24086804E+05</totfact>
</mgrwt>
</event>
<event>
 5    1  0.1946229E+000  0.7299369E+02  0.7546771E-02  0.1350199E+00
         21   -1    0    0  503  502  0.00000000000E+00  0.00000000000E+00  0.14448029601E+03  0.14448029601E+03  0.00000000000E+00 0. -1.
         21   -1    0    0  501  503 -0.00000000000E+00 -0.00000000000E+00 -0.68977220388E+02  0.68977220388E+02  0.00000000000E+00 0. -1.
         24    1    1    2    0    0 -0.18572828495E+02 -0.94703702967E+01 -0.98609963001E+01  0.83660582560E+02  0.80419002446E+02 0. -1.
          1    1    1    2  501    0 -0.54790313974E+00  0.32766892592E+02 -0.62418032966E+01  0.33360598862E+02  0.00000000000E+00 0. -1.
         -2    1    1    2    0  502  0.19120731634E+02 -0.23296522296E+02  0.91605875217E+02  0.96436334976E+02  0.00000000000E+00 0.  1.
<mgrwt>
<rscale>  2 0.72993694E+02</rscale>
<asrwt>0</asrwt>
<pdfrwt beam="1">  1       21 0.22227738E-01 0.72993694E+02</pdfrwt>
<pdfrwt beam="2">  1       21 0.10611880E-01 0.72993694E+02</pdfrwt>
<totfact> 0.13596402E+06</totfact>
</mgrwt>
</event>
<event>
 5    1  0.1946229E+000  0.7007130E+02  0.7546771E-02  0.1359851E+00
         21   -1    0    0  503  502  0.00000000000E+00  0.00000000000E+00  0.16119579596E+02  0.16119579596E+02  0.00000000000E+00 0. -1.
         21   -1    0    0  501  503 -0.00000000000E+00 -0.00000000000E+00 -0.51423463762E+03  0.51423463762E+03  0.00000000000E+00 0. -1.
         24    1    1    2    0    0  0.48212827901E+01  0.21850153933E+02 -0.18703127324E+03  0.20481354232E+03  0.80419002446E+02 0. -1.
          1    1    1    2  501    0 -0.24215984910E+02 -0.27329757720E+02 -0.30062519594E+03  0.30283467109E+03  0.00000000000E+00 0. -1.
         -2    1    1    2    0  502  0.19394702120E+02  0.54796037877E+01 -0.10458588846E+02  0.22706003802E+02  0.00000000000E+00 0.  1.
<mgrwt>
<rscale>  2 0.70071297E+02</rscale>
<asrwt>0</asrwt>
<pdfrwt beam="1">  1       21 0.24799358E-02 0.70071297E+02</pdfrwt>
<pdfrwt beam="2">  1       21 0.79113004E-01 0.70071297E+02</pdfrwt>
<totfact> 0.12124751E+06</totfact>
</mgrwt>
</event>
<event>
 5    1  0.2437143E+000  0.8812363E+02  0.7546771E-02  0.1307460E+00
         21   -1    0    0  503  502  0.00000000000E+00  0.00000000000E+00  0.82314185820E+02  0.82314185820E+02  0.00000000000E+00 0.  1.
         21   -1    0    0  501  503 -0.00000000000E+00 -0.00000000000E+00 -0.59893402684E+03  0.59893402684E+03  0.00000000000E+00 0. -1.
         24    1    1    2    0    0 -0.41268517325E+01  0.11345910700E+02 -0.62264648548E+02  0.10242003226E+03  0.80419002446E+02 0. -1.
          1    1    1    2  501    0  0.49163326763E+02 -0.44277490952E+01 -0.50688920782E+03  0.50928705723E+03  0.00000000000E+00 0. -1.
         -2    1    1    2    0  502 -0.45036475031E+02 -0.69181616047E+01  0.52534015347E+02  0.69541123169E+02  0.00000000000E+00 0.  1.
<mgrwt>
<rscale>  2 0.88123627E+02</rscale>
<asrwt>0</asrwt>
<pdfrwt beam="1">  1       21 0.12663721E-01 0.88123627E+02</pdfrwt>
<pdfrwt beam="2">  1       21 0.92143697E-01 0.88123627E+02</pdfrwt>
<totfact> 0.56243678E+04</totfact>
</mgrwt>
</event>
<event>
 5    1  0.1946229E+000  0.9897146E+02  0.7546771E-02  0.1282474E+00
         21   -1    0    0  503  502  0.00000000000E+00  0.00000000000E+00  0.12821180681E+03  0.12821180681E+03  0.00000000000E+00 0.  1.
         21   -1    0    0  501  503 -0.00000000000E+00 -0.00000000000E+00 -0.28970359280E+03  0.28970359280E+03  0.00000000000E+00 0. -1.
         24    1    1    2    0    0  0.37795173193E+02 -0.38142332887E+02  0.33338098947E+02  0.10228371068E+03  0.80419002446E+02 0. -1.
          1    1    1    2  501    0 -0.57709083718E+02  0.51433389772E+02 -0.24668650624E+03  0.25851492082E+03  0.00000000000E+00 0. -1.
         -2    1    1    2    0  502  0.19913910525E+02 -0.13291056885E+02  0.51856621302E+02  0.57116768102E+02  0.00000000000E+00 0.  1.
<mgrwt>
<rscale>  2 0.98971460E+02</rscale>
<asrwt>0</asrwt>
<pdfrwt beam="1">  1       21 0.19724894E-01 0.98971460E+02</pdfrwt>
<pdfrwt beam="2">  1       21 0.44569783E-01 0.98971460E+02</pdfrwt>
<totfact> 0.11859910E+05</totfact>
</mgrwt>
</event>
<event>
 5    1  0.1946229E+000  0.6429390E+02  0.7546771E-02  0.1380647E+00
         21   -1    0    0  501  502  0.00000000000E+00  0.00000000000E+00  0.32268620476E+03  0.32268620476E+03  0.00000000000E+00 0.  1.
         21   -1    0    0  502  503 -0.00000000000E+00 -0.00000000000E+00 -0.13782357927E+02  0.13782357927E+02  0.00000000000E+00 0. -1.
         24    1    1    2    0    0  0.14177794814E+01  0.98525743099E+00  0.22911339068E+03  0.24282327437E+03  0.80419002446E+02 0.  1.
          1    1    1    2  501    0  0.23248575322E+02 -0.28034827405E+01  0.30067062198E+02  0.38110156116E+02  0.00000000000E+00 0. -1.
         -2    1    1    2    0  503 -0.24666354803E+02  0.18182253095E+01  0.49723393949E+02  0.55535132199E+02  0.00000000000E+00 0.  1.
<mgrwt>
<rscale>  2 0.64293904E+02</rscale>
<asrwt>0</asrwt>
<pdfrwt beam="1">  1       21 0.49644026E-01 0.64293904E+02</pdfrwt>
<pdfrwt beam="2">  1       21 0.21203630E-02 0.64293904E+02</pdfrwt>
<totfact> 0.41223894E+06</totfact>
</mgrwt>
</event>
<event>
 5    1  0.1946229E+000  0.7347583E+02  0.7546771E-02  0.1348657E+00
         21   -1    0    0  501  502  0.00000000000E+00  0.00000000000E+00  0.18364624781E+02  0.18364624781E+02  0.00000000000E+00 0.  1.
         21   -1    0    0  502  503 -0.00000000000E+00 -0.00000000000E+00 -0.33643997807E+03  0.33643997807E+03  0.00000000000E+00 0. -1.
         24    1    1    2    0    0  0.26829013875E+02 -0.43431371308E+02 -0.16777997037E+03  0.19293370471E+03  0.80419002446E+02 0.  1.
          1    1    1    2  501    0 -0.10988777652E+02  0.25529496742E+02 -0.38118770636E+02  0.47175725888E+02  0.00000000000E+00 0. -1.
         -2    1    1    2    0  503 -0.15840236223E+02  0.17901874565E+02 -0.11217661228E+03  0.11469517226E+03  0.00000000000E+00 0.  1.
<mgrwt>
<rscale>  2 0.73475828E+02</rscale>
<asrwt>0</asrwt>
<pdfrwt beam="1">  1       21 0.28253271E-02 0.73475828E+02</pdfrwt>
<pdfrwt beam="2">  1       21 0.51759994E-01 0.73475828E+02</pdfrwt>
<totfact> 0.24111377E+06</totfact>
</mgrwt>
</event>
<event>
 5    1  0.1946229E+000  0.1005525E+03  0.7546771E-02  0.1279138E+00
         21   -1    0    0  501  502  0.00000000000E+00  0.00000000000E+00  0.40593380005E+03  0.40593380005E+03  0.00000000000E+00 0.  1.
         21   -1    0    0  502  503 -0.00000000000E+00 -0.00000000000E+00 -0.87793184771E+02  0.87793184771E+02  0.00000000000E+00 0.  1.
         24    1    1    2    0    0 -0.71149964917E+02 -0.52727960487E+00  0.12049379426E+03  0.16139568130E+03  0.80419002446E+02 0.  1.
          1    1    1    2  501    0  0.47645381754E+02  0.29791883138E+02  0.25646941216E+03  0.26255322904E+03  0.00000000000E+00 0. -1.
         -2    1    1    2    0  503  0.23504583163E+02 -0.29264603533E+02 -0.58822591147E+02  0.69778074485E+02  0.00000000000E+00 0.  1.
<mgrwt>
<rscale>  2 0.10055246E+03</rscale>
<asrwt>0</asrwt>
<pdfrwt beam="1">  1       21 0.62451353E-01 0.10055246E+03</pdfrwt>
<pdfrwt beam="2">  1       21 0.13506644E-01 0.10055246E+03</pdfrwt>
<totfact> 0.11687146E+05</totfact>
</mgrwt>
</event>
<event>
 5    1  0.1946229E+000  0.6438241E+02  0.7546771E-02  0.1380310E+00
         21   -1    0    0  501  502  0.00000000000E+00  0.00000000000E+00  0.72059309001E+03  0.72059309001E+03  0.00000000000E+00 0. -1.
         21   -1    0    0  502  503 -0.00000000000E+00 -0.00000000000E+00 -0.10740256905E+02  0.10740256905E+02  0.00000000000E+00 0. -1.
         24    1    1    2    0    0 -0.19788135903E+02 -0.18057729221E+02  0.21919030142E+03  0.23500905536E+03  0.80419002446E+02 0. -1.
          1    1    1    2  501    0  0.23756384301E+02 -0.17302096392E+01  0.45273737730E+03  0.45336353209E+03  0.00000000000E+00 0. -1.
         -2    1    1    2    0  503 -0.39682483982E+01  0.19787938860E+02  0.37925154379E+02  0.42960759471E+02  0.00000000000E+00 0.  1.
<mgrwt>
<rscale>  2 0.64382409E+02</rscale>
<asrwt>0</asrwt>
<pdfrwt beam="1">  1       21 0.11086044E+00 0.64382409E+02</pdfrwt>
<pdfrwt beam="2">  1       21 0.16523478E-02 0.64382409E+02</pdfrwt>
<totfact> 0.10765674E+06</totfact>
</mgrwt>
</event>
<event>
 5    1  0.1946229E+000  0.7158271E+02  0.7546771E-02  0.1354792E+00
         21   -1    0    0  501  502  0.00000000000E+00  0.00000000000E+00  0.33117166851E+03  0.33117166851E+03  0.00000000000E+00 0.  1.
         21   -1    0    0  502  503 -0.00000000000E+00 -0.00000000000E+00 -0.19370407155E+02  0.19370407155E+02  0.00000000000E+00 0.  1.
         24    1    1    2    0    0  0.16905784930E+02 -0.15311457428E+01  0.20340652076E+03  0.21938454506E+03  0.80419002446E+02 0.  1.
          1    1    1    2  501    0 -0.10724895367E+00  0.28879040880E+02  0.89204685756E+02  0.93762926924E+02  0.00000000000E+00 0. -1.
         -2    1    1    2    0  503 -0.16798535977E+02 -0.27347895137E+02  0.19190054839E+02  0.37394603677E+02  0.00000000000E+00 0.  1.
<mgrwt>
<rscale>  2 0.71582708E+02</rscale>
<asrwt>0</asrwt>
<pdfrwt beam="1">  1       21 0.50949483E-01 0.71582708E+02</pdfrwt>
<pdfrwt beam="2">  1       21 0.29800629E-02 0.71582708E+02</pdfrwt>
<totfact> 0.22816532E+06</totfact>
</mgrwt>
</event>
<event>
 5    1  0.1946229E+000  0.1101726E+03  0.7546771E-02  0.1260251E+00
         21   -1    0    0  501  502  0.00000000000E+00  0.00000000000E+00  0.16775366605E+03  0.16775366605E+03  0.00000000000E+00 0.  1.
         21   -1    0    0  502  503 -0.00000000000E+00 -0.00000000000E+00 -0.83232640677E+02  0.83232640677E+02  0.00000000000E+00 0. -1.
         24    1    1    2    0    0 -0.77251800640E+02  0.31797060308E+02  0.45113334711E+01  0.11604508534E+03  0.80419002446E+02 0. -1.
          1    1    1    2  501    0 -0.43943025695E+01 -0.21675781562E+02  0.34335336768E+02  0.40841948440E+02  0.00000000000E+00 0. -1.
         -2    1    1    2    0  503  0.81646103210E+02 -0.10121278746E+02  0.45674355129E+02  0.94099272947E+02  0.00000000000E+00 0.  1.
<mgrwt>
<rscale>  2 0.11017257E+03</rscale>
<asrwt>0</asrwt>
<pdfrwt beam="1">  1       21 0.25808256E-01 0.11017257E+03</pdfrwt>
<pdfrwt beam="2">  1       21 0.12805022E-01 0.11017257E+03</pdfrwt>
<totfact> 0.74709909E+05</totfact>
</mgrwt>
</event>
<event>
 5    1  0.1946229E+000  0.6860277E+02  0.7546771E-02  0.1364910E+00
         21   -1    0    0  501  502  0.00000000000E+00  0.00000000000E+00  0.19844062549E+03  0.19844062549E+03  0.00000000000E+00 0. -1.
         21   -1    0    0  502  503 -0.00000000000E+00 -0.00000000000E+00 -0.54124472742E+02  0.54124472742E+02  0.00000000000E+00 0. -1.
         24    1    1    2    0    0  0.36447082994E+02 -0.26049866418E+02  0.86380502789E+01  0.92459814331E+02  0.80419002446E+02 0. -1.
          1    1    1    2  501    0 -0.17287557741E+02  0.15805377184E+02  0.13637077283E+03  0.13836783327E+03  0.00000000000E+00 0. -1.
         -2    1    1    2    0  503 -0.19159525253E+02  0.10244489234E+02 -0.69267036606E+00  0.21737450629E+02  0.00000000000E+00 0.  1.
<mgrwt>
<rscale>  2 0.68602767E+02</rscale>
<asrwt>0</asrwt>
<pdfrwt beam="1">  1       21 0.30529327E-01 0.68602767E+02</pdfrwt>
<pdfrwt beam="2">  1       21 0.83268420E-02 0.68602767E+02</pdfrwt>
<totfact> 0.11368981E+06</totfact>
</mgrwt>
</event>
<event>
 5    1  0.1946229E+000  0.7924974E+02  0.7546771E-02  0.1331194E+00
         21   -1    0    0  503  502  0.00000000000E+00  0.00000000000E+00  0.16572388311E+03  0.16572388311E+03  0.00000000000E+00 0. -1.
         21   -1    0    0  501  503 -0.00000000000E+00 -0.00000000000E+00 -0.65814060496E+02  0.65814060496E+02  0.00000000000E+00 0.  1.
         24    1    1    2    0    0  0.47069490683E+02 -0.11041430857E+01 -0.46935716143E+01  0.93305957227E+02  0.80419002446E+02 0.  1.
          1    1    1    2  501    0 -0.35657096014E+02  0.21717329157E+02  0.13119835827E+02  0.43763009197E+02  0.00000000000E+00 0. -1.
         -2    1    1    2    0  502 -0.11412394669E+02 -0.20613186071E+02  0.91483558404E+02  0.94468977185E+02  0.00000000000E+00 0.  1.
<mgrwt>
<rscale>  2 0.79249736E+02</rscale>
<asrwt>0</asrwt>
<pdfrwt beam="1">  1       21 0.25495982E-01 0.79249736E+02</pdfrwt>
<pdfrwt beam="2">  1       21 0.10125240E-01 0.79249736E+02</pdfrwt>
<totfact> 0.11466374E+06</totfact>
</mgrwt>
</event>
<event>
 5    1  0.1946229E+000  0.9408414E+02  0.7546771E-02  0.1293252E+00
         21   -1    0    0  501  502  0.00000000000E+00  0.00000000000E+00  0.41994468841E+02  0.41994468841E+02  0.00000000000E+00 0.  1.
         21   -1    0    0  502  503 -0.00000000000E+00 -0.00000000000E+00 -0.53607942747E+03  0.53607942747E+03  0.00000000000E+00 0.  1.
         24    1    1    2    0    0 -0.58181999106E+02 -0.48745176026E+02 -0.50346777394E+02  0.12150411991E+03  0.80419002446E+02 0.  1.
          1    1    1    2  501    0  0.23787493313E+02  0.10075308826E+02 -0.29925312263E+02  0.39533289770E+02  0.00000000000E+00 0. -1.
         -2    1    1    2    0  503  0.34394505792E+02  0.38669867200E+02 -0.41381286898E+03  0.41703648664E+03  0.00000000000E+00 0.  1.
<mgrwt>
<rscale>  2 0.94084136E+02</rscale>
<asrwt>0</asrwt>
<pdfrwt beam="1">  1       21 0.64606880E-02 0.94084136E+02</pdfrwt>
<pdfrwt beam="2">  1       21 0.82473752E-01 0.94084136E+02</pdfrwt>
<totfact> 0.22930086E+05</totfact>
</mgrwt>
</event>
<event>
 5    1  0.1946229E+000  0.8684619E+02  0.7546771E-02  0.1310674E+00
         21   -1    0    0  503  502  0.00000000000E+00  0.00000000000E+00  0.26363837308E+02  0.26363837308E+02  0.00000000000E+00 0. -1.
         21   -1    0    0  501  503 -0.00000000000E+00 -0.00000000000E+00 -0.38969833335E+03  0.38969833335E+03  0.00000000000E+00 0.  1.
         24    1    1    2    0    0 -0.17592469340E+02 -0.41740050262E+02 -0.99296283060E+02  0.13556804401E+03  0.80419002446E+02 0.  0.
          1    1    1    2  501    0  0.42125581650E+02  0.37697695808E+02 -0.23747114103E+03  0.24410699236E+03  0.00000000000E+00 0. -1.
         -2    1    1    2    0  502 -0.24533112310E+02  0.40423544542E+01 -0.26567071949E+02  0.36387134280E+02  0.00000000000E+00 0.  1.
<mgrwt>
<rscale>  2 0.86846193E+02</rscale>
<asrwt>0</asrwt>
<pdfrwt beam="1">  1       21 0.40559749E-02 0.86846193E+02</pdfrwt>
<pdfrwt beam="2">  1       21 0.59953591E-01 0.86846193E+02</pdfrwt>
<totfact> 0.99247526E+05</totfact>
</mgrwt>
</event>
<event>
 5    1  0.1946229E+000  0.1215054E+03  0.7546771E-02  0.1240634E+00
         21   -1    0    0  503  502  0.00000000000E+00  0.00000000000E+00  0.32824441196E+02  0.32824441196E+02  0.00000000000E+00 0.  1.
         21   -1    0    0  501  503 -0.00000000000E+00 -0.00000000000E+00 -0.62760806981E+03  0.62760806981E+03  0.00000000000E+00 0. -1.
         24    1    1    2    0    0  0.28549131387E+02  0.37291907791E+02 -0.11996751417E+03  0.15187218211E+03  0.80419002446E+02 0.  0.
          1    1    1    2  501    0 -0.41091939073E+01 -0.90885752626E+02 -0.41406342208E+03  0.42394058901E+03  0.00000000000E+00 0. -1.
         -2    1    1    2    0  502 -0.24439937480E+02  0.53593844835E+02 -0.60752692366E+02  0.84619739883E+02  0.00000000000E+00 0.  1.
<mgrwt>
<rscale>  2 0.12150535E+03</rscale>
<asrwt>0</asrwt>
<pdfrwt beam="1">  1       21 0.50499140E-02 0.12150535E+03</pdfrwt>
<pdfrwt beam="2">  1       21 0.96555088E-01 0.12150535E+03</pdfrwt>
<totfact> 0.24075988E+05</totfact>
</mgrwt>
</event>
<event>
 5    1  0.1946229E+000  0.6513233E+02  0.7546771E-02  0.1377474E+00
         21   -1    0    0  503  502  0.00000000000E+00  0.00000000000E+00  0.17738712547E+03  0.17738712547E+03  0.00000000000E+00 0.  1.
         21   -1    0    0  501  503 -0.00000000000E+00 -0.00000000000E+00 -0.26772916443E+02  0.26772916443E+02  0.00000000000E+00 0. -1.
         24    1    1    2    0    0 -0.35578698902E+01  0.17763685696E+01  0.80043935618E+02  0.11353440671E+03  0.80419002446E+02 0.  0.
          1    1    1    2  501    0 -0.58981829999E+01 -0.24465606257E+02  0.13662383247E+02  0.28635906974E+02  0.00000000000E+00 0. -1.
         -2    1    1    2    0  502  0.94560528901E+01  0.22689237687E+02  0.56907890159E+02  0.61989728225E+02  0.00000000000E+00 0.  1.
<mgrwt>
<rscale>  2 0.65132327E+02</rscale>
<asrwt>0</asrwt>
<pdfrwt beam="1">  1       21 0.27290326E-01 0.65132327E+02</pdfrwt>
<pdfrwt beam="2">  1       21 0.41189103E-02 0.65132327E+02</pdfrwt>
<totfact> 0.45207207E+06</totfact>
</mgrwt>
</event>
<event>
 5    1  0.1946229E+000  0.6874579E+02  0.7546771E-02  0.1364411E+00
         21   -1    0    0  501  502  0.00000000000E+00  0.00000000000E+00  0.33417722081E+01  0.33417722081E+01  0.00000000000E+00 0. -1.
         21   -1    0    0  502  503 -0.00000000000E+00 -0.00000000000E+00 -0.31332289855E+04  0.31332289855E+04  0.00000000000E+00 0.  1.
         24    1    1    2    0    0  0.88186169247E+01  0.21796515464E+02 -0.78933160718E+03  0.79376599709E+03  0.80419002446E+02 0.  0.
          1    1    1    2  501    0 -0.21172891960E+02  0.70574549623E+01 -0.12184342855E+03  0.12387057804E+03  0.00000000000E+00 0. -1.
         -2    1    1    2    0  503  0.12354275035E+02 -0.28853970426E+02 -0.22187121776E+04  0.22189341826E+04  0.00000000000E+00 0.  1.
<mgrwt>
<rscale>  2 0.68745788E+02</rscale>
<asrwt>0</asrwt>
<pdfrwt beam="1">  1       21 0.51411740E-03 0.68745788E+02</pdfrwt>
<pdfrwt beam="2">  1       21 0.48203655E+00 0.68745788E+02</pdfrwt>
<totfact> 0.34664928E+04</totfact>
</mgrwt>
</event>
<event>
 5    1  0.1946229E+000  0.6442222E+02  0.7546771E-02  0.1380158E+00
         21   -1    0    0  501  502  0.00000000000E+00  0.00000000000E+00  0.11192166083E+03  0.11192166083E+03  0.00000000000E+00 0. -1.
         21   -1    0    0  502  503 -0.00000000000E+00 -0.00000000000E+00 -0.22811435505E+03  0.22811435505E+03  0.00000000000E+00 0. -1.
         24    1    1    2    0    0 -0.16247387741E+02  0.19144283251E+02 -0.19620252730E+03  0.21352547591E+03  0.80419002446E+02 0. -1.
          1    1    1    2  501    0 -0.55923845467E+01 -0.21882549498E+02  0.96436375787E+02  0.99045925268E+02  0.00000000000E+00 0. -1.
         -2    1    1    2    0  503  0.21839772287E+02  0.27382662466E+01 -0.16426542707E+02  0.27464614705E+02  0.00000000000E+00 0.  1.
<mgrwt>
<rscale>  2 0.64422224E+02</rscale>
<asrwt>0</asrwt>
<pdfrwt beam="1">  1       21 0.17218717E-01 0.64422224E+02</pdfrwt>
<pdfrwt beam="2">  1       21 0.35094516E-01 0.64422224E+02</pdfrwt>
<totfact> 0.24584046E+05</totfact>
</mgrwt>
</event>
<event>
 5    1  0.1946229E+000  0.7011502E+02  0.7546771E-02  0.1359702E+00
         21   -1    0    0  503  502  0.00000000000E+00  0.00000000000E+00  0.82129787996E+02  0.82129787996E+02  0.00000000000E+00 0.  1.
         21   -1    0    0  501  503 -0.00000000000E+00 -0.00000000000E+00 -0.72447358502E+02  0.72447358502E+02  0.00000000000E+00 0. -1.
         24    1    1    2    0    0 -0.22483578638E+02 -0.11064272955E+02 -0.26016538521E+02  0.88158979550E+02  0.80419002446E+02 0. -1.
          1    1    1    2  501    0 -0.10830125370E+02  0.18892227038E+02  0.13237210624E+02  0.25483947950E+02  0.00000000000E+00 0. -1.
         -2    1    1    2    0  502  0.33313704008E+02 -0.78279540827E+01  0.22461757391E+02  0.40934218998E+02  0.00000000000E+00 0.  1.
<mgrwt>
<rscale>  2 0.70115021E+02</rscale>
<asrwt>0</asrwt>
<pdfrwt beam="1">  1       21 0.12635352E-01 0.70115021E+02</pdfrwt>
<pdfrwt beam="2">  1       21 0.11145747E-01 0.70115021E+02</pdfrwt>
<totfact> 0.34266847E+06</totfact>
</mgrwt>
</event>
<event>
 5    1  0.1946229E+000  0.1467099E+03  0.7546771E-02  0.1204575E+00
         21   -1    0    0  501  502  0.00000000000E+00  0.00000000000E+00  0.93169370037E+02  0.93169370037E+02  0.00000000000E+00 0. -1.
         21   -1    0    0  502  503 -0.00000000000E+00 -0.00000000000E+00 -0.35613632393E+03  0.35613632393E+03  0.00000000000E+00 0.  1.
         24    1    1    2    0    0 -0.35915584363E+02  0.35231316473E+02  0.79448458714E+01  0.95191971252E+02  0.80419002446E+02 0. -1.
          1    1    1    2  501    0  0.55118342756E+02 -0.10910178130E+03 -0.73908177484E+02  0.14284134237E+03  0.00000000000E+00 0. -1.
         -2    1    1    2    0  503 -0.19202758392E+02  0.73870464831E+02 -0.19700362228E+03  0.21127238034E+03  0.00000000000E+00 0.  1.
<mgrwt>
<rscale>  2 0.14670987E+03</rscale>
<asrwt>0</asrwt>
<pdfrwt beam="1">  1       21 0.14333749E-01 0.14670987E+03</pdfrwt>
<pdfrwt beam="2">  1       21 0.54790205E-01 0.14670987E+03</pdfrwt>
<totfact> 0.13610072E+05</totfact>
</mgrwt>
</event>
<event>
 5    1  0.1946229E+000  0.1290415E+03  0.7546771E-02  0.1228885E+00
         21   -1    0    0  501  502  0.00000000000E+00  0.00000000000E+00  0.13938047967E+03  0.13938047967E+03  0.00000000000E+00 0.  1.
         21   -1    0    0  502  503 -0.00000000000E+00 -0.00000000000E+00 -0.13509730774E+03  0.13509730774E+03  0.00000000000E+00 0.  1.
         24    1    1    2    0    0  0.75469271168E+02  0.14500241406E+02  0.24210804818E+02  0.11383868813E+03  0.80419002446E+02 0.  1.
          1    1    1    2  501    0  0.35315376782E+02 -0.48023711855E+01  0.21892698807E+02  0.41827369835E+02  0.00000000000E+00 0. -1.
         -2    1    1    2    0  503 -0.11078464795E+03 -0.96978702209E+01 -0.41820331697E+02  0.11881172944E+03  0.00000000000E+00 0.  1.
<mgrwt>
<rscale>  2 0.12904154E+03</rscale>
<asrwt>0</asrwt>
<pdfrwt beam="1">  1       21 0.21443151E-01 0.12904154E+03</pdfrwt>
<pdfrwt beam="2">  1       21 0.20784201E-01 0.12904154E+03</pdfrwt>
<totfact> 0.43918854E+05</totfact>
</mgrwt>
</event>
<event>
 5    1  0.1946229E+000  0.1043640E+03  0.7546771E-02  0.1271378E+00
         21   -1    0    0  503  502  0.00000000000E+00  0.00000000000E+00  0.31269618959E+02  0.31269618959E+02  0.00000000000E+00 0.  1.
         21   -1    0    0  501  503 -0.00000000000E+00 -0.00000000000E+00 -0.88441069672E+03  0.88441069672E+03  0.00000000000E+00 0. -1.
         24    1    1    2    0    0 -0.18225163989E+02  0.39226122337E+02 -0.72038071130E+02  0.11630797446E+03  0.80419002446E+02 0.  1.
          1    1    1    2  501    0 -0.18129580477E+02  0.32379363292E+02 -0.60137850810E+03  0.60252237706E+03  0.00000000000E+00 0. -1.
         -2    1    1    2    0  502  0.36354744465E+02 -0.71605485629E+02 -0.17972449853E+03  0.19684996416E+03  0.00000000000E+00 0.  1.
<mgrwt>
<rscale>  2 0.10436405E+03</rscale>
<asrwt>0</asrwt>
<pdfrwt beam="1">  1       21 0.48107109E-02 0.10436405E+03</pdfrwt>
<pdfrwt beam="2">  1       21 0.13606317E+00 0.10436405E+03</pdfrwt>
<totfact> 0.11533629E+05</totfact>
</mgrwt>
</event>
<event>
 5    1  0.1946229E+000  0.1097530E+03  0.7546771E-02  0.1261028E+00
         21   -1    0    0  501  502  0.00000000000E+00  0.00000000000E+00  0.30482504917E+03  0.30482504917E+03  0.00000000000E+00 0.  1.
         21   -1    0    0  502  503 -0.00000000000E+00 -0.00000000000E+00 -0.71351039750E+02  0.71351039750E+02  0.00000000000E+00 0. -1.
         24    1    1    2    0    0  0.58998278416E+02 -0.26135904436E+02  0.69853435118E+02  0.12454156217E+03  0.80419002446E+02 0.  1.
          1    1    1    2  501    0 -0.78772256529E+02  0.43585438204E+02  0.19250868528E+03  0.21251906440E+03  0.00000000000E+00 0. -1.
         -2    1    1    2    0  503  0.19773978114E+02 -0.17449533768E+02 -0.28888110978E+02  0.39115462353E+02  0.00000000000E+00 0.  1.
<mgrwt>
<rscale>  2 0.10975296E+03</rscale>
<asrwt>0</asrwt>
<pdfrwt beam="1">  1       21 0.46896161E-01 0.10975296E+03</pdfrwt>
<pdfrwt beam="2">  1       21 0.10977083E-01 0.10975296E+03</pdfrwt>
<totfact> 0.30459146E+05</totfact>
</mgrwt>
</event>
<event>
 5    1  0.1946229E+000  0.6345256E+02  0.7546771E-02  0.1383889E+00
         21   -1    0    0  501  502  0.00000000000E+00  0.00000000000E+00  0.26587572245E+02  0.26587572245E+02  0.00000000000E+00 0. -1.
         21   -1    0    0  502  503 -0.00000000000E+00 -0.00000000000E+00 -0.45250550630E+03  0.45250550630E+03  0.00000000000E+00 0. -1.
         24    1    1    2    0    0  0.29941188550E+01 -0.52188873553E+01 -0.18508052489E+03  0.20188664686E+03  0.80419002446E+02 0. -1.
          1    1    1    2  501    0 -0.20682428532E+02 -0.99575934694E+01  0.10179008621E+02  0.25110331224E+02  0.00000000000E+00 0. -1.
         -2    1    1    2    0  503  0.17688309677E+02  0.15176480825E+02 -0.25101641778E+03  0.25209610046E+03  0.00000000000E+00 0.  1.
<mgrwt>
<rscale>  2 0.63452561E+02</rscale>
<asrwt>0</asrwt>
<pdfrwt beam="1">  1       21 0.40903959E-02 0.63452561E+02</pdfrwt>
<pdfrwt beam="2">  1       21 0.69616228E-01 0.63452561E+02</pdfrwt>
<totfact> 0.71005367E+05</totfact>
</mgrwt>
</event>
<event>
 5    1  0.1946229E+000  0.6705357E+02  0.7546771E-02  0.1370409E+00
         21   -1    0    0  503  502  0.00000000000E+00  0.00000000000E+00  0.50308918544E+03  0.50308918544E+03  0.00000000000E+00 0.  1.
         21   -1    0    0  501  503 -0.00000000000E+00 -0.00000000000E+00 -0.24953350927E+02  0.24953350927E+02  0.00000000000E+00 0.  1.
         24    1    1    2    0    0 -0.12500760880E+02 -0.20089006305E+02  0.59070407332E+02  0.10254933532E+03  0.80419002446E+02 0.  1.
          1    1    1    2  501    0  0.22371072962E+02 -0.53422536499E+01  0.45979399685E+02  0.51411183365E+02  0.00000000000E+00 0. -1.
         -2    1    1    2    0  502 -0.98703120828E+01  0.25431259955E+02  0.37308602750E+03  0.37408201769E+03  0.00000000000E+00 0.  1.
<mgrwt>
<rscale>  2 0.67053568E+02</rscale>
<asrwt>0</asrwt>
<pdfrwt beam="1">  1       21 0.77398329E-01 0.67053568E+02</pdfrwt>
<pdfrwt beam="2">  1       21 0.38389774E-02 0.67053568E+02</pdfrwt>
<totfact> 0.62728180E+05</totfact>
</mgrwt>
</event>
<event>
 5    1  0.1946229E+000  0.1131271E+03  0.7546771E-02  0.1254886E+00
         21   -1    0    0  501  502  0.00000000000E+00  0.00000000000E+00  0.12954685062E+03  0.12954685062E+03  0.00000000000E+00 0.  1.
         21   -1    0    0  502  503 -0.00000000000E+00 -0.00000000000E+00 -0.16479959761E+03  0.16479959761E+03  0.00000000000E+00 0. -1.
         24    1    1    2    0    0  0.69648056361E+01  0.98076717738E+02 -0.20316307585E+02  0.12863716177E+03  0.80419002446E+02 0.  0.
          1    1    1    2  501    0  0.37764623760E+01 -0.39322578530E+02  0.58787372168E+02  0.70827127407E+02  0.00000000000E+00 0. -1.
         -2    1    1    2    0  503 -0.10741268012E+02 -0.58754139209E+02 -0.73723811579E+02  0.94882159052E+02  0.00000000000E+00 0.  1.
<mgrwt>
<rscale>  2 0.11312706E+03</rscale>
<asrwt>0</asrwt>
<pdfrwt beam="1">  1       21 0.19930285E-01 0.11312706E+03</pdfrwt>
<pdfrwt beam="2">  1       21 0.25353784E-01 0.11312706E+03</pdfrwt>
<totfact> 0.34744530E+05</totfact>
</mgrwt>
</event>
<event>
 5    1  0.1946229E+000  0.8144301E+02  0.7546771E-02  0.1325006E+00
         21   -1    0    0  501  502  0.00000000000E+00  0.00000000000E+00  0.74955261657E+02  0.74955261657E+02  0.00000000000E+00 0.  1.
         21   -1    0    0  502  503 -0.00000000000E+00 -0.00000000000E+00 -0.29486790383E+03  0.29486790383E+03  0.00000000000E+00 0. -1.
         24    1    1    2    0    0  0.21255910775E+01  0.61427620906E+02 -0.40292082620E+01  0.10129817975E+03  0.80419002446E+02 0.  1.
          1    1    1    2  501    0  0.15112999187E+01 -0.28523504555E+02  0.17040453533E+02  0.33260357728E+02  0.00000000000E+00 0. -1.
         -2    1    1    2    0  503 -0.36368909961E+01 -0.32904116351E+02 -0.23292388745E+03  0.23526462801E+03  0.00000000000E+00 0.  1.
<mgrwt>
<rscale>  2 0.81443014E+02</rscale>
<asrwt>0</asrwt>
<pdfrwt beam="1">  1       21 0.11531579E-01 0.81443014E+02</pdfrwt>
<pdfrwt beam="2">  1       21 0.45364293E-01 0.81443014E+02</pdfrwt>
<totfact> 0.30034627E+05</totfact>
</mgrwt>
</event>
<event>
 5    1  0.1946229E+000  0.9208763E+02  0.7546771E-02  0.1297874E+00
         21   -1    0    0  501  502  0.00000000000E+00  0.00000000000E+00  0.42544526406E+02  0.42544526406E+02  0.00000000000E+00 0.  1.
         21   -1    0    0  502  503 -0.00000000000E+00 -0.00000000000E+00 -0.24990919850E+03  0.24990919850E+03  0.00000000000E+00 0.  1.
         24    1    1    2    0    0 -0.41764799293E+02  0.98214377282E+01 -0.78702154226E+02  0.12042426721E+03  0.80419002446E+02 0.  1.
          1    1    1    2  501    0 -0.22885102304E+02  0.10610844066E+02  0.14963934497E+01  0.25269687624E+02  0.00000000000E+00 0. -1.
         -2    1    1    2    0  503  0.64649901598E+02 -0.20432281794E+02 -0.13015891132E+03  0.14675977007E+03  0.00000000000E+00 0.  1.
<mgrwt>
<rscale>  2 0.92087633E+02</rscale>
<asrwt>0</asrwt>
<pdfrwt beam="1">  1       21 0.65453118E-02 0.92087633E+02</pdfrwt>
<pdfrwt beam="2">  1       21 0.38447569E-01 0.92087633E+02</pdfrwt>
<totfact> 0.11031888E+06</totfact>
</mgrwt>
</event>
<event>
 5    1  0.1946229E+000  0.7772136E+02  0.7546771E-02  0.1335645E+00
         21   -1    0    0  503  502  0.00000000000E+00  0.00000000000E+00  0.55241784954E+03  0.55241784954E+03  0.00000000000E+00 0.  1.
         21   -1    0    0  501  503 -0.00000000000E+00 -0.00000000000E+00 -0.75686498561E+02  0.75686498561E+02  0.00000000000E+00 0. -1.
         24    1    1    2    0    0 -0.21007635354E+01  0.34330107072E+01  0.94395494298E+02  0.12407225342E+03  0.80419002446E+02 0.  1.
          1    1    1    2  501    0 -0.36112666738E+02 -0.60678737619E+01 -0.54423557102E+02  0.65596245003E+02  0.00000000000E+00 0. -1.
         -2    1    1    2    0  502  0.38213430273E+02  0.26348630547E+01  0.43675941378E+03  0.43843584968E+03  0.00000000000E+00 0.  1.
<mgrwt>
<rscale>  2 0.77721357E+02</rscale>
<asrwt>0</asrwt>
<pdfrwt beam="1">  1       21 0.84987359E-01 0.77721357E+02</pdfrwt>
<pdfrwt beam="2">  1       21 0.11644077E-01 0.77721357E+02</pdfrwt>
<totfact> 0.78732285E+04</totfact>
</mgrwt>
</event>
<event>
 5    1  0.1946229E+000  0.8403103E+02  0.7546771E-02  0.1317986E+00
         21   -1    0    0  503  502  0.00000000000E+00  0.00000000000E+00  0.13593039683E+03  0.13593039683E+03  0.00000000000E+00 0. -1.
         21   -1    0    0  501  503 -0.00000000000E+00 -0.00000000000E+00 -0.92685526015E+02  0.92685526015E+02  0.00000000000E+00 0. -1.
         24    1    1    2    0    0 -0.99578631195E+01 -0.55372721692E+02 -0.37890173331E+00  0.98146099598E+02  0.80419002446E+02 0. -1.
          1    1    1    2  501    0 -0.13975159981E+02  0.37579931346E+02 -0.30627162378E+02  0.50453735361E+02  0.00000000000E+00 0. -1.
         -2    1    1    2    0  502  0.23933023101E+02  0.17792790346E+02  0.74250934923E+02  0.80016087882E+02  0.00000000000E+00 0.  1.
<mgrwt>
<rscale>  2 0.84031034E+02</rscale>
<asrwt>0</asrwt>
<pdfrwt beam="1">  1       21 0.20912369E-01 0.84031034E+02</pdfrwt>
<pdfrwt beam="2">  1       21 0.14259312E-01 0.84031034E+02</pdfrwt>
<totfact> 0.91001164E+05</totfact>
</mgrwt>
</event>
<event>
 5    1  0.1946229E+000  0.6882852E+02  0.7546771E-02  0.1364123E+00
         21   -1    0    0  503  502  0.00000000000E+00  0.00000000000E+00  0.35244144900E+01  0.35244144900E+01  0.00000000000E+00 0. -1.
         21   -1    0    0  501  503 -0.00000000000E+00 -0.00000000000E+00 -0.16389267349E+04  0.16389267349E+04  0.00000000000E+00 0.  1.
         24    1    1    2    0    0 -0.30178498480E+02  0.61845396578E+01 -0.86915732252E+03  0.87341322268E+03  0.80419002446E+02 0.  1.
          1    1    1    2  501    0  0.11250824163E+02  0.17756188794E+02 -0.57406521930E+03  0.57444994498E+03  0.00000000000E+00 0. -1.
         -2    1    1    2    0  502  0.18927674317E+02 -0.23940728451E+02 -0.19217977858E+03  0.19458798172E+03  0.00000000000E+00 0.  1.
<mgrwt>
<rscale>  2 0.68828520E+02</rscale>
<asrwt>0</asrwt>
<pdfrwt beam="1">  1       21 0.54221680E-03 0.68828520E+02</pdfrwt>
<pdfrwt beam="2">  1       21 0.25214295E+00 0.68828520E+02</pdfrwt>
<totfact> 0.68579098E+05</totfact>
</mgrwt>
</event>
<event>
 5    1  0.1946229E+000  0.8125023E+02  0.7546771E-02  0.1325540E+00
         21   -1    0    0  501  502  0.00000000000E+00  0.00000000000E+00  0.21604173256E+02  0.21604173256E+02  0.00000000000E+00 0. -1.
         21   -1    0    0  502  503 -0.00000000000E+00 -0.00000000000E+00 -0.40171281790E+03  0.40171281790E+03  0.00000000000E+00 0.  1.
         24    1    1    2    0    0  0.72412389033E+01  0.42120614789E+02 -0.22661978801E+03  0.24423416223E+03  0.80419002446E+02 0.  1.
          1    1    1    2  501    0  0.24311763953E+02 -0.27342490691E+02 -0.21207689732E+02  0.42289948776E+02  0.00000000000E+00 0. -1.
         -2    1    1    2    0  503 -0.31553002856E+02 -0.14778124099E+02 -0.13228116690E+03  0.13679288015E+03  0.00000000000E+00 0.  1.
<mgrwt>
<rscale>  2 0.81250233E+02</rscale>
<asrwt>0</asrwt>
<pdfrwt beam="1">  1       21 0.33237192E-02 0.81250233E+02</pdfrwt>
<pdfrwt beam="2">  1       21 0.61801967E-01 0.81250233E+02</pdfrwt>
<totfact> 0.12880560E+06</totfact>
</mgrwt>
</event>
<event>
 5    1  0.1946229E+000  0.8892891E+02  0.7546771E-02  0.1305466E+00
         21   -1    0    0  503  502  0.00000000000E+00  0.00000000000E+00  0.34066035053E+03  0.34066035053E+03  0.00000000000E+00 0.  1.
         21   -1    0    0  501  503 -0.00000000000E+00 -0.00000000000E+00 -0.44989411271E+02  0.44989411271E+02  0.00000000000E+00 0. -1.
         24    1    1    2    0    0  0.59152767767E+01 -0.94727020071E+01  0.14204455118E+03  0.16361110310E+03  0.80419002446E+02 0.  0.
          1    1    1    2  501    0 -0.16024920678E+02  0.51243264498E+02 -0.84587220735E+01  0.54352738829E+02  0.00000000000E+00 0. -1.
         -2    1    1    2    0  502  0.10109643901E+02 -0.41770562490E+02  0.16208511015E+03  0.16768591988E+03  0.00000000000E+00 0.  1.
<mgrwt>
<rscale>  2 0.88928910E+02</rscale>
<asrwt>0</asrwt>
<pdfrwt beam="1">  1       21 0.52409283E-01 0.88928910E+02</pdfrwt>
<pdfrwt beam="2">  1       21 0.69214481E-02 0.88928910E+02</pdfrwt>
<totfact> 0.53808504E+05</totfact>
</mgrwt>
</event>
<event>
 5    1  0.1946229E+000  0.1398261E+03  0.7546771E-02  0.1213563E+00
         21   -1    0    0  503  502  0.00000000000E+00  0.00000000000E+00  0.24709502005E+03  0.24709502005E+03  0.00000000000E+00 0. -1.
         21   -1    0    0  501  503 -0.00000000000E+00 -0.00000000000E+00 -0.91292579085E+02  0.91292579085E+02  0.00000000000E+00 0. -1.
         24    1    1    2    0    0 -0.85624562141E+02 -0.92810746951E+02  0.13448738571E+03  0.20124480928E+03  0.80419002446E+02 0. -1.
          1    1    1    2  501    0  0.70136223433E+02  0.55149455915E+02 -0.37932945323E+01  0.89302527447E+02  0.00000000000E+00 0. -1.
         -2    1    1    2    0  502  0.15488338708E+02  0.37661291036E+02  0.25108349785E+02  0.47840262409E+02  0.00000000000E+00 0.  1.
<mgrwt>
<rscale>  2 0.13982606E+03</rscale>
<asrwt>0</asrwt>
<pdfrwt beam="1">  1       21 0.38014618E-01 0.13982606E+03</pdfrwt>
<pdfrwt beam="2">  1       21 0.14045012E-01 0.13982606E+03</pdfrwt>
<totfact> 0.29840008E+05</totfact>
</mgrwt>
</event>
<event>
 5    1  0.1946229E+000  0.6746757E+02  0.7546771E-02  0.1368923E+00
         21   -1    0    0  501  502  0.00000000000E+00  0.00000000000E+00  0.65516558095E+02  0.65516558095E+02  0.00000000000E+00 0. -1.
         21   -1    0    0  502  503 -0.00000000000E+00 -0.00000000000E+00 -0.73154501837E+02  0.73154501837E+02  0.00000000000E+00 0.  1.
         24    1    1    2    0    0  0.42310165977E+02 -0.42279042951E+01 -0.14236005886E+02  0.92075540388E+02  0.80419002446E+02 0.  1.
          1    1    1    2  501    0 -0.22126288235E+02  0.78165096711E+01  0.10531339243E+02  0.25721188945E+02  0.00000000000E+00 0. -1.
         -2    1    1    2    0  503 -0.20183877743E+02 -0.35886053760E+01 -0.39332770987E+01  0.20874330600E+02  0.00000000000E+00 0.  1.
<mgrwt>
<rscale>  2 0.67467568E+02</rscale>
<asrwt>0</asrwt>
<pdfrwt beam="1">  1       21 0.10079471E-01 0.67467568E+02</pdfrwt>
<pdfrwt beam="2">  1       21 0.11254539E-01 0.67467568E+02</pdfrwt>
<totfact> 0.49714734E+06</totfact>
</mgrwt>
</event>
<event>
 5    1  0.1946229E+000  0.7818899E+02  0.7546771E-02  0.1334271E+00
         21   -1    0    0  503  502  0.00000000000E+00  0.00000000000E+00  0.21014167358E+03  0.21014167358E+03  0.00000000000E+00 0. -1.
         21   -1    0    0  501  503 -0.00000000000E+00 -0.00000000000E+00 -0.82110591624E+02  0.82110591624E+02  0.00000000000E+00 0. -1.
         24    1    1    2    0    0 -0.23707468874E+02  0.69626816488E+01  0.98916830477E+02  0.12985483557E+03  0.80419002446E+02 0. -1.
          1    1    1    2  501    0  0.40063893007E+02  0.16764577489E+02 -0.56959207777E+02  0.71627633856E+02  0.00000000000E+00 0. -1.
         -2    1    1    2    0  502 -0.16356424133E+02 -0.23727259138E+02  0.86073459258E+02  0.90769795776E+02  0.00000000000E+00 0.  1.
<mgrwt>
<rscale>  2 0.78188992E+02</rscale>
<asrwt>0</asrwt>
<pdfrwt beam="1">  1       21 0.32329488E-01 0.78188992E+02</pdfrwt>
<pdfrwt beam="2">  1       21 0.12632399E-01 0.78188992E+02</pdfrwt>
<totfact> 0.49767089E+05</totfact>
</mgrwt>
</event>
<event>
 5    1  0.1946229E+000  0.7405667E+02  0.7546771E-02  0.1346817E+00
         21   -1    0    0  501  502  0.00000000000E+00  0.00000000000E+00  0.40670082002E+02  0.40670082002E+02  0.00000000000E+00 0. -1.
         21   -1    0    0  502  503 -0.00000000000E+00 -0.00000000000E+00 -0.38939918802E+03  0.38939918802E+03  0.00000000000E+00 0. -1.
         24    1    1    2    0    0  0.17777508909E+02  0.43364675945E+01 -0.28307104220E+03  0.29484110239E+03  0.80419002446E+02 0. -1.
          1    1    1    2  501    0 -0.18092190204E+02 -0.32647782837E+02  0.21852067934E+02  0.43251796998E+02  0.00000000000E+00 0. -1.
         -2    1    1    2    0  503  0.31468129492E+00  0.28311315243E+02 -0.87510131751E+02  0.91976370630E+02  0.00000000000E+00 0.  1.
<mgrwt>
<rscale>  2 0.74056666E+02</rscale>
<asrwt>0</asrwt>
<pdfrwt beam="1">  1       21 0.62569356E-02 0.74056666E+02</pdfrwt>
<pdfrwt beam="2">  1       21 0.59907568E-01 0.74056666E+02</pdfrwt>
<totfact> 0.48344299E+05</totfact>
</mgrwt>
</event>
<event>
 5    1  0.1946229E+000  0.8823615E+02  0.7546771E-02  0.1307180E+00
         21   -1    0    0  501  502  0.00000000000E+00  0.00000000000E+00  0.51463735201E+02  0.51463735201E+02  0.00000000000E+00 0. -1.
         21   -1    0    0  502  503 -0.00000000000E+00 -0.00000000000E+00 -0.21435241930E+03  0.21435241930E+03  0.00000000000E+00 0.  1.
         24    1    1    2    0    0 -0.28686088764E+02  0.17682006490E+02 -0.89119225570E+02  0.12467957877E+03  0.80419002446E+02 0.  1.
          1    1    1    2  501    0  0.35969405500E+02 -0.46934769811E+02  0.24383696237E+01  0.59182906279E+02  0.00000000000E+00 0. -1.
         -2    1    1    2    0  503 -0.72833167354E+01  0.29252763320E+02 -0.76207828148E+02  0.81953669446E+02  0.00000000000E+00 0.  1.
<mgrwt>
<rscale>  2 0.88236147E+02</rscale>
<asrwt>0</asrwt>
<pdfrwt beam="1">  1       21 0.79174979E-02 0.88236147E+02</pdfrwt>
<pdfrwt beam="2">  1       21 0.32977295E-01 0.88236147E+02</pdfrwt>
<totfact> 0.10760701E+06</totfact>
</mgrwt>
</event>
<event>
 5    1  0.1946229E+000  0.7773944E+02  0.7546771E-02  0.1335592E+00
         21   -1    0    0  501  502  0.00000000000E+00  0.00000000000E+00  0.15562067312E+04  0.15562067312E+04  0.00000000000E+00 0. -1.
         21   -1    0    0  502  503 -0.00000000000E+00 -0.00000000000E+00 -0.49911356809E+01  0.49911356809E+01  0.00000000000E+00 0.  1.
         24    1    1    2    0    0  0.43593384392E+01  0.21894933727E+02  0.65315956807E+03  0.65847021897E+03  0.80419002446E+02 0.  1.
          1    1    1    2  501    0 -0.37108080221E+01  0.24922244639E+02  0.63752555084E+03  0.63802328825E+03  0.00000000000E+00 0. -1.
         -2    1    1    2    0  503 -0.64853041706E+00 -0.46817178366E+02  0.26053047660E+03  0.26470435965E+03  0.00000000000E+00 0.  1.
<mgrwt>
<rscale>  2 0.77739439E+02</rscale>
<asrwt>0</asrwt>
<pdfrwt beam="1">  1       21 0.23941603E+00 0.77739439E+02</pdfrwt>
<pdfrwt beam="2">  1       21 0.76786827E-03 0.77739439E+02</pdfrwt>
<totfact> 0.46922926E+05</totfact>
</mgrwt>
</event>
<event>
 5    1  0.1946229E+000  0.1523646E+03  0.7546771E-02  0.1197597E+00
         21   -1    0    0  501  502  0.00000000000E+00  0.00000000000E+00  0.26212904877E+02  0.26212904877E+02  0.00000000000E+00 0. -1.
         21   -1    0    0  502  503 -0.00000000000E+00 -0.00000000000E+00 -0.10396643689E+04  0.10396643689E+04  0.00000000000E+00 0.  1.
         24    1    1    2    0    0  0.26981937719E+02  0.91766558135E+01 -0.31520385677E+03  0.32654696945E+03  0.80419002446E+02 0.  1.
          1    1    1    2  501    0  0.95401184019E+02  0.84018100297E+01 -0.15507823163E+03  0.18226693131E+03  0.00000000000E+00 0. -1.
         -2    1    1    2    0  503 -0.12238312174E+03 -0.17578465843E+02 -0.54316937560E+03  0.55706337299E+03  0.00000000000E+00 0.  1.
<mgrwt>
<rscale>  2 0.15236463E+03</rscale>
<asrwt>0</asrwt>
<pdfrwt beam="1">  1       21 0.40327554E-02 0.15236463E+03</pdfrwt>
<pdfrwt beam="2">  1       21 0.15994833E+00 0.15236463E+03</pdfrwt>
<totfact> 0.99403988E+04</totfact>
</mgrwt>
</event>
<event>
 5    1  0.1946229E+000  0.6457633E+02  0.7546771E-02  0.1379572E+00
         21   -1    0    0  501  502  0.00000000000E+00  0.00000000000E+00  0.14314342847E+04  0.14314342847E+04  0.00000000000E+00 0.  1.
         21   -1    0    0  502  503 -0.00000000000E+00 -0.00000000000E+00 -0.42399269388E+01  0.42399269388E+01  0.00000000000E+00 0.  1.
         24    1    1    2    0    0  0.42590374221E+01  0.65697986070E+01  0.10383221929E+04  0.10414612301E+04  0.80419002446E+02 0.  1.
          1    1    1    2  501    0  0.21732087670E+02 -0.89801316276E+00  0.31404899058E+03  0.31480130010E+03  0.00000000000E+00 0. -1.
         -2    1    1    2    0  503 -0.25991125092E+02 -0.56717854443E+01  0.74823174333E+02  0.79411681451E+02  0.00000000000E+00 0.  1.
<mgrwt>
<rscale>  2 0.64576327E+02</rscale>
<asrwt>0</asrwt>
<pdfrwt beam="1">  1       21 0.22022027E+00 0.64576327E+02</pdfrwt>
<pdfrwt beam="2">  1       21 0.65229759E-03 0.64576327E+02</pdfrwt>
<totfact> 0.78215515E+05</totfact>
</mgrwt>
</event>
<event>
 5    1  0.1946229E+000  0.9458764E+02  0.7546771E-02  0.1292108E+00
         21   -1    0    0  503  502  0.00000000000E+00  0.00000000000E+00  0.51507427426E+02  0.51507427426E+02  0.00000000000E+00 0.  1.
         21   -1    0    0  501  503 -0.00000000000E+00 -0.00000000000E+00 -0.18744252793E+03  0.18744252793E+03  0.00000000000E+00 0. -1.
         24    1    1    2    0    0 -0.46659109607E+02  0.20363220798E+02 -0.49719942886E+02  0.10738259610E+03  0.80419002446E+02 0.  0.
          1    1    1    2  501    0 -0.22358503565E+02 -0.13069035822E+01 -0.41482233811E+02  0.47142193421E+02  0.00000000000E+00 0. -1.
         -2    1    1    2    0  502  0.69017613172E+02 -0.19056317216E+02 -0.44732923810E+02  0.84425165835E+02  0.00000000000E+00 0.  1.
<mgrwt>
<rscale>  2 0.94587639E+02</rscale>
<asrwt>0</asrwt>
<pdfrwt beam="1">  1       21 0.79242196E-02 0.94587639E+02</pdfrwt>
<pdfrwt beam="2">  1       21 0.28837312E-01 0.94587639E+02</pdfrwt>
<totfact> 0.13917991E+06</totfact>
</mgrwt>
</event>
<event>
 5    1  0.1946229E+000  0.9512355E+02  0.7546771E-02  0.1290898E+00
         21   -1    0    0  503  502  0.00000000000E+00  0.00000000000E+00  0.49889826808E+02  0.49889826808E+02  0.00000000000E+00 0. -1.
         21   -1    0    0  501  503 -0.00000000000E+00 -0.00000000000E+00 -0.67982173805E+03  0.67982173805E+03  0.00000000000E+00 0. -1.
         24    1    1    2    0    0 -0.47826487141E+01  0.77001573699E+02 -0.43260000234E+02  0.11954396537E+03  0.80419002446E+02 0. -1.
          1    1    1    2  501    0 -0.44089430778E+01 -0.51664014399E+02 -0.58011575524E+03  0.58242844937E+03  0.00000000000E+00 0. -1.
         -2    1    1    2    0  502  0.91915917919E+01 -0.25337559300E+02 -0.65561557734E+01  0.27739150122E+02  0.00000000000E+00 0.  1.
<mgrwt>
<rscale>  2 0.95123550E+02</rscale>
<asrwt>0</asrwt>
<pdfrwt beam="1">  1       21 0.76753584E-02 0.95123550E+02</pdfrwt>
<pdfrwt beam="2">  1       21 0.10458795E+00 0.95123550E+02</pdfrwt>
<totfact> 0.99517714E+04</totfact>
</mgrwt>
</event>
<event>
 5    1  0.1946229E+000  0.1007590E+03  0.7546771E-02  0.1278708E+00
         21   -1    0    0  503  502  0.00000000000E+00  0.00000000000E+00  0.24613412145E+03  0.24613412145E+03  0.00000000000E+00 0. -1.
         21   -1    0    0  501  503 -0.00000000000E+00 -0.00000000000E+00 -0.44091053858E+02  0.44091053858E+02  0.00000000000E+00 0. -1.
         24    1    1    2    0    0 -0.34456038459E+02  0.34936879947E+02  0.60109341342E+02  0.11175040509E+03  0.80419002446E+02 0. -1.
          1    1    1    2  501    0  0.57024073029E+02 -0.53421822573E+02  0.92613623536E+02  0.12117309642E+03  0.00000000000E+00 0. -1.
         -2    1    1    2    0  502 -0.22568034570E+02  0.18484942626E+02  0.49320102710E+02  0.57301673793E+02  0.00000000000E+00 0.  1.
<mgrwt>
<rscale>  2 0.10075898E+03</rscale>
<asrwt>0</asrwt>
<pdfrwt beam="1">  1       21 0.37866787E-01 0.10075898E+03</pdfrwt>
<pdfrwt beam="2">  1       21 0.67832392E-02 0.10075898E+03</pdfrwt>
<totfact> 0.10716992E+06</totfact>
</mgrwt>
</event>
<event>
 5    1  0.1946229E+000  0.9120744E+02  0.7546771E-02  0.1299954E+00
         21   -1    0    0  503  502  0.00000000000E+00  0.00000000000E+00  0.13206901567E+02  0.13206901567E+02  0.00000000000E+00 0.  1.
         21   -1    0    0  501  503 -0.00000000000E+00 -0.00000000000E+00 -0.30020837766E+04  0.30020837766E+04  0.00000000000E+00 0. -1.
         24    1    1    2    0    0  0.26470762463E+01 -0.42278603844E+02 -0.15510983889E+04  0.15537592849E+04  0.80419002446E+02 0. -1.
          1    1    1    2  501    0  0.38533391024E+02  0.29087229398E+02 -0.14084608092E+04  0.14092880260E+04  0.00000000000E+00 0. -1.
         -2    1    1    2    0  502 -0.41180467270E+02  0.13191374445E+02 -0.29317676898E+02  0.52243367264E+02  0.00000000000E+00 0.  1.
<mgrwt>
<rscale>  2 0.91207440E+02</rscale>
<asrwt>0</asrwt>
<pdfrwt beam="1">  1       21 0.20318311E-02 0.91207440E+02</pdfrwt>
<pdfrwt beam="2">  1       21 0.46185903E+00 0.91207440E+02</pdfrwt>
<totfact> 0.51163925E+03</totfact>
</mgrwt>
</event>
<event>
 5    1  0.1946229E+000  0.7538317E+02  0.7546771E-02  0.1342689E+00
         21   -1    0    0  503  502  0.00000000000E+00  0.00000000000E+00  0.11929069125E+03  0.11929069125E+03  0.00000000000E+00 0.  1.
         21   -1    0    0  501  503 -0.00000000000E+00 -0.00000000000E+00 -0.68659631592E+02  0.68659631592E+02  0.00000000000E+00 0.  1.
         24    1    1    2    0    0  0.30840679048E+02 -0.42990554997E+02 -0.54929597308E+01  0.96419520140E+02  0.80419002446E+02 0.  1.
          1    1    1    2  501    0 -0.94946672506E+01  0.24453077683E+02 -0.25954165956E+01  0.26359778104E+02  0.00000000000E+00 0. -1.
         -2    1    1    2    0  502 -0.21346011797E+02  0.18537477313E+02  0.58719435988E+02  0.65171024601E+02  0.00000000000E+00 0.  1.
<mgrwt>
<rscale>  2 0.75383172E+02</rscale>
<asrwt>0</asrwt>
<pdfrwt beam="1">  1       21 0.18352414E-01 0.75383172E+02</pdfrwt>
<pdfrwt beam="2">  1       21 0.10563020E-01 0.75383172E+02</pdfrwt>
<totfact> 0.19457873E+06</totfact>
</mgrwt>
</event>
<event>
 5    1  0.1946229E+000  0.9807760E+02  0.7546771E-02  0.1284391E+00
         21   -1    0    0  501  502  0.00000000000E+00  0.00000000000E+00  0.14841004897E+03  0.14841004897E+03  0.00000000000E+00 0. -1.
         21   -1    0    0  502  503 -0.00000000000E+00 -0.00000000000E+00 -0.11956388509E+03  0.11956388509E+03  0.00000000000E+00 0. -1.
         24    1    1    2    0    0  0.27466054058E+02  0.37737456642E+02 -0.25143092756E+02  0.96321808678E+02  0.80419002446E+02 0. -1.
          1    1    1    2  501    0 -0.21018693971E+02 -0.68546393253E+02  0.95587086934E+02  0.11948759230E+03  0.00000000000E+00 0. -1.
         -2    1    1    2    0  503 -0.64473600867E+01  0.30808936611E+02 -0.41597830294E+02  0.52164533088E+02  0.00000000000E+00 0.  1.
<mgrwt>
<rscale>  2 0.98077602E+02</rscale>
<asrwt>0</asrwt>
<pdfrwt beam="1">  1       21 0.22832315E-01 0.98077602E+02</pdfrwt>
<pdfrwt beam="2">  1       21 0.18394444E-01 0.98077602E+02</pdfrwt>
<totfact> 0.49025302E+05</totfact>
</mgrwt>
</event>
<event>
 5    1  0.1946229E+000  0.1078959E+03  0.7546771E-02  0.1264517E+00
         21   -1    0    0  501  502  0.00000000000E+00  0.00000000000E+00  0.24675837353E+03  0.24675837353E+03  0.00000000000E+00 0. -1.
         21   -1    0    0  502  503 -0.00000000000E+00 -0.00000000000E+00 -0.48417297317E+03  0.48417297317E+03  0.00000000000E+00 0.  1.
         24    1    1    2    0    0  0.80442577304E+02 -0.79773609246E+01 -0.22166286065E+03  0.24927151116E+03  0.80419002446E+02 0. -1.
          1    1    1    2  501    0 -0.20931092783E+02  0.31461984739E+02  0.22725344449E+03  0.23037381614E+03  0.00000000000E+00 0. -1.
         -2    1    1    2    0  503 -0.59511484520E+02 -0.23484623815E+02 -0.24300518348E+03  0.25128601940E+03  0.00000000000E+00 0.  1.
<mgrwt>
<rscale>  2 0.10789592E+03</rscale>
<asrwt>0</asrwt>
<pdfrwt beam="1">  1       21 0.37962827E-01 0.10789592E+03</pdfrwt>
<pdfrwt beam="2">  1       21 0.74488149E-01 0.10789592E+03</pdfrwt>
<totfact> 0.11562684E+04</totfact>
</mgrwt>
</event>
<event>
 5    1  0.1946229E+000  0.1022098E+03  0.7546771E-02  0.1275717E+00
         21   -1    0    0  503  502  0.00000000000E+00  0.00000000000E+00  0.54652199099E+02  0.54652199099E+02  0.00000000000E+00 0.  1.
         21   -1    0    0  501  503 -0.00000000000E+00 -0.00000000000E+00 -0.35206588940E+03  0.35206588940E+03  0.00000000000E+00 0. -1.
         24    1    1    2    0    0 -0.57807939956E+01 -0.18883094007E+02 -0.21304305982E+03  0.22857066765E+03  0.80419002446E+02 0. -1.
          1    1    1    2  501    0 -0.22654401922E+02  0.64217927965E+02 -0.10126290189E+03  0.12203007620E+03  0.00000000000E+00 0. -1.
         -2    1    1    2    0  502  0.28435195918E+02 -0.45334833959E+02  0.16892271407E+02  0.56117344647E+02  0.00000000000E+00 0.  1.
<mgrwt>
<rscale>  2 0.10220976E+03</rscale>
<asrwt>0</asrwt>
<pdfrwt beam="1">  1       21 0.84080307E-02 0.10220976E+03</pdfrwt>
<pdfrwt beam="2">  1       21 0.54163982E-01 0.10220976E+03</pdfrwt>
<totfact> 0.36032542E+05</totfact>
</mgrwt>
</event>
<event>
 5    1  0.1946229E+000  0.9991602E+02  0.7546771E-02  0.1280473E+00
         21   -1    0    0  503  502  0.00000000000E+00  0.00000000000E+00  0.48065240225E+02  0.48065240225E+02  0.00000000000E+00 0. -1.
         21   -1    0    0  501  503 -0.00000000000E+00 -0.00000000000E+00 -0.20835483150E+03  0.20835483150E+03  0.00000000000E+00 0. -1.
         24    1    1    2    0    0  0.49342059159E+02 -0.39203407097E+02 -0.81671507196E+02  0.13080136457E+03  0.80419002446E+02 0. -1.
          1    1    1    2  501    0 -0.47678203386E+01  0.51263589178E+02 -0.46449083435E+02  0.69341221781E+02  0.00000000000E+00 0. -1.
         -2    1    1    2    0  502 -0.44574238820E+02 -0.12060182081E+02 -0.32169000647E+02  0.56277485381E+02  0.00000000000E+00 0.  1.
<mgrwt>
<rscale>  2 0.99916020E+02</rscale>
<asrwt>0</asrwt>
<pdfrwt beam="1">  1       21 0.73946524E-02 0.99916020E+02</pdfrwt>
<pdfrwt beam="2">  1       21 0.32054589E-01 0.99916020E+02</pdfrwt>
<totfact> 0.12804282E+06</totfact>
</mgrwt>
</event>
<event>
 5    1  0.1946229E+000  0.6768091E+02  0.7546771E-02  0.1368162E+00
         21   -1    0    0  501  502  0.00000000000E+00  0.00000000000E+00  0.11278600558E+02  0.11278600558E+02  0.00000000000E+00 0. -1.
         21   -1    0    0  502  503 -0.00000000000E+00 -0.00000000000E+00 -0.58823906175E+03  0.58823906175E+03  0.00000000000E+00 0.  1.
         24    1    1    2    0    0  0.20304323601E+02  0.38368101732E+02 -0.19953617840E+03  0.21946817362E+03  0.80419002446E+02 0. -1.
          1    1    1    2  501    0 -0.13265085604E+02 -0.17552891599E+02 -0.15730066984E+03  0.15883188355E+03  0.00000000000E+00 0. -1.
         -2    1    1    2    0  503 -0.70392379975E+01 -0.20815210133E+02 -0.22012361295E+03  0.22121760514E+03  0.00000000000E+00 0.  1.
<mgrwt>
<rscale>  2 0.67680907E+02</rscale>
<asrwt>0</asrwt>
<pdfrwt beam="1">  1       21 0.17351695E-02 0.67680907E+02</pdfrwt>
<pdfrwt beam="2">  1       21 0.90498309E-01 0.67680907E+02</pdfrwt>
<totfact> 0.15875968E+06</totfact>
</mgrwt>
</event>
<event>
 5    1  0.1946229E+000  0.1280294E+03  0.7546771E-02  0.1230409E+00
         21   -1    0    0  501  502  0.00000000000E+00  0.00000000000E+00  0.70709992411E+03  0.70709992411E+03  0.00000000000E+00 0.  1.
         21   -1    0    0  502  503 -0.00000000000E+00 -0.00000000000E+00 -0.52965747874E+02  0.52965747874E+02  0.00000000000E+00 0.  1.
         24    1    1    2    0    0 -0.21965988624E+02 -0.74537916631E+02  0.48326057836E+03  0.49603065250E+03  0.80419002446E+02 0.  1.
          1    1    1    2  501    0  0.44530923052E+02 -0.18701992006E+02  0.16042294920E+03  0.16753593717E+03  0.00000000000E+00 0. -1.
         -2    1    1    2    0  503 -0.22564934428E+02  0.93239908637E+02  0.10450648671E+02  0.96499082307E+02  0.00000000000E+00 0.  1.
<mgrwt>
<rscale>  2 0.12802940E+03</rscale>
<asrwt>0</asrwt>
<pdfrwt beam="1">  1       21 0.10878460E+00 0.12802940E+03</pdfrwt>
<pdfrwt beam="2">  1       21 0.81485771E-02 0.12802940E+03</pdfrwt>
<totfact> 0.80372085E+04</totfact>
</mgrwt>
</event>
<event>
 5    1  0.1946229E+000  0.9498616E+02  0.7546771E-02  0.1291207E+00
         21   -1    0    0  501  502  0.00000000000E+00  0.00000000000E+00  0.15134245289E+03  0.15134245289E+03  0.00000000000E+00 0.  1.
         21   -1    0    0  502  503 -0.00000000000E+00 -0.00000000000E+00 -0.11294667903E+03  0.11294667903E+03  0.00000000000E+00 0. -1.
         24    1    1    2    0    0 -0.52212091157E+02  0.52482263480E+02 -0.65985377916E+02  0.12767841045E+03  0.80419002446E+02 0. -1.
          1    1    1    2  501    0  0.10213217245E+02 -0.32670294544E+02  0.72818957714E+02  0.80462777448E+02  0.00000000000E+00 0. -1.
         -2    1    1    2    0  503  0.41998873912E+02 -0.19811968936E+02  0.31562194066E+02  0.56147944016E+02  0.00000000000E+00 0.  1.
<mgrwt>
<rscale>  2 0.94986159E+02</rscale>
<asrwt>0</asrwt>
<pdfrwt beam="1">  1       21 0.23283454E-01 0.94986159E+02</pdfrwt>
<pdfrwt beam="2">  1       21 0.17376412E-01 0.94986159E+02</pdfrwt>
<totfact> 0.52424853E+05</totfact>
</mgrwt>
</event>
<event>
 5    1  0.1946229E+000  0.8848563E+02  0.7546771E-02  0.1306561E+00
         21   -1    0    0  503  502  0.00000000000E+00  0.00000000000E+00  0.29409374822E+01  0.29409374822E+01  0.00000000000E+00 0. -1.
         21   -1    0    0  501  503 -0.00000000000E+00 -0.00000000000E+00 -0.26759845926E+04  0.26759845926E+04  0.00000000000E+00 0.  1.
         24    1    1    2    0    0  0.24004898703E+02 -0.12370611280E+02 -0.13303362402E+04  0.13330382572E+04  0.80419002446E+02 0.  0.
          1    1    1    2  501    0  0.33608399192E+02  0.26628079652E+01 -0.54675274943E+03  0.54779118654E+03  0.00000000000E+00 0. -1.
         -2    1    1    2    0  502 -0.57613297895E+02  0.97078033148E+01 -0.79595466548E+03  0.79809608634E+03  0.00000000000E+00 0.  1.
<mgrwt>
<rscale>  2 0.88485631E+02</rscale>
<asrwt>0</asrwt>
<pdfrwt beam="1">  1       21 0.45245004E-03 0.88485631E+02</pdfrwt>
<pdfrwt beam="2">  1       21 0.41169164E+00 0.88485631E+02</pdfrwt>
<totfact> 0.11187446E+05</totfact>
</mgrwt>
</event>
