<event>
 5    1  0.1708429E+000  0.6951464E+02  0.7546771E-02  0.1361751E+00
         21   -1    0    0  501  502  0.00000000000E+00  0.00000000000E+00  0.43924009022E+02  0.43924009022E+02  0.00000000000E+00 0. -1.
         21   -1    0    0  502  503 -0.00000000000E+00 -0.00000000000E+00 -0.64419151059E+03  0.64419151059E+03  0.00000000000E+00 0.  1.
         24    1    1    2    0    0  0.15686844240E+02 -0.43756664559E+01  0.18058698068E+01  0.82071314473E+02  0.80419002446E+02 0. -1.
          1    1    1    2  501    0 -0.32191175386E+02  0.16807913932E+02 -0.18917096385E+03  0.19262510560E+03  0.00000000000E+00 0. -1.
         -2    1    1    2    0  503  0.16504331147E+02 -0.12432247476E+02 -0.41290240753E+03  0.41341909955E+03  0.00000000000E+00 0.  1.
<mgrwt>
<rscale>  2 0.69514641E+02</rscale>
<asrwt>0</asrwt>
<pdfrwt beam="1">  1       21 0.67575399E-02 0.69514641E+02</pdfrwt>
<pdfrwt beam="2">  1       21 0.99106386E-01 0.69514641E+02</pdfrwt>
<totfact> 0.14192127E+05</totfact>
</mgrwt>
</event>
<event>
 5    1  0.1708429E+000  0.1417709E+03  0.7546771E-02  0.1210966E+00
         21   -1    0    0  503  502  0.00000000000E+00  0.00000000000E+00  0.89268429024E+03  0.89268429024E+03  0.00000000000E+00 0.  1.
         21   -1    0    0  501  503 -0.00000000000E+00 -0.00000000000E+00 -0.90259381713E+02  0.90259381713E+02  0.00000000000E+00 0.  1.
         24    1    1    2    0    0  0.41821145012E+02  0.10835776865E+03 -0.16865632965E+02  0.14227466298E+03  0.80419002446E+02 0.  1.
          1    1    1    2  501    0  0.25054355785E+02 -0.24890678013E+02  0.37181622655E+02  0.51280987305E+02  0.00000000000E+00 0. -1.
         -2    1    1    2    0  502 -0.66875500797E+02 -0.83467090638E+02  0.78210891884E+03  0.78938802167E+03  0.00000000000E+00 0.  1.
<mgrwt>
<rscale>  2 0.14177090E+03</rscale>
<asrwt>0</asrwt>
<pdfrwt beam="1">  1       21 0.13733604E+00 0.14177090E+03</pdfrwt>
<pdfrwt beam="2">  1       21 0.13886059E-01 0.14177090E+03</pdfrwt>
<totfact> 0.17602946E+04</totfact>
</mgrwt>
</event>
<event>
 5    1  0.1708429E+000  0.1155755E+03  0.7546771E-02  0.1250580E+00
         21   -1    0    0  501  502  0.00000000000E+00  0.00000000000E+00  0.85394940267E+02  0.85394940267E+02  0.00000000000E+00 0. -1.
         21   -1    0    0  502  503 -0.00000000000E+00 -0.00000000000E+00 -0.33602547216E+03  0.33602547216E+03  0.00000000000E+00 0. -1.
         24    1    1    2    0    0 -0.92386875214E+02  0.40521203951E+02 -0.23514135243E+03  0.26820882584E+03  0.80419002446E+02 0. -1.
          1    1    1    2  501    0  0.40535105356E+02 -0.26480951539E+02  0.49265409432E+02  0.69075437944E+02  0.00000000000E+00 0. -1.
         -2    1    1    2    0  503  0.51851769858E+02 -0.14040252412E+02 -0.64754588890E+02  0.84136148637E+02  0.00000000000E+00 0.  1.
<mgrwt>
<rscale>  2 0.11557551E+03</rscale>
<asrwt>0</asrwt>
<pdfrwt beam="1">  1       21 0.13137683E-01 0.11557551E+03</pdfrwt>
<pdfrwt beam="2">  1       21 0.51696226E-01 0.11557551E+03</pdfrwt>
<totfact> 0.18134707E+05</totfact>
</mgrwt>
</event>
<event>
 5    1  0.1708429E+000  0.9722367E+02  0.7546771E-02  0.1286245E+00
         21   -1    0    0  501  502  0.00000000000E+00  0.00000000000E+00  0.15450388431E+03  0.15450388431E+03  0.00000000000E+00 0. -1.
         21   -1    0    0  502  503 -0.00000000000E+00 -0.00000000000E+00 -0.10136816850E+03  0.10136816850E+03  0.00000000000E+00 0.  1.
         24    1    1    2    0    0 -0.36289639843E+02  0.48639640869E+02  0.30677811308E+02  0.10531427579E+03  0.80419002446E+02 0.  1.
          1    1    1    2  501    0 -0.93515273968E+00 -0.55787586806E+02  0.70152420570E+02  0.89635324867E+02  0.00000000000E+00 0. -1.
         -2    1    1    2    0  503  0.37224792582E+02  0.71479459372E+01 -0.47694516061E+02  0.60922452152E+02  0.00000000000E+00 0.  1.
<mgrwt>
<rscale>  2 0.97223668E+02</rscale>
<asrwt>0</asrwt>
<pdfrwt beam="1">  1       21 0.23769828E-01 0.97223668E+02</pdfrwt>
<pdfrwt beam="2">  1       21 0.15595103E-01 0.97223668E+02</pdfrwt>
<totfact> 0.61299805E+05</totfact>
</mgrwt>
</event>
<event>
 5    1  0.1708429E+000  0.8793299E+02  0.7546771E-02  0.1307936E+00
         21   -1    0    0  503  502  0.00000000000E+00  0.00000000000E+00  0.95473288606E+02  0.95473288606E+02  0.00000000000E+00 0.  1.
         21   -1    0    0  501  503 -0.00000000000E+00 -0.00000000000E+00 -0.32819906049E+03  0.32819906049E+03  0.00000000000E+00 0. -1.
         24    1    1    2    0    0  0.18736203105E+02 -0.60808446962E+02 -0.56654767720E+02  0.11715669502E+03  0.80419002446E+02 0.  0.
          1    1    1    2  501    0 -0.29726553863E+02  0.40658357673E+02 -0.23653702653E+03  0.24183989533E+03  0.00000000000E+00 0. -1.
         -2    1    1    2    0  502  0.10990350758E+02  0.20150089288E+02  0.60466022368E+02  0.64675758744E+02  0.00000000000E+00 0.  1.
<mgrwt>
<rscale>  2 0.87932993E+02</rscale>
<asrwt>0</asrwt>
<pdfrwt beam="1">  1       21 0.14688198E-01 0.87932993E+02</pdfrwt>
<pdfrwt beam="2">  1       21 0.50492163E-01 0.87932993E+02</pdfrwt>
<totfact> 0.15756651E+05</totfact>
</mgrwt>
</event>
<event>
 5    1  0.1708429E+000  0.6659546E+02  0.7546771E-02  0.1372069E+00
         21   -1    0    0  503  502  0.00000000000E+00  0.00000000000E+00  0.28781739077E+03  0.28781739077E+03  0.00000000000E+00 0.  1.
         21   -1    0    0  501  503 -0.00000000000E+00 -0.00000000000E+00 -0.19360257830E+02  0.19360257830E+02  0.00000000000E+00 0.  1.
         24    1    1    2    0    0 -0.28159367750E+02 -0.14122778840E+02  0.23208683495E+03  0.24763666487E+03  0.80419002446E+02 0.  1.
          1    1    1    2  501    0  0.10537170626E+02  0.24289901399E+02  0.23966830327E+02  0.35713306074E+02  0.00000000000E+00 0. -1.
         -2    1    1    2    0  502  0.17622197124E+02 -0.10167122559E+02  0.12403467661E+02  0.23827677659E+02  0.00000000000E+00 0.  1.
<mgrwt>
<rscale>  2 0.66595456E+02</rscale>
<asrwt>0</asrwt>
<pdfrwt beam="1">  1       21 0.44279596E-01 0.66595456E+02</pdfrwt>
<pdfrwt beam="2">  1       21 0.29785014E-02 0.66595456E+02</pdfrwt>
<totfact> 0.30159142E+06</totfact>
</mgrwt>
</event>
<event>
 5    1  0.1708429E+000  0.9811125E+02  0.7546771E-02  0.1284319E+00
         21   -1    0    0  501  502  0.00000000000E+00  0.00000000000E+00  0.44223901990E+03  0.44223901990E+03  0.00000000000E+00 0. -1.
         21   -1    0    0  502  503 -0.00000000000E+00 -0.00000000000E+00 -0.20827908501E+03  0.20827908501E+03  0.00000000000E+00 0. -1.
         24    1    1    2    0    0  0.78857944376E+02  0.21017358868E+02 -0.13512618163E+03  0.17716265318E+03  0.80419002446E+02 0. -1.
          1    1    1    2  501    0 -0.20862546491E+02 -0.66781137685E+01  0.40371110830E+03  0.40430496165E+03  0.00000000000E+00 0. -1.
         -2    1    1    2    0  503 -0.57995397885E+02 -0.14339245099E+02 -0.34624991778E+02  0.69050490089E+02  0.00000000000E+00 0.  1.
<mgrwt>
<rscale>  2 0.98111246E+02</rscale>
<asrwt>0</asrwt>
<pdfrwt beam="1">  1       21 0.68036772E-01 0.98111246E+02</pdfrwt>
<pdfrwt beam="2">  1       21 0.32042936E-01 0.98111246E+02</pdfrwt>
<totfact> 0.19792489E+04</totfact>
</mgrwt>
</event>
<event>
 5    1  0.1708429E+000  0.9346980E+02  0.7546771E-02  0.1294660E+00
         21   -1    0    0  501  502  0.00000000000E+00  0.00000000000E+00  0.65383866663E+02  0.65383866663E+02  0.00000000000E+00 0.  1.
         21   -1    0    0  502  503 -0.00000000000E+00 -0.00000000000E+00 -0.16621219476E+03  0.16621219476E+03  0.00000000000E+00 0. -1.
         24    1    1    2    0    0 -0.41797248072E+02  0.23852181992E+00 -0.31676880137E+02  0.96008892966E+02  0.80419002446E+02 0.  0.
          1    1    1    2  501    0 -0.16926191646E+02 -0.26925638578E+02  0.10132197677E+02  0.33378846688E+02  0.00000000000E+00 0. -1.
         -2    1    1    2    0  503  0.58723439718E+02  0.26687116758E+02 -0.79283645635E+02  0.10220832177E+03  0.00000000000E+00 0.  1.
<mgrwt>
<rscale>  2 0.93469803E+02</rscale>
<asrwt>0</asrwt>
<pdfrwt beam="1">  1       21 0.10059057E-01 0.93469803E+02</pdfrwt>
<pdfrwt beam="2">  1       21 0.25571106E-01 0.93469803E+02</pdfrwt>
<totfact> 0.11581317E+06</totfact>
</mgrwt>
</event>
<event>
 5    1  0.1708429E+000  0.1072274E+03  0.7546771E-02  0.1265792E+00
         21   -1    0    0  503  502  0.00000000000E+00  0.00000000000E+00  0.67079355078E+03  0.67079355078E+03  0.00000000000E+00 0. -1.
         21   -1    0    0  501  503 -0.00000000000E+00 -0.00000000000E+00 -0.18143725597E+02  0.18143725597E+02  0.00000000000E+00 0.  1.
         24    1    1    2    0    0 -0.61227913849E+02  0.37491830120E+02  0.37604758251E+03  0.39119495782E+03  0.80419002446E+02 0.  0.
          1    1    1    2  501    0 -0.20880142268E+01 -0.43041522444E+02  0.76665177186E+02  0.87945902978E+02  0.00000000000E+00 0. -1.
         -2    1    1    2    0  502  0.63315928076E+02  0.55496923237E+01  0.19993706549E+03  0.20979641558E+03  0.00000000000E+00 0.  1.
<mgrwt>
<rscale>  2 0.10722743E+03</rscale>
<asrwt>0</asrwt>
<pdfrwt beam="1">  1       21 0.10319899E+00 0.10722743E+03</pdfrwt>
<pdfrwt beam="2">  1       21 0.27913429E-02 0.10722743E+03</pdfrwt>
<totfact> 0.55058405E+05</totfact>
</mgrwt>
</event>
<event>
 5    1  0.1708429E+000  0.8095055E+02  0.7546771E-02  0.1326375E+00
         21   -1    0    0  501  502  0.00000000000E+00  0.00000000000E+00  0.54331940004E+02  0.54331940004E+02  0.00000000000E+00 0.  1.
         21   -1    0    0  502  503 -0.00000000000E+00 -0.00000000000E+00 -0.17895233878E+03  0.17895233878E+03  0.00000000000E+00 0.  1.
         24    1    1    2    0    0 -0.16226230549E+02 -0.56072627452E+02 -0.81401910234E+01  0.99704106091E+02  0.80419002446E+02 0.  1.
          1    1    1    2  501    0  0.16041457420E+02  0.16698558399E+02 -0.25495973979E+02  0.34441470611E+02  0.00000000000E+00 0. -1.
         -2    1    1    2    0  503  0.18477312927E+00  0.39374069054E+02 -0.90984233777E+02  0.99138702084E+02  0.00000000000E+00 0.  1.
<mgrwt>
<rscale>  2 0.80950553E+02</rscale>
<asrwt>0</asrwt>
<pdfrwt beam="1">  1       21 0.83587599E-02 0.80950553E+02</pdfrwt>
<pdfrwt beam="2">  1       21 0.27531129E-01 0.80950553E+02</pdfrwt>
<totfact> 0.13807819E+06</totfact>
</mgrwt>
</event>
<event>
 5    1  0.1708429E+000  0.7526755E+02  0.7546771E-02  0.1343045E+00
         21   -1    0    0  503  502  0.00000000000E+00  0.00000000000E+00  0.13490199869E+02  0.13490199869E+02  0.00000000000E+00 0.  1.
         21   -1    0    0  501  503 -0.00000000000E+00 -0.00000000000E+00 -0.17486790443E+04  0.17486790443E+04  0.00000000000E+00 0.  1.
         24    1    1    2    0    0 -0.17583838415E+02 -0.26451501955E+02 -0.14559975034E+04  0.14585625867E+04  0.80419002446E+02 0.  1.
          1    1    1    2  501    0  0.34762393730E+02  0.28495030947E+01 -0.27107209872E+03  0.27330683561E+03  0.00000000000E+00 0. -1.
         -2    1    1    2    0  502 -0.17178555315E+02  0.23601998860E+02 -0.81192423357E+01  0.30299821930E+02  0.00000000000E+00 0.  1.
<mgrwt>
<rscale>  2 0.75267549E+02</rscale>
<asrwt>0</asrwt>
<pdfrwt beam="1">  1       21 0.20754161E-02 0.75267549E+02</pdfrwt>
<pdfrwt beam="2">  1       21 0.26902745E+00 0.75267549E+02</pdfrwt>
<totfact> 0.67917116E+04</totfact>
</mgrwt>
</event>
<event>
 5    1  0.1708429E+000  0.8136554E+02  0.7546771E-02  0.1325220E+00
         21   -1    0    0  503  502  0.00000000000E+00  0.00000000000E+00  0.10977966002E+03  0.10977966002E+03  0.00000000000E+00 0. -1.
         21   -1    0    0  501  503 -0.00000000000E+00 -0.00000000000E+00 -0.68970499667E+02  0.68970499667E+02  0.00000000000E+00 0.  1.
         24    1    1    2    0    0  0.13144543133E+02 -0.14131242524E+02  0.35767137675E+02  0.90105355675E+02  0.80419002446E+02 0.  0.
          1    1    1    2  501    0 -0.39422444565E+02  0.29814007059E+02 -0.15485384718E+02  0.51795765197E+02  0.00000000000E+00 0. -1.
         -2    1    1    2    0  502  0.26277901432E+02 -0.15682764536E+02  0.20527407393E+02  0.36849038813E+02  0.00000000000E+00 0.  1.
<mgrwt>
<rscale>  2 0.81365535E+02</rscale>
<asrwt>0</asrwt>
<pdfrwt beam="1">  1       21 0.16889178E-01 0.81365535E+02</pdfrwt>
<pdfrwt beam="2">  1       21 0.10610846E-01 0.81365535E+02</pdfrwt>
<totfact> 0.22499182E+06</totfact>
</mgrwt>
</event>
<event>
 5    1  0.1708429E+000  0.7048731E+02  0.7546771E-02  0.1358444E+00
         21   -1    0    0  501  502  0.00000000000E+00  0.00000000000E+00  0.28632461137E+02  0.28632461137E+02  0.00000000000E+00 0. -1.
         21   -1    0    0  502  503 -0.00000000000E+00 -0.00000000000E+00 -0.22611105969E+03  0.22611105969E+03  0.00000000000E+00 0.  1.
         24    1    1    2    0    0 -0.18524813226E+02  0.16188610669E+02 -0.14987113835E+03  0.17185404821E+03  0.80419002446E+02 0.  0.
          1    1    1    2  501    0  0.21120056057E+02  0.14793739486E+02  0.28821066754E+00  0.25787488462E+02  0.00000000000E+00 0. -1.
         -2    1    1    2    0  503 -0.25952428309E+01 -0.30982350155E+02 -0.47895670866E+02  0.57101984153E+02  0.00000000000E+00 0.  1.
<mgrwt>
<rscale>  2 0.70487314E+02</rscale>
<asrwt>0</asrwt>
<pdfrwt beam="1">  1       21 0.44049941E-02 0.70487314E+02</pdfrwt>
<pdfrwt beam="2">  1       21 0.34786316E-01 0.70487314E+02</pdfrwt>
<totfact> 0.25672471E+06</totfact>
</mgrwt>
</event>
<event>
 5    1  0.1708429E+000  0.1072435E+03  0.7546771E-02  0.1265761E+00
         21   -1    0    0  503  502  0.00000000000E+00  0.00000000000E+00  0.46467719504E+03  0.46467719504E+03  0.00000000000E+00 0.  1.
         21   -1    0    0  501  503 -0.00000000000E+00 -0.00000000000E+00 -0.28906983404E+02  0.28906983404E+02  0.00000000000E+00 0. -1.
         24    1    1    2    0    0 -0.27001876867E+02 -0.32734684164E+02  0.10473609571E+03  0.13869941096E+03  0.80419002446E+02 0. -1.
          1    1    1    2  501    0  0.13044757695E+02 -0.43831354170E+02  0.81000651307E+02  0.93018593968E+02  0.00000000000E+00 0. -1.
         -2    1    1    2    0  502  0.13957119171E+02  0.76566038335E+02  0.25003346462E+03  0.26186617352E+03  0.00000000000E+00 0.  1.
<mgrwt>
<rscale>  2 0.10724347E+03</rscale>
<asrwt>0</asrwt>
<pdfrwt beam="1">  1       21 0.71488794E-01 0.10724347E+03</pdfrwt>
<pdfrwt beam="2">  1       21 0.44472286E-02 0.10724347E+03</pdfrwt>
<totfact> 0.58575842E+05</totfact>
</mgrwt>
</event>
<event>
 5    1  0.1708429E+000  0.9733467E+02  0.7546771E-02  0.1286003E+00
         21   -1    0    0  501  502  0.00000000000E+00  0.00000000000E+00  0.12852852924E+04  0.12852852924E+04  0.00000000000E+00 0. -1.
         21   -1    0    0  502  503 -0.00000000000E+00 -0.00000000000E+00 -0.88016959702E+01  0.88016959702E+01  0.00000000000E+00 0. -1.
         24    1    1    2    0    0  0.16039786765E+02  0.55772127360E+02  0.56245468984E+03  0.57113071974E+03  0.80419002446E+02 0. -1.
          1    1    1    2  501    0 -0.31643575262E+02 -0.68438588973E+02  0.67360638330E+03  0.67781318661E+03  0.00000000000E+00 0. -1.
         -2    1    1    2    0  503  0.15603788497E+02  0.12666461613E+02  0.40422523241E+02  0.45143081978E+02  0.00000000000E+00 0.  1.
<mgrwt>
<rscale>  2 0.97334674E+02</rscale>
<asrwt>0</asrwt>
<pdfrwt beam="1">  1       21 0.19773605E+00 0.97334674E+02</pdfrwt>
<pdfrwt beam="2">  1       21 0.13541081E-02 0.97334674E+02</pdfrwt>
<totfact> 0.33576953E+05</totfact>
</mgrwt>
</event>
<event>
 5    1  0.1708429E+000  0.6619820E+02  0.7546771E-02  0.1373520E+00
         21   -1    0    0  503  502  0.00000000000E+00  0.00000000000E+00  0.10094400145E+03  0.10094400145E+03  0.00000000000E+00 0. -1.
         21   -1    0    0  501  503 -0.00000000000E+00 -0.00000000000E+00 -0.97823229646E+02  0.97823229646E+02  0.00000000000E+00 0. -1.
         24    1    1    2    0    0  0.11505062272E+02  0.13219577376E+02  0.68474295947E+02  0.10706572208E+03  0.80419002446E+02 0. -1.
          1    1    1    2  501    0  0.43217195086E+01 -0.28061766248E+02 -0.63937245093E+02  0.69957925173E+02  0.00000000000E+00 0. -1.
         -2    1    1    2    0  502 -0.15826781780E+02  0.14842188872E+02 -0.14162790524E+01  0.21743583845E+02  0.00000000000E+00 0.  1.
<mgrwt>
<rscale>  2 0.66198195E+02</rscale>
<asrwt>0</asrwt>
<pdfrwt beam="1">  1       21 0.15529846E-01 0.66198195E+02</pdfrwt>
<pdfrwt beam="2">  1       21 0.15049728E-01 0.66198195E+02</pdfrwt>
<totfact> 0.14043195E+06</totfact>
</mgrwt>
</event>
<event>
 5    1  0.1708429E+000  0.1773634E+03  0.7546771E-02  0.1170379E+00
         21   -1    0    0  503  502  0.00000000000E+00  0.00000000000E+00  0.16057972730E+03  0.16057972730E+03  0.00000000000E+00 0.  1.
         21   -1    0    0  501  503 -0.00000000000E+00 -0.00000000000E+00 -0.36592984361E+03  0.36592984361E+03  0.00000000000E+00 0.  1.
         24    1    1    2    0    0 -0.23357159856E+02 -0.13811974053E+03 -0.18640461789E+03  0.24665059734E+03  0.80419002446E+02 0.  1.
          1    1    1    2  501    0 -0.55849619956E+02  0.54868793832E+02 -0.10876249283E+03  0.13401135934E+03  0.00000000000E+00 0. -1.
         -2    1    1    2    0  502  0.79206779812E+02  0.83250946700E+02  0.89816994402E+02  0.14584761423E+03  0.00000000000E+00 0.  1.
<mgrwt>
<rscale>  2 0.17736342E+03</rscale>
<asrwt>0</asrwt>
<pdfrwt beam="1">  1       21 0.24704574E-01 0.17736342E+03</pdfrwt>
<pdfrwt beam="2">  1       21 0.56296899E-01 0.17736342E+03</pdfrwt>
<totfact> 0.46342848E+04</totfact>
</mgrwt>
</event>
<event>
 5    1  0.1708429E+000  0.6722235E+02  0.7546771E-02  0.1369802E+00
         21   -1    0    0  503  502  0.00000000000E+00  0.00000000000E+00  0.45100498951E+01  0.45100498951E+01  0.00000000000E+00 0.  1.
         21   -1    0    0  501  503 -0.00000000000E+00 -0.00000000000E+00 -0.12633575076E+04  0.12633575076E+04  0.00000000000E+00 0. -1.
         24    1    1    2    0    0  0.38401474485E+02  0.19599325828E+02 -0.82240957628E+03  0.82745606163E+03  0.80419002446E+02 0.  0.
          1    1    1    2  501    0 -0.19543440005E+02 -0.84652718454E+01 -0.36665323274E+03  0.36727128931E+03  0.00000000000E+00 0. -1.
         -2    1    1    2    0  502 -0.18858034481E+02 -0.11134053983E+02 -0.69784648684E+02  0.73140206553E+02  0.00000000000E+00 0.  1.
<mgrwt>
<rscale>  2 0.67222347E+02</rscale>
<asrwt>0</asrwt>
<pdfrwt beam="1">  1       21 0.69385430E-03 0.67222347E+02</pdfrwt>
<pdfrwt beam="2">  1       21 0.19436256E+00 0.67222347E+02</pdfrwt>
<totfact> 0.10117932E+06</totfact>
</mgrwt>
</event>
<event>
 5    1  0.1708429E+000  0.7377178E+02  0.7546771E-02  0.1347717E+00
         21   -1    0    0  503  502  0.00000000000E+00  0.00000000000E+00  0.11738028729E+04  0.11738028729E+04  0.00000000000E+00 0.  1.
         21   -1    0    0  501  503 -0.00000000000E+00 -0.00000000000E+00 -0.51993308553E+01  0.51993308553E+01  0.00000000000E+00 0. -1.
         24    1    1    2    0    0  0.43619383412E+02  0.26782403660E+02  0.64031763820E+03  0.64737457588E+03  0.80419002446E+02 0. -1.
          1    1    1    2  501    0 -0.20645552256E+02 -0.67071277050E+01  0.10373777821E+03  0.10598467350E+03  0.00000000000E+00 0. -1.
         -2    1    1    2    0  502 -0.22973831156E+02 -0.20075275955E+02  0.42454812559E+03  0.42564295433E+03  0.00000000000E+00 0.  1.
<mgrwt>
<rscale>  2 0.73771779E+02</rscale>
<asrwt>0</asrwt>
<pdfrwt beam="1">  1       21 0.18058485E+00 0.73771779E+02</pdfrwt>
<pdfrwt beam="2">  1       21 0.79989799E-03 0.73771779E+02</pdfrwt>
<totfact> 0.99124732E+05</totfact>
</mgrwt>
</event>
<event>
 5    1  0.1708429E+000  0.7492430E+02  0.7546771E-02  0.1344106E+00
         21   -1    0    0  501  502  0.00000000000E+00  0.00000000000E+00  0.19729008403E+02  0.19729008403E+02  0.00000000000E+00 0. -1.
         21   -1    0    0  502  503 -0.00000000000E+00 -0.00000000000E+00 -0.61525409417E+03  0.61525409417E+03  0.00000000000E+00 0. -1.
         24    1    1    2    0    0  0.25449668730E+02 -0.22943670566E+02 -0.36518557747E+03  0.37550209002E+03  0.80419002446E+02 0. -1.
          1    1    1    2  501    0 -0.33216965678E+02 -0.48556177043E+01 -0.70101299229E+01  0.34294106690E+02  0.00000000000E+00 0. -1.
         -2    1    1    2    0  503  0.77672969472E+01  0.27799288270E+02 -0.22332937837E+03  0.22518690586E+03  0.00000000000E+00 0.  1.
<mgrwt>
<rscale>  2 0.74924303E+02</rscale>
<asrwt>0</asrwt>
<pdfrwt beam="1">  1       21 0.30352325E-02 0.74924303E+02</pdfrwt>
<pdfrwt beam="2">  1       21 0.94654463E-01 0.74924303E+02</pdfrwt>
<totfact> 0.58799591E+05</totfact>
</mgrwt>
</event>
<event>
 5    1  0.1708429E+000  0.7583876E+02  0.7546771E-02  0.1341293E+00
         21   -1    0    0  503  502  0.00000000000E+00  0.00000000000E+00  0.54497905680E+03  0.54497905680E+03  0.00000000000E+00 0.  1.
         21   -1    0    0  501  503 -0.00000000000E+00 -0.00000000000E+00 -0.42086143718E+02  0.42086143718E+02  0.00000000000E+00 0.  1.
         24    1    1    2    0    0  0.14322225704E+02 -0.47406142918E+02  0.77158511553E+02  0.12195540330E+03  0.80419002446E+02 0.  1.
          1    1    1    2  501    0  0.65513204565E+01  0.27918785974E+02 -0.85211361069E+01  0.29916352895E+02  0.00000000000E+00 0. -1.
         -2    1    1    2    0  502 -0.20873546161E+02  0.19487356944E+02  0.43425553763E+03  0.43519344431E+03  0.00000000000E+00 0.  1.
<mgrwt>
<rscale>  2 0.75838759E+02</rscale>
<asrwt>0</asrwt>
<pdfrwt beam="1">  1       21 0.83842927E-01 0.75838759E+02</pdfrwt>
<pdfrwt beam="2">  1       21 0.64747917E-02 0.75838759E+02</pdfrwt>
<totfact> 0.22153736E+05</totfact>
</mgrwt>
</event>
<event>
 5    1  0.1708429E+000  0.7933655E+02  0.7546771E-02  0.1330945E+00
         21   -1    0    0  501  502  0.00000000000E+00  0.00000000000E+00  0.20407217417E+03  0.20407217417E+03  0.00000000000E+00 0. -1.
         21   -1    0    0  502  503 -0.00000000000E+00 -0.00000000000E+00 -0.77639377357E+02  0.77639377357E+02  0.00000000000E+00 0.  1.
         24    1    1    2    0    0 -0.14486763909E+02 -0.22206846401E+02  0.18157964126E+02  0.86602182254E+02  0.80419002446E+02 0.  1.
          1    1    1    2  501    0 -0.26586763746E+02  0.19234518461E+02  0.13957679539E+03  0.14338237172E+03  0.00000000000E+00 0. -1.
         -2    1    1    2    0  503  0.41073527655E+02  0.29723279405E+01 -0.31301962704E+02  0.51726997559E+02  0.00000000000E+00 0.  1.
<mgrwt>
<rscale>  2 0.79336550E+02</rscale>
<asrwt>0</asrwt>
<pdfrwt beam="1">  1       21 0.31395719E-01 0.79336550E+02</pdfrwt>
<pdfrwt beam="2">  1       21 0.11944520E-01 0.79336550E+02</pdfrwt>
<totfact> 0.58065022E+05</totfact>
</mgrwt>
</event>
<event>
 5    1  0.1708429E+000  0.1247098E+03  0.7546771E-02  0.1235524E+00
         21   -1    0    0  501  502  0.00000000000E+00  0.00000000000E+00  0.15696163653E+02  0.15696163653E+02  0.00000000000E+00 0. -1.
         21   -1    0    0  502  503 -0.00000000000E+00 -0.00000000000E+00 -0.10331481635E+04  0.10331481635E+04  0.00000000000E+00 0. -1.
         24    1    1    2    0    0 -0.97965659013E+02 -0.14061907308E+02 -0.61973397280E+03  0.63271827900E+03  0.80419002446E+02 0. -1.
          1    1    1    2  501    0  0.70903262085E+02  0.42479110666E+02 -0.28670067497E+03  0.29837731892E+03  0.00000000000E+00 0. -1.
         -2    1    1    2    0  503  0.27062396929E+02 -0.28417203358E+02 -0.11101735207E+03  0.11774872923E+03  0.00000000000E+00 0.  1.
<mgrwt>
<rscale>  2 0.12470975E+03</rscale>
<asrwt>0</asrwt>
<pdfrwt beam="1">  1       21 0.24147941E-02 0.12470975E+03</pdfrwt>
<pdfrwt beam="2">  1       21 0.15894589E+00 0.12470975E+03</pdfrwt>
<totfact> 0.23810909E+05</totfact>
</mgrwt>
</event>
<event>
 5    1  0.1708429E+000  0.7369273E+02  0.7546771E-02  0.1347968E+00
         21   -1    0    0  503  502  0.00000000000E+00  0.00000000000E+00  0.21568966267E+03  0.21568966267E+03  0.00000000000E+00 0.  1.
         21   -1    0    0  501  503 -0.00000000000E+00 -0.00000000000E+00 -0.94508616697E+02  0.94508616697E+02  0.00000000000E+00 0.  1.
         24    1    1    2    0    0  0.16988915094E+02 -0.39292843399E+02 -0.23276541183E+02  0.94029591631E+02  0.80419002446E+02 0.  1.
          1    1    1    2  501    0  0.85960110822E+01  0.26134932045E+02 -0.29214373038E+02  0.40129860098E+02  0.00000000000E+00 0. -1.
         -2    1    1    2    0  502 -0.25584926176E+02  0.13157911355E+02  0.17367196020E+03  0.17603882764E+03  0.00000000000E+00 0.  1.
<mgrwt>
<rscale>  2 0.73692726E+02</rscale>
<asrwt>0</asrwt>
<pdfrwt beam="1">  1       21 0.33183025E-01 0.73692726E+02</pdfrwt>
<pdfrwt beam="2">  1       21 0.14539787E-01 0.73692726E+02</pdfrwt>
<totfact> 0.36949452E+05</totfact>
</mgrwt>
</event>
<event>
 5    1  0.1708429E+000  0.1042317E+03  0.7546771E-02  0.1271641E+00
         21   -1    0    0  501  502  0.00000000000E+00  0.00000000000E+00  0.16219077469E+02  0.16219077469E+02  0.00000000000E+00 0. -1.
         21   -1    0    0  502  503 -0.00000000000E+00 -0.00000000000E+00 -0.78866129022E+03  0.78866129022E+03  0.00000000000E+00 0. -1.
         24    1    1    2    0    0 -0.21480665833E+02 -0.50600333111E+01 -0.33402764337E+03  0.34427998117E+03  0.80419002446E+02 0.  0.
          1    1    1    2  501    0 -0.89066924053E+01 -0.56087045956E+02 -0.96802162627E+02  0.11223076487E+03  0.00000000000E+00 0. -1.
         -2    1    1    2    0  503  0.30387358238E+02  0.61147079268E+02 -0.34161240676E+03  0.34836962166E+03  0.00000000000E+00 0.  1.
<mgrwt>
<rscale>  2 0.10423169E+03</rscale>
<asrwt>0</asrwt>
<pdfrwt beam="1">  1       21 0.24952428E-02 0.10423169E+03</pdfrwt>
<pdfrwt beam="2">  1       21 0.12133250E+00 0.10423169E+03</pdfrwt>
<totfact> 0.44939850E+05</totfact>
</mgrwt>
</event>
<event>
 5    1  0.1708429E+000  0.7546599E+02  0.7546771E-02  0.1342434E+00
         21   -1    0    0  501  502  0.00000000000E+00  0.00000000000E+00  0.26787213737E+03  0.26787213737E+03  0.00000000000E+00 0.  1.
         21   -1    0    0  502  503 -0.00000000000E+00 -0.00000000000E+00 -0.17139353175E+03  0.17139353175E+03  0.00000000000E+00 0.  1.
         24    1    1    2    0    0 -0.49198782320E+02 -0.21208388744E+02  0.13265008917E+03  0.16411452723E+03  0.80419002446E+02 0.  1.
          1    1    1    2  501    0  0.30346790928E+02  0.83271014259E+01  0.11655449031E+03  0.12072786567E+03  0.00000000000E+00 0. -1.
         -2    1    1    2    0  503  0.18851991392E+02  0.12881287318E+02 -0.15272597387E+03  0.15442327621E+03  0.00000000000E+00 0.  1.
<mgrwt>
<rscale>  2 0.75465990E+02</rscale>
<asrwt>0</asrwt>
<pdfrwt beam="1">  1       21 0.41211098E-01 0.75465990E+02</pdfrwt>
<pdfrwt beam="2">  1       21 0.26368236E-01 0.75465990E+02</pdfrwt>
<totfact> 0.82052558E+04</totfact>
</mgrwt>
</event>
<event>
 5    1  0.1708429E+000  0.7301874E+02  0.7546771E-02  0.1350118E+00
         21   -1    0    0  503  502  0.00000000000E+00  0.00000000000E+00  0.13473279340E+02  0.13473279340E+02  0.00000000000E+00 0.  1.
         21   -1    0    0  501  503 -0.00000000000E+00 -0.00000000000E+00 -0.45083984468E+03  0.45083984468E+03  0.00000000000E+00 0. -1.
         24    1    1    2    0    0  0.26634367044E+02  0.67573142773E+01 -0.25664142257E+03  0.27034623455E+03  0.80419002446E+02 0. -1.
          1    1    1    2  501    0 -0.21640791626E+02  0.22590790819E+02 -0.14040194511E+03  0.14384496474E+03  0.00000000000E+00 0. -1.
         -2    1    1    2    0  502 -0.49935754181E+01 -0.29348105096E+02 -0.40323197663E+02  0.50121924723E+02  0.00000000000E+00 0.  1.
<mgrwt>
<rscale>  2 0.73018744E+02</rscale>
<asrwt>0</asrwt>
<pdfrwt beam="1">  1       21 0.20728124E-02 0.73018744E+02</pdfrwt>
<pdfrwt beam="2">  1       21 0.69359971E-01 0.73018744E+02</pdfrwt>
<totfact> 0.21492237E+06</totfact>
</mgrwt>
</event>
<event>
 5    1  0.1708429E+000  0.6765323E+02  0.7546771E-02  0.1368260E+00
         21   -1    0    0  503  502  0.00000000000E+00  0.00000000000E+00  0.12586301703E+03  0.12586301703E+03  0.00000000000E+00 0.  1.
         21   -1    0    0  501  503 -0.00000000000E+00 -0.00000000000E+00 -0.88902814605E+02  0.88902814605E+02  0.00000000000E+00 0. -1.
         24    1    1    2    0    0  0.76848285463E+01  0.23665719693E+01  0.71469515905E+02  0.10788774217E+03  0.80419002446E+02 0.  0.
          1    1    1    2  501    0 -0.17672687966E+02  0.21960749537E+02 -0.62444461433E+02  0.68512109760E+02  0.00000000000E+00 0. -1.
         -2    1    1    2    0  502  0.99878594201E+01 -0.24327321506E+02  0.27935147952E+02  0.38365979703E+02  0.00000000000E+00 0.  1.
<mgrwt>
<rscale>  2 0.67653229E+02</rscale>
<asrwt>0</asrwt>
<pdfrwt beam="1">  1       21 0.19363541E-01 0.67653229E+02</pdfrwt>
<pdfrwt beam="2">  1       21 0.13677356E-01 0.67653229E+02</pdfrwt>
<totfact> 0.11205316E+06</totfact>
</mgrwt>
</event>
<event>
 5    1  0.1708429E+000  0.1284698E+03  0.7546771E-02  0.1229744E+00
         21   -1    0    0  503  502  0.00000000000E+00  0.00000000000E+00  0.13952856548E+04  0.13952856548E+04  0.00000000000E+00 0. -1.
         21   -1    0    0  501  503 -0.00000000000E+00 -0.00000000000E+00 -0.16754341067E+02  0.16754341067E+02  0.00000000000E+00 0. -1.
         24    1    1    2    0    0  0.11427446068E+03  0.50387829754E+01  0.35197669910E+03  0.37873322320E+03  0.80419002446E+02 0. -1.
          1    1    1    2  501    0 -0.93438562505E+02 -0.13909552530E+02  0.77543585985E+03  0.78116900435E+03  0.00000000000E+00 0. -1.
         -2    1    1    2    0  502 -0.20835898171E+02  0.88707695548E+01  0.25111875483E+03  0.25213776836E+03  0.00000000000E+00 0.  1.
<mgrwt>
<rscale>  2 0.12846983E+03</rscale>
<asrwt>0</asrwt>
<pdfrwt beam="1">  1       21 0.21465924E+00 0.12846983E+03</pdfrwt>
<pdfrwt beam="2">  1       21 0.25775920E-02 0.12846983E+03</pdfrwt>
<totfact> 0.92093262E+04</totfact>
</mgrwt>
</event>
<event>
 5    1  0.1708429E+000  0.6843214E+02  0.7546771E-02  0.1365507E+00
         21   -1    0    0  501  502  0.00000000000E+00  0.00000000000E+00  0.39684585456E+03  0.39684585456E+03  0.00000000000E+00 0. -1.
         21   -1    0    0  502  503 -0.00000000000E+00 -0.00000000000E+00 -0.71534238776E+03  0.71534238776E+03  0.00000000000E+00 0.  1.
         24    1    1    2    0    0 -0.27468649455E+02 -0.14174796243E+02  0.66597305150E+02  0.10889384078E+03  0.80419002446E+02 0.  0.
          1    1    1    2  501    0  0.26153888701E+02 -0.88776006511E+01  0.30829074432E+03  0.30952547669E+03  0.00000000000E+00 0. -1.
         -2    1    1    2    0  503  0.13147607538E+01  0.23052396894E+02 -0.69338458267E+03  0.69376892485E+03  0.00000000000E+00 0.  1.
<mgrwt>
<rscale>  2 0.68432140E+02</rscale>
<asrwt>0</asrwt>
<pdfrwt beam="1">  1       21 0.61053209E-01 0.68432140E+02</pdfrwt>
<pdfrwt beam="2">  1       21 0.11005267E+00 0.68432140E+02</pdfrwt>
<totfact> 0.19439275E+03</totfact>
</mgrwt>
</event>
<event>
 5    1  0.4181079E+000  0.1251277E+03  0.7546771E-02  0.1234870E+00
         21   -1    0    0  503  502  0.00000000000E+00  0.00000000000E+00  0.48026488696E+03  0.48026488696E+03  0.00000000000E+00 0.  1.
         21   -1    0    0  501  503 -0.00000000000E+00 -0.00000000000E+00 -0.78182334440E+02  0.78182334440E+02  0.00000000000E+00 0. -1.
         24    1    1    2    0    0 -0.28482479260E+02  0.20996848436E+01  0.15874794187E+03  0.18023258669E+03  0.80419002446E+02 0. -1.
          1    1    1    2  501    0  0.95917103647E+02 -0.12340961600E+02 -0.26191636337E+02  0.10019177571E+03  0.00000000000E+00 0. -1.
         -2    1    1    2    0  502 -0.67434624387E+02  0.10241276757E+02  0.26952624698E+03  0.27802285900E+03  0.00000000000E+00 0.  1.
<mgrwt>
<rscale>  2 0.12512769E+03</rscale>
<asrwt>0</asrwt>
<pdfrwt beam="1">  1       21 0.73886904E-01 0.12512769E+03</pdfrwt>
<pdfrwt beam="2">  1       21 0.12028052E-01 0.12512769E+03</pdfrwt>
<totfact> 0.98727366E+04</totfact>
</mgrwt>
</event>
<event>
 5    1  0.1708429E+000  0.9123769E+02  0.7546771E-02  0.1299882E+00
         21   -1    0    0  503  502  0.00000000000E+00  0.00000000000E+00  0.68693661757E+02  0.68693661757E+02  0.00000000000E+00 0. -1.
         21   -1    0    0  501  503 -0.00000000000E+00 -0.00000000000E+00 -0.16736471333E+03  0.16736471333E+03  0.00000000000E+00 0.  1.
         24    1    1    2    0    0 -0.46263139269E+02  0.11268849965E+02 -0.12301890930E+02  0.94264614301E+02  0.80419002446E+02 0. -1.
          1    1    1    2  501    0  0.58665418119E+01 -0.39371857924E+02 -0.83496161750E+02  0.92499559654E+02  0.00000000000E+00 0. -1.
         -2    1    1    2    0  502  0.40396597457E+02  0.28103007958E+02 -0.28729988926E+01  0.49294201130E+02  0.00000000000E+00 0.  1.
<mgrwt>
<rscale>  2 0.91237689E+02</rscale>
<asrwt>0</asrwt>
<pdfrwt beam="1">  1       21 0.10568256E-01 0.91237689E+02</pdfrwt>
<pdfrwt beam="2">  1       21 0.25748417E-01 0.91237689E+02</pdfrwt>
<totfact> 0.10487419E+06</totfact>
</mgrwt>
</event>
<event>
 5    1  0.1708429E+000  0.8668892E+02  0.7546771E-02  0.1311074E+00
         21   -1    0    0  501  502  0.00000000000E+00  0.00000000000E+00  0.11936505294E+02  0.11936505294E+02  0.00000000000E+00 0. -1.
         21   -1    0    0  502  503 -0.00000000000E+00 -0.00000000000E+00 -0.18272328484E+04  0.18272328484E+04  0.00000000000E+00 0. -1.
         24    1    1    2    0    0  0.67603018422E+02 -0.49742573234E+01 -0.10491806568E+04  0.10544392718E+04  0.80419002446E+02 0. -1.
          1    1    1    2  501    0 -0.32917948690E+02 -0.13438991187E+01 -0.21632823973E+02  0.39412897430E+02  0.00000000000E+00 0. -1.
         -2    1    1    2    0  503 -0.34685069733E+02  0.63181564421E+01 -0.74448286233E+03  0.74531718447E+03  0.00000000000E+00 0.  1.
<mgrwt>
<rscale>  2 0.86688921E+02</rscale>
<asrwt>0</asrwt>
<pdfrwt beam="1">  1       21 0.18363863E-02 0.86688921E+02</pdfrwt>
<pdfrwt beam="2">  1       21 0.28111261E+00 0.86688921E+02</pdfrwt>
<totfact> 0.69575613E+04</totfact>
</mgrwt>
</event>
<event>
 5    1  0.1708429E+000  0.6858671E+02  0.7546771E-02  0.1364966E+00
         21   -1    0    0  503  502  0.00000000000E+00  0.00000000000E+00  0.29146507070E+03  0.29146507070E+03  0.00000000000E+00 0.  1.
         21   -1    0    0  501  503 -0.00000000000E+00 -0.00000000000E+00 -0.51123504899E+02  0.51123504899E+02  0.00000000000E+00 0. -1.
         24    1    1    2    0    0  0.77593872734E+01  0.25678692763E+01  0.10890828116E+03  0.13562828504E+03  0.80419002446E+02 0.  0.
          1    1    1    2  501    0 -0.64329978485E+01 -0.29085979173E+02 -0.30635683470E+02  0.42730817303E+02  0.00000000000E+00 0. -1.
         -2    1    1    2    0  502 -0.13263894249E+01  0.26518109896E+02  0.16206896810E+03  0.16422947325E+03  0.00000000000E+00 0.  1.
<mgrwt>
<rscale>  2 0.68586709E+02</rscale>
<asrwt>0</asrwt>
<pdfrwt beam="1">  1       21 0.44840779E-01 0.68586709E+02</pdfrwt>
<pdfrwt beam="2">  1       21 0.78651548E-02 0.68586709E+02</pdfrwt>
<totfact> 0.59333405E+05</totfact>
</mgrwt>
</event>
<event>
 5    1  0.1708429E+000  0.9274098E+02  0.7546771E-02  0.1296347E+00
         21   -1    0    0  501  502  0.00000000000E+00  0.00000000000E+00  0.20382928840E+03  0.20382928840E+03  0.00000000000E+00 0. -1.
         21   -1    0    0  502  503 -0.00000000000E+00 -0.00000000000E+00 -0.59520602075E+02  0.59520602075E+02  0.00000000000E+00 0. -1.
         24    1    1    2    0    0  0.28952876246E+02  0.51181641617E+02  0.99998976108E+01  0.10012513864E+03  0.80419002446E+02 0. -1.
          1    1    1    2  501    0 -0.34913808089E+01 -0.59092308559E+02  0.11787792796E+03  0.13190639322E+03  0.00000000000E+00 0. -1.
         -2    1    1    2    0  503 -0.25461495438E+02  0.79106669414E+01  0.16430860751E+02  0.31318358616E+02  0.00000000000E+00 0.  1.
<mgrwt>
<rscale>  2 0.92740980E+02</rscale>
<asrwt>0</asrwt>
<pdfrwt beam="1">  1       21 0.31358352E-01 0.92740980E+02</pdfrwt>
<pdfrwt beam="2">  1       21 0.91570158E-02 0.92740980E+02</pdfrwt>
<totfact> 0.92475474E+05</totfact>
</mgrwt>
</event>
<event>
 5    1  0.1708429E+000  0.9886483E+02  0.7546771E-02  0.1282701E+00
         21   -1    0    0  501  502  0.00000000000E+00  0.00000000000E+00  0.62117614085E+03  0.62117614085E+03  0.00000000000E+00 0. -1.
         21   -1    0    0  502  503 -0.00000000000E+00 -0.00000000000E+00 -0.80293605395E+02  0.80293605395E+02  0.00000000000E+00 0.  1.
         24    1    1    2    0    0  0.51542663053E+02 -0.51795637257E+02  0.20544298660E+03  0.23240798362E+03  0.80419002446E+02 0.  0.
          1    1    1    2  501    0 -0.23849878308E+02 -0.63388392069E+01  0.38624910640E+03  0.38703665172E+03  0.00000000000E+00 0. -1.
         -2    1    1    2    0  503 -0.27692784745E+02  0.58134476464E+02 -0.50809557547E+02  0.82025110904E+02  0.00000000000E+00 0.  1.
<mgrwt>
<rscale>  2 0.98864834E+02</rscale>
<asrwt>0</asrwt>
<pdfrwt beam="1">  1       21 0.95565557E-01 0.98864834E+02</pdfrwt>
<pdfrwt beam="2">  1       21 0.12352863E-01 0.98864834E+02</pdfrwt>
<totfact> 0.53638941E+04</totfact>
</mgrwt>
</event>
<event>
 5    1  0.1708429E+000  0.1048696E+03  0.7546771E-02  0.1270377E+00
         21   -1    0    0  501  502  0.00000000000E+00  0.00000000000E+00  0.19713935456E+03  0.19713935456E+03  0.00000000000E+00 0. -1.
         21   -1    0    0  502  503 -0.00000000000E+00 -0.00000000000E+00 -0.61597588682E+02  0.61597588682E+02  0.00000000000E+00 0. -1.
         24    1    1    2    0    0 -0.62073792113E+02  0.58067753015E+02  0.11134266939E+03  0.16152221392E+03  0.80419002446E+02 0. -1.
          1    1    1    2  501    0  0.33283288361E+02 -0.54300872523E+02  0.24330079641E+02  0.68178550998E+02  0.00000000000E+00 0. -1.
         -2    1    1    2    0  503  0.28790503753E+02 -0.37668804918E+01 -0.13098315834E+00  0.29036178322E+02  0.00000000000E+00 0.  1.
<mgrwt>
<rscale>  2 0.10486964E+03</rscale>
<asrwt>0</asrwt>
<pdfrwt beam="1">  1       21 0.30329131E-01 0.10486964E+03</pdfrwt>
<pdfrwt beam="2">  1       21 0.94765522E-02 0.10486964E+03</pdfrwt>
<totfact> 0.93070923E+05</totfact>
</mgrwt>
</event>
<event>
 5    1  0.1708429E+000  0.8012499E+02  0.7546771E-02  0.1328697E+00
         21   -1    0    0  503  502  0.00000000000E+00  0.00000000000E+00  0.58125770002E+03  0.58125770002E+03  0.00000000000E+00 0.  1.
         21   -1    0    0  501  503 -0.00000000000E+00 -0.00000000000E+00 -0.62028024917E+02  0.62028024917E+02  0.00000000000E+00 0.  1.
         24    1    1    2    0    0  0.46212145924E+02  0.24967338441E+02  0.13931861830E+02  0.97057937069E+02  0.80419002446E+02 0.  1.
          1    1    1    2  501    0 -0.22355784217E+02  0.77893905309E+01 -0.12551446667E+02  0.26795419501E+02  0.00000000000E+00 0. -1.
         -2    1    1    2    0  502 -0.23856361706E+02 -0.32756728972E+02  0.51784925994E+03  0.51943236837E+03  0.00000000000E+00 0.  1.
<mgrwt>
<rscale>  2 0.80124986E+02</rscale>
<asrwt>0</asrwt>
<pdfrwt beam="1">  1       21 0.89424258E-01 0.80124986E+02</pdfrwt>
<pdfrwt beam="2">  1       21 0.95427735E-02 0.80124986E+02</pdfrwt>
<totfact> 0.99030389E+04</totfact>
</mgrwt>
</event>
<event>
 5    1  0.1708429E+000  0.7435501E+02  0.7546771E-02  0.1345880E+00
         21   -1    0    0  501  502  0.00000000000E+00  0.00000000000E+00  0.13674624040E+03  0.13674624040E+03  0.00000000000E+00 0. -1.
         21   -1    0    0  502  503 -0.00000000000E+00 -0.00000000000E+00 -0.81014406241E+02  0.81014406241E+02  0.00000000000E+00 0. -1.
         24    1    1    2    0    0  0.44438321779E+01 -0.51756308966E+02  0.34877676944E+02  0.10189274491E+03  0.80419002446E+02 0. -1.
          1    1    1    2  501    0 -0.68261169977E+01  0.20116481195E+02  0.61060189742E+02  0.64649945555E+02  0.00000000000E+00 0. -1.
         -2    1    1    2    0  503  0.23822848198E+01  0.31639827771E+02 -0.40206032531E+02  0.51217956170E+02  0.00000000000E+00 0.  1.
<mgrwt>
<rscale>  2 0.74355013E+02</rscale>
<asrwt>0</asrwt>
<pdfrwt beam="1">  1       21 0.21037883E-01 0.74355013E+02</pdfrwt>
<pdfrwt beam="2">  1       21 0.12463755E-01 0.74355013E+02</pdfrwt>
<totfact> 0.11376806E+06</totfact>
</mgrwt>
</event>
<event>
 5    1  0.1708429E+000  0.1194505E+03  0.7546771E-02  0.1244006E+00
         21   -1    0    0  501  502  0.00000000000E+00  0.00000000000E+00  0.66307927391E+02  0.66307927391E+02  0.00000000000E+00 0.  1.
         21   -1    0    0  502  503 -0.00000000000E+00 -0.00000000000E+00 -0.27029302306E+03  0.27029302306E+03  0.00000000000E+00 0.  1.
         24    1    1    2    0    0 -0.78853386171E+02  0.67188088969E+02 -0.62758609199E+02  0.14538897755E+03  0.80419002446E+02 0.  1.
          1    1    1    2  501    0  0.51256564607E+02 -0.24227336009E+02 -0.20767620397E+02  0.60377920487E+02  0.00000000000E+00 0. -1.
         -2    1    1    2    0  503  0.27596821565E+02 -0.42960752959E+02 -0.12045886607E+03  0.13083405241E+03  0.00000000000E+00 0.  1.
<mgrwt>
<rscale>  2 0.11945045E+03</rscale>
<asrwt>0</asrwt>
<pdfrwt beam="1">  1       21 0.10201219E-01 0.11945045E+03</pdfrwt>
<pdfrwt beam="2">  1       21 0.41583543E-01 0.11945045E+03</pdfrwt>
<totfact> 0.44084401E+05</totfact>
</mgrwt>
</event>
<event>
 5    1  0.1708429E+000  0.6929143E+02  0.7546771E-02  0.1362519E+00
         21   -1    0    0  501  502  0.00000000000E+00  0.00000000000E+00  0.16303822427E+03  0.16303822427E+03  0.00000000000E+00 0. -1.
         21   -1    0    0  502  503 -0.00000000000E+00 -0.00000000000E+00 -0.17228428069E+03  0.17228428069E+03  0.00000000000E+00 0.  1.
         24    1    1    2    0    0 -0.29042730044E+02  0.71399821060E+01  0.11450466826E+03  0.14308387233E+03  0.80419002446E+02 0. -1.
          1    1    1    2  501    0  0.12023233959E+02 -0.25227895899E+02  0.27354501205E+02  0.39105928228E+02  0.00000000000E+00 0. -1.
         -2    1    1    2    0  503  0.17019496085E+02  0.18087913793E+02 -0.15110522587E+03  0.15313270441E+03  0.00000000000E+00 0.  1.
<mgrwt>
<rscale>  2 0.69291426E+02</rscale>
<asrwt>0</asrwt>
<pdfrwt beam="1">  1       21 0.25082804E-01 0.69291426E+02</pdfrwt>
<pdfrwt beam="2">  1       21 0.26505274E-01 0.69291426E+02</pdfrwt>
<totfact> 0.21073688E+05</totfact>
</mgrwt>
</event>
<event>
 5    1  0.1708429E+000  0.6489924E+02  0.7546771E-02  0.1378351E+00
         21   -1    0    0  503  502  0.00000000000E+00  0.00000000000E+00  0.62544673710E+02  0.62544673710E+02  0.00000000000E+00 0. -1.
         21   -1    0    0  501  503 -0.00000000000E+00 -0.00000000000E+00 -0.82780561619E+02  0.82780561619E+02  0.00000000000E+00 0.  1.
         24    1    1    2    0    0 -0.31624281313E+01 -0.53021009290E+01  0.17907129009E+02  0.82619576673E+02  0.80419002446E+02 0. -1.
          1    1    1    2  501    0 -0.22624995742E+02 -0.81561440514E+00 -0.22558557677E+02  0.31960040420E+02  0.00000000000E+00 0. -1.
         -2    1    1    2    0  502  0.25787423873E+02  0.61177153342E+01 -0.15584459240E+02  0.30745618236E+02  0.00000000000E+00 0.  1.
<mgrwt>
<rscale>  2 0.64899238E+02</rscale>
<asrwt>0</asrwt>
<pdfrwt beam="1">  1       21 0.96222575E-02 0.64899238E+02</pdfrwt>
<pdfrwt beam="2">  1       21 0.12735471E-01 0.64899238E+02</pdfrwt>
<totfact> 0.43296318E+06</totfact>
</mgrwt>
</event>
<event>
 5    1  0.1708429E+000  0.6718781E+02  0.7546771E-02  0.1369926E+00
         21   -1    0    0  501  502  0.00000000000E+00  0.00000000000E+00  0.30689676023E+02  0.30689676023E+02  0.00000000000E+00 0. -1.
         21   -1    0    0  502  503 -0.00000000000E+00 -0.00000000000E+00 -0.10685544159E+04  0.10685544159E+04  0.00000000000E+00 0.  1.
         24    1    1    2    0    0 -0.77409473132E+01  0.25621248476E+02 -0.54004880567E+02  0.10049932198E+03  0.80419002446E+02 0.  0.
          1    1    1    2  501    0 -0.16468311430E+02 -0.17630878977E+02 -0.12726186705E+02  0.27276528424E+02  0.00000000000E+00 0. -1.
         -2    1    1    2    0  503  0.24209258743E+02 -0.79903694992E+01 -0.97113367263E+03  0.97146824154E+03  0.00000000000E+00 0.  1.
<mgrwt>
<rscale>  2 0.67187814E+02</rscale>
<asrwt>0</asrwt>
<pdfrwt beam="1">  1       21 0.47214884E-02 0.67187814E+02</pdfrwt>
<pdfrwt beam="2">  1       21 0.16439299E+00 0.67187814E+02</pdfrwt>
<totfact> 0.75730260E+04</totfact>
</mgrwt>
</event>
<event>
 5    1  0.1708429E+000  0.1133731E+03  0.7546771E-02  0.1254448E+00
         21   -1    0    0  503  502  0.00000000000E+00  0.00000000000E+00  0.12263657282E+02  0.12263657282E+02  0.00000000000E+00 0.  1.
         21   -1    0    0  501  503 -0.00000000000E+00 -0.00000000000E+00 -0.19143995732E+04  0.19143995732E+04  0.00000000000E+00 0.  1.
         24    1    1    2    0    0 -0.18220026920E+02 -0.72610621556E+02 -0.14131867075E+04  0.14174512894E+04  0.80419002446E+02 0.  1.
          1    1    1    2  501    0  0.31920634699E+02  0.89561803336E+02 -0.47232530035E+03  0.48180020017E+03  0.00000000000E+00 0. -1.
         -2    1    1    2    0  502 -0.13700607779E+02 -0.16951181780E+02 -0.16623908051E+02  0.27411740844E+02  0.00000000000E+00 0.  1.
<mgrwt>
<rscale>  2 0.11337307E+03</rscale>
<asrwt>0</asrwt>
<pdfrwt beam="1">  1       21 0.18867160E-02 0.11337307E+03</pdfrwt>
<pdfrwt beam="2">  1       21 0.29452308E+00 0.11337307E+03</pdfrwt>
<totfact> 0.54011741E+04</totfact>
</mgrwt>
</event>
<event>
 5    1  0.1708429E+000  0.1295338E+03  0.7546771E-02  0.1228149E+00
         21   -1    0    0  503  502  0.00000000000E+00  0.00000000000E+00  0.25906332868E+03  0.25906332868E+03  0.00000000000E+00 0.  1.
         21   -1    0    0  501  503 -0.00000000000E+00 -0.00000000000E+00 -0.91299160983E+02  0.91299160983E+02  0.00000000000E+00 0. -1.
         24    1    1    2    0    0 -0.33715781682E+02  0.51566382137E+02  0.15960029365E+02  0.10255624892E+03  0.80419002446E+02 0. -1.
          1    1    1    2  501    0  0.81489172108E+02  0.74530214978E+01  0.43438779537E+01  0.81944505465E+02  0.00000000000E+00 0. -1.
         -2    1    1    2    0  502 -0.47773390425E+02 -0.59019403635E+02  0.14746026038E+03  0.16586173527E+03  0.00000000000E+00 0.  1.
<mgrwt>
<rscale>  2 0.12953376E+03</rscale>
<asrwt>0</asrwt>
<pdfrwt beam="1">  1       21 0.39855896E-01 0.12953376E+03</pdfrwt>
<pdfrwt beam="2">  1       21 0.14046025E-01 0.12953376E+03</pdfrwt>
<totfact> 0.27205781E+05</totfact>
</mgrwt>
</event>
<event>
 5    1  0.1708429E+000  0.7317613E+02  0.7546771E-02  0.1349614E+00
         21   -1    0    0  501  502  0.00000000000E+00  0.00000000000E+00  0.59597582153E+03  0.59597582153E+03  0.00000000000E+00 0. -1.
         21   -1    0    0  502  503 -0.00000000000E+00 -0.00000000000E+00 -0.43029374923E+02  0.43029374923E+02  0.00000000000E+00 0.  1.
         24    1    1    2    0    0 -0.18064988538E+02 -0.17077548229E+02  0.95147986789E+02  0.12703677345E+03  0.80419002446E+02 0. -1.
          1    1    1    2  501    0  0.58814089233E+01  0.37737879256E+02  0.47865928556E+03  0.48018064326E+03  0.00000000000E+00 0. -1.
         -2    1    1    2    0  503  0.12183579615E+02 -0.20660331027E+02 -0.20860825746E+02  0.31787779746E+02  0.00000000000E+00 0.  1.
<mgrwt>
<rscale>  2 0.73176130E+02</rscale>
<asrwt>0</asrwt>
<pdfrwt beam="1">  1       21 0.91688582E-01 0.73176130E+02</pdfrwt>
<pdfrwt beam="2">  1       21 0.66199043E-02 0.73176130E+02</pdfrwt>
<totfact> 0.17495182E+05</totfact>
</mgrwt>
</event>
<event>
 5    1  0.1708429E+000  0.7090477E+02  0.7546771E-02  0.1357043E+00
         21   -1    0    0  501  502  0.00000000000E+00  0.00000000000E+00  0.47732360973E+03  0.47732360973E+03  0.00000000000E+00 0.  1.
         21   -1    0    0  502  503 -0.00000000000E+00 -0.00000000000E+00 -0.12337888029E+03  0.12337888029E+03  0.00000000000E+00 0.  1.
         24    1    1    2    0    0  0.22035864482E+02  0.38384255955E+02  0.20446187977E+03  0.22412230291E+03  0.80419002446E+02 0.  1.
          1    1    1    2  501    0 -0.21950958112E+02 -0.14898091994E+02  0.26113776420E+03  0.26248186528E+03  0.00000000000E+00 0. -1.
         -2    1    1    2    0  503 -0.84906369760E-01 -0.23486163961E+02 -0.11165491453E+03  0.11409832183E+03  0.00000000000E+00 0.  1.
<mgrwt>
<rscale>  2 0.70904773E+02</rscale>
<asrwt>0</asrwt>
<pdfrwt beam="1">  1       21 0.73434400E-01 0.70904773E+02</pdfrwt>
<pdfrwt beam="2">  1       21 0.18981366E-01 0.70904773E+02</pdfrwt>
<totfact> 0.45815372E+04</totfact>
</mgrwt>
</event>
<event>
 5    1  0.1708429E+000  0.8318332E+02  0.7546771E-02  0.1320253E+00
         21   -1    0    0  501  502  0.00000000000E+00  0.00000000000E+00  0.35412605649E+03  0.35412605649E+03  0.00000000000E+00 0. -1.
         21   -1    0    0  502  503 -0.00000000000E+00 -0.00000000000E+00 -0.45385852430E+02  0.45385852430E+02  0.00000000000E+00 0.  1.
         24    1    1    2    0    0  0.13964168123E+02  0.62076861505E+02  0.27994003630E+02  0.10629870610E+03  0.80419002446E+02 0.  0.
          1    1    1    2  501    0 -0.64516506387E+01 -0.39576476246E+02  0.25528115909E+03  0.25841128353E+03  0.00000000000E+00 0. -1.
         -2    1    1    2    0  503 -0.75125174840E+01 -0.22500385260E+02  0.25465041339E+02  0.34801919289E+02  0.00000000000E+00 0.  1.
<mgrwt>
<rscale>  2 0.83183319E+02</rscale>
<asrwt>0</asrwt>
<pdfrwt beam="1">  1       21 0.54480930E-01 0.83183319E+02</pdfrwt>
<pdfrwt beam="2">  1       21 0.69824391E-02 0.83183319E+02</pdfrwt>
<totfact> 0.48947572E+05</totfact>
</mgrwt>
</event>
<event>
 5    1  0.1708429E+000  0.7840018E+02  0.7546771E-02  0.1333654E+00
         21   -1    0    0  503  502  0.00000000000E+00  0.00000000000E+00  0.88784581200E+02  0.88784581200E+02  0.00000000000E+00 0.  1.
         21   -1    0    0  501  503 -0.00000000000E+00 -0.00000000000E+00 -0.26547910000E+03  0.26547910000E+03  0.00000000000E+00 0. -1.
         24    1    1    2    0    0  0.31841219716E+02  0.53728320556E+01 -0.16770577138E+03  0.18877280605E+03  0.80419002446E+02 0.  0.
          1    1    1    2  501    0 -0.48374818803E+02  0.78015022604E+01 -0.78665172479E+02  0.92677914807E+02  0.00000000000E+00 0. -1.
         -2    1    1    2    0  502  0.16533599087E+02 -0.13174334316E+02  0.69676425062E+02  0.72812960336E+02  0.00000000000E+00 0.  1.
<mgrwt>
<rscale>  2 0.78400182E+02</rscale>
<asrwt>0</asrwt>
<pdfrwt beam="1">  1       21 0.13659166E-01 0.78400182E+02</pdfrwt>
<pdfrwt beam="2">  1       21 0.40842939E-01 0.78400182E+02</pdfrwt>
<totfact> 0.27521087E+05</totfact>
</mgrwt>
</event>
<event>
 5    1  0.1708429E+000  0.1040845E+03  0.7546771E-02  0.1271934E+00
         21   -1    0    0  501  502  0.00000000000E+00  0.00000000000E+00  0.61158201750E+02  0.61158201750E+02  0.00000000000E+00 0.  1.
         21   -1    0    0  502  503 -0.00000000000E+00 -0.00000000000E+00 -0.43821326663E+03  0.43821326663E+03  0.00000000000E+00 0. -1.
         24    1    1    2    0    0 -0.51874006049E+02 -0.10146819533E+02 -0.21662554912E+03  0.23703947970E+03  0.80419002446E+02 0. -1.
          1    1    1    2  501    0 -0.28719678869E+02 -0.69469071281E+01  0.37616056378E+02  0.47833536044E+02  0.00000000000E+00 0. -1.
         -2    1    1    2    0  503  0.80593684919E+02  0.17093726661E+02 -0.19804557214E+03  0.21449845264E+03  0.00000000000E+00 0.  1.
<mgrwt>
<rscale>  2 0.10408448E+03</rscale>
<asrwt>0</asrwt>
<pdfrwt beam="1">  1       21 0.94089543E-02 0.10408448E+03</pdfrwt>
<pdfrwt beam="2">  1       21 0.67417424E-01 0.10408448E+03</pdfrwt>
<totfact> 0.18679966E+05</totfact>
</mgrwt>
</event>
<event>
 5    1  0.1708429E+000  0.1398846E+03  0.7546771E-02  0.1213484E+00
         21   -1    0    0  501  502  0.00000000000E+00  0.00000000000E+00  0.78171382469E+02  0.78171382469E+02  0.00000000000E+00 0. -1.
         21   -1    0    0  502  503 -0.00000000000E+00 -0.00000000000E+00 -0.62786725200E+03  0.62786725200E+03  0.00000000000E+00 0.  1.
         24    1    1    2    0    0 -0.10558741485E+03 -0.62270534596E+02 -0.31296041166E+03  0.34559768065E+03  0.80419002446E+02 0.  1.
          1    1    1    2  501    0  0.28779870960E+02  0.46602797102E+02  0.43186044031E+02  0.69750527376E+02  0.00000000000E+00 0. -1.
         -2    1    1    2    0  503  0.76807543886E+02  0.15667737494E+02 -0.27992150190E+03  0.29069042643E+03  0.00000000000E+00 0.  1.
<mgrwt>
<rscale>  2 0.13988460E+03</rscale>
<asrwt>0</asrwt>
<pdfrwt beam="1">  1       21 0.12026367E-01 0.13988460E+03</pdfrwt>
<pdfrwt beam="2">  1       21 0.96594959E-01 0.13988460E+03</pdfrwt>
<totfact> 0.53493321E+04</totfact>
</mgrwt>
</event>
<event>
 5    1  0.1708429E+000  0.9169312E+02  0.7546771E-02  0.1298803E+00
         21   -1    0    0  503  502  0.00000000000E+00  0.00000000000E+00  0.17494902567E+02  0.17494902567E+02  0.00000000000E+00 0.  1.
         21   -1    0    0  501  503 -0.00000000000E+00 -0.00000000000E+00 -0.49394939564E+03  0.49394939564E+03  0.00000000000E+00 0. -1.
         24    1    1    2    0    0 -0.33132754719E+02 -0.29724854945E+01 -0.20478642887E+03  0.22251137613E+03  0.80419002446E+02 0.  1.
          1    1    1    2  501    0  0.58334344890E+02  0.24445568424E+02 -0.20433062976E+03  0.21389597441E+03  0.00000000000E+00 0. -1.
         -2    1    1    2    0  502 -0.25201590171E+02 -0.21473082930E+02 -0.67337434436E+02  0.75036947660E+02  0.00000000000E+00 0.  1.
<mgrwt>
<rscale>  2 0.91693117E+02</rscale>
<asrwt>0</asrwt>
<pdfrwt beam="1">  1       21 0.26915233E-02 0.91693117E+02</pdfrwt>
<pdfrwt beam="2">  1       21 0.75992219E-01 0.91693117E+02</pdfrwt>
<totfact> 0.11671058E+06</totfact>
</mgrwt>
</event>
<event>
 5    1  0.1708429E+000  0.7574142E+02  0.7546771E-02  0.1341590E+00
         21   -1    0    0  503  502  0.00000000000E+00  0.00000000000E+00  0.60101734305E+02  0.60101734305E+02  0.00000000000E+00 0.  1.
         21   -1    0    0  501  503 -0.00000000000E+00 -0.00000000000E+00 -0.15676293467E+03  0.15676293467E+03  0.00000000000E+00 0. -1.
         24    1    1    2    0    0  0.24344658498E+02  0.22993824777E+01 -0.91588384064E+02  0.12431249980E+03  0.80419002446E+02 0. -1.
          1    1    1    2  501    0 -0.31513926217E+02  0.24353914182E+02 -0.34148081165E+02  0.52462673673E+02  0.00000000000E+00 0. -1.
         -2    1    1    2    0  502  0.71692677191E+01 -0.26653296660E+02  0.29075264865E+02  0.40089495500E+02  0.00000000000E+00 0.  1.
<mgrwt>
<rscale>  2 0.75741420E+02</rscale>
<asrwt>0</asrwt>
<pdfrwt beam="1">  1       21 0.92464207E-02 0.75741420E+02</pdfrwt>
<pdfrwt beam="2">  1       21 0.24117374E-01 0.75741420E+02</pdfrwt>
<totfact> 0.14847539E+06</totfact>
</mgrwt>
</event>
<event>
 5    1  0.1708429E+000  0.7099049E+02  0.7546771E-02  0.1356757E+00
         21   -1    0    0  503  502  0.00000000000E+00  0.00000000000E+00  0.53239048513E+01  0.53239048513E+01  0.00000000000E+00 0. -1.
         21   -1    0    0  501  503 -0.00000000000E+00 -0.00000000000E+00 -0.99531827161E+03  0.99531827161E+03  0.00000000000E+00 0.  1.
         24    1    1    2    0    0 -0.25788428677E+02  0.19215938175E+02 -0.63393896507E+03  0.63982819782E+03  0.80419002446E+02 0.  0.
          1    1    1    2  501    0  0.33071067464E+02  0.18077052595E+01 -0.26584996133E+03  0.26790514224E+03  0.00000000000E+00 0. -1.
         -2    1    1    2    0  502 -0.72826387868E+01 -0.21023643434E+02 -0.90205440352E+02  0.92908836393E+02  0.00000000000E+00 0.  1.
<mgrwt>
<rscale>  2 0.70990490E+02</rscale>
<asrwt>0</asrwt>
<pdfrwt beam="1">  1       21 0.81906242E-03 0.70990490E+02</pdfrwt>
<pdfrwt beam="2">  1       21 0.15312586E+00 0.70990490E+02</pdfrwt>
<totfact> 0.14699812E+06</totfact>
</mgrwt>
</event>
<event>
 5    1  0.1708429E+000  0.9622867E+02  0.7546771E-02  0.1288433E+00
         21   -1    0    0  501  502  0.00000000000E+00  0.00000000000E+00  0.90157825484E+01  0.90157825484E+01  0.00000000000E+00 0. -1.
         21   -1    0    0  502  503 -0.00000000000E+00 -0.00000000000E+00 -0.11619942804E+04  0.11619942804E+04  0.00000000000E+00 0.  1.
         24    1    1    2    0    0 -0.50722003229E+01 -0.35970735067E+02 -0.62837972016E+03  0.63454543546E+03  0.80419002446E+02 0.  1.
          1    1    1    2  501    0 -0.11645661515E+01  0.69802620657E+02 -0.24483678927E+03  0.25459539557E+03  0.00000000000E+00 0. -1.
         -2    1    1    2    0  503  0.62367664744E+01 -0.33831885589E+02 -0.27976198845E+03  0.28186923195E+03  0.00000000000E+00 0.  1.
<mgrwt>
<rscale>  2 0.96228667E+02</rscale>
<asrwt>0</asrwt>
<pdfrwt beam="1">  1       21 0.13870449E-02 0.96228667E+02</pdfrwt>
<pdfrwt beam="2">  1       21 0.17876817E+00 0.96228667E+02</pdfrwt>
<totfact> 0.42782579E+05</totfact>
</mgrwt>
</event>
<event>
 5    1  0.1708429E+000  0.1136759E+03  0.7546771E-02  0.1253910E+00
         21   -1    0    0  501  502  0.00000000000E+00  0.00000000000E+00  0.80521084792E+03  0.80521084792E+03  0.00000000000E+00 0. -1.
         21   -1    0    0  502  503 -0.00000000000E+00 -0.00000000000E+00 -0.27701490975E+02  0.27701490975E+02  0.00000000000E+00 0. -1.
         24    1    1    2    0    0 -0.69378153676E+02  0.65715851273E+02  0.17955720573E+03  0.21872335815E+03  0.80419002446E+02 0. -1.
          1    1    1    2  501    0  0.32488387826E+02 -0.55276575180E+02  0.54530633097E+03  0.54906282856E+03  0.00000000000E+00 0. -1.
         -2    1    1    2    0  503  0.36889765850E+02 -0.10439276092E+02  0.52645820248E+02  0.65126152192E+02  0.00000000000E+00 0.  1.
<mgrwt>
<rscale>  2 0.11367594E+03</rscale>
<asrwt>0</asrwt>
<pdfrwt beam="1">  1       21 0.12387857E+00 0.11367594E+03</pdfrwt>
<pdfrwt beam="2">  1       21 0.42617685E-02 0.11367594E+03</pdfrwt>
<totfact> 0.17708635E+05</totfact>
</mgrwt>
</event>
<event>
 5    1  0.1708429E+000  0.7340790E+02  0.7546771E-02  0.1348873E+00
         21   -1    0    0  501  502  0.00000000000E+00  0.00000000000E+00  0.15577005991E+03  0.15577005991E+03  0.00000000000E+00 0. -1.
         21   -1    0    0  502  503 -0.00000000000E+00 -0.00000000000E+00 -0.57569420118E+02  0.57569420118E+02  0.00000000000E+00 0.  1.
         24    1    1    2    0    0  0.30606847840E+01 -0.44815098773E+02  0.10948965885E+01  0.92120440849E+02  0.80419002446E+02 0.  1.
          1    1    1    2  501    0  0.13631737157E+02  0.27254992517E+02  0.91374870689E+02  0.96322509667E+02  0.00000000000E+00 0. -1.
         -2    1    1    2    0  503 -0.16692421942E+02  0.17560106256E+02  0.57308725165E+01  0.24896529513E+02  0.00000000000E+00 0.  1.
<mgrwt>
<rscale>  2 0.73407902E+02</rscale>
<asrwt>0</asrwt>
<pdfrwt beam="1">  1       21 0.23964624E-01 0.73407902E+02</pdfrwt>
<pdfrwt beam="2">  1       21 0.88568339E-02 0.73407902E+02</pdfrwt>
<totfact> 0.16151750E+06</totfact>
</mgrwt>
</event>
<event>
 5    1  0.1708429E+000  0.6675590E+02  0.7546771E-02  0.1371486E+00
         21   -1    0    0  503  502  0.00000000000E+00  0.00000000000E+00  0.14587555282E+03  0.14587555282E+03  0.00000000000E+00 0.  1.
         21   -1    0    0  501  503 -0.00000000000E+00 -0.00000000000E+00 -0.34908579049E+02  0.34908579049E+02  0.00000000000E+00 0.  1.
         24    1    1    2    0    0 -0.21658108507E+02  0.14543498458E+02  0.38428363979E+02  0.92868412951E+02  0.80419002446E+02 0.  1.
          1    1    1    2  501    0  0.22066193349E+02  0.10137007034E+02  0.28601168131E+02  0.37519363254E+02  0.00000000000E+00 0. -1.
         -2    1    1    2    0  502 -0.40808484191E+00 -0.24680505491E+02  0.43937441662E+02  0.50396355665E+02  0.00000000000E+00 0.  1.
<mgrwt>
<rscale>  2 0.66755900E+02</rscale>
<asrwt>0</asrwt>
<pdfrwt beam="1">  1       21 0.22442392E-01 0.66755900E+02</pdfrwt>
<pdfrwt beam="2">  1       21 0.53705507E-02 0.66755900E+02</pdfrwt>
<totfact> 0.42043943E+06</totfact>
</mgrwt>
</event>
<event>
 5    1  0.1708429E+000  0.1077920E+03  0.7546771E-02  0.1264714E+00
         21   -1    0    0  503  502  0.00000000000E+00  0.00000000000E+00  0.13336121152E+02  0.13336121152E+02  0.00000000000E+00 0. -1.
         21   -1    0    0  501  503 -0.00000000000E+00 -0.00000000000E+00 -0.90833317976E+03  0.90833317976E+03  0.00000000000E+00 0. -1.
         24    1    1    2    0    0  0.81042046834E+02 -0.35323821230E+02 -0.40256513048E+03  0.41993033462E+03  0.80419002446E+02 0. -1.
          1    1    1    2  501    0 -0.57634162762E+02  0.42477957596E+02 -0.37751086781E+03  0.38424019690E+03  0.00000000000E+00 0. -1.
         -2    1    1    2    0  502 -0.23407884072E+02 -0.71541363661E+01 -0.11492106033E+03  0.11749876940E+03  0.00000000000E+00 0.  1.
<mgrwt>
<rscale>  2 0.10779201E+03</rscale>
<asrwt>0</asrwt>
<pdfrwt beam="1">  1       21 0.20517106E-02 0.10779201E+03</pdfrwt>
<pdfrwt beam="2">  1       21 0.13974359E+00 0.10779201E+03</pdfrwt>
<totfact> 0.43429913E+05</totfact>
</mgrwt>
</event>
<event>
 5    1  0.1708429E+000  0.1369118E+03  0.7546771E-02  0.1217546E+00
         21   -1    0    0  503  502  0.00000000000E+00  0.00000000000E+00  0.12496798103E+04  0.12496798103E+04  0.00000000000E+00 0.  1.
         21   -1    0    0  501  503 -0.00000000000E+00 -0.00000000000E+00 -0.37325141966E+02  0.37325141966E+02  0.00000000000E+00 0. -1.
         24    1    1    2    0    0 -0.74597760951E+02  0.16008628558E+02  0.19624534820E+03  0.22538978409E+03  0.80419002446E+02 0. -1.
          1    1    1    2  501    0  0.11506229389E+03  0.89803991540E+01  0.12845068178E+03  0.17268340017E+03  0.00000000000E+00 0. -1.
         -2    1    1    2    0  502 -0.40464532937E+02 -0.24989027712E+02  0.88765863839E+03  0.88893176805E+03  0.00000000000E+00 0.  1.
<mgrwt>
<rscale>  2 0.13691180E+03</rscale>
<asrwt>0</asrwt>
<pdfrwt beam="1">  1       21 0.19225840E+00 0.13691180E+03</pdfrwt>
<pdfrwt beam="2">  1       21 0.57423305E-02 0.13691180E+03</pdfrwt>
<totfact> 0.33394646E+04</totfact>
</mgrwt>
</event>
<event>
 5    1  0.1708429E+000  0.7372041E+02  0.7546771E-02  0.1347880E+00
         21   -1    0    0  501  502  0.00000000000E+00  0.00000000000E+00  0.90341557916E+01  0.90341557916E+01  0.00000000000E+00 0.  1.
         21   -1    0    0  502  503 -0.00000000000E+00 -0.00000000000E+00 -0.90405157622E+03  0.90405157622E+03  0.00000000000E+00 0.  1.
         24    1    1    2    0    0 -0.16634914624E+02 -0.17143090900E+02 -0.71967563488E+03  0.72454871564E+03  0.80419002446E+02 0.  1.
          1    1    1    2  501    0 -0.98814193804E+01 -0.17395205707E+02 -0.25015419326E+02  0.32031341442E+02  0.00000000000E+00 0. -1.
         -2    1    1    2    0  503  0.26516334004E+02  0.34538296606E+02 -0.15032636623E+03  0.15650567493E+03  0.00000000000E+00 0.  1.
<mgrwt>
<rscale>  2 0.73720406E+02</rscale>
<asrwt>0</asrwt>
<pdfrwt beam="1">  1       21 0.13898701E-02 0.73720406E+02</pdfrwt>
<pdfrwt beam="2">  1       21 0.13908486E+00 0.73720406E+02</pdfrwt>
<totfact> 0.82102308E+05</totfact>
</mgrwt>
</event>
<event>
 5    1  0.1708429E+000  0.6946832E+02  0.7546771E-02  0.1361910E+00
         21   -1    0    0  501  502  0.00000000000E+00  0.00000000000E+00  0.18410605725E+03  0.18410605725E+03  0.00000000000E+00 0. -1.
         21   -1    0    0  502  503 -0.00000000000E+00 -0.00000000000E+00 -0.57140063614E+02  0.57140063614E+02  0.00000000000E+00 0.  1.
         24    1    1    2    0    0  0.35469596006E+02 -0.12958777924E+02 -0.34402172488E+01  0.88910478658E+02  0.80419002446E+02 0.  1.
          1    1    1    2  501    0 -0.71658169652E+01  0.19729387434E+02  0.11938513470E+03  0.12121636873E+03  0.00000000000E+00 0. -1.
         -2    1    1    2    0  503 -0.28303779041E+02 -0.67706095104E+01  0.11021076183E+02  0.31119273471E+02  0.00000000000E+00 0.  1.
<mgrwt>
<rscale>  2 0.69468318E+02</rscale>
<asrwt>0</asrwt>
<pdfrwt beam="1">  1       21 0.28324009E-01 0.69468318E+02</pdfrwt>
<pdfrwt beam="2">  1       21 0.87907791E-02 0.69468318E+02</pdfrwt>
<totfact> 0.11950055E+06</totfact>
</mgrwt>
</event>
<event>
 5    1  0.1708429E+000  0.6448958E+02  0.7546771E-02  0.1379902E+00
         21   -1    0    0  501  502  0.00000000000E+00  0.00000000000E+00  0.28401490600E+02  0.28401490600E+02  0.00000000000E+00 0. -1.
         21   -1    0    0  502  503 -0.00000000000E+00 -0.00000000000E+00 -0.24978834031E+03  0.24978834031E+03  0.00000000000E+00 0.  1.
         24    1    1    2    0    0  0.40156874582E+01  0.49447961486E+01 -0.10195023624E+03  0.13000632053E+03  0.80419002446E+02 0. -1.
          1    1    1    2  501    0 -0.67377524084E+01  0.21085599193E+02  0.35712136044E+01  0.22422162417E+02  0.00000000000E+00 0. -1.
         -2    1    1    2    0  503  0.27220649502E+01 -0.26030395341E+02 -0.12300782707E+03  0.12576134796E+03  0.00000000000E+00 0.  1.
<mgrwt>
<rscale>  2 0.64489583E+02</rscale>
<asrwt>0</asrwt>
<pdfrwt beam="1">  1       21 0.43694602E-02 0.64489583E+02</pdfrwt>
<pdfrwt beam="2">  1       21 0.38428974E-01 0.64489583E+02</pdfrwt>
<totfact> 0.21349501E+06</totfact>
</mgrwt>
</event>
<event>
 5    1  0.1708429E+000  0.7672468E+02  0.7546771E-02  0.1338612E+00
         21   -1    0    0  503  502  0.00000000000E+00  0.00000000000E+00  0.55186462937E+02  0.55186462937E+02  0.00000000000E+00 0.  1.
         21   -1    0    0  501  503 -0.00000000000E+00 -0.00000000000E+00 -0.67862717862E+03  0.67862717862E+03  0.00000000000E+00 0. -1.
         24    1    1    2    0    0 -0.43369704300E+02 -0.16997355573E+02 -0.38300226110E+03  0.39411646668E+03  0.80419002446E+02 0.  0.
          1    1    1    2  501    0  0.36006891863E+02 -0.58770886913E+01 -0.28593035893E+03  0.28824851533E+03  0.00000000000E+00 0. -1.
         -2    1    1    2    0  502  0.73628124368E+01  0.22874444265E+02  0.45491904349E+02  0.51448659542E+02  0.00000000000E+00 0.  1.
<mgrwt>
<rscale>  2 0.76724678E+02</rscale>
<asrwt>0</asrwt>
<pdfrwt beam="1">  1       21 0.84902251E-02 0.76724678E+02</pdfrwt>
<pdfrwt beam="2">  1       21 0.10440418E+00 0.76724678E+02</pdfrwt>
<totfact> 0.85131735E+04</totfact>
</mgrwt>
</event>
<event>
 5    1  0.1708429E+000  0.7769585E+02  0.7546771E-02  0.1335720E+00
         21   -1    0    0  501  502  0.00000000000E+00  0.00000000000E+00  0.44289405831E+02  0.44289405831E+02  0.00000000000E+00 0.  1.
         21   -1    0    0  502  503 -0.00000000000E+00 -0.00000000000E+00 -0.14992572198E+03  0.14992572198E+03  0.00000000000E+00 0. -1.
         24    1    1    2    0    0  0.23727602009E+02  0.42328804266E+02 -0.41181409724E+02  0.10255657575E+03  0.80419002446E+02 0. -1.
          1    1    1    2  501    0 -0.29367942316E+02 -0.13914015452E+02 -0.18670082642E+02  0.37478631882E+02  0.00000000000E+00 0. -1.
         -2    1    1    2    0  503  0.56403403070E+01 -0.28414788814E+02 -0.45784823779E+02  0.54179920179E+02  0.00000000000E+00 0.  1.
<mgrwt>
<rscale>  2 0.77695852E+02</rscale>
<asrwt>0</asrwt>
<pdfrwt beam="1">  1       21 0.68137548E-02 0.77695852E+02</pdfrwt>
<pdfrwt beam="2">  1       21 0.23065496E-01 0.77695852E+02</pdfrwt>
<totfact> 0.27122495E+06</totfact>
</mgrwt>
</event>
<event>
 5    1  0.1708429E+000  0.9859296E+02  0.7546771E-02  0.1283283E+00
         21   -1    0    0  503  502  0.00000000000E+00  0.00000000000E+00  0.23609892477E+02  0.23609892477E+02  0.00000000000E+00 0. -1.
         21   -1    0    0  501  503 -0.00000000000E+00 -0.00000000000E+00 -0.52450830618E+03  0.52450830618E+03  0.00000000000E+00 0. -1.
         24    1    1    2    0    0 -0.60532273668E+02  0.39674022036E+02 -0.20933655497E+03  0.23564208746E+03  0.80419002446E+02 0.  0.
          1    1    1    2  501    0 -0.20369323719E+01 -0.24535469081E+02 -0.19421489277E+03  0.19576915720E+03  0.00000000000E+00 0. -1.
         -2    1    1    2    0  502  0.62569206040E+02 -0.15138552955E+02 -0.97346965956E+02  0.11670695400E+03  0.00000000000E+00 0.  1.
<mgrwt>
<rscale>  2 0.98592957E+02</rscale>
<asrwt>0</asrwt>
<pdfrwt beam="1">  1       21 0.36322913E-02 0.98592957E+02</pdfrwt>
<pdfrwt beam="2">  1       21 0.80693582E-01 0.98592957E+02</pdfrwt>
<totfact> 0.62736534E+05</totfact>
</mgrwt>
</event>
<event>
 5    1  0.1708429E+000  0.1243725E+03  0.7546771E-02  0.1236053E+00
         21   -1    0    0  501  502  0.00000000000E+00  0.00000000000E+00  0.34721702879E+03  0.34721702879E+03  0.00000000000E+00 0. -1.
         21   -1    0    0  502  503 -0.00000000000E+00 -0.00000000000E+00 -0.14619680351E+03  0.14619680351E+03  0.00000000000E+00 0.  1.
         24    1    1    2    0    0  0.33250106360E+01  0.42854750151E+02 -0.12507826382E+02  0.92039377342E+02  0.80419002446E+02 0.  1.
          1    1    1    2  501    0  0.30889992542E+02  0.49904445716E+02  0.27748428753E+03  0.28362329800E+03  0.00000000000E+00 0. -1.
         -2    1    1    2    0  503 -0.34215003178E+02 -0.92759195867E+02 -0.63956235867E+02  0.11775115697E+03  0.00000000000E+00 0.  1.
<mgrwt>
<rscale>  2 0.12437245E+03</rscale>
<asrwt>0</asrwt>
<pdfrwt beam="1">  1       21 0.53418004E-01 0.12437245E+03</pdfrwt>
<pdfrwt beam="2">  1       21 0.22491816E-01 0.12437245E+03</pdfrwt>
<totfact> 0.63409421E+04</totfact>
</mgrwt>
</event>
<event>
 5    1  0.1708429E+000  0.9557006E+02  0.7546771E-02  0.1289897E+00
         21   -1    0    0  503  502  0.00000000000E+00  0.00000000000E+00  0.11180125721E+03  0.11180125721E+03  0.00000000000E+00 0. -1.
         21   -1    0    0  501  503 -0.00000000000E+00 -0.00000000000E+00 -0.19137094753E+03  0.19137094753E+03  0.00000000000E+00 0. -1.
         24    1    1    2    0    0  0.55158049005E+02  0.37886487378E+02  0.58049510086E+02  0.11964429728E+03  0.80419002446E+02 0. -1.
          1    1    1    2  501    0 -0.36455496323E+02 -0.51707375175E+02 -0.14575264893E+03  0.15889144260E+03  0.00000000000E+00 0. -1.
         -2    1    1    2    0  502 -0.18702552682E+02  0.13820887797E+02  0.81334485213E+01  0.24636464867E+02  0.00000000000E+00 0.  1.
<mgrwt>
<rscale>  2 0.95570059E+02</rscale>
<asrwt>0</asrwt>
<pdfrwt beam="1">  1       21 0.17200193E-01 0.95570059E+02</pdfrwt>
<pdfrwt beam="2">  1       21 0.29441684E-01 0.95570059E+02</pdfrwt>
<totfact> 0.34319582E+05</totfact>
</mgrwt>
</event>
<event>
 5    1  0.1708429E+000  0.7787458E+02  0.7546771E-02  0.1335194E+00
         21   -1    0    0  503  502  0.00000000000E+00  0.00000000000E+00  0.13026439206E+03  0.13026439206E+03  0.00000000000E+00 0.  1.
         21   -1    0    0  501  503 -0.00000000000E+00 -0.00000000000E+00 -0.49846128959E+02  0.49846128959E+02  0.00000000000E+00 0.  1.
         24    1    1    2    0    0  0.44838291374E+02  0.34924088216E+02  0.57389540029E+02  0.11397780297E+03  0.80419002446E+02 0.  1.
          1    1    1    2  501    0 -0.26362980392E+02 -0.24857939773E+02  0.18527185995E+01  0.36281627184E+02  0.00000000000E+00 0. -1.
         -2    1    1    2    0  502 -0.18475310982E+02 -0.10066148443E+02  0.21176004474E+02  0.29851090865E+02  0.00000000000E+00 0.  1.
<mgrwt>
<rscale>  2 0.77874581E+02</rscale>
<asrwt>0</asrwt>
<pdfrwt beam="1">  1       21 0.20040676E-01 0.77874581E+02</pdfrwt>
<pdfrwt beam="2">  1       21 0.76686352E-02 0.77874581E+02</pdfrwt>
<totfact> 0.28749683E+06</totfact>
</mgrwt>
</event>
<event>
 5    1  0.1708429E+000  0.8778674E+02  0.7546771E-02  0.1308302E+00
         21   -1    0    0  503  502  0.00000000000E+00  0.00000000000E+00  0.53260272199E+03  0.53260272199E+03  0.00000000000E+00 0. -1.
         21   -1    0    0  501  503 -0.00000000000E+00 -0.00000000000E+00 -0.21386317215E+02  0.21386317215E+02  0.00000000000E+00 0.  1.
         24    1    1    2    0    0  0.12468194977E+02 -0.26460042102E+02  0.32441291340E+03  0.33550937997E+03  0.80419002446E+02 0. -1.
          1    1    1    2  501    0  0.38038373196E+01  0.56077842448E+02  0.43026633694E+02  0.70784778018E+02  0.00000000000E+00 0. -1.
         -2    1    1    2    0  502 -0.16272032296E+02 -0.29617800346E+02  0.14377685769E+03  0.14769488122E+03  0.00000000000E+00 0.  1.
<mgrwt>
<rscale>  2 0.87786743E+02</rscale>
<asrwt>0</asrwt>
<pdfrwt beam="1">  1       21 0.81938870E-01 0.87786743E+02</pdfrwt>
<pdfrwt beam="2">  1       21 0.32902031E-02 0.87786743E+02</pdfrwt>
<totfact> 0.71300173E+05</totfact>
</mgrwt>
</event>
<event>
 5    1  0.1708429E+000  0.1078418E+03  0.7546771E-02  0.1264620E+00
         21   -1    0    0  503  502  0.00000000000E+00  0.00000000000E+00  0.89601429822E+02  0.89601429822E+02  0.00000000000E+00 0.  1.
         21   -1    0    0  501  503 -0.00000000000E+00 -0.00000000000E+00 -0.31913103317E+03  0.31913103317E+03  0.00000000000E+00 0. -1.
         24    1    1    2    0    0  0.28441111089E+02  0.23986608162E+01 -0.16585862462E+03  0.18652332210E+03  0.80419002446E+02 0.  0.
          1    1    1    2  501    0  0.76726585902E+01 -0.61018196610E+02 -0.11895363612E+03  0.13391063271E+03  0.00000000000E+00 0. -1.
         -2    1    1    2    0  502 -0.36113769679E+02  0.58619535794E+02  0.55282657393E+02  0.88298508173E+02  0.00000000000E+00 0.  1.
<mgrwt>
<rscale>  2 0.10784175E+03</rscale>
<asrwt>0</asrwt>
<pdfrwt beam="1">  1       21 0.13784836E-01 0.10784175E+03</pdfrwt>
<pdfrwt beam="2">  1       21 0.49097081E-01 0.10784175E+03</pdfrwt>
<totfact> 0.18555105E+05</totfact>
</mgrwt>
</event>
<event>
 5    1  0.1708429E+000  0.6522067E+02  0.7546771E-02  0.1377143E+00
         21   -1    0    0  501  502  0.00000000000E+00  0.00000000000E+00  0.12808898148E+03  0.12808898148E+03  0.00000000000E+00 0. -1.
         21   -1    0    0  502  503 -0.00000000000E+00 -0.00000000000E+00 -0.77771785463E+02  0.77771785463E+02  0.00000000000E+00 0.  1.
         24    1    1    2    0    0 -0.41654685752E+01 -0.26973988240E+02  0.39611113304E+02  0.93708075541E+02  0.80419002446E+02 0.  1.
          1    1    1    2  501    0 -0.16205112062E+02  0.13519648707E+02  0.56469843832E+02  0.60284573653E+02  0.00000000000E+00 0. -1.
         -2    1    1    2    0  503  0.20370580637E+02  0.13454339532E+02 -0.45763761116E+02  0.51868117753E+02  0.00000000000E+00 0.  1.
<mgrwt>
<rscale>  2 0.65220668E+02</rscale>
<asrwt>0</asrwt>
<pdfrwt beam="1">  1       21 0.19705997E-01 0.65220668E+02</pdfrwt>
<pdfrwt beam="2">  1       21 0.11964890E-01 0.65220668E+02</pdfrwt>
<totfact> 0.13695501E+06</totfact>
</mgrwt>
</event>
<event>
 5    1  0.1708429E+000  0.8728410E+02  0.7546771E-02  0.1309565E+00
         21   -1    0    0  501  502  0.00000000000E+00  0.00000000000E+00  0.66014173597E+02  0.66014173597E+02  0.00000000000E+00 0. -1.
         21   -1    0    0  502  503 -0.00000000000E+00 -0.00000000000E+00 -0.61513591705E+03  0.61513591705E+03  0.00000000000E+00 0.  1.
         24    1    1    2    0    0 -0.18428027792E+02 -0.51303137766E+02 -0.37558707776E+03  0.38794905991E+03  0.80419002446E+02 0.  1.
          1    1    1    2  501    0 -0.19019685870E+02  0.93968634098E+01  0.54426271397E+02  0.58414625829E+02  0.00000000000E+00 0. -1.
         -2    1    1    2    0  503  0.37447713662E+02  0.41906274356E+02 -0.22796093709E+03  0.23478640490E+03  0.00000000000E+00 0.  1.
<mgrwt>
<rscale>  2 0.87284101E+02</rscale>
<asrwt>0</asrwt>
<pdfrwt beam="1">  1       21 0.10156026E-01 0.87284101E+02</pdfrwt>
<pdfrwt beam="2">  1       21 0.94636300E-01 0.87284101E+02</pdfrwt>
<totfact> 0.77862434E+04</totfact>
</mgrwt>
</event>
<event>
 5    1  0.1708429E+000  0.7741440E+02  0.7546771E-02  0.1336553E+00
         21   -1    0    0  501  502  0.00000000000E+00  0.00000000000E+00  0.42160988675E+03  0.42160988675E+03  0.00000000000E+00 0.  1.
         21   -1    0    0  502  503 -0.00000000000E+00 -0.00000000000E+00 -0.34155248821E+02  0.34155248821E+02  0.00000000000E+00 0. -1.
         24    1    1    2    0    0  0.20206217247E-01  0.83615307163E+01  0.16773211700E+03  0.18620202639E+03  0.80419002446E+02 0.  0.
          1    1    1    2  501    0  0.24886271098E+02  0.23027946555E+02  0.22641333536E+03  0.22893800742E+03  0.00000000000E+00 0. -1.
         -2    1    1    2    0  503 -0.24906477315E+02 -0.31389477271E+02 -0.66908144289E+01  0.40625101764E+02  0.00000000000E+00 0.  1.
<mgrwt>
<rscale>  2 0.77414404E+02</rscale>
<asrwt>0</asrwt>
<pdfrwt beam="1">  1       21 0.64863056E-01 0.77414404E+02</pdfrwt>
<pdfrwt beam="2">  1       21 0.52546540E-02 0.77414404E+02</pdfrwt>
<totfact> 0.54732075E+05</totfact>
</mgrwt>
</event>
<event>
 5    1  0.1708429E+000  0.1176775E+03  0.7546771E-02  0.1246978E+00
         21   -1    0    0  501  502  0.00000000000E+00  0.00000000000E+00  0.27125103011E+04  0.27125103011E+04  0.00000000000E+00 0. -1.
         21   -1    0    0  502  503 -0.00000000000E+00 -0.00000000000E+00 -0.70955571802E+01  0.70955571802E+01  0.00000000000E+00 0. -1.
         24    1    1    2    0    0  0.79299750753E+02 -0.53463173664E+01  0.17242560138E+04  0.17279592155E+04  0.80419002446E+02 0. -1.
          1    1    1    2  501    0 -0.99821746921E+02  0.12395970796E+02  0.93762094400E+03  0.94300110067E+03  0.00000000000E+00 0. -1.
         -2    1    1    2    0  503  0.20521996168E+02 -0.70496534297E+01  0.43537786149E+02  0.48645542067E+02  0.00000000000E+00 0.  1.
<mgrwt>
<rscale>  2 0.11767750E+03</rscale>
<asrwt>0</asrwt>
<pdfrwt beam="1">  1       21 0.41730845E+00 0.11767750E+03</pdfrwt>
<pdfrwt beam="2">  1       21 0.10916263E-02 0.11767750E+03</pdfrwt>
<totfact> 0.24781824E+04</totfact>
</mgrwt>
</event>
<event>
 5    1  0.1708429E+000  0.7189065E+02  0.7546771E-02  0.1353779E+00
         21   -1    0    0  501  502  0.00000000000E+00  0.00000000000E+00  0.48415557688E+03  0.48415557688E+03  0.00000000000E+00 0. -1.
         21   -1    0    0  502  503 -0.00000000000E+00 -0.00000000000E+00 -0.56738845849E+02  0.56738845849E+02  0.00000000000E+00 0.  1.
         24    1    1    2    0    0 -0.30836210409E+02  0.32950410578E+02  0.10387660229E+02  0.92799358128E+02  0.80419002446E+02 0.  1.
          1    1    1    2  501    0  0.59993513825E+01 -0.24662899607E+02  0.42086746372E+03  0.42163215348E+03  0.00000000000E+00 0. -1.
         -2    1    1    2    0  503  0.24836859026E+02 -0.82875109717E+01 -0.38383929197E+01  0.26462911113E+02  0.00000000000E+00 0.  1.
<mgrwt>
<rscale>  2 0.71890649E+02</rscale>
<asrwt>0</asrwt>
<pdfrwt beam="1">  1       21 0.74485471E-01 0.71890649E+02</pdfrwt>
<pdfrwt beam="2">  1       21 0.87290535E-02 0.71890649E+02</pdfrwt>
<totfact> 0.17339775E+05</totfact>
</mgrwt>
</event>
<event>
 5    1  0.1708429E+000  0.1786430E+03  0.7546771E-02  0.1169123E+00
         21   -1    0    0  503  502  0.00000000000E+00  0.00000000000E+00  0.30578713090E+02  0.30578713090E+02  0.00000000000E+00 0. -1.
         21   -1    0    0  501  503 -0.00000000000E+00 -0.00000000000E+00 -0.10843002120E+04  0.10843002120E+04  0.00000000000E+00 0. -1.
         24    1    1    2    0    0  0.39886167478E+02  0.15126608710E+03 -0.44489577544E+03  0.47840547909E+03  0.80419002446E+02 0. -1.
          1    1    1    2  501    0 -0.20229698070E+02 -0.15898859922E+03 -0.57192224389E+03  0.59395426459E+03  0.00000000000E+00 0. -1.
         -2    1    1    2    0  502 -0.19656469409E+02  0.77225121213E+01 -0.36903479593E+02  0.42519181426E+02  0.00000000000E+00 0.  1.
<mgrwt>
<rscale>  2 0.17864296E+03</rscale>
<asrwt>0</asrwt>
<pdfrwt beam="1">  1       21 0.47044174E-02 0.17864296E+03</pdfrwt>
<pdfrwt beam="2">  1       21 0.16681542E+00 0.17864296E+03</pdfrwt>
<totfact> 0.67545826E+04</totfact>
</mgrwt>
</event>
<event>
 5    1  0.1708429E+000  0.1268439E+03  0.7546771E-02  0.1232215E+00
         21   -1    0    0  503  502  0.00000000000E+00  0.00000000000E+00  0.83889075692E+02  0.83889075692E+02  0.00000000000E+00 0.  1.
         21   -1    0    0  501  503 -0.00000000000E+00 -0.00000000000E+00 -0.23633079097E+03  0.23633079097E+03  0.00000000000E+00 0. -1.
         24    1    1    2    0    0 -0.19236103355E+01  0.24253027921E+02 -0.68807573666E+02  0.10859837839E+03  0.80419002446E+02 0. -1.
          1    1    1    2  501    0  0.80078196826E+01  0.72391612275E+02 -0.88557058049E+02  0.11466046936E+03  0.00000000000E+00 0. -1.
         -2    1    1    2    0  502 -0.60842093470E+01 -0.96644640196E+02  0.49229164400E+01  0.96961018911E+02  0.00000000000E+00 0.  1.
<mgrwt>
<rscale>  2 0.12684387E+03</rscale>
<asrwt>0</asrwt>
<pdfrwt beam="1">  1       21 0.12906012E-01 0.12684387E+03</pdfrwt>
<pdfrwt beam="2">  1       21 0.36358583E-01 0.12684387E+03</pdfrwt>
<totfact> 0.37995040E+05</totfact>
</mgrwt>
</event>
<event>
 5    1  0.1708429E+000  0.7268050E+02  0.7546771E-02  0.1351208E+00
         21   -1    0    0  501  502  0.00000000000E+00  0.00000000000E+00  0.50083146750E+01  0.50083146750E+01  0.00000000000E+00 0.  1.
         21   -1    0    0  502  503 -0.00000000000E+00 -0.00000000000E+00 -0.17229641709E+04  0.17229641709E+04  0.00000000000E+00 0.  1.
         24    1    1    2    0    0  0.21120991245E+02 -0.32679978452E+02 -0.49822505514E+03  0.50617141246E+03  0.80419002446E+02 0.  1.
          1    1    1    2  501    0  0.95253416280E+01  0.21298333457E+02 -0.17374548294E+03  0.17530500273E+03  0.00000000000E+00 0. -1.
         -2    1    1    2    0  503 -0.30646332873E+02  0.11381644995E+02 -0.10459853182E+04  0.10464960704E+04  0.00000000000E+00 0.  1.
<mgrwt>
<rscale>  2 0.72680500E+02</rscale>
<asrwt>0</asrwt>
<pdfrwt beam="1">  1       21 0.77050969E-03 0.72680500E+02</pdfrwt>
<pdfrwt beam="2">  1       21 0.26507150E+00 0.72680500E+02</pdfrwt>
<totfact> 0.33861125E+05</totfact>
</mgrwt>
</event>
<event>
 5    1  0.1708429E+000  0.7925161E+02  0.7546771E-02  0.1331189E+00
         21   -1    0    0  503  502  0.00000000000E+00  0.00000000000E+00  0.23471214571E+03  0.23471214571E+03  0.00000000000E+00 0. -1.
         21   -1    0    0  501  503 -0.00000000000E+00 -0.00000000000E+00 -0.49348785157E+02  0.49348785157E+02  0.00000000000E+00 0. -1.
         24    1    1    2    0    0 -0.90512485240E+01  0.27004737477E+02  0.48578542895E+02  0.98174700052E+02  0.80419002446E+02 0.  0.
          1    1    1    2  501    0  0.38461279522E+02 -0.12853848827E+02 -0.45732174691E+01  0.40809383359E+02  0.00000000000E+00 0. -1.
         -2    1    1    2    0  502 -0.29410030998E+02 -0.14150888650E+02  0.14135803513E+03  0.14507684746E+03  0.00000000000E+00 0.  1.
<mgrwt>
<rscale>  2 0.79251608E+02</rscale>
<asrwt>0</asrwt>
<pdfrwt beam="1">  1       21 0.36109560E-01 0.79251608E+02</pdfrwt>
<pdfrwt beam="2">  1       21 0.75921209E-02 0.79251608E+02</pdfrwt>
<totfact> 0.96717568E+05</totfact>
</mgrwt>
</event>
<event>
 5    1  0.1708429E+000  0.1110265E+03  0.7546771E-02  0.1258681E+00
         21   -1    0    0  501  502  0.00000000000E+00  0.00000000000E+00  0.55038488961E+03  0.55038488961E+03  0.00000000000E+00 0. -1.
         21   -1    0    0  502  503 -0.00000000000E+00 -0.00000000000E+00 -0.26555382908E+02  0.26555382908E+02  0.00000000000E+00 0. -1.
         24    1    1    2    0    0  0.62138037708E+02 -0.57328542102E+01  0.35456623779E+03  0.36888810537E+03  0.80419002446E+02 0. -1.
          1    1    1    2  501    0 -0.89596023876E+02  0.15875149356E+02  0.13726682201E+03  0.16468651520E+03  0.00000000000E+00 0. -1.
         -2    1    1    2    0  503  0.27457986168E+02 -0.10142295146E+02  0.31996446896E+02  0.43365651952E+02  0.00000000000E+00 0.  1.
<mgrwt>
<rscale>  2 0.11102646E+03</rscale>
<asrwt>0</asrwt>
<pdfrwt beam="1">  1       21 0.84674590E-01 0.11102646E+03</pdfrwt>
<pdfrwt beam="2">  1       21 0.40854439E-02 0.11102646E+03</pdfrwt>
<totfact> 0.46358737E+05</totfact>
</mgrwt>
</event>
<event>
 5    1  0.1708429E+000  0.8849614E+02  0.7546771E-02  0.1306535E+00
         21   -1    0    0  503  502  0.00000000000E+00  0.00000000000E+00  0.65406709403E+02  0.65406709403E+02  0.00000000000E+00 0.  1.
         21   -1    0    0  501  503 -0.00000000000E+00 -0.00000000000E+00 -0.15320994126E+03  0.15320994126E+03  0.00000000000E+00 0. -1.
         24    1    1    2    0    0 -0.33683047113E+02  0.16745327600E+02 -0.38729164872E+00  0.88782428489E+02  0.80419002446E+02 0.  1.
          1    1    1    2  501    0  0.11617759058E+02 -0.48316125246E+02 -0.73819893916E+02  0.88987622859E+02  0.00000000000E+00 0. -1.
         -2    1    1    2    0  502  0.22065288055E+02  0.31570797645E+02 -0.13596046295E+02  0.40846599317E+02  0.00000000000E+00 0.  1.
<mgrwt>
<rscale>  2 0.88496136E+02</rscale>
<asrwt>0</asrwt>
<pdfrwt beam="1">  1       21 0.10062571E-01 0.88496136E+02</pdfrwt>
<pdfrwt beam="2">  1       21 0.23570760E-01 0.88496136E+02</pdfrwt>
<totfact> 0.13457939E+06</totfact>
</mgrwt>
</event>
<event>
 5    1  0.1708429E+000  0.6357490E+02  0.7546771E-02  0.1383414E+00
         21   -1    0    0  503  502  0.00000000000E+00  0.00000000000E+00  0.29971855400E+03  0.29971855400E+03  0.00000000000E+00 0.  1.
         21   -1    0    0  501  503 -0.00000000000E+00 -0.00000000000E+00 -0.15862038256E+03  0.15862038256E+03  0.00000000000E+00 0. -1.
         24    1    1    2    0    0 -0.35175058484E+01  0.33432679735E+01  0.53382947997E+02  0.96646290045E+02  0.80419002446E+02 0.  0.
          1    1    1    2  501    0  0.18015489860E+02 -0.18352135060E+02 -0.13529034101E+03  0.13771287197E+03  0.00000000000E+00 0. -1.
         -2    1    1    2    0  502 -0.14497984012E+02  0.15008867087E+02  0.22300556445E+03  0.22397977455E+03  0.00000000000E+00 0.  1.
<mgrwt>
<rscale>  2 0.63574905E+02</rscale>
<asrwt>0</asrwt>
<pdfrwt beam="1">  1       21 0.46110547E-01 0.63574905E+02</pdfrwt>
<pdfrwt beam="2">  1       21 0.24403136E-01 0.63574905E+02</pdfrwt>
<totfact> 0.76455251E+04</totfact>
</mgrwt>
</event>
<event>
 5    1  0.1708429E+000  0.1222545E+03  0.7546771E-02  0.1239424E+00
         21   -1    0    0  503  502  0.00000000000E+00  0.00000000000E+00  0.20994524011E+04  0.20994524011E+04  0.00000000000E+00 0.  1.
         21   -1    0    0  501  503 -0.00000000000E+00 -0.00000000000E+00 -0.83927074708E+01  0.83927074708E+01  0.00000000000E+00 0. -1.
         24    1    1    2    0    0 -0.42923229592E+02  0.55826445396E+02  0.13354590173E+04  0.13397301961E+04  0.80419002446E+02 0.  1.
          1    1    1    2  501    0  0.53718272984E+02 -0.88321228487E+02  0.53883711695E+03  0.54866358623E+03  0.00000000000E+00 0. -1.
         -2    1    1    2    0  502 -0.10795043392E+02  0.32494783091E+02  0.21676355944E+03  0.21945132625E+03  0.00000000000E+00 0.  1.
<mgrwt>
<rscale>  2 0.12225448E+03</rscale>
<asrwt>0</asrwt>
<pdfrwt beam="1">  1       21 0.32299226E+00 0.12225448E+03</pdfrwt>
<pdfrwt beam="2">  1       21 0.12911874E-02 0.12225448E+03</pdfrwt>
<totfact> 0.67752847E+04</totfact>
</mgrwt>
</event>
<event>
 5    1  0.1708429E+000  0.1081301E+03  0.7546771E-02  0.1264072E+00
         21   -1    0    0  501  502  0.00000000000E+00  0.00000000000E+00  0.56979131715E+03  0.56979131715E+03  0.00000000000E+00 0.  1.
         21   -1    0    0  502  503 -0.00000000000E+00 -0.00000000000E+00 -0.20957804525E+02  0.20957804525E+02  0.00000000000E+00 0. -1.
         24    1    1    2    0    0 -0.57073626429E+02 -0.20744118988E+02  0.21547419247E+03  0.23787404416E+03  0.80419002446E+02 0.  0.
          1    1    1    2  501    0  0.61970210065E+02 -0.26926341926E+02  0.18379740474E+03  0.19582344297E+03  0.00000000000E+00 0. -1.
         -2    1    1    2    0  503 -0.48965836360E+01  0.47670460914E+02  0.14956191541E+03  0.15705163456E+03  0.00000000000E+00 0.  1.
<mgrwt>
<rscale>  2 0.10813012E+03</rscale>
<asrwt>0</asrwt>
<pdfrwt beam="1">  1       21 0.87660191E-01 0.10813012E+03</pdfrwt>
<pdfrwt beam="2">  1       21 0.32242781E-02 0.10813012E+03</pdfrwt>
<totfact> 0.63337444E+05</totfact>
</mgrwt>
</event>
<event>
 5    1  0.1708429E+000  0.7428889E+02  0.7546771E-02  0.1346087E+00
         21   -1    0    0  503  502  0.00000000000E+00  0.00000000000E+00  0.35826485032E+02  0.35826485032E+02  0.00000000000E+00 0.  1.
         21   -1    0    0  501  503 -0.00000000000E+00 -0.00000000000E+00 -0.35476613304E+03  0.35476613304E+03  0.00000000000E+00 0. -1.
         24    1    1    2    0    0 -0.23053788644E+02 -0.73670338234E+01 -0.18603542131E+03  0.20411306743E+03  0.80419002446E+02 0.  0.
          1    1    1    2  501    0  0.39254441718E+02 -0.10342428633E+02 -0.15103774436E+03  0.15639781727E+03  0.00000000000E+00 0. -1.
         -2    1    1    2    0  502 -0.16200653074E+02  0.17709462457E+02  0.18133517658E+02  0.30081733381E+02  0.00000000000E+00 0.  1.
<mgrwt>
<rscale>  2 0.74288894E+02</rscale>
<asrwt>0</asrwt>
<pdfrwt beam="1">  1       21 0.55117670E-02 0.74288894E+02</pdfrwt>
<pdfrwt beam="2">  1       21 0.54579404E-01 0.74288894E+02</pdfrwt>
<totfact> 0.72460077E+05</totfact>
</mgrwt>
</event>
<event>
 5    1  0.1708429E+000  0.1723867E+03  0.7546771E-02  0.1175382E+00
         21   -1    0    0  501  502  0.00000000000E+00  0.00000000000E+00  0.42153283388E+02  0.42153283388E+02  0.00000000000E+00 0. -1.
         21   -1    0    0  502  503 -0.00000000000E+00 -0.00000000000E+00 -0.13105011790E+04  0.13105011790E+04  0.00000000000E+00 0. -1.
         24    1    1    2    0    0 -0.14447407177E+03 -0.74408158549E+02 -0.98361222882E+03  0.10001847650E+04  0.80419002446E+02 0. -1.
          1    1    1    2  501    0  0.11702647242E+03  0.52168795265E+02 -0.95081126286E+02  0.15955312288E+03  0.00000000000E+00 0. -1.
         -2    1    1    2    0  503  0.27447599346E+02  0.22239363284E+02 -0.18965454049E+03  0.19291657451E+03  0.00000000000E+00 0.  1.
<mgrwt>
<rscale>  2 0.17238668E+03</rscale>
<asrwt>0</asrwt>
<pdfrwt beam="1">  1       21 0.64851214E-02 0.17238668E+03</pdfrwt>
<pdfrwt beam="2">  1       21 0.20161554E+00 0.17238668E+03</pdfrwt>
<totfact> 0.22979406E+04</totfact>
</mgrwt>
</event>
<event>
 5    1  0.1708429E+000  0.7032548E+02  0.7546771E-02  0.1358990E+00
         21   -1    0    0  503  502  0.00000000000E+00  0.00000000000E+00  0.74827704871E+01  0.74827704871E+01  0.00000000000E+00 0.  1.
         21   -1    0    0  501  503 -0.00000000000E+00 -0.00000000000E+00 -0.80771503671E+03  0.80771503671E+03  0.00000000000E+00 0.  1.
         24    1    1    2    0    0  0.11412671989E+02  0.95896913346E+01 -0.45242020749E+03  0.45975370729E+03  0.80419002446E+02 0.  1.
          1    1    1    2  501    0  0.23039987425E+02  0.21646964990E+00 -0.25372067863E+03  0.25476473587E+03  0.00000000000E+00 0. -1.
         -2    1    1    2    0  502 -0.34452659414E+02 -0.98061609845E+01 -0.94091380097E+02  0.10067936403E+03  0.00000000000E+00 0.  1.
<mgrwt>
<rscale>  2 0.70325479E+02</rscale>
<asrwt>0</asrwt>
<pdfrwt beam="1">  1       21 0.11511945E-02 0.70325479E+02</pdfrwt>
<pdfrwt beam="2">  1       21 0.12426395E+00 0.70325479E+02</pdfrwt>
<totfact> 0.14504621E+06</totfact>
</mgrwt>
</event>
<event>
 5    1  0.1708429E+000  0.9099337E+02  0.7546771E-02  0.1300464E+00
         21   -1    0    0  503  502  0.00000000000E+00  0.00000000000E+00  0.52578061833E+03  0.52578061833E+03  0.00000000000E+00 0. -1.
         21   -1    0    0  501  503 -0.00000000000E+00 -0.00000000000E+00 -0.19765683265E+02  0.19765683265E+02  0.00000000000E+00 0.  1.
         24    1    1    2    0    0 -0.11255383754E+02  0.66257729943E+02  0.18804737055E+03  0.21528074686E+03  0.80419002446E+02 0.  1.
          1    1    1    2  501    0  0.25347071878E+02 -0.39331334071E+02  0.10262206729E+03  0.11278615424E+03  0.00000000000E+00 0. -1.
         -2    1    1    2    0  502 -0.14091688124E+02 -0.26926395872E+02  0.21534549722E+03  0.21747940050E+03  0.00000000000E+00 0.  1.
<mgrwt>
<rscale>  2 0.90993366E+02</rscale>
<asrwt>0</asrwt>
<pdfrwt beam="1">  1       21 0.80889315E-01 0.90993366E+02</pdfrwt>
<pdfrwt beam="2">  1       21 0.30408747E-02 0.90993366E+02</pdfrwt>
<totfact> 0.83434035E+05</totfact>
</mgrwt>
</event>
<event>
 5    1  0.1708429E+000  0.9402923E+02  0.7546771E-02  0.1293378E+00
         21   -1    0    0  501  502  0.00000000000E+00  0.00000000000E+00  0.94140610251E+01  0.94140610251E+01  0.00000000000E+00 0.  1.
         21   -1    0    0  502  503 -0.00000000000E+00 -0.00000000000E+00 -0.10964923655E+04  0.10964923655E+04  0.00000000000E+00 0. -1.
         24    1    1    2    0    0 -0.59896986219E+02 -0.41629969292E+02 -0.56895910397E+03  0.57922567385E+03  0.80419002446E+02 0.  1.
          1    1    1    2  501    0  0.32646881977E+02  0.40759637399E+02 -0.17886120905E+03  0.18632900752E+03  0.00000000000E+00 0. -1.
         -2    1    1    2    0  503  0.27250104242E+02  0.87033189272E+00 -0.33925799151E+03  0.34035174520E+03  0.00000000000E+00 0.  1.
<mgrwt>
<rscale>  2 0.94029234E+02</rscale>
<asrwt>0</asrwt>
<pdfrwt beam="1">  1       21 0.14483174E-02 0.94029234E+02</pdfrwt>
<pdfrwt beam="2">  1       21 0.16869109E+00 0.94029234E+02</pdfrwt>
<totfact> 0.46731702E+05</totfact>
</mgrwt>
</event>
<event>
 5    1  0.1708429E+000  0.6778013E+02  0.7546771E-02  0.1367809E+00
         21   -1    0    0  501  502  0.00000000000E+00  0.00000000000E+00  0.98440817559E+02  0.98440817559E+02  0.00000000000E+00 0. -1.
         21   -1    0    0  502  503 -0.00000000000E+00 -0.00000000000E+00 -0.58305122397E+02  0.58305122397E+02  0.00000000000E+00 0.  1.
         24    1    1    2    0    0 -0.41574069026E+02  0.91618957086E+01  0.58090286275E+02  0.10795388303E+03  0.80419002446E+02 0.  0.
          1    1    1    2  501    0  0.20592924288E+02 -0.11280796782E+02 -0.48866880145E+01  0.23983423995E+02  0.00000000000E+00 0. -1.
         -2    1    1    2    0  503  0.20981144738E+02  0.21189010736E+01 -0.13067903098E+02  0.24808632926E+02  0.00000000000E+00 0.  1.
<mgrwt>
<rscale>  2 0.67780131E+02</rscale>
<asrwt>0</asrwt>
<pdfrwt beam="1">  1       21 0.15144741E-01 0.67780131E+02</pdfrwt>
<pdfrwt beam="2">  1       21 0.89700189E-02 0.67780131E+02</pdfrwt>
<totfact> 0.36106090E+06</totfact>
</mgrwt>
</event>
<event>
 5    1  0.1708429E+000  0.8256661E+02  0.7546771E-02  0.1321922E+00
         21   -1    0    0  501  502  0.00000000000E+00  0.00000000000E+00  0.19942976783E+03  0.19942976783E+03  0.00000000000E+00 0.  1.
         21   -1    0    0  502  503 -0.00000000000E+00 -0.00000000000E+00 -0.50068234701E+02  0.50068234701E+02  0.00000000000E+00 0.  1.
         24    1    1    2    0    0 -0.48724117158E+02 -0.39445351048E+02  0.83474861644E+02  0.13177725067E+03  0.80419002446E+02 0.  0.
          1    1    1    2  501    0  0.19837970730E+02  0.21026810703E+02  0.76561746513E+02  0.81837478457E+02  0.00000000000E+00 0. -1.
         -2    1    1    2    0  503  0.28886146428E+02  0.18418540346E+02 -0.10675075025E+02  0.35883273411E+02  0.00000000000E+00 0.  1.
<mgrwt>
<rscale>  2 0.82566607E+02</rscale>
<asrwt>0</asrwt>
<pdfrwt beam="1">  1       21 0.30681502E-01 0.82566607E+02</pdfrwt>
<pdfrwt beam="2">  1       21 0.77028054E-02 0.82566607E+02</pdfrwt>
<totfact> 0.12929279E+06</totfact>
</mgrwt>
</event>
<event>
 5    1  0.1708429E+000  0.8687790E+02  0.7546771E-02  0.1310593E+00
         21   -1    0    0  501  502  0.00000000000E+00  0.00000000000E+00  0.26764345967E+03  0.26764345967E+03  0.00000000000E+00 0. -1.
         21   -1    0    0  502  503 -0.00000000000E+00 -0.00000000000E+00 -0.49321585611E+02  0.49321585611E+02  0.00000000000E+00 0.  1.
         24    1    1    2    0    0 -0.36335811310E+02  0.89070287941E+01  0.68907102742E+01  0.88962487532E+02  0.80419002446E+02 0.  1.
          1    1    1    2  501    0  0.57489787515E+02 -0.20380533787E+02  0.15955147076E+03  0.17081309566E+03  0.00000000000E+00 0. -1.
         -2    1    1    2    0  503 -0.21153976205E+02  0.11473504993E+02  0.51879693018E+02  0.57189462087E+02  0.00000000000E+00 0.  1.
<mgrwt>
<rscale>  2 0.86877904E+02</rscale>
<asrwt>0</asrwt>
<pdfrwt beam="1">  1       21 0.41175916E-01 0.86877904E+02</pdfrwt>
<pdfrwt beam="2">  1       21 0.75879364E-02 0.86877904E+02</pdfrwt>
<totfact> 0.74913922E+05</totfact>
</mgrwt>
</event>
<event>
 5    1  0.1708429E+000  0.7276482E+02  0.7546771E-02  0.1350936E+00
         21   -1    0    0  501  502  0.00000000000E+00  0.00000000000E+00  0.45835046777E+01  0.45835046777E+01  0.00000000000E+00 0. -1.
         21   -1    0    0  502  503 -0.00000000000E+00 -0.00000000000E+00 -0.14450873843E+04  0.14450873843E+04  0.00000000000E+00 0.  1.
         24    1    1    2    0    0  0.40247811091E+00  0.62175481457E+01 -0.11055038171E+04  0.11084424773E+04  0.80419002446E+02 0.  1.
          1    1    1    2  501    0  0.17895475801E+02  0.23762136095E+02 -0.15868246454E+03  0.16144662188E+03  0.00000000000E+00 0. -1.
         -2    1    1    2    0  503 -0.18297953912E+02 -0.29979684240E+02 -0.17631759799E+03  0.17978178981E+03  0.00000000000E+00 0.  1.
<mgrwt>
<rscale>  2 0.72764824E+02</rscale>
<asrwt>0</asrwt>
<pdfrwt beam="1">  1       21 0.70515412E-03 0.72764824E+02</pdfrwt>
<pdfrwt beam="2">  1       21 0.22232128E+00 0.72764824E+02</pdfrwt>
<totfact> 0.67171976E+05</totfact>
</mgrwt>
</event>
<event>
 5    1  0.1708429E+000  0.8286123E+02  0.7546771E-02  0.1321122E+00
         21   -1    0    0  503  502  0.00000000000E+00  0.00000000000E+00  0.38289053630E+03  0.38289053630E+03  0.00000000000E+00 0.  1.
         21   -1    0    0  501  503 -0.00000000000E+00 -0.00000000000E+00 -0.19553325792E+03  0.19553325792E+03  0.00000000000E+00 0. -1.
         24    1    1    2    0    0  0.11873884582E+02  0.43599361356E+02  0.95406109094E+02  0.13270808209E+03  0.80419002446E+02 0. -1.
          1    1    1    2  501    0 -0.29183388260E+02 -0.29937343685E+01 -0.17383297413E+03  0.17629105335E+03  0.00000000000E+00 0. -1.
         -2    1    1    2    0  502  0.17309503678E+02 -0.40605626988E+02  0.26578414342E+03  0.26942465877E+03  0.00000000000E+00 0.  1.
<mgrwt>
<rscale>  2 0.82861232E+02</rscale>
<asrwt>0</asrwt>
<pdfrwt beam="1">  1       21 0.58906236E-01 0.82861232E+02</pdfrwt>
<pdfrwt beam="2">  1       21 0.30082040E-01 0.82861232E+02</pdfrwt>
<totfact> 0.30782493E+04</totfact>
</mgrwt>
</event>
<event>
 5    1  0.1708429E+000  0.8899230E+02  0.7546771E-02  0.1305310E+00
         21   -1    0    0  501  502  0.00000000000E+00  0.00000000000E+00  0.79997452553E+02  0.79997452553E+02  0.00000000000E+00 0. -1.
         21   -1    0    0  502  503 -0.00000000000E+00 -0.00000000000E+00 -0.10858249075E+03  0.10858249075E+03  0.00000000000E+00 0. -1.
         24    1    1    2    0    0 -0.63762004261E+02  0.15267434544E+02  0.10454752999E+02  0.10428425365E+03  0.80419002446E+02 0. -1.
          1    1    1    2  501    0  0.35371783917E+02  0.94181492015E+01 -0.14462684262E+02  0.39357767567E+02  0.00000000000E+00 0. -1.
         -2    1    1    2    0  503  0.28390220344E+02 -0.24685583745E+02 -0.24577106931E+02  0.44937922083E+02  0.00000000000E+00 0.  1.
<mgrwt>
<rscale>  2 0.88992303E+02</rscale>
<asrwt>0</asrwt>
<pdfrwt beam="1">  1       21 0.12307300E-01 0.88992303E+02</pdfrwt>
<pdfrwt beam="2">  1       21 0.16704999E-01 0.88992303E+02</pdfrwt>
<totfact> 0.17780420E+06</totfact>
</mgrwt>
</event>
<event>
 5    1  0.1708429E+000  0.7186045E+02  0.7546771E-02  0.1353878E+00
         21   -1    0    0  501  502  0.00000000000E+00  0.00000000000E+00  0.11921890265E+03  0.11921890265E+03  0.00000000000E+00 0. -1.
         21   -1    0    0  502  503 -0.00000000000E+00 -0.00000000000E+00 -0.51808816507E+02  0.51808816507E+02  0.00000000000E+00 0. -1.
         24    1    1    2    0    0  0.45119475777E+02 -0.89125725661E+01  0.65107271152E+02  0.11323150514E+03  0.80419002446E+02 0. -1.
          1    1    1    2  501    0 -0.17773897408E+02  0.14774540914E+02  0.14500791110E+02  0.27285003777E+02  0.00000000000E+00 0. -1.
         -2    1    1    2    0  503 -0.27345578370E+02 -0.58619683477E+01 -0.12197976118E+02  0.30511210246E+02  0.00000000000E+00 0.  1.
<mgrwt>
<rscale>  2 0.71860448E+02</rscale>
<asrwt>0</asrwt>
<pdfrwt beam="1">  1       21 0.18341370E-01 0.71860448E+02</pdfrwt>
<pdfrwt beam="2">  1       21 0.79705872E-02 0.71860448E+02</pdfrwt>
<totfact> 0.31470149E+06</totfact>
</mgrwt>
</event>
<event>
 5    1  0.1708429E+000  0.1157644E+03  0.7546771E-02  0.1250253E+00
         21   -1    0    0  501  502  0.00000000000E+00  0.00000000000E+00  0.12945792352E+04  0.12945792352E+04  0.00000000000E+00 0. -1.
         21   -1    0    0  502  503 -0.00000000000E+00 -0.00000000000E+00 -0.22225470842E+02  0.22225470842E+02  0.00000000000E+00 0.  1.
         24    1    1    2    0    0 -0.31292019511E+02  0.47286690004E+02  0.46724715004E+03  0.47749590230E+03  0.80419002446E+02 0.  1.
          1    1    1    2  501    0 -0.37851308713E+02  0.14371263595E+02  0.69164933286E+03  0.69283335257E+03  0.00000000000E+00 0. -1.
         -2    1    1    2    0  503  0.69143328224E+02 -0.61657953599E+02  0.11345728144E+03  0.14647545116E+03  0.00000000000E+00 0.  1.
<mgrwt>
<rscale>  2 0.11576444E+03</rscale>
<asrwt>0</asrwt>
<pdfrwt beam="1">  1       21 0.19916598E+00 0.11576444E+03</pdfrwt>
<pdfrwt beam="2">  1       21 0.34193042E-02 0.11576444E+03</pdfrwt>
<totfact> 0.72970315E+04</totfact>
</mgrwt>
</event>
<event>
 5    1  0.1708429E+000  0.1432730E+03  0.7546771E-02  0.1208992E+00
         21   -1    0    0  503  502  0.00000000000E+00  0.00000000000E+00  0.34424545873E+03  0.34424545873E+03  0.00000000000E+00 0.  1.
         21   -1    0    0  501  503 -0.00000000000E+00 -0.00000000000E+00 -0.69996327576E+02  0.69996327576E+02  0.00000000000E+00 0. -1.
         24    1    1    2    0    0  0.65739645339E+02  0.13533021158E+02  0.80750790885E+02  0.13226015959E+03  0.80419002446E+02 0. -1.
          1    1    1    2  501    0  0.53920678859E+02  0.20028997669E+02  0.71072251061E+01  0.57957855421E+02  0.00000000000E+00 0. -1.
         -2    1    1    2    0  502 -0.11966032420E+03 -0.33562018828E+02  0.18639111516E+03  0.22402377130E+03  0.00000000000E+00 0.  1.
<mgrwt>
<rscale>  2 0.14327298E+03</rscale>
<asrwt>0</asrwt>
<pdfrwt beam="1">  1       21 0.52960839E-01 0.14327298E+03</pdfrwt>
<pdfrwt beam="2">  1       21 0.10768666E-01 0.14327298E+03</pdfrwt>
<totfact> 0.24346400E+05</totfact>
</mgrwt>
</event>
<event>
 5    1  0.1708429E+000  0.7891671E+02  0.7546771E-02  0.1332154E+00
         21   -1    0    0  501  502  0.00000000000E+00  0.00000000000E+00  0.28057186457E+02  0.28057186457E+02  0.00000000000E+00 0. -1.
         21   -1    0    0  502  503 -0.00000000000E+00 -0.00000000000E+00 -0.59845764894E+03  0.59845764894E+03  0.00000000000E+00 0. -1.
         24    1    1    2    0    0  0.48701801176E+02 -0.32029247718E+02 -0.32794320845E+03  0.34265391005E+03  0.80419002446E+02 0. -1.
          1    1    1    2  501    0 -0.20488403969E+02  0.10505438339E+02  0.12667968271E+02  0.26279580514E+02  0.00000000000E+00 0. -1.
         -2    1    1    2    0  503 -0.28213397207E+02  0.21523809380E+02 -0.25512522230E+03  0.25758134484E+03  0.00000000000E+00 0.  1.
<mgrwt>
<rscale>  2 0.78916709E+02</rscale>
<asrwt>0</asrwt>
<pdfrwt beam="1">  1       21 0.43164906E-02 0.78916709E+02</pdfrwt>
<pdfrwt beam="2">  1       21 0.92070400E-01 0.78916709E+02</pdfrwt>
<totfact> 0.35223449E+05</totfact>
</mgrwt>
</event>
<event>
 5    1  0.1708429E+000  0.1311585E+03  0.7546771E-02  0.1225747E+00
         21   -1    0    0  501  502  0.00000000000E+00  0.00000000000E+00  0.53879802679E+02  0.53879802679E+02  0.00000000000E+00 0. -1.
         21   -1    0    0  502  503 -0.00000000000E+00 -0.00000000000E+00 -0.46832343855E+03  0.46832343855E+03  0.00000000000E+00 0.  1.
         24    1    1    2    0    0 -0.46766428321E+02  0.75464488056E+02 -0.28276470387E+03  0.30709132434E+03  0.80419002446E+02 0.  1.
          1    1    1    2  501    0  0.39257020525E+02 -0.10497638412E+03 -0.40808794443E+02  0.11927494535E+03  0.00000000000E+00 0. -1.
         -2    1    1    2    0  503  0.75094077962E+01  0.29511896064E+02 -0.90870137550E+02  0.95836971536E+02  0.00000000000E+00 0.  1.
<mgrwt>
<rscale>  2 0.13115852E+03</rscale>
<asrwt>0</asrwt>
<pdfrwt beam="1">  1       21 0.82892005E-02 0.13115852E+03</pdfrwt>
<pdfrwt beam="2">  1       21 0.72049759E-01 0.13115852E+03</pdfrwt>
<totfact> 0.19966856E+05</totfact>
</mgrwt>
</event>
<event>
 5    1  0.1708429E+000  0.7183731E+02  0.7546771E-02  0.1353954E+00
         21   -1    0    0  503  502  0.00000000000E+00  0.00000000000E+00  0.12093609537E+03  0.12093609537E+03  0.00000000000E+00 0.  1.
         21   -1    0    0  501  503 -0.00000000000E+00 -0.00000000000E+00 -0.48747776778E+02  0.48747776778E+02  0.00000000000E+00 0. -1.
         24    1    1    2    0    0  0.11487836612E+02 -0.24432928648E+02  0.41301778203E+02  0.94350364225E+02  0.80419002446E+02 0. -1.
          1    1    1    2  501    0 -0.23328442502E+02 -0.77263808050E+01 -0.56755894473E+01  0.25221528611E+02  0.00000000000E+00 0. -1.
         -2    1    1    2    0  502  0.11840605890E+02  0.32159309453E+02  0.36562129831E+02  0.50111979307E+02  0.00000000000E+00 0.  1.
<mgrwt>
<rscale>  2 0.71837312E+02</rscale>
<asrwt>0</asrwt>
<pdfrwt beam="1">  1       21 0.18605553E-01 0.71837312E+02</pdfrwt>
<pdfrwt beam="2">  1       21 0.74996580E-02 0.71837312E+02</pdfrwt>
<totfact> 0.33999735E+06</totfact>
</mgrwt>
</event>
<event>
 5    1  0.1708429E+000  0.9232566E+02  0.7546771E-02  0.1297316E+00
         21   -1    0    0  501  502  0.00000000000E+00  0.00000000000E+00  0.42084539364E+02  0.42084539364E+02  0.00000000000E+00 0.  1.
         21   -1    0    0  502  503 -0.00000000000E+00 -0.00000000000E+00 -0.26470261940E+03  0.26470261940E+03  0.00000000000E+00 0. -1.
         24    1    1    2    0    0  0.35941902819E+02 -0.22426534161E+02 -0.36610051957E+02  0.97991232625E+02  0.80419002446E+02 0.  1.
          1    1    1    2  501    0 -0.21066820526E+01  0.50039131059E+02 -0.83433786694E+02  0.97311610348E+02  0.00000000000E+00 0. -1.
         -2    1    1    2    0  503 -0.33835220767E+02 -0.27612596898E+02 -0.10257424139E+03  0.11148431579E+03  0.00000000000E+00 0.  1.
<mgrwt>
<rscale>  2 0.92325657E+02</rscale>
<asrwt>0</asrwt>
<pdfrwt beam="1">  1       21 0.64745445E-02 0.92325657E+02</pdfrwt>
<pdfrwt beam="2">  1       21 0.40723480E-01 0.92325657E+02</pdfrwt>
<totfact> 0.10029060E+06</totfact>
</mgrwt>
</event>
<event>
 5    1  0.1708429E+000  0.1593257E+03  0.7546771E-02  0.1189460E+00
         21   -1    0    0  503  502  0.00000000000E+00  0.00000000000E+00  0.31598447472E+03  0.31598447472E+03  0.00000000000E+00 0.  1.
         21   -1    0    0  501  503 -0.00000000000E+00 -0.00000000000E+00 -0.11435147244E+03  0.11435147244E+03  0.00000000000E+00 0.  1.
         24    1    1    2    0    0 -0.84213223878E+01 -0.13751172530E+03  0.85359698941E+02  0.18092508788E+03  0.80419002446E+02 0.  1.
          1    1    1    2  501    0 -0.24410457705E+02  0.82571807557E+01 -0.37730592597E+02  0.45690798823E+02  0.00000000000E+00 0. -1.
         -2    1    1    2    0  502  0.32831780093E+02  0.12925454454E+03  0.15400389593E+03  0.20372006046E+03  0.00000000000E+00 0.  1.
<mgrwt>
<rscale>  2 0.15932571E+03</rscale>
<asrwt>0</asrwt>
<pdfrwt beam="1">  1       21 0.48612996E-01 0.15932571E+03</pdfrwt>
<pdfrwt beam="2">  1       21 0.17592534E-01 0.15932571E+03</pdfrwt>
<totfact> 0.11980216E+05</totfact>
</mgrwt>
</event>
<event>
 5    1  0.1708429E+000  0.9592730E+02  0.7546771E-02  0.1289101E+00
         21   -1    0    0  501  502  0.00000000000E+00  0.00000000000E+00  0.25349676036E+03  0.25349676036E+03  0.00000000000E+00 0.  1.
         21   -1    0    0  502  503 -0.00000000000E+00 -0.00000000000E+00 -0.36612369094E+02  0.36612369094E+02  0.00000000000E+00 0. -1.
         24    1    1    2    0    0  0.48661755872E+02 -0.28205814455E+02  0.10411907491E+03  0.14307876212E+03  0.80419002446E+02 0.  1.
          1    1    1    2  501    0 -0.42480332668E+02 -0.18694793721E+02  0.47359238508E+02  0.66309663307E+02  0.00000000000E+00 0. -1.
         -2    1    1    2    0  503 -0.61814232041E+01  0.46900608176E+02  0.65406077844E+02  0.80720704029E+02  0.00000000000E+00 0.  1.
<mgrwt>
<rscale>  2 0.95927297E+02</rscale>
<asrwt>0</asrwt>
<pdfrwt beam="1">  1       21 0.38999501E-01 0.95927297E+02</pdfrwt>
<pdfrwt beam="2">  1       21 0.56326723E-02 0.95927297E+02</pdfrwt>
<totfact> 0.13821860E+06</totfact>
</mgrwt>
</event>
<event>
 5    1  0.1708429E+000  0.6961678E+02  0.7546771E-02  0.1361401E+00
         21   -1    0    0  501  502  0.00000000000E+00  0.00000000000E+00  0.94147811387E+03  0.94147811387E+03  0.00000000000E+00 0.  1.
         21   -1    0    0  502  503 -0.00000000000E+00 -0.00000000000E+00 -0.12440677774E+02  0.12440677774E+02  0.00000000000E+00 0.  1.
         24    1    1    2    0    0  0.34413485283E+02  0.28869602712E+02  0.80282079903E+03  0.80808798608E+03  0.80419002446E+02 0.  1.
          1    1    1    2  501    0 -0.11206079141E+02 -0.18659002385E+02  0.11675843715E+03  0.11876980772E+03  0.00000000000E+00 0. -1.
         -2    1    1    2    0  503 -0.23207406142E+02 -0.10210600328E+02  0.94581999127E+01  0.27060997847E+02  0.00000000000E+00 0.  1.
<mgrwt>
<rscale>  2 0.69616783E+02</rscale>
<asrwt>0</asrwt>
<pdfrwt beam="1">  1       21 0.14484273E+00 0.69616783E+02</pdfrwt>
<pdfrwt beam="2">  1       21 0.19139512E-02 0.69616783E+02</pdfrwt>
<totfact> 0.44808867E+05</totfact>
</mgrwt>
</event>
<event>
 5    1  0.1708429E+000  0.1147163E+03  0.7546771E-02  0.1252077E+00
         21   -1    0    0  503  502  0.00000000000E+00  0.00000000000E+00  0.13026136225E+03  0.13026136225E+03  0.00000000000E+00 0.  1.
         21   -1    0    0  501  503 -0.00000000000E+00 -0.00000000000E+00 -0.14356625799E+03  0.14356625799E+03  0.00000000000E+00 0. -1.
         24    1    1    2    0    0 -0.69490377370E+02 -0.24506959834E+02 -0.16482307271E+02  0.11031040764E+03  0.80419002446E+02 0.  1.
          1    1    1    2  501    0  0.14331088933E+02 -0.35842355067E+02 -0.52087550050E+02  0.64831839377E+02  0.00000000000E+00 0. -1.
         -2    1    1    2    0  502  0.55159288437E+02  0.60349314901E+02  0.55264961576E+02  0.98685373222E+02  0.00000000000E+00 0.  1.
<mgrwt>
<rscale>  2 0.11471632E+03</rscale>
<asrwt>0</asrwt>
<pdfrwt beam="1">  1       21 0.20040209E-01 0.11471632E+03</pdfrwt>
<pdfrwt beam="2">  1       21 0.22087117E-01 0.11471632E+03</pdfrwt>
<totfact> 0.44524199E+05</totfact>
</mgrwt>
</event>
<event>
 5    1  0.1708429E+000  0.8239594E+02  0.7546771E-02  0.1322386E+00
         21   -1    0    0  501  502  0.00000000000E+00  0.00000000000E+00  0.40732545906E+03  0.40732545906E+03  0.00000000000E+00 0.  1.
         21   -1    0    0  502  503 -0.00000000000E+00 -0.00000000000E+00 -0.38919597158E+02  0.38919597158E+02  0.00000000000E+00 0.  1.
         24    1    1    2    0    0 -0.38450771426E+02  0.39438630088E+02  0.34501097480E+03  0.35851590767E+03  0.80419002446E+02 0.  1.
          1    1    1    2  501    0  0.97606779576E+01 -0.37291879299E+02  0.39137359122E+02  0.54933486826E+02  0.00000000000E+00 0. -1.
         -2    1    1    2    0  503  0.28690093468E+02 -0.21467507898E+01 -0.15742472023E+02  0.32795661719E+02  0.00000000000E+00 0.  1.
<mgrwt>
<rscale>  2 0.82395943E+02</rscale>
<asrwt>0</asrwt>
<pdfrwt beam="1">  1       21 0.62665452E-01 0.82395943E+02</pdfrwt>
<pdfrwt beam="2">  1       21 0.59876306E-02 0.82395943E+02</pdfrwt>
<totfact> 0.47343214E+05</totfact>
</mgrwt>
</event>
<event>
 5    1  0.1708429E+000  0.8069320E+02  0.7546771E-02  0.1327096E+00
         21   -1    0    0  501  502  0.00000000000E+00  0.00000000000E+00  0.25456970920E+03  0.25456970920E+03  0.00000000000E+00 0.  1.
         21   -1    0    0  502  503 -0.00000000000E+00 -0.00000000000E+00 -0.33629839718E+02  0.33629839718E+02  0.00000000000E+00 0.  1.
         24    1    1    2    0    0 -0.55464704864E+02  0.24543009251E+02  0.13942786903E+03  0.17200592840E+03  0.80419002446E+02 0.  1.
          1    1    1    2  501    0  0.21380963938E+02 -0.89618134312E+01  0.74555944892E+02  0.78077196656E+02  0.00000000000E+00 0. -1.
         -2    1    1    2    0  503  0.34083740926E+02 -0.15581195819E+02  0.69560555550E+01  0.38116423855E+02  0.00000000000E+00 0.  1.
<mgrwt>
<rscale>  2 0.80693203E+02</rscale>
<asrwt>0</asrwt>
<pdfrwt beam="1">  1       21 0.39164569E-01 0.80693203E+02</pdfrwt>
<pdfrwt beam="2">  1       21 0.51738217E-02 0.80693203E+02</pdfrwt>
<totfact> 0.15716896E+06</totfact>
</mgrwt>
</event>
<event>
 5    1  0.1708429E+000  0.8117606E+02  0.7546771E-02  0.1325747E+00
         21   -1    0    0  503  502  0.00000000000E+00  0.00000000000E+00  0.13992833547E+03  0.13992833547E+03  0.00000000000E+00 0. -1.
         21   -1    0    0  501  503 -0.00000000000E+00 -0.00000000000E+00 -0.15944762252E+03  0.15944762252E+03  0.00000000000E+00 0. -1.
         24    1    1    2    0    0  0.49300623645E+02  0.24538356855E+02  0.65743673473E+02  0.11756755082E+03  0.80419002446E+02 0. -1.
          1    1    1    2  501    0 -0.21083915581E+02  0.73281370184E+01 -0.12294894489E+03  0.12495869773E+03  0.00000000000E+00 0. -1.
         -2    1    1    2    0  502 -0.28216708064E+02 -0.31866493874E+02  0.37685984369E+02  0.56849709442E+02  0.00000000000E+00 0.  1.
<mgrwt>
<rscale>  2 0.81176055E+02</rscale>
<asrwt>0</asrwt>
<pdfrwt beam="1">  1       21 0.21527436E-01 0.81176055E+02</pdfrwt>
<pdfrwt beam="2">  1       21 0.24530403E-01 0.81176055E+02</pdfrwt>
<totfact> 0.32215941E+05</totfact>
</mgrwt>
</event>
<event>
 5    1  0.1708429E+000  0.6901820E+02  0.7546771E-02  0.1363464E+00
         21   -1    0    0  501  502  0.00000000000E+00  0.00000000000E+00  0.22327813860E+02  0.22327813860E+02  0.00000000000E+00 0. -1.
         21   -1    0    0  502  503 -0.00000000000E+00 -0.00000000000E+00 -0.27931057034E+03  0.27931057034E+03  0.00000000000E+00 0. -1.
         24    1    1    2    0    0  0.16015672817E+02  0.14456015521E+02 -0.18231893294E+03  0.20043175253E+03  0.80419002446E+02 0. -1.
          1    1    1    2  501    0 -0.69835551246E+01  0.18935420926E+02 -0.14521947481E+01  0.20234353891E+02  0.00000000000E+00 0. -1.
         -2    1    1    2    0  503 -0.90321176922E+01 -0.33391436446E+02 -0.73211628792E+02  0.80972277776E+02  0.00000000000E+00 0.  1.
<mgrwt>
<rscale>  2 0.69018205E+02</rscale>
<asrwt>0</asrwt>
<pdfrwt beam="1">  1       21 0.34350483E-02 0.69018205E+02</pdfrwt>
<pdfrwt beam="2">  1       21 0.42970857E-01 0.69018205E+02</pdfrwt>
<totfact> 0.25466389E+06</totfact>
</mgrwt>
</event>
<event>
 5    1  0.1708429E+000  0.8014693E+02  0.7546771E-02  0.1328635E+00
         21   -1    0    0  501  502  0.00000000000E+00  0.00000000000E+00  0.31430670373E+03  0.31430670373E+03  0.00000000000E+00 0.  1.
         21   -1    0    0  502  503 -0.00000000000E+00 -0.00000000000E+00 -0.25718982019E+02  0.25718982019E+02  0.00000000000E+00 0. -1.
         24    1    1    2    0    0 -0.49755355150E+02 -0.32776882893E+02  0.24515960801E+03  0.26480250900E+03  0.80419002446E+02 0.  0.
          1    1    1    2  501    0  0.27980140593E+02  0.23498833761E+02  0.33445765890E+02  0.49534863598E+02  0.00000000000E+00 0. -1.
         -2    1    1    2    0  503  0.21775214557E+02  0.92780491321E+01  0.99823478112E+01  0.25688313151E+02  0.00000000000E+00 0.  1.
<mgrwt>
<rscale>  2 0.80146935E+02</rscale>
<asrwt>0</asrwt>
<pdfrwt beam="1">  1       21 0.48354875E-01 0.80146935E+02</pdfrwt>
<pdfrwt beam="2">  1       21 0.39567667E-02 0.80146935E+02</pdfrwt>
<totfact> 0.16066187E+06</totfact>
</mgrwt>
</event>
<event>
 5    1  0.1708429E+000  0.1242511E+03  0.7546771E-02  0.1236244E+00
         21   -1    0    0  501  502  0.00000000000E+00  0.00000000000E+00  0.18848238140E+03  0.18848238140E+03  0.00000000000E+00 0. -1.
         21   -1    0    0  502  503 -0.00000000000E+00 -0.00000000000E+00 -0.11930737552E+03  0.11930737552E+03  0.00000000000E+00 0.  1.
         24    1    1    2    0    0 -0.19948539881E+02  0.63720641645E+02  0.72584226780E+02  0.12725545311E+03  0.80419002446E+02 0. -1.
          1    1    1    2  501    0  0.65890039410E+02 -0.71667360351E+02  0.50161044369E+02  0.10951638327E+03  0.00000000000E+00 0. -1.
         -2    1    1    2    0  503 -0.45941499529E+02  0.79467187065E+01 -0.53570265260E+02  0.71017920536E+02  0.00000000000E+00 0.  1.
<mgrwt>
<rscale>  2 0.12425113E+03</rscale>
<asrwt>0</asrwt>
<pdfrwt beam="1">  1       21 0.28997290E-01 0.12425113E+03</pdfrwt>
<pdfrwt beam="2">  1       21 0.18354981E-01 0.12425113E+03</pdfrwt>
<totfact> 0.31250439E+05</totfact>
</mgrwt>
</event>
<event>
 5    1  0.1708429E+000  0.1000848E+03  0.7546771E-02  0.1280118E+00
         21   -1    0    0  503  502  0.00000000000E+00  0.00000000000E+00  0.82897988569E+02  0.82897988569E+02  0.00000000000E+00 0. -1.
         21   -1    0    0  501  503 -0.00000000000E+00 -0.00000000000E+00 -0.12609831242E+03  0.12609831242E+03  0.00000000000E+00 0.  1.
         24    1    1    2    0    0  0.69463229401E+02  0.33081387735E+02 -0.19710551992E+02  0.11302760843E+03  0.80419002446E+02 0.  1.
          1    1    1    2  501    0 -0.31152694554E+02 -0.39206918621E+02 -0.27213236217E+02  0.56993272156E+02  0.00000000000E+00 0. -1.
         -2    1    1    2    0  502 -0.38310534847E+02  0.61255308860E+01  0.37234643560E+01  0.38975420404E+02  0.00000000000E+00 0.  1.
<mgrwt>
<rscale>  2 0.10008477E+03</rscale>
<asrwt>0</asrwt>
<pdfrwt beam="1">  1       21 0.12753537E-01 0.10008477E+03</pdfrwt>
<pdfrwt beam="2">  1       21 0.19399740E-01 0.10008477E+03</pdfrwt>
<totfact> 0.12772022E+06</totfact>
</mgrwt>
</event>
<event>
 5    1  0.1708429E+000  0.9386381E+02  0.7546771E-02  0.1293756E+00
         21   -1    0    0  501  502  0.00000000000E+00  0.00000000000E+00  0.52791821397E+02  0.52791821397E+02  0.00000000000E+00 0. -1.
         21   -1    0    0  502  503 -0.00000000000E+00 -0.00000000000E+00 -0.70876198172E+03  0.70876198172E+03  0.00000000000E+00 0.  1.
         24    1    1    2    0    0  0.55597135194E+01 -0.31982924656E+02 -0.12260495501E+03  0.15017659215E+03  0.80419002446E+02 0.  1.
          1    1    1    2  501    0  0.25074722520E+02 -0.25565348024E+02  0.28485021370E+02  0.45757241738E+02  0.00000000000E+00 0. -1.
         -2    1    1    2    0  503 -0.30634436039E+02  0.57548272680E+02 -0.56185022668E+03  0.56561996922E+03  0.00000000000E+00 0.  1.
<mgrwt>
<rscale>  2 0.93863813E+02</rscale>
<asrwt>0</asrwt>
<pdfrwt beam="1">  1       21 0.81218190E-02 0.93863813E+02</pdfrwt>
<pdfrwt beam="2">  1       21 0.10904030E+00 0.93863813E+02</pdfrwt>
<totfact> 0.81980333E+04</totfact>
</mgrwt>
</event>
<event>
 5    1  0.1708429E+000  0.9427286E+02  0.7546771E-02  0.1292822E+00
         21   -1    0    0  501  502  0.00000000000E+00  0.00000000000E+00  0.51260259079E+02  0.51260259079E+02  0.00000000000E+00 0. -1.
         21   -1    0    0  502  503 -0.00000000000E+00 -0.00000000000E+00 -0.28816952872E+03  0.28816952872E+03  0.00000000000E+00 0.  1.
         24    1    1    2    0    0 -0.34929177245E+02 -0.26076248606E+02 -0.78062112529E+02  0.12025359675E+03  0.80419002446E+02 0. -1.
          1    1    1    2  501    0  0.17636178364E+02  0.58078639031E+02 -0.47936356711E+01  0.60886304223E+02  0.00000000000E+00 0. -1.
         -2    1    1    2    0  503  0.17292998881E+02 -0.32002390425E+02 -0.15405352144E+03  0.15828988683E+03  0.00000000000E+00 0.  1.
<mgrwt>
<rscale>  2 0.94272861E+02</rscale>
<asrwt>0</asrwt>
<pdfrwt beam="1">  1       21 0.78861935E-02 0.94272861E+02</pdfrwt>
<pdfrwt beam="2">  1       21 0.44333775E-01 0.94272861E+02</pdfrwt>
<totfact> 0.60557174E+05</totfact>
</mgrwt>
</event>
<event>
 5    1  0.1708429E+000  0.6541046E+02  0.7546771E-02  0.1376434E+00
         21   -1    0    0  503  502  0.00000000000E+00  0.00000000000E+00  0.58659683342E+02  0.58659683342E+02  0.00000000000E+00 0. -1.
         21   -1    0    0  501  503 -0.00000000000E+00 -0.00000000000E+00 -0.15140512049E+03  0.15140512049E+03  0.00000000000E+00 0. -1.
         24    1    1    2    0    0 -0.32495638584E+01  0.50536027112E+01  0.13301662515E+01  0.80654100096E+02  0.80419002446E+02 0. -1.
          1    1    1    2  501    0  0.75314045399E+01  0.21758944098E+02 -0.99149851452E+02  0.10178834288E+03  0.00000000000E+00 0. -1.
         -2    1    1    2    0  502 -0.42818406816E+01 -0.26812546810E+02  0.50742480544E+01  0.27622360858E+02  0.00000000000E+00 0.  1.
<mgrwt>
<rscale>  2 0.65410461E+02</rscale>
<asrwt>0</asrwt>
<pdfrwt beam="1">  1       21 0.90245666E-02 0.65410461E+02</pdfrwt>
<pdfrwt beam="2">  1       21 0.23293096E-01 0.65410461E+02</pdfrwt>
<totfact> 0.16401944E+06</totfact>
</mgrwt>
</event>
<event>
 5    1  0.1708429E+000  0.6526759E+02  0.7546771E-02  0.1376968E+00
         21   -1    0    0  501  502  0.00000000000E+00  0.00000000000E+00  0.76854826470E+02  0.76854826470E+02  0.00000000000E+00 0.  1.
         21   -1    0    0  502  503 -0.00000000000E+00 -0.00000000000E+00 -0.13794100392E+03  0.13794100392E+03  0.00000000000E+00 0.  1.
         24    1    1    2    0    0  0.12702212738E+02 -0.12271034107E+02  0.31584707488E+02  0.88185793572E+02  0.80419002446E+02 0.  1.
          1    1    1    2  501    0  0.13645705564E+02  0.16610432771E+02  0.76336613774E+01  0.22811938611E+02  0.00000000000E+00 0. -1.
         -2    1    1    2    0  503 -0.26347918302E+02 -0.43393986636E+01 -0.10030454631E+03  0.10379809820E+03  0.00000000000E+00 0.  1.
<mgrwt>
<rscale>  2 0.65267594E+02</rscale>
<asrwt>0</asrwt>
<pdfrwt beam="1">  1       21 0.11823819E-01 0.65267594E+02</pdfrwt>
<pdfrwt beam="2">  1       21 0.21221693E-01 0.65267594E+02</pdfrwt>
<totfact> 0.12219926E+06</totfact>
</mgrwt>
</event>
<event>
 5    1  0.1708429E+000  0.6634154E+02  0.7546771E-02  0.1372995E+00
         21   -1    0    0  501  502  0.00000000000E+00  0.00000000000E+00  0.63010188270E+03  0.63010188270E+03  0.00000000000E+00 0. -1.
         21   -1    0    0  502  503 -0.00000000000E+00 -0.00000000000E+00 -0.70916016505E+02  0.70916016505E+02  0.00000000000E+00 0. -1.
         24    1    1    2    0    0  0.34345401246E+02  0.23594959848E+02 -0.21944148486E+02  0.93193832007E+02  0.80419002446E+02 0. -1.
          1    1    1    2  501    0 -0.15909082726E+02 -0.14612753518E+02  0.58628120532E+03  0.58667902910E+03  0.00000000000E+00 0. -1.
         -2    1    1    2    0  503 -0.18436318520E+02 -0.89822063309E+01 -0.51511906371E+01  0.21145038097E+02  0.00000000000E+00 0.  1.
<mgrwt>
<rscale>  2 0.66341536E+02</rscale>
<asrwt>0</asrwt>
<pdfrwt beam="1">  1       21 0.96938748E-01 0.66341536E+02</pdfrwt>
<pdfrwt beam="2">  1       21 0.10910157E-01 0.66341536E+02</pdfrwt>
<totfact> 0.66186247E+04</totfact>
</mgrwt>
</event>
<event>
 5    1  0.1708429E+000  0.1132724E+03  0.7546771E-02  0.1254627E+00
         21   -1    0    0  501  502  0.00000000000E+00  0.00000000000E+00  0.28364499112E+02  0.28364499112E+02  0.00000000000E+00 0.  1.
         21   -1    0    0  502  503 -0.00000000000E+00 -0.00000000000E+00 -0.68577598936E+03  0.68577598936E+03  0.00000000000E+00 0. -1.
         24    1    1    2    0    0 -0.84806266513E+02  0.16016620042E+02 -0.14051783710E+03  0.18346965268E+03  0.80419002446E+02 0.  1.
          1    1    1    2  501    0  0.72750704330E+02 -0.39059648731E+02 -0.26826136053E+03  0.28068216669E+03  0.00000000000E+00 0. -1.
         -2    1    1    2    0  503  0.12055562183E+02  0.23043028690E+02 -0.24863229262E+03  0.24998866911E+03  0.00000000000E+00 0.  1.
<mgrwt>
<rscale>  2 0.11327235E+03</rscale>
<asrwt>0</asrwt>
<pdfrwt beam="1">  1       21 0.43637694E-02 0.11327235E+03</pdfrwt>
<pdfrwt beam="2">  1       21 0.10550399E+00 0.11327235E+03</pdfrwt>
<totfact> 0.25032154E+05</totfact>
</mgrwt>
</event>
<event>
 5    1  0.1708429E+000  0.1740424E+03  0.7546771E-02  0.1173697E+00
         21   -1    0    0  503  502  0.00000000000E+00  0.00000000000E+00  0.70777406644E+02  0.70777406644E+02  0.00000000000E+00 0.  1.
         21   -1    0    0  501  503 -0.00000000000E+00 -0.00000000000E+00 -0.47969406389E+03  0.47969406389E+03  0.00000000000E+00 0. -1.
         24    1    1    2    0    0 -0.31412691647E+01  0.15890226661E+02 -0.41357033012E+02  0.91869401921E+02  0.80419002446E+02 0.  1.
          1    1    1    2  501    0 -0.11650873228E+03  0.52987218586E+02 -0.23286438227E+03  0.26572118952E+03  0.00000000000E+00 0. -1.
         -2    1    1    2    0  502  0.11965000145E+03 -0.68877445247E+02 -0.13469524196E+03  0.19288087909E+03  0.00000000000E+00 0.  1.
<mgrwt>
<rscale>  2 0.17404236E+03</rscale>
<asrwt>0</asrwt>
<pdfrwt beam="1">  1       21 0.10888832E-01 0.17404236E+03</pdfrwt>
<pdfrwt beam="2">  1       21 0.73799085E-01 0.17404236E+03</pdfrwt>
<totfact> 0.11581995E+05</totfact>
</mgrwt>
</event>
<event>
 5    1  0.1708429E+000  0.1636887E+03  0.7546771E-02  0.1184594E+00
         21   -1    0    0  503  502  0.00000000000E+00  0.00000000000E+00  0.11841884378E+03  0.11841884378E+03  0.00000000000E+00 0.  1.
         21   -1    0    0  501  503 -0.00000000000E+00 -0.00000000000E+00 -0.28987866088E+03  0.28987866088E+03  0.00000000000E+00 0.  1.
         24    1    1    2    0    0 -0.61623508024E+02 -0.62941096213E+01 -0.59472804209E+02  0.11764906694E+03  0.80419002446E+02 0.  1.
          1    1    1    2  501    0  0.37815298853E+02  0.11163686075E+03 -0.13604375728E+03  0.18000191499E+03  0.00000000000E+00 0. -1.
         -2    1    1    2    0  502  0.23808209171E+02 -0.10534275113E+03  0.24056744383E+02  0.11064652272E+03  0.00000000000E+00 0.  1.
<mgrwt>
<rscale>  2 0.16368868E+03</rscale>
<asrwt>0</asrwt>
<pdfrwt beam="1">  1       21 0.18218284E-01 0.16368868E+03</pdfrwt>
<pdfrwt beam="2">  1       21 0.44596716E-01 0.16368868E+03</pdfrwt>
<totfact> 0.13389031E+05</totfact>
</mgrwt>
</event>
<event>
 5    1  0.1708429E+000  0.7701691E+02  0.7546771E-02  0.1337737E+00
         21   -1    0    0  503  502  0.00000000000E+00  0.00000000000E+00  0.51743127855E+02  0.51743127855E+02  0.00000000000E+00 0.  1.
         21   -1    0    0  501  503 -0.00000000000E+00 -0.00000000000E+00 -0.43440567894E+03  0.43440567894E+03  0.00000000000E+00 0. -1.
         24    1    1    2    0    0  0.44591276816E+02  0.28692096837E+02 -0.15505176360E+03  0.18253734889E+03  0.80419002446E+02 0. -1.
          1    1    1    2  501    0 -0.18754727443E+02 -0.25529107264E+02 -0.26007701869E+03  0.26199910452E+03  0.00000000000E+00 0. -1.
         -2    1    1    2    0  502 -0.25836549373E+02 -0.31629895738E+01  0.32466231199E+02  0.41612353392E+02  0.00000000000E+00 0.  1.
<mgrwt>
<rscale>  2 0.77016911E+02</rscale>
<asrwt>0</asrwt>
<pdfrwt beam="1">  1       21 0.79604813E-02 0.77016911E+02</pdfrwt>
<pdfrwt beam="2">  1       21 0.66831642E-01 0.77016911E+02</pdfrwt>
<totfact> 0.25562094E+05</totfact>
</mgrwt>
</event>
<event>
 5    1  0.1708429E+000  0.6825456E+02  0.7546771E-02  0.1366131E+00
         21   -1    0    0  503  502  0.00000000000E+00  0.00000000000E+00  0.10820426103E+02  0.10820426103E+02  0.00000000000E+00 0. -1.
         21   -1    0    0  501  503 -0.00000000000E+00 -0.00000000000E+00 -0.62887432219E+03  0.62887432219E+03  0.00000000000E+00 0. -1.
         24    1    1    2    0    0 -0.41260615688E+02  0.46416101474E+01 -0.25145891254E+03  0.26725041366E+03  0.80419002446E+02 0. -1.
          1    1    1    2  501    0  0.18437921453E+02 -0.12029605203E+02 -0.31243335607E+03  0.31320803044E+03  0.00000000000E+00 0. -1.
         -2    1    1    2    0  502  0.22822694235E+02  0.73879950556E+01 -0.54161627488E+02  0.59236304199E+02  0.00000000000E+00 0.  1.
<mgrwt>
<rscale>  2 0.68254565E+02</rscale>
<asrwt>0</asrwt>
<pdfrwt beam="1">  1       21 0.16646806E-02 0.68254565E+02</pdfrwt>
<pdfrwt beam="2">  1       21 0.96749915E-01 0.68254565E+02</pdfrwt>
<totfact> 0.14583302E+06</totfact>
</mgrwt>
</event>
<event>
 5    1  0.1708429E+000  0.7727164E+02  0.7546771E-02  0.1336977E+00
         21   -1    0    0  501  502  0.00000000000E+00  0.00000000000E+00  0.37799011012E+03  0.37799011012E+03  0.00000000000E+00 0. -1.
         21   -1    0    0  502  503 -0.00000000000E+00 -0.00000000000E+00 -0.20263359354E+02  0.20263359354E+02  0.00000000000E+00 0.  1.
         24    1    1    2    0    0  0.21502859856E+02  0.17151119152E+02  0.10885448255E+03  0.13810520698E+03  0.80419002446E+02 0.  1.
          1    1    1    2  501    0  0.18958084358E+02  0.93953193087E+01  0.13150071417E+03  0.13319203736E+03  0.00000000000E+00 0. -1.
         -2    1    1    2    0  503 -0.40460944214E+02 -0.26546438461E+02  0.11737155405E+03  0.12695622514E+03  0.00000000000E+00 0.  1.
<mgrwt>
<rscale>  2 0.77271641E+02</rscale>
<asrwt>0</asrwt>
<pdfrwt beam="1">  1       21 0.58152319E-01 0.77271641E+02</pdfrwt>
<pdfrwt beam="2">  1       21 0.31174402E-02 0.77271641E+02</pdfrwt>
<totfact> 0.16213005E+06</totfact>
</mgrwt>
</event>
<event>
 5    1  0.1708429E+000  0.2615125E+03  0.7546771E-02  0.1106238E+00
         21   -1    0    0  501  502  0.00000000000E+00  0.00000000000E+00  0.14759134595E+03  0.14759134595E+03  0.00000000000E+00 0. -1.
         21   -1    0    0  502  503 -0.00000000000E+00 -0.00000000000E+00 -0.76675908352E+03  0.76675908352E+03  0.00000000000E+00 0.  1.
         24    1    1    2    0    0 -0.14103942851E+03 -0.18971491460E+03 -0.55513281798E+02  0.25579837690E+03  0.80419002446E+02 0. -1.
          1    1    1    2  501    0  0.61396773526E+02 -0.63261416355E+01 -0.58945304676E+01  0.62002656047E+02  0.00000000000E+00 0. -1.
         -2    1    1    2    0  503  0.79642654981E+02  0.19604105623E+03 -0.55775992530E+03  0.59654939652E+03  0.00000000000E+00 0.  1.
<mgrwt>
<rscale>  2 0.26151249E+03</rscale>
<asrwt>0</asrwt>
<pdfrwt beam="1">  1       21 0.22706361E-01 0.26151249E+03</pdfrwt>
<pdfrwt beam="2">  1       21 0.11796294E+00 0.26151249E+03</pdfrwt>
<totfact> 0.95872830E+03</totfact>
</mgrwt>
</event>
<event>
 5    1  0.1708429E+000  0.7154795E+02  0.7546771E-02  0.1354907E+00
         21   -1    0    0  501  502  0.00000000000E+00  0.00000000000E+00  0.65508841765E+02  0.65508841765E+02  0.00000000000E+00 0.  1.
         21   -1    0    0  502  503 -0.00000000000E+00 -0.00000000000E+00 -0.88228274501E+02  0.88228274501E+02  0.00000000000E+00 0. -1.
         24    1    1    2    0    0 -0.12341460368E+02 -0.13657329136E+02  0.98574561860E+01  0.83085616565E+02  0.80419002446E+02 0.  1.
          1    1    1    2  501    0  0.22735644147E+02  0.32153957246E+02 -0.12180865587E+02  0.41220868111E+02  0.00000000000E+00 0. -1.
         -2    1    1    2    0  503 -0.10394183779E+02 -0.18496628110E+02 -0.20396023335E+02  0.29430631590E+02  0.00000000000E+00 0.  1.
<mgrwt>
<rscale>  2 0.71547946E+02</rscale>
<asrwt>0</asrwt>
<pdfrwt beam="1">  1       21 0.10078283E-01 0.71547946E+02</pdfrwt>
<pdfrwt beam="2">  1       21 0.13573581E-01 0.71547946E+02</pdfrwt>
<totfact> 0.36011047E+06</totfact>
</mgrwt>
</event>
<event>
 5    1  0.1708429E+000  0.8489125E+02  0.7546771E-02  0.1315717E+00
         21   -1    0    0  501  502  0.00000000000E+00  0.00000000000E+00  0.14718595157E+03  0.14718595157E+03  0.00000000000E+00 0.  1.
         21   -1    0    0  502  503 -0.00000000000E+00 -0.00000000000E+00 -0.64738319055E+02  0.64738319055E+02  0.00000000000E+00 0. -1.
         24    1    1    2    0    0 -0.23219030487E+02  0.54752812414E+02  0.70508891650E+02  0.12237529816E+03  0.80419002446E+02 0. -1.
          1    1    1    2  501    0  0.28609868521E+02 -0.20771147975E+02  0.33695941183E+02  0.48840368725E+02  0.00000000000E+00 0. -1.
         -2    1    1    2    0  503 -0.53908380341E+01 -0.33981664439E+02 -0.21757200317E+02  0.40708603739E+02  0.00000000000E+00 0.  1.
<mgrwt>
<rscale>  2 0.84891250E+02</rscale>
<asrwt>0</asrwt>
<pdfrwt beam="1">  1       21 0.22643992E-01 0.84891250E+02</pdfrwt>
<pdfrwt beam="2">  1       21 0.99597414E-02 0.84891250E+02</pdfrwt>
<totfact> 0.14737449E+06</totfact>
</mgrwt>
</event>
<event>
 5    1  0.1708429E+000  0.7484646E+02  0.7546771E-02  0.1344347E+00
         21   -1    0    0  503  502  0.00000000000E+00  0.00000000000E+00  0.14133154138E+03  0.14133154138E+03  0.00000000000E+00 0. -1.
         21   -1    0    0  501  503 -0.00000000000E+00 -0.00000000000E+00 -0.51274879186E+02  0.51274879186E+02  0.00000000000E+00 0.  1.
         24    1    1    2    0    0  0.28702175576E+02 -0.42652197657E+02  0.79719318860E+02  0.12436000403E+03  0.80419002446E+02 0.  0.
          1    1    1    2  501    0 -0.20723490653E+02  0.15317271448E+02 -0.15266668723E+02  0.29952513140E+02  0.00000000000E+00 0. -1.
         -2    1    1    2    0  502 -0.79786849231E+01  0.27334926208E+02  0.25604012054E+02  0.38293903394E+02  0.00000000000E+00 0.  1.
<mgrwt>
<rscale>  2 0.74846464E+02</rscale>
<asrwt>0</asrwt>
<pdfrwt beam="1">  1       21 0.21743314E-01 0.74846464E+02</pdfrwt>
<pdfrwt beam="2">  1       21 0.78884430E-02 0.74846464E+02</pdfrwt>
<totfact> 0.23558183E+06</totfact>
</mgrwt>
</event>
<event>
 5    1  0.1708429E+000  0.1040168E+03  0.7546771E-02  0.1272069E+00
         21   -1    0    0  503  502  0.00000000000E+00  0.00000000000E+00  0.39671245908E+03  0.39671245908E+03  0.00000000000E+00 0. -1.
         21   -1    0    0  501  503 -0.00000000000E+00 -0.00000000000E+00 -0.29670657959E+02  0.29670657959E+02  0.00000000000E+00 0. -1.
         24    1    1    2    0    0  0.13760823067E+02  0.87384958587E+02  0.19268862349E+03  0.22676334098E+03  0.80419002446E+02 0. -1.
          1    1    1    2  501    0 -0.85055658587E+01 -0.48042396863E+02  0.53456607550E+02  0.72374204228E+02  0.00000000000E+00 0. -1.
         -2    1    1    2    0  502 -0.52552572086E+01 -0.39342561723E+02  0.12089657008E+03  0.12724557183E+03  0.00000000000E+00 0.  1.
<mgrwt>
<rscale>  2 0.10401681E+03</rscale>
<asrwt>0</asrwt>
<pdfrwt beam="1">  1       21 0.61032682E-01 0.10401681E+03</pdfrwt>
<pdfrwt beam="2">  1       21 0.45647169E-02 0.10401681E+03</pdfrwt>
<totfact> 0.78753075E+05</totfact>
</mgrwt>
</event>
<event>
 5    1  0.1708429E+000  0.7818572E+02  0.7546771E-02  0.1334280E+00
         21   -1    0    0  501  502  0.00000000000E+00  0.00000000000E+00  0.49816982546E+03  0.49816982546E+03  0.00000000000E+00 0. -1.
         21   -1    0    0  502  503 -0.00000000000E+00 -0.00000000000E+00 -0.49638628737E+02  0.49638628737E+02  0.00000000000E+00 0.  1.
         24    1    1    2    0    0 -0.15272659320E+01 -0.30813291864E+02  0.49943061090E+02  0.99565640670E+02  0.80419002446E+02 0.  0.
          1    1    1    2  501    0  0.14805843102E+02  0.47014210663E+02  0.41727231331E+03  0.42017345519E+03  0.00000000000E+00 0. -1.
         -2    1    1    2    0  503 -0.13278577170E+02 -0.16200918799E+02 -0.18684177679E+02  0.28069358331E+02  0.00000000000E+00 0.  1.
<mgrwt>
<rscale>  2 0.78185720E+02</rscale>
<asrwt>0</asrwt>
<pdfrwt beam="1">  1       21 0.76641508E-01 0.78185720E+02</pdfrwt>
<pdfrwt beam="2">  1       21 0.76367125E-02 0.78185720E+02</pdfrwt>
<totfact> 0.20411384E+05</totfact>
</mgrwt>
</event>
<event>
 5    1  0.2831796E+000  0.6692835E+02  0.7546771E-02  0.1370861E+00
         21   -1    0    0  501  502  0.00000000000E+00  0.00000000000E+00  0.74400913927E+03  0.74400913927E+03  0.00000000000E+00 0.  1.
         21   -1    0    0  502  503 -0.00000000000E+00 -0.00000000000E+00 -0.70460982577E+02  0.70460982577E+02  0.00000000000E+00 0.  1.
         24    1    1    2    0    0 -0.19857302573E+02 -0.83939913128E+01  0.58622581788E+03  0.59210868686E+03  0.80419002446E+02 0.  1.
          1    1    1    2  501    0 -0.86577823325E+00  0.24398818163E+02  0.15128739017E+03  0.15324466165E+03  0.00000000000E+00 0. -1.
         -2    1    1    2    0  503  0.20723080807E+02 -0.16004826850E+02 -0.63965051358E+02  0.69116773333E+02  0.00000000000E+00 0.  1.
<mgrwt>
<rscale>  2 0.66928354E+02</rscale>
<asrwt>0</asrwt>
<pdfrwt beam="1">  1       21 0.11446294E+00 0.66928354E+02</pdfrwt>
<pdfrwt beam="2">  1       21 0.10840152E-01 0.66928354E+02</pdfrwt>
<totfact> 0.45543050E+04</totfact>
</mgrwt>
</event>
<event>
 5    1  0.1708429E+000  0.7445518E+02  0.7546771E-02  0.1345567E+00
         21   -1    0    0  501  502  0.00000000000E+00  0.00000000000E+00  0.69989231287E+02  0.69989231287E+02  0.00000000000E+00 0.  1.
         21   -1    0    0  502  503 -0.00000000000E+00 -0.00000000000E+00 -0.80821356092E+02  0.80821356092E+02  0.00000000000E+00 0. -1.
         24    1    1    2    0    0  0.37136340240E+02  0.26510691093E+02 -0.16874330481E+02  0.93988741306E+02  0.80419002446E+02 0. -1.
          1    1    1    2  501    0 -0.11130823545E+02 -0.28271467700E+02  0.20497428890E+01  0.30452792394E+02  0.00000000000E+00 0. -1.
         -2    1    1    2    0  503 -0.26005516695E+02  0.17607766070E+01  0.39924627861E+01  0.26369053679E+02  0.00000000000E+00 0.  1.
<mgrwt>
<rscale>  2 0.74455175E+02</rscale>
<asrwt>0</asrwt>
<pdfrwt beam="1">  1       21 0.10767574E-01 0.74455175E+02</pdfrwt>
<pdfrwt beam="2">  1       21 0.12434055E-01 0.74455175E+02</pdfrwt>
<totfact> 0.37568202E+06</totfact>
</mgrwt>
</event>
<event>
 5    1  0.1708429E+000  0.7442806E+02  0.7546771E-02  0.1345651E+00
         21   -1    0    0  501  502  0.00000000000E+00  0.00000000000E+00  0.42382929392E+03  0.42382929392E+03  0.00000000000E+00 0. -1.
         21   -1    0    0  502  503 -0.00000000000E+00 -0.00000000000E+00 -0.28616743679E+02  0.28616743679E+02  0.00000000000E+00 0. -1.
         24    1    1    2    0    0  0.42061334023E+02  0.30725469331E+02  0.14891623041E+03  0.17707758164E+03  0.80419002446E+02 0. -1.
          1    1    1    2  501    0 -0.28991640284E+02 -0.15157893622E+02  0.25211246881E+03  0.25422622578E+03  0.00000000000E+00 0. -1.
         -2    1    1    2    0  503 -0.13069693739E+02 -0.15567575710E+02 -0.58161489794E+01  0.21142230177E+02  0.00000000000E+00 0.  1.
<mgrwt>
<rscale>  2 0.74428061E+02</rscale>
<asrwt>0</asrwt>
<pdfrwt beam="1">  1       21 0.65204502E-01 0.74428061E+02</pdfrwt>
<pdfrwt beam="2">  1       21 0.44025763E-02 0.74428061E+02</pdfrwt>
<totfact> 0.72499085E+05</totfact>
</mgrwt>
</event>
<event>
 5    1  0.1708429E+000  0.9722503E+02  0.7546771E-02  0.1286242E+00
         21   -1    0    0  501  502  0.00000000000E+00  0.00000000000E+00  0.59116880456E+03  0.59116880456E+03  0.00000000000E+00 0. -1.
         21   -1    0    0  502  503 -0.00000000000E+00 -0.00000000000E+00 -0.38859165091E+02  0.38859165091E+02  0.00000000000E+00 0.  1.
         24    1    1    2    0    0  0.30703299349E+02  0.47538882090E+01  0.17980443392E+03  0.19940446950E+03  0.80419002446E+02 0.  0.
          1    1    1    2  501    0  0.13526650185E+02  0.41853085195E+02  0.36301860179E+03  0.36567356515E+03  0.00000000000E+00 0. -1.
         -2    1    1    2    0  503 -0.44229949534E+02 -0.46606973404E+02  0.94866037571E+01  0.64949935000E+02  0.00000000000E+00 0.  1.
<mgrwt>
<rscale>  2 0.97225027E+02</rscale>
<asrwt>0</asrwt>
<pdfrwt beam="1">  1       21 0.90949041E-01 0.97225027E+02</pdfrwt>
<pdfrwt beam="2">  1       21 0.59783335E-02 0.97225027E+02</pdfrwt>
<totfact> 0.20955421E+05</totfact>
</mgrwt>
</event>
<event>
 5    1  0.1708429E+000  0.7385725E+02  0.7546771E-02  0.1347447E+00
         21   -1    0    0  501  502  0.00000000000E+00  0.00000000000E+00  0.10050089793E+02  0.10050089793E+02  0.00000000000E+00 0.  1.
         21   -1    0    0  502  503 -0.00000000000E+00 -0.00000000000E+00 -0.10042848144E+04  0.10042848144E+04  0.00000000000E+00 0. -1.
         24    1    1    2    0    0 -0.38276250485E+02  0.19182945000E+02 -0.25145212384E+03  0.26744801975E+03  0.80419002446E+02 0.  1.
          1    1    1    2  501    0  0.18123441185E+02 -0.28995773765E+02 -0.15722050450E+03  0.16089593237E+03  0.00000000000E+00 0. -1.
         -2    1    1    2    0  503  0.20152809301E+02  0.98128287649E+01 -0.58556209627E+03  0.58599095208E+03  0.00000000000E+00 0.  1.
<mgrwt>
<rscale>  2 0.73857247E+02</rscale>
<asrwt>0</asrwt>
<pdfrwt beam="1">  1       21 0.15461670E-02 0.73857247E+02</pdfrwt>
<pdfrwt beam="2">  1       21 0.15450542E+00 0.73857247E+02</pdfrwt>
<totfact> 0.53310495E+05</totfact>
</mgrwt>
</event>
<event>
 5    1  0.1708429E+000  0.8054340E+02  0.7546771E-02  0.1327516E+00
         21   -1    0    0  501  502  0.00000000000E+00  0.00000000000E+00  0.67955127942E+02  0.67955127942E+02  0.00000000000E+00 0.  1.
         21   -1    0    0  502  503 -0.00000000000E+00 -0.00000000000E+00 -0.12923289600E+03  0.12923289600E+03  0.00000000000E+00 0.  1.
         24    1    1    2    0    0  0.58798279400E+02 -0.14087013825E+02 -0.35505870447E+01  0.10067524145E+03  0.80419002446E+02 0.  1.
          1    1    1    2  501    0 -0.22498772392E+02  0.59921777345E+01  0.47889342564E+01  0.23770461596E+02  0.00000000000E+00 0. -1.
         -2    1    1    2    0  503 -0.36299507007E+02  0.80948360908E+01 -0.62516115267E+02  0.72742320890E+02  0.00000000000E+00 0.  1.
<mgrwt>
<rscale>  2 0.80543404E+02</rscale>
<asrwt>0</asrwt>
<pdfrwt beam="1">  1       21 0.10454635E-01 0.80543404E+02</pdfrwt>
<pdfrwt beam="2">  1       21 0.19881984E-01 0.80543404E+02</pdfrwt>
<totfact> 0.17175003E+06</totfact>
</mgrwt>
</event>
<event>
 5    1  0.1708429E+000  0.9311049E+02  0.7546771E-02  0.1295489E+00
         21   -1    0    0  501  502  0.00000000000E+00  0.00000000000E+00  0.78849775902E+03  0.78849775902E+03  0.00000000000E+00 0. -1.
         21   -1    0    0  502  503 -0.00000000000E+00 -0.00000000000E+00 -0.22503301438E+02  0.22503301438E+02  0.00000000000E+00 0.  1.
         24    1    1    2    0    0  0.17360947341E+02  0.43450124645E+02  0.38042072734E+03  0.39163307006E+03  0.80419002446E+02 0. -1.
          1    1    1    2  501    0 -0.49869460215E+02 -0.24681099010E+02  0.37671096866E+03  0.38079820590E+03  0.00000000000E+00 0. -1.
         -2    1    1    2    0  503  0.32508512874E+02 -0.18769025635E+02  0.88627615791E+01  0.38569784487E+02  0.00000000000E+00 0.  1.
<mgrwt>
<rscale>  2 0.93110491E+02</rscale>
<asrwt>0</asrwt>
<pdfrwt beam="1">  1       21 0.12130733E+00 0.93110491E+02</pdfrwt>
<pdfrwt beam="2">  1       21 0.34620470E-02 0.93110491E+02</pdfrwt>
<totfact> 0.26464558E+05</totfact>
</mgrwt>
</event>
<event>
 5    1  0.1708429E+000  0.1676654E+03  0.7546771E-02  0.1180305E+00
         21   -1    0    0  503  502  0.00000000000E+00  0.00000000000E+00  0.12410550371E+03  0.12410550371E+03  0.00000000000E+00 0.  1.
         21   -1    0    0  501  503 -0.00000000000E+00 -0.00000000000E+00 -0.33965658114E+03  0.33965658114E+03  0.00000000000E+00 0. -1.
         24    1    1    2    0    0  0.11650096655E+03  0.95473638497E+02 -0.23868349880E+03  0.29347013376E+03  0.80419002446E+02 0. -1.
          1    1    1    2  501    0 -0.93834356871E+02 -0.35253811570E+02 -0.43306199753E+01  0.10033180966E+03  0.00000000000E+00 0. -1.
         -2    1    1    2    0  502 -0.22666609675E+02 -0.60219826927E+02  0.27463041352E+02  0.69960141435E+02  0.00000000000E+00 0.  1.
<mgrwt>
<rscale>  2 0.16766540E+03</rscale>
<asrwt>0</asrwt>
<pdfrwt beam="1">  1       21 0.19093155E-01 0.16766540E+03</pdfrwt>
<pdfrwt beam="2">  1       21 0.52254858E-01 0.16766540E+03</pdfrwt>
<totfact> 0.88343125E+04</totfact>
</mgrwt>
</event>
<event>
 5    1  0.1708429E+000  0.1175134E+03  0.7546771E-02  0.1247256E+00
         21   -1    0    0  503  502  0.00000000000E+00  0.00000000000E+00  0.40657057271E+02  0.40657057271E+02  0.00000000000E+00 0.  1.
         21   -1    0    0  501  503 -0.00000000000E+00 -0.00000000000E+00 -0.37240911633E+03  0.37240911633E+03  0.00000000000E+00 0. -1.
         24    1    1    2    0    0 -0.10305814748E+02  0.12650159198E+02 -0.71343558901E+02  0.10873525508E+03  0.80419002446E+02 0.  1.
          1    1    1    2  501    0  0.14081082704E+02 -0.82159489022E+02 -0.17732005023E+03  0.19593585363E+03  0.00000000000E+00 0. -1.
         -2    1    1    2    0  502 -0.37752679560E+01  0.69509329824E+02 -0.83088449931E+02  0.10839506489E+03  0.00000000000E+00 0.  1.
<mgrwt>
<rscale>  2 0.11751340E+03</rscale>
<asrwt>0</asrwt>
<pdfrwt beam="1">  1       21 0.62549320E-02 0.11751340E+03</pdfrwt>
<pdfrwt beam="2">  1       21 0.57293709E-01 0.11751340E+03</pdfrwt>
<totfact> 0.53011493E+05</totfact>
</mgrwt>
</event>
<event>
 5    1  0.1708429E+000  0.1210482E+03  0.7546771E-02  0.1241378E+00
         21   -1    0    0  503  502  0.00000000000E+00  0.00000000000E+00  0.58740343120E+02  0.58740343120E+02  0.00000000000E+00 0. -1.
         21   -1    0    0  501  503 -0.00000000000E+00 -0.00000000000E+00 -0.29259893600E+03  0.29259893600E+03  0.00000000000E+00 0.  1.
         24    1    1    2    0    0 -0.56180008884E+02 -0.53485410121E+02 -0.17629895076E+03  0.20872330605E+03  0.80419002446E+02 0.  1.
          1    1    1    2  501    0  0.79644519205E+02  0.66299619675E+02 -0.48197921106E+02  0.11428879476E+03  0.00000000000E+00 0. -1.
         -2    1    1    2    0  502 -0.23464510321E+02 -0.12814209554E+02 -0.93617210217E+01  0.28327178320E+02  0.00000000000E+00 0.  1.
<mgrwt>
<rscale>  2 0.12104819E+03</rscale>
<asrwt>0</asrwt>
<pdfrwt beam="1">  1       21 0.90369759E-02 0.12104819E+03</pdfrwt>
<pdfrwt beam="2">  1       21 0.45015221E-01 0.12104819E+03</pdfrwt>
<totfact> 0.46388682E+05</totfact>
</mgrwt>
</event>
<event>
 5    1  0.1708429E+000  0.1158356E+03  0.7546771E-02  0.1250130E+00
         21   -1    0    0  503  502  0.00000000000E+00  0.00000000000E+00  0.69488047382E+02  0.69488047382E+02  0.00000000000E+00 0. -1.
         21   -1    0    0  501  503 -0.00000000000E+00 -0.00000000000E+00 -0.21240983226E+03  0.21240983226E+03  0.00000000000E+00 0.  1.
         24    1    1    2    0    0  0.64446285327E+02  0.19224558777E+02 -0.49960960800E+02  0.11613018949E+03  0.80419002446E+02 0.  1.
          1    1    1    2  501    0 -0.40388440628E+02  0.43679034354E+02 -0.75635105337E+02  0.96227612138E+02  0.00000000000E+00 0. -1.
         -2    1    1    2    0  502 -0.24057844699E+02 -0.62903593131E+02 -0.17325718742E+02  0.69540078014E+02  0.00000000000E+00 0.  1.
<mgrwt>
<rscale>  2 0.11583558E+03</rscale>
<asrwt>0</asrwt>
<pdfrwt beam="1">  1       21 0.10690469E-01 0.11583558E+03</pdfrwt>
<pdfrwt beam="2">  1       21 0.32678435E-01 0.11583558E+03</pdfrwt>
<totfact> 0.65349379E+05</totfact>
</mgrwt>
</event>
<event>
 5    1  0.1708429E+000  0.7704889E+02  0.7546771E-02  0.1337641E+00
         21   -1    0    0  501  502  0.00000000000E+00  0.00000000000E+00  0.41719805530E+03  0.41719805530E+03  0.00000000000E+00 0. -1.
         21   -1    0    0  502  503 -0.00000000000E+00 -0.00000000000E+00 -0.85994146925E+02  0.85994146925E+02  0.00000000000E+00 0.  1.
         24    1    1    2    0    0 -0.21724238153E+02 -0.37776112829E+02  0.19548105180E+03  0.21582176626E+03  0.80419002446E+02 0.  0.
          1    1    1    2  501    0  0.30997071009E+02  0.88218352487E+01  0.20720241172E+03  0.20969378296E+03  0.00000000000E+00 0. -1.
         -2    1    1    2    0  503 -0.92728328559E+01  0.28954277581E+02 -0.71479555143E+02  0.77676653010E+02  0.00000000000E+00 0.  1.
<mgrwt>
<rscale>  2 0.77048886E+02</rscale>
<asrwt>0</asrwt>
<pdfrwt beam="1">  1       21 0.64184315E-01 0.77048886E+02</pdfrwt>
<pdfrwt beam="2">  1       21 0.13229869E-01 0.77048886E+02</pdfrwt>
<totfact> 0.11574680E+05</totfact>
</mgrwt>
</event>
<event>
 5    1  0.1708429E+000  0.1615999E+03  0.7546771E-02  0.1186902E+00
         21   -1    0    0  503  502  0.00000000000E+00  0.00000000000E+00  0.14948102041E+03  0.14948102041E+03  0.00000000000E+00 0. -1.
         21   -1    0    0  501  503 -0.00000000000E+00 -0.00000000000E+00 -0.27529591751E+03  0.27529591751E+03  0.00000000000E+00 0. -1.
         24    1    1    2    0    0 -0.75580579812E+02 -0.36536348909E+02  0.27446648629E+02  0.11944816161E+03  0.80419002446E+02 0. -1.
          1    1    1    2  501    0 -0.48765597605E+02  0.63148144587E+02 -0.15915116371E+03  0.17803051588E+03  0.00000000000E+00 0. -1.
         -2    1    1    2    0  502  0.12434617742E+03 -0.26611795678E+02  0.58896179830E+01  0.12729826042E+03  0.00000000000E+00 0.  1.
<mgrwt>
<rscale>  2 0.16159990E+03</rscale>
<asrwt>0</asrwt>
<pdfrwt beam="1">  1       21 0.22997080E-01 0.16159990E+03</pdfrwt>
<pdfrwt beam="2">  1       21 0.42353218E-01 0.16159990E+03</pdfrwt>
<totfact> 0.96413598E+04</totfact>
</mgrwt>
</event>
<event>
 5    1  0.1708429E+000  0.6969492E+02  0.7546771E-02  0.1361134E+00
         21   -1    0    0  501  502  0.00000000000E+00  0.00000000000E+00  0.33619269372E+03  0.33619269372E+03  0.00000000000E+00 0.  1.
         21   -1    0    0  502  503 -0.00000000000E+00 -0.00000000000E+00 -0.22572084097E+02  0.22572084097E+02  0.00000000000E+00 0.  1.
         24    1    1    2    0    0 -0.38480210879E+02 -0.53441720737E+01  0.28665525261E+03  0.30024612671E+03  0.80419002446E+02 0.  1.
          1    1    1    2  501    0  0.15642619617E+02  0.18097798324E+02  0.20669834191E+02  0.31614298951E+02  0.00000000000E+00 0. -1.
         -2    1    1    2    0  503  0.22837591262E+02 -0.12753626250E+02  0.62955228260E+01  0.26904352154E+02  0.00000000000E+00 0.  1.
<mgrwt>
<rscale>  2 0.69694923E+02</rscale>
<asrwt>0</asrwt>
<pdfrwt beam="1">  1       21 0.51721949E-01 0.69694923E+02</pdfrwt>
<pdfrwt beam="2">  1       21 0.34726286E-02 0.69694923E+02</pdfrwt>
<totfact> 0.17251315E+06</totfact>
</mgrwt>
</event>
<event>
 5    1  0.1708429E+000  0.2524347E+03  0.7546771E-02  0.1111776E+00
         21   -1    0    0  501  502  0.00000000000E+00  0.00000000000E+00  0.15221351994E+04  0.15221351994E+04  0.00000000000E+00 0. -1.
         21   -1    0    0  502  503 -0.00000000000E+00 -0.00000000000E+00 -0.51695645092E+02  0.51695645092E+02  0.00000000000E+00 0.  1.
         24    1    1    2    0    0 -0.58442777049E+02  0.20333649289E+03  0.10118297776E+04  0.10368355715E+04  0.80419002446E+02 0. -1.
          1    1    1    2  501    0  0.15999871534E+02  0.33922710518E+02  0.76878207252E+02  0.85539493383E+02  0.00000000000E+00 0. -1.
         -2    1    1    2    0  503  0.42442905516E+02 -0.23725920341E+03  0.38173156949E+03  0.45145577965E+03  0.00000000000E+00 0.  1.
<mgrwt>
<rscale>  2 0.25243467E+03</rscale>
<asrwt>0</asrwt>
<pdfrwt beam="1">  1       21 0.23417461E+00 0.25243467E+03</pdfrwt>
<pdfrwt beam="2">  1       21 0.79531773E-02 0.25243467E+03</pdfrwt>
<totfact> 0.95281376E+03</totfact>
</mgrwt>
</event>
<event>
 5    1  0.1708429E+000  0.1003689E+03  0.7546771E-02  0.1279522E+00
         21   -1    0    0  501  502  0.00000000000E+00  0.00000000000E+00  0.46582782238E+03  0.46582782238E+03  0.00000000000E+00 0.  1.
         21   -1    0    0  502  503 -0.00000000000E+00 -0.00000000000E+00 -0.52499339374E+02  0.52499339374E+02  0.00000000000E+00 0.  1.
         24    1    1    2    0    0  0.59815468838E+02  0.56969551849E+02  0.34624030358E+03  0.36492873815E+03  0.80419002446E+02 0.  1.
          1    1    1    2  501    0 -0.52222577680E+02 -0.36757572357E+02  0.97226556533E+02  0.11632420230E+03  0.00000000000E+00 0. -1.
         -2    1    1    2    0  503 -0.75928911584E+01 -0.20211979492E+02 -0.30138377104E+02  0.37074221308E+02  0.00000000000E+00 0.  1.
<mgrwt>
<rscale>  2 0.10036892E+03</rscale>
<asrwt>0</asrwt>
<pdfrwt beam="1">  1       21 0.71665816E-01 0.10036892E+03</pdfrwt>
<pdfrwt beam="2">  1       21 0.80768218E-02 0.10036892E+03</pdfrwt>
<totfact> 0.21317050E+05</totfact>
</mgrwt>
</event>
<event>
 5    1  0.1708429E+000  0.7404867E+02  0.7546771E-02  0.1346843E+00
         21   -1    0    0  503  502  0.00000000000E+00  0.00000000000E+00  0.98840936740E+02  0.98840936740E+02  0.00000000000E+00 0.  1.
         21   -1    0    0  501  503 -0.00000000000E+00 -0.00000000000E+00 -0.59061610915E+02  0.59061610915E+02  0.00000000000E+00 0. -1.
         24    1    1    2    0    0 -0.98007123658E+01  0.45640976259E+02  0.39667973614E+02  0.10109360396E+03  0.80419002446E+02 0.  1.
          1    1    1    2  501    0 -0.70637026846E+01 -0.33738086447E+02 -0.66153413950E+01  0.35098676820E+02  0.00000000000E+00 0. -1.
         -2    1    1    2    0  502  0.16864415050E+02 -0.11902889812E+02  0.67266936062E+01  0.21710266874E+02  0.00000000000E+00 0.  1.
<mgrwt>
<rscale>  2 0.74048674E+02</rscale>
<asrwt>0</asrwt>
<pdfrwt beam="1">  1       21 0.15206298E-01 0.74048674E+02</pdfrwt>
<pdfrwt beam="2">  1       21 0.90864017E-02 0.74048674E+02</pdfrwt>
<totfact> 0.35277291E+06</totfact>
</mgrwt>
</event>
<event>
 5    1  0.1708429E+000  0.7426562E+02  0.7546771E-02  0.1346160E+00
         21   -1    0    0  501  502  0.00000000000E+00  0.00000000000E+00  0.21279510365E+02  0.21279510365E+02  0.00000000000E+00 0. -1.
         21   -1    0    0  502  503 -0.00000000000E+00 -0.00000000000E+00 -0.11898823584E+04  0.11898823584E+04  0.00000000000E+00 0.  1.
         24    1    1    2    0    0 -0.21878380266E+02  0.26800258476E+02 -0.30545980574E+03  0.31775749598E+03  0.80419002446E+02 0.  0.
          1    1    1    2  501    0 -0.12098396568E+02 -0.24021281112E+02  0.25717436273E+01  0.27018641917E+02  0.00000000000E+00 0. -1.
         -2    1    1    2    0  503  0.33976776834E+02 -0.27789773641E+01 -0.86571478588E+03  0.86638573082E+03  0.00000000000E+00 0.  1.
<mgrwt>
<rscale>  2 0.74265620E+02</rscale>
<asrwt>0</asrwt>
<pdfrwt beam="1">  1       21 0.32737689E-02 0.74265620E+02</pdfrwt>
<pdfrwt beam="2">  1       21 0.18305893E+00 0.74265620E+02</pdfrwt>
<totfact> 0.10291636E+05</totfact>
</mgrwt>
</event>
<event>
 5    1  0.1708429E+000  0.1104394E+03  0.7546771E-02  0.1259758E+00
         21   -1    0    0  503  502  0.00000000000E+00  0.00000000000E+00  0.82000331140E+02  0.82000331140E+02  0.00000000000E+00 0.  1.
         21   -1    0    0  501  503 -0.00000000000E+00 -0.00000000000E+00 -0.30740688060E+03  0.30740688060E+03  0.00000000000E+00 0.  1.
         24    1    1    2    0    0  0.66085686238E+02 -0.68824028634E+02 -0.11417819423E+03  0.16913882119E+03  0.80419002446E+02 0.  0.
          1    1    1    2  501    0 -0.47166072473E+02  0.41287516729E+02 -0.15384012491E+03  0.16612068342E+03  0.00000000000E+00 0. -1.
         -2    1    1    2    0  502 -0.18919613765E+02  0.27536511905E+02  0.42611769669E+02  0.54147707128E+02  0.00000000000E+00 0.  1.
<mgrwt>
<rscale>  2 0.11043940E+03</rscale>
<asrwt>0</asrwt>
<pdfrwt beam="1">  1       21 0.12615435E-01 0.11043940E+03</pdfrwt>
<pdfrwt beam="2">  1       21 0.47293367E-01 0.11043940E+03</pdfrwt>
<totfact> 0.23429024E+05</totfact>
</mgrwt>
</event>
<event>
 5    1  0.1708429E+000  0.9827045E+02  0.7546771E-02  0.1283976E+00
         21   -1    0    0  503  502  0.00000000000E+00  0.00000000000E+00  0.13862920650E+04  0.13862920650E+04  0.00000000000E+00 0.  1.
         21   -1    0    0  501  503 -0.00000000000E+00 -0.00000000000E+00 -0.19674791857E+02  0.19674791857E+02  0.00000000000E+00 0. -1.
         24    1    1    2    0    0  0.68650436455E+02  0.29113235501E+02  0.26495804229E+03  0.28675850996E+03  0.80419002446E+02 0. -1.
          1    1    1    2  501    0 -0.48636961525E+02 -0.40982898845E+02  0.10843200561E+03  0.12570859901E+03  0.00000000000E+00 0. -1.
         -2    1    1    2    0  502 -0.20013474930E+02  0.11869663344E+02  0.99322722520E+03  0.99349974784E+03  0.00000000000E+00 0.  1.
<mgrwt>
<rscale>  2 0.98270446E+02</rscale>
<asrwt>0</asrwt>
<pdfrwt beam="1">  1       21 0.21327563E+00 0.98270446E+02</pdfrwt>
<pdfrwt beam="2">  1       21 0.30268921E-02 0.98270446E+02</pdfrwt>
<totfact> 0.74214668E+04</totfact>
</mgrwt>
</event>
<event>
 5    1  0.1708429E+000  0.8143460E+02  0.7546771E-02  0.1325029E+00
         21   -1    0    0  501  502  0.00000000000E+00  0.00000000000E+00  0.22376412842E+02  0.22376412842E+02  0.00000000000E+00 0.  1.
         21   -1    0    0  502  503 -0.00000000000E+00 -0.00000000000E+00 -0.33840007836E+03  0.33840007836E+03  0.00000000000E+00 0. -1.
         24    1    1    2    0    0 -0.39582424996E+02  0.20484388575E+02 -0.14085439766E+03  0.16820688404E+03  0.80419002446E+02 0. -1.
          1    1    1    2  501    0  0.22273171372E+02  0.18058802032E+02 -0.30524925347E+02  0.41880610803E+02  0.00000000000E+00 0. -1.
         -2    1    1    2    0  503  0.17309253624E+02 -0.38543190607E+02 -0.14464434251E+03  0.15068899635E+03  0.00000000000E+00 0.  1.
<mgrwt>
<rscale>  2 0.81434598E+02</rscale>
<asrwt>0</asrwt>
<pdfrwt beam="1">  1       21 0.34425253E-02 0.81434598E+02</pdfrwt>
<pdfrwt beam="2">  1       21 0.52061547E-01 0.81434598E+02</pdfrwt>
<totfact> 0.17366636E+06</totfact>
</mgrwt>
</event>
<event>
 5    1  0.1708429E+000  0.1117284E+03  0.7546771E-02  0.1257402E+00
         21   -1    0    0  503  502  0.00000000000E+00  0.00000000000E+00  0.61720272224E+03  0.61720272224E+03  0.00000000000E+00 0.  1.
         21   -1    0    0  501  503 -0.00000000000E+00 -0.00000000000E+00 -0.24052407249E+02  0.24052407249E+02  0.00000000000E+00 0.  1.
         24    1    1    2    0    0 -0.55341563350E+02 -0.79284235432E+02  0.42749389456E+03  0.44560848787E+03  0.80419002446E+02 0.  1.
          1    1    1    2  501    0  0.22581044629E+02  0.21008036288E+02  0.24252413946E+02  0.39235452685E+02  0.00000000000E+00 0. -1.
         -2    1    1    2    0  502  0.32760518721E+02  0.58276199145E+02  0.14140400649E+03  0.15641118894E+03  0.00000000000E+00 0.  1.
<mgrwt>
<rscale>  2 0.11172839E+03</rscale>
<asrwt>0</asrwt>
<pdfrwt beam="1">  1       21 0.94954253E-01 0.11172839E+03</pdfrwt>
<pdfrwt beam="2">  1       21 0.37003708E-02 0.11172839E+03</pdfrwt>
<totfact> 0.42069792E+05</totfact>
</mgrwt>
</event>
<event>
 5    1  0.1708429E+000  0.1011479E+03  0.7546771E-02  0.1277900E+00
         21   -1    0    0  501  502  0.00000000000E+00  0.00000000000E+00  0.42864246608E+03  0.42864246608E+03  0.00000000000E+00 0. -1.
         21   -1    0    0  502  503 -0.00000000000E+00 -0.00000000000E+00 -0.65131421296E+02  0.65131421296E+02  0.00000000000E+00 0.  1.
         24    1    1    2    0    0  0.42160870458E+02  0.64488741055E+02  0.79202147427E+02  0.13666211191E+03  0.80419002446E+02 0.  1.
          1    1    1    2  501    0 -0.28245168799E+02 -0.36090783934E+01  0.29271678131E+03  0.29409850233E+03  0.00000000000E+00 0. -1.
         -2    1    1    2    0  503 -0.13915701659E+02 -0.60879662662E+02 -0.84078839614E+01  0.63013273135E+02  0.00000000000E+00 0.  1.
<mgrwt>
<rscale>  2 0.10114794E+03</rscale>
<asrwt>0</asrwt>
<pdfrwt beam="1">  1       21 0.65944993E-01 0.10114794E+03</pdfrwt>
<pdfrwt beam="2">  1       21 0.10020219E-01 0.10114794E+03</pdfrwt>
<totfact> 0.17577483E+05</totfact>
</mgrwt>
</event>
<event>
 5    1  0.1708429E+000  0.8757653E+02  0.7546771E-02  0.1308829E+00
         21   -1    0    0  503  502  0.00000000000E+00  0.00000000000E+00  0.41999316811E+03  0.41999316811E+03  0.00000000000E+00 0. -1.
         21   -1    0    0  501  503 -0.00000000000E+00 -0.00000000000E+00 -0.39426362045E+02  0.39426362045E+02  0.00000000000E+00 0. -1.
         24    1    1    2    0    0  0.36514249681E+02  0.36600969712E+02  0.16725921762E+03  0.19265456976E+03  0.80419002446E+02 0. -1.
          1    1    1    2  501    0 -0.13292805440E+02 -0.50679052849E+02  0.66721101910E+00  0.52397616785E+02  0.00000000000E+00 0. -1.
         -2    1    1    2    0  502 -0.23221444241E+02  0.14078083137E+02  0.21264037742E+03  0.21436734361E+03  0.00000000000E+00 0.  1.
<mgrwt>
<rscale>  2 0.87576529E+02</rscale>
<asrwt>0</asrwt>
<pdfrwt beam="1">  1       21 0.64614330E-01 0.87576529E+02</pdfrwt>
<pdfrwt beam="2">  1       21 0.60655945E-02 0.87576529E+02</pdfrwt>
<totfact> 0.43405092E+05</totfact>
</mgrwt>
</event>
<event>
 5    1  0.1708429E+000  0.6673013E+02  0.7546771E-02  0.1371579E+00
         21   -1    0    0  503  502  0.00000000000E+00  0.00000000000E+00  0.20386387075E+03  0.20386387075E+03  0.00000000000E+00 0.  1.
         21   -1    0    0  501  503 -0.00000000000E+00 -0.00000000000E+00 -0.42454550311E+02  0.42454550311E+02  0.00000000000E+00 0.  1.
         24    1    1    2    0    0  0.53615460283E+01  0.12876534823E+02  0.97291071011E+02  0.12699338478E+03  0.80419002446E+02 0. -1.
          1    1    1    2  501    0  0.20612442240E+02  0.38195012725E+01 -0.20456279465E+02  0.29290283963E+02  0.00000000000E+00 0. -1.
         -2    1    1    2    0  502 -0.25973988268E+02 -0.16696036095E+02  0.84574528896E+02  0.90034752323E+02  0.00000000000E+00 0.  1.
<mgrwt>
<rscale>  2 0.66730126E+02</rscale>
<asrwt>0</asrwt>
<pdfrwt beam="1">  1       21 0.31363672E-01 0.66730126E+02</pdfrwt>
<pdfrwt beam="2">  1       21 0.65314694E-02 0.66730126E+02</pdfrwt>
<totfact> 0.16250045E+06</totfact>
</mgrwt>
</event>
<event>
 5    1  0.1708429E+000  0.1645703E+03  0.7546771E-02  0.1183631E+00
         21   -1    0    0  503  502  0.00000000000E+00  0.00000000000E+00  0.13047581616E+03  0.13047581616E+03  0.00000000000E+00 0. -1.
         21   -1    0    0  501  503 -0.00000000000E+00 -0.00000000000E+00 -0.26109237019E+03  0.26109237019E+03  0.00000000000E+00 0.  1.
         24    1    1    2    0    0  0.41424333162E+02  0.14907753226E+03 -0.36640652031E+02  0.17818484599E+03  0.80419002446E+02 0.  1.
          1    1    1    2  501    0 -0.30756783927E+02 -0.11601593305E+03 -0.12019455969E+03  0.16985996779E+03  0.00000000000E+00 0. -1.
         -2    1    1    2    0  502 -0.10667549235E+02 -0.33061599214E+02  0.26218657688E+02  0.43523372574E+02  0.00000000000E+00 0.  1.
<mgrwt>
<rscale>  2 0.16457026E+03</rscale>
<asrwt>0</asrwt>
<pdfrwt beam="1">  1       21 0.20073203E-01 0.16457026E+03</pdfrwt>
<pdfrwt beam="2">  1       21 0.40168057E-01 0.16457026E+03</pdfrwt>
<totfact> 0.13826385E+05</totfact>
</mgrwt>
</event>
<event>
 5    1  0.1708429E+000  0.1089022E+03  0.7546771E-02  0.1262616E+00
         21   -1    0    0  501  502  0.00000000000E+00  0.00000000000E+00  0.41270780300E+03  0.41270780300E+03  0.00000000000E+00 0.  1.
         21   -1    0    0  502  503 -0.00000000000E+00 -0.00000000000E+00 -0.31212981079E+02  0.31212981079E+02  0.00000000000E+00 0. -1.
         24    1    1    2    0    0  0.18345194626E+02  0.92242064838E+02  0.16191242085E+03  0.20378418161E+03  0.80419002446E+02 0. -1.
          1    1    1    2  501    0 -0.44776630648E+01 -0.26071377344E+02  0.92259768752E+02  0.95977242685E+02  0.00000000000E+00 0. -1.
         -2    1    1    2    0  503 -0.13867531561E+02 -0.66170687494E+02  0.12732263231E+03  0.14415935979E+03  0.00000000000E+00 0.  1.
<mgrwt>
<rscale>  2 0.10890221E+03</rscale>
<asrwt>0</asrwt>
<pdfrwt beam="1">  1       21 0.63493505E-01 0.10890221E+03</pdfrwt>
<pdfrwt beam="2">  1       21 0.48019974E-02 0.10890221E+03</pdfrwt>
<totfact> 0.66552832E+05</totfact>
</mgrwt>
</event>
<event>
 5    1  0.1708429E+000  0.7800478E+02  0.7546771E-02  0.1334811E+00
         21   -1    0    0  501  502  0.00000000000E+00  0.00000000000E+00  0.59204632952E+02  0.59204632952E+02  0.00000000000E+00 0.  1.
         21   -1    0    0  502  503 -0.00000000000E+00 -0.00000000000E+00 -0.16722761588E+03  0.16722761588E+03  0.00000000000E+00 0. -1.
         24    1    1    2    0    0 -0.13601307843E+02  0.41621195444E+02  0.39357685210E+01  0.91651654177E+02  0.80419002446E+02 0.  0.
          1    1    1    2  501    0 -0.15513023952E+02 -0.28626733967E+02 -0.21886611851E+02  0.39232226397E+02  0.00000000000E+00 0. -1.
         -2    1    1    2    0  503  0.29114331795E+02 -0.12994461477E+02 -0.90072139597E+02  0.95548368256E+02  0.00000000000E+00 0.  1.
<mgrwt>
<rscale>  2 0.78004781E+02</rscale>
<asrwt>0</asrwt>
<pdfrwt beam="1">  1       21 0.91084051E-02 0.78004781E+02</pdfrwt>
<pdfrwt beam="2">  1       21 0.25727325E-01 0.78004781E+02</pdfrwt>
<totfact> 0.13521587E+06</totfact>
</mgrwt>
</event>
<event>
 5    1  0.1708429E+000  0.8689193E+02  0.7546771E-02  0.1310558E+00
         21   -1    0    0  503  502  0.00000000000E+00  0.00000000000E+00  0.59734184846E+03  0.59734184846E+03  0.00000000000E+00 0. -1.
         21   -1    0    0  501  503 -0.00000000000E+00 -0.00000000000E+00 -0.16939621304E+02  0.16939621304E+02  0.00000000000E+00 0.  1.
         24    1    1    2    0    0 -0.14023696852E+02 -0.41896417959E+02  0.26384389699E+03  0.27934350152E+03  0.80419002446E+02 0.  0.
          1    1    1    2  501    0  0.41692427356E+02  0.32305892255E+02  0.75449636860E+02  0.92057465073E+02  0.00000000000E+00 0. -1.
         -2    1    1    2    0  502 -0.27668730504E+02  0.95905257038E+01  0.24110869331E+03  0.24288050317E+03  0.00000000000E+00 0.  1.
<mgrwt>
<rscale>  2 0.86891935E+02</rscale>
<asrwt>0</asrwt>
<pdfrwt beam="1">  1       21 0.91898730E-01 0.86891935E+02</pdfrwt>
<pdfrwt beam="2">  1       21 0.26060960E-02 0.86891935E+02</pdfrwt>
<totfact> 0.80472275E+05</totfact>
</mgrwt>
</event>
<event>
 5    1  0.1708429E+000  0.1289598E+03  0.7546771E-02  0.1229007E+00
         21   -1    0    0  501  502  0.00000000000E+00  0.00000000000E+00  0.21104681632E+03  0.21104681632E+03  0.00000000000E+00 0. -1.
         21   -1    0    0  502  503 -0.00000000000E+00 -0.00000000000E+00 -0.28703217189E+03  0.28703217189E+03  0.00000000000E+00 0. -1.
         24    1    1    2    0    0  0.78926744327E+02  0.75347662064E+02 -0.60337682778E+02  0.14837302001E+03  0.80419002446E+02 0. -1.
          1    1    1    2  501    0 -0.70494992260E+02 -0.30626995324E+02  0.15504515120E+03  0.17305073154E+03  0.00000000000E+00 0. -1.
         -2    1    1    2    0  503 -0.84317520670E+01 -0.44720666740E+02 -0.17069282400E+03  0.17665523666E+03  0.00000000000E+00 0.  1.
<mgrwt>
<rscale>  2 0.12895983E+03</rscale>
<asrwt>0</asrwt>
<pdfrwt beam="1">  1       21 0.32468741E-01 0.12895983E+03</pdfrwt>
<pdfrwt beam="2">  1       21 0.44158795E-01 0.12895983E+03</pdfrwt>
<totfact> 0.46448995E+04</totfact>
</mgrwt>
</event>
<event>
 5    1  0.1708429E+000  0.9897631E+02  0.7546771E-02  0.1282463E+00
         21   -1    0    0  501  502  0.00000000000E+00  0.00000000000E+00  0.97923239067E+01  0.97923239067E+01  0.00000000000E+00 0. -1.
         21   -1    0    0  502  503 -0.00000000000E+00 -0.00000000000E+00 -0.13166583295E+04  0.13166583295E+04  0.00000000000E+00 0.  1.
         24    1    1    2    0    0  0.86413055707E+01  0.20529540589E+02 -0.42301279389E+03  0.43116490343E+03  0.80419002446E+02 0. -1.
          1    1    1    2  501    0 -0.59191349525E+02 -0.23921036706E+02 -0.20899776819E+03  0.21853123109E+03  0.00000000000E+00 0. -1.
         -2    1    1    2    0  503  0.50550043955E+02  0.33914961168E+01 -0.67485544355E+03  0.67675451892E+03  0.00000000000E+00 0.  1.
<mgrwt>
<rscale>  2 0.98976310E+02</rscale>
<asrwt>0</asrwt>
<pdfrwt beam="1">  1       21 0.15065117E-02 0.98976310E+02</pdfrwt>
<pdfrwt beam="2">  1       21 0.20256277E+00 0.98976310E+02</pdfrwt>
<totfact> 0.26446009E+05</totfact>
</mgrwt>
</event>
<event>
 5    1  0.1708429E+000  0.8407540E+02  0.7546771E-02  0.1317868E+00
         21   -1    0    0  503  502  0.00000000000E+00  0.00000000000E+00  0.13308308124E+03  0.13308308124E+03  0.00000000000E+00 0.  1.
         21   -1    0    0  501  503 -0.00000000000E+00 -0.00000000000E+00 -0.11636055384E+04  0.11636055384E+04  0.00000000000E+00 0. -1.
         24    1    1    2    0    0  0.45822273002E+02  0.15749337059E+02 -0.28110614405E+03  0.29637071802E+03  0.80419002446E+02 0.  1.
          1    1    1    2  501    0 -0.55880394323E+01  0.19800053902E+02 -0.86899538536E+03  0.86923889011E+03  0.00000000000E+00 0. -1.
         -2    1    1    2    0  502 -0.40234233570E+02 -0.35549390961E+02  0.11957907223E+03  0.13107901153E+03  0.00000000000E+00 0.  1.
<mgrwt>
<rscale>  2 0.84075399E+02</rscale>
<asrwt>0</asrwt>
<pdfrwt beam="1">  1       21 0.20474320E-01 0.84075399E+02</pdfrwt>
<pdfrwt beam="2">  1       21 0.17901623E+00 0.84075399E+02</pdfrwt>
<totfact> 0.46743629E+03</totfact>
</mgrwt>
</event>
<event>
 5    1  0.1708429E+000  0.9971212E+02  0.7546771E-02  0.1280902E+00
         21   -1    0    0  503  502  0.00000000000E+00  0.00000000000E+00  0.99604722285E+02  0.99604722285E+02  0.00000000000E+00 0. -1.
         21   -1    0    0  501  503 -0.00000000000E+00 -0.00000000000E+00 -0.15415624424E+03  0.15415624424E+03  0.00000000000E+00 0.  1.
         24    1    1    2    0    0  0.37464980872E+02  0.64010033362E+02 -0.53317604793E+02  0.12170000862E+03  0.80419002446E+02 0.  0.
          1    1    1    2  501    0 -0.60356880419E+01 -0.57642314016E+02 -0.48070390829E+02  0.75298262727E+02  0.00000000000E+00 0. -1.
         -2    1    1    2    0  502 -0.31429292830E+02 -0.63677193458E+01  0.46836473672E+02  0.56762695174E+02  0.00000000000E+00 0.  1.
<mgrwt>
<rscale>  2 0.99712123E+02</rscale>
<asrwt>0</asrwt>
<pdfrwt beam="1">  1       21 0.15323804E-01 0.99712123E+02</pdfrwt>
<pdfrwt beam="2">  1       21 0.23716345E-01 0.99712123E+02</pdfrwt>
<totfact> 0.63531498E+05</totfact>
</mgrwt>
</event>
<event>
 5    1  0.1708429E+000  0.1145629E+03  0.7546771E-02  0.1252346E+00
         21   -1    0    0  503  502  0.00000000000E+00  0.00000000000E+00  0.56482655120E+02  0.56482655120E+02  0.00000000000E+00 0. -1.
         21   -1    0    0  501  503 -0.00000000000E+00 -0.00000000000E+00 -0.27200678996E+03  0.27200678996E+03  0.00000000000E+00 0. -1.
         24    1    1    2    0    0  0.82770039133E+02  0.56573040460E+02 -0.10295598664E+03  0.16467707619E+03  0.80419002446E+02 0. -1.
          1    1    1    2  501    0 -0.66468245328E+02 -0.41247193879E+02 -0.11725285009E+03  0.14095243699E+03  0.00000000000E+00 0. -1.
         -2    1    1    2    0  502 -0.16301793806E+02 -0.15325846581E+02  0.46847018822E+01  0.22859931899E+02  0.00000000000E+00 0.  1.
<mgrwt>
<rscale>  2 0.11456291E+03</rscale>
<asrwt>0</asrwt>
<pdfrwt beam="1">  1       21 0.86896394E-02 0.11456291E+03</pdfrwt>
<pdfrwt beam="2">  1       21 0.41847198E-01 0.11456291E+03</pdfrwt>
<totfact> 0.57543554E+05</totfact>
</mgrwt>
</event>
<event>
 5    1  0.1708429E+000  0.1121452E+03  0.7546771E-02  0.1256648E+00
         21   -1    0    0  503  502  0.00000000000E+00  0.00000000000E+00  0.14275016214E+03  0.14275016214E+03  0.00000000000E+00 0.  1.
         21   -1    0    0  501  503 -0.00000000000E+00 -0.00000000000E+00 -0.14359119332E+03  0.14359119332E+03  0.00000000000E+00 0.  1.
         24    1    1    2    0    0 -0.58021489541E+02 -0.71884850637E+02 -0.76048814305E+02  0.14416852330E+03  0.80419002446E+02 0.  1.
          1    1    1    2  501    0  0.26046525479E+02  0.34488040037E+01 -0.10172359040E+02  0.28174325671E+02  0.00000000000E+00 0. -1.
         -2    1    1    2    0  502  0.31974964062E+02  0.68436046633E+02  0.85380142169E+02  0.11399850649E+03  0.00000000000E+00 0.  1.
<mgrwt>
<rscale>  2 0.11214518E+03</rscale>
<asrwt>0</asrwt>
<pdfrwt beam="1">  1       21 0.21961563E-01 0.11214518E+03</pdfrwt>
<pdfrwt beam="2">  1       21 0.22090953E-01 0.11214518E+03</pdfrwt>
<totfact> 0.37583180E+05</totfact>
</mgrwt>
</event>
<event>
 5    1  0.1708429E+000  0.1023324E+03  0.7546771E-02  0.1275466E+00
         21   -1    0    0  503  502  0.00000000000E+00  0.00000000000E+00  0.39070059815E+02  0.39070059815E+02  0.00000000000E+00 0.  1.
         21   -1    0    0  501  503 -0.00000000000E+00 -0.00000000000E+00 -0.34768069837E+03  0.34768069837E+03  0.00000000000E+00 0. -1.
         24    1    1    2    0    0  0.64098334463E+02  0.57216693540E+02 -0.21889355720E+03  0.24852354383E+03  0.80419002446E+02 0.  1.
          1    1    1    2  501    0 -0.15381109542E+02 -0.22101972428E+02 -0.70031068713E+02  0.75029502871E+02  0.00000000000E+00 0. -1.
         -2    1    1    2    0  502 -0.48717224921E+02 -0.35114721111E+02 -0.19686012641E+02  0.63197711481E+02  0.00000000000E+00 0.  1.
<mgrwt>
<rscale>  2 0.10233240E+03</rscale>
<asrwt>0</asrwt>
<pdfrwt beam="1">  1       21 0.60107785E-02 0.10233240E+03</pdfrwt>
<pdfrwt beam="2">  1       21 0.53489337E-01 0.10233240E+03</pdfrwt>
<totfact> 0.65475520E+05</totfact>
</mgrwt>
</event>
<event>
 5    1  0.1708429E+000  0.8052309E+02  0.7546771E-02  0.1327574E+00
         21   -1    0    0  501  502  0.00000000000E+00  0.00000000000E+00  0.13184279404E+03  0.13184279404E+03  0.00000000000E+00 0. -1.
         21   -1    0    0  502  503 -0.00000000000E+00 -0.00000000000E+00 -0.12324455436E+03  0.12324455436E+03  0.00000000000E+00 0. -1.
         24    1    1    2    0    0  0.19186318554E+02  0.18635636967E+02 -0.55135548748E+02  0.10110660945E+03  0.80419002446E+02 0. -1.
          1    1    1    2  501    0 -0.10040546353E+02 -0.46187211785E+02  0.98160906075E+02  0.10894785259E+03  0.00000000000E+00 0. -1.
         -2    1    1    2    0  503 -0.91457722014E+01  0.27551574819E+02 -0.34427117640E+02  0.45032886351E+02  0.00000000000E+00 0.  1.
<mgrwt>
<rscale>  2 0.80523088E+02</rscale>
<asrwt>0</asrwt>
<pdfrwt beam="1">  1       21 0.20283507E-01 0.80523088E+02</pdfrwt>
<pdfrwt beam="2">  1       21 0.18960701E-01 0.80523088E+02</pdfrwt>
<totfact> 0.57682692E+05</totfact>
</mgrwt>
</event>
<event>
 5    1  0.1708429E+000  0.8127859E+02  0.7546771E-02  0.1325462E+00
         21   -1    0    0  501  502  0.00000000000E+00  0.00000000000E+00  0.21978093335E+02  0.21978093335E+02  0.00000000000E+00 0. -1.
         21   -1    0    0  502  503 -0.00000000000E+00 -0.00000000000E+00 -0.13480284492E+04  0.13480284492E+04  0.00000000000E+00 0. -1.
         24    1    1    2    0    0 -0.45768030866E+02 -0.14840407404E+02 -0.70774677949E+03  0.71392413475E+03  0.80419002446E+02 0. -1.
          1    1    1    2  501    0  0.98714033128E+01 -0.17782108594E+02  0.12199303550E+02  0.23716470996E+02  0.00000000000E+00 0. -1.
         -2    1    1    2    0  503  0.35896627553E+02  0.32622515998E+02 -0.63050287993E+03  0.63236593679E+03  0.00000000000E+00 0.  1.
<mgrwt>
<rscale>  2 0.81278592E+02</rscale>
<asrwt>0</asrwt>
<pdfrwt beam="1">  1       21 0.33812453E-02 0.81278592E+02</pdfrwt>
<pdfrwt beam="2">  1       21 0.20738898E+00 0.81278592E+02</pdfrwt>
<totfact> 0.68487631E+04</totfact>
</mgrwt>
</event>
<event>
 5    1  0.1708429E+000  0.1167684E+03  0.7546771E-02  0.1248525E+00
         21   -1    0    0  503  502  0.00000000000E+00  0.00000000000E+00  0.16541672818E+02  0.16541672818E+02  0.00000000000E+00 0.  1.
         21   -1    0    0  501  503 -0.00000000000E+00 -0.00000000000E+00 -0.89606430510E+03  0.89606430510E+03  0.00000000000E+00 0.  1.
         24    1    1    2    0    0 -0.82300290165E+02  0.59058760131E+02 -0.35484327636E+03  0.37768007843E+03  0.80419002446E+02 0.  1.
          1    1    1    2  501    0  0.29622023272E+02 -0.76542543654E+01 -0.15455565164E+03  0.15755475660E+03  0.00000000000E+00 0. -1.
         -2    1    1    2    0  502  0.52678266892E+02 -0.51404505766E+02 -0.37012370428E+03  0.37737114289E+03  0.00000000000E+00 0.  1.
<mgrwt>
<rscale>  2 0.11676839E+03</rscale>
<asrwt>0</asrwt>
<pdfrwt beam="1">  1       21 0.25448732E-02 0.11676839E+03</pdfrwt>
<pdfrwt beam="2">  1       21 0.13785602E+00 0.11676839E+03</pdfrwt>
<totfact> 0.31645648E+05</totfact>
</mgrwt>
</event>
<event>
 5    1  0.1708429E+000  0.8682903E+02  0.7546771E-02  0.1310718E+00
         21   -1    0    0  503  502  0.00000000000E+00  0.00000000000E+00  0.33077201141E+02  0.33077201141E+02  0.00000000000E+00 0.  1.
         21   -1    0    0  501  503 -0.00000000000E+00 -0.00000000000E+00 -0.82573224796E+03  0.82573224796E+03  0.00000000000E+00 0.  1.
         24    1    1    2    0    0  0.45992431896E+02  0.98820900833E+01 -0.53092587359E+03  0.53903845753E+03  0.80419002446E+02 0.  1.
          1    1    1    2  501    0  0.93442454916E+01 -0.21947469933E+02 -0.26204989171E+03  0.26313333522E+03  0.00000000000E+00 0. -1.
         -2    1    1    2    0  502 -0.55336677388E+02  0.12065379849E+02  0.32071848851E+00  0.56637656339E+02  0.00000000000E+00 0.  1.
<mgrwt>
<rscale>  2 0.86829031E+02</rscale>
<asrwt>0</asrwt>
<pdfrwt beam="1">  1       21 0.50888003E-02 0.86829031E+02</pdfrwt>
<pdfrwt beam="2">  1       21 0.12703573E+00 0.86829031E+02</pdfrwt>
<totfact> 0.12566667E+05</totfact>
</mgrwt>
</event>
<event>
 5    1  0.1708429E+000  0.7440495E+02  0.7546771E-02  0.1345724E+00
         21   -1    0    0  503  502  0.00000000000E+00  0.00000000000E+00  0.72656791567E+02  0.72656791567E+02  0.00000000000E+00 0. -1.
         21   -1    0    0  501  503 -0.00000000000E+00 -0.00000000000E+00 -0.10684506397E+03  0.10684506397E+03  0.00000000000E+00 0. -1.
         24    1    1    2    0    0  0.87325619908E+00  0.18288425193E+02  0.10053527018E+02  0.83087414404E+02  0.80419002446E+02 0. -1.
          1    1    1    2  501    0  0.31194651909E+02 -0.48771709548E+01 -0.51967205526E+02  0.60806936729E+02  0.00000000000E+00 0. -1.
         -2    1    1    2    0  502 -0.32067908108E+02 -0.13411254238E+02  0.77254061019E+01  0.35607504407E+02  0.00000000000E+00 0.  1.
<mgrwt>
<rscale>  2 0.74404951E+02</rscale>
<asrwt>0</asrwt>
<pdfrwt beam="1">  1       21 0.11177968E-01 0.74404951E+02</pdfrwt>
<pdfrwt beam="2">  1       21 0.16437702E-01 0.74404951E+02</pdfrwt>
<totfact> 0.21488838E+06</totfact>
</mgrwt>
</event>
<event>
 5    1  0.1708429E+000  0.8147190E+02  0.7546771E-02  0.1324926E+00
         21   -1    0    0  503  502  0.00000000000E+00  0.00000000000E+00  0.46919833098E+02  0.46919833098E+02  0.00000000000E+00 0. -1.
         21   -1    0    0  501  503 -0.00000000000E+00 -0.00000000000E+00 -0.17079642971E+03  0.17079642971E+03  0.00000000000E+00 0.  1.
         24    1    1    2    0    0  0.19277948619E+02  0.11787789131E+02 -0.60557558065E+02  0.10317473077E+03  0.80419002446E+02 0.  1.
          1    1    1    2  501    0  0.21720355120E+02  0.18424902405E+02 -0.56349390455E+02  0.63138773031E+02  0.00000000000E+00 0. -1.
         -2    1    1    2    0  502 -0.40998303740E+02 -0.30212691536E+02 -0.69696480918E+01  0.51402759011E+02  0.00000000000E+00 0.  1.
<mgrwt>
<rscale>  2 0.81471900E+02</rscale>
<asrwt>0</asrwt>
<pdfrwt beam="1">  1       21 0.72184358E-02 0.81471900E+02</pdfrwt>
<pdfrwt beam="2">  1       21 0.26276374E-01 0.81471900E+02</pdfrwt>
<totfact> 0.19346332E+06</totfact>
</mgrwt>
</event>
<event>
 5    1  0.1708429E+000  0.7460068E+02  0.7546771E-02  0.1345112E+00
         21   -1    0    0  501  502  0.00000000000E+00  0.00000000000E+00  0.15543539654E+03  0.15543539654E+03  0.00000000000E+00 0.  1.
         21   -1    0    0  502  503 -0.00000000000E+00 -0.00000000000E+00 -0.41499261491E+02  0.41499261491E+02  0.00000000000E+00 0. -1.
         24    1    1    2    0    0  0.34111102802E+02  0.33380759419E+02  0.95941321557E+02  0.13397684714E+03  0.80419002446E+02 0.  1.
          1    1    1    2  501    0 -0.32970904376E+02 -0.13266590222E+02  0.22827891173E+02  0.42239739191E+02  0.00000000000E+00 0. -1.
         -2    1    1    2    0  503 -0.11401984261E+01 -0.20114169196E+02 -0.48330776823E+01  0.20718071696E+02  0.00000000000E+00 0.  1.
<mgrwt>
<rscale>  2 0.74600678E+02</rscale>
<asrwt>0</asrwt>
<pdfrwt beam="1">  1       21 0.23913137E-01 0.74600678E+02</pdfrwt>
<pdfrwt beam="2">  1       21 0.63845019E-02 0.74600678E+02</pdfrwt>
<totfact> 0.28242381E+06</totfact>
</mgrwt>
</event>
<event>
 5    1  0.1708429E+000  0.7918450E+02  0.7546771E-02  0.1331382E+00
         21   -1    0    0  503  502  0.00000000000E+00  0.00000000000E+00  0.59879383356E+01  0.59879383356E+01  0.00000000000E+00 0.  1.
         21   -1    0    0  501  503 -0.00000000000E+00 -0.00000000000E+00 -0.11003091975E+04  0.11003091975E+04  0.00000000000E+00 0. -1.
         24    1    1    2    0    0 -0.24494200298E+02 -0.14892567724E+02 -0.68770648861E+03  0.69298570321E+03  0.80419002446E+02 0. -1.
          1    1    1    2  501    0 -0.23305045969E+02  0.14986949737E+01 -0.16552102086E+03  0.16716034099E+03  0.00000000000E+00 0. -1.
         -2    1    1    2    0  502  0.47799246267E+02  0.13393872751E+02 -0.24109374972E+03  0.24615109165E+03  0.00000000000E+00 0.  1.
<mgrwt>
<rscale>  2 0.79184498E+02</rscale>
<asrwt>0</asrwt>
<pdfrwt beam="1">  1       21 0.92122238E-03 0.79184498E+02</pdfrwt>
<pdfrwt beam="2">  1       21 0.16927814E+00 0.79184498E+02</pdfrwt>
<totfact> 0.94522156E+05</totfact>
</mgrwt>
</event>
<event>
 5    1  0.1708429E+000  0.1485607E+03  0.7546771E-02  0.1202253E+00
         21   -1    0    0  503  502  0.00000000000E+00  0.00000000000E+00  0.42847777744E+03  0.42847777744E+03  0.00000000000E+00 0.  1.
         21   -1    0    0  501  503 -0.00000000000E+00 -0.00000000000E+00 -0.14288019193E+03  0.14288019193E+03  0.00000000000E+00 0. -1.
         24    1    1    2    0    0 -0.12252601129E+03  0.26183956698E+00  0.65303822293E+00  0.14656170856E+03  0.80419002446E+02 0. -1.
          1    1    1    2  501    0  0.10383657619E+02 -0.32303288708E+02 -0.55431973877E+02  0.64992511374E+02  0.00000000000E+00 0. -1.
         -2    1    1    2    0  502  0.11214235367E+03  0.32041449141E+02  0.34037652116E+03  0.35980374943E+03  0.00000000000E+00 0.  1.
<mgrwt>
<rscale>  2 0.14856071E+03</rscale>
<asrwt>0</asrwt>
<pdfrwt beam="1">  1       21 0.65919657E-01 0.14856071E+03</pdfrwt>
<pdfrwt beam="2">  1       21 0.21981568E-01 0.14856071E+03</pdfrwt>
<totfact> 0.41818654E+04</totfact>
</mgrwt>
</event>
<event>
 5    1  0.1708429E+000  0.1083295E+03  0.7546771E-02  0.1263695E+00
         21   -1    0    0  503  502  0.00000000000E+00  0.00000000000E+00  0.26624104400E+02  0.26624104400E+02  0.00000000000E+00 0. -1.
         21   -1    0    0  501  503 -0.00000000000E+00 -0.00000000000E+00 -0.69451340517E+03  0.69451340517E+03  0.00000000000E+00 0.  1.
         24    1    1    2    0    0 -0.67338166261E+02  0.51845532621E+02 -0.24012077540E+03  0.26710969773E+03  0.80419002446E+02 0. -1.
          1    1    1    2  501    0  0.96885877692E+01 -0.39537949052E+02 -0.36741255023E+03  0.36966079075E+03  0.00000000000E+00 0. -1.
         -2    1    1    2    0  502  0.57649578491E+02 -0.12307583570E+02 -0.60355975143E+02  0.84367021099E+02  0.00000000000E+00 0.  1.
<mgrwt>
<rscale>  2 0.10832950E+03</rscale>
<asrwt>0</asrwt>
<pdfrwt beam="1">  1       21 0.40960165E-02 0.10832950E+03</pdfrwt>
<pdfrwt beam="2">  1       21 0.10684820E+00 0.10832950E+03</pdfrwt>
<totfact> 0.27026576E+05</totfact>
</mgrwt>
</event>
<event>
 5    1  0.1708429E+000  0.6585850E+02  0.7546771E-02  0.1374771E+00
         21   -1    0    0  501  502  0.00000000000E+00  0.00000000000E+00  0.17014581621E+03  0.17014581621E+03  0.00000000000E+00 0.  1.
         21   -1    0    0  502  503 -0.00000000000E+00 -0.00000000000E+00 -0.44881912507E+02  0.44881912507E+02  0.00000000000E+00 0. -1.
         24    1    1    2    0    0  0.77608507826E+01  0.46770730431E+01  0.73887390351E+02  0.10958406921E+03  0.80419002446E+02 0.  1.
          1    1    1    2  501    0  0.21355456844E+02 -0.35698512850E+01  0.68367532245E+02  0.71714146725E+02  0.00000000000E+00 0. -1.
         -2    1    1    2    0  503 -0.29116307626E+02 -0.11072217582E+01 -0.16991018891E+02  0.33729512786E+02  0.00000000000E+00 0.  1.
<mgrwt>
<rscale>  2 0.65858504E+02</rscale>
<asrwt>0</asrwt>
<pdfrwt beam="1">  1       21 0.26176279E-01 0.65858504E+02</pdfrwt>
<pdfrwt beam="2">  1       21 0.69049097E-02 0.65858504E+02</pdfrwt>
<totfact> 0.20791301E+06</totfact>
</mgrwt>
</event>
<event>
 5    1  0.2326097E+000  0.7652488E+02  0.7546771E-02  0.1339213E+00
         21   -1    0    0  501  502  0.00000000000E+00  0.00000000000E+00  0.83137968537E+02  0.83137968537E+02  0.00000000000E+00 0.  1.
         21   -1    0    0  502  503 -0.00000000000E+00 -0.00000000000E+00 -0.77492914718E+03  0.77492914718E+03  0.00000000000E+00 0.  1.
         24    1    1    2    0    0  0.13415105425E+02 -0.11818656036E+02 -0.11886920006E+01  0.82390986322E+02  0.80419002446E+02 0.  1.
          1    1    1    2  501    0  0.26712161253E+02  0.14603769980E+02  0.36461682955E+02  0.47500147161E+02  0.00000000000E+00 0. -1.
         -2    1    1    2    0  503 -0.40127266678E+02 -0.27851139439E+01 -0.72706416960E+03  0.72817598224E+03  0.00000000000E+00 0.  1.
<mgrwt>
<rscale>  2 0.76524882E+02</rscale>
<asrwt>0</asrwt>
<pdfrwt beam="1">  1       21 0.12790456E-01 0.76524882E+02</pdfrwt>
<pdfrwt beam="2">  1       21 0.11921987E+00 0.76524882E+02</pdfrwt>
<totfact> 0.30680061E+04</totfact>
</mgrwt>
</event>
<event>
 5    1  0.1708429E+000  0.7346667E+02  0.7546771E-02  0.1348686E+00
         21   -1    0    0  503  502  0.00000000000E+00  0.00000000000E+00  0.11212438614E+03  0.11212438614E+03  0.00000000000E+00 0.  1.
         21   -1    0    0  501  503 -0.00000000000E+00 -0.00000000000E+00 -0.84827516461E+02  0.84827516461E+02  0.00000000000E+00 0.  1.
         24    1    1    2    0    0 -0.25519241866E+02  0.19892904452E+02 -0.23504481973E+02  0.89814453069E+02  0.80419002446E+02 0.  1.
          1    1    1    2  501    0 -0.11427535940E+02 -0.20305118938E+02 -0.17730917306E+02  0.29279205270E+02  0.00000000000E+00 0. -1.
         -2    1    1    2    0  502  0.36946777806E+02  0.41221448610E+00  0.68532268963E+02  0.77858244267E+02  0.00000000000E+00 0.  1.
<mgrwt>
<rscale>  2 0.73466672E+02</rscale>
<asrwt>0</asrwt>
<pdfrwt beam="1">  1       21 0.17249906E-01 0.73466672E+02</pdfrwt>
<pdfrwt beam="2">  1       21 0.13050387E-01 0.73466672E+02</pdfrwt>
<totfact> 0.15032211E+06</totfact>
</mgrwt>
</event>
<event>
 5    1  0.1708429E+000  0.9594119E+02  0.7546771E-02  0.1289070E+00
         21   -1    0    0  501  502  0.00000000000E+00  0.00000000000E+00  0.90365902299E+02  0.90365902299E+02  0.00000000000E+00 0.  1.
         21   -1    0    0  502  503 -0.00000000000E+00 -0.00000000000E+00 -0.13435520938E+03  0.13435520938E+03  0.00000000000E+00 0. -1.
         24    1    1    2    0    0  0.58318351784E+02  0.74236292286E+01  0.11672155416E+02  0.10029753532E+03  0.80419002446E+02 0.  0.
          1    1    1    2  501    0 -0.46808207145E+01  0.27738616677E+02  0.12543341410E+02  0.30800590115E+02  0.00000000000E+00 0. -1.
         -2    1    1    2    0  503 -0.53637531070E+02 -0.35162245906E+02 -0.68204803907E+02  0.93622986240E+02  0.00000000000E+00 0.  1.
<mgrwt>
<rscale>  2 0.95941187E+02</rscale>
<asrwt>0</asrwt>
<pdfrwt beam="1">  1       21 0.13902446E-01 0.95941187E+02</pdfrwt>
<pdfrwt beam="2">  1       21 0.20670032E-01 0.95941187E+02</pdfrwt>
<totfact> 0.97485910E+05</totfact>
</mgrwt>
</event>
<event>
 5    1  0.1708429E+000  0.8555373E+02  0.7546771E-02  0.1313991E+00
         21   -1    0    0  503  502  0.00000000000E+00  0.00000000000E+00  0.68589271130E+02  0.68589271130E+02  0.00000000000E+00 0. -1.
         21   -1    0    0  501  503 -0.00000000000E+00 -0.00000000000E+00 -0.13365635970E+03  0.13365635970E+03  0.00000000000E+00 0.  1.
         24    1    1    2    0    0  0.17148941775E+02 -0.62218057841E+02 -0.67180993830E+02  0.12306776512E+03  0.80419002446E+02 0.  1.
          1    1    1    2  501    0 -0.21221889148E+02  0.38801312441E+02 -0.18284615771E+02  0.47856426946E+02  0.00000000000E+00 0. -1.
         -2    1    1    2    0  502  0.40729473728E+01  0.23416745400E+02  0.20398521035E+02  0.31321438758E+02  0.00000000000E+00 0.  1.
<mgrwt>
<rscale>  2 0.85553734E+02</rscale>
<asrwt>0</asrwt>
<pdfrwt beam="1">  1       21 0.10552196E-01 0.85553734E+02</pdfrwt>
<pdfrwt beam="2">  1       21 0.20562517E-01 0.85553734E+02</pdfrwt>
<totfact> 0.15927371E+06</totfact>
</mgrwt>
</event>
<event>
 5    1  0.1708429E+000  0.7489323E+02  0.7546771E-02  0.1344202E+00
         21   -1    0    0  501  502  0.00000000000E+00  0.00000000000E+00  0.26790365449E+02  0.26790365449E+02  0.00000000000E+00 0. -1.
         21   -1    0    0  502  503 -0.00000000000E+00 -0.00000000000E+00 -0.33328157840E+03  0.33328157840E+03  0.00000000000E+00 0. -1.
         24    1    1    2    0    0  0.13681976358E+02 -0.42557487713E+01 -0.56020372302E+02  0.99049512577E+02  0.80419002446E+02 0. -1.
          1    1    1    2  501    0 -0.27866286500E+02  0.28596687756E+02 -0.95490777280E+02  0.10350260393E+03  0.00000000000E+00 0. -1.
         -2    1    1    2    0  503  0.14184310143E+02 -0.24340938985E+02 -0.15498006337E+03  0.15751982734E+03  0.00000000000E+00 0.  1.
<mgrwt>
<rscale>  2 0.74893233E+02</rscale>
<asrwt>0</asrwt>
<pdfrwt beam="1">  1       21 0.41215945E-02 0.74893233E+02</pdfrwt>
<pdfrwt beam="2">  1       21 0.51274092E-01 0.74893233E+02</pdfrwt>
<totfact> 0.13311539E+06</totfact>
</mgrwt>
</event>
<event>
 5    1  0.1708429E+000  0.8214888E+02  0.7546771E-02  0.1323062E+00
         21   -1    0    0  503  502  0.00000000000E+00  0.00000000000E+00  0.54733742837E+02  0.54733742837E+02  0.00000000000E+00 0. -1.
         21   -1    0    0  501  503 -0.00000000000E+00 -0.00000000000E+00 -0.15816874617E+03  0.15816874617E+03  0.00000000000E+00 0.  1.
         24    1    1    2    0    0  0.22416046773E+02  0.13011776484E+02 -0.28991329707E+01  0.84542334996E+02  0.80419002446E+02 0. -1.
          1    1    1    2  501    0 -0.48230327653E+02 -0.21255706417E+02 -0.66459690830E+02  0.84822520983E+02  0.00000000000E+00 0. -1.
         -2    1    1    2    0  502  0.25814280880E+02  0.82439299324E+01 -0.34076179531E+02  0.43537633026E+02  0.00000000000E+00 0.  1.
<mgrwt>
<rscale>  2 0.82148879E+02</rscale>
<asrwt>0</asrwt>
<pdfrwt beam="1">  1       21 0.84205760E-02 0.82148879E+02</pdfrwt>
<pdfrwt beam="2">  1       21 0.24333653E-01 0.82148879E+02</pdfrwt>
<totfact> 0.17189753E+06</totfact>
</mgrwt>
</event>
<event>
 5    1  0.1708429E+000  0.1885797E+03  0.7546771E-02  0.1159749E+00
         21   -1    0    0  503  502  0.00000000000E+00  0.00000000000E+00  0.60421879591E+02  0.60421879591E+02  0.00000000000E+00 0. -1.
         21   -1    0    0  501  503 -0.00000000000E+00 -0.00000000000E+00 -0.17423017072E+04  0.17423017072E+04  0.00000000000E+00 0. -1.
         24    1    1    2    0    0  0.14290231018E+03 -0.60636340760E+02 -0.11323445739E+03  0.20829568976E+03  0.80419002446E+02 0. -1.
          1    1    1    2  501    0 -0.14820496172E+03  0.89400884493E+02 -0.15502343941E+04  0.15598666307E+04  0.00000000000E+00 0. -1.
         -2    1    1    2    0  502  0.53026515366E+01 -0.28764543732E+02 -0.18410976070E+02  0.34561266315E+02  0.00000000000E+00 0.  1.
<mgrwt>
<rscale>  2 0.18857971E+03</rscale>
<asrwt>0</asrwt>
<pdfrwt beam="1">  1       21 0.92956741E-02 0.18857971E+03</pdfrwt>
<pdfrwt beam="2">  1       21 0.26804641E+00 0.18857971E+03</pdfrwt>
<totfact> 0.48370886E+03</totfact>
</mgrwt>
</event>
<event>
 5    1  0.1708429E+000  0.6691185E+02  0.7546771E-02  0.1370921E+00
         21   -1    0    0  501  502  0.00000000000E+00  0.00000000000E+00  0.27590550625E+02  0.27590550625E+02  0.00000000000E+00 0.  1.
         21   -1    0    0  502  503 -0.00000000000E+00 -0.00000000000E+00 -0.41814048547E+03  0.41814048547E+03  0.00000000000E+00 0.  1.
         24    1    1    2    0    0  0.79345040287E+01 -0.43437115594E+01 -0.50700762998E+02  0.95496636104E+02  0.80419002446E+02 0.  1.
          1    1    1    2  501    0 -0.16149725855E+02 -0.20864491698E+02 -0.33041798247E+02  0.42283579442E+02  0.00000000000E+00 0. -1.
         -2    1    1    2    0  503  0.82152218260E+01  0.25208203257E+02 -0.30680737360E+03  0.30795082055E+03  0.00000000000E+00 0.  1.
<mgrwt>
<rscale>  2 0.66911849E+02</rscale>
<asrwt>0</asrwt>
<pdfrwt beam="1">  1       21 0.42447004E-02 0.66911849E+02</pdfrwt>
<pdfrwt beam="2">  1       21 0.64329300E-01 0.66911849E+02</pdfrwt>
<totfact> 0.79072803E+05</totfact>
</mgrwt>
</event>
<event>
 5    1  0.1708429E+000  0.7861103E+02  0.7546771E-02  0.1333040E+00
         21   -1    0    0  503  502  0.00000000000E+00  0.00000000000E+00  0.44107747968E+02  0.44107747968E+02  0.00000000000E+00 0.  1.
         21   -1    0    0  501  503 -0.00000000000E+00 -0.00000000000E+00 -0.35426748854E+03  0.35426748854E+03  0.00000000000E+00 0.  1.
         24    1    1    2    0    0 -0.69017666340E+01  0.24416911198E+02 -0.18418158214E+03  0.20256823810E+03  0.80419002446E+02 0.  1.
          1    1    1    2  501    0 -0.27894934047E+02  0.37251988825E+01 -0.14461579149E+03  0.14732865166E+03  0.00000000000E+00 0. -1.
         -2    1    1    2    0  502  0.34796700681E+02 -0.28142110081E+02  0.18637633049E+02  0.48478346751E+02  0.00000000000E+00 0.  1.
<mgrwt>
<rscale>  2 0.78611030E+02</rscale>
<asrwt>0</asrwt>
<pdfrwt beam="1">  1       21 0.67858072E-02 0.78611030E+02</pdfrwt>
<pdfrwt beam="2">  1       21 0.54502692E-01 0.78611030E+02</pdfrwt>
<totfact> 0.51324157E+05</totfact>
</mgrwt>
</event>
<event>
 5    1  0.1708429E+000  0.9694791E+02  0.7546771E-02  0.1286848E+00
         21   -1    0    0  501  502  0.00000000000E+00  0.00000000000E+00  0.16650690940E+03  0.16650690940E+03  0.00000000000E+00 0. -1.
         21   -1    0    0  502  503 -0.00000000000E+00 -0.00000000000E+00 -0.25545526303E+03  0.25545526303E+03  0.00000000000E+00 0.  1.
         24    1    1    2    0    0 -0.47286176572E+02  0.33393488223E+02 -0.10196136952E+02  0.99610665662E+02  0.80419002446E+02 0. -1.
          1    1    1    2  501    0  0.44296677633E+02 -0.56339614541E+02  0.11049092424E+03  0.13169886923E+03  0.00000000000E+00 0. -1.
         -2    1    1    2    0  503  0.29894989391E+01  0.22946126318E+02 -0.18924314092E+03  0.19065263754E+03  0.00000000000E+00 0.  1.
<mgrwt>
<rscale>  2 0.96947910E+02</rscale>
<asrwt>0</asrwt>
<pdfrwt beam="1">  1       21 0.25616448E-01 0.96947910E+02</pdfrwt>
<pdfrwt beam="2">  1       21 0.39300810E-01 0.96947910E+02</pdfrwt>
<totfact> 0.93956460E+04</totfact>
</mgrwt>
</event>
<event>
 5    1  0.1708429E+000  0.6884210E+02  0.7546771E-02  0.1364075E+00
         21   -1    0    0  503  502  0.00000000000E+00  0.00000000000E+00  0.32845453915E+03  0.32845453915E+03  0.00000000000E+00 0. -1.
         21   -1    0    0  501  503 -0.00000000000E+00 -0.00000000000E+00 -0.26535978461E+02  0.26535978461E+02  0.00000000000E+00 0. -1.
         24    1    1    2    0    0 -0.11315846251E+02 -0.60001121334E-01  0.16143247076E+03  0.18070891108E+03  0.80419002446E+02 0. -1.
          1    1    1    2  501    0 -0.13002007006E+02 -0.20736277531E+02 -0.52854291942E+01  0.25039591726E+02  0.00000000000E+00 0. -1.
         -2    1    1    2    0  502  0.24317853257E+02  0.20796278653E+02  0.14577151913E+03  0.14924201480E+03  0.00000000000E+00 0.  1.
<mgrwt>
<rscale>  2 0.68842104E+02</rscale>
<asrwt>0</asrwt>
<pdfrwt beam="1">  1       21 0.50531465E-01 0.68842104E+02</pdfrwt>
<pdfrwt beam="2">  1       21 0.40824585E-02 0.68842104E+02</pdfrwt>
<totfact> 0.13887951E+06</totfact>
</mgrwt>
</event>
<event>
 5    1  0.1708429E+000  0.8285271E+02  0.7546771E-02  0.1321145E+00
         21   -1    0    0  503  502  0.00000000000E+00  0.00000000000E+00  0.22164443149E+02  0.22164443149E+02  0.00000000000E+00 0.  1.
         21   -1    0    0  501  503 -0.00000000000E+00 -0.00000000000E+00 -0.32592150639E+03  0.32592150639E+03  0.00000000000E+00 0. -1.
         24    1    1    2    0    0 -0.14086190410E+02  0.30857891306E+02 -0.12147621881E+03  0.14958047301E+03  0.80419002446E+02 0.  1.
          1    1    1    2  501    0 -0.27162249657E+02 -0.24711678144E+02 -0.78753680371E+02  0.86894171353E+02  0.00000000000E+00 0. -1.
         -2    1    1    2    0  502  0.41248440067E+02 -0.61462131620E+01 -0.10352716406E+03  0.11161130517E+03  0.00000000000E+00 0.  1.
<mgrwt>
<rscale>  2 0.82852710E+02</rscale>
<asrwt>0</asrwt>
<pdfrwt beam="1">  1       21 0.34099146E-02 0.82852710E+02</pdfrwt>
<pdfrwt beam="2">  1       21 0.50141766E-01 0.82852710E+02</pdfrwt>
<totfact> 0.19056795E+06</totfact>
</mgrwt>
</event>
<event>
 5    1  0.1708429E+000  0.6970020E+02  0.7546771E-02  0.1361115E+00
         21   -1    0    0  503  502  0.00000000000E+00  0.00000000000E+00  0.12713473709E+03  0.12713473709E+03  0.00000000000E+00 0. -1.
         21   -1    0    0  501  503 -0.00000000000E+00 -0.00000000000E+00 -0.91039212256E+02  0.91039212256E+02  0.00000000000E+00 0. -1.
         24    1    1    2    0    0 -0.28241579379E+02  0.16747198221E+02  0.87815268545E+02  0.12351839053E+03  0.80419002446E+02 0. -1.
          1    1    1    2  501    0  0.19675663362E+02  0.11656722304E+02 -0.59702603320E+02  0.63932869064E+02  0.00000000000E+00 0. -1.
         -2    1    1    2    0  502  0.85659160176E+01 -0.28403920525E+02  0.79828596108E+01  0.30722689758E+02  0.00000000000E+00 0.  1.
<mgrwt>
<rscale>  2 0.69700202E+02</rscale>
<asrwt>0</asrwt>
<pdfrwt beam="1">  1       21 0.19559190E-01 0.69700202E+02</pdfrwt>
<pdfrwt beam="2">  1       21 0.14006033E-01 0.69700202E+02</pdfrwt>
<totfact> 0.10562860E+06</totfact>
</mgrwt>
</event>
<event>
 5    1  0.1708429E+000  0.7407591E+02  0.7546771E-02  0.1346757E+00
         21   -1    0    0  501  502  0.00000000000E+00  0.00000000000E+00  0.59539388007E+02  0.59539388007E+02  0.00000000000E+00 0.  1.
         21   -1    0    0  502  503 -0.00000000000E+00 -0.00000000000E+00 -0.14469938305E+03  0.14469938305E+03  0.00000000000E+00 0. -1.
         24    1    1    2    0    0  0.20139607170E+02 -0.40583616369E+01 -0.40696944376E+02  0.92442042989E+02  0.80419002446E+02 0.  0.
          1    1    1    2  501    0 -0.18910460367E+01 -0.28106020620E+02  0.21997152815E+02  0.35740721623E+02  0.00000000000E+00 0. -1.
         -2    1    1    2    0  503 -0.18248561133E+02  0.32164382257E+02 -0.66460203477E+02  0.76056006440E+02  0.00000000000E+00 0.  1.
<mgrwt>
<rscale>  2 0.74075907E+02</rscale>
<asrwt>0</asrwt>
<pdfrwt beam="1">  1       21 0.91599059E-02 0.74075907E+02</pdfrwt>
<pdfrwt beam="2">  1       21 0.22261443E-01 0.74075907E+02</pdfrwt>
<totfact> 0.17476958E+06</totfact>
</mgrwt>
</event>
<event>
 5    1  0.1708429E+000  0.9180351E+02  0.7546771E-02  0.1298542E+00
         21   -1    0    0  501  502  0.00000000000E+00  0.00000000000E+00  0.25004237166E+03  0.25004237166E+03  0.00000000000E+00 0. -1.
         21   -1    0    0  502  503 -0.00000000000E+00 -0.00000000000E+00 -0.96356284407E+02  0.96356284407E+02  0.00000000000E+00 0.  1.
         24    1    1    2    0    0  0.42179537960E+02 -0.32260246236E+02  0.59101164467E+02  0.11304866432E+03  0.80419002446E+02 0.  1.
          1    1    1    2  501    0 -0.40102800345E+02 -0.12825754369E+02  0.15347958324E+03  0.15914998285E+03  0.00000000000E+00 0. -1.
         -2    1    1    2    0  503 -0.20767376141E+01  0.45086000605E+02 -0.58894660452E+02  0.74200008891E+02  0.00000000000E+00 0.  1.
<mgrwt>
<rscale>  2 0.91803508E+02</rscale>
<asrwt>0</asrwt>
<pdfrwt beam="1">  1       21 0.38468057E-01 0.91803508E+02</pdfrwt>
<pdfrwt beam="2">  1       21 0.14824044E-01 0.91803508E+02</pdfrwt>
<totfact> 0.26715181E+05</totfact>
</mgrwt>
</event>
<event>
 5    1  0.1708429E+000  0.6400432E+02  0.7546771E-02  0.1381756E+00
         21   -1    0    0  503  502  0.00000000000E+00  0.00000000000E+00  0.89055681250E+02  0.89055681250E+02  0.00000000000E+00 0. -1.
         21   -1    0    0  501  503 -0.00000000000E+00 -0.00000000000E+00 -0.54905530683E+02  0.54905530683E+02  0.00000000000E+00 0. -1.
         24    1    1    2    0    0  0.32676879024E+02 -0.12070594670E+02  0.28186395230E+02  0.92060667545E+02  0.80419002446E+02 0. -1.
          1    1    1    2  501    0 -0.12816903318E+02  0.15608429273E+02 -0.13158600730E+02  0.24104871877E+02  0.00000000000E+00 0. -1.
         -2    1    1    2    0  502 -0.19859975706E+02 -0.35378346024E+01  0.19122356068E+02  0.27795672511E+02  0.00000000000E+00 0.  1.
<mgrwt>
<rscale>  2 0.64004316E+02</rscale>
<asrwt>0</asrwt>
<pdfrwt beam="1">  1       21 0.13700874E-01 0.64004316E+02</pdfrwt>
<pdfrwt beam="2">  1       21 0.84470047E-02 0.64004316E+02</pdfrwt>
<totfact> 0.47519980E+06</totfact>
</mgrwt>
</event>
<event>
 5    1  0.1708429E+000  0.7369239E+02  0.7546771E-02  0.1347969E+00
         21   -1    0    0  503  502  0.00000000000E+00  0.00000000000E+00  0.40695872728E+03  0.40695872728E+03  0.00000000000E+00 0. -1.
         21   -1    0    0  501  503 -0.00000000000E+00 -0.00000000000E+00 -0.27975815226E+02  0.27975815226E+02  0.00000000000E+00 0.  1.
         24    1    1    2    0    0 -0.42591481390E+00 -0.33990252623E+02  0.11456112386E+03  0.14403813985E+03  0.80419002446E+02 0.  1.
          1    1    1    2  501    0  0.22835774215E+02  0.49004063978E+01 -0.57968843469E+00  0.23362846692E+02  0.00000000000E+00 0. -1.
         -2    1    1    2    0  502 -0.22409859402E+02  0.29089846226E+02  0.26500147662E+03  0.26753355596E+03  0.00000000000E+00 0.  1.
<mgrwt>
<rscale>  2 0.73692390E+02</rscale>
<asrwt>0</asrwt>
<pdfrwt beam="1">  1       21 0.62609031E-01 0.73692390E+02</pdfrwt>
<pdfrwt beam="2">  1       21 0.43039719E-02 0.73692390E+02</pdfrwt>
<totfact> 0.81972537E+05</totfact>
</mgrwt>
</event>
<event>
 5    1  0.1708429E+000  0.1079256E+03  0.7546771E-02  0.1264460E+00
         21   -1    0    0  503  502  0.00000000000E+00  0.00000000000E+00  0.44730894181E+02  0.44730894181E+02  0.00000000000E+00 0.  1.
         21   -1    0    0  501  503 -0.00000000000E+00 -0.00000000000E+00 -0.28721610419E+03  0.28721610419E+03  0.00000000000E+00 0.  1.
         24    1    1    2    0    0 -0.75042071792E+01  0.92228837426E+02 -0.15231411784E+03  0.19552308821E+03  0.80419002446E+02 0.  1.
          1    1    1    2  501    0 -0.31222185221E+01 -0.24490322210E+02 -0.52910137505E+02  0.58386700380E+02  0.00000000000E+00 0. -1.
         -2    1    1    2    0  502  0.10626425701E+02 -0.67738515216E+02 -0.37260954667E+02  0.78037209776E+02  0.00000000000E+00 0.  1.
<mgrwt>
<rscale>  2 0.10792556E+03</rscale>
<asrwt>0</asrwt>
<pdfrwt beam="1">  1       21 0.68816761E-02 0.10792556E+03</pdfrwt>
<pdfrwt beam="2">  1       21 0.44187092E-01 0.10792556E+03</pdfrwt>
<totfact> 0.76939865E+05</totfact>
</mgrwt>
</event>
<event>
 5    1  0.1708429E+000  0.8719203E+02  0.7546771E-02  0.1309798E+00
         21   -1    0    0  501  502  0.00000000000E+00  0.00000000000E+00  0.39244308146E+03  0.39244308146E+03  0.00000000000E+00 0. -1.
         21   -1    0    0  502  503 -0.00000000000E+00 -0.00000000000E+00 -0.31175597805E+02  0.31175597805E+02  0.00000000000E+00 0. -1.
         24    1    1    2    0    0  0.27143278872E+02 -0.37595187103E+02  0.13947147541E+03  0.16754003727E+03  0.80419002446E+02 0. -1.
          1    1    1    2  501    0 -0.19370602327E+02  0.57239405354E+02  0.22651091221E+03  0.23443285416E+03  0.00000000000E+00 0. -1.
         -2    1    1    2    0  503 -0.77726765451E+01 -0.19644218251E+02 -0.47149039693E+01  0.21645787831E+02  0.00000000000E+00 0.  1.
<mgrwt>
<rscale>  2 0.87192032E+02</rscale>
<asrwt>0</asrwt>
<pdfrwt beam="1">  1       21 0.60375855E-01 0.87192032E+02</pdfrwt>
<pdfrwt beam="2">  1       21 0.47962461E-02 0.87192032E+02</pdfrwt>
<totfact> 0.74135969E+05</totfact>
</mgrwt>
</event>
<event>
 5    1  0.1708429E+000  0.6893424E+02  0.7546771E-02  0.1363755E+00
         21   -1    0    0  501  502  0.00000000000E+00  0.00000000000E+00  0.44146187236E+01  0.44146187236E+01  0.00000000000E+00 0. -1.
         21   -1    0    0  502  503 -0.00000000000E+00 -0.00000000000E+00 -0.17004424967E+04  0.17004424967E+04  0.00000000000E+00 0. -1.
         24    1    1    2    0    0  0.39592075765E+02  0.99312357049E+01 -0.14241792485E+04  0.14270318531E+04  0.80419002446E+02 0. -1.
          1    1    1    2  501    0 -0.14785772217E+02 -0.16365976456E+02 -0.51947519781E+02  0.56435884478E+02  0.00000000000E+00 0. -1.
         -2    1    1    2    0  503 -0.24806303548E+02  0.64347407516E+01 -0.21990110968E+03  0.22138937784E+03  0.00000000000E+00 0.  1.
<mgrwt>
<rscale>  2 0.68934239E+02</rscale>
<asrwt>0</asrwt>
<pdfrwt beam="1">  1       21 0.67917124E-03 0.68934239E+02</pdfrwt>
<pdfrwt beam="2">  1       21 0.26160687E+00 0.68934239E+02</pdfrwt>
<totfact> 0.43135294E+05</totfact>
</mgrwt>
</event>
<event>
 5    1  0.1708429E+000  0.6483113E+02  0.7546771E-02  0.1378608E+00
         21   -1    0    0  501  502  0.00000000000E+00  0.00000000000E+00  0.11657025137E+03  0.11657025137E+03  0.00000000000E+00 0.  1.
         21   -1    0    0  502  503 -0.00000000000E+00 -0.00000000000E+00 -0.11021152376E+03  0.11021152376E+03  0.00000000000E+00 0.  1.
         24    1    1    2    0    0 -0.85193896175E+01 -0.15227577827E+02  0.56726465557E+02  0.99947821262E+02  0.80419002446E+02 0.  1.
          1    1    1    2  501    0  0.26173697042E+02  0.40720182189E+01  0.32183369522E+02  0.41682286682E+02  0.00000000000E+00 0. -1.
         -2    1    1    2    0  503 -0.17654307425E+02  0.11155559609E+02 -0.82551107466E+02  0.85151667186E+02  0.00000000000E+00 0.  1.
<mgrwt>
<rscale>  2 0.64831130E+02</rscale>
<asrwt>0</asrwt>
<pdfrwt beam="1">  1       21 0.17933885E-01 0.64831130E+02</pdfrwt>
<pdfrwt beam="2">  1       21 0.16955619E-01 0.64831130E+02</pdfrwt>
<totfact> 0.87825470E+05</totfact>
</mgrwt>
</event>
<event>
 5    1  0.1708429E+000  0.1117308E+03  0.7546771E-02  0.1257398E+00
         21   -1    0    0  501  502  0.00000000000E+00  0.00000000000E+00  0.34087744428E+02  0.34087744428E+02  0.00000000000E+00 0.  1.
         21   -1    0    0  502  503 -0.00000000000E+00 -0.00000000000E+00 -0.36717602148E+03  0.36717602148E+03  0.00000000000E+00 0.  1.
         24    1    1    2    0    0 -0.66659548913E+02  0.22471506260E+02 -0.15775142002E+03  0.19052871313E+03  0.80419002446E+02 0.  1.
          1    1    1    2  501    0 -0.22485217064E+02  0.55725865811E+01 -0.40966673813E+02  0.47062799225E+02  0.00000000000E+00 0. -1.
         -2    1    1    2    0  503  0.89144765977E+02 -0.28044092841E+02 -0.13437018323E+03  0.16367225356E+03  0.00000000000E+00 0.  1.
<mgrwt>
<rscale>  2 0.11173078E+03</rscale>
<asrwt>0</asrwt>
<pdfrwt beam="1">  1       21 0.52442686E-02 0.11173078E+03</pdfrwt>
<pdfrwt beam="2">  1       21 0.56488616E-01 0.11173078E+03</pdfrwt>
<totfact> 0.73525568E+05</totfact>
</mgrwt>
</event>
<event>
 5    1  0.1708429E+000  0.2051815E+03  0.7546771E-02  0.1145440E+00
         21   -1    0    0  503  502  0.00000000000E+00  0.00000000000E+00  0.59989329515E+03  0.59989329515E+03  0.00000000000E+00 0. -1.
         21   -1    0    0  501  503 -0.00000000000E+00 -0.00000000000E+00 -0.13158980778E+03  0.13158980778E+03  0.00000000000E+00 0. -1.
         24    1    1    2    0    0 -0.72111049523E+02 -0.17408238599E+03  0.48936747198E+01  0.20492887688E+03  0.80419002446E+02 0. -1.
          1    1    1    2  501    0  0.51777298987E+02  0.17747871343E+03  0.24375828238E+03  0.30593738353E+03  0.00000000000E+00 0. -1.
         -2    1    1    2    0  502  0.20333750536E+02 -0.33963274487E+01  0.21965153027E+03  0.22061684252E+03  0.00000000000E+00 0.  1.
<mgrwt>
<rscale>  2 0.20518154E+03</rscale>
<asrwt>0</asrwt>
<pdfrwt beam="1">  1       21 0.92291275E-01 0.20518154E+03</pdfrwt>
<pdfrwt beam="2">  1       21 0.20244586E-01 0.20518154E+03</pdfrwt>
<totfact> 0.22194543E+04</totfact>
</mgrwt>
</event>
<event>
 5    1  0.1708429E+000  0.7533290E+02  0.7546771E-02  0.1342843E+00
         21   -1    0    0  503  502  0.00000000000E+00  0.00000000000E+00  0.14185754845E+03  0.14185754845E+03  0.00000000000E+00 0. -1.
         21   -1    0    0  501  503 -0.00000000000E+00 -0.00000000000E+00 -0.93629899137E+02  0.93629899137E+02  0.00000000000E+00 0. -1.
         24    1    1    2    0    0 -0.16685028790E+02  0.80587296783E+01  0.11105655188E+03  0.13836223105E+03  0.80419002446E+02 0. -1.
          1    1    1    2  501    0 -0.25415464788E+02 -0.87318750399E+00 -0.43181723842E+02  0.50113566834E+02  0.00000000000E+00 0. -1.
         -2    1    1    2    0  502  0.42100493578E+02 -0.71855421743E+01 -0.19647178731E+02  0.47011649705E+02  0.00000000000E+00 0.  1.
<mgrwt>
<rscale>  2 0.75332902E+02</rscale>
<asrwt>0</asrwt>
<pdfrwt beam="1">  1       21 0.21824238E-01 0.75332902E+02</pdfrwt>
<pdfrwt beam="2">  1       21 0.14404600E-01 0.75332902E+02</pdfrwt>
<totfact> 0.82481249E+05</totfact>
</mgrwt>
</event>
<event>
 5    1  0.1708429E+000  0.1003099E+03  0.7546771E-02  0.1279646E+00
         21   -1    0    0  501  502  0.00000000000E+00  0.00000000000E+00  0.33875438460E+03  0.33875438460E+03  0.00000000000E+00 0. -1.
         21   -1    0    0  502  503 -0.00000000000E+00 -0.00000000000E+00 -0.98489493351E+02  0.98489493351E+02  0.00000000000E+00 0.  1.
         24    1    1    2    0    0  0.28000191343E+02 -0.17742216386E+02  0.13053171431E+03  0.15685834805E+03  0.80419002446E+02 0.  0.
          1    1    1    2  501    0  0.79845621079E+01  0.58629012325E+02  0.18115020494E+03  0.19056891422E+03  0.00000000000E+00 0. -1.
         -2    1    1    2    0  503 -0.35984753451E+02 -0.40886795939E+02 -0.71417028003E+02  0.89816615678E+02  0.00000000000E+00 0.  1.
<mgrwt>
<rscale>  2 0.10030992E+03</rscale>
<asrwt>0</asrwt>
<pdfrwt beam="1">  1       21 0.52116059E-01 0.10030992E+03</pdfrwt>
<pdfrwt beam="2">  1       21 0.15152230E-01 0.10030992E+03</pdfrwt>
<totfact> 0.13898582E+05</totfact>
</mgrwt>
</event>
<event>
 5    1  0.1708429E+000  0.1344273E+03  0.7546771E-02  0.1221030E+00
         21   -1    0    0  501  502  0.00000000000E+00  0.00000000000E+00  0.36500139231E+03  0.36500139231E+03  0.00000000000E+00 0. -1.
         21   -1    0    0  502  503 -0.00000000000E+00 -0.00000000000E+00 -0.71822175224E+02  0.71822175224E+02  0.00000000000E+00 0. -1.
         24    1    1    2    0    0 -0.99023799707E+02 -0.71492627633E+02  0.11840192386E+03  0.18815722214E+03  0.80419002446E+02 0. -1.
          1    1    1    2  501    0  0.70709465906E+02  0.56945232642E+02  0.19206518884E+03  0.21244205058E+03  0.00000000000E+00 0. -1.
         -2    1    1    2    0  503  0.28314333801E+02  0.14547394991E+02 -0.17287895622E+02  0.36224294812E+02  0.00000000000E+00 0.  1.
<mgrwt>
<rscale>  2 0.13442732E+03</rscale>
<asrwt>0</asrwt>
<pdfrwt beam="1">  1       21 0.56154059E-01 0.13442732E+03</pdfrwt>
<pdfrwt beam="2">  1       21 0.11049566E-01 0.13442732E+03</pdfrwt>
<totfact> 0.20626014E+05</totfact>
</mgrwt>
</event>
<event>
 5    1  0.1708429E+000  0.8000631E+02  0.7546771E-02  0.1329034E+00
         21   -1    0    0  503  502  0.00000000000E+00  0.00000000000E+00  0.58625990023E+01  0.58625990023E+01  0.00000000000E+00 0.  1.
         21   -1    0    0  501  503 -0.00000000000E+00 -0.00000000000E+00 -0.14292979110E+04  0.14292979110E+04  0.00000000000E+00 0.  1.
         24    1    1    2    0    0  0.20960856724E+02  0.46817240510E+02 -0.10855342050E+04  0.10897169072E+04  0.80419002446E+02 0.  1.
          1    1    1    2  501    0  0.10611157519E+01 -0.42089913171E+02 -0.28279608382E+03  0.28591311929E+03  0.00000000000E+00 0. -1.
         -2    1    1    2    0  502 -0.22021972476E+02 -0.47273273390E+01 -0.55105023196E+02  0.59530483593E+02  0.00000000000E+00 0.  1.
<mgrwt>
<rscale>  2 0.80006308E+02</rscale>
<asrwt>0</asrwt>
<pdfrwt beam="1">  1       21 0.90193857E-03 0.80006308E+02</pdfrwt>
<pdfrwt beam="2">  1       21 0.21989192E+00 0.80006308E+02</pdfrwt>
<totfact> 0.47202171E+05</totfact>
</mgrwt>
</event>
<event>
 5    1  0.1708429E+000  0.7691526E+02  0.7546771E-02  0.1338041E+00
         21   -1    0    0  503  502  0.00000000000E+00  0.00000000000E+00  0.10308572661E+02  0.10308572661E+02  0.00000000000E+00 0. -1.
         21   -1    0    0  501  503 -0.00000000000E+00 -0.00000000000E+00 -0.64873850531E+03  0.64873850531E+03  0.00000000000E+00 0.  1.
         24    1    1    2    0    0 -0.10519004462E+01 -0.11256280993E+02 -0.30071735226E+03  0.31148989110E+03  0.80419002446E+02 0. -1.
          1    1    1    2  501    0  0.30659853799E+02  0.25394028588E+02 -0.26247209196E+03  0.26547407102E+03  0.00000000000E+00 0. -1.
         -2    1    1    2    0  502 -0.29607953353E+02 -0.14137747595E+02 -0.75240488428E+02  0.82083115850E+02  0.00000000000E+00 0.  1.
<mgrwt>
<rscale>  2 0.76915262E+02</rscale>
<asrwt>0</asrwt>
<pdfrwt beam="1">  1       21 0.15859338E-02 0.76915262E+02</pdfrwt>
<pdfrwt beam="2">  1       21 0.99805952E-01 0.76915262E+02</pdfrwt>
<totfact> 0.14709559E+06</totfact>
</mgrwt>
</event>
<event>
 5    1  0.1708429E+000  0.8443750E+02  0.7546771E-02  0.1316910E+00
         21   -1    0    0  501  502  0.00000000000E+00  0.00000000000E+00  0.10747279212E+02  0.10747279212E+02  0.00000000000E+00 0. -1.
         21   -1    0    0  502  503 -0.00000000000E+00 -0.00000000000E+00 -0.97051002486E+03  0.97051002486E+03  0.00000000000E+00 0.  1.
         24    1    1    2    0    0 -0.14236080852E+02  0.30378484825E+02 -0.56976900796E+03  0.57639349122E+03  0.80419002446E+02 0. -1.
          1    1    1    2  501    0 -0.20048266770E+02 -0.41173441534E+02 -0.75358441507E+02  0.88182084318E+02  0.00000000000E+00 0. -1.
         -2    1    1    2    0  503  0.34284347622E+02  0.10794956709E+02 -0.31463529619E+03  0.31668172854E+03  0.00000000000E+00 0.  1.
<mgrwt>
<rscale>  2 0.84437503E+02</rscale>
<asrwt>0</asrwt>
<pdfrwt beam="1">  1       21 0.16534272E-02 0.84437503E+02</pdfrwt>
<pdfrwt beam="2">  1       21 0.14930926E+00 0.84437503E+02</pdfrwt>
<totfact> 0.52161057E+05</totfact>
</mgrwt>
</event>
<event>
 5    1  0.1708429E+000  0.8615731E+02  0.7546771E-02  0.1312433E+00
         21   -1    0    0  501  502  0.00000000000E+00  0.00000000000E+00  0.21458695081E+02  0.21458695081E+02  0.00000000000E+00 0. -1.
         21   -1    0    0  502  503 -0.00000000000E+00 -0.00000000000E+00 -0.35248733997E+03  0.35248733997E+03  0.00000000000E+00 0.  1.
         24    1    1    2    0    0 -0.10920134896E+02 -0.20405751043E+01 -0.17999075737E+03  0.19745202452E+03  0.80419002446E+02 0.  1.
          1    1    1    2  501    0  0.39007530921E+02  0.31714409011E+02 -0.77795814942E+02  0.92626022423E+02  0.00000000000E+00 0. -1.
         -2    1    1    2    0  503 -0.28087396024E+02 -0.29673833907E+02 -0.73242072572E+02  0.83867988105E+02  0.00000000000E+00 0.  1.
<mgrwt>
<rscale>  2 0.86157308E+02</rscale>
<asrwt>0</asrwt>
<pdfrwt beam="1">  1       21 0.33013379E-02 0.86157308E+02</pdfrwt>
<pdfrwt beam="2">  1       21 0.54228818E-01 0.86157308E+02</pdfrwt>
<totfact> 0.17130526E+06</totfact>
</mgrwt>
</event>
<event>
 5    1  0.1708429E+000  0.1539909E+03  0.7546771E-02  0.1195653E+00
         21   -1    0    0  503  502  0.00000000000E+00  0.00000000000E+00  0.44820365334E+03  0.44820365334E+03  0.00000000000E+00 0.  1.
         21   -1    0    0  501  503 -0.00000000000E+00 -0.00000000000E+00 -0.72192294451E+02  0.72192294451E+02  0.00000000000E+00 0. -1.
         24    1    1    2    0    0 -0.61936429193E+02  0.21191863191E+02  0.86083363974E+02  0.13476935050E+03  0.80419002446E+02 0. -1.
          1    1    1    2  501    0  0.32893569175E+02  0.86608028582E+02  0.21786313679E+02  0.95171324314E+02  0.00000000000E+00 0. -1.
         -2    1    1    2    0  502  0.29042860018E+02 -0.10779989177E+03  0.26814168124E+03  0.29045527298E+03  0.00000000000E+00 0.  1.
<mgrwt>
<rscale>  2 0.15399086E+03</rscale>
<asrwt>0</asrwt>
<pdfrwt beam="1">  1       21 0.68954407E-01 0.15399086E+03</pdfrwt>
<pdfrwt beam="2">  1       21 0.11106507E-01 0.15399086E+03</pdfrwt>
<totfact> 0.13084990E+05</totfact>
</mgrwt>
</event>
<event>
 5    1  0.1708429E+000  0.6919447E+02  0.7546771E-02  0.1362854E+00
         21   -1    0    0  501  502  0.00000000000E+00  0.00000000000E+00  0.28312567246E+03  0.28312567246E+03  0.00000000000E+00 0.  1.
         21   -1    0    0  502  503 -0.00000000000E+00 -0.00000000000E+00 -0.18353261732E+02  0.18353261732E+02  0.00000000000E+00 0.  1.
         24    1    1    2    0    0 -0.35435490748E+01 -0.38746332375E+02  0.20384843975E+03  0.22256513059E+03  0.80419002446E+02 0.  1.
          1    1    1    2  501    0 -0.13057804170E+02  0.21185476095E+02  0.39122527027E+02  0.46367043987E+02  0.00000000000E+00 0. -1.
         -2    1    1    2    0  503  0.16601353244E+02  0.17560856280E+02  0.21801443945E+02  0.32546759607E+02  0.00000000000E+00 0.  1.
<mgrwt>
<rscale>  2 0.69194469E+02</rscale>
<asrwt>0</asrwt>
<pdfrwt beam="1">  1       21 0.43557793E-01 0.69194469E+02</pdfrwt>
<pdfrwt beam="2">  1       21 0.28235789E-02 0.69194469E+02</pdfrwt>
<totfact> 0.34038425E+06</totfact>
</mgrwt>
</event>
<event>
 5    1  0.1708429E+000  0.1413702E+03  0.7546771E-02  0.1211497E+00
         21   -1    0    0  503  502  0.00000000000E+00  0.00000000000E+00  0.13994114021E+03  0.13994114021E+03  0.00000000000E+00 0.  1.
         21   -1    0    0  501  503 -0.00000000000E+00 -0.00000000000E+00 -0.16205367509E+03  0.16205367509E+03  0.00000000000E+00 0.  1.
         24    1    1    2    0    0  0.18196464056E+02 -0.12735826255E+03 -0.33225361641E+02  0.15531380799E+03  0.80419002446E+02 0.  1.
          1    1    1    2  501    0 -0.16366678456E+02  0.34915705128E+02 -0.26577880026E+02  0.46833303695E+02  0.00000000000E+00 0. -1.
         -2    1    1    2    0  502 -0.18297855996E+01  0.92442557419E+02  0.37690706794E+02  0.99847703610E+02  0.00000000000E+00 0.  1.
<mgrwt>
<rscale>  2 0.14137016E+03</rscale>
<asrwt>0</asrwt>
<pdfrwt beam="1">  1       21 0.21529406E-01 0.14137016E+03</pdfrwt>
<pdfrwt beam="2">  1       21 0.24931335E-01 0.14137016E+03</pdfrwt>
<totfact> 0.30942303E+05</totfact>
</mgrwt>
</event>
<event>
 5    1  0.1708429E+000  0.7508197E+02  0.7546771E-02  0.1343617E+00
         21   -1    0    0  501  502  0.00000000000E+00  0.00000000000E+00  0.16943174260E+03  0.16943174260E+03  0.00000000000E+00 0. -1.
         21   -1    0    0  502  503 -0.00000000000E+00 -0.00000000000E+00 -0.79014813650E+02  0.79014813650E+02  0.00000000000E+00 0.  1.
         24    1    1    2    0    0  0.79952509697E+01  0.42492191934E+02  0.21277500405E+02  0.93752111397E+02  0.80419002446E+02 0. -1.
          1    1    1    2  501    0 -0.24276176876E+02 -0.28034513443E+02  0.10576907854E+03  0.11208195520E+03  0.00000000000E+00 0. -1.
         -2    1    1    2    0  503  0.16280925907E+02 -0.14457678492E+02 -0.36629649991E+02  0.42612489651E+02  0.00000000000E+00 0.  1.
<mgrwt>
<rscale>  2 0.75081971E+02</rscale>
<asrwt>0</asrwt>
<pdfrwt beam="1">  1       21 0.26066422E-01 0.75081971E+02</pdfrwt>
<pdfrwt beam="2">  1       21 0.12156125E-01 0.75081971E+02</pdfrwt>
<totfact> 0.79992718E+05</totfact>
</mgrwt>
</event>
<event>
 5    1  0.1708429E+000  0.9919204E+02  0.7546771E-02  0.1282004E+00
         21   -1    0    0  503  502  0.00000000000E+00  0.00000000000E+00  0.32679345802E+02  0.32679345802E+02  0.00000000000E+00 0.  1.
         21   -1    0    0  501  503 -0.00000000000E+00 -0.00000000000E+00 -0.65661795837E+03  0.65661795837E+03  0.00000000000E+00 0. -1.
         24    1    1    2    0    0  0.46437333974E+02  0.82930124806E+01 -0.12213900858E+03  0.15365660876E+03  0.80419002446E+02 0. -1.
          1    1    1    2  501    0 -0.74236111252E+02 -0.16734199996E+02 -0.50082366975E+03  0.50657218819E+03  0.00000000000E+00 0. -1.
         -2    1    1    2    0  502  0.27798777278E+02  0.84411875158E+01 -0.97593423542E+00  0.29068507228E+02  0.00000000000E+00 0.  1.
<mgrwt>
<rscale>  2 0.99192044E+02</rscale>
<asrwt>0</asrwt>
<pdfrwt beam="1">  1       21 0.50275920E-02 0.99192044E+02</pdfrwt>
<pdfrwt beam="2">  1       21 0.10101814E+00 0.99192044E+02</pdfrwt>
<totfact> 0.21994160E+05</totfact>
</mgrwt>
</event>
<event>
 5    1  0.1708429E+000  0.6845331E+02  0.7546771E-02  0.1365433E+00
         21   -1    0    0  503  502  0.00000000000E+00  0.00000000000E+00  0.45469862575E+02  0.45469862575E+02  0.00000000000E+00 0. -1.
         21   -1    0    0  501  503 -0.00000000000E+00 -0.00000000000E+00 -0.12517133710E+03  0.12517133710E+03  0.00000000000E+00 0.  1.
         24    1    1    2    0    0  0.15697670816E+02  0.42209275851E+01 -0.70311121069E+02  0.10805138962E+03  0.80419002446E+02 0. -1.
          1    1    1    2  501    0  0.71203011907E+00 -0.26877124333E+02 -0.19097530463E+02  0.32978818492E+02  0.00000000000E+00 0. -1.
         -2    1    1    2    0  502 -0.16409700935E+02  0.22656196748E+02  0.97071770066E+01  0.29610991562E+02  0.00000000000E+00 0.  1.
<mgrwt>
<rscale>  2 0.68453311E+02</rscale>
<asrwt>0</asrwt>
<pdfrwt beam="1">  1       21 0.69953636E-02 0.68453311E+02</pdfrwt>
<pdfrwt beam="2">  1       21 0.19257128E-01 0.68453311E+02</pdfrwt>
<totfact> 0.35811307E+06</totfact>
</mgrwt>
</event>
<event>
 5    1  0.1708429E+000  0.7555507E+02  0.7546771E-02  0.1342161E+00
         21   -1    0    0  503  502  0.00000000000E+00  0.00000000000E+00  0.23131930347E+03  0.23131930347E+03  0.00000000000E+00 0. -1.
         21   -1    0    0  501  503 -0.00000000000E+00 -0.00000000000E+00 -0.30537394029E+02  0.30537394029E+02  0.00000000000E+00 0.  1.
         24    1    1    2    0    0 -0.17997282827E+02 -0.28256711339E+02  0.10773277963E+03  0.13854931139E+03  0.80419002446E+02 0.  0.
          1    1    1    2  501    0 -0.15506943487E+02  0.26174513327E+02  0.73934702735E+01  0.31308686445E+02  0.00000000000E+00 0. -1.
         -2    1    1    2    0  502  0.33504226314E+02  0.20821980120E+01  0.85655659541E+02  0.91998699669E+02  0.00000000000E+00 0.  1.
<mgrwt>
<rscale>  2 0.75555067E+02</rscale>
<asrwt>0</asrwt>
<pdfrwt beam="1">  1       21 0.35587584E-01 0.75555067E+02</pdfrwt>
<pdfrwt beam="2">  1       21 0.46980608E-02 0.75555067E+02</pdfrwt>
<totfact> 0.22174712E+06</totfact>
</mgrwt>
</event>
<event>
 5    1  0.1708429E+000  0.8428254E+02  0.7546771E-02  0.1317320E+00
         21   -1    0    0  503  502  0.00000000000E+00  0.00000000000E+00  0.24511187560E+02  0.24511187560E+02  0.00000000000E+00 0.  1.
         21   -1    0    0  501  503 -0.00000000000E+00 -0.00000000000E+00 -0.33728692464E+03  0.33728692464E+03  0.00000000000E+00 0.  1.
         24    1    1    2    0    0 -0.69579290039E+00 -0.23728597224E+02 -0.15302846473E+03  0.17449486361E+03  0.80419002446E+02 0.  1.
          1    1    1    2  501    0 -0.13368137457E+02 -0.28043716080E+02 -0.10941597269E+03  0.11374098729E+03  0.00000000000E+00 0. -1.
         -2    1    1    2    0  502  0.14063930358E+02  0.51772313304E+02 -0.50331299658E+02  0.73562261297E+02  0.00000000000E+00 0.  1.
<mgrwt>
<rscale>  2 0.84282535E+02</rscale>
<asrwt>0</asrwt>
<pdfrwt beam="1">  1       21 0.37709520E-02 0.84282535E+02</pdfrwt>
<pdfrwt beam="2">  1       21 0.51890295E-01 0.84282535E+02</pdfrwt>
<totfact> 0.15080925E+06</totfact>
</mgrwt>
</event>
<event>
 5    1  0.1708429E+000  0.8550391E+02  0.7546771E-02  0.1314120E+00
         21   -1    0    0  501  502  0.00000000000E+00  0.00000000000E+00  0.45686993442E+03  0.45686993442E+03  0.00000000000E+00 0.  1.
         21   -1    0    0  502  503 -0.00000000000E+00 -0.00000000000E+00 -0.16683017685E+02  0.16683017685E+02  0.00000000000E+00 0.  1.
         24    1    1    2    0    0  0.38771593038E+02 -0.21417237605E+02  0.28331557551E+03  0.29782019034E+03  0.80419002446E+02 0.  1.
          1    1    1    2  501    0  0.16644806323E+02  0.16703597224E+02  0.45624268604E+02  0.51357897381E+02  0.00000000000E+00 0. -1.
         -2    1    1    2    0  503 -0.55416399361E+02  0.47136403816E+01  0.11124707262E+03  0.12437486438E+03  0.00000000000E+00 0.  1.
<mgrwt>
<rscale>  2 0.85503915E+02</rscale>
<asrwt>0</asrwt>
<pdfrwt beam="1">  1       21 0.70287673E-01 0.85503915E+02</pdfrwt>
<pdfrwt beam="2">  1       21 0.25666185E-02 0.85503915E+02</pdfrwt>
<totfact> 0.14907899E+06</totfact>
</mgrwt>
</event>
<event>
 5    1  0.1708429E+000  0.7026883E+02  0.7546771E-02  0.1359181E+00
         21   -1    0    0  501  502  0.00000000000E+00  0.00000000000E+00  0.10416036176E+03  0.10416036176E+03  0.00000000000E+00 0.  1.
         21   -1    0    0  502  503 -0.00000000000E+00 -0.00000000000E+00 -0.20458722648E+03  0.20458722648E+03  0.00000000000E+00 0.  1.
         24    1    1    2    0    0  0.20686467446E+02  0.16848223533E+02 -0.81878183377E+02  0.11782633593E+03  0.80419002446E+02 0.  1.
          1    1    1    2  501    0  0.10732695673E+02 -0.21516305949E+02  0.82011524399E+02  0.85463631519E+02  0.00000000000E+00 0. -1.
         -2    1    1    2    0  503 -0.31419163120E+02  0.46680824157E+01 -0.10056020573E+03  0.10545762079E+03  0.00000000000E+00 0.  1.
<mgrwt>
<rscale>  2 0.70268833E+02</rscale>
<asrwt>0</asrwt>
<pdfrwt beam="1">  1       21 0.16024671E-01 0.70268833E+02</pdfrwt>
<pdfrwt beam="2">  1       21 0.31474958E-01 0.70268833E+02</pdfrwt>
<totfact> 0.34400613E+05</totfact>
</mgrwt>
</event>
<event>
 5    1  0.1708429E+000  0.6936128E+02  0.7546771E-02  0.1362279E+00
         21   -1    0    0  501  502  0.00000000000E+00  0.00000000000E+00  0.24331688338E+02  0.24331688338E+02  0.00000000000E+00 0. -1.
         21   -1    0    0  502  503 -0.00000000000E+00 -0.00000000000E+00 -0.26417401869E+03  0.26417401869E+03  0.00000000000E+00 0.  1.
         24    1    1    2    0    0 -0.10766111470E+02 -0.13070686973E+02 -0.18404117179E+03  0.20155674358E+03  0.80419002446E+02 0.  1.
          1    1    1    2  501    0 -0.20862220135E+02  0.13606401217E+02 -0.25849396303E+01  0.25040932409E+02  0.00000000000E+00 0. -1.
         -2    1    1    2    0  503  0.31628331605E+02 -0.53571424390E+00 -0.53216218929E+02  0.61908031038E+02  0.00000000000E+00 0.  1.
<mgrwt>
<rscale>  2 0.69361276E+02</rscale>
<asrwt>0</asrwt>
<pdfrwt beam="1">  1       21 0.37433369E-02 0.69361276E+02</pdfrwt>
<pdfrwt beam="2">  1       21 0.40642154E-01 0.69361276E+02</pdfrwt>
<totfact> 0.24726165E+06</totfact>
</mgrwt>
</event>
<event>
 5    1  0.1708429E+000  0.8716932E+02  0.7546771E-02  0.1309855E+00
         21   -1    0    0  501  502  0.00000000000E+00  0.00000000000E+00  0.39168817204E+03  0.39168817204E+03  0.00000000000E+00 0. -1.
         21   -1    0    0  502  503 -0.00000000000E+00 -0.00000000000E+00 -0.21608956757E+02  0.21608956757E+02  0.00000000000E+00 0.  1.
         24    1    1    2    0    0 -0.41570867641E+02  0.30527742640E+02  0.25197023034E+03  0.26947410458E+03  0.80419002446E+02 0. -1.
          1    1    1    2  501    0 -0.14076937483E+02 -0.15955425339E+02  0.52034100214E+02  0.56216397534E+02  0.00000000000E+00 0. -1.
         -2    1    1    2    0  503  0.55647805124E+02 -0.14572317301E+02  0.66074884728E+02  0.87606626681E+02  0.00000000000E+00 0.  1.
<mgrwt>
<rscale>  2 0.87169323E+02</rscale>
<asrwt>0</asrwt>
<pdfrwt beam="1">  1       21 0.60259713E-01 0.87169323E+02</pdfrwt>
<pdfrwt beam="2">  1       21 0.33244552E-02 0.87169323E+02</pdfrwt>
<totfact> 0.13602479E+06</totfact>
</mgrwt>
</event>
<event>
 5    1  0.1708429E+000  0.1165147E+03  0.7546771E-02  0.1248960E+00
         21   -1    0    0  501  502  0.00000000000E+00  0.00000000000E+00  0.43001552534E+03  0.43001552534E+03  0.00000000000E+00 0. -1.
         21   -1    0    0  502  503 -0.00000000000E+00 -0.00000000000E+00 -0.48760313784E+02  0.48760313784E+02  0.00000000000E+00 0.  1.
         24    1    1    2    0    0 -0.22666875997E+02  0.91348164408E+01  0.20442843726E+03  0.22103265381E+03  0.80419002446E+02 0.  1.
          1    1    1    2  501    0 -0.60432223544E+02 -0.23134534571E+02  0.15892337419E+03  0.17159224690E+03  0.00000000000E+00 0. -1.
         -2    1    1    2    0  503  0.83099099541E+02  0.13999718131E+02  0.17903400103E+02  0.86150938402E+02  0.00000000000E+00 0.  1.
<mgrwt>
<rscale>  2 0.11651472E+03</rscale>
<asrwt>0</asrwt>
<pdfrwt beam="1">  1       21 0.66156232E-01 0.11651472E+03</pdfrwt>
<pdfrwt beam="2">  1       21 0.75015870E-02 0.11651472E+03</pdfrwt>
<totfact> 0.28644140E+05</totfact>
</mgrwt>
</event>
<event>
 5    1  0.1708429E+000  0.9591163E+02  0.7546771E-02  0.1289136E+00
         21   -1    0    0  501  502  0.00000000000E+00  0.00000000000E+00  0.30350572306E+03  0.30350572306E+03  0.00000000000E+00 0. -1.
         21   -1    0    0  502  503 -0.00000000000E+00 -0.00000000000E+00 -0.12597648305E+03  0.12597648305E+03  0.00000000000E+00 0.  1.
         24    1    1    2    0    0 -0.41179611213E+02  0.64590192034E+02  0.12061316850E+03  0.16395854859E+03  0.80419002446E+02 0.  1.
          1    1    1    2  501    0  0.10059727888E+01 -0.22692601965E+02  0.15223568083E+03  0.15392098194E+03  0.00000000000E+00 0. -1.
         -2    1    1    2    0  503  0.40173638424E+02 -0.41897590069E+02 -0.95319609311E+02  0.11160267558E+03  0.00000000000E+00 0.  1.
<mgrwt>
<rscale>  2 0.95911634E+02</rscale>
<asrwt>0</asrwt>
<pdfrwt beam="1">  1       21 0.46693188E-01 0.95911634E+02</pdfrwt>
<pdfrwt beam="2">  1       21 0.19380998E-01 0.95911634E+02</pdfrwt>
<totfact> 0.11165064E+05</totfact>
</mgrwt>
</event>
<event>
 5    1  0.1708429E+000  0.6880553E+02  0.7546771E-02  0.1364203E+00
         21   -1    0    0  503  502  0.00000000000E+00  0.00000000000E+00  0.80645836750E+03  0.80645836750E+03  0.00000000000E+00 0. -1.
         21   -1    0    0  501  503 -0.00000000000E+00 -0.00000000000E+00 -0.60667176462E+01  0.60667176462E+01  0.00000000000E+00 0.  1.
         24    1    1    2    0    0 -0.24856855441E+02  0.27273358847E+01  0.41574836403E+03  0.42419243248E+03  0.80419002446E+02 0.  1.
          1    1    1    2  501    0  0.24743615823E+02  0.19291231249E+02  0.22266360208E+03  0.22486324248E+03  0.00000000000E+00 0. -1.
         -2    1    1    2    0  502  0.11323961817E+00 -0.22018567134E+02  0.16197968374E+03  0.16346941019E+03  0.00000000000E+00 0.  1.
<mgrwt>
<rscale>  2 0.68805532E+02</rscale>
<asrwt>0</asrwt>
<pdfrwt beam="1">  1       21 0.12407043E+00 0.68805532E+02</pdfrwt>
<pdfrwt beam="2">  1       21 0.93334182E-03 0.68805532E+02</pdfrwt>
<totfact> 0.20161919E+06</totfact>
</mgrwt>
</event>
<event>
 5    1  0.1708429E+000  0.7134261E+02  0.7546771E-02  0.1355586E+00
         21   -1    0    0  501  502  0.00000000000E+00  0.00000000000E+00  0.17215101963E+03  0.17215101963E+03  0.00000000000E+00 0. -1.
         21   -1    0    0  502  503 -0.00000000000E+00 -0.00000000000E+00 -0.62315792161E+02  0.62315792161E+02  0.00000000000E+00 0. -1.
         24    1    1    2    0    0  0.55635875102E+01  0.93843658967E+01  0.23842636629E+01  0.81190642914E+02  0.80419002446E+02 0. -1.
          1    1    1    2  501    0  0.62254201074E+01 -0.33825621326E+02  0.11893656131E+03  0.12380966896E+03  0.00000000000E+00 0. -1.
         -2    1    1    2    0  503 -0.11789007618E+02  0.24441255430E+02 -0.11485597496E+02  0.29466499918E+02  0.00000000000E+00 0.  1.
<mgrwt>
<rscale>  2 0.71342614E+02</rscale>
<asrwt>0</asrwt>
<pdfrwt beam="1">  1       21 0.26484772E-01 0.71342614E+02</pdfrwt>
<pdfrwt beam="2">  1       21 0.95870450E-02 0.71342614E+02</pdfrwt>
<totfact> 0.11695805E+06</totfact>
</mgrwt>
</event>
<event>
 5    1  0.1708429E+000  0.6394866E+02  0.7546771E-02  0.1381970E+00
         21   -1    0    0  501  502  0.00000000000E+00  0.00000000000E+00  0.11310227297E+03  0.11310227297E+03  0.00000000000E+00 0. -1.
         21   -1    0    0  502  503 -0.00000000000E+00 -0.00000000000E+00 -0.19691794653E+03  0.19691794653E+03  0.00000000000E+00 0.  1.
         24    1    1    2    0    0 -0.38212903952E+01  0.89552330027E+01 -0.18800597190E+02  0.83159346243E+02  0.80419002446E+02 0.  1.
          1    1    1    2  501    0 -0.21092454075E+02 -0.48247737792E+01  0.78352955249E+02  0.81285642380E+02  0.00000000000E+00 0. -1.
         -2    1    1    2    0  503  0.24913744471E+02 -0.41304592235E+01 -0.14336803161E+03  0.14557523088E+03  0.00000000000E+00 0.  1.
<mgrwt>
<rscale>  2 0.63948659E+02</rscale>
<asrwt>0</asrwt>
<pdfrwt beam="1">  1       21 0.17400350E-01 0.63948659E+02</pdfrwt>
<pdfrwt beam="2">  1       21 0.30295069E-01 0.63948659E+02</pdfrwt>
<totfact> 0.31945631E+05</totfact>
</mgrwt>
</event>
<event>
 5    1  0.1708429E+000  0.7429033E+02  0.7546771E-02  0.1346083E+00
         21   -1    0    0  503  502  0.00000000000E+00  0.00000000000E+00  0.10678827402E+04  0.10678827402E+04  0.00000000000E+00 0. -1.
         21   -1    0    0  501  503 -0.00000000000E+00 -0.00000000000E+00 -0.91638917764E+01  0.91638917764E+01  0.00000000000E+00 0.  1.
         24    1    1    2    0    0 -0.18682445884E+01  0.24467599279E+02  0.91133183555E+03  0.91520220945E+03  0.80419002446E+02 0. -1.
          1    1    1    2  501    0 -0.16535108455E+02  0.14123913814E+02  0.31117321355E+02  0.37962908758E+02  0.00000000000E+00 0. -1.
         -2    1    1    2    0  502  0.18403353043E+02 -0.38591513093E+02  0.11626969150E+03  0.12388151375E+03  0.00000000000E+00 0.  1.
<mgrwt>
<rscale>  2 0.74290333E+02</rscale>
<asrwt>0</asrwt>
<pdfrwt beam="1">  1       21 0.16428955E+00 0.74290333E+02</pdfrwt>
<pdfrwt beam="2">  1       21 0.14098303E-02 0.74290333E+02</pdfrwt>
<totfact> 0.52621335E+05</totfact>
</mgrwt>
</event>
<event>
 5    1  0.1708429E+000  0.9329605E+02  0.7546771E-02  0.1295061E+00
         21   -1    0    0  501  502  0.00000000000E+00  0.00000000000E+00  0.14197793661E+04  0.14197793661E+04  0.00000000000E+00 0. -1.
         21   -1    0    0  502  503 -0.00000000000E+00 -0.00000000000E+00 -0.77707152771E+01  0.77707152771E+01  0.00000000000E+00 0. -1.
         24    1    1    2    0    0  0.51520453554E+02 -0.25445804367E+02  0.42217490729E+03  0.43359049159E+03  0.80419002446E+02 0. -1.
          1    1    1    2  501    0 -0.50151290315E+02  0.45462299715E+02  0.85040322934E+03  0.85309297564E+03  0.00000000000E+00 0. -1.
         -2    1    1    2    0  503 -0.13691632388E+01 -0.20016495348E+02  0.13943051419E+03  0.14086661415E+03  0.00000000000E+00 0.  1.
<mgrwt>
<rscale>  2 0.93296051E+02</rscale>
<asrwt>0</asrwt>
<pdfrwt beam="1">  1       21 0.21842739E+00 0.93296051E+02</pdfrwt>
<pdfrwt beam="2">  1       21 0.11954958E-02 0.93296051E+02</pdfrwt>
<totfact> 0.30701881E+05</totfact>
</mgrwt>
</event>
<event>
 5    1  0.1708429E+000  0.7525161E+02  0.7546771E-02  0.1343094E+00
         21   -1    0    0  503  502  0.00000000000E+00  0.00000000000E+00  0.18432310699E+04  0.18432310699E+04  0.00000000000E+00 0. -1.
         21   -1    0    0  501  503 -0.00000000000E+00 -0.00000000000E+00 -0.60686464080E+01  0.60686464080E+01  0.00000000000E+00 0.  1.
         24    1    1    2    0    0 -0.21473645395E+01 -0.66665518756E+01  0.77624312207E+03  0.78042914771E+03  0.80419002446E+02 0. -1.
          1    1    1    2  501    0 -0.22308981204E+01  0.38038471014E+02  0.93955145655E+02  0.10138772893E+03  0.00000000000E+00 0. -1.
         -2    1    1    2    0  502  0.43782626599E+01 -0.31371919138E+02  0.96696415572E+03  0.96748283961E+03  0.00000000000E+00 0.  1.
<mgrwt>
<rscale>  2 0.75251606E+02</rscale>
<asrwt>0</asrwt>
<pdfrwt beam="1">  1       21 0.28357356E+00 0.75251606E+02</pdfrwt>
<pdfrwt beam="2">  1       21 0.93363938E-03 0.75251606E+02</pdfrwt>
<totfact> 0.19892691E+05</totfact>
</mgrwt>
</event>
<event>
 5    1  0.1708429E+000  0.9738411E+02  0.7546771E-02  0.1285895E+00
         21   -1    0    0  501  502  0.00000000000E+00  0.00000000000E+00  0.16816944822E+03  0.16816944822E+03  0.00000000000E+00 0. -1.
         21   -1    0    0  502  503 -0.00000000000E+00 -0.00000000000E+00 -0.12905065006E+03  0.12905065006E+03  0.00000000000E+00 0.  1.
         24    1    1    2    0    0 -0.15814453850E+02 -0.50442347470E+02 -0.76176067796E+02  0.12273767404E+03  0.80419002446E+02 0.  1.
          1    1    1    2  501    0 -0.34390445767E+02  0.22067989611E+02  0.10907734098E+03  0.11647989200E+03  0.00000000000E+00 0. -1.
         -2    1    1    2    0  503  0.50204899617E+02  0.28374357859E+02  0.62175249640E+01  0.58002532239E+02  0.00000000000E+00 0.  1.
<mgrwt>
<rscale>  2 0.97384115E+02</rscale>
<asrwt>0</asrwt>
<pdfrwt beam="1">  1       21 0.25872223E-01 0.97384115E+02</pdfrwt>
<pdfrwt beam="2">  1       21 0.19853946E-01 0.97384115E+02</pdfrwt>
<totfact> 0.33755951E+05</totfact>
</mgrwt>
</event>
<event>
 5    1  0.1708429E+000  0.9030418E+02  0.7546771E-02  0.1302117E+00
         21   -1    0    0  503  502  0.00000000000E+00  0.00000000000E+00  0.46001707668E+03  0.46001707668E+03  0.00000000000E+00 0. -1.
         21   -1    0    0  501  503 -0.00000000000E+00 -0.00000000000E+00 -0.31173298422E+02  0.31173298422E+02  0.00000000000E+00 0.  1.
         24    1    1    2    0    0  0.26924273078E+02 -0.30885922643E+02  0.22611696071E+03  0.24346447908E+03  0.80419002446E+02 0.  0.
          1    1    1    2  501    0 -0.50423833239E+02  0.40784821041E+02  0.27150019171E+02  0.70307098695E+02  0.00000000000E+00 0. -1.
         -2    1    1    2    0  502  0.23499560161E+02 -0.98988983985E+01  0.17557679837E+03  0.17741879732E+03  0.00000000000E+00 0.  1.
<mgrwt>
<rscale>  2 0.90304184E+02</rscale>
<asrwt>0</asrwt>
<pdfrwt beam="1">  1       21 0.70771853E-01 0.90304184E+02</pdfrwt>
<pdfrwt beam="2">  1       21 0.47958924E-02 0.90304184E+02</pdfrwt>
<totfact> 0.52858174E+05</totfact>
</mgrwt>
</event>
<event>
 5    1  0.1708429E+000  0.8724418E+02  0.7546771E-02  0.1309666E+00
         21   -1    0    0  501  502  0.00000000000E+00  0.00000000000E+00  0.48063246552E+02  0.48063246552E+02  0.00000000000E+00 0. -1.
         21   -1    0    0  502  503 -0.00000000000E+00 -0.00000000000E+00 -0.54049617104E+03  0.54049617104E+03  0.00000000000E+00 0. -1.
         24    1    1    2    0    0  0.17493046190E+00 -0.19658994893E+02 -0.33671008395E+03  0.34673823450E+03  0.80419002446E+02 0. -1.
          1    1    1    2  501    0  0.42613850205E+02 -0.40102779495E+01  0.28366149809E+02  0.51348427566E+02  0.00000000000E+00 0. -1.
         -2    1    1    2    0  503 -0.42788780666E+02  0.23669272843E+02 -0.18408899035E+03  0.19047275553E+03  0.00000000000E+00 0.  1.
<mgrwt>
<rscale>  2 0.87244183E+02</rscale>
<asrwt>0</asrwt>
<pdfrwt beam="1">  1       21 0.73943455E-02 0.87244183E+02</pdfrwt>
<pdfrwt beam="2">  1       21 0.83153259E-01 0.87244183E+02</pdfrwt>
<totfact> 0.17955956E+05</totfact>
</mgrwt>
</event>
<event>
 5    1  0.1708429E+000  0.6538608E+02  0.7546771E-02  0.1376525E+00
         21   -1    0    0  503  502  0.00000000000E+00  0.00000000000E+00  0.12268004629E+03  0.12268004629E+03  0.00000000000E+00 0.  1.
         21   -1    0    0  501  503 -0.00000000000E+00 -0.00000000000E+00 -0.23750620284E+03  0.23750620284E+03  0.00000000000E+00 0. -1.
         24    1    1    2    0    0  0.34804227792E+01 -0.37588164207E+01 -0.73333114862E+01  0.80914989065E+02  0.80419002446E+02 0. -1.
          1    1    1    2  501    0  0.11872834465E+02  0.22814470921E+02 -0.19075831650E+03  0.19248428402E+03  0.00000000000E+00 0. -1.
         -2    1    1    2    0  502 -0.15353257244E+02 -0.19055654501E+02  0.83265471442E+02  0.86786976044E+02  0.00000000000E+00 0.  1.
<mgrwt>
<rscale>  2 0.65386080E+02</rscale>
<asrwt>0</asrwt>
<pdfrwt beam="1">  1       21 0.18873853E-01 0.65386080E+02</pdfrwt>
<pdfrwt beam="2">  1       21 0.36539415E-01 0.65386080E+02</pdfrwt>
<totfact> 0.19282241E+05</totfact>
</mgrwt>
</event>
<event>
 5    1  0.1708429E+000  0.6564573E+02  0.7546771E-02  0.1375559E+00
         21   -1    0    0  501  502  0.00000000000E+00  0.00000000000E+00  0.34076947408E+03  0.34076947408E+03  0.00000000000E+00 0.  1.
         21   -1    0    0  502  503 -0.00000000000E+00 -0.00000000000E+00 -0.19795381948E+02  0.19795381948E+02  0.00000000000E+00 0.  1.
         24    1    1    2    0    0 -0.15134714130E+02  0.30529727097E+00  0.28029270765E+03  0.29199378537E+03  0.80419002446E+02 0.  1.
          1    1    1    2  501    0  0.12334650792E+02  0.22940489966E+02  0.36415794998E+02  0.44771864104E+02  0.00000000000E+00 0. -1.
         -2    1    1    2    0  503  0.28000633379E+01 -0.23245787237E+02  0.42655894848E+01  0.23799206554E+02  0.00000000000E+00 0.  1.
<mgrwt>
<rscale>  2 0.65645731E+02</rscale>
<asrwt>0</asrwt>
<pdfrwt beam="1">  1       21 0.52426069E-01 0.65645731E+02</pdfrwt>
<pdfrwt beam="2">  1       21 0.30454436E-02 0.65645731E+02</pdfrwt>
<totfact> 0.20701183E+06</totfact>
</mgrwt>
</event>
<event>
 5    1  0.1708429E+000  0.9827993E+02  0.7546771E-02  0.1283955E+00
         21   -1    0    0  503  502  0.00000000000E+00  0.00000000000E+00  0.22841417787E+03  0.22841417787E+03  0.00000000000E+00 0.  1.
         21   -1    0    0  501  503 -0.00000000000E+00 -0.00000000000E+00 -0.22741676183E+03  0.22741676183E+03  0.00000000000E+00 0. -1.
         24    1    1    2    0    0  0.42611751499E+02  0.38381935387E+02 -0.17780413070E+03  0.20339729393E+03  0.80419002446E+02 0.  0.
          1    1    1    2  501    0  0.51345772289E+01  0.20983666140E+02 -0.26068983411E+02  0.33856609755E+02  0.00000000000E+00 0. -1.
         -2    1    1    2    0  502 -0.47746328728E+02 -0.59365601527E+02  0.20487053014E+03  0.21857703602E+03  0.00000000000E+00 0.  1.
<mgrwt>
<rscale>  2 0.98279930E+02</rscale>
<asrwt>0</asrwt>
<pdfrwt beam="1">  1       21 0.35140643E-01 0.98279930E+02</pdfrwt>
<pdfrwt beam="2">  1       21 0.34987194E-01 0.98279930E+02</pdfrwt>
<totfact> 0.64403063E+04</totfact>
</mgrwt>
</event>
<event>
 5    1  0.1708429E+000  0.9371190E+02  0.7546771E-02  0.1294104E+00
         21   -1    0    0  501  502  0.00000000000E+00  0.00000000000E+00  0.30943973629E+03  0.30943973629E+03  0.00000000000E+00 0.  1.
         21   -1    0    0  502  503 -0.00000000000E+00 -0.00000000000E+00 -0.28497113915E+02  0.28497113915E+02  0.00000000000E+00 0.  1.
         24    1    1    2    0    0  0.13688290408E+02 -0.69500891681E+02  0.16200776793E+03  0.19424591646E+03  0.80419002446E+02 0.  1.
          1    1    1    2  501    0  0.11421247152E+02  0.39580786745E+02  0.67967382400E+02  0.79477346685E+02  0.00000000000E+00 0. -1.
         -2    1    1    2    0  503 -0.25109537560E+02  0.29920104936E+02  0.50967472044E+02  0.64213587055E+02  0.00000000000E+00 0.  1.
<mgrwt>
<rscale>  2 0.93711903E+02</rscale>
<asrwt>0</asrwt>
<pdfrwt beam="1">  1       21 0.47606111E-01 0.93711903E+02</pdfrwt>
<pdfrwt beam="2">  1       21 0.43841716E-02 0.93711903E+02</pdfrwt>
<totfact> 0.14068115E+06</totfact>
</mgrwt>
</event>
<event>
 5    1  0.1708429E+000  0.1220442E+03  0.7546771E-02  0.1239762E+00
         21   -1    0    0  503  502  0.00000000000E+00  0.00000000000E+00  0.11571339080E+04  0.11571339080E+04  0.00000000000E+00 0.  1.
         21   -1    0    0  501  503 -0.00000000000E+00 -0.00000000000E+00 -0.18576150716E+02  0.18576150716E+02  0.00000000000E+00 0.  1.
         24    1    1    2    0    0  0.79047710394E+02  0.55110835393E+02  0.36685927568E+03  0.38773533345E+03  0.80419002446E+02 0.  1.
          1    1    1    2  501    0 -0.18185131591E+02  0.16529232502E+02  0.23862968926E+02  0.34254281835E+02  0.00000000000E+00 0. -1.
         -2    1    1    2    0  502 -0.60862578802E+02 -0.71640067895E+02  0.74783551263E+03  0.75372044339E+03  0.00000000000E+00 0.  1.
<mgrwt>
<rscale>  2 0.12204421E+03</rscale>
<asrwt>0</asrwt>
<pdfrwt beam="1">  1       21 0.17802054E+00 0.12204421E+03</pdfrwt>
<pdfrwt beam="2">  1       21 0.28578703E-02 0.12204421E+03</pdfrwt>
<totfact> 0.13358807E+05</totfact>
</mgrwt>
</event>
<event>
 5    1  0.1708429E+000  0.1058115E+03  0.7546771E-02  0.1268529E+00
         21   -1    0    0  503  502  0.00000000000E+00  0.00000000000E+00  0.40158895538E+02  0.40158895538E+02  0.00000000000E+00 0. -1.
         21   -1    0    0  501  503 -0.00000000000E+00 -0.00000000000E+00 -0.40443079195E+03  0.40443079195E+03  0.00000000000E+00 0.  1.
         24    1    1    2    0    0  0.55340648833E+02 -0.33584526031E+02 -0.21513790200E+03  0.23862531432E+03  0.80419002446E+02 0.  1.
          1    1    1    2  501    0 -0.86552408585E+01 -0.29024727909E+02 -0.11810572468E+03  0.12192747938E+03  0.00000000000E+00 0. -1.
         -2    1    1    2    0  502 -0.46685407975E+02  0.62609253940E+02 -0.31028269737E+02  0.84036893800E+02  0.00000000000E+00 0.  1.
<mgrwt>
<rscale>  2 0.10581148E+03</rscale>
<asrwt>0</asrwt>
<pdfrwt beam="1">  1       21 0.61782919E-02 0.10581148E+03</pdfrwt>
<pdfrwt beam="2">  1       21 0.62220119E-01 0.10581148E+03</pdfrwt>
<totfact> 0.45517483E+05</totfact>
</mgrwt>
</event>
<event>
 5    1  0.1708429E+000  0.8799999E+02  0.7546771E-02  0.1307769E+00
         21   -1    0    0  503  502  0.00000000000E+00  0.00000000000E+00  0.17912457886E+03  0.17912457886E+03  0.00000000000E+00 0.  1.
         21   -1    0    0  501  503 -0.00000000000E+00 -0.00000000000E+00 -0.10375306597E+03  0.10375306597E+03  0.00000000000E+00 0. -1.
         24    1    1    2    0    0  0.66861325524E+02  0.15789310943E+02 -0.56373494336E+02  0.11985376927E+03  0.80419002446E+02 0. -1.
          1    1    1    2  501    0 -0.43735245590E+02 -0.30807045853E+01  0.19972080982E+02  0.48178277951E+02  0.00000000000E+00 0. -1.
         -2    1    1    2    0  502 -0.23126079935E+02 -0.12708606357E+02  0.11177292624E+03  0.11484559761E+03  0.00000000000E+00 0.  1.
<mgrwt>
<rscale>  2 0.87999987E+02</rscale>
<asrwt>0</asrwt>
<pdfrwt beam="1">  1       21 0.27557627E-01 0.87999987E+02</pdfrwt>
<pdfrwt beam="2">  1       21 0.15962010E-01 0.87999987E+02</pdfrwt>
<totfact> 0.44546602E+05</totfact>
</mgrwt>
</event>
<event>
 5    1  0.1708429E+000  0.7949161E+02  0.7546771E-02  0.1330500E+00
         21   -1    0    0  503  502  0.00000000000E+00  0.00000000000E+00  0.34517257990E+03  0.34517257990E+03  0.00000000000E+00 0. -1.
         21   -1    0    0  501  503 -0.00000000000E+00 -0.00000000000E+00 -0.32929875779E+02  0.32929875779E+02  0.00000000000E+00 0.  1.
         24    1    1    2    0    0  0.90693877401E+01 -0.35741818709E+02  0.24192769215E+03  0.25759649761E+03  0.80419002446E+02 0. -1.
          1    1    1    2  501    0  0.25313221072E+02  0.86866713867E+01 -0.10387176112E+02  0.28707330917E+02  0.00000000000E+00 0. -1.
         -2    1    1    2    0  502 -0.34382608812E+02  0.27055147322E+02  0.80702188087E+02  0.91798627154E+02  0.00000000000E+00 0.  1.
<mgrwt>
<rscale>  2 0.79491608E+02</rscale>
<asrwt>0</asrwt>
<pdfrwt beam="1">  1       21 0.53103471E-01 0.79491608E+02</pdfrwt>
<pdfrwt beam="2">  1       21 0.50661350E-02 0.79491608E+02</pdfrwt>
<totfact> 0.88270537E+05</totfact>
</mgrwt>
</event>
<event>
 5    1  0.1708429E+000  0.9170867E+02  0.7546771E-02  0.1298766E+00
         21   -1    0    0  501  502  0.00000000000E+00  0.00000000000E+00  0.13499853246E+03  0.13499853246E+03  0.00000000000E+00 0.  1.
         21   -1    0    0  502  503 -0.00000000000E+00 -0.00000000000E+00 -0.10959604115E+03  0.10959604115E+03  0.00000000000E+00 0.  1.
         24    1    1    2    0    0  0.12720898936E+02  0.24229325944E+02  0.33788302196E+02  0.91420713326E+02  0.80419002446E+02 0.  0.
          1    1    1    2  501    0  0.80322408413E+01 -0.58151071379E+02  0.53623977297E+02  0.79508458270E+02  0.00000000000E+00 0. -1.
         -2    1    1    2    0  503 -0.20753139777E+02  0.33921745435E+02 -0.62009788184E+02  0.73665402019E+02  0.00000000000E+00 0.  1.
<mgrwt>
<rscale>  2 0.91708670E+02</rscale>
<asrwt>0</asrwt>
<pdfrwt beam="1">  1       21 0.20769005E-01 0.91708670E+02</pdfrwt>
<pdfrwt beam="2">  1       21 0.16860929E-01 0.91708670E+02</pdfrwt>
<totfact> 0.68377470E+05</totfact>
</mgrwt>
</event>
<event>
 5    1  0.1708429E+000  0.1183033E+03  0.7546771E-02  0.1245923E+00
         21   -1    0    0  503  502  0.00000000000E+00  0.00000000000E+00  0.10477663856E+03  0.10477663856E+03  0.00000000000E+00 0. -1.
         21   -1    0    0  501  503 -0.00000000000E+00 -0.00000000000E+00 -0.18897087944E+03  0.18897087944E+03  0.00000000000E+00 0. -1.
         24    1    1    2    0    0 -0.23891308663E+02  0.92816425860E+02 -0.12063383216E+03  0.17379706831E+03  0.80419002446E+02 0. -1.
          1    1    1    2  501    0 -0.31976213154E+01 -0.82416417615E+02  0.14901463828E+02  0.83813747671E+02  0.00000000000E+00 0. -1.
         -2    1    1    2    0  502  0.27088929978E+02 -0.10400008246E+02  0.21538127443E+02  0.36136702017E+02  0.00000000000E+00 0.  1.
<mgrwt>
<rscale>  2 0.11830335E+03</rscale>
<asrwt>0</asrwt>
<pdfrwt beam="1">  1       21 0.16119483E-01 0.11830335E+03</pdfrwt>
<pdfrwt beam="2">  1       21 0.29072443E-01 0.11830335E+03</pdfrwt>
<totfact> 0.39422523E+05</totfact>
</mgrwt>
</event>
<event>
 5    1  0.1708429E+000  0.3037890E+03  0.7546771E-02  0.1083362E+00
         21   -1    0    0  501  502  0.00000000000E+00  0.00000000000E+00  0.18018170185E+03  0.18018170185E+03  0.00000000000E+00 0.  1.
         21   -1    0    0  502  503 -0.00000000000E+00 -0.00000000000E+00 -0.56838049470E+03  0.56838049470E+03  0.00000000000E+00 0. -1.
         24    1    1    2    0    0  0.11594085700E+03 -0.44591902464E+01 -0.16354031542E+02  0.14211557621E+03  0.80419002446E+02 0. -1.
          1    1    1    2  501    0 -0.51217299675E+02  0.22800131506E+03 -0.11702560598E+03  0.26134805128E+03  0.00000000000E+00 0. -1.
         -2    1    1    2    0  503 -0.64723557324E+02 -0.22354212481E+03 -0.25481915533E+03  0.34509856905E+03  0.00000000000E+00 0.  1.
<mgrwt>
<rscale>  2 0.30378905E+03</rscale>
<asrwt>0</asrwt>
<pdfrwt beam="1">  1       21 0.27720262E-01 0.30378905E+03</pdfrwt>
<pdfrwt beam="2">  1       21 0.87443152E-01 0.30378905E+03</pdfrwt>
<totfact> 0.13136662E+04</totfact>
</mgrwt>
</event>
<event>
 5    1  0.1708429E+000  0.8040469E+02  0.7546771E-02  0.1327907E+00
         21   -1    0    0  501  502  0.00000000000E+00  0.00000000000E+00  0.98308049606E+02  0.98308049606E+02  0.00000000000E+00 0. -1.
         21   -1    0    0  502  503 -0.00000000000E+00 -0.00000000000E+00 -0.31536205394E+03  0.31536205394E+03  0.00000000000E+00 0.  1.
         24    1    1    2    0    0  0.43913454125E+02 -0.11303400885E+02 -0.97648579832E+01  0.92837097814E+02  0.80419002446E+02 0.  0.
          1    1    1    2  501    0 -0.13412583427E+02  0.29895582752E+02  0.50708753912E+02  0.60374009189E+02  0.00000000000E+00 0. -1.
         -2    1    1    2    0  503 -0.30500870699E+02 -0.18592181867E+02 -0.25799790027E+03  0.26045899655E+03  0.00000000000E+00 0.  1.
<mgrwt>
<rscale>  2 0.80404687E+02</rscale>
<asrwt>0</asrwt>
<pdfrwt beam="1">  1       21 0.15124316E-01 0.80404687E+02</pdfrwt>
<pdfrwt beam="2">  1       21 0.48517238E-01 0.80404687E+02</pdfrwt>
<totfact> 0.16268645E+05</totfact>
</mgrwt>
</event>
<event>
 5    1  0.1708429E+000  0.8233466E+02  0.7546771E-02  0.1322554E+00
         21   -1    0    0  503  502  0.00000000000E+00  0.00000000000E+00  0.75829271945E+01  0.75829271945E+01  0.00000000000E+00 0.  1.
         21   -1    0    0  501  503 -0.00000000000E+00 -0.00000000000E+00 -0.21010887926E+04  0.21010887926E+04  0.00000000000E+00 0. -1.
         24    1    1    2    0    0 -0.12504714368E+02  0.55163552278E+02 -0.47636811842E+03  0.48640845550E+03  0.80419002446E+02 0.  1.
          1    1    1    2  501    0  0.22070367161E+02 -0.19580908537E+02 -0.14790491663E+04  0.14793434183E+04  0.00000000000E+00 0. -1.
         -2    1    1    2    0  502 -0.95656527925E+01 -0.35582643742E+02 -0.13808858074E+03  0.14291984599E+03  0.00000000000E+00 0.  1.
<mgrwt>
<rscale>  2 0.82334657E+02</rscale>
<asrwt>0</asrwt>
<pdfrwt beam="1">  1       21 0.11666017E-02 0.82334657E+02</pdfrwt>
<pdfrwt beam="2">  1       21 0.32324512E+00 0.82334657E+02</pdfrwt>
<totfact> 0.84516969E+04</totfact>
</mgrwt>
</event>
<event>
 5    1  0.1708429E+000  0.1206809E+03  0.7546771E-02  0.1241978E+00
         21   -1    0    0  503  502  0.00000000000E+00  0.00000000000E+00  0.21893771659E+03  0.21893771659E+03  0.00000000000E+00 0. -1.
         21   -1    0    0  501  503 -0.00000000000E+00 -0.00000000000E+00 -0.28398131154E+03  0.28398131154E+03  0.00000000000E+00 0. -1.
         24    1    1    2    0    0  0.47116882911E+02  0.65297100244E+02  0.18212729326E+03  0.21475865258E+03  0.80419002446E+02 0. -1.
          1    1    1    2  501    0 -0.35533184617E+02  0.20474156305E+02 -0.16057005199E+03  0.16572428875E+03  0.00000000000E+00 0. -1.
         -2    1    1    2    0  502 -0.11583698294E+02 -0.85771256549E+02 -0.86600836215E+02  0.12243608679E+03  0.00000000000E+00 0.  1.
<mgrwt>
<rscale>  2 0.12068090E+03</rscale>
<asrwt>0</asrwt>
<pdfrwt beam="1">  1       21 0.33682726E-01 0.12068090E+03</pdfrwt>
<pdfrwt beam="2">  1       21 0.43689432E-01 0.12068090E+03</pdfrwt>
<totfact> 0.44402547E+04</totfact>
</mgrwt>
</event>
<event>
 5    1  0.1708429E+000  0.2191698E+03  0.7546771E-02  0.1134503E+00
         21   -1    0    0  501  502  0.00000000000E+00  0.00000000000E+00  0.88434648789E+03  0.88434648789E+03  0.00000000000E+00 0. -1.
         21   -1    0    0  502  503 -0.00000000000E+00 -0.00000000000E+00 -0.56529634817E+03  0.56529634817E+03  0.00000000000E+00 0. -1.
         24    1    1    2    0    0  0.19522998402E+03 -0.76745675271E+02 -0.35332248558E+03  0.41869874624E+03  0.80419002446E+02 0. -1.
          1    1    1    2  501    0 -0.15022787425E+03  0.39682881070E+02  0.83959428702E+03  0.85385110648E+03  0.00000000000E+00 0. -1.
         -2    1    1    2    0  503 -0.45002109766E+02  0.37062794201E+02 -0.16722166172E+03  0.17709298333E+03  0.00000000000E+00 0.  1.
<mgrwt>
<rscale>  2 0.21916983E+03</rscale>
<asrwt>0</asrwt>
<pdfrwt beam="1">  1       21 0.13605331E+00 0.21916983E+03</pdfrwt>
<pdfrwt beam="2">  1       21 0.86968669E-01 0.21916983E+03</pdfrwt>
<totfact> 0.42532345E+02</totfact>
</mgrwt>
</event>
<event>
 5    1  0.1708429E+000  0.8434266E+02  0.7546771E-02  0.1317161E+00
         21   -1    0    0  501  502  0.00000000000E+00  0.00000000000E+00  0.26961299943E+03  0.26961299943E+03  0.00000000000E+00 0. -1.
         21   -1    0    0  502  503 -0.00000000000E+00 -0.00000000000E+00 -0.46360421560E+02  0.46360421560E+02  0.00000000000E+00 0.  1.
         24    1    1    2    0    0  0.13653232750E+02  0.28784182881E+02  0.19149907666E+02  0.88593876011E+02  0.80419002446E+02 0.  0.
          1    1    1    2  501    0 -0.26139991778E+02 -0.50654722801E+02  0.19031535245E+03  0.19866840083E+03  0.00000000000E+00 0. -1.
         -2    1    1    2    0  503  0.12486759028E+02  0.21870539920E+02  0.13787317762E+02  0.28711144151E+02  0.00000000000E+00 0.  1.
<mgrwt>
<rscale>  2 0.84342663E+02</rscale>
<asrwt>0</asrwt>
<pdfrwt beam="1">  1       21 0.41478922E-01 0.84342663E+02</pdfrwt>
<pdfrwt beam="2">  1       21 0.71323727E-02 0.84342663E+02</pdfrwt>
<totfact> 0.81979574E+05</totfact>
</mgrwt>
</event>
<event>
 5    1  0.1708429E+000  0.1072413E+03  0.7546771E-02  0.1265766E+00
         21   -1    0    0  501  502  0.00000000000E+00  0.00000000000E+00  0.22603477238E+03  0.22603477238E+03  0.00000000000E+00 0.  1.
         21   -1    0    0  502  503 -0.00000000000E+00 -0.00000000000E+00 -0.55422205755E+02  0.55422205755E+02  0.00000000000E+00 0. -1.
         24    1    1    2    0    0 -0.13793252443E+02 -0.65326001454E+02  0.12169832489E+03  0.16042268703E+03  0.80419002446E+02 0. -1.
          1    1    1    2  501    0 -0.11107120638E+01 -0.21669080361E+02  0.15470602219E+02  0.26648119221E+02  0.00000000000E+00 0. -1.
         -2    1    1    2    0  503  0.14903964507E+02  0.86995081816E+02  0.33443639511E+02  0.94386171879E+02  0.00000000000E+00 0.  1.
<mgrwt>
<rscale>  2 0.10724128E+03</rscale>
<asrwt>0</asrwt>
<pdfrwt beam="1">  1       21 0.34774580E-01 0.10724128E+03</pdfrwt>
<pdfrwt beam="2">  1       21 0.85264933E-02 0.10724128E+03</pdfrwt>
<totfact> 0.85742346E+05</totfact>
</mgrwt>
</event>
<event>
 5    1  0.1708429E+000  0.9433846E+02  0.7546771E-02  0.1292673E+00
         21   -1    0    0  503  502  0.00000000000E+00  0.00000000000E+00  0.73142844593E+03  0.73142844593E+03  0.00000000000E+00 0. -1.
         21   -1    0    0  501  503 -0.00000000000E+00 -0.00000000000E+00 -0.14744540811E+02  0.14744540811E+02  0.00000000000E+00 0.  1.
         24    1    1    2    0    0 -0.57633667550E+02 -0.35713062455E+02  0.34321747299E+03  0.35897425003E+03  0.80419002446E+02 0.  0.
          1    1    1    2  501    0  0.43714177444E+02 -0.15195472090E+01  0.81109693590E+02  0.92152160732E+02  0.00000000000E+00 0. -1.
         -2    1    1    2    0  502  0.13919490106E+02  0.37232609664E+02  0.29235673854E+03  0.29504657598E+03  0.00000000000E+00 0.  1.
<mgrwt>
<rscale>  2 0.94338456E+02</rscale>
<asrwt>0</asrwt>
<pdfrwt beam="1">  1       21 0.11252742E+00 0.94338456E+02</pdfrwt>
<pdfrwt beam="2">  1       21 0.22683915E-02 0.94338456E+02</pdfrwt>
<totfact> 0.62883855E+05</totfact>
</mgrwt>
</event>
<event>
 5    1  0.1708429E+000  0.9401073E+02  0.7546771E-02  0.1293420E+00
         21   -1    0    0  503  502  0.00000000000E+00  0.00000000000E+00  0.60660299450E+02  0.60660299450E+02  0.00000000000E+00 0.  1.
         21   -1    0    0  501  503 -0.00000000000E+00 -0.00000000000E+00 -0.30294204273E+03  0.30294204273E+03  0.00000000000E+00 0. -1.
         24    1    1    2    0    0  0.59049085537E+02  0.90449182554E+01 -0.24504728971E+02  0.10313245244E+03  0.80419002446E+02 0.  1.
          1    1    1    2  501    0 -0.63833217800E+02  0.13119642886E+02 -0.22686666450E+03  0.23604086126E+03  0.00000000000E+00 0. -1.
         -2    1    1    2    0  502  0.47841322622E+01 -0.22164561141E+02  0.90896501891E+01  0.24429028483E+02  0.00000000000E+00 0.  1.
<mgrwt>
<rscale>  2 0.94010730E+02</rscale>
<asrwt>0</asrwt>
<pdfrwt beam="1">  1       21 0.93323539E-02 0.94010730E+02</pdfrwt>
<pdfrwt beam="2">  1       21 0.46606468E-01 0.94010730E+02</pdfrwt>
<totfact> 0.41001606E+05</totfact>
</mgrwt>
</event>
<event>
 5    1  0.1708429E+000  0.7149623E+02  0.7546771E-02  0.1355078E+00
         21   -1    0    0  503  502  0.00000000000E+00  0.00000000000E+00  0.21200605908E+03  0.21200605908E+03  0.00000000000E+00 0. -1.
         21   -1    0    0  501  503 -0.00000000000E+00 -0.00000000000E+00 -0.27617546383E+02  0.27617546383E+02  0.00000000000E+00 0.  1.
         24    1    1    2    0    0 -0.16414123169E+02 -0.16815045591E+02  0.70264502375E+02  0.10934571526E+03  0.80419002446E+02 0.  0.
          1    1    1    2  501    0  0.36592913125E+02  0.11020471976E+02  0.50836733933E+02  0.63599257940E+02  0.00000000000E+00 0. -1.
         -2    1    1    2    0  502 -0.20178789955E+02  0.57945736153E+01  0.63287276387E+02  0.66678632259E+02  0.00000000000E+00 0.  1.
<mgrwt>
<rscale>  2 0.71496228E+02</rscale>
<asrwt>0</asrwt>
<pdfrwt beam="1">  1       21 0.32616316E-01 0.71496228E+02</pdfrwt>
<pdfrwt beam="2">  1       21 0.42488534E-02 0.71496228E+02</pdfrwt>
<totfact> 0.30854194E+06</totfact>
</mgrwt>
</event>
<event>
 5    1  0.1708429E+000  0.6880230E+02  0.7546771E-02  0.1364214E+00
         21   -1    0    0  503  502  0.00000000000E+00  0.00000000000E+00  0.20866463430E+03  0.20866463430E+03  0.00000000000E+00 0. -1.
         21   -1    0    0  501  503 -0.00000000000E+00 -0.00000000000E+00 -0.31018953887E+02  0.31018953887E+02  0.00000000000E+00 0.  1.
         24    1    1    2    0    0 -0.44308189042E+01  0.41629155263E+01  0.15865410575E+03  0.17797556924E+03  0.80419002446E+02 0. -1.
          1    1    1    2  501    0  0.17401437311E+02 -0.26160390851E+02  0.29654006104E+01  0.31558987163E+02  0.00000000000E+00 0. -1.
         -2    1    1    2    0  502 -0.12970618407E+02  0.21997475325E+02  0.16026174052E+02  0.30149031780E+02  0.00000000000E+00 0.  1.
<mgrwt>
<rscale>  2 0.68802299E+02</rscale>
<asrwt>0</asrwt>
<pdfrwt beam="1">  1       21 0.32102251E-01 0.68802299E+02</pdfrwt>
<pdfrwt beam="2">  1       21 0.47721469E-02 0.68802299E+02</pdfrwt>
<totfact> 0.26216714E+06</totfact>
</mgrwt>
</event>
<event>
 5    1  0.1708429E+000  0.1322706E+03  0.7546771E-02  0.1224125E+00
         21   -1    0    0  503  502  0.00000000000E+00  0.00000000000E+00  0.21711844889E+04  0.21711844889E+04  0.00000000000E+00 0.  1.
         21   -1    0    0  501  503 -0.00000000000E+00 -0.00000000000E+00 -0.31725799768E+03  0.31725799768E+03  0.00000000000E+00 0. -1.
         24    1    1    2    0    0  0.59866760434E+02  0.10114978924E+03 -0.12886251004E+03  0.19206267549E+03  0.80419002446E+02 0. -1.
          1    1    1    2  501    0 -0.25930334453E+02 -0.74777059040E+02 -0.14657719979E+03  0.16657990966E+03  0.00000000000E+00 0. -1.
         -2    1    1    2    0  502 -0.33936425982E+02 -0.26372730196E+02  0.21293662010E+04  0.21297999014E+04  0.00000000000E+00 0.  1.
<mgrwt>
<rscale>  2 0.13227060E+03</rscale>
<asrwt>0</asrwt>
<pdfrwt beam="1">  1       21 0.33402837E+00 0.13227060E+03</pdfrwt>
<pdfrwt beam="2">  1       21 0.48808924E-01 0.13227060E+03</pdfrwt>
<totfact> 0.98448842E+01</totfact>
</mgrwt>
</event>
<event>
 5    1  0.1708429E+000  0.8153489E+02  0.7546771E-02  0.1324751E+00
         21   -1    0    0  501  502  0.00000000000E+00  0.00000000000E+00  0.13492545783E+03  0.13492545783E+03  0.00000000000E+00 0. -1.
         21   -1    0    0  502  503 -0.00000000000E+00 -0.00000000000E+00 -0.31173703142E+03  0.31173703142E+03  0.00000000000E+00 0.  1.
         24    1    1    2    0    0 -0.28825895618E+02  0.42447544878E+02 -0.15230818230E+03  0.17971567732E+03  0.80419002446E+02 0.  1.
          1    1    1    2  501    0  0.35214784739E+02 -0.12990801874E+02  0.11668681437E+03  0.12257509798E+03  0.00000000000E+00 0. -1.
         -2    1    1    2    0  503 -0.63888891206E+01 -0.29456743004E+02 -0.14119020566E+03  0.14437171395E+03  0.00000000000E+00 0.  1.
<mgrwt>
<rscale>  2 0.81534894E+02</rscale>
<asrwt>0</asrwt>
<pdfrwt beam="1">  1       21 0.20757763E-01 0.81534894E+02</pdfrwt>
<pdfrwt beam="2">  1       21 0.47959542E-01 0.81534894E+02</pdfrwt>
<totfact> 0.93986061E+04</totfact>
</mgrwt>
</event>
<event>
 5    1  0.1708429E+000  0.1029801E+03  0.7546771E-02  0.1274151E+00
         21   -1    0    0  503  502  0.00000000000E+00  0.00000000000E+00  0.17246657413E+02  0.17246657413E+02  0.00000000000E+00 0.  1.
         21   -1    0    0  501  503 -0.00000000000E+00 -0.00000000000E+00 -0.90906206411E+03  0.90906206411E+03  0.00000000000E+00 0.  1.
         24    1    1    2    0    0  0.70306815663E+02 -0.37577823944E+02 -0.48369395343E+03  0.49677177629E+03  0.80419002446E+02 0.  1.
          1    1    1    2  501    0 -0.39667344678E+02 -0.53047588824E+01 -0.34496471815E+03  0.34727841204E+03  0.00000000000E+00 0. -1.
         -2    1    1    2    0  502 -0.30639470985E+02  0.42882582827E+02 -0.63156735118E+02  0.82258533192E+02  0.00000000000E+00 0.  1.
<mgrwt>
<rscale>  2 0.10298008E+03</rscale>
<asrwt>0</asrwt>
<pdfrwt beam="1">  1       21 0.26533313E-02 0.10298008E+03</pdfrwt>
<pdfrwt beam="2">  1       21 0.13985574E+00 0.10298008E+03</pdfrwt>
<totfact> 0.28653016E+05</totfact>
</mgrwt>
</event>
<event>
 5    1  0.2532747E+000  0.8867550E+02  0.7546771E-02  0.1306091E+00
         21   -1    0    0  501  502  0.00000000000E+00  0.00000000000E+00  0.35221418477E+03  0.35221418477E+03  0.00000000000E+00 0. -1.
         21   -1    0    0  502  503 -0.00000000000E+00 -0.00000000000E+00 -0.33932379660E+03  0.33932379660E+03  0.00000000000E+00 0.  1.
         24    1    1    2    0    0 -0.19517318424E+02 -0.18426424630E+02  0.46787947843E+02  0.96833810525E+02  0.80419002446E+02 0.  0.
          1    1    1    2  501    0  0.24615618164E+02 -0.32845666524E+02  0.27676785482E+03  0.27979494622E+03  0.00000000000E+00 0. -1.
         -2    1    1    2    0  503 -0.50982997401E+01  0.51272091154E+02 -0.31066541449E+03  0.31490922462E+03  0.00000000000E+00 0.  1.
<mgrwt>
<rscale>  2 0.88675504E+02</rscale>
<asrwt>0</asrwt>
<pdfrwt beam="1">  1       21 0.54186798E-01 0.88675504E+02</pdfrwt>
<pdfrwt beam="2">  1       21 0.52203661E-01 0.88675504E+02</pdfrwt>
<totfact> 0.12244840E+04</totfact>
</mgrwt>
</event>
<event>
 5    1  0.1880886E+000  0.2278390E+03  0.7546771E-02  0.1128170E+00
         21   -1    0    0  501  502  0.00000000000E+00  0.00000000000E+00  0.67103272343E+03  0.67103272343E+03  0.00000000000E+00 0. -1.
         21   -1    0    0  502  503 -0.00000000000E+00 -0.00000000000E+00 -0.46652456284E+03  0.46652456284E+03  0.00000000000E+00 0.  1.
         24    1    1    2    0    0 -0.50586751229E+02  0.11886003643E+03  0.31444710978E+03  0.34932925509E+03  0.80419002446E+02 0.  0.
          1    1    1    2  501    0 -0.84729373537E+02  0.40953696749E+02  0.30730080208E+03  0.32138770197E+03  0.00000000000E+00 0. -1.
         -2    1    1    2    0  503  0.13531612477E+03 -0.15981373318E+03 -0.41723975127E+03  0.46684032920E+03  0.00000000000E+00 0.  1.
<mgrwt>
<rscale>  2 0.22783900E+03</rscale>
<asrwt>0</asrwt>
<pdfrwt beam="1">  1       21 0.10323580E+00 0.22783900E+03</pdfrwt>
<pdfrwt beam="2">  1       21 0.71773009E-01 0.22783900E+03</pdfrwt>
<totfact> 0.12917425E+03</totfact>
</mgrwt>
</event>
<event>
 5    1  0.1708429E+000  0.7868286E+02  0.7546771E-02  0.1332831E+00
         21   -1    0    0  501  502  0.00000000000E+00  0.00000000000E+00  0.85500900301E+02  0.85500900301E+02  0.00000000000E+00 0.  1.
         21   -1    0    0  502  503 -0.00000000000E+00 -0.00000000000E+00 -0.83190261132E+02  0.83190261132E+02  0.00000000000E+00 0.  1.
         24    1    1    2    0    0 -0.54551969796E+02  0.58525282924E+01  0.23267979740E+02  0.10009387759E+03  0.80419002446E+02 0.  1.
          1    1    1    2  501    0  0.20261946208E+02  0.95782403278E+01  0.49274993834E+01  0.22947100080E+02  0.00000000000E+00 0. -1.
         -2    1    1    2    0  503  0.34290023589E+02 -0.15430768620E+02 -0.25884839954E+02  0.45650183760E+02  0.00000000000E+00 0.  1.
<mgrwt>
<rscale>  2 0.78682862E+02</rscale>
<asrwt>0</asrwt>
<pdfrwt beam="1">  1       21 0.13153985E-01 0.78682862E+02</pdfrwt>
<pdfrwt beam="2">  1       21 0.12798502E-01 0.78682862E+02</pdfrwt>
<totfact> 0.25261289E+06</totfact>
</mgrwt>
</event>
<event>
 5    1  0.1708429E+000  0.7502735E+02  0.7546771E-02  0.1343786E+00
         21   -1    0    0  501  502  0.00000000000E+00  0.00000000000E+00  0.96758224282E+03  0.96758224282E+03  0.00000000000E+00 0. -1.
         21   -1    0    0  502  503 -0.00000000000E+00 -0.00000000000E+00 -0.60760588072E+01  0.60760588072E+01  0.00000000000E+00 0. -1.
         24    1    1    2    0    0 -0.33401271328E+02 -0.37222833267E+02  0.69736450099E+03  0.70376533549E+03  0.80419002446E+02 0. -1.
          1    1    1    2  501    0  0.26996559670E+02  0.12383430128E+02  0.14832543749E+03  0.15126995399E+03  0.00000000000E+00 0. -1.
         -2    1    1    2    0  503  0.64047116587E+01  0.24839403139E+02  0.11581624554E+03  0.11862301214E+03  0.00000000000E+00 0.  1.
<mgrwt>
<rscale>  2 0.75027352E+02</rscale>
<asrwt>0</asrwt>
<pdfrwt beam="1">  1       21 0.14885868E+00 0.75027352E+02</pdfrwt>
<pdfrwt beam="2">  1       21 0.93477905E-03 0.75027352E+02</pdfrwt>
<totfact> 0.12872061E+06</totfact>
</mgrwt>
</event>
<event>
 5    1  0.1708429E+000  0.1133452E+03  0.7546771E-02  0.1254498E+00
         21   -1    0    0  501  502  0.00000000000E+00  0.00000000000E+00  0.63251094608E+02  0.63251094608E+02  0.00000000000E+00 0.  1.
         21   -1    0    0  502  503 -0.00000000000E+00 -0.00000000000E+00 -0.43708414818E+03  0.43708414818E+03  0.00000000000E+00 0.  1.
         24    1    1    2    0    0 -0.51337211757E+02 -0.33954758871E+02 -0.54614116389E+01  0.10141734532E+03  0.80419002446E+02 0.  1.
          1    1    1    2  501    0  0.29017733963E+02 -0.39293559141E+02 -0.44368516999E+02  0.65989226204E+02  0.00000000000E+00 0. -1.
         -2    1    1    2    0  503  0.22319477794E+02  0.73248318011E+02 -0.32400312493E+03  0.33292867126E+03  0.00000000000E+00 0.  1.
<mgrwt>
<rscale>  2 0.11334517E+03</rscale>
<asrwt>0</asrwt>
<pdfrwt beam="1">  1       21 0.97309374E-02 0.11334517E+03</pdfrwt>
<pdfrwt beam="2">  1       21 0.67243717E-01 0.11334517E+03</pdfrwt>
<totfact> 0.17664026E+05</totfact>
</mgrwt>
</event>
<event>
 5    1  0.1708429E+000  0.8086981E+02  0.7546771E-02  0.1326601E+00
         21   -1    0    0  501  502  0.00000000000E+00  0.00000000000E+00  0.37171100408E+03  0.37171100408E+03  0.00000000000E+00 0. -1.
         21   -1    0    0  502  503 -0.00000000000E+00 -0.00000000000E+00 -0.89526248430E+02  0.89526248430E+02  0.00000000000E+00 0. -1.
         24    1    1    2    0    0 -0.16046732155E+02 -0.73898129637E+01  0.34830773581E+03  0.35790725297E+03  0.80419002446E+02 0. -1.
          1    1    1    2  501    0  0.43089318323E+02  0.22304763592E+02 -0.40461509642E+02  0.63176938791E+02  0.00000000000E+00 0. -1.
         -2    1    1    2    0  503 -0.27042586168E+02 -0.14914950629E+02 -0.25661470515E+02  0.40153060754E+02  0.00000000000E+00 0.  1.
<mgrwt>
<rscale>  2 0.80869809E+02</rscale>
<asrwt>0</asrwt>
<pdfrwt beam="1">  1       21 0.57186308E-01 0.80869809E+02</pdfrwt>
<pdfrwt beam="2">  1       21 0.13773269E-01 0.80869809E+02</pdfrwt>
<totfact> 0.13706759E+05</totfact>
</mgrwt>
</event>
<event>
 5    1  0.1708429E+000  0.8059241E+02  0.7546771E-02  0.1327379E+00
         21   -1    0    0  501  502  0.00000000000E+00  0.00000000000E+00  0.88331137766E+02  0.88331137766E+02  0.00000000000E+00 0.  1.
         21   -1    0    0  502  503 -0.00000000000E+00 -0.00000000000E+00 -0.38142013338E+03  0.38142013338E+03  0.00000000000E+00 0.  1.
         24    1    1    2    0    0  0.53155186280E+02  0.19723288443E+02 -0.59932057794E+02  0.11521089116E+03  0.80419002446E+02 0.  0.
          1    1    1    2  501    0 -0.40016111543E+02 -0.11427690627E+01  0.53590150778E+02  0.66891698772E+02  0.00000000000E+00 0. -1.
         -2    1    1    2    0  503 -0.13139074738E+02 -0.18580519380E+02 -0.28674708860E+03  0.28764868121E+03  0.00000000000E+00 0.  1.
<mgrwt>
<rscale>  2 0.80592412E+02</rscale>
<asrwt>0</asrwt>
<pdfrwt beam="1">  1       21 0.13589406E-01 0.80592412E+02</pdfrwt>
<pdfrwt beam="2">  1       21 0.58680021E-01 0.80592412E+02</pdfrwt>
<totfact> 0.13304025E+05</totfact>
</mgrwt>
</event>
<event>
 5    1  0.1708429E+000  0.1210931E+03  0.7546771E-02  0.1241305E+00
         21   -1    0    0  503  502  0.00000000000E+00  0.00000000000E+00  0.44094805348E+02  0.44094805348E+02  0.00000000000E+00 0. -1.
         21   -1    0    0  501  503 -0.00000000000E+00 -0.00000000000E+00 -0.51840936197E+03  0.51840936197E+03  0.00000000000E+00 0. -1.
         24    1    1    2    0    0  0.98053731220E+02 -0.39719901496E+02 -0.29755671118E+03  0.32588252041E+03  0.80419002446E+02 0. -1.
          1    1    1    2  501    0 -0.80229742080E+02  0.19937967634E+02 -0.18976246246E+03  0.20698822726E+03  0.00000000000E+00 0. -1.
         -2    1    1    2    0  502 -0.17823989139E+02  0.19781933862E+02  0.13004617021E+02  0.29633419648E+02  0.00000000000E+00 0.  1.
<mgrwt>
<rscale>  2 0.12109310E+03</rscale>
<asrwt>0</asrwt>
<pdfrwt beam="1">  1       21 0.67838159E-02 0.12109310E+03</pdfrwt>
<pdfrwt beam="2">  1       21 0.79755290E-01 0.12109310E+03</pdfrwt>
<totfact> 0.22563129E+05</totfact>
</mgrwt>
</event>
<event>
 5    1  0.1708429E+000  0.1220551E+03  0.7546771E-02  0.1239745E+00
         21   -1    0    0  503  502  0.00000000000E+00  0.00000000000E+00  0.10520018676E+03  0.10520018676E+03  0.00000000000E+00 0.  1.
         21   -1    0    0  501  503 -0.00000000000E+00 -0.00000000000E+00 -0.34561057743E+03  0.34561057743E+03  0.00000000000E+00 0.  1.
         24    1    1    2    0    0 -0.84025408536E+02  0.65186283293E+02 -0.27717368107E+03  0.30757435888E+03  0.80419002446E+02 0.  1.
          1    1    1    2  501    0  0.34524000868E+02 -0.85623595946E+01 -0.26981935095E+02  0.44645777619E+02  0.00000000000E+00 0. -1.
         -2    1    1    2    0  502  0.49501407668E+02 -0.56623923698E+02  0.63745225494E+02  0.98590627695E+02  0.00000000000E+00 0.  1.
<mgrwt>
<rscale>  2 0.12205506E+03</rscale>
<asrwt>0</asrwt>
<pdfrwt beam="1">  1       21 0.16184644E-01 0.12205506E+03</pdfrwt>
<pdfrwt beam="2">  1       21 0.53170859E-01 0.12205506E+03</pdfrwt>
<totfact> 0.11738120E+05</totfact>
</mgrwt>
</event>
<event>
 5    1  0.1708429E+000  0.6837513E+02  0.7546771E-02  0.1365707E+00
         21   -1    0    0  501  502  0.00000000000E+00  0.00000000000E+00  0.95786270610E+02  0.95786270610E+02  0.00000000000E+00 0. -1.
         21   -1    0    0  502  503 -0.00000000000E+00 -0.00000000000E+00 -0.76925063833E+02  0.76925063833E+02  0.00000000000E+00 0. -1.
         24    1    1    2    0    0  0.11544389490E+02  0.23710993804E+01 -0.40499449641E+02  0.90809230900E+02  0.80419002446E+02 0. -1.
          1    1    1    2  501    0 -0.32767800933E+02 -0.75495336748E+01  0.43115869349E+02  0.54678171388E+02  0.00000000000E+00 0. -1.
         -2    1    1    2    0  503  0.21223411443E+02  0.51784342944E+01  0.16244787070E+02  0.27223932155E+02  0.00000000000E+00 0.  1.
<mgrwt>
<rscale>  2 0.68375134E+02</rscale>
<asrwt>0</asrwt>
<pdfrwt beam="1">  1       21 0.14736349E-01 0.68375134E+02</pdfrwt>
<pdfrwt beam="2">  1       21 0.11834625E-01 0.68375134E+02</pdfrwt>
<totfact> 0.23525175E+06</totfact>
</mgrwt>
</event>
<event>
 5    1  0.1708429E+000  0.7256489E+02  0.7546771E-02  0.1351582E+00
         21   -1    0    0  503  502  0.00000000000E+00  0.00000000000E+00  0.31989830820E+02  0.31989830820E+02  0.00000000000E+00 0.  1.
         21   -1    0    0  501  503 -0.00000000000E+00 -0.00000000000E+00 -0.16781039791E+03  0.16781039791E+03  0.00000000000E+00 0. -1.
         24    1    1    2    0    0  0.13165147939E+02 -0.98264406276E+01 -0.79401668686E+02  0.11420035464E+03  0.80419002446E+02 0.  1.
          1    1    1    2  501    0  0.23346344337E+02 -0.45937412220E+01 -0.29962281836E+02  0.38260849248E+02  0.00000000000E+00 0. -1.
         -2    1    1    2    0  502 -0.36511492276E+02  0.14420181850E+02 -0.26456616568E+02  0.47339024842E+02  0.00000000000E+00 0.  1.
<mgrwt>
<rscale>  2 0.72564888E+02</rscale>
<asrwt>0</asrwt>
<pdfrwt beam="1">  1       21 0.49215125E-02 0.72564888E+02</pdfrwt>
<pdfrwt beam="2">  1       21 0.25816984E-01 0.72564888E+02</pdfrwt>
<totfact> 0.37710714E+06</totfact>
</mgrwt>
</event>
<event>
 5    1  0.1708429E+000  0.7327143E+02  0.7546771E-02  0.1349309E+00
         21   -1    0    0  503  502  0.00000000000E+00  0.00000000000E+00  0.69115045010E+02  0.69115045010E+02  0.00000000000E+00 0.  1.
         21   -1    0    0  501  503 -0.00000000000E+00 -0.00000000000E+00 -0.29425606061E+03  0.29425606061E+03  0.00000000000E+00 0. -1.
         24    1    1    2    0    0  0.18059844557E+01 -0.62629912150E+01 -0.62844547746E+02  0.10226993583E+03  0.80419002446E+02 0. -1.
          1    1    1    2  501    0  0.26889349163E+02 -0.14397144101E+02 -0.20409003196E+03  0.20635662336E+03  0.00000000000E+00 0. -1.
         -2    1    1    2    0  502 -0.28695333618E+02  0.20660135316E+02  0.41793564112E+02  0.54744546431E+02  0.00000000000E+00 0.  1.
<mgrwt>
<rscale>  2 0.73271427E+02</rscale>
<asrwt>0</asrwt>
<pdfrwt beam="1">  1       21 0.10633084E-01 0.73271427E+02</pdfrwt>
<pdfrwt beam="2">  1       21 0.45270163E-01 0.73271427E+02</pdfrwt>
<totfact> 0.34761520E+05</totfact>
</mgrwt>
</event>
<event>
 5    1  0.1708429E+000  0.1449318E+03  0.7546771E-02  0.1206843E+00
         21   -1    0    0  503  502  0.00000000000E+00  0.00000000000E+00  0.15661186960E+04  0.15661186960E+04  0.00000000000E+00 0.  1.
         21   -1    0    0  501  503 -0.00000000000E+00 -0.00000000000E+00 -0.45397226162E+02  0.45397226162E+02  0.00000000000E+00 0. -1.
         24    1    1    2    0    0 -0.69023751173E+01 -0.76231464105E+02  0.83010444348E+02  0.13862477674E+03  0.80419002446E+02 0.  0.
          1    1    1    2  501    0  0.61632505347E+02 -0.22781580759E+02  0.55365285820E+02  0.85923692955E+02  0.00000000000E+00 0. -1.
         -2    1    1    2    0  502 -0.54730130230E+02  0.99013044864E+02  0.13823457396E+04  0.13869674524E+04  0.00000000000E+00 0.  1.
<mgrwt>
<rscale>  2 0.14493184E+03</rscale>
<asrwt>0</asrwt>
<pdfrwt beam="1">  1       21 0.24094130E+00 0.14493184E+03</pdfrwt>
<pdfrwt beam="2">  1       21 0.69841898E-02 0.14493184E+03</pdfrwt>
<totfact> 0.11983652E+04</totfact>
</mgrwt>
</event>
<event>
 5    1  0.1708429E+000  0.8070226E+02  0.7546771E-02  0.1327070E+00
         21   -1    0    0  503  502  0.00000000000E+00  0.00000000000E+00  0.10502012494E+02  0.10502012494E+02  0.00000000000E+00 0.  1.
         21   -1    0    0  501  503 -0.00000000000E+00 -0.00000000000E+00 -0.68824865706E+03  0.68824865706E+03  0.00000000000E+00 0.  1.
         24    1    1    2    0    0 -0.30583514192E+02  0.29597676485E+02 -0.32602807106E+03  0.33848617825E+03  0.80419002446E+02 0.  1.
          1    1    1    2  501    0  0.31637729782E+02  0.81377954884E+01 -0.24283645621E+03  0.24502390521E+03  0.00000000000E+00 0. -1.
         -2    1    1    2    0  502 -0.10542155896E+01 -0.37735471973E+02 -0.10888211730E+03  0.11524058610E+03  0.00000000000E+00 0.  1.
<mgrwt>
<rscale>  2 0.80702257E+02</rscale>
<asrwt>0</asrwt>
<pdfrwt beam="1">  1       21 0.16156944E-02 0.80702257E+02</pdfrwt>
<pdfrwt beam="2">  1       21 0.10588439E+00 0.80702257E+02</pdfrwt>
<totfact> 0.12463750E+06</totfact>
</mgrwt>
</event>
<event>
 5    1  0.1708429E+000  0.1033396E+03  0.7546771E-02  0.1273426E+00
         21   -1    0    0  503  502  0.00000000000E+00  0.00000000000E+00  0.32117468268E+03  0.32117468268E+03  0.00000000000E+00 0. -1.
         21   -1    0    0  501  503 -0.00000000000E+00 -0.00000000000E+00 -0.44702908277E+02  0.44702908277E+02  0.00000000000E+00 0. -1.
         24    1    1    2    0    0 -0.29569753182E+02 -0.75188273751E+02  0.18813205937E+03  0.21997394057E+03  0.80419002446E+02 0.  0.
          1    1    1    2  501    0  0.41753354194E+02  0.54224921323E+02  0.16945040160E+02  0.70504035806E+02  0.00000000000E+00 0. -1.
         -2    1    1    2    0  502 -0.12183601013E+02  0.20963352428E+02  0.71394674864E+02  0.75399614572E+02  0.00000000000E+00 0.  1.
<mgrwt>
<rscale>  2 0.10333958E+03</rscale>
<asrwt>0</asrwt>
<pdfrwt beam="1">  1       21 0.49411488E-01 0.10333958E+03</pdfrwt>
<pdfrwt beam="2">  1       21 0.68773707E-02 0.10333958E+03</pdfrwt>
<totfact> 0.61371067E+05</totfact>
</mgrwt>
</event>
<event>
 5    1  0.1708429E+000  0.7719230E+02  0.7546771E-02  0.1337214E+00
         21   -1    0    0  503  502  0.00000000000E+00  0.00000000000E+00  0.53194180800E+02  0.53194180800E+02  0.00000000000E+00 0. -1.
         21   -1    0    0  501  503 -0.00000000000E+00 -0.00000000000E+00 -0.13655057103E+03  0.13655057103E+03  0.00000000000E+00 0.  1.
         24    1    1    2    0    0  0.37275662431E+01 -0.48815693809E+02 -0.22130109280E+02  0.96715171526E+02  0.80419002446E+02 0. -1.
          1    1    1    2  501    0 -0.17518692985E+02  0.12879295165E+02 -0.47366091784E+02  0.52118398851E+02  0.00000000000E+00 0. -1.
         -2    1    1    2    0  502  0.13791126742E+02  0.35936398644E+02 -0.13860189167E+02  0.40911181455E+02  0.00000000000E+00 0.  1.
<mgrwt>
<rscale>  2 0.77192299E+02</rscale>
<asrwt>0</asrwt>
<pdfrwt beam="1">  1       21 0.81837201E-02 0.77192299E+02</pdfrwt>
<pdfrwt beam="2">  1       21 0.21007780E-01 0.77192299E+02</pdfrwt>
<totfact> 0.23607992E+06</totfact>
</mgrwt>
</event>
<event>
 5    1  0.1708429E+000  0.6740590E+02  0.7546771E-02  0.1369143E+00
         21   -1    0    0  503  502  0.00000000000E+00  0.00000000000E+00  0.18865900358E+03  0.18865900358E+03  0.00000000000E+00 0. -1.
         21   -1    0    0  501  503 -0.00000000000E+00 -0.00000000000E+00 -0.36099178033E+02  0.36099178033E+02  0.00000000000E+00 0.  1.
         24    1    1    2    0    0  0.11641706917E+01  0.33552301821E+02  0.58483320197E+02  0.10495059288E+03  0.80419002446E+02 0.  1.
          1    1    1    2  501    0 -0.17041636652E+02 -0.11768256738E+02 -0.12453495300E+01  0.20747533392E+02  0.00000000000E+00 0. -1.
         -2    1    1    2    0  502  0.15877465960E+02 -0.21784045083E+02  0.95321854876E+02  0.99060055333E+02  0.00000000000E+00 0.  1.
<mgrwt>
<rscale>  2 0.67405900E+02</rscale>
<asrwt>0</asrwt>
<pdfrwt beam="1">  1       21 0.29024461E-01 0.67405900E+02</pdfrwt>
<pdfrwt beam="2">  1       21 0.55537198E-02 0.67405900E+02</pdfrwt>
<totfact> 0.24671051E+06</totfact>
</mgrwt>
</event>
<event>
 5    1  0.1708429E+000  0.7015669E+02  0.7546771E-02  0.1359561E+00
         21   -1    0    0  501  502  0.00000000000E+00  0.00000000000E+00  0.24782328586E+03  0.24782328586E+03  0.00000000000E+00 0. -1.
         21   -1    0    0  502  503 -0.00000000000E+00 -0.00000000000E+00 -0.46276430590E+02  0.46276430590E+02  0.00000000000E+00 0. -1.
         24    1    1    2    0    0 -0.46791165326E+02 -0.54373048428E+01  0.23666088419E+02  0.96157564091E+02  0.80419002446E+02 0. -1.
          1    1    1    2  501    0  0.26295674677E+02  0.26328228245E+01  0.17508429509E+03  0.17706751438E+03  0.00000000000E+00 0. -1.
         -2    1    1    2    0  503  0.20495490649E+02  0.28044820182E+01  0.27964717619E+01  0.20874637976E+02  0.00000000000E+00 0.  1.
<mgrwt>
<rscale>  2 0.70156688E+02</rscale>
<asrwt>0</asrwt>
<pdfrwt beam="1">  1       21 0.38126659E-01 0.70156688E+02</pdfrwt>
<pdfrwt beam="2">  1       21 0.71194510E-02 0.70156688E+02</pdfrwt>
<totfact> 0.96705259E+05</totfact>
</mgrwt>
</event>
<event>
 5    1  0.1708429E+000  0.6509402E+02  0.7546771E-02  0.1377618E+00
         21   -1    0    0  503  502  0.00000000000E+00  0.00000000000E+00  0.10134686905E+03  0.10134686905E+03  0.00000000000E+00 0.  1.
         21   -1    0    0  501  503 -0.00000000000E+00 -0.00000000000E+00 -0.11277117176E+03  0.11277117176E+03  0.00000000000E+00 0. -1.
         24    1    1    2    0    0  0.41840597045E+01 -0.90940935648E+01  0.43367911213E+02  0.91914093428E+02  0.80419002446E+02 0.  1.
          1    1    1    2  501    0 -0.22225902591E+02 -0.86436326818E+01 -0.81794757337E+02  0.85200266782E+02  0.00000000000E+00 0. -1.
         -2    1    1    2    0  502  0.18041842887E+02  0.17737726247E+02  0.27002543415E+02  0.37003680601E+02  0.00000000000E+00 0.  1.
<mgrwt>
<rscale>  2 0.65094019E+02</rscale>
<asrwt>0</asrwt>
<pdfrwt beam="1">  1       21 0.15591826E-01 0.65094019E+02</pdfrwt>
<pdfrwt beam="2">  1       21 0.17349411E-01 0.65094019E+02</pdfrwt>
<totfact> 0.10820739E+06</totfact>
</mgrwt>
</event>
<event>
 5    1  0.1708429E+000  0.8657426E+02  0.7546771E-02  0.1311366E+00
         21   -1    0    0  501  502  0.00000000000E+00  0.00000000000E+00  0.50613633323E+02  0.50613633323E+02  0.00000000000E+00 0.  1.
         21   -1    0    0  502  503 -0.00000000000E+00 -0.00000000000E+00 -0.30712285543E+03  0.30712285543E+03  0.00000000000E+00 0.  1.
         24    1    1    2    0    0 -0.57544417362E+02  0.13602216999E+02 -0.19211083284E+02  0.10164970217E+03  0.80419002446E+02 0.  1.
          1    1    1    2  501    0  0.27909221095E+02  0.15390948422E+02 -0.27089691813E+02  0.41828905293E+02  0.00000000000E+00 0. -1.
         -2    1    1    2    0  503  0.29635196267E+02 -0.28993165421E+02 -0.21020844701E+03  0.21425788128E+03  0.00000000000E+00 0.  1.
<mgrwt>
<rscale>  2 0.86574262E+02</rscale>
<asrwt>0</asrwt>
<pdfrwt beam="1">  1       21 0.77867129E-02 0.86574262E+02</pdfrwt>
<pdfrwt beam="2">  1       21 0.47249669E-01 0.86574262E+02</pdfrwt>
<totfact> 0.54415579E+05</totfact>
</mgrwt>
</event>
<event>
 5    1  0.1708429E+000  0.9017684E+02  0.7546771E-02  0.1302424E+00
         21   -1    0    0  501  502  0.00000000000E+00  0.00000000000E+00  0.90795882255E+01  0.90795882255E+01  0.00000000000E+00 0.  1.
         21   -1    0    0  502  503 -0.00000000000E+00 -0.00000000000E+00 -0.11745379204E+04  0.11745379204E+04  0.00000000000E+00 0.  1.
         24    1    1    2    0    0  0.69679292079E+02 -0.98625537226E+01 -0.44037214725E+03  0.45315264287E+03  0.80419002446E+02 0.  1.
          1    1    1    2  501    0 -0.49712630023E+02 -0.28942039752E+01 -0.25703094654E+03  0.26181029292E+03  0.00000000000E+00 0. -1.
         -2    1    1    2    0  503 -0.19966662056E+02  0.12756757698E+02 -0.46805523839E+03  0.46865457284E+03  0.00000000000E+00 0.  1.
<mgrwt>
<rscale>  2 0.90176844E+02</rscale>
<asrwt>0</asrwt>
<pdfrwt beam="1">  1       21 0.13968596E-02 0.90176844E+02</pdfrwt>
<pdfrwt beam="2">  1       21 0.18069816E+00 0.90176844E+02</pdfrwt>
<totfact> 0.41198961E+05</totfact>
</mgrwt>
</event>
<event>
 5    1  0.1708429E+000  0.2080700E+03  0.7546771E-02  0.1143103E+00
         21   -1    0    0  501  502  0.00000000000E+00  0.00000000000E+00  0.28435157073E+03  0.28435157073E+03  0.00000000000E+00 0.  1.
         21   -1    0    0  502  503 -0.00000000000E+00 -0.00000000000E+00 -0.19144207768E+03  0.19144207768E+03  0.00000000000E+00 0.  1.
         24    1    1    2    0    0 -0.74668698466E+01  0.19364682645E+03  0.88386903565E+02  0.22767149188E+03  0.80419002446E+02 0.  1.
          1    1    1    2  501    0  0.30355256122E+02 -0.36284645315E+02  0.62919671623E+02  0.78720404833E+02  0.00000000000E+00 0. -1.
         -2    1    1    2    0  503 -0.22888386275E+02 -0.15736218113E+03 -0.58397082143E+02  0.16940175170E+03  0.00000000000E+00 0.  1.
<mgrwt>
<rscale>  2 0.20807004E+03</rscale>
<asrwt>0</asrwt>
<pdfrwt beam="1">  1       21 0.43746395E-01 0.20807004E+03</pdfrwt>
<pdfrwt beam="2">  1       21 0.29452627E-01 0.20807004E+03</pdfrwt>
<totfact> 0.55056555E+04</totfact>
</mgrwt>
</event>
<event>
 5    1  0.1708429E+000  0.1278106E+03  0.7546771E-02  0.1230741E+00
         21   -1    0    0  503  502  0.00000000000E+00  0.00000000000E+00  0.12395539684E+03  0.12395539684E+03  0.00000000000E+00 0. -1.
         21   -1    0    0  501  503 -0.00000000000E+00 -0.00000000000E+00 -0.14338421498E+03  0.14338421498E+03  0.00000000000E+00 0.  1.
         24    1    1    2    0    0  0.41718482356E+02 -0.10687917452E+03  0.20724018870E+02  0.14163435540E+03  0.80419002446E+02 0.  1.
          1    1    1    2  501    0 -0.39144152232E+02  0.86189867365E+02 -0.44190655883E+02  0.10446899998E+03  0.00000000000E+00 0. -1.
         -2    1    1    2    0  502 -0.25743301238E+01  0.20689307156E+02  0.40378188710E+01  0.21236256436E+02  0.00000000000E+00 0.  1.
<mgrwt>
<rscale>  2 0.12781058E+03</rscale>
<asrwt>0</asrwt>
<pdfrwt beam="1">  1       21 0.19070061E-01 0.12781058E+03</pdfrwt>
<pdfrwt beam="2">  1       21 0.22059110E-01 0.12781058E+03</pdfrwt>
<totfact> 0.48848892E+05</totfact>
</mgrwt>
</event>
<event>
 5    1  0.1708429E+000  0.9615732E+02  0.7546771E-02  0.1288591E+00
         21   -1    0    0  503  502  0.00000000000E+00  0.00000000000E+00  0.98525250270E+02  0.98525250270E+02  0.00000000000E+00 0.  1.
         21   -1    0    0  501  503 -0.00000000000E+00 -0.00000000000E+00 -0.20279369313E+03  0.20279369313E+03  0.00000000000E+00 0. -1.
         24    1    1    2    0    0  0.61617551036E+01  0.42264559067E+00 -0.44771736449E+02  0.92248957687E+02  0.80419002446E+02 0.  0.
          1    1    1    2  501    0  0.10442653284E+02  0.53875689288E+02 -0.11639716372E+03  0.12868542507E+03  0.00000000000E+00 0. -1.
         -2    1    1    2    0  502 -0.16604408387E+02 -0.54298334878E+02  0.56900457306E+02  0.80384560645E+02  0.00000000000E+00 0.  1.
<mgrwt>
<rscale>  2 0.96157320E+02</rscale>
<asrwt>0</asrwt>
<pdfrwt beam="1">  1       21 0.15157731E-01 0.96157320E+02</pdfrwt>
<pdfrwt beam="2">  1       21 0.31199029E-01 0.96157320E+02</pdfrwt>
<totfact> 0.38552605E+05</totfact>
</mgrwt>
</event>
<event>
 5    1  0.1708429E+000  0.7532563E+02  0.7546771E-02  0.1342866E+00
         21   -1    0    0  501  502  0.00000000000E+00  0.00000000000E+00  0.16050470058E+03  0.16050470058E+03  0.00000000000E+00 0. -1.
         21   -1    0    0  502  503 -0.00000000000E+00 -0.00000000000E+00 -0.46908091493E+02  0.46908091493E+02  0.00000000000E+00 0.  1.
         24    1    1    2    0    0  0.23248495804E+02 -0.36354354260E+01  0.71098046837E+02  0.10989020505E+03  0.80419002446E+02 0.  0.
          1    1    1    2  501    0 -0.43715376908E+02  0.11052491936E+02  0.56007041452E+02  0.71902576090E+02  0.00000000000E+00 0. -1.
         -2    1    1    2    0  503  0.20466881104E+02 -0.74170565101E+01 -0.13508479207E+02  0.25620010927E+02  0.00000000000E+00 0.  1.
<mgrwt>
<rscale>  2 0.75325634E+02</rscale>
<asrwt>0</asrwt>
<pdfrwt beam="1">  1       21 0.24693031E-01 0.75325634E+02</pdfrwt>
<pdfrwt beam="2">  1       21 0.72166295E-02 0.75325634E+02</pdfrwt>
<totfact> 0.21662972E+06</totfact>
</mgrwt>
</event>
<event>
 5    1  0.1708429E+000  0.1022851E+03  0.7546771E-02  0.1275563E+00
         21   -1    0    0  503  502  0.00000000000E+00  0.00000000000E+00  0.49028387518E+03  0.49028387518E+03  0.00000000000E+00 0.  1.
         21   -1    0    0  501  503 -0.00000000000E+00 -0.00000000000E+00 -0.77667453601E+02  0.77667453601E+02  0.00000000000E+00 0.  1.
         24    1    1    2    0    0 -0.27220821242E+02 -0.74354433874E+02  0.46426903181E+01  0.11295275771E+03  0.80419002446E+02 0.  1.
          1    1    1    2  501    0  0.51550865362E+01  0.68754861497E+02  0.28117408291E+02  0.74460691279E+02  0.00000000000E+00 0. -1.
         -2    1    1    2    0  502  0.22065734706E+02  0.55995723766E+01  0.37985632297E+03  0.38053787980E+03  0.00000000000E+00 0.  1.
<mgrwt>
<rscale>  2 0.10228515E+03</rscale>
<asrwt>0</asrwt>
<pdfrwt beam="1">  1       21 0.75428287E-01 0.10228515E+03</pdfrwt>
<pdfrwt beam="2">  1       21 0.11948839E-01 0.10228515E+03</pdfrwt>
<totfact> 0.96498859E+04</totfact>
</mgrwt>
</event>
<event>
 5    1  0.1708429E+000  0.6502750E+02  0.7546771E-02  0.1377868E+00
         21   -1    0    0  501  502  0.00000000000E+00  0.00000000000E+00  0.13475156135E+04  0.13475156135E+04  0.00000000000E+00 0. -1.
         21   -1    0    0  502  503 -0.00000000000E+00 -0.00000000000E+00 -0.65614600146E+02  0.65614600146E+02  0.00000000000E+00 0.  1.
         24    1    1    2    0    0 -0.10263059119E+02 -0.11250139260E+02  0.37738494491E+02  0.90129384424E+02  0.80419002446E+02 0. -1.
          1    1    1    2  501    0 -0.13036840558E+02  0.19528350399E+02  0.12795856996E+04  0.12798011089E+04  0.00000000000E+00 0. -1.
         -2    1    1    2    0  503  0.23299899677E+02 -0.82782111386E+01 -0.35423180731E+02  0.43199720343E+02  0.00000000000E+00 0.  1.
<mgrwt>
<rscale>  2 0.65027502E+02</rscale>
<asrwt>0</asrwt>
<pdfrwt beam="1">  1       21 0.20731007E+00 0.65027502E+02</pdfrwt>
<pdfrwt beam="2">  1       21 0.10094555E-01 0.65027502E+02</pdfrwt>
<totfact> 0.11344365E+04</totfact>
</mgrwt>
</event>
<event>
 5    1  0.1708429E+000  0.1899996E+03  0.7546771E-02  0.1158462E+00
         21   -1    0    0  501  502  0.00000000000E+00  0.00000000000E+00  0.14883950603E+03  0.14883950603E+03  0.00000000000E+00 0. -1.
         21   -1    0    0  502  503 -0.00000000000E+00 -0.00000000000E+00 -0.28578772245E+03  0.28578772245E+03  0.00000000000E+00 0. -1.
         24    1    1    2    0    0 -0.72042648631E+02 -0.15081946524E+03  0.11692192001E+02  0.18585095541E+03  0.80419002446E+02 0. -1.
          1    1    1    2  501    0  0.54850791806E+02  0.16395105477E+03 -0.11126927361E+03  0.20559525523E+03  0.00000000000E+00 0. -1.
         -2    1    1    2    0  503  0.17191856825E+02 -0.13131589531E+02 -0.37371134815E+02  0.43181017845E+02  0.00000000000E+00 0.  1.
<mgrwt>
<rscale>  2 0.18999958E+03</rscale>
<asrwt>0</asrwt>
<pdfrwt beam="1">  1       21 0.22898385E-01 0.18999958E+03</pdfrwt>
<pdfrwt beam="2">  1       21 0.43967342E-01 0.18999958E+03</pdfrwt>
<totfact> 0.89040813E+04</totfact>
</mgrwt>
</event>
<event>
 5    1  0.1708429E+000  0.8149539E+02  0.7546771E-02  0.1324861E+00
         21   -1    0    0  503  502  0.00000000000E+00  0.00000000000E+00  0.19469566163E+04  0.19469566163E+04  0.00000000000E+00 0. -1.
         21   -1    0    0  501  503 -0.00000000000E+00 -0.00000000000E+00 -0.21597634718E+02  0.21597634718E+02  0.00000000000E+00 0.  1.
         24    1    1    2    0    0  0.36041970089E+02  0.49810996700E+02  0.71512408718E+03  0.72225330392E+03  0.80419002446E+02 0. -1.
          1    1    1    2  501    0 -0.17054235425E+02 -0.18656377158E+02 -0.87665050373E+01  0.26753671994E+02  0.00000000000E+00 0. -1.
         -2    1    1    2    0  502 -0.18987734664E+02 -0.31154619541E+02  0.12190013994E+04  0.12195472751E+04  0.00000000000E+00 0.  1.
<mgrwt>
<rscale>  2 0.81495393E+02</rscale>
<asrwt>0</asrwt>
<pdfrwt beam="1">  1       21 0.29953165E+00 0.81495393E+02</pdfrwt>
<pdfrwt beam="2">  1       21 0.33227146E-02 0.81495393E+02</pdfrwt>
<totfact> 0.21465630E+04</totfact>
</mgrwt>
</event>
<event>
 5    1  0.1708429E+000  0.9100318E+02  0.7546771E-02  0.1300440E+00
         21   -1    0    0  503  502  0.00000000000E+00  0.00000000000E+00  0.16591256476E+03  0.16591256476E+03  0.00000000000E+00 0.  1.
         21   -1    0    0  501  503 -0.00000000000E+00 -0.00000000000E+00 -0.75697823355E+02  0.75697823355E+02  0.00000000000E+00 0.  1.
         24    1    1    2    0    0  0.57761879087E+02  0.10138690675E+02 -0.16403588696E+02  0.10087378946E+03  0.80419002446E+02 0.  1.
          1    1    1    2  501    0 -0.42265435339E+01  0.20406008783E+02  0.42854649525E+01  0.21275198578E+02  0.00000000000E+00 0. -1.
         -2    1    1    2    0  502 -0.53535335553E+02 -0.30544699458E+02  0.10233286515E+03  0.11946140007E+03  0.00000000000E+00 0.  1.
<mgrwt>
<rscale>  2 0.91003177E+02</rscale>
<asrwt>0</asrwt>
<pdfrwt beam="1">  1       21 0.25525010E-01 0.91003177E+02</pdfrwt>
<pdfrwt beam="2">  1       21 0.11645819E-01 0.91003177E+02</pdfrwt>
<totfact> 0.89981426E+05</totfact>
</mgrwt>
</event>
<event>
 5    1  0.1708429E+000  0.7214034E+02  0.7546771E-02  0.1352962E+00
         21   -1    0    0  503  502  0.00000000000E+00  0.00000000000E+00  0.79569255767E+02  0.79569255767E+02  0.00000000000E+00 0.  1.
         21   -1    0    0  501  503 -0.00000000000E+00 -0.00000000000E+00 -0.21660485471E+03  0.21660485471E+03  0.00000000000E+00 0.  1.
         24    1    1    2    0    0  0.82265648605E+01 -0.14751360059E+02 -0.72775428589E+02  0.10976683449E+03  0.80419002446E+02 0.  1.
          1    1    1    2  501    0 -0.14948139080E+02 -0.20973579259E+02 -0.11841474319E+03  0.12118328801E+03  0.00000000000E+00 0. -1.
         -2    1    1    2    0  502  0.67215742198E+01  0.35724939318E+02  0.54154572832E+02  0.65223987979E+02  0.00000000000E+00 0.  1.
<mgrwt>
<rscale>  2 0.72140339E+02</rscale>
<asrwt>0</asrwt>
<pdfrwt beam="1">  1       21 0.12241424E-01 0.72140339E+02</pdfrwt>
<pdfrwt beam="2">  1       21 0.33323823E-01 0.72140339E+02</pdfrwt>
<totfact> 0.49593005E+05</totfact>
</mgrwt>
</event>
<event>
 5    1  0.1708429E+000  0.6947907E+02  0.7546771E-02  0.1361874E+00
         21   -1    0    0  503  502  0.00000000000E+00  0.00000000000E+00  0.21655591023E+02  0.21655591023E+02  0.00000000000E+00 0.  1.
         21   -1    0    0  501  503 -0.00000000000E+00 -0.00000000000E+00 -0.23830227264E+03  0.23830227264E+03  0.00000000000E+00 0. -1.
         24    1    1    2    0    0 -0.49829923067E+01 -0.26146676078E+02 -0.15102552478E+03  0.17316005305E+03  0.80419002446E+02 0.  1.
          1    1    1    2  501    0  0.25956434810E+02  0.18705735451E+02 -0.50882444003E+02  0.60105441971E+02  0.00000000000E+00 0. -1.
         -2    1    1    2    0  502 -0.20973442503E+02  0.74409406275E+01 -0.14738712835E+02  0.26692368645E+02  0.00000000000E+00 0.  1.
<mgrwt>
<rscale>  2 0.69479071E+02</rscale>
<asrwt>0</asrwt>
<pdfrwt beam="1">  1       21 0.33316294E-02 0.69479071E+02</pdfrwt>
<pdfrwt beam="2">  1       21 0.36661887E-01 0.69479071E+02</pdfrwt>
<totfact> 0.36550621E+06</totfact>
</mgrwt>
</event>
<event>
 5    1  0.1708429E+000  0.7106554E+02  0.7546771E-02  0.1356507E+00
         21   -1    0    0  501  502  0.00000000000E+00  0.00000000000E+00  0.14339445671E+03  0.14339445671E+03  0.00000000000E+00 0.  1.
         21   -1    0    0  502  503 -0.00000000000E+00 -0.00000000000E+00 -0.37103907024E+02  0.37103907024E+02  0.00000000000E+00 0. -1.
         24    1    1    2    0    0 -0.26166945727E+02 -0.26870885576E+02  0.70556354597E+02  0.11336740567E+03  0.80419002446E+02 0.  0.
          1    1    1    2  501    0  0.17977061687E+01  0.28887280613E+02  0.30648977950E+02  0.42155267501E+02  0.00000000000E+00 0. -1.
         -2    1    1    2    0  503  0.24369239558E+02 -0.20163950371E+01  0.50852171381E+01  0.24975690560E+02  0.00000000000E+00 0.  1.
<mgrwt>
<rscale>  2 0.71065537E+02</rscale>
<asrwt>0</asrwt>
<pdfrwt beam="1">  1       21 0.22060685E-01 0.71065537E+02</pdfrwt>
<pdfrwt beam="2">  1       21 0.57082935E-02 0.71065537E+02</pdfrwt>
<totfact> 0.39383846E+06</totfact>
</mgrwt>
</event>
<event>
 5    1  0.1708429E+000  0.7026643E+02  0.7546771E-02  0.1359189E+00
         21   -1    0    0  503  502  0.00000000000E+00  0.00000000000E+00  0.16784630519E+03  0.16784630519E+03  0.00000000000E+00 0. -1.
         21   -1    0    0  501  503 -0.00000000000E+00 -0.00000000000E+00 -0.12002570176E+03  0.12002570176E+03  0.00000000000E+00 0. -1.
         24    1    1    2    0    0  0.87587166302E+01  0.29332096158E+02  0.13332506481E+03  0.15868168087E+03  0.80419002446E+02 0. -1.
          1    1    1    2  501    0  0.18428923623E+02 -0.88417973099E+01 -0.92247193956E+02  0.94484641071E+02  0.00000000000E+00 0. -1.
         -2    1    1    2    0  502 -0.27187640254E+02 -0.20490298848E+02  0.67427325815E+01  0.34705685011E+02  0.00000000000E+00 0.  1.
<mgrwt>
<rscale>  2 0.70266432E+02</rscale>
<asrwt>0</asrwt>
<pdfrwt beam="1">  1       21 0.25822509E-01 0.70266432E+02</pdfrwt>
<pdfrwt beam="2">  1       21 0.18465493E-01 0.70266432E+02</pdfrwt>
<totfact> 0.38743825E+05</totfact>
</mgrwt>
</event>
<event>
 5    1  0.1708429E+000  0.7077851E+02  0.7546771E-02  0.1357466E+00
         21   -1    0    0  503  502  0.00000000000E+00  0.00000000000E+00  0.31315826917E+03  0.31315826917E+03  0.00000000000E+00 0.  1.
         21   -1    0    0  501  503 -0.00000000000E+00 -0.00000000000E+00 -0.52652633780E+02  0.52652633780E+02  0.00000000000E+00 0. -1.
         24    1    1    2    0    0  0.36888423403E+02 -0.26603717502E+02  0.11791188170E+03  0.14979633296E+03  0.80419002446E+02 0. -1.
          1    1    1    2  501    0 -0.20161036538E+02  0.32188931167E+01 -0.32606437785E+02  0.38470877976E+02  0.00000000000E+00 0. -1.
         -2    1    1    2    0  502 -0.16727386865E+02  0.23384824385E+02  0.17520019147E+03  0.17754369201E+03  0.00000000000E+00 0.  1.
<mgrwt>
<rscale>  2 0.70778506E+02</rscale>
<asrwt>0</asrwt>
<pdfrwt beam="1">  1       21 0.48178194E-01 0.70778506E+02</pdfrwt>
<pdfrwt beam="2">  1       21 0.81004054E-02 0.70778506E+02</pdfrwt>
<totfact> 0.48890839E+05</totfact>
</mgrwt>
</event>
<event>
 5    1  0.1708429E+000  0.8112944E+02  0.7546771E-02  0.1325876E+00
         21   -1    0    0  503  502  0.00000000000E+00  0.00000000000E+00  0.54571510713E+03  0.54571510713E+03  0.00000000000E+00 0.  1.
         21   -1    0    0  501  503 -0.00000000000E+00 -0.00000000000E+00 -0.36003866474E+02  0.36003866474E+02  0.00000000000E+00 0. -1.
         24    1    1    2    0    0 -0.21722879942E+02  0.31563267845E+02  0.91912295787E+02  0.12799691192E+03  0.80419002446E+02 0.  0.
          1    1    1    2  501    0 -0.15399948562E+02 -0.32585693670E+02  0.18186026821E+01  0.36087299198E+02  0.00000000000E+00 0. -1.
         -2    1    1    2    0  502  0.37122828504E+02  0.10224258244E+01  0.41598034219E+03  0.41763476249E+03  0.00000000000E+00 0.  1.
<mgrwt>
<rscale>  2 0.81129437E+02</rscale>
<asrwt>0</asrwt>
<pdfrwt beam="1">  1       21 0.83956164E-01 0.81129437E+02</pdfrwt>
<pdfrwt beam="2">  1       21 0.55390568E-02 0.81129437E+02</pdfrwt>
<totfact> 0.28636900E+05</totfact>
</mgrwt>
</event>
<event>
 5    1  0.1708429E+000  0.9267192E+02  0.7546771E-02  0.1296507E+00
         21   -1    0    0  503  502  0.00000000000E+00  0.00000000000E+00  0.30764882435E+02  0.30764882435E+02  0.00000000000E+00 0. -1.
         21   -1    0    0  501  503 -0.00000000000E+00 -0.00000000000E+00 -0.28523796601E+03  0.28523796601E+03  0.00000000000E+00 0. -1.
         24    1    1    2    0    0 -0.59754236940E+02 -0.16918130370E+02 -0.12145949305E+03  0.15835534842E+03  0.80419002446E+02 0. -1.
          1    1    1    2  501    0  0.22247348202E+02  0.35487726206E+02 -0.77875407555E+02  0.88424557195E+02  0.00000000000E+00 0. -1.
         -2    1    1    2    0  502  0.37506888738E+02 -0.18569595836E+02 -0.55138182969E+02  0.69222942826E+02  0.00000000000E+00 0.  1.
<mgrwt>
<rscale>  2 0.92671923E+02</rscale>
<asrwt>0</asrwt>
<pdfrwt beam="1">  1       21 0.47330587E-02 0.92671923E+02</pdfrwt>
<pdfrwt beam="2">  1       21 0.43882765E-01 0.92671923E+02</pdfrwt>
<totfact> 0.14599666E+06</totfact>
</mgrwt>
</event>
<event>
 5    1  0.1708429E+000  0.7420845E+02  0.7546771E-02  0.1346340E+00
         21   -1    0    0  503  502  0.00000000000E+00  0.00000000000E+00  0.83502782855E+02  0.83502782855E+02  0.00000000000E+00 0.  1.
         21   -1    0    0  501  503 -0.00000000000E+00 -0.00000000000E+00 -0.71091247664E+02  0.71091247664E+02  0.00000000000E+00 0. -1.
         24    1    1    2    0    0 -0.38279877109E+02  0.30583872861E+02  0.13247599248E+02  0.95096987917E+02  0.80419002446E+02 0.  1.
          1    1    1    2  501    0  0.25122941270E+02 -0.51989767690E+01 -0.12596637314E+02  0.28580881882E+02  0.00000000000E+00 0. -1.
         -2    1    1    2    0  502  0.13156935839E+02 -0.25384896092E+02  0.11760573258E+02  0.30916160719E+02  0.00000000000E+00 0.  1.
<mgrwt>
<rscale>  2 0.74208448E+02</rscale>
<asrwt>0</asrwt>
<pdfrwt beam="1">  1       21 0.12846582E-01 0.74208448E+02</pdfrwt>
<pdfrwt beam="2">  1       21 0.10937115E-01 0.74208448E+02</pdfrwt>
<totfact> 0.34525584E+06</totfact>
</mgrwt>
</event>
<event>
 5    1  0.1708429E+000  0.8389310E+02  0.7546771E-02  0.1318353E+00
         21   -1    0    0  503  502  0.00000000000E+00  0.00000000000E+00  0.38448674421E+03  0.38448674421E+03  0.00000000000E+00 0.  1.
         21   -1    0    0  501  503 -0.00000000000E+00 -0.00000000000E+00 -0.23274653334E+02  0.23274653334E+02  0.00000000000E+00 0.  1.
         24    1    1    2    0    0  0.41656936388E-01  0.28659127619E+02  0.13437765134E+03  0.15920400895E+03  0.80419002446E+02 0.  0.
          1    1    1    2  501    0 -0.31458858452E+02 -0.38287204280E+02  0.56803469929E+02  0.75380395214E+02  0.00000000000E+00 0. -1.
         -2    1    1    2    0  502  0.31417201515E+02  0.96280766608E+01  0.17003096961E+03  0.17317699339E+03  0.00000000000E+00 0.  1.
<mgrwt>
<rscale>  2 0.83893096E+02</rscale>
<asrwt>0</asrwt>
<pdfrwt beam="1">  1       21 0.59151802E-01 0.83893096E+02</pdfrwt>
<pdfrwt beam="2">  1       21 0.35807162E-02 0.83893096E+02</pdfrwt>
<totfact> 0.12515252E+06</totfact>
</mgrwt>
</event>
<event>
 5    1  0.1708429E+000  0.7669628E+02  0.7546771E-02  0.1338697E+00
         21   -1    0    0  501  502  0.00000000000E+00  0.00000000000E+00  0.19697284534E+03  0.19697284534E+03  0.00000000000E+00 0.  1.
         21   -1    0    0  502  503 -0.00000000000E+00 -0.00000000000E+00 -0.61872767400E+02  0.61872767400E+02  0.00000000000E+00 0.  1.
         24    1    1    2    0    0  0.48299295342E+02  0.14888975370E+02  0.86831584917E+02  0.12869127248E+03  0.80419002446E+02 0.  1.
          1    1    1    2  501    0 -0.33795518571E+02  0.46096890094E+01  0.81867180307E+02  0.88688339254E+02  0.00000000000E+00 0. -1.
         -2    1    1    2    0  503 -0.14503776771E+02 -0.19498664379E+02 -0.33598687279E+02  0.41466001013E+02  0.00000000000E+00 0.  1.
<mgrwt>
<rscale>  2 0.76696285E+02</rscale>
<asrwt>0</asrwt>
<pdfrwt beam="1">  1       21 0.30303514E-01 0.76696285E+02</pdfrwt>
<pdfrwt beam="2">  1       21 0.95188874E-02 0.76696285E+02</pdfrwt>
<totfact> 0.92027242E+05</totfact>
</mgrwt>
</event>
<event>
 5    1  0.1708429E+000  0.1988600E+03  0.7546771E-02  0.1150704E+00
         21   -1    0    0  501  502  0.00000000000E+00  0.00000000000E+00  0.58677259137E+02  0.58677259137E+02  0.00000000000E+00 0. -1.
         21   -1    0    0  502  503 -0.00000000000E+00 -0.00000000000E+00 -0.16961271785E+04  0.16961271785E+04  0.00000000000E+00 0.  1.
         24    1    1    2    0    0 -0.96949378216E+02  0.52020265541E+02 -0.19135464466E+03  0.23492361727E+03  0.80419002446E+02 0.  1.
          1    1    1    2  501    0  0.10635015979E+03  0.77490782165E+02 -0.94359737441E+02  0.16192262923E+03  0.00000000000E+00 0. -1.
         -2    1    1    2    0  503 -0.94007815746E+01 -0.12951104771E+03 -0.13517355372E+04  0.13579581911E+04  0.00000000000E+00 0.  1.
<mgrwt>
<rscale>  2 0.19885996E+03</rscale>
<asrwt>0</asrwt>
<pdfrwt beam="1">  1       21 0.90272711E-02 0.19885996E+03</pdfrwt>
<pdfrwt beam="2">  1       21 0.26094263E+00 0.19885996E+03</pdfrwt>
<totfact> 0.55392730E+03</totfact>
</mgrwt>
</event>
<event>
 5    1  0.1708429E+000  0.6486093E+02  0.7546771E-02  0.1378495E+00
         21   -1    0    0  503  502  0.00000000000E+00  0.00000000000E+00  0.74390718994E+01  0.74390718994E+01  0.00000000000E+00 0.  1.
         21   -1    0    0  501  503 -0.00000000000E+00 -0.00000000000E+00 -0.10731665683E+04  0.10731665683E+04  0.00000000000E+00 0. -1.
         24    1    1    2    0    0  0.18491286331E+02 -0.21676752288E+02 -0.96662359157E+03  0.97038146777E+03  0.80419002446E+02 0. -1.
          1    1    1    2  501    0  0.55746688042E+01  0.19453198263E+02 -0.67316238948E+02  0.70292103974E+02  0.00000000000E+00 0. -1.
         -2    1    1    2    0  502 -0.24065955135E+02  0.22235540243E+01 -0.31787665901E+02  0.39932068472E+02  0.00000000000E+00 0.  1.
<mgrwt>
<rscale>  2 0.64860932E+02</rscale>
<asrwt>0</asrwt>
<pdfrwt beam="1">  1       21 0.11444732E-02 0.64860932E+02</pdfrwt>
<pdfrwt beam="2">  1       21 0.16510247E+00 0.64860932E+02</pdfrwt>
<totfact> 0.72150981E+05</totfact>
</mgrwt>
</event>
<event>
 5    1  0.1708429E+000  0.7979308E+02  0.7546771E-02  0.1329640E+00
         21   -1    0    0  503  502  0.00000000000E+00  0.00000000000E+00  0.21095706470E+02  0.21095706470E+02  0.00000000000E+00 0.  1.
         21   -1    0    0  501  503 -0.00000000000E+00 -0.00000000000E+00 -0.25124545126E+04  0.25124545126E+04  0.00000000000E+00 0. -1.
         24    1    1    2    0    0 -0.18059965382E+02  0.13006656714E+02 -0.38861500046E+03  0.39747222545E+03  0.80419002446E+02 0. -1.
          1    1    1    2  501    0  0.40952357686E+02 -0.27243084138E+02 -0.21080323338E+04  0.21086060803E+04  0.00000000000E+00 0. -1.
         -2    1    1    2    0  502 -0.22892392303E+02  0.14236427425E+02  0.52885281961E+01  0.27471913324E+02  0.00000000000E+00 0.  1.
<mgrwt>
<rscale>  2 0.79793082E+02</rscale>
<asrwt>0</asrwt>
<pdfrwt beam="1">  1       21 0.32454906E-02 0.79793082E+02</pdfrwt>
<pdfrwt beam="2">  1       21 0.38653179E+00 0.79793082E+02</pdfrwt>
<totfact> 0.73140672E+03</totfact>
</mgrwt>
</event>
<event>
 5    1  0.1708429E+000  0.1268678E+03  0.7546771E-02  0.1232179E+00
         21   -1    0    0  501  502  0.00000000000E+00  0.00000000000E+00  0.59965195187E+03  0.59965195187E+03  0.00000000000E+00 0.  1.
         21   -1    0    0  502  503 -0.00000000000E+00 -0.00000000000E+00 -0.27517537374E+02  0.27517537374E+02  0.00000000000E+00 0. -1.
         24    1    1    2    0    0  0.11033031816E+03 -0.19482322633E+02  0.27581808953E+03  0.30837505487E+03  0.80419002446E+02 0. -1.
          1    1    1    2  501    0 -0.23593536184E+02  0.16948950992E+02  0.10046821376E+03  0.10458386044E+03  0.00000000000E+00 0. -1.
         -2    1    1    2    0  503 -0.86736781978E+02  0.25333716404E+01  0.19584811122E+03  0.21421057394E+03  0.00000000000E+00 0.  1.
<mgrwt>
<rscale>  2 0.12686776E+03</rscale>
<asrwt>0</asrwt>
<pdfrwt beam="1">  1       21 0.92254136E-01 0.12686776E+03</pdfrwt>
<pdfrwt beam="2">  1       21 0.42334677E-02 0.12686776E+03</pdfrwt>
<totfact> 0.35865813E+05</totfact>
</mgrwt>
</event>
<event>
 5    1  0.1708429E+000  0.7105930E+02  0.7546771E-02  0.1356527E+00
         21   -1    0    0  503  502  0.00000000000E+00  0.00000000000E+00  0.10895799393E+03  0.10895799393E+03  0.00000000000E+00 0.  1.
         21   -1    0    0  501  503 -0.00000000000E+00 -0.00000000000E+00 -0.37441624179E+03  0.37441624179E+03  0.00000000000E+00 0.  1.
         24    1    1    2    0    0 -0.10723457048E+02 -0.32612598036E+02 -0.27865684304E+03  0.29205380705E+03  0.80419002446E+02 0.  1.
          1    1    1    2  501    0 -0.16572669241E+02  0.13105165305E+02 -0.84980240620E+02  0.87567345622E+02  0.00000000000E+00 0. -1.
         -2    1    1    2    0  502  0.27296126289E+02  0.19507432730E+02  0.98178835809E+02  0.10375308305E+03  0.00000000000E+00 0.  1.
<mgrwt>
<rscale>  2 0.71059298E+02</rscale>
<asrwt>0</asrwt>
<pdfrwt beam="1">  1       21 0.16762768E-01 0.71059298E+02</pdfrwt>
<pdfrwt beam="2">  1       21 0.57602498E-01 0.71059298E+02</pdfrwt>
<totfact> 0.95720347E+04</totfact>
</mgrwt>
</event>
<event>
 5    1  0.1708429E+000  0.1571711E+03  0.7546771E-02  0.1191928E+00
         21   -1    0    0  501  502  0.00000000000E+00  0.00000000000E+00  0.10500519039E+03  0.10500519039E+03  0.00000000000E+00 0. -1.
         21   -1    0    0  502  503 -0.00000000000E+00 -0.00000000000E+00 -0.55702656891E+03  0.55702656891E+03  0.00000000000E+00 0. -1.
         24    1    1    2    0    0  0.43720465468E+01  0.14256277131E+03 -0.15720615647E+03  0.22698953751E+03  0.80419002446E+02 0. -1.
          1    1    1    2  501    0  0.12643957694E+02 -0.12673449201E+03  0.11467712267E+02  0.12787888628E+03  0.00000000000E+00 0. -1.
         -2    1    1    2    0  503 -0.17016004241E+02 -0.15828279300E+02 -0.30628293432E+03  0.30716333551E+03  0.00000000000E+00 0.  1.
<mgrwt>
<rscale>  2 0.15717115E+03</rscale>
<asrwt>0</asrwt>
<pdfrwt beam="1">  1       21 0.16154644E-01 0.15717115E+03</pdfrwt>
<pdfrwt beam="2">  1       21 0.85696397E-01 0.15717115E+03</pdfrwt>
<totfact> 0.41067408E+04</totfact>
</mgrwt>
</event>
<event>
 5    1  0.1708429E+000  0.8781107E+02  0.7546771E-02  0.1308241E+00
         21   -1    0    0  501  502  0.00000000000E+00  0.00000000000E+00  0.25391734223E+03  0.25391734223E+03  0.00000000000E+00 0. -1.
         21   -1    0    0  502  503 -0.00000000000E+00 -0.00000000000E+00 -0.70867476187E+02  0.70867476187E+02  0.00000000000E+00 0.  1.
         24    1    1    2    0    0 -0.46069641377E+02 -0.39455897472E+02  0.17598121468E+02  0.10225502205E+03  0.80419002446E+02 0. -1.
          1    1    1    2  501    0  0.23583007693E+02  0.45811506785E+02  0.18501403332E+03  0.19205479669E+03  0.00000000000E+00 0. -1.
         -2    1    1    2    0  503  0.22486633683E+02 -0.63556093134E+01 -0.19562288745E+02  0.30474999673E+02  0.00000000000E+00 0.  1.
<mgrwt>
<rscale>  2 0.87811065E+02</rscale>
<asrwt>0</asrwt>
<pdfrwt beam="1">  1       21 0.39064206E-01 0.87811065E+02</pdfrwt>
<pdfrwt beam="2">  1       21 0.10902689E-01 0.87811065E+02</pdfrwt>
<totfact> 0.44561921E+05</totfact>
</mgrwt>
</event>
<event>
 5    1  0.1708429E+000  0.9134919E+02  0.7546771E-02  0.1299617E+00
         21   -1    0    0  501  502  0.00000000000E+00  0.00000000000E+00  0.40506267260E+03  0.40506267260E+03  0.00000000000E+00 0.  1.
         21   -1    0    0  502  503 -0.00000000000E+00 -0.00000000000E+00 -0.66200402160E+02  0.66200402160E+02  0.00000000000E+00 0.  1.
         24    1    1    2    0    0 -0.37526902644E+02 -0.60764639468E+02  0.27091648523E+03  0.29148510726E+03  0.80419002446E+02 0.  1.
          1    1    1    2  501    0  0.22118359790E+01  0.24233907264E+02  0.11071865838E+03  0.11336135053E+03  0.00000000000E+00 0. -1.
         -2    1    1    2    0  503  0.35315066665E+02  0.36530732205E+02 -0.42772873178E+02  0.66416616964E+02  0.00000000000E+00 0.  1.
<mgrwt>
<rscale>  2 0.91349193E+02</rscale>
<asrwt>0</asrwt>
<pdfrwt beam="1">  1       21 0.62317333E-01 0.91349193E+02</pdfrwt>
<pdfrwt beam="2">  1       21 0.10184678E-01 0.91349193E+02</pdfrwt>
<totfact> 0.19340663E+05</totfact>
</mgrwt>
</event>
<event>
 5    1  0.1708429E+000  0.6964516E+02  0.7546771E-02  0.1361304E+00
         21   -1    0    0  503  502  0.00000000000E+00  0.00000000000E+00  0.97839143357E+03  0.97839143357E+03  0.00000000000E+00 0.  1.
         21   -1    0    0  501  503 -0.00000000000E+00 -0.00000000000E+00 -0.32458199614E+02  0.32458199614E+02  0.00000000000E+00 0.  1.
         24    1    1    2    0    0  0.78449741055E+01 -0.15385051562E+02  0.10350429564E+03  0.13220665112E+03  0.80419002446E+02 0.  1.
          1    1    1    2  501    0 -0.12607485473E+02 -0.18737767815E+02 -0.10579170095E+02  0.24939355897E+02  0.00000000000E+00 0. -1.
         -2    1    1    2    0  502  0.47625113678E+01  0.34122819377E+02  0.85300810840E+03  0.85370362616E+03  0.00000000000E+00 0.  1.
<mgrwt>
<rscale>  2 0.69645163E+02</rscale>
<asrwt>0</asrwt>
<pdfrwt beam="1">  1       21 0.15052174E+00 0.69645163E+02</pdfrwt>
<pdfrwt beam="2">  1       21 0.49935699E-02 0.69645163E+02</pdfrwt>
<totfact> 0.86272782E+04</totfact>
</mgrwt>
</event>
<event>
 5    1  0.1708429E+000  0.8195834E+02  0.7546771E-02  0.1323584E+00
         21   -1    0    0  503  502  0.00000000000E+00  0.00000000000E+00  0.13862176028E+04  0.13862176028E+04  0.00000000000E+00 0.  1.
         21   -1    0    0  501  503 -0.00000000000E+00 -0.00000000000E+00 -0.11514502779E+03  0.11514502779E+03  0.00000000000E+00 0. -1.
         24    1    1    2    0    0 -0.19240807685E+02  0.43619374213E+02  0.63883497822E+02  0.11323063073E+03  0.80419002446E+02 0.  0.
          1    1    1    2  501    0  0.37108781277E+02 -0.32890037468E+02 -0.83586558218E+02  0.97188111038E+02  0.00000000000E+00 0. -1.
         -2    1    1    2    0  502 -0.17867973591E+02 -0.10729336745E+02  0.12907756354E+04  0.12909438888E+04  0.00000000000E+00 0.  1.
<mgrwt>
<rscale>  2 0.81958339E+02</rscale>
<asrwt>0</asrwt>
<pdfrwt beam="1">  1       21 0.21326423E+00 0.81958339E+02</pdfrwt>
<pdfrwt beam="2">  1       21 0.17714621E-01 0.81958339E+02</pdfrwt>
<totfact> 0.37436648E+03</totfact>
</mgrwt>
</event>
<event>
 5    1  0.1708429E+000  0.9463401E+02  0.7546771E-02  0.1292003E+00
         21   -1    0    0  503  502  0.00000000000E+00  0.00000000000E+00  0.15882245782E+02  0.15882245782E+02  0.00000000000E+00 0. -1.
         21   -1    0    0  501  503 -0.00000000000E+00 -0.00000000000E+00 -0.20774497336E+04  0.20774497336E+04  0.00000000000E+00 0. -1.
         24    1    1    2    0    0  0.59453399489E+01  0.65359698091E+02 -0.21645300135E+03  0.24005489986E+03  0.80419002446E+02 0. -1.
          1    1    1    2  501    0  0.15752883655E+02 -0.61428864299E+02 -0.18141770839E+04  0.18152851430E+04  0.00000000000E+00 0. -1.
         -2    1    1    2    0  502 -0.21698223603E+02 -0.39308337919E+01 -0.30937402613E+02  0.37991936543E+02  0.00000000000E+00 0.  1.
<mgrwt>
<rscale>  2 0.94634008E+02</rscale>
<asrwt>0</asrwt>
<pdfrwt beam="1">  1       21 0.24434227E-02 0.94634008E+02</pdfrwt>
<pdfrwt beam="2">  1       21 0.31960762E+00 0.94634008E+02</pdfrwt>
<totfact> 0.26671337E+04</totfact>
</mgrwt>
</event>
<event>
 5    1  0.1708429E+000  0.9099155E+02  0.7546771E-02  0.1300468E+00
         21   -1    0    0  501  502  0.00000000000E+00  0.00000000000E+00  0.31954746636E+04  0.31954746636E+04  0.00000000000E+00 0. -1.
         21   -1    0    0  502  503 -0.00000000000E+00 -0.00000000000E+00 -0.19398186220E+02  0.19398186220E+02  0.00000000000E+00 0. -1.
         24    1    1    2    0    0  0.20431078476E+02 -0.45233617222E+02  0.10202164825E+03  0.13906524282E+03  0.80419002446E+02 0. -1.
          1    1    1    2  501    0 -0.60947464704E+01  0.63762452195E+02  0.28059954977E+04  0.28067264792E+04  0.00000000000E+00 0. -1.
         -2    1    1    2    0  503 -0.14336332006E+02 -0.18528834973E+02  0.26805933151E+03  0.26908112782E+03  0.00000000000E+00 0.  1.
<mgrwt>
<rscale>  2 0.90991548E+02</rscale>
<asrwt>0</asrwt>
<pdfrwt beam="1">  1       21 0.49161107E+00 0.90991548E+02</pdfrwt>
<pdfrwt beam="2">  1       21 0.29843389E-02 0.90991548E+02</pdfrwt>
<totfact> 0.17382751E+03</totfact>
</mgrwt>
</event>
<event>
 5    1  0.1708429E+000  0.1317225E+03  0.7546771E-02  0.1224922E+00
         21   -1    0    0  501  502  0.00000000000E+00  0.00000000000E+00  0.18079863338E+03  0.18079863338E+03  0.00000000000E+00 0.  1.
         21   -1    0    0  502  503 -0.00000000000E+00 -0.00000000000E+00 -0.12874045310E+03  0.12874045310E+03  0.00000000000E+00 0.  1.
         24    1    1    2    0    0 -0.72095292517E+01 -0.97239397567E+02  0.11124581906E+02  0.12687966751E+03  0.80419002446E+02 0.  1.
          1    1    1    2  501    0  0.25504847082E+02 -0.10639300519E+02  0.64994951864E+02  0.70626027129E+02  0.00000000000E+00 0. -1.
         -2    1    1    2    0  503 -0.18295317830E+02  0.10787869809E+03 -0.24061353492E+02  0.11203339184E+03  0.00000000000E+00 0.  1.
<mgrwt>
<rscale>  2 0.13172254E+03</rscale>
<asrwt>0</asrwt>
<pdfrwt beam="1">  1       21 0.27815174E-01 0.13172254E+03</pdfrwt>
<pdfrwt beam="2">  1       21 0.19806224E-01 0.13172254E+03</pdfrwt>
<totfact> 0.29385882E+05</totfact>
</mgrwt>
</event>
<event>
 5    1  0.1708429E+000  0.7532832E+02  0.7546771E-02  0.1342857E+00
         21   -1    0    0  503  502  0.00000000000E+00  0.00000000000E+00  0.63862733804E+02  0.63862733804E+02  0.00000000000E+00 0.  1.
         21   -1    0    0  501  503 -0.00000000000E+00 -0.00000000000E+00 -0.28618168997E+03  0.28618168997E+03  0.00000000000E+00 0.  1.
         24    1    1    2    0    0 -0.14814848483E+02  0.46521867121E+00 -0.25182394229E+03  0.26476821945E+03  0.80419002446E+02 0.  1.
          1    1    1    2  501    0  0.21713628783E+02 -0.30849778273E+02 -0.58221704828E+01  0.38171824210E+02  0.00000000000E+00 0. -1.
         -2    1    1    2    0  502 -0.68987803000E+01  0.30384559601E+02  0.35327156610E+02  0.47104380114E+02  0.00000000000E+00 0.  1.
<mgrwt>
<rscale>  2 0.75328319E+02</rscale>
<asrwt>0</asrwt>
<pdfrwt beam="1">  1       21 0.98250357E-02 0.75328319E+02</pdfrwt>
<pdfrwt beam="2">  1       21 0.44027953E-01 0.75328319E+02</pdfrwt>
<totfact> 0.42115988E+05</totfact>
</mgrwt>
</event>
<event>
 5    1  0.1708429E+000  0.1048398E+03  0.7546771E-02  0.1270436E+00
         21   -1    0    0  501  502  0.00000000000E+00  0.00000000000E+00  0.32713857217E+03  0.32713857217E+03  0.00000000000E+00 0. -1.
         21   -1    0    0  502  503 -0.00000000000E+00 -0.00000000000E+00 -0.14339834459E+03  0.14339834459E+03  0.00000000000E+00 0.  1.
         24    1    1    2    0    0 -0.71088823741E+01 -0.84476890530E+02 -0.63337003751E+02  0.13291227649E+03  0.80419002446E+02 0.  1.
          1    1    1    2  501    0 -0.96732643130E+01  0.70000281416E+02  0.28503828906E+03  0.29366722267E+03  0.00000000000E+00 0. -1.
         -2    1    1    2    0  503  0.16782146687E+02  0.14476609115E+02 -0.37961057724E+02  0.43957417604E+02  0.00000000000E+00 0.  1.
<mgrwt>
<rscale>  2 0.10483978E+03</rscale>
<asrwt>0</asrwt>
<pdfrwt beam="1">  1       21 0.50329011E-01 0.10483978E+03</pdfrwt>
<pdfrwt beam="2">  1       21 0.22061284E-01 0.10483978E+03</pdfrwt>
<totfact> 0.75132693E+04</totfact>
</mgrwt>
</event>
<event>
 5    1  0.1708429E+000  0.8918358E+02  0.7546771E-02  0.1304841E+00
         21   -1    0    0  501  502  0.00000000000E+00  0.00000000000E+00  0.82760472820E+03  0.82760472820E+03  0.00000000000E+00 0. -1.
         21   -1    0    0  502  503 -0.00000000000E+00 -0.00000000000E+00 -0.89637171822E+02  0.89637171822E+02  0.00000000000E+00 0.  1.
         24    1    1    2    0    0 -0.40584316270E+02  0.42852340486E+02  0.10212711699E+03  0.14276054704E+03  0.80419002446E+02 0. -1.
          1    1    1    2  501    0  0.50586037859E+02 -0.21364001134E+02  0.70203086666E+03  0.70417519518E+03  0.00000000000E+00 0. -1.
         -2    1    1    2    0  503 -0.10001721589E+02 -0.21488339352E+02 -0.66190427268E+02  0.70306157801E+02  0.00000000000E+00 0.  1.
<mgrwt>
<rscale>  2 0.89183577E+02</rscale>
<asrwt>0</asrwt>
<pdfrwt beam="1">  1       21 0.12732380E+00 0.89183577E+02</pdfrwt>
<pdfrwt beam="2">  1       21 0.13790335E-01 0.89183577E+02</pdfrwt>
<totfact> 0.22588143E+04</totfact>
</mgrwt>
</event>
<event>
 5    1  0.1708429E+000  0.7290804E+02  0.7546771E-02  0.1350474E+00
         21   -1    0    0  503  502  0.00000000000E+00  0.00000000000E+00  0.17194485883E+02  0.17194485883E+02  0.00000000000E+00 0.  1.
         21   -1    0    0  501  503 -0.00000000000E+00 -0.00000000000E+00 -0.41130078894E+03  0.41130078894E+03  0.00000000000E+00 0.  1.
         24    1    1    2    0    0  0.57489349269E+01 -0.18497459484E+02 -0.17806187219E+03  0.19633759839E+03  0.80419002446E+02 0.  1.
          1    1    1    2  501    0  0.26193185647E+02  0.14968621698E-01 -0.17505197242E+03  0.17700078036E+03  0.00000000000E+00 0. -1.
         -2    1    1    2    0  502 -0.31942120573E+02  0.18482490863E+02 -0.40992458445E+02  0.55156896075E+02  0.00000000000E+00 0.  1.
<mgrwt>
<rscale>  2 0.72908038E+02</rscale>
<asrwt>0</asrwt>
<pdfrwt beam="1">  1       21 0.26453056E-02 0.72908038E+02</pdfrwt>
<pdfrwt beam="2">  1       21 0.63277042E-01 0.72908038E+02</pdfrwt>
<totfact> 0.17674057E+06</totfact>
</mgrwt>
</event>
<event>
 5    1  0.1708429E+000  0.7224741E+02  0.7546771E-02  0.1352613E+00
         21   -1    0    0  503  502  0.00000000000E+00  0.00000000000E+00  0.30738534731E+03  0.30738534731E+03  0.00000000000E+00 0. -1.
         21   -1    0    0  501  503 -0.00000000000E+00 -0.00000000000E+00 -0.21009949601E+02  0.21009949601E+02  0.00000000000E+00 0.  1.
         24    1    1    2    0    0  0.28103320275E+02  0.22930465405E+02  0.16059842287E+03  0.18323392763E+03  0.80419002446E+02 0. -1.
          1    1    1    2  501    0 -0.52471059727E+01 -0.31448079259E+02  0.22448423077E+02  0.38992890490E+02  0.00000000000E+00 0. -1.
         -2    1    1    2    0  502 -0.22856214303E+02  0.85176138539E+01  0.10332855177E+03  0.10616847879E+03  0.00000000000E+00 0.  1.
<mgrwt>
<rscale>  2 0.72247413E+02</rscale>
<asrwt>0</asrwt>
<pdfrwt beam="1">  1       21 0.47290050E-01 0.72247413E+02</pdfrwt>
<pdfrwt beam="2">  1       21 0.32323002E-02 0.72247413E+02</pdfrwt>
<totfact> 0.23270452E+06</totfact>
</mgrwt>
</event>
<event>
 5    1  0.1708429E+000  0.1097324E+03  0.7546771E-02  0.1261066E+00
         21   -1    0    0  501  502  0.00000000000E+00  0.00000000000E+00  0.12230324420E+03  0.12230324420E+03  0.00000000000E+00 0. -1.
         21   -1    0    0  502  503 -0.00000000000E+00 -0.00000000000E+00 -0.14573367754E+03  0.14573367754E+03  0.00000000000E+00 0. -1.
         24    1    1    2    0    0  0.77118025034E+02 -0.55442985437E+02 -0.41222943875E+02  0.13110172186E+03  0.80419002446E+02 0. -1.
          1    1    1    2  501    0 -0.53557022391E+02  0.37070245718E+02  0.57745215073E+02  0.87046353335E+02  0.00000000000E+00 0. -1.
         -2    1    1    2    0  503 -0.23561002643E+02  0.18372739718E+02 -0.39952704532E+02  0.49888846546E+02  0.00000000000E+00 0.  1.
<mgrwt>
<rscale>  2 0.10973238E+03</rscale>
<asrwt>0</asrwt>
<pdfrwt beam="1">  1       21 0.18815884E-01 0.10973238E+03</pdfrwt>
<pdfrwt beam="2">  1       21 0.22420566E-01 0.10973238E+03</pdfrwt>
<totfact> 0.48637532E+05</totfact>
</mgrwt>
</event>
<event>
 5    1  0.1708429E+000  0.8596329E+02  0.7546771E-02  0.1312932E+00
         21   -1    0    0  503  502  0.00000000000E+00  0.00000000000E+00  0.84090538220E+02  0.84090538220E+02  0.00000000000E+00 0. -1.
         21   -1    0    0  501  503 -0.00000000000E+00 -0.00000000000E+00 -0.10364620219E+03  0.10364620219E+03  0.00000000000E+00 0. -1.
         24    1    1    2    0    0 -0.21514401113E+02 -0.33270905818E+01  0.59311803189E+01  0.83524450560E+02  0.80419002446E+02 0. -1.
          1    1    1    2  501    0  0.54843607509E+02 -0.18993692205E+01 -0.39569158422E+02  0.67654616888E+02  0.00000000000E+00 0. -1.
         -2    1    1    2    0  502 -0.33329206396E+02  0.52264598023E+01  0.14082314134E+02  0.36557672962E+02  0.00000000000E+00 0.  1.
<mgrwt>
<rscale>  2 0.85963294E+02</rscale>
<asrwt>0</asrwt>
<pdfrwt beam="1">  1       21 0.12937006E-01 0.85963294E+02</pdfrwt>
<pdfrwt beam="2">  1       21 0.15945569E-01 0.85963294E+02</pdfrwt>
<totfact> 0.17681394E+06</totfact>
</mgrwt>
</event>
<event>
 5    1  0.1708429E+000  0.1290926E+03  0.7546771E-02  0.1228808E+00
         21   -1    0    0  501  502  0.00000000000E+00  0.00000000000E+00  0.35035913416E+03  0.35035913416E+03  0.00000000000E+00 0. -1.
         21   -1    0    0  502  503 -0.00000000000E+00 -0.00000000000E+00 -0.76152187613E+02  0.76152187613E+02  0.00000000000E+00 0.  1.
         24    1    1    2    0    0 -0.29147935710E+01  0.10129497690E+02  0.11614853378E+03  0.14166439425E+03  0.80419002446E+02 0.  0.
          1    1    1    2  501    0  0.43183618776E+02 -0.83147329309E+02  0.17615358253E+03  0.19952039480E+03  0.00000000000E+00 0. -1.
         -2    1    1    2    0  503 -0.40268825205E+02  0.73017831619E+02 -0.18095169765E+02  0.85326532723E+02  0.00000000000E+00 0.  1.
<mgrwt>
<rscale>  2 0.12909259E+03</rscale>
<asrwt>0</asrwt>
<pdfrwt beam="1">  1       21 0.53901404E-01 0.12909259E+03</pdfrwt>
<pdfrwt beam="2">  1       21 0.11715721E-01 0.12909259E+03</pdfrwt>
<totfact> 0.20294321E+05</totfact>
</mgrwt>
</event>
<event>
 5    1  0.1708429E+000  0.8593677E+02  0.7546771E-02  0.1313001E+00
         21   -1    0    0  501  502  0.00000000000E+00  0.00000000000E+00  0.73003772597E+03  0.73003772597E+03  0.00000000000E+00 0.  1.
         21   -1    0    0  502  503 -0.00000000000E+00 -0.00000000000E+00 -0.12265905122E+02  0.12265905122E+02  0.00000000000E+00 0. -1.
         24    1    1    2    0    0 -0.10806116467E+02 -0.17768292716E+02  0.27571964269E+03  0.28796010435E+03  0.80419002446E+02 0.  0.
          1    1    1    2  501    0  0.33620346025E+02  0.43136718954E+02  0.37642705681E+03  0.38037932816E+03  0.00000000000E+00 0. -1.
         -2    1    1    2    0  503 -0.22814229558E+02 -0.25368426238E+02  0.65625121340E+02  0.73964198576E+02  0.00000000000E+00 0.  1.
<mgrwt>
<rscale>  2 0.85936772E+02</rscale>
<asrwt>0</asrwt>
<pdfrwt beam="1">  1       21 0.11231346E+00 0.85936772E+02</pdfrwt>
<pdfrwt beam="2">  1       21 0.18870629E-02 0.85936772E+02</pdfrwt>
<totfact> 0.84850526E+05</totfact>
</mgrwt>
</event>
<event>
 5    1  0.1708429E+000  0.1005778E+03  0.7546771E-02  0.1279086E+00
         21   -1    0    0  503  502  0.00000000000E+00  0.00000000000E+00  0.11630147859E+03  0.11630147859E+03  0.00000000000E+00 0. -1.
         21   -1    0    0  501  503 -0.00000000000E+00 -0.00000000000E+00 -0.12699338707E+03  0.12699338707E+03  0.00000000000E+00 0.  1.
         24    1    1    2    0    0 -0.37390491699E+01 -0.16533550176E+02  0.43184660354E+02  0.92841098735E+02  0.80419002446E+02 0. -1.
          1    1    1    2  501    0 -0.54637866411E+02  0.24813338147E+02 -0.67109360163E+02  0.90025909701E+02  0.00000000000E+00 0. -1.
         -2    1    1    2    0  502  0.58376915581E+02 -0.82797879714E+01  0.13232791328E+02  0.60427857217E+02  0.00000000000E+00 0.  1.
<mgrwt>
<rscale>  2 0.10057779E+03</rscale>
<asrwt>0</asrwt>
<pdfrwt beam="1">  1       21 0.17892535E-01 0.10057779E+03</pdfrwt>
<pdfrwt beam="2">  1       21 0.19537444E-01 0.10057779E+03</pdfrwt>
<totfact> 0.68734845E+05</totfact>
</mgrwt>
</event>
<event>
 5    1  0.1708429E+000  0.7275155E+02  0.7546771E-02  0.1350979E+00
         21   -1    0    0  503  502  0.00000000000E+00  0.00000000000E+00  0.64791643144E+03  0.64791643144E+03  0.00000000000E+00 0.  1.
         21   -1    0    0  501  503 -0.00000000000E+00 -0.00000000000E+00 -0.58073117445E+02  0.58073117445E+02  0.00000000000E+00 0. -1.
         24    1    1    2    0    0  0.35503918116E+02 -0.25054936773E+02  0.71547489574E+02  0.11607987456E+03  0.80419002446E+02 0.  0.
          1    1    1    2  501    0 -0.88753804882E+01  0.25975834367E+02 -0.30174604134E+02  0.40792439061E+02  0.00000000000E+00 0. -1.
         -2    1    1    2    0  502 -0.26628537628E+02 -0.92089759417E+00  0.54847042856E+03  0.54911723527E+03  0.00000000000E+00 0.  1.
<mgrwt>
<rscale>  2 0.72751550E+02</rscale>
<asrwt>0</asrwt>
<pdfrwt beam="1">  1       21 0.99679446E-01 0.72751550E+02</pdfrwt>
<pdfrwt beam="2">  1       21 0.89343262E-02 0.72751550E+02</pdfrwt>
<totfact> 0.87101819E+04</totfact>
</mgrwt>
</event>
<event>
 5    1  0.1708429E+000  0.9843905E+02  0.7546771E-02  0.1283613E+00
         21   -1    0    0  503  502  0.00000000000E+00  0.00000000000E+00  0.33824255662E+03  0.33824255662E+03  0.00000000000E+00 0.  1.
         21   -1    0    0  501  503 -0.00000000000E+00 -0.00000000000E+00 -0.37537628595E+02  0.37537628595E+02  0.00000000000E+00 0. -1.
         24    1    1    2    0    0  0.21622561770E+02 -0.12316273259E+02  0.22052924439E+03  0.23604997215E+03  0.80419002446E+02 0.  1.
          1    1    1    2  501    0  0.36484299255E+02  0.34773653353E+02  0.23905543209E+02  0.55783385122E+02  0.00000000000E+00 0. -1.
         -2    1    1    2    0  502 -0.58106861024E+02 -0.22457380093E+02  0.56270140427E+02  0.83946827948E+02  0.00000000000E+00 0.  1.
<mgrwt>
<rscale>  2 0.98439050E+02</rscale>
<asrwt>0</asrwt>
<pdfrwt beam="1">  1       21 0.52037314E-01 0.98439050E+02</pdfrwt>
<pdfrwt beam="2">  1       21 0.57750200E-02 0.98439050E+02</pdfrwt>
<totfact> 0.74122749E+05</totfact>
</mgrwt>
</event>
<event>
 5    1  0.1708429E+000  0.1604588E+03  0.7546771E-02  0.1188180E+00
         21   -1    0    0  501  502  0.00000000000E+00  0.00000000000E+00  0.21807294734E+03  0.21807294734E+03  0.00000000000E+00 0. -1.
         21   -1    0    0  502  503 -0.00000000000E+00 -0.00000000000E+00 -0.35533923808E+03  0.35533923808E+03  0.00000000000E+00 0. -1.
         24    1    1    2    0    0 -0.11267372635E+03  0.45956012420E+02 -0.11146712341E+03  0.18357412466E+03  0.80419002446E+02 0. -1.
          1    1    1    2  501    0  0.13831193648E+03 -0.22151965858E+02  0.15312322923E+03  0.20752740709E+03  0.00000000000E+00 0. -1.
         -2    1    1    2    0  503 -0.25638210123E+02 -0.23804046562E+02 -0.17892239656E+03  0.18231065367E+03  0.00000000000E+00 0.  1.
<mgrwt>
<rscale>  2 0.16045879E+03</rscale>
<asrwt>0</asrwt>
<pdfrwt beam="1">  1       21 0.33549684E-01 0.16045879E+03</pdfrwt>
<pdfrwt beam="2">  1       21 0.54667575E-01 0.16045879E+03</pdfrwt>
<totfact> 0.27546460E+04</totfact>
</mgrwt>
</event>
<event>
 5    1  0.1708429E+000  0.8626419E+02  0.7546771E-02  0.1312159E+00
         21   -1    0    0  501  502  0.00000000000E+00  0.00000000000E+00  0.25033957318E+03  0.25033957318E+03  0.00000000000E+00 0.  1.
         21   -1    0    0  502  503 -0.00000000000E+00 -0.00000000000E+00 -0.34206701602E+02  0.34206701602E+02  0.00000000000E+00 0. -1.
         24    1    1    2    0    0  0.52449617839E+02 -0.39488515245E+02  0.83967689005E+02  0.13352188584E+03  0.80419002446E+02 0. -1.
          1    1    1    2  501    0 -0.21011312392E+02  0.28504603118E+02  0.93577056253E+02  0.10005325134E+03  0.00000000000E+00 0. -1.
         -2    1    1    2    0  503 -0.31438305447E+02  0.10983912127E+02  0.38588126323E+02  0.50971137599E+02  0.00000000000E+00 0.  1.
<mgrwt>
<rscale>  2 0.86264191E+02</rscale>
<asrwt>0</asrwt>
<pdfrwt beam="1">  1       21 0.38513779E-01 0.86264191E+02</pdfrwt>
<pdfrwt beam="2">  1       21 0.52625696E-02 0.86264191E+02</pdfrwt>
<totfact> 0.15824845E+06</totfact>
</mgrwt>
</event>
<event>
 5    1  0.1708429E+000  0.7783116E+02  0.7546771E-02  0.1335321E+00
         21   -1    0    0  503  502  0.00000000000E+00  0.00000000000E+00  0.87966698930E+02  0.87966698930E+02  0.00000000000E+00 0. -1.
         21   -1    0    0  501  503 -0.00000000000E+00 -0.00000000000E+00 -0.18680211001E+03  0.18680211001E+03  0.00000000000E+00 0. -1.
         24    1    1    2    0    0  0.19352486895E+02 -0.39247676173E+02  0.46917812851E+02  0.10287563342E+03  0.80419002446E+02 0. -1.
          1    1    1    2  501    0  0.13764313484E+02  0.23962444356E+02 -0.12869279265E+03  0.13162632694E+03  0.00000000000E+00 0. -1.
         -2    1    1    2    0  502 -0.33116800379E+02  0.15285231817E+02 -0.17060431287E+02  0.40266848582E+02  0.00000000000E+00 0.  1.
<mgrwt>
<rscale>  2 0.77831155E+02</rscale>
<asrwt>0</asrwt>
<pdfrwt beam="1">  1       21 0.13533338E-01 0.77831155E+02</pdfrwt>
<pdfrwt beam="2">  1       21 0.28738786E-01 0.77831155E+02</pdfrwt>
<totfact> 0.55171186E+05</totfact>
</mgrwt>
</event>
<event>
 5    1  0.1708429E+000  0.9745354E+02  0.7546771E-02  0.1285744E+00
         21   -1    0    0  501  502  0.00000000000E+00  0.00000000000E+00  0.16091882050E+03  0.16091882050E+03  0.00000000000E+00 0.  1.
         21   -1    0    0  502  503 -0.00000000000E+00 -0.00000000000E+00 -0.11763306476E+03  0.11763306476E+03  0.00000000000E+00 0. -1.
         24    1    1    2    0    0 -0.30113407230E+02 -0.73117491216E+02  0.81634251879E+02  0.13922769786E+03  0.80419002446E+02 0.  1.
          1    1    1    2  501    0  0.13397899367E+02  0.58190197805E+02  0.30406777424E+02  0.67008767645E+02  0.00000000000E+00 0. -1.
         -2    1    1    2    0  503  0.16715507864E+02  0.14927293410E+02 -0.68755273564E+02  0.72315419756E+02  0.00000000000E+00 0.  1.
<mgrwt>
<rscale>  2 0.97453538E+02</rscale>
<asrwt>0</asrwt>
<pdfrwt beam="1">  1       21 0.24756742E-01 0.97453538E+02</pdfrwt>
<pdfrwt beam="2">  1       21 0.18097395E-01 0.97453538E+02</pdfrwt>
<totfact> 0.43423461E+05</totfact>
</mgrwt>
</event>
<event>
 5    1  0.1708429E+000  0.1417892E+03  0.7546771E-02  0.1210941E+00
         21   -1    0    0  501  502  0.00000000000E+00  0.00000000000E+00  0.26805386708E+02  0.26805386708E+02  0.00000000000E+00 0. -1.
         21   -1    0    0  502  503 -0.00000000000E+00 -0.00000000000E+00 -0.91713732962E+03  0.91713732962E+03  0.00000000000E+00 0.  1.
         24    1    1    2    0    0  0.78370001985E+02 -0.32728560297E+02 -0.26202977777E+03  0.28694918760E+03  0.80419002446E+02 0. -1.
          1    1    1    2  501    0 -0.10889170243E+03  0.61170116343E+02 -0.28500168114E+03  0.31116738943E+03  0.00000000000E+00 0. -1.
         -2    1    1    2    0  503  0.30521700445E+02 -0.28441556046E+02 -0.34330048399E+03  0.34582613929E+03  0.00000000000E+00 0.  1.
<mgrwt>
<rscale>  2 0.14178924E+03</rscale>
<asrwt>0</asrwt>
<pdfrwt beam="1">  1       21 0.41239059E-02 0.14178924E+03</pdfrwt>
<pdfrwt beam="2">  1       21 0.14109804E+00 0.14178924E+03</pdfrwt>
<totfact> 0.13349130E+05</totfact>
</mgrwt>
</event>
<event>
 5    1  0.1708429E+000  0.1005527E+03  0.7546771E-02  0.1279138E+00
         21   -1    0    0  503  502  0.00000000000E+00  0.00000000000E+00  0.60785526870E+01  0.60785526870E+01  0.00000000000E+00 0. -1.
         21   -1    0    0  501  503 -0.00000000000E+00 -0.00000000000E+00 -0.19130065113E+04  0.19130065113E+04  0.00000000000E+00 0. -1.
         24    1    1    2    0    0  0.44848061119E+02  0.69750371279E+02 -0.76094665522E+03  0.76966453142E+03  0.80419002446E+02 0. -1.
          1    1    1    2  501    0 -0.39258417409E+02 -0.42846961133E+02 -0.90809102910E+03  0.90994857138E+03  0.00000000000E+00 0. -1.
         -2    1    1    2    0  502 -0.55896437100E+01 -0.26903410146E+02 -0.23789027429E+03  0.23947196119E+03  0.00000000000E+00 0.  1.
<mgrwt>
<rscale>  2 0.10055274E+03</rscale>
<asrwt>0</asrwt>
<pdfrwt beam="1">  1       21 0.93516029E-03 0.10055274E+03</pdfrwt>
<pdfrwt beam="2">  1       21 0.29430922E+00 0.10055274E+03</pdfrwt>
<totfact> 0.16742443E+05</totfact>
</mgrwt>
</event>
<event>
 5    1  0.1708429E+000  0.1027197E+03  0.7546771E-02  0.1274679E+00
         21   -1    0    0  501  502  0.00000000000E+00  0.00000000000E+00  0.23358846827E+03  0.23358846827E+03  0.00000000000E+00 0.  1.
         21   -1    0    0  502  503 -0.00000000000E+00 -0.00000000000E+00 -0.46679550962E+02  0.46679550962E+02  0.00000000000E+00 0. -1.
         24    1    1    2    0    0 -0.10185994444E+01 -0.10965536455E+02  0.63774870692E+02  0.10322659842E+03  0.80419002446E+02 0. -1.
          1    1    1    2  501    0 -0.56296961457E+02 -0.19224953682E+02  0.77961994747E+02  0.98066402699E+02  0.00000000000E+00 0. -1.
         -2    1    1    2    0  503  0.57315560901E+02  0.30190490137E+02  0.45172051865E+02  0.78975018112E+02  0.00000000000E+00 0.  1.
<mgrwt>
<rscale>  2 0.10271965E+03</rscale>
<asrwt>0</asrwt>
<pdfrwt beam="1">  1       21 0.35936687E-01 0.10271965E+03</pdfrwt>
<pdfrwt beam="2">  1       21 0.71814695E-02 0.10271965E+03</pdfrwt>
<totfact> 0.10782495E+06</totfact>
</mgrwt>
</event>
<event>
 5    1  0.1708429E+000  0.8085667E+02  0.7546771E-02  0.1326638E+00
         21   -1    0    0  503  502  0.00000000000E+00  0.00000000000E+00  0.44912586688E+02  0.44912586688E+02  0.00000000000E+00 0.  1.
         21   -1    0    0  501  503 -0.00000000000E+00 -0.00000000000E+00 -0.46480618038E+03  0.46480618038E+03  0.00000000000E+00 0. -1.
         24    1    1    2    0    0  0.47337325739E+02 -0.25168034319E+02 -0.31080023050E+03  0.32548156875E+03  0.80419002446E+02 0.  1.
          1    1    1    2  501    0 -0.22206184193E+02  0.32063281549E+02 -0.13911723330E+03  0.14448104803E+03  0.00000000000E+00 0. -1.
         -2    1    1    2    0  502 -0.25131141546E+02 -0.68952472308E+01  0.30023870106E+02  0.39756150291E+02  0.00000000000E+00 0.  1.
<mgrwt>
<rscale>  2 0.80856670E+02</rscale>
<asrwt>0</asrwt>
<pdfrwt beam="1">  1       21 0.69096287E-02 0.80856670E+02</pdfrwt>
<pdfrwt beam="2">  1       21 0.71508643E-01 0.80856670E+02</pdfrwt>
<totfact> 0.28079597E+05</totfact>
</mgrwt>
</event>
<event>
 5    1  0.1708429E+000  0.7468639E+02  0.7546771E-02  0.1344845E+00
         21   -1    0    0  501  502  0.00000000000E+00  0.00000000000E+00  0.16503244411E+03  0.16503244411E+03  0.00000000000E+00 0. -1.
         21   -1    0    0  502  503 -0.00000000000E+00 -0.00000000000E+00 -0.90547510254E+02  0.90547510254E+02  0.00000000000E+00 0.  1.
         24    1    1    2    0    0  0.10882488126E+01 -0.52132993599E+02 -0.42591057351E+02  0.10488206438E+03  0.80419002446E+02 0.  1.
          1    1    1    2  501    0 -0.65466017989E+01  0.24410417728E+02  0.11968369708E+03  0.12232298980E+03  0.00000000000E+00 0. -1.
         -2    1    1    2    0  503  0.54583529863E+01  0.27722575871E+02 -0.26077058743E+01  0.28374900179E+02  0.00000000000E+00 0.  1.
<mgrwt>
<rscale>  2 0.74686391E+02</rscale>
<asrwt>0</asrwt>
<pdfrwt beam="1">  1       21 0.25389607E-01 0.74686391E+02</pdfrwt>
<pdfrwt beam="2">  1       21 0.13930386E-01 0.74686391E+02</pdfrwt>
<totfact> 0.66134594E+05</totfact>
</mgrwt>
</event>
<event>
 5    1  0.1708429E+000  0.8173325E+02  0.7546771E-02  0.1324203E+00
         21   -1    0    0  501  502  0.00000000000E+00  0.00000000000E+00  0.92152755116E+02  0.92152755116E+02  0.00000000000E+00 0. -1.
         21   -1    0    0  502  503 -0.00000000000E+00 -0.00000000000E+00 -0.11677987272E+03  0.11677987272E+03  0.00000000000E+00 0.  1.
         24    1    1    2    0    0 -0.30219228970E+02 -0.30684920801E+02  0.14922997094E+02  0.92437427272E+02  0.80419002446E+02 0. -1.
          1    1    1    2  501    0  0.47612017177E+02  0.18868197789E+02  0.18734632994E+02  0.54533471748E+02  0.00000000000E+00 0. -1.
         -2    1    1    2    0  503 -0.17392788207E+02  0.11816723012E+02 -0.58284747690E+02  0.61961728814E+02  0.00000000000E+00 0.  1.
<mgrwt>
<rscale>  2 0.81733252E+02</rscale>
<asrwt>0</asrwt>
<pdfrwt beam="1">  1       21 0.14177347E-01 0.81733252E+02</pdfrwt>
<pdfrwt beam="2">  1       21 0.17966134E-01 0.81733252E+02</pdfrwt>
<totfact> 0.12113856E+06</totfact>
</mgrwt>
</event>
<event>
 5    1  0.2048865E+000  0.9957266E+02  0.7546771E-02  0.1281197E+00
         21   -1    0    0  501  502  0.00000000000E+00  0.00000000000E+00  0.75393791108E+02  0.75393791108E+02  0.00000000000E+00 0.  1.
         21   -1    0    0  502  503 -0.00000000000E+00 -0.00000000000E+00 -0.50199153708E+03  0.50199153708E+03  0.00000000000E+00 0.  1.
         24    1    1    2    0    0 -0.25584068222E+02 -0.75798001717E+02  0.50210162876E+00  0.11343434079E+03  0.80419002446E+02 0.  1.
          1    1    1    2  501    0  0.19581207027E+02  0.15123950833E+02  0.69027263166E+01  0.25686673355E+02  0.00000000000E+00 0. -1.
         -2    1    1    2    0  503  0.60028611955E+01  0.60674050885E+02 -0.43400257392E+03  0.43826431404E+03  0.00000000000E+00 0.  1.
<mgrwt>
<rscale>  2 0.99572663E+02</rscale>
<asrwt>0</asrwt>
<pdfrwt beam="1">  1       21 0.11599044E-01 0.99572663E+02</pdfrwt>
<pdfrwt beam="2">  1       21 0.77229471E-01 0.99572663E+02</pdfrwt>
<totfact> 0.96669019E+04</totfact>
</mgrwt>
</event>
<event>
 5    1  0.1708429E+000  0.7121878E+02  0.7546771E-02  0.1355997E+00
         21   -1    0    0  503  502  0.00000000000E+00  0.00000000000E+00  0.71342945399E+02  0.71342945399E+02  0.00000000000E+00 0.  1.
         21   -1    0    0  501  503 -0.00000000000E+00 -0.00000000000E+00 -0.10388653271E+03  0.10388653271E+03  0.00000000000E+00 0. -1.
         24    1    1    2    0    0 -0.55371323035E+01  0.50223752011E+01 -0.27475269825E+02  0.85311139326E+02  0.80419002446E+02 0.  1.
          1    1    1    2  501    0 -0.24289285204E+01  0.27795278123E+02 -0.35022173412E+02  0.44777559225E+02  0.00000000000E+00 0. -1.
         -2    1    1    2    0  502  0.79660608239E+01 -0.32817653324E+02  0.29953855922E+02  0.45140779561E+02  0.00000000000E+00 0.  1.
<mgrwt>
<rscale>  2 0.71218780E+02</rscale>
<asrwt>0</asrwt>
<pdfrwt beam="1">  1       21 0.10975838E-01 0.71218780E+02</pdfrwt>
<pdfrwt beam="2">  1       21 0.15982543E-01 0.71218780E+02</pdfrwt>
<totfact> 0.23264981E+06</totfact>
</mgrwt>
</event>
<event>
 5    1  0.1708429E+000  0.7419121E+02  0.7546771E-02  0.1346394E+00
         21   -1    0    0  501  502  0.00000000000E+00  0.00000000000E+00  0.40737621239E+03  0.40737621239E+03  0.00000000000E+00 0. -1.
         21   -1    0    0  502  503 -0.00000000000E+00 -0.00000000000E+00 -0.50100941725E+02  0.50100941725E+02  0.00000000000E+00 0.  1.
         24    1    1    2    0    0 -0.60996942763E+01 -0.17980189339E+01  0.12662317508E+03  0.15013688276E+03  0.80419002446E+02 0.  1.
          1    1    1    2  501    0  0.28642810227E+02  0.23023690502E+02  0.26124243053E+03  0.26381453412E+03  0.00000000000E+00 0. -1.
         -2    1    1    2    0  503 -0.22543115950E+02 -0.21225671568E+02 -0.30590334946E+02  0.43525737241E+02  0.00000000000E+00 0.  1.
<mgrwt>
<rscale>  2 0.74191212E+02</rscale>
<asrwt>0</asrwt>
<pdfrwt beam="1">  1       21 0.62673261E-01 0.74191212E+02</pdfrwt>
<pdfrwt beam="2">  1       21 0.77078375E-02 0.74191212E+02</pdfrwt>
<totfact> 0.30950405E+05</totfact>
</mgrwt>
</event>
<event>
 5    1  0.1708429E+000  0.9754498E+02  0.7546771E-02  0.1285545E+00
         21   -1    0    0  503  502  0.00000000000E+00  0.00000000000E+00  0.71642364068E+03  0.71642364068E+03  0.00000000000E+00 0.  1.
         21   -1    0    0  501  503 -0.00000000000E+00 -0.00000000000E+00 -0.32587272809E+02  0.32587272809E+02  0.00000000000E+00 0. -1.
         24    1    1    2    0    0 -0.70937212609E+01 -0.31492680587E+02  0.21010711308E+03  0.22727587803E+03  0.80419002446E+02 0.  1.
          1    1    1    2  501    0  0.35258887318E+02 -0.26404035940E+02  0.40447288348E+00  0.44051400059E+02  0.00000000000E+00 0. -1.
         -2    1    1    2    0  502 -0.28165166057E+02  0.57896716528E+02  0.47332478191E+03  0.47768363540E+03  0.00000000000E+00 0.  1.
<mgrwt>
<rscale>  2 0.97544981E+02</rscale>
<asrwt>0</asrwt>
<pdfrwt beam="1">  1       21 0.11021901E+00 0.97544981E+02</pdfrwt>
<pdfrwt beam="2">  1       21 0.50134271E-02 0.97544981E+02</pdfrwt>
<totfact> 0.18016737E+05</totfact>
</mgrwt>
</event>
<event>
 5    1  0.1708429E+000  0.8768488E+02  0.7546771E-02  0.1308557E+00
         21   -1    0    0  501  502  0.00000000000E+00  0.00000000000E+00  0.69424890591E+03  0.69424890591E+03  0.00000000000E+00 0.  1.
         21   -1    0    0  502  503 -0.00000000000E+00 -0.00000000000E+00 -0.14471654796E+02  0.14471654796E+02  0.00000000000E+00 0.  1.
         24    1    1    2    0    0  0.37843452677E+02 -0.57438666697E+02  0.45775996834E+03  0.46983266374E+03  0.80419002446E+02 0.  1.
          1    1    1    2  501    0 -0.22576866198E+02  0.24941920009E+02  0.18217249339E+03  0.18525288556E+03  0.00000000000E+00 0. -1.
         -2    1    1    2    0  503 -0.15266586479E+02  0.32496746688E+02  0.39844789387E+02  0.53635011413E+02  0.00000000000E+00 0.  1.
<mgrwt>
<rscale>  2 0.87684878E+02</rscale>
<asrwt>0</asrwt>
<pdfrwt beam="1">  1       21 0.10680750E+00 0.87684878E+02</pdfrwt>
<pdfrwt beam="2">  1       21 0.22264090E-02 0.87684878E+02</pdfrwt>
<totfact> 0.73308727E+05</totfact>
</mgrwt>
</event>
<event>
 5    1  0.1708429E+000  0.7181465E+02  0.7546771E-02  0.1354029E+00
         21   -1    0    0  501  502  0.00000000000E+00  0.00000000000E+00  0.31185599679E+03  0.31185599679E+03  0.00000000000E+00 0. -1.
         21   -1    0    0  502  503 -0.00000000000E+00 -0.00000000000E+00 -0.18487143755E+02  0.18487143755E+02  0.00000000000E+00 0.  1.
         24    1    1    2    0    0 -0.15530017917E+01  0.37806453507E+02  0.22826952047E+03  0.24496107787E+03  0.80419002446E+02 0.  0.
          1    1    1    2  501    0  0.20308275732E+02 -0.15124712731E+02  0.35825906639E+02  0.43871158919E+02  0.00000000000E+00 0. -1.
         -2    1    1    2    0  503 -0.18755273940E+02 -0.22681740776E+02  0.29273425923E+02  0.41510903754E+02  0.00000000000E+00 0.  1.
<mgrwt>
<rscale>  2 0.71814652E+02</rscale>
<asrwt>0</asrwt>
<pdfrwt beam="1">  1       21 0.47977842E-01 0.71814652E+02</pdfrwt>
<pdfrwt beam="2">  1       21 0.28441762E-02 0.71814652E+02</pdfrwt>
<totfact> 0.27787818E+06</totfact>
</mgrwt>
</event>
<event>
 5    1  0.1708429E+000  0.6827410E+02  0.7546771E-02  0.1366062E+00
         21   -1    0    0  503  502  0.00000000000E+00  0.00000000000E+00  0.42039572422E+03  0.42039572422E+03  0.00000000000E+00 0. -1.
         21   -1    0    0  501  503 -0.00000000000E+00 -0.00000000000E+00 -0.17949837463E+02  0.17949837463E+02  0.00000000000E+00 0.  1.
         24    1    1    2    0    0 -0.60767815996E+01 -0.50090753563E+01  0.23688884912E+03  0.25029095250E+03  0.80419002446E+02 0.  0.
          1    1    1    2  501    0 -0.38248624195E+01  0.29281447773E+02  0.11351593154E+02  0.31636868102E+02  0.00000000000E+00 0. -1.
         -2    1    1    2    0  502  0.99016440191E+01 -0.24272372416E+02  0.15420544449E+03  0.15641774109E+03  0.00000000000E+00 0.  1.
<mgrwt>
<rscale>  2 0.68274099E+02</rscale>
<asrwt>0</asrwt>
<pdfrwt beam="1">  1       21 0.64676258E-01 0.68274099E+02</pdfrwt>
<pdfrwt beam="2">  1       21 0.27615138E-02 0.68274099E+02</pdfrwt>
<totfact> 0.15711439E+06</totfact>
</mgrwt>
</event>
<event>
 5    1  0.1708429E+000  0.6550898E+02  0.7546771E-02  0.1376067E+00
         21   -1    0    0  501  502  0.00000000000E+00  0.00000000000E+00  0.51096395877E+03  0.51096395877E+03  0.00000000000E+00 0.  1.
         21   -1    0    0  502  503 -0.00000000000E+00 -0.00000000000E+00 -0.10948261202E+02  0.10948261202E+02  0.00000000000E+00 0. -1.
         24    1    1    2    0    0 -0.49538191268E+01  0.16357552499E+02  0.31617944624E+03  0.32669369144E+03  0.80419002446E+02 0.  1.
          1    1    1    2  501    0  0.25358847473E+02 -0.11404445047E+02  0.16397512021E+03  0.16631588186E+03  0.00000000000E+00 0. -1.
         -2    1    1    2    0  503 -0.20405028346E+02 -0.49531074521E+01  0.19861131119E+02  0.28902646670E+02  0.00000000000E+00 0.  1.
<mgrwt>
<rscale>  2 0.65508981E+02</rscale>
<asrwt>0</asrwt>
<pdfrwt beam="1">  1       21 0.78609821E-01 0.65508981E+02</pdfrwt>
<pdfrwt beam="2">  1       21 0.16843483E-02 0.65508981E+02</pdfrwt>
<totfact> 0.22681484E+06</totfact>
</mgrwt>
</event>
<event>
 5    1  0.1708429E+000  0.7707227E+02  0.7546771E-02  0.1337571E+00
         21   -1    0    0  501  502  0.00000000000E+00  0.00000000000E+00  0.20700902303E+03  0.20700902303E+03  0.00000000000E+00 0.  1.
         21   -1    0    0  502  503 -0.00000000000E+00 -0.00000000000E+00 -0.78941737565E+02  0.78941737565E+02  0.00000000000E+00 0. -1.
         24    1    1    2    0    0 -0.99213046248E+01 -0.93420652162E+01  0.16661310106E+03  0.18550700220E+03  0.80419002446E+02 0.  1.
          1    1    1    2  501    0 -0.30591643685E+02  0.96089986266E+01  0.13241680865E+02  0.34691838091E+02  0.00000000000E+00 0. -1.
         -2    1    1    2    0  503  0.40512948310E+02 -0.26693341035E+00 -0.51787496457E+02  0.65751920303E+02  0.00000000000E+00 0.  1.
<mgrwt>
<rscale>  2 0.77072273E+02</rscale>
<asrwt>0</asrwt>
<pdfrwt beam="1">  1       21 0.31847542E-01 0.77072273E+02</pdfrwt>
<pdfrwt beam="2">  1       21 0.12144883E-01 0.77072273E+02</pdfrwt>
<totfact> 0.54871868E+05</totfact>
</mgrwt>
</event>
<event>
 5    1  0.1708429E+000  0.6802832E+02  0.7546771E-02  0.1366929E+00
         21   -1    0    0  503  502  0.00000000000E+00  0.00000000000E+00  0.24060944613E+03  0.24060944613E+03  0.00000000000E+00 0.  1.
         21   -1    0    0  501  503 -0.00000000000E+00 -0.00000000000E+00 -0.50927505739E+02  0.50927505739E+02  0.00000000000E+00 0. -1.
         24    1    1    2    0    0  0.33950574275E+02 -0.24372378447E+02  0.11411214104E+03  0.14572388621E+03  0.80419002446E+02 0.  1.
          1    1    1    2  501    0 -0.24108574751E+02  0.64130946907E+01 -0.29575538007E+02  0.38691906239E+02  0.00000000000E+00 0. -1.
         -2    1    1    2    0  502 -0.98419995241E+01  0.17959283756E+02  0.10514533735E+03  0.10712115942E+03  0.00000000000E+00 0.  1.
<mgrwt>
<rscale>  2 0.68028325E+02</rscale>
<asrwt>0</asrwt>
<pdfrwt beam="1">  1       21 0.37016837E-01 0.68028325E+02</pdfrwt>
<pdfrwt beam="2">  1       21 0.78350010E-02 0.68028325E+02</pdfrwt>
<totfact> 0.87067965E+05</totfact>
</mgrwt>
</event>
<event>
 5    1  0.1708429E+000  0.1074567E+03  0.7546771E-02  0.1265353E+00
         21   -1    0    0  503  502  0.00000000000E+00  0.00000000000E+00  0.15315091995E+03  0.15315091995E+03  0.00000000000E+00 0.  1.
         21   -1    0    0  501  503 -0.00000000000E+00 -0.00000000000E+00 -0.18100514936E+03  0.18100514936E+03  0.00000000000E+00 0.  1.
         24    1    1    2    0    0 -0.45568022343E+02  0.40062392653E+02 -0.89859930376E+02  0.13499430731E+03  0.80419002446E+02 0.  1.
          1    1    1    2  501    0 -0.30643323709E+02 -0.13208254718E+02 -0.50570735332E+02  0.60587709584E+02  0.00000000000E+00 0. -1.
         -2    1    1    2    0  502  0.76211346051E+02 -0.26854137934E+02  0.11257643630E+03  0.13857405241E+03  0.00000000000E+00 0.  1.
<mgrwt>
<rscale>  2 0.10745671E+03</rscale>
<asrwt>0</asrwt>
<pdfrwt beam="1">  1       21 0.23561680E-01 0.10745671E+03</pdfrwt>
<pdfrwt beam="2">  1       21 0.27846946E-01 0.10745671E+03</pdfrwt>
<totfact> 0.21348701E+05</totfact>
</mgrwt>
</event>
<event>
 5    1  0.1708429E+000  0.9249232E+02  0.7546771E-02  0.1296926E+00
         21   -1    0    0  503  502  0.00000000000E+00  0.00000000000E+00  0.19687133069E+03  0.19687133069E+03  0.00000000000E+00 0. -1.
         21   -1    0    0  501  503 -0.00000000000E+00 -0.00000000000E+00 -0.62112697731E+02  0.62112697731E+02  0.00000000000E+00 0.  1.
         24    1    1    2    0    0 -0.12796957444E+02 -0.83967736938E+01  0.82462244822E+02  0.11619597972E+03  0.80419002446E+02 0. -1.
          1    1    1    2  501    0  0.50608759816E+02  0.30729387013E+02 -0.16235570781E+02  0.61393285911E+02  0.00000000000E+00 0. -1.
         -2    1    1    2    0  502 -0.37811802371E+02 -0.22332613319E+02  0.68531958920E+02  0.81394762790E+02  0.00000000000E+00 0.  1.
<mgrwt>
<rscale>  2 0.92492324E+02</rscale>
<asrwt>0</asrwt>
<pdfrwt beam="1">  1       21 0.30287897E-01 0.92492324E+02</pdfrwt>
<pdfrwt beam="2">  1       21 0.95557998E-02 0.92492324E+02</pdfrwt>
<totfact> 0.91825738E+05</totfact>
</mgrwt>
</event>
<event>
 5    1  0.1708429E+000  0.7330647E+02  0.7546771E-02  0.1349197E+00
         21   -1    0    0  501  502  0.00000000000E+00  0.00000000000E+00  0.39635129258E+03  0.39635129258E+03  0.00000000000E+00 0. -1.
         21   -1    0    0  502  503 -0.00000000000E+00 -0.00000000000E+00 -0.45436739521E+02  0.45436739521E+02  0.00000000000E+00 0.  1.
         24    1    1    2    0    0 -0.22498175280E+02 -0.31857878387E+02  0.64063774688E+02  0.10996579235E+03  0.80419002446E+02 0.  0.
          1    1    1    2  501    0 -0.96539308793E+01  0.21314613193E+02  0.29587826017E+03  0.29680204844E+03  0.00000000000E+00 0. -1.
         -2    1    1    2    0  503  0.32152106160E+02  0.10543265194E+02 -0.90274818000E+01  0.35020191306E+02  0.00000000000E+00 0.  1.
<mgrwt>
<rscale>  2 0.73306467E+02</rscale>
<asrwt>0</asrwt>
<pdfrwt beam="1">  1       21 0.60977120E-01 0.73306467E+02</pdfrwt>
<pdfrwt beam="2">  1       21 0.69902679E-02 0.73306467E+02</pdfrwt>
<totfact> 0.38674027E+05</totfact>
</mgrwt>
</event>
<event>
 5    1  0.1708429E+000  0.9207177E+02  0.7546771E-02  0.1297911E+00
         21   -1    0    0  501  502  0.00000000000E+00  0.00000000000E+00  0.45779878014E+02  0.45779878014E+02  0.00000000000E+00 0.  1.
         21   -1    0    0  502  503 -0.00000000000E+00 -0.00000000000E+00 -0.22659921131E+03  0.22659921131E+03  0.00000000000E+00 0.  1.
         24    1    1    2    0    0  0.32767579122E+02  0.45604131440E+02 -0.40614113065E+02  0.10616107187E+03  0.80419002446E+02 0.  1.
          1    1    1    2  501    0  0.20101452410E+02 -0.13241440273E+02 -0.21375013461E+02  0.32191541279E+02  0.00000000000E+00 0. -1.
         -2    1    1    2    0  503 -0.52869031532E+02 -0.32362691167E+02 -0.11883020677E+03  0.13402647617E+03  0.00000000000E+00 0.  1.
<mgrwt>
<rscale>  2 0.92071770E+02</rscale>
<asrwt>0</asrwt>
<pdfrwt beam="1">  1       21 0.70430582E-02 0.92071770E+02</pdfrwt>
<pdfrwt beam="2">  1       21 0.34861417E-01 0.92071770E+02</pdfrwt>
<totfact> 0.11802494E+06</totfact>
</mgrwt>
</event>
<event>
 5    1  0.1708429E+000  0.7284543E+02  0.7546771E-02  0.1350676E+00
         21   -1    0    0  501  502  0.00000000000E+00  0.00000000000E+00  0.12019006743E+03  0.12019006743E+03  0.00000000000E+00 0.  1.
         21   -1    0    0  502  503 -0.00000000000E+00 -0.00000000000E+00 -0.63481081836E+02  0.63481081836E+02  0.00000000000E+00 0.  1.
         24    1    1    2    0    0 -0.16410314051E+02  0.23321658266E+01  0.57957729241E+02  0.10050398867E+03  0.80419002446E+02 0.  1.
          1    1    1    2  501    0 -0.16424524604E+02 -0.20331452765E+02  0.25993017496E+02  0.36861496695E+02  0.00000000000E+00 0. -1.
         -2    1    1    2    0  503  0.32834838656E+02  0.17999286939E+02 -0.27241761141E+02  0.46305663907E+02  0.00000000000E+00 0.  1.
<mgrwt>
<rscale>  2 0.72845425E+02</rscale>
<asrwt>0</asrwt>
<pdfrwt beam="1">  1       21 0.18490780E-01 0.72845425E+02</pdfrwt>
<pdfrwt beam="2">  1       21 0.97663203E-02 0.72845425E+02</pdfrwt>
<totfact> 0.21937438E+06</totfact>
</mgrwt>
</event>
<event>
 5    1  0.1708429E+000  0.8510489E+02  0.7546771E-02  0.1315158E+00
         21   -1    0    0  501  502  0.00000000000E+00  0.00000000000E+00  0.97162564429E+02  0.97162564429E+02  0.00000000000E+00 0.  1.
         21   -1    0    0  502  503 -0.00000000000E+00 -0.00000000000E+00 -0.13940871277E+03  0.13940871277E+03  0.00000000000E+00 0. -1.
         24    1    1    2    0    0  0.46863689446E+02 -0.27696474296E+02 -0.98565191857E+02  0.13836767353E+03  0.80419002446E+02 0. -1.
          1    1    1    2  501    0 -0.19920935486E+02 -0.13363827313E+02  0.39648812553E+02  0.46340736809E+02  0.00000000000E+00 0. -1.
         -2    1    1    2    0  503 -0.26942753960E+02  0.41060301609E+02  0.16670230961E+02  0.51862866865E+02  0.00000000000E+00 0.  1.
<mgrwt>
<rscale>  2 0.85104888E+02</rscale>
<asrwt>0</asrwt>
<pdfrwt beam="1">  1       21 0.14948087E-01 0.85104888E+02</pdfrwt>
<pdfrwt beam="2">  1       21 0.21447494E-01 0.85104888E+02</pdfrwt>
<totfact> 0.79901633E+05</totfact>
</mgrwt>
</event>
<event>
 5    1  0.1708429E+000  0.1222312E+03  0.7546771E-02  0.1239461E+00
         21   -1    0    0  501  502  0.00000000000E+00  0.00000000000E+00  0.14659635117E+04  0.14659635117E+04  0.00000000000E+00 0. -1.
         21   -1    0    0  502  503 -0.00000000000E+00 -0.00000000000E+00 -0.11180616412E+02  0.11180616412E+02  0.00000000000E+00 0.  1.
         24    1    1    2    0    0  0.39846656870E+02  0.41318159809E+02  0.53970097998E+03  0.54867049323E+03  0.80419002446E+02 0.  0.
          1    1    1    2  501    0 -0.85051994123E+02 -0.51353235828E+02  0.76460884565E+03  0.77103675878E+03  0.00000000000E+00 0. -1.
         -2    1    1    2    0  503  0.45205337252E+02  0.10035076019E+02  0.15047306967E+03  0.15743687612E+03  0.00000000000E+00 0.  1.
<mgrwt>
<rscale>  2 0.12223116E+03</rscale>
<asrwt>0</asrwt>
<pdfrwt beam="1">  1       21 0.22553270E+00 0.12223116E+03</pdfrwt>
<pdfrwt beam="2">  1       21 0.17200960E-02 0.12223116E+03</pdfrwt>
<totfact> 0.15311048E+05</totfact>
</mgrwt>
</event>
<event>
 5    1  0.1708429E+000  0.1463467E+03  0.7546771E-02  0.1205035E+00
         21   -1    0    0  501  502  0.00000000000E+00  0.00000000000E+00  0.61702506213E+02  0.61702506213E+02  0.00000000000E+00 0. -1.
         21   -1    0    0  502  503 -0.00000000000E+00 -0.00000000000E+00 -0.63226609320E+03  0.63226609320E+03  0.00000000000E+00 0. -1.
         24    1    1    2    0    0  0.13213260056E+03  0.30738511824E+01 -0.40827586932E+03  0.43660608575E+03  0.80419002446E+02 0. -1.
          1    1    1    2  501    0 -0.94916118379E+02 -0.20155156089E+02 -0.75810449121E+01  0.97328166977E+02  0.00000000000E+00 0. -1.
         -2    1    1    2    0  503 -0.37216482184E+02  0.17081304906E+02 -0.15470667275E+03  0.16003434668E+03  0.00000000000E+00 0.  1.
<mgrwt>
<rscale>  2 0.14634665E+03</rscale>
<asrwt>0</asrwt>
<pdfrwt beam="1">  1       21 0.94926930E-02 0.14634665E+03</pdfrwt>
<pdfrwt beam="2">  1       21 0.97271709E-01 0.14634665E+03</pdfrwt>
<totfact> 0.79595058E+04</totfact>
</mgrwt>
</event>
<event>
 5    1  0.1708429E+000  0.6889258E+02  0.7546771E-02  0.1363900E+00
         21   -1    0    0  503  502  0.00000000000E+00  0.00000000000E+00  0.59654524637E+03  0.59654524637E+03  0.00000000000E+00 0. -1.
         21   -1    0    0  501  503 -0.00000000000E+00 -0.00000000000E+00 -0.10954297240E+02  0.10954297240E+02  0.00000000000E+00 0.  1.
         24    1    1    2    0    0  0.19346317427E+02 -0.23683150093E+02  0.23606383492E+03  0.25125389889E+03  0.80419002446E+02 0.  1.
          1    1    1    2  501    0 -0.22165050141E+02 -0.51679553999E+01  0.45850073909E+02  0.51188147927E+02  0.00000000000E+00 0. -1.
         -2    1    1    2    0  502  0.28187327144E+01  0.28851105493E+02  0.30367704030E+03  0.30505749679E+03  0.00000000000E+00 0.  1.
<mgrwt>
<rscale>  2 0.68892577E+02</rscale>
<asrwt>0</asrwt>
<pdfrwt beam="1">  1       21 0.91776166E-01 0.68892577E+02</pdfrwt>
<pdfrwt beam="2">  1       21 0.16852770E-02 0.68892577E+02</pdfrwt>
<totfact> 0.16118826E+06</totfact>
</mgrwt>
</event>
<event>
 5    1  0.1708429E+000  0.7983077E+02  0.7546771E-02  0.1329532E+00
         21   -1    0    0  501  502  0.00000000000E+00  0.00000000000E+00  0.26844671134E+03  0.26844671134E+03  0.00000000000E+00 0. -1.
         21   -1    0    0  502  503 -0.00000000000E+00 -0.00000000000E+00 -0.84067628736E+02  0.84067628736E+02  0.00000000000E+00 0.  1.
         24    1    1    2    0    0  0.30973715650E+02  0.24262227200E+02  0.22582808692E+03  0.24292708273E+03  0.80419002446E+02 0. -1.
          1    1    1    2  501    0 -0.54519078598E+01 -0.39854559612E+02  0.17203109384E+02  0.43749927927E+02  0.00000000000E+00 0. -1.
         -2    1    1    2    0  503 -0.25521807791E+02  0.15592332412E+02 -0.58652113699E+02  0.65837329413E+02  0.00000000000E+00 0.  1.
<mgrwt>
<rscale>  2 0.79830767E+02</rscale>
<asrwt>0</asrwt>
<pdfrwt beam="1">  1       21 0.41299494E-01 0.79830767E+02</pdfrwt>
<pdfrwt beam="2">  1       21 0.12933481E-01 0.79830767E+02</pdfrwt>
<totfact> 0.29632575E+05</totfact>
</mgrwt>
</event>
<event>
 5    1  0.1708429E+000  0.8817736E+02  0.7546771E-02  0.1307326E+00
         21   -1    0    0  501  502  0.00000000000E+00  0.00000000000E+00  0.37568645721E+03  0.37568645721E+03  0.00000000000E+00 0.  1.
         21   -1    0    0  502  503 -0.00000000000E+00 -0.00000000000E+00 -0.51882756077E+02  0.51882756077E+02  0.00000000000E+00 0.  1.
         24    1    1    2    0    0 -0.49509261450E+02  0.17033965885E+02  0.20231766265E+03  0.22392180674E+03  0.80419002446E+02 0.  1.
          1    1    1    2  501    0  0.73786377284E+01  0.21849633015E+02  0.14116192098E+03  0.14303334819E+03  0.00000000000E+00 0. -1.
         -2    1    1    2    0  503  0.42130623721E+02 -0.38883598900E+02 -0.19675882495E+02  0.60614058357E+02  0.00000000000E+00 0.  1.
<mgrwt>
<rscale>  2 0.88177361E+02</rscale>
<asrwt>0</asrwt>
<pdfrwt beam="1">  1       21 0.57797915E-01 0.88177361E+02</pdfrwt>
<pdfrwt beam="2">  1       21 0.79819627E-02 0.88177361E+02</pdfrwt>
<totfact> 0.34484266E+05</totfact>
</mgrwt>
</event>
<event>
 5    1  0.1708429E+000  0.1013805E+03  0.7546771E-02  0.1277419E+00
         21   -1    0    0  503  502  0.00000000000E+00  0.00000000000E+00  0.32804814714E+02  0.32804814714E+02  0.00000000000E+00 0.  1.
         21   -1    0    0  501  503 -0.00000000000E+00 -0.00000000000E+00 -0.66617225462E+03  0.66617225462E+03  0.00000000000E+00 0.  1.
         24    1    1    2    0    0 -0.53149989155E+02 -0.41733085365E+02 -0.21621101674E+03  0.24037676983E+03  0.80419002446E+02 0.  1.
          1    1    1    2  501    0 -0.73512989146E+01  0.36229785415E+02 -0.39052083635E+03  0.39226669826E+03  0.00000000000E+00 0. -1.
         -2    1    1    2    0  502  0.60501288070E+02  0.55032999502E+01 -0.26635586830E+02  0.66333601246E+02  0.00000000000E+00 0.  1.
<mgrwt>
<rscale>  2 0.10138049E+03</rscale>
<asrwt>0</asrwt>
<pdfrwt beam="1">  1       21 0.50468941E-02 0.10138049E+03</pdfrwt>
<pdfrwt beam="2">  1       21 0.10248805E+00 0.10138049E+03</pdfrwt>
<totfact> 0.21112494E+05</totfact>
</mgrwt>
</event>
<event>
 5    1  0.1708429E+000  0.1280955E+03  0.7546771E-02  0.1230309E+00
         21   -1    0    0  501  502  0.00000000000E+00  0.00000000000E+00  0.42558505615E+03  0.42558505615E+03  0.00000000000E+00 0.  1.
         21   -1    0    0  502  503 -0.00000000000E+00 -0.00000000000E+00 -0.61237424709E+02  0.61237424709E+02  0.00000000000E+00 0.  1.
         24    1    1    2    0    0 -0.23013542518E+02  0.76302957196E+02  0.25418883603E+03  0.27826416358E+03  0.80419002446E+02 0.  1.
          1    1    1    2  501    0 -0.30812085577E+02  0.17047218222E+02  0.93001088048E+02  0.99444429934E+02  0.00000000000E+00 0. -1.
         -2    1    1    2    0  503  0.53825628095E+02 -0.93350175419E+02  0.17157707369E+02  0.10911388735E+03  0.00000000000E+00 0.  1.
<mgrwt>
<rscale>  2 0.12809546E+03</rscale>
<asrwt>0</asrwt>
<pdfrwt beam="1">  1       21 0.65474622E-01 0.12809546E+03</pdfrwt>
<pdfrwt beam="2">  1       21 0.94211425E-02 0.12809546E+03</pdfrwt>
<totfact> 0.19703627E+05</totfact>
</mgrwt>
</event>
<event>
 5    1  0.1708429E+000  0.1524451E+03  0.7546771E-02  0.1197500E+00
         21   -1    0    0  503  502  0.00000000000E+00  0.00000000000E+00  0.19525536341E+03  0.19525536341E+03  0.00000000000E+00 0. -1.
         21   -1    0    0  501  503 -0.00000000000E+00 -0.00000000000E+00 -0.15350814549E+03  0.15350814549E+03  0.00000000000E+00 0. -1.
         24    1    1    2    0    0  0.12959741176E+03  0.43330517647E+02  0.48027125743E+02  0.16567088958E+03  0.80419002446E+02 0. -1.
          1    1    1    2  501    0 -0.11773607168E+03 -0.18991388743E+02 -0.51884971490E+02  0.13005577914E+03  0.00000000000E+00 0. -1.
         -2    1    1    2    0  502 -0.11861340079E+02 -0.24339128904E+02  0.45605063665E+02  0.53036840179E+02  0.00000000000E+00 0.  1.
<mgrwt>
<rscale>  2 0.15244510E+03</rscale>
<asrwt>0</asrwt>
<pdfrwt beam="1">  1       21 0.30039287E-01 0.15244510E+03</pdfrwt>
<pdfrwt beam="2">  1       21 0.23616638E-01 0.15244510E+03</pdfrwt>
<totfact> 0.18158246E+05</totfact>
</mgrwt>
</event>
<event>
 5    1  0.1708429E+000  0.1127448E+03  0.7546771E-02  0.1255570E+00
         21   -1    0    0  501  502  0.00000000000E+00  0.00000000000E+00  0.88617638411E+02  0.88617638411E+02  0.00000000000E+00 0. -1.
         21   -1    0    0  502  503 -0.00000000000E+00 -0.00000000000E+00 -0.24338399705E+03  0.24338399705E+03  0.00000000000E+00 0.  1.
         24    1    1    2    0    0 -0.82367751085E+02 -0.47496244540E+02 -0.17740353125E+03  0.21674770707E+03  0.80419002446E+02 0.  1.
          1    1    1    2  501    0  0.36648917543E+02  0.23758473843E+01  0.33969952130E+02  0.50027447023E+02  0.00000000000E+00 0. -1.
         -2    1    1    2    0  503  0.45718833542E+02  0.45120397155E+02 -0.11332779515E+02  0.65226481366E+02  0.00000000000E+00 0.  1.
<mgrwt>
<rscale>  2 0.11274481E+03</rscale>
<asrwt>0</asrwt>
<pdfrwt beam="1">  1       21 0.13633483E-01 0.11274481E+03</pdfrwt>
<pdfrwt beam="2">  1       21 0.37443691E-01 0.11274481E+03</pdfrwt>
<totfact> 0.32584434E+05</totfact>
</mgrwt>
</event>
<event>
 5    1  0.1708429E+000  0.7029356E+02  0.7546771E-02  0.1359098E+00
         21   -1    0    0  503  502  0.00000000000E+00  0.00000000000E+00  0.14307213679E+03  0.14307213679E+03  0.00000000000E+00 0.  1.
         21   -1    0    0  501  503 -0.00000000000E+00 -0.00000000000E+00 -0.28542060752E+03  0.28542060752E+03  0.00000000000E+00 0. -1.
         24    1    1    2    0    0  0.65298787331E+01 -0.61556993289E+01 -0.95850303734E+02  0.12543934244E+03  0.80419002446E+02 0.  1.
          1    1    1    2  501    0 -0.31002952548E+02  0.13932941959E+02 -0.17180878496E+03  0.17513871225E+03  0.00000000000E+00 0. -1.
         -2    1    1    2    0  502  0.24473073815E+02 -0.77772426297E+01  0.12531061797E+03  0.12791468962E+03  0.00000000000E+00 0.  1.
<mgrwt>
<rscale>  2 0.70293560E+02</rscale>
<asrwt>0</asrwt>
<pdfrwt beam="1">  1       21 0.22011098E-01 0.70293560E+02</pdfrwt>
<pdfrwt beam="2">  1       21 0.43910863E-01 0.70293560E+02</pdfrwt>
<totfact> 0.10142271E+05</totfact>
</mgrwt>
</event>
<event>
 5    1  0.1708429E+000  0.8543160E+02  0.7546771E-02  0.1314308E+00
         21   -1    0    0  501  502  0.00000000000E+00  0.00000000000E+00  0.67622239167E+02  0.67622239167E+02  0.00000000000E+00 0.  1.
         21   -1    0    0  502  503 -0.00000000000E+00 -0.00000000000E+00 -0.12451157051E+03  0.12451157051E+03  0.00000000000E+00 0. -1.
         24    1    1    2    0    0 -0.34475171809E+01  0.31050341625E+02 -0.46955647851E+01  0.86401813481E+02  0.80419002446E+02 0.  1.
          1    1    1    2  501    0 -0.17191949884E+01 -0.57557445843E+02 -0.14532204008E+02  0.59388552405E+02  0.00000000000E+00 0. -1.
         -2    1    1    2    0  503  0.51667121693E+01  0.26507104218E+02 -0.37661562551E+02  0.46343443791E+02  0.00000000000E+00 0.  1.
<mgrwt>
<rscale>  2 0.85431598E+02</rscale>
<asrwt>0</asrwt>
<pdfrwt beam="1">  1       21 0.10403421E-01 0.85431598E+02</pdfrwt>
<pdfrwt beam="2">  1       21 0.19155626E-01 0.85431598E+02</pdfrwt>
<totfact> 0.18580076E+06</totfact>
</mgrwt>
</event>
<event>
 5    1  0.1708429E+000  0.1052947E+03  0.7546771E-02  0.1269540E+00
         21   -1    0    0  503  502  0.00000000000E+00  0.00000000000E+00  0.23718525932E+02  0.23718525932E+02  0.00000000000E+00 0. -1.
         21   -1    0    0  501  503 -0.00000000000E+00 -0.00000000000E+00 -0.65004826155E+03  0.65004826155E+03  0.00000000000E+00 0. -1.
         24    1    1    2    0    0 -0.61918897058E+02  0.37207933847E+02 -0.47164442839E+03  0.48387401556E+03  0.80419002446E+02 0. -1.
          1    1    1    2  501    0  0.34824990725E+02 -0.58465616663E+02 -0.13242392327E+03  0.14888621080E+03  0.00000000000E+00 0. -1.
         -2    1    1    2    0  502  0.27093906333E+02  0.21257682817E+02 -0.22261383956E+02  0.41006561119E+02  0.00000000000E+00 0.  1.
<mgrwt>
<rscale>  2 0.10529467E+03</rscale>
<asrwt>0</asrwt>
<pdfrwt beam="1">  1       21 0.36490036E-02 0.10529467E+03</pdfrwt>
<pdfrwt beam="2">  1       21 0.10000744E+00 0.10529467E+03</pdfrwt>
<totfact> 0.38232325E+05</totfact>
</mgrwt>
</event>
<event>
 5    1  0.1708429E+000  0.1112921E+03  0.7546771E-02  0.1258196E+00
         21   -1    0    0  503  502  0.00000000000E+00  0.00000000000E+00  0.24334933399E+03  0.24334933399E+03  0.00000000000E+00 0. -1.
         21   -1    0    0  501  503 -0.00000000000E+00 -0.00000000000E+00 -0.75403796140E+02  0.75403796140E+02  0.00000000000E+00 0. -1.
         24    1    1    2    0    0 -0.48585516977E+02  0.80636427502E+02  0.66960007040E+02  0.14076094770E+03  0.80419002446E+02 0. -1.
          1    1    1    2  501    0  0.39630331535E+02 -0.36979009781E+02 -0.12882630125E+02  0.55713306318E+02  0.00000000000E+00 0. -1.
         -2    1    1    2    0  502  0.89551854415E+01 -0.43657417720E+02  0.11386816093E+03  0.12227887611E+03  0.00000000000E+00 0.  1.
<mgrwt>
<rscale>  2 0.11129211E+03</rscale>
<asrwt>0</asrwt>
<pdfrwt beam="1">  1       21 0.37438359E-01 0.11129211E+03</pdfrwt>
<pdfrwt beam="2">  1       21 0.11600584E-01 0.11129211E+03</pdfrwt>
<totfact> 0.43395379E+05</totfact>
</mgrwt>
</event>
<event>
 5    1  0.2018340E+000  0.1468290E+03  0.7546771E-02  0.1204424E+00
         21   -1    0    0  501  502  0.00000000000E+00  0.00000000000E+00  0.78015008413E+03  0.78015008413E+03  0.00000000000E+00 0. -1.
         21   -1    0    0  502  503 -0.00000000000E+00 -0.00000000000E+00 -0.54932953632E+02  0.54932953632E+02  0.00000000000E+00 0.  1.
         24    1    1    2    0    0  0.50258697203E+02 -0.17271026575E+02  0.11972530366E+03  0.15370617845E+03  0.80419002446E+02 0.  1.
          1    1    1    2  501    0  0.68536446974E+02 -0.22268653901E+02  0.53062854311E+03  0.53549956888E+03  0.00000000000E+00 0. -1.
         -2    1    1    2    0  503 -0.11879514418E+03  0.39539680476E+02  0.74863283727E+02  0.14587729043E+03  0.00000000000E+00 0.  1.
<mgrwt>
<rscale>  2 0.14682904E+03</rscale>
<asrwt>0</asrwt>
<pdfrwt beam="1">  1       21 0.12002308E+00 0.14682904E+03</pdfrwt>
<pdfrwt beam="2">  1       21 0.84512242E-02 0.14682904E+03</pdfrwt>
<totfact> 0.58948670E+04</totfact>
</mgrwt>
</event>
<event>
 5    1  0.1708429E+000  0.1029029E+03  0.7546771E-02  0.1274307E+00
         21   -1    0    0  501  502  0.00000000000E+00  0.00000000000E+00  0.81090289902E+03  0.81090289902E+03  0.00000000000E+00 0. -1.
         21   -1    0    0  502  503 -0.00000000000E+00 -0.00000000000E+00 -0.24125843741E+02  0.24125843741E+02  0.00000000000E+00 0.  1.
         24    1    1    2    0    0 -0.70246849645E+02 -0.12225371424E+02  0.62673445703E+03  0.63588314585E+03  0.80419002446E+02 0. -1.
          1    1    1    2  501    0  0.64853081926E+02 -0.18256300825E+02  0.15331816357E+03  0.16746842698E+03  0.00000000000E+00 0. -1.
         -2    1    1    2    0  503  0.53937677190E+01  0.30481672249E+02  0.67244346832E+01  0.31677169935E+02  0.00000000000E+00 0.  1.
<mgrwt>
<rscale>  2 0.10290293E+03</rscale>
<asrwt>0</asrwt>
<pdfrwt beam="1">  1       21 0.12475427E+00 0.10290293E+03</pdfrwt>
<pdfrwt beam="2">  1       21 0.37116689E-02 0.10290293E+03</pdfrwt>
<totfact> 0.21970218E+05</totfact>
</mgrwt>
</event>
<event>
 5    1  0.1708429E+000  0.9519609E+02  0.7546771E-02  0.1290735E+00
         21   -1    0    0  503  502  0.00000000000E+00  0.00000000000E+00  0.14549429483E+03  0.14549429483E+03  0.00000000000E+00 0.  1.
         21   -1    0    0  501  503 -0.00000000000E+00 -0.00000000000E+00 -0.15121917119E+03  0.15121917119E+03  0.00000000000E+00 0.  1.
         24    1    1    2    0    0  0.39967399392E+02  0.55249930497E+02 -0.11531330166E+03  0.15625082824E+03  0.80419002446E+02 0.  1.
          1    1    1    2  501    0 -0.49837874401E+02 -0.30800128111E+02  0.57545530599E+02  0.82121554469E+02  0.00000000000E+00 0. -1.
         -2    1    1    2    0  502  0.98704750087E+01 -0.24449802386E+02  0.52042894696E+02  0.58341083312E+02  0.00000000000E+00 0.  1.
<mgrwt>
<rscale>  2 0.95196092E+02</rscale>
<asrwt>0</asrwt>
<pdfrwt beam="1">  1       21 0.22383738E-01 0.95196092E+02</pdfrwt>
<pdfrwt beam="2">  1       21 0.23264488E-01 0.95196092E+02</pdfrwt>
<totfact> 0.33022498E+05</totfact>
</mgrwt>
</event>
<event>
 5    1  0.1708429E+000  0.9234768E+02  0.7546771E-02  0.1297264E+00
         21   -1    0    0  501  502  0.00000000000E+00  0.00000000000E+00  0.12235158105E+03  0.12235158105E+03  0.00000000000E+00 0.  1.
         21   -1    0    0  502  503 -0.00000000000E+00 -0.00000000000E+00 -0.15775860300E+03  0.15775860300E+03  0.00000000000E+00 0.  1.
         24    1    1    2    0    0 -0.13780904964E+02 -0.13958856507E+02  0.82843912506E+02  0.11711145465E+03  0.80419002446E+02 0.  1.
          1    1    1    2  501    0 -0.41557049263E+02  0.20242767688E+02 -0.20654901940E+02  0.50629862347E+02  0.00000000000E+00 0. -1.
         -2    1    1    2    0  503  0.55337954228E+02 -0.62839111810E+01 -0.97596032519E+02  0.11236886705E+03  0.00000000000E+00 0.  1.
<mgrwt>
<rscale>  2 0.92347679E+02</rscale>
<asrwt>0</asrwt>
<pdfrwt beam="1">  1       21 0.18823320E-01 0.92347679E+02</pdfrwt>
<pdfrwt beam="2">  1       21 0.24270554E-01 0.92347679E+02</pdfrwt>
<totfact> 0.41970065E+05</totfact>
</mgrwt>
</event>
<event>
 5    1  0.1708429E+000  0.8859958E+02  0.7546771E-02  0.1306279E+00
         21   -1    0    0  501  502  0.00000000000E+00  0.00000000000E+00  0.41250268815E+03  0.41250268815E+03  0.00000000000E+00 0.  1.
         21   -1    0    0  502  503 -0.00000000000E+00 -0.00000000000E+00 -0.39891260795E+02  0.39891260795E+02  0.00000000000E+00 0.  1.
         24    1    1    2    0    0 -0.29648583767E+02  0.24013789079E+02  0.25778162474E+02  0.92668388355E+02  0.80419002446E+02 0.  1.
          1    1    1    2  501    0 -0.26980044607E+02 -0.81570236595E+00  0.18020202517E+03  0.18221239818E+03  0.00000000000E+00 0. -1.
         -2    1    1    2    0  503  0.56628628375E+02 -0.23198086713E+02  0.16663123971E+03  0.17751316241E+03  0.00000000000E+00 0.  1.
<mgrwt>
<rscale>  2 0.88599579E+02</rscale>
<asrwt>0</asrwt>
<pdfrwt beam="1">  1       21 0.63461949E-01 0.88599579E+02</pdfrwt>
<pdfrwt beam="2">  1       21 0.61371173E-02 0.88599579E+02</pdfrwt>
<totfact> 0.44212740E+05</totfact>
</mgrwt>
</event>
<event>
 5    1  0.1708429E+000  0.8764258E+02  0.7546771E-02  0.1308663E+00
         21   -1    0    0  501  502  0.00000000000E+00  0.00000000000E+00  0.21252412368E+03  0.21252412368E+03  0.00000000000E+00 0.  1.
         21   -1    0    0  502  503 -0.00000000000E+00 -0.00000000000E+00 -0.38069750889E+02  0.38069750889E+02  0.00000000000E+00 0.  1.
         24    1    1    2    0    0 -0.21271473090E+02  0.52793873356E+02  0.76640031934E+02  0.12482218986E+03  0.80419002446E+02 0.  1.
          1    1    1    2  501    0 -0.17226227187E+02 -0.16340606602E+02  0.45315384620E+02  0.51158991492E+02  0.00000000000E+00 0. -1.
         -2    1    1    2    0  503  0.38497700277E+02 -0.36453266754E+02  0.52498956238E+02  0.74612693222E+02  0.00000000000E+00 0.  1.
<mgrwt>
<rscale>  2 0.87642584E+02</rscale>
<asrwt>0</asrwt>
<pdfrwt beam="1">  1       21 0.32696018E-01 0.87642584E+02</pdfrwt>
<pdfrwt beam="2">  1       21 0.58568849E-02 0.87642584E+02</pdfrwt>
<totfact> 0.18210217E+06</totfact>
</mgrwt>
</event>
<event>
 5    1  0.1708429E+000  0.8048960E+02  0.7546771E-02  0.1327668E+00
         21   -1    0    0  501  502  0.00000000000E+00  0.00000000000E+00  0.37377989628E+03  0.37377989628E+03  0.00000000000E+00 0. -1.
         21   -1    0    0  502  503 -0.00000000000E+00 -0.00000000000E+00 -0.25313377646E+03  0.25313377646E+03  0.00000000000E+00 0. -1.
         24    1    1    2    0    0  0.35924156835E+02 -0.24155471569E+02 -0.21439701558E+03  0.23303932735E+03  0.80419002446E+02 0. -1.
          1    1    1    2  501    0 -0.36585190297E+02 -0.80303588410E+01  0.35435793519E+03  0.35633202079E+03  0.00000000000E+00 0. -1.
         -2    1    1    2    0  503  0.66103346198E+00  0.32185830410E+02 -0.19314799791E+02  0.37542324587E+02  0.00000000000E+00 0.  1.
<mgrwt>
<rscale>  2 0.80489598E+02</rscale>
<asrwt>0</asrwt>
<pdfrwt beam="1">  1       21 0.57504600E-01 0.80489598E+02</pdfrwt>
<pdfrwt beam="2">  1       21 0.38943658E-01 0.80489598E+02</pdfrwt>
<totfact> 0.19695283E+04</totfact>
</mgrwt>
</event>
<event>
 5    1  0.1708429E+000  0.1127984E+03  0.7546771E-02  0.1255474E+00
         21   -1    0    0  501  502  0.00000000000E+00  0.00000000000E+00  0.10845701462E+03  0.10845701462E+03  0.00000000000E+00 0.  1.
         21   -1    0    0  502  503 -0.00000000000E+00 -0.00000000000E+00 -0.17921834793E+03  0.17921834793E+03  0.00000000000E+00 0.  1.
         24    1    1    2    0    0  0.54670215287E+02 -0.39382167032E+02 -0.81882372706E+02  0.13308541030E+03  0.80419002446E+02 0.  1.
          1    1    1    2  501    0  0.36873875000E+01 -0.29883549272E+02  0.48110136121E+02  0.56755691708E+02  0.00000000000E+00 0. -1.
         -2    1    1    2    0  503 -0.58357602787E+02  0.69265716304E+02 -0.36989096726E+02  0.97834260536E+02  0.00000000000E+00 0.  1.
<mgrwt>
<rscale>  2 0.11279840E+03</rscale>
<asrwt>0</asrwt>
<pdfrwt beam="1">  1       21 0.16685695E-01 0.11279840E+03</pdfrwt>
<pdfrwt beam="2">  1       21 0.27572053E-01 0.11279840E+03</pdfrwt>
<totfact> 0.41006824E+05</totfact>
</mgrwt>
</event>
<event>
 5    1  0.1708429E+000  0.6876856E+02  0.7546771E-02  0.1364331E+00
         21   -1    0    0  501  502  0.00000000000E+00  0.00000000000E+00  0.18284321740E+04  0.18284321740E+04  0.00000000000E+00 0.  1.
         21   -1    0    0  502  503 -0.00000000000E+00 -0.00000000000E+00 -0.48344547945E+01  0.48344547945E+01  0.00000000000E+00 0.  1.
         24    1    1    2    0    0  0.15976086373E+02 -0.17940516221E+02  0.15978617070E+04  0.16000644825E+04  0.80419002446E+02 0.  1.
          1    1    1    2  501    0  0.16236069220E+02  0.13449217715E+02  0.13859727066E+03  0.14019163611E+03  0.00000000000E+00 0. -1.
         -2    1    1    2    0  503 -0.32212155593E+02  0.44912985055E+01  0.87138741613E+02  0.93010510266E+02  0.00000000000E+00 0.  1.
<mgrwt>
<rscale>  2 0.68768565E+02</rscale>
<asrwt>0</asrwt>
<pdfrwt beam="1">  1       21 0.28129671E+00 0.68768565E+02</pdfrwt>
<pdfrwt beam="2">  1       21 0.74376374E-03 0.68768565E+02</pdfrwt>
<totfact> 0.29373930E+05</totfact>
</mgrwt>
</event>
<event>
 5    1  0.1708429E+000  0.7696613E+02  0.7546771E-02  0.1337888E+00
         21   -1    0    0  501  502  0.00000000000E+00  0.00000000000E+00  0.99652583913E+02  0.99652583913E+02  0.00000000000E+00 0. -1.
         21   -1    0    0  502  503 -0.00000000000E+00 -0.00000000000E+00 -0.31458373126E+03  0.31458373126E+03  0.00000000000E+00 0.  1.
         24    1    1    2    0    0 -0.81854932689E+01 -0.66898031878E+00 -0.65880811438E+02  0.10428301446E+03  0.80419002446E+02 0. -1.
          1    1    1    2  501    0  0.33759680518E+02 -0.20843726095E+02  0.74239482201E+02  0.84176467398E+02  0.00000000000E+00 0. -1.
         -2    1    1    2    0  503 -0.25574187249E+02  0.21512706414E+02 -0.22328981811E+03  0.22577683332E+03  0.00000000000E+00 0.  1.
<mgrwt>
<rscale>  2 0.76966134E+02</rscale>
<asrwt>0</asrwt>
<pdfrwt beam="1">  1       21 0.15331167E-01 0.76966134E+02</pdfrwt>
<pdfrwt beam="2">  1       21 0.48397497E-01 0.76966134E+02</pdfrwt>
<totfact> 0.15981957E+05</totfact>
</mgrwt>
</event>
<event>
 5    1  0.1708429E+000  0.7560880E+02  0.7546771E-02  0.1341996E+00
         21   -1    0    0  501  502  0.00000000000E+00  0.00000000000E+00  0.54245904847E+01  0.54245904847E+01  0.00000000000E+00 0.  1.
         21   -1    0    0  502  503 -0.00000000000E+00 -0.00000000000E+00 -0.13762787371E+04  0.13762787371E+04  0.00000000000E+00 0.  1.
         24    1    1    2    0    0 -0.25169802935E+02  0.14832062471E+02 -0.43061121626E+03  0.43902932087E+03  0.80419002446E+02 0.  1.
          1    1    1    2  501    0  0.19165241073E+02  0.21516988263E+02 -0.30301676573E+03  0.30438371764E+03  0.00000000000E+00 0. -1.
         -2    1    1    2    0  503  0.60045618616E+01 -0.36349050734E+02 -0.63722616467E+03  0.63829028912E+03  0.00000000000E+00 0.  1.
<mgrwt>
<rscale>  2 0.75608803E+02</rscale>
<asrwt>0</asrwt>
<pdfrwt beam="1">  1       21 0.83455204E-03 0.75608803E+02</pdfrwt>
<pdfrwt beam="2">  1       21 0.21173528E+00 0.75608803E+02</pdfrwt>
<totfact> 0.59603374E+05</totfact>
</mgrwt>
</event>
<event>
 5    1  0.1708429E+000  0.8261178E+02  0.7546771E-02  0.1321799E+00
         21   -1    0    0  501  502  0.00000000000E+00  0.00000000000E+00  0.21928283795E+03  0.21928283795E+03  0.00000000000E+00 0. -1.
         21   -1    0    0  502  503 -0.00000000000E+00 -0.00000000000E+00 -0.37646005096E+02  0.37646005096E+02  0.00000000000E+00 0. -1.
         24    1    1    2    0    0  0.60153490611E+01 -0.18483230427E+02  0.48884106465E+02  0.96097273898E+02  0.80419002446E+02 0. -1.
          1    1    1    2  501    0 -0.12822920850E+02  0.49294240601E+02  0.11207383027E+03  0.12310521064E+03  0.00000000000E+00 0. -1.
         -2    1    1    2    0  503  0.68075717888E+01 -0.30811010174E+02  0.20678896119E+02  0.37726358508E+02  0.00000000000E+00 0.  1.
<mgrwt>
<rscale>  2 0.82611778E+02</rscale>
<asrwt>0</asrwt>
<pdfrwt beam="1">  1       21 0.33735820E-01 0.82611778E+02</pdfrwt>
<pdfrwt beam="2">  1       21 0.57916932E-02 0.82611778E+02</pdfrwt>
<totfact> 0.17429023E+06</totfact>
</mgrwt>
</event>
<event>
 5    1  0.1708429E+000  0.7001791E+02  0.7546771E-02  0.1360032E+00
         21   -1    0    0  503  502  0.00000000000E+00  0.00000000000E+00  0.14363799239E+03  0.14363799239E+03  0.00000000000E+00 0.  1.
         21   -1    0    0  501  503 -0.00000000000E+00 -0.00000000000E+00 -0.10644600890E+03  0.10644600890E+03  0.00000000000E+00 0.  1.
         24    1    1    2    0    0  0.11350220626E+02 -0.78886145731E+01 -0.75860451890E+02  0.11141401107E+03  0.80419002446E+02 0.  1.
          1    1    1    2  501    0 -0.29583034170E+02  0.20741551967E+02  0.16761073261E+02  0.39828400239E+02  0.00000000000E+00 0. -1.
         -2    1    1    2    0  502  0.18232813544E+02 -0.12852937394E+02  0.96291362120E+02  0.98841589973E+02  0.00000000000E+00 0.  1.
<mgrwt>
<rscale>  2 0.70017911E+02</rscale>
<asrwt>0</asrwt>
<pdfrwt beam="1">  1       21 0.22098153E-01 0.70017911E+02</pdfrwt>
<pdfrwt beam="2">  1       21 0.16376309E-01 0.70017911E+02</pdfrwt>
<totfact> 0.64086134E+05</totfact>
</mgrwt>
</event>
<event>
 5    1  0.1708429E+000  0.9404718E+02  0.7546771E-02  0.1293337E+00
         21   -1    0    0  501  502  0.00000000000E+00  0.00000000000E+00  0.32692819987E+03  0.32692819987E+03  0.00000000000E+00 0. -1.
         21   -1    0    0  502  503 -0.00000000000E+00 -0.00000000000E+00 -0.33484691814E+02  0.33484691814E+02  0.00000000000E+00 0. -1.
         24    1    1    2    0    0  0.52385163655E+02 -0.25515954418E+02  0.80214087792E+02  0.12765886235E+03  0.80419002446E+02 0. -1.
          1    1    1    2  501    0 -0.52448025008E+02 -0.98950182398E+01  0.16129226962E+03  0.16989379904E+03  0.00000000000E+00 0. -1.
         -2    1    1    2    0  503  0.62861352236E-01  0.35410972657E+02  0.51937150646E+02  0.62860230299E+02  0.00000000000E+00 0.  1.
<mgrwt>
<rscale>  2 0.94047176E+02</rscale>
<asrwt>0</asrwt>
<pdfrwt beam="1">  1       21 0.50296644E-01 0.94047176E+02</pdfrwt>
<pdfrwt beam="2">  1       21 0.51514913E-02 0.94047176E+02</pdfrwt>
<totfact> 0.96204883E+05</totfact>
</mgrwt>
</event>
<event>
 5    1  0.1708429E+000  0.6751016E+02  0.7546771E-02  0.1368771E+00
         21   -1    0    0  503  502  0.00000000000E+00  0.00000000000E+00  0.37573139991E+03  0.37573139991E+03  0.00000000000E+00 0.  1.
         21   -1    0    0  501  503 -0.00000000000E+00 -0.00000000000E+00 -0.33091185860E+02  0.33091185860E+02  0.00000000000E+00 0. -1.
         24    1    1    2    0    0  0.33851861559E+01  0.38898560721E+02  0.13777121795E+03  0.16423362007E+03  0.80419002446E+02 0.  1.
          1    1    1    2  501    0  0.99980810789E+01 -0.21155862807E+02 -0.12197515288E+02  0.26387715618E+02  0.00000000000E+00 0. -1.
         -2    1    1    2    0  502 -0.13383267235E+02 -0.17742697914E+02  0.21706651139E+03  0.21820125008E+03  0.00000000000E+00 0.  1.
<mgrwt>
<rscale>  2 0.67510163E+02</rscale>
<asrwt>0</asrwt>
<pdfrwt beam="1">  1       21 0.57804828E-01 0.67510163E+02</pdfrwt>
<pdfrwt beam="2">  1       21 0.50909520E-02 0.67510163E+02</pdfrwt>
<totfact> 0.73313117E+05</totfact>
</mgrwt>
</event>
<event>
 5    1  0.1708429E+000  0.7378451E+02  0.7546771E-02  0.1347677E+00
         21   -1    0    0  501  502  0.00000000000E+00  0.00000000000E+00  0.63119015782E+02  0.63119015782E+02  0.00000000000E+00 0. -1.
         21   -1    0    0  502  503 -0.00000000000E+00 -0.00000000000E+00 -0.25687846289E+03  0.25687846289E+03  0.00000000000E+00 0. -1.
         24    1    1    2    0    0 -0.46148379685E+02  0.13064470382E+01 -0.12414905188E+03  0.15495671263E+03  0.80419002446E+02 0.  0.
          1    1    1    2  501    0  0.25741076736E+02  0.14026680764E+02  0.41626441322E+02  0.50912782501E+02  0.00000000000E+00 0. -1.
         -2    1    1    2    0  503  0.20407302949E+02 -0.15333127802E+02 -0.11123683655E+03  0.11412798355E+03  0.00000000000E+00 0.  1.
<mgrwt>
<rscale>  2 0.73784514E+02</rscale>
<asrwt>0</asrwt>
<pdfrwt beam="1">  1       21 0.97106179E-02 0.73784514E+02</pdfrwt>
<pdfrwt beam="2">  1       21 0.39519763E-01 0.73784514E+02</pdfrwt>
<totfact> 0.53210338E+05</totfact>
</mgrwt>
</event>
<event>
 5    1  0.1708429E+000  0.7126573E+02  0.7546771E-02  0.1355841E+00
         21   -1    0    0  503  502  0.00000000000E+00  0.00000000000E+00  0.21373039356E+03  0.21373039356E+03  0.00000000000E+00 0. -1.
         21   -1    0    0  501  503 -0.00000000000E+00 -0.00000000000E+00 -0.29460189621E+02  0.29460189621E+02  0.00000000000E+00 0.  1.
         24    1    1    2    0    0 -0.66080679157E+00 -0.44896108326E+02  0.14143132223E+03  0.16877835190E+03  0.80419002446E+02 0.  0.
          1    1    1    2  501    0  0.11706242098E+02  0.26478438514E+02  0.29385771900E+01  0.29099468141E+02  0.00000000000E+00 0. -1.
         -2    1    1    2    0  502 -0.11045435307E+02  0.18417669812E+02  0.39900304516E+02  0.45312763134E+02  0.00000000000E+00 0.  1.
<mgrwt>
<rscale>  2 0.71265734E+02</rscale>
<asrwt>0</asrwt>
<pdfrwt beam="1">  1       21 0.32881598E-01 0.71265734E+02</pdfrwt>
<pdfrwt beam="2">  1       21 0.45323370E-02 0.71265734E+02</pdfrwt>
<totfact> 0.27314881E+06</totfact>
</mgrwt>
</event>
<event>
 5    1  0.1708429E+000  0.1008359E+03  0.7546771E-02  0.1278548E+00
         21   -1    0    0  501  502  0.00000000000E+00  0.00000000000E+00  0.97308373814E+03  0.97308373814E+03  0.00000000000E+00 0. -1.
         21   -1    0    0  502  503 -0.00000000000E+00 -0.00000000000E+00 -0.16600414004E+02  0.16600414004E+02  0.00000000000E+00 0. -1.
         24    1    1    2    0    0 -0.48393008665E+02  0.53336636633E+02  0.20002716134E+03  0.22729883705E+03  0.80419002446E+02 0. -1.
          1    1    1    2  501    0  0.20563512349E+02 -0.61393904549E+02  0.57450825110E+03  0.57814513761E+03  0.00000000000E+00 0. -1.
         -2    1    1    2    0  503  0.27829496317E+02  0.80572679159E+01  0.18194791169E+03  0.18424017749E+03  0.00000000000E+00 0.  1.
<mgrwt>
<rscale>  2 0.10083591E+03</rscale>
<asrwt>0</asrwt>
<pdfrwt beam="1">  1       21 0.14970515E+00 0.10083591E+03</pdfrwt>
<pdfrwt beam="2">  1       21 0.25539106E-02 0.10083591E+03</pdfrwt>
<totfact> 0.25665922E+05</totfact>
</mgrwt>
</event>
<event>
 5    1  0.1708429E+000  0.8034625E+02  0.7546771E-02  0.1328072E+00
         21   -1    0    0  501  502  0.00000000000E+00  0.00000000000E+00  0.13547514865E+04  0.13547514865E+04  0.00000000000E+00 0.  1.
         21   -1    0    0  502  503 -0.00000000000E+00 -0.00000000000E+00 -0.54138466162E+01  0.54138466162E+01  0.00000000000E+00 0. -1.
         24    1    1    2    0    0  0.18081689264E+02  0.23748148761E+02  0.79437629502E+03  0.79899426537E+03  0.80419002446E+02 0. -1.
          1    1    1    2  501    0 -0.25519745835E+02  0.18814287379E+02  0.36421042716E+03  0.36558784182E+03  0.00000000000E+00 0. -1.
         -2    1    1    2    0  503  0.74380565714E+01 -0.42562436140E+02  0.19075091768E+03  0.19558322590E+03  0.00000000000E+00 0.  1.
<mgrwt>
<rscale>  2 0.80346250E+02</rscale>
<asrwt>0</asrwt>
<pdfrwt beam="1">  1       21 0.20842304E+00 0.80346250E+02</pdfrwt>
<pdfrwt beam="2">  1       21 0.83290056E-03 0.80346250E+02</pdfrwt>
<totfact> 0.62406645E+05</totfact>
</mgrwt>
</event>
<event>
 5    1  0.1708429E+000  0.7705833E+02  0.7546771E-02  0.1337613E+00
         21   -1    0    0  501  502  0.00000000000E+00  0.00000000000E+00  0.24200550275E+03  0.24200550275E+03  0.00000000000E+00 0. -1.
         21   -1    0    0  502  503 -0.00000000000E+00 -0.00000000000E+00 -0.36206678375E+02  0.36206678375E+02  0.00000000000E+00 0.  1.
         24    1    1    2    0    0 -0.41352645788E+02  0.28626817556E+02  0.15810311134E+03  0.18437284444E+03  0.80419002446E+02 0. -1.
          1    1    1    2  501    0  0.16049390547E+02 -0.29894687645E+02  0.57425239863E+02  0.66700325783E+02  0.00000000000E+00 0. -1.
         -2    1    1    2    0  503  0.25303255241E+02  0.12678700891E+01 -0.97295268289E+01  0.27139010900E+02  0.00000000000E+00 0.  1.
<mgrwt>
<rscale>  2 0.77058329E+02</rscale>
<asrwt>0</asrwt>
<pdfrwt beam="1">  1       21 0.37231615E-01 0.77058329E+02</pdfrwt>
<pdfrwt beam="2">  1       21 0.55702584E-02 0.77058329E+02</pdfrwt>
<totfact> 0.15324541E+06</totfact>
</mgrwt>
</event>
<event>
 5    1  0.1708429E+000  0.9652582E+02  0.7546771E-02  0.1287776E+00
         21   -1    0    0  503  502  0.00000000000E+00  0.00000000000E+00  0.30603347518E+02  0.30603347518E+02  0.00000000000E+00 0.  1.
         21   -1    0    0  501  503 -0.00000000000E+00 -0.00000000000E+00 -0.34522138831E+03  0.34522138831E+03  0.00000000000E+00 0. -1.
         24    1    1    2    0    0  0.39140085172E+02 -0.98728702292E+00 -0.90998691089E+02  0.12759662510E+03  0.80419002446E+02 0. -1.
          1    1    1    2  501    0 -0.16069713598E+02  0.48336415390E+02 -0.14418460282E+03  0.15291777019E+03  0.00000000000E+00 0. -1.
         -2    1    1    2    0  502 -0.23070371574E+02 -0.47349128367E+02 -0.79434746877E+02  0.95310340536E+02  0.00000000000E+00 0.  1.
<mgrwt>
<rscale>  2 0.96525822E+02</rscale>
<asrwt>0</asrwt>
<pdfrwt beam="1">  1       21 0.47082073E-02 0.96525822E+02</pdfrwt>
<pdfrwt beam="2">  1       21 0.53110983E-01 0.96525822E+02</pdfrwt>
<totfact> 0.99959116E+05</totfact>
</mgrwt>
</event>
<event>
 5    1  0.1708429E+000  0.1208476E+03  0.7546771E-02  0.1241705E+00
         21   -1    0    0  501  502  0.00000000000E+00  0.00000000000E+00  0.13496020590E+02  0.13496020590E+02  0.00000000000E+00 0. -1.
         21   -1    0    0  502  503 -0.00000000000E+00 -0.00000000000E+00 -0.27189103682E+04  0.27189103682E+04  0.00000000000E+00 0. -1.
         24    1    1    2    0    0  0.84704009230E+02  0.63349069881E+02 -0.16221365608E+04  0.16275693877E+04  0.80419002446E+02 0. -1.
          1    1    1    2  501    0 -0.30086865453E+02 -0.81529367152E+01 -0.16561804728E+02  0.35298487584E+02  0.00000000000E+00 0. -1.
         -2    1    1    2    0  503 -0.54617143777E+02 -0.55196133166E+02 -0.10667159821E+04  0.10695385135E+04  0.00000000000E+00 0.  1.
<mgrwt>
<rscale>  2 0.12084759E+03</rscale>
<asrwt>0</asrwt>
<pdfrwt beam="1">  1       21 0.20763116E-02 0.12084759E+03</pdfrwt>
<pdfrwt beam="2">  1       21 0.41829375E+00 0.12084759E+03</pdfrwt>
<totfact> 0.87098165E+03</totfact>
</mgrwt>
</event>
<event>
 5    1  0.1708429E+000  0.8130398E+02  0.7546771E-02  0.1325391E+00
         21   -1    0    0  503  502  0.00000000000E+00  0.00000000000E+00  0.23385953050E+03  0.23385953050E+03  0.00000000000E+00 0.  1.
         21   -1    0    0  501  503 -0.00000000000E+00 -0.00000000000E+00 -0.53798269945E+02  0.53798269945E+02  0.00000000000E+00 0. -1.
         24    1    1    2    0    0  0.30995210606E+02  0.94033656071E+01  0.69726649621E+02  0.11125712556E+03  0.80419002446E+02 0. -1.
          1    1    1    2  501    0 -0.24172265843E+02 -0.38810651738E+02 -0.14500720416E+02  0.47967030520E+02  0.00000000000E+00 0. -1.
         -2    1    1    2    0  502 -0.68229447632E+01  0.29407286131E+02  0.12483533135E+03  0.12843364437E+03  0.00000000000E+00 0.  1.
<mgrwt>
<rscale>  2 0.81303983E+02</rscale>
<asrwt>0</asrwt>
<pdfrwt beam="1">  1       21 0.35978389E-01 0.81303983E+02</pdfrwt>
<pdfrwt beam="2">  1       21 0.82766570E-02 0.81303983E+02</pdfrwt>
<totfact> 0.84137581E+05</totfact>
</mgrwt>
</event>
<event>
 5    1  0.1708429E+000  0.1347083E+03  0.7546771E-02  0.1220632E+00
         21   -1    0    0  503  502  0.00000000000E+00  0.00000000000E+00  0.18643961928E+04  0.18643961928E+04  0.00000000000E+00 0. -1.
         21   -1    0    0  501  503 -0.00000000000E+00 -0.00000000000E+00 -0.19469456236E+02  0.19469456236E+02  0.00000000000E+00 0. -1.
         24    1    1    2    0    0 -0.90289685872E+02 -0.69721835603E+02  0.10482630859E+04  0.10575141015E+04  0.80419002446E+02 0. -1.
          1    1    1    2  501    0  0.95616397895E+02  0.47070617598E+02  0.17953574060E+03  0.20878510660E+03  0.00000000000E+00 0. -1.
         -2    1    1    2    0  502 -0.53267120234E+01  0.22651218004E+02  0.61712791012E+03  0.61756644095E+03  0.00000000000E+00 0.  1.
<mgrwt>
<rscale>  2 0.13470826E+03</rscale>
<asrwt>0</asrwt>
<pdfrwt beam="1">  1       21 0.28683004E+00 0.13470826E+03</pdfrwt>
<pdfrwt beam="2">  1       21 0.29953024E-02 0.13470826E+03</pdfrwt>
<totfact> 0.27406404E+04</totfact>
</mgrwt>
</event>
<event>
 5    1  0.1708429E+000  0.7645345E+02  0.7546771E-02  0.1339428E+00
         21   -1    0    0  503  502  0.00000000000E+00  0.00000000000E+00  0.55501864772E+03  0.55501864772E+03  0.00000000000E+00 0.  1.
         21   -1    0    0  501  503 -0.00000000000E+00 -0.00000000000E+00 -0.60534089160E+02  0.60534089160E+02  0.00000000000E+00 0. -1.
         24    1    1    2    0    0 -0.43471122565E+02  0.13700972104E+02  0.27339130655E+03  0.28859569918E+03  0.80419002446E+02 0. -1.
          1    1    1    2  501    0  0.21417262025E+02 -0.27194157668E+02 -0.46582397672E+02  0.58035688131E+02  0.00000000000E+00 0. -1.
         -2    1    1    2    0  502  0.22053860540E+02  0.13493185564E+02  0.26767564968E+03  0.26892134957E+03  0.00000000000E+00 0.  1.
<mgrwt>
<rscale>  2 0.76453454E+02</rscale>
<asrwt>0</asrwt>
<pdfrwt beam="1">  1       21 0.85387481E-01 0.76453454E+02</pdfrwt>
<pdfrwt beam="2">  1       21 0.93129372E-02 0.76453454E+02</pdfrwt>
<totfact> 0.11476195E+05</totfact>
</mgrwt>
</event>
<event>
 5    1  0.1708429E+000  0.1014191E+03  0.7546771E-02  0.1277340E+00
         21   -1    0    0  501  502  0.00000000000E+00  0.00000000000E+00  0.14209618509E+03  0.14209618509E+03  0.00000000000E+00 0. -1.
         21   -1    0    0  502  503 -0.00000000000E+00 -0.00000000000E+00 -0.11855777729E+03  0.11855777729E+03  0.00000000000E+00 0.  1.
         24    1    1    2    0    0 -0.69715570956E+02 -0.12601031449E+02  0.27050707072E+02  0.11053507830E+03  0.80419002446E+02 0. -1.
          1    1    1    2  501    0  0.66230476710E+02 -0.14947368444E+02  0.53672688659E+02  0.86548583908E+02  0.00000000000E+00 0. -1.
         -2    1    1    2    0  503  0.34850942463E+01  0.27548399894E+02 -0.57184987933E+02  0.63570300169E+02  0.00000000000E+00 0.  1.
<mgrwt>
<rscale>  2 0.10141910E+03</rscale>
<asrwt>0</asrwt>
<pdfrwt beam="1">  1       21 0.21860951E-01 0.10141910E+03</pdfrwt>
<pdfrwt beam="2">  1       21 0.18239658E-01 0.10141910E+03</pdfrwt>
<totfact> 0.53963153E+05</totfact>
</mgrwt>
</event>
<event>
 5    1  0.1708429E+000  0.8386727E+02  0.7546771E-02  0.1318422E+00
         21   -1    0    0  501  502  0.00000000000E+00  0.00000000000E+00  0.11115303458E+03  0.11115303458E+03  0.00000000000E+00 0. -1.
         21   -1    0    0  502  503 -0.00000000000E+00 -0.00000000000E+00 -0.37377328868E+03  0.37377328868E+03  0.00000000000E+00 0.  1.
         24    1    1    2    0    0 -0.16336527926E+02  0.62338575706E+02 -0.15708513394E+03  0.18787212519E+03  0.80419002446E+02 0. -1.
          1    1    1    2  501    0  0.80389785852E+01 -0.41089668015E+02  0.90489762379E+02  0.99706484692E+02  0.00000000000E+00 0. -1.
         -2    1    1    2    0  503  0.82975493403E+01 -0.21248907691E+02 -0.19602488254E+03  0.19734771338E+03  0.00000000000E+00 0.  1.
<mgrwt>
<rscale>  2 0.83867265E+02</rscale>
<asrwt>0</asrwt>
<pdfrwt beam="1">  1       21 0.17100467E-01 0.83867265E+02</pdfrwt>
<pdfrwt beam="2">  1       21 0.57503583E-01 0.83867265E+02</pdfrwt>
<totfact> 0.91962319E+04</totfact>
</mgrwt>
</event>
<event>
 5    1  0.1708429E+000  0.9529462E+02  0.7546771E-02  0.1290514E+00
         21   -1    0    0  501  502  0.00000000000E+00  0.00000000000E+00  0.51497053288E+02  0.51497053288E+02  0.00000000000E+00 0. -1.
         21   -1    0    0  502  503 -0.00000000000E+00 -0.00000000000E+00 -0.27481714533E+03  0.27481714533E+03  0.00000000000E+00 0.  1.
         24    1    1    2    0    0  0.56730302748E+02  0.70076668879E+01 -0.17337544426E+02  0.10017605026E+03  0.80419002446E+02 0. -1.
          1    1    1    2  501    0 -0.77904438859E+01  0.29727864243E+02 -0.51432579284E+02  0.59914498581E+02  0.00000000000E+00 0. -1.
         -2    1    1    2    0  503 -0.48939858862E+02 -0.36735531131E+02 -0.15454996833E+03  0.16622364978E+03  0.00000000000E+00 0.  1.
<mgrwt>
<rscale>  2 0.95294618E+02</rscale>
<asrwt>0</asrwt>
<pdfrwt beam="1">  1       21 0.79226235E-02 0.95294618E+02</pdfrwt>
<pdfrwt beam="2">  1       21 0.42279561E-01 0.95294618E+02</pdfrwt>
<totfact> 0.66074344E+05</totfact>
</mgrwt>
</event>
<event>
 5    1  0.1708429E+000  0.8461713E+02  0.7546771E-02  0.1316437E+00
         21   -1    0    0  503  502  0.00000000000E+00  0.00000000000E+00  0.25955871160E+03  0.25955871160E+03  0.00000000000E+00 0.  1.
         21   -1    0    0  501  503 -0.00000000000E+00 -0.00000000000E+00 -0.45312492562E+02  0.45312492562E+02  0.00000000000E+00 0. -1.
         24    1    1    2    0    0 -0.21000722422E+02 -0.49005565814E+02  0.21033647503E+03  0.23141137505E+03  0.80419002446E+02 0.  1.
          1    1    1    2  501    0  0.33286838832E+02  0.14850345402E+02 -0.27630770786E+01  0.36553809554E+02  0.00000000000E+00 0. -1.
         -2    1    1    2    0  502 -0.12286116411E+02  0.34155220412E+02  0.66728210858E+01  0.36906019551E+02  0.00000000000E+00 0.  1.
<mgrwt>
<rscale>  2 0.84617129E+02</rscale>
<asrwt>0</asrwt>
<pdfrwt beam="1">  1       21 0.39932109E-01 0.84617129E+02</pdfrwt>
<pdfrwt beam="2">  1       21 0.69711528E-02 0.84617129E+02</pdfrwt>
<totfact> 0.91877990E+05</totfact>
</mgrwt>
</event>
<event>
 5    1  0.1708429E+000  0.1063078E+03  0.7546771E-02  0.1267564E+00
         21   -1    0    0  501  502  0.00000000000E+00  0.00000000000E+00  0.26502763353E+03  0.26502763353E+03  0.00000000000E+00 0. -1.
         21   -1    0    0  502  503 -0.00000000000E+00 -0.00000000000E+00 -0.51911922231E+02  0.51911922231E+02  0.00000000000E+00 0.  1.
         24    1    1    2    0    0 -0.46352251485E+02  0.23424391918E+02  0.82237968547E+02  0.12620432948E+03  0.80419002446E+02 0. -1.
          1    1    1    2  501    0 -0.46450012283E+01  0.37299087774E+02  0.97875218169E+02  0.10484443865E+03  0.00000000000E+00 0. -1.
         -2    1    1    2    0  503  0.50997252713E+02 -0.60723479692E+02  0.33002524585E+02  0.85890787627E+02  0.00000000000E+00 0.  1.
<mgrwt>
<rscale>  2 0.10630781E+03</rscale>
<asrwt>0</asrwt>
<pdfrwt beam="1">  1       21 0.40773481E-01 0.10630781E+03</pdfrwt>
<pdfrwt beam="2">  1       21 0.79864497E-02 0.10630781E+03</pdfrwt>
<totfact> 0.70093804E+05</totfact>
</mgrwt>
</event>
<event>
 5    1  0.1708429E+000  0.1214766E+03  0.7546771E-02  0.1240681E+00
         21   -1    0    0  503  502  0.00000000000E+00  0.00000000000E+00  0.61099981916E+03  0.61099981916E+03  0.00000000000E+00 0. -1.
         21   -1    0    0  501  503 -0.00000000000E+00 -0.00000000000E+00 -0.30585609710E+02  0.30585609710E+02  0.00000000000E+00 0. -1.
         24    1    1    2    0    0 -0.44529372016E+02 -0.75489585832E+02  0.37659701621E+03  0.39493552779E+03  0.80419002446E+02 0. -1.
          1    1    1    2  501    0  0.69404451680E+02  0.38323340991E+02  0.70720895848E+02  0.10624077130E+03  0.00000000000E+00 0. -1.
         -2    1    1    2    0  502 -0.24875079664E+02  0.37166244841E+02  0.13309629740E+03  0.14040912978E+03  0.00000000000E+00 0.  1.
<mgrwt>
<rscale>  2 0.12147658E+03</rscale>
<asrwt>0</asrwt>
<pdfrwt beam="1">  1       21 0.93999963E-01 0.12147658E+03</pdfrwt>
<pdfrwt beam="2">  1       21 0.47054789E-02 0.12147658E+03</pdfrwt>
<totfact> 0.28831802E+05</totfact>
</mgrwt>
</event>
<event>
 5    1  0.1708429E+000  0.6429341E+02  0.7546771E-02  0.1380649E+00
         21   -1    0    0  501  502  0.00000000000E+00  0.00000000000E+00  0.78015515111E+02  0.78015515111E+02  0.00000000000E+00 0.  1.
         21   -1    0    0  502  503 -0.00000000000E+00 -0.00000000000E+00 -0.74870195464E+02  0.74870195464E+02  0.00000000000E+00 0. -1.
         24    1    1    2    0    0  0.12275908192E+01 -0.17093131157E+01  0.37166661629E+02  0.88617184686E+02  0.80419002446E+02 0.  1.
          1    1    1    2  501    0  0.38883959914E+01  0.24487678627E+02 -0.23260720544E+01  0.24903345942E+02  0.00000000000E+00 0. -1.
         -2    1    1    2    0  503 -0.51159868107E+01 -0.22778365511E+02 -0.31695269928E+02  0.39365179947E+02  0.00000000000E+00 0.  1.
<mgrwt>
<rscale>  2 0.64293414E+02</rscale>
<asrwt>0</asrwt>
<pdfrwt beam="1">  1       21 0.12002387E-01 0.64293414E+02</pdfrwt>
<pdfrwt beam="2">  1       21 0.11518492E-01 0.64293414E+02</pdfrwt>
<totfact> 0.35194605E+06</totfact>
</mgrwt>
</event>
<event>
 5    1  0.1708429E+000  0.8707463E+02  0.7546771E-02  0.1310095E+00
         21   -1    0    0  503  502  0.00000000000E+00  0.00000000000E+00  0.33873857672E+02  0.33873857672E+02  0.00000000000E+00 0.  1.
         21   -1    0    0  501  503 -0.00000000000E+00 -0.00000000000E+00 -0.30757221675E+03  0.30757221675E+03  0.00000000000E+00 0.  1.
         24    1    1    2    0    0  0.24487354317E+02 -0.36394782788E+02 -0.13035016476E+03  0.15931915184E+03  0.80419002446E+02 0.  0.
          1    1    1    2  501    0  0.24794179780E+02  0.11477067768E+02 -0.11843312215E+03  0.12154373229E+03  0.00000000000E+00 0. -1.
         -2    1    1    2    0  502 -0.49281534097E+02  0.24917715020E+02 -0.24915072156E+02  0.60583190287E+02  0.00000000000E+00 0.  1.
<mgrwt>
<rscale>  2 0.87074628E+02</rscale>
<asrwt>0</asrwt>
<pdfrwt beam="1">  1       21 0.52113628E-02 0.87074628E+02</pdfrwt>
<pdfrwt beam="2">  1       21 0.47318802E-01 0.87074628E+02</pdfrwt>
<totfact> 0.10670720E+06</totfact>
</mgrwt>
</event>
<event>
 5    1  0.1708429E+000  0.1024317E+03  0.7546771E-02  0.1275264E+00
         21   -1    0    0  501  502  0.00000000000E+00  0.00000000000E+00  0.37079427427E+03  0.37079427427E+03  0.00000000000E+00 0. -1.
         21   -1    0    0  502  503 -0.00000000000E+00 -0.00000000000E+00 -0.75986821862E+02  0.75986821862E+02  0.00000000000E+00 0.  1.
         24    1    1    2    0    0  0.27059278423E+02 -0.54201318119E+02 -0.30497096385E+02  0.10520112298E+03  0.80419002446E+02 0.  1.
          1    1    1    2  501    0 -0.41115783499E+01  0.73853063718E+02  0.23002659044E+03  0.24162659706E+03  0.00000000000E+00 0. -1.
         -2    1    1    2    0  503 -0.22947700073E+02 -0.19651745599E+02  0.95277958351E+02  0.99953376088E+02  0.00000000000E+00 0.  1.
<mgrwt>
<rscale>  2 0.10243174E+03</rscale>
<asrwt>0</asrwt>
<pdfrwt beam="1">  1       21 0.57045272E-01 0.10243174E+03</pdfrwt>
<pdfrwt beam="2">  1       21 0.11690281E-01 0.10243174E+03</pdfrwt>
<totfact> 0.18241127E+05</totfact>
</mgrwt>
</event>
<event>
 5    1  0.1708429E+000  0.7485951E+02  0.7546771E-02  0.1344307E+00
         21   -1    0    0  503  502  0.00000000000E+00  0.00000000000E+00  0.38236073135E+02  0.38236073135E+02  0.00000000000E+00 0. -1.
         21   -1    0    0  501  503 -0.00000000000E+00 -0.00000000000E+00 -0.21697182908E+03  0.21697182908E+03  0.00000000000E+00 0.  1.
         24    1    1    2    0    0  0.63800130214E+01  0.18973487402E+02 -0.15717102139E+03  0.17768129814E+03  0.80419002446E+02 0.  1.
          1    1    1    2  501    0  0.18927074135E+02  0.15233100196E+02 -0.24970941130E+02  0.34840054217E+02  0.00000000000E+00 0. -1.
         -2    1    1    2    0  502 -0.25307087157E+02 -0.34206587598E+02  0.34062065735E+01  0.42686549857E+02  0.00000000000E+00 0.  1.
<mgrwt>
<rscale>  2 0.74859509E+02</rscale>
<asrwt>0</asrwt>
<pdfrwt beam="1">  1       21 0.58824728E-02 0.74859509E+02</pdfrwt>
<pdfrwt beam="2">  1       21 0.33380281E-01 0.74859509E+02</pdfrwt>
<totfact> 0.17268397E+06</totfact>
</mgrwt>
</event>
<event>
 5    1  0.1708429E+000  0.1351432E+03  0.7546771E-02  0.1220018E+00
         21   -1    0    0  503  502  0.00000000000E+00  0.00000000000E+00  0.67469063171E+02  0.67469063171E+02  0.00000000000E+00 0.  1.
         21   -1    0    0  501  503 -0.00000000000E+00 -0.00000000000E+00 -0.27662970552E+03  0.27662970552E+03  0.00000000000E+00 0.  1.
         24    1    1    2    0    0 -0.72283355316E+01 -0.11874662564E+03 -0.97589542839E+02  0.17362011624E+03  0.80419002446E+02 0.  1.
          1    1    1    2  501    0  0.21014876232E+02  0.28580876616E+02 -0.46246708917E+02  0.58285929836E+02  0.00000000000E+00 0. -1.
         -2    1    1    2    0  502 -0.13786540701E+02  0.90165749028E+02 -0.65324390596E+02  0.11219272262E+03  0.00000000000E+00 0.  1.
<mgrwt>
<rscale>  2 0.13514316E+03</rscale>
<asrwt>0</asrwt>
<pdfrwt beam="1">  1       21 0.10379856E-01 0.13514316E+03</pdfrwt>
<pdfrwt beam="2">  1       21 0.42558416E-01 0.13514316E+03</pdfrwt>
<totfact> 0.40743798E+05</totfact>
</mgrwt>
</event>
<event>
 5    1  0.1708429E+000  0.8908181E+02  0.7546771E-02  0.1305091E+00
         21   -1    0    0  501  502  0.00000000000E+00  0.00000000000E+00  0.60121845830E+03  0.60121845830E+03  0.00000000000E+00 0.  1.
         21   -1    0    0  502  503 -0.00000000000E+00 -0.00000000000E+00 -0.34018362911E+02  0.34018362911E+02  0.00000000000E+00 0.  1.
         24    1    1    2    0    0  0.22192324829E+01 -0.70890822817E+02  0.32018621494E+03  0.33766382978E+03  0.80419002446E+02 0.  1.
          1    1    1    2  501    0 -0.71764890489E+00  0.42477857054E+02  0.26199513734E+03  0.26541728532E+03  0.00000000000E+00 0. -1.
         -2    1    1    2    0  503 -0.15015835780E+01  0.28412965763E+02 -0.14981256892E+02  0.32155706100E+02  0.00000000000E+00 0.  1.
<mgrwt>
<rscale>  2 0.89081815E+02</rscale>
<asrwt>0</asrwt>
<pdfrwt beam="1">  1       21 0.92495140E-01 0.89081815E+02</pdfrwt>
<pdfrwt beam="2">  1       21 0.52335947E-02 0.89081815E+02</pdfrwt>
<totfact> 0.25269928E+05</totfact>
</mgrwt>
</event>
<event>
 5    1  0.1708429E+000  0.8279099E+02  0.7546771E-02  0.1321313E+00
         21   -1    0    0  503  502  0.00000000000E+00  0.00000000000E+00  0.12356033429E+02  0.12356033429E+02  0.00000000000E+00 0. -1.
         21   -1    0    0  501  503 -0.00000000000E+00 -0.00000000000E+00 -0.21461588409E+04  0.21461588409E+04  0.00000000000E+00 0. -1.
         24    1    1    2    0    0  0.20056804120E+02 -0.35672298984E+02 -0.28127645689E+03  0.29539541205E+03  0.80419002446E+02 0. -1.
          1    1    1    2  501    0  0.22478680132E+02  0.19777579702E+02 -0.17579722453E+04  0.17582271921E+04  0.00000000000E+00 0. -1.
         -2    1    1    2    0  502 -0.42535484252E+02  0.15894719282E+02 -0.94554105270E+02  0.10489227019E+03  0.00000000000E+00 0.  1.
<mgrwt>
<rscale>  2 0.82790990E+02</rscale>
<asrwt>0</asrwt>
<pdfrwt beam="1">  1       21 0.19009277E-02 0.82790990E+02</pdfrwt>
<pdfrwt beam="2">  1       21 0.33017838E+00 0.82790990E+02</pdfrwt>
<totfact> 0.35762534E+04</totfact>
</mgrwt>
</event>
<event>
 5    1  0.1708429E+000  0.8799125E+02  0.7546771E-02  0.1307790E+00
         21   -1    0    0  501  502  0.00000000000E+00  0.00000000000E+00  0.44105403614E+03  0.44105403614E+03  0.00000000000E+00 0. -1.
         21   -1    0    0  502  503 -0.00000000000E+00 -0.00000000000E+00 -0.31147244362E+02  0.31147244362E+02  0.00000000000E+00 0. -1.
         24    1    1    2    0    0 -0.17305128329E+02 -0.38291440469E+01  0.64926279503E+02  0.10486547351E+03  0.80419002446E+02 0. -1.
          1    1    1    2  501    0  0.24442603221E+02  0.45342561075E+02  0.30480183112E+03  0.30912383433E+03  0.00000000000E+00 0. -1.
         -2    1    1    2    0  503 -0.71374748918E+01 -0.41513417028E+02  0.40178681147E+02  0.58211972650E+02  0.00000000000E+00 0.  1.
<mgrwt>
<rscale>  2 0.87991254E+02</rscale>
<asrwt>0</asrwt>
<pdfrwt beam="1">  1       21 0.67854463E-01 0.87991254E+02</pdfrwt>
<pdfrwt beam="2">  1       21 0.47918841E-02 0.87991254E+02</pdfrwt>
<totfact> 0.57952141E+05</totfact>
</mgrwt>
</event>
<event>
 5    1  0.1708429E+000  0.9826231E+02  0.7546771E-02  0.1283993E+00
         21   -1    0    0  501  502  0.00000000000E+00  0.00000000000E+00  0.77932126645E+02  0.77932126645E+02  0.00000000000E+00 0. -1.
         21   -1    0    0  502  503 -0.00000000000E+00 -0.00000000000E+00 -0.13712838775E+03  0.13712838775E+03  0.00000000000E+00 0.  1.
         24    1    1    2    0    0 -0.16355466106E+02 -0.47491944365E+02 -0.15646079524E+02  0.96098916799E+02  0.80419002446E+02 0.  0.
          1    1    1    2  501    0  0.31555197623E+02 -0.16727182658E+02  0.62875490426E+01  0.36263789235E+02  0.00000000000E+00 0. -1.
         -2    1    1    2    0  503 -0.15199731517E+02  0.64219127023E+02 -0.49837730622E+02  0.82697808359E+02  0.00000000000E+00 0.  1.
<mgrwt>
<rscale>  2 0.98262311E+02</rscale>
<asrwt>0</asrwt>
<pdfrwt beam="1">  1       21 0.11989558E-01 0.98262311E+02</pdfrwt>
<pdfrwt beam="2">  1       21 0.21096675E-01 0.98262311E+02</pdfrwt>
<totfact> 0.12202583E+06</totfact>
</mgrwt>
</event>
<event>
 5    1  0.1708429E+000  0.9001288E+02  0.7546771E-02  0.1302821E+00
         21   -1    0    0  503  502  0.00000000000E+00  0.00000000000E+00  0.16049412323E+02  0.16049412323E+02  0.00000000000E+00 0. -1.
         21   -1    0    0  501  503 -0.00000000000E+00 -0.00000000000E+00 -0.10280234941E+04  0.10280234941E+04  0.00000000000E+00 0. -1.
         24    1    1    2    0    0 -0.42714114181E+02  0.31690649766E+02 -0.15513630061E+03  0.18265618127E+03  0.80419002446E+02 0. -1.
          1    1    1    2  501    0  0.59616525404E+02 -0.19336728038E+02 -0.74533910269E+03  0.74796952956E+03  0.00000000000E+00 0. -1.
         -2    1    1    2    0  502 -0.16902411223E+02 -0.12353921728E+02 -0.11149867852E+03  0.11344719564E+03  0.00000000000E+00 0.  1.
<mgrwt>
<rscale>  2 0.90012879E+02</rscale>
<asrwt>0</asrwt>
<pdfrwt beam="1">  1       21 0.24691399E-02 0.90012879E+02</pdfrwt>
<pdfrwt beam="2">  1       21 0.15815749E+00 0.90012879E+02</pdfrwt>
<totfact> 0.23647512E+05</totfact>
</mgrwt>
</event>
<event>
 5    1  0.1708429E+000  0.1073383E+03  0.7546771E-02  0.1265580E+00
         21   -1    0    0  503  502  0.00000000000E+00  0.00000000000E+00  0.18161412610E+02  0.18161412610E+02  0.00000000000E+00 0.  1.
         21   -1    0    0  501  503 -0.00000000000E+00 -0.00000000000E+00 -0.70610328299E+03  0.70610328299E+03  0.00000000000E+00 0.  1.
         24    1    1    2    0    0 -0.50376089665E+02  0.57320828003E+02 -0.33322215377E+03  0.35118036313E+03  0.80419002446E+02 0.  1.
          1    1    1    2  501    0 -0.14929759014E+02 -0.29027708841E+02 -0.20168453620E+03  0.20430897613E+03  0.00000000000E+00 0. -1.
         -2    1    1    2    0  502  0.65305848679E+02 -0.28293119162E+02 -0.15303518042E+03  0.16877535634E+03  0.00000000000E+00 0.  1.
<mgrwt>
<rscale>  2 0.10733828E+03</rscale>
<asrwt>0</asrwt>
<pdfrwt beam="1">  1       21 0.27940632E-02 0.10733828E+03</pdfrwt>
<pdfrwt beam="2">  1       21 0.10863129E+00 0.10733828E+03</pdfrwt>
<totfact> 0.48706103E+05</totfact>
</mgrwt>
</event>
<event>
 5    1  0.1708429E+000  0.7206187E+02  0.7546771E-02  0.1353219E+00
         21   -1    0    0  503  502  0.00000000000E+00  0.00000000000E+00  0.11629867186E+02  0.11629867186E+02  0.00000000000E+00 0. -1.
         21   -1    0    0  501  503 -0.00000000000E+00 -0.00000000000E+00 -0.10994825683E+04  0.10994825683E+04  0.00000000000E+00 0. -1.
         24    1    1    2    0    0 -0.43038334305E+02 -0.10855986408E+02 -0.41260237936E+03  0.42270331211E+03  0.80419002446E+02 0. -1.
          1    1    1    2  501    0  0.23031693292E+02 -0.83854901529E+01 -0.65125909490E+03  0.65172017310E+03  0.00000000000E+00 0. -1.
         -2    1    1    2    0  502  0.20006641013E+02  0.19241476561E+02 -0.23991226805E+02  0.36688950224E+02  0.00000000000E+00 0.  1.
<mgrwt>
<rscale>  2 0.72061871E+02</rscale>
<asrwt>0</asrwt>
<pdfrwt beam="1">  1       21 0.17892107E-02 0.72061871E+02</pdfrwt>
<pdfrwt beam="2">  1       21 0.16915113E+00 0.72061871E+02</pdfrwt>
<totfact> 0.33508438E+05</totfact>
</mgrwt>
</event>
<event>
 5    1  0.1708429E+000  0.7515980E+02  0.7546771E-02  0.1343377E+00
         21   -1    0    0  503  502  0.00000000000E+00  0.00000000000E+00  0.29443571051E+03  0.29443571051E+03  0.00000000000E+00 0. -1.
         21   -1    0    0  501  503 -0.00000000000E+00 -0.00000000000E+00 -0.61582435996E+02  0.61582435996E+02  0.00000000000E+00 0. -1.
         24    1    1    2    0    0 -0.19452010561E+02 -0.48925361750E+02  0.27075896243E+03  0.28731464186E+03  0.80419002446E+02 0. -1.
          1    1    1    2  501    0  0.41654138189E+01  0.27866893581E+02 -0.30768277825E+02  0.41720514743E+02  0.00000000000E+00 0. -1.
         -2    1    1    2    0  502  0.15286596743E+02  0.21058468169E+02 -0.71374100862E+01  0.26982989907E+02  0.00000000000E+00 0.  1.
<mgrwt>
<rscale>  2 0.75159799E+02</rscale>
<asrwt>0</asrwt>
<pdfrwt beam="1">  1       21 0.45297801E-01 0.75159799E+02</pdfrwt>
<pdfrwt beam="2">  1       21 0.94742211E-02 0.75159799E+02</pdfrwt>
<totfact> 0.42357444E+05</totfact>
</mgrwt>
</event>
<event>
 5    1  0.1708429E+000  0.1115768E+03  0.7546771E-02  0.1257677E+00
         21   -1    0    0  501  502  0.00000000000E+00  0.00000000000E+00  0.39049344298E+02  0.39049344298E+02  0.00000000000E+00 0. -1.
         21   -1    0    0  502  503 -0.00000000000E+00 -0.00000000000E+00 -0.83995039010E+03  0.83995039010E+03  0.00000000000E+00 0.  1.
         24    1    1    2    0    0  0.24127717937E+02  0.18049794393E+02 -0.44109103074E+03  0.44937340287E+03  0.80419002446E+02 0.  0.
          1    1    1    2  501    0 -0.65984752307E+02 -0.51492448520E+02 -0.20580054031E+02  0.86191637735E+02  0.00000000000E+00 0. -1.
         -2    1    1    2    0  503  0.41857034370E+02  0.33442654127E+02 -0.33922996103E+03  0.34343469379E+03  0.00000000000E+00 0.  1.
<mgrwt>
<rscale>  2 0.11157684E+03</rscale>
<asrwt>0</asrwt>
<pdfrwt beam="1">  1       21 0.60075919E-02 0.11157684E+03</pdfrwt>
<pdfrwt beam="2">  1       21 0.12922313E+00 0.11157684E+03</pdfrwt>
<totfact> 0.89896694E+04</totfact>
</mgrwt>
</event>
<event>
 5    1  0.1708429E+000  0.1033575E+03  0.7546771E-02  0.1273390E+00
         21   -1    0    0  503  502  0.00000000000E+00  0.00000000000E+00  0.28295926921E+02  0.28295926921E+02  0.00000000000E+00 0.  1.
         21   -1    0    0  501  503 -0.00000000000E+00 -0.00000000000E+00 -0.54293740244E+03  0.54293740244E+03  0.00000000000E+00 0.  1.
         24    1    1    2    0    0 -0.69727145764E+02 -0.41342217048E+02 -0.23268455749E+03  0.25919176881E+03  0.80419002446E+02 0.  1.
          1    1    1    2  501    0  0.47790426028E+02  0.49797782004E+02 -0.28007766222E+03  0.28845665322E+03  0.00000000000E+00 0. -1.
         -2    1    1    2    0  502  0.21936719736E+02 -0.84555649553E+01 -0.18792558050E+01  0.23584907332E+02  0.00000000000E+00 0.  1.
<mgrwt>
<rscale>  2 0.10335752E+03</rscale>
<asrwt>0</asrwt>
<pdfrwt beam="1">  1       21 0.43532198E-02 0.10335752E+03</pdfrwt>
<pdfrwt beam="2">  1       21 0.83528826E-01 0.10335752E+03</pdfrwt>
<totfact> 0.43065994E+05</totfact>
</mgrwt>
</event>
<event>
 5    1  0.1708429E+000  0.7310758E+02  0.7546771E-02  0.1349833E+00
         21   -1    0    0  501  502  0.00000000000E+00  0.00000000000E+00  0.27131979613E+03  0.27131979613E+03  0.00000000000E+00 0.  1.
         21   -1    0    0  502  503 -0.00000000000E+00 -0.00000000000E+00 -0.43094375846E+02  0.43094375846E+02  0.00000000000E+00 0.  1.
         24    1    1    2    0    0  0.10546198797E+01  0.38168412270E+02  0.23999681089E+03  0.25597582915E+03  0.80419002446E+02 0.  1.
          1    1    1    2  501    0  0.18397963378E+02 -0.31772399167E+02 -0.63987045615E+01  0.37268134181E+02  0.00000000000E+00 0. -1.
         -2    1    1    2    0  503 -0.19452583257E+02 -0.63960131030E+01 -0.53726860384E+01  0.21170208650E+02  0.00000000000E+00 0.  1.
<mgrwt>
<rscale>  2 0.73107585E+02</rscale>
<asrwt>0</asrwt>
<pdfrwt beam="1">  1       21 0.41741506E-01 0.73107585E+02</pdfrwt>
<pdfrwt beam="2">  1       21 0.66299042E-02 0.73107585E+02</pdfrwt>
<totfact> 0.91343487E+05</totfact>
</mgrwt>
</event>
<event>
 5    1  0.1818770E+000  0.6824481E+02  0.7546771E-02  0.1366165E+00
         21   -1    0    0  503  502  0.00000000000E+00  0.00000000000E+00  0.15669094576E+04  0.15669094576E+04  0.00000000000E+00 0. -1.
         21   -1    0    0  501  503 -0.00000000000E+00 -0.00000000000E+00 -0.28077553657E+02  0.28077553657E+02  0.00000000000E+00 0. -1.
         24    1    1    2    0    0  0.12401959826E+02 -0.90953930565E+01  0.13391617907E+04  0.13416624211E+04  0.80419002446E+02 0. -1.
          1    1    1    2  501    0 -0.30783610904E+02 -0.53368506830E+01 -0.16883961083E+02  0.35513107683E+02  0.00000000000E+00 0. -1.
         -2    1    1    2    0  502  0.18381651077E+02  0.14432243740E+02  0.21655407440E+03  0.21781148247E+03  0.00000000000E+00 0.  1.
<mgrwt>
<rscale>  2 0.68244810E+02</rscale>
<asrwt>0</asrwt>
<pdfrwt beam="1">  1       21 0.24106293E+00 0.68244810E+02</pdfrwt>
<pdfrwt beam="2">  1       21 0.43196249E-02 0.68244810E+02</pdfrwt>
<totfact> 0.29979316E+04</totfact>
</mgrwt>
</event>
<event>
 5    1  0.1708429E+000  0.8595399E+02  0.7546771E-02  0.1312956E+00
         21   -1    0    0  503  502  0.00000000000E+00  0.00000000000E+00  0.18380498901E+02  0.18380498901E+02  0.00000000000E+00 0.  1.
         21   -1    0    0  501  503 -0.00000000000E+00 -0.00000000000E+00 -0.57195681727E+03  0.57195681727E+03  0.00000000000E+00 0. -1.
         24    1    1    2    0    0  0.40757011235E+02 -0.43211107678E+01 -0.14230507840E+03  0.16851634121E+03  0.80419002446E+02 0.  1.
          1    1    1    2  501    0 -0.11081939853E+02  0.36339564472E+02 -0.29827718942E+03  0.30068697189E+03  0.00000000000E+00 0. -1.
         -2    1    1    2    0  502 -0.29675071382E+02 -0.32018453704E+02 -0.11299405055E+03  0.12113400306E+03  0.00000000000E+00 0.  1.
<mgrwt>
<rscale>  2 0.85953989E+02</rscale>
<asrwt>0</asrwt>
<pdfrwt beam="1">  1       21 0.28277687E-02 0.85953989E+02</pdfrwt>
<pdfrwt beam="2">  1       21 0.87993369E-01 0.85953989E+02</pdfrwt>
<totfact> 0.77777243E+05</totfact>
</mgrwt>
</event>
<event>
 5    1  0.1708429E+000  0.6097560E+02  0.7546771E-02  0.1393783E+00
         21   -1    0    0  503  502  0.00000000000E+00  0.00000000000E+00  0.24733842758E+03  0.24733842758E+03  0.00000000000E+00 0.  1.
         21   -1    0    0  501  503 -0.00000000000E+00 -0.00000000000E+00 -0.55827612829E+02  0.55827612829E+02  0.00000000000E+00 0. -1.
         24    1    1    2    0    0  0.28559729670E+01 -0.40002816248E+01  0.73774486240E+02  0.10924307579E+03  0.80419002446E+02 0. -1.
          1    1    1    2  501    0  0.13676569539E+02  0.15929443435E+02 -0.34468251115E+02  0.40359088907E+02  0.00000000000E+00 0. -1.
         -2    1    1    2    0  502 -0.16532542506E+02 -0.11929161810E+02  0.15220457963E+03  0.15356387571E+03  0.00000000000E+00 0.  1.
<mgrwt>
<rscale>  2 0.60975603E+02</rscale>
<asrwt>0</asrwt>
<pdfrwt beam="1">  1       21 0.38052065E-01 0.60975603E+02</pdfrwt>
<pdfrwt beam="2">  1       21 0.85888637E-02 0.60975603E+02</pdfrwt>
<totfact> 0.70460847E+05</totfact>
</mgrwt>
</event>
<event>
 5    1  0.1708429E+000  0.9308868E+02  0.7546771E-02  0.1295540E+00
         21   -1    0    0  501  502  0.00000000000E+00  0.00000000000E+00  0.39291792127E+02  0.39291792127E+02  0.00000000000E+00 0.  1.
         21   -1    0    0  502  503 -0.00000000000E+00 -0.00000000000E+00 -0.39201911974E+03  0.39201911974E+03  0.00000000000E+00 0.  1.
         24    1    1    2    0    0 -0.41866701845E+02  0.10905931388E+02 -0.28213769367E+03  0.29654789530E+03  0.80419002446E+02 0.  1.
          1    1    1    2  501    0  0.12733127889E+02  0.36811356608E+02  0.65454249605E+01  0.39497482313E+02  0.00000000000E+00 0. -1.
         -2    1    1    2    0  503  0.29133573957E+02 -0.47717287995E+02 -0.77135058908E+02  0.95265534260E+02  0.00000000000E+00 0.  1.
<mgrwt>
<rscale>  2 0.93088679E+02</rscale>
<asrwt>0</asrwt>
<pdfrwt beam="1">  1       21 0.60448914E-02 0.93088679E+02</pdfrwt>
<pdfrwt beam="2">  1       21 0.60310631E-01 0.93088679E+02</pdfrwt>
<totfact> 0.50491699E+05</totfact>
</mgrwt>
</event>
<event>
 5    1  0.1708429E+000  0.9072470E+02  0.7546771E-02  0.1301106E+00
         21   -1    0    0  503  502  0.00000000000E+00  0.00000000000E+00  0.10619841624E+03  0.10619841624E+03  0.00000000000E+00 0. -1.
         21   -1    0    0  501  503 -0.00000000000E+00 -0.00000000000E+00 -0.23697886084E+03  0.23697886084E+03  0.00000000000E+00 0. -1.
         24    1    1    2    0    0 -0.24720896042E+02  0.60097385135E+02  0.39855388508E+02  0.11080833158E+03  0.80419002446E+02 0. -1.
          1    1    1    2  501    0  0.33916270490E+02 -0.25983568039E+02 -0.18814625192E+03  0.19293644374E+03  0.00000000000E+00 0. -1.
         -2    1    1    2    0  502 -0.91953744474E+01 -0.34113817096E+02  0.17510418809E+02  0.39432501758E+02  0.00000000000E+00 0.  1.
<mgrwt>
<rscale>  2 0.90724705E+02</rscale>
<asrwt>0</asrwt>
<pdfrwt beam="1">  1       21 0.16338218E-01 0.90724705E+02</pdfrwt>
<pdfrwt beam="2">  1       21 0.36458286E-01 0.90724705E+02</pdfrwt>
<totfact> 0.24941821E+05</totfact>
</mgrwt>
</event>
<event>
 5    1  0.1708429E+000  0.6704264E+02  0.7546771E-02  0.1370449E+00
         21   -1    0    0  501  502  0.00000000000E+00  0.00000000000E+00  0.34402309815E+02  0.34402309815E+02  0.00000000000E+00 0.  1.
         21   -1    0    0  502  503 -0.00000000000E+00 -0.00000000000E+00 -0.37079711055E+03  0.37079711055E+03  0.00000000000E+00 0.  1.
         24    1    1    2    0    0  0.17808260994E+01  0.19185710542E+02 -0.46528710999E+02  0.94886246275E+02  0.80419002446E+02 0.  1.
          1    1    1    2  501    0  0.21892247278E+02 -0.16973526435E+01 -0.32586005639E+01  0.22198422793E+02  0.00000000000E+00 0. -1.
         -2    1    1    2    0  503 -0.23673073377E+02 -0.17488357899E+02 -0.28660748917E+03  0.28811475130E+03  0.00000000000E+00 0.  1.
<mgrwt>
<rscale>  2 0.67042644E+02</rscale>
<asrwt>0</asrwt>
<pdfrwt beam="1">  1       21 0.52926629E-02 0.67042644E+02</pdfrwt>
<pdfrwt beam="2">  1       21 0.57045711E-01 0.67042644E+02</pdfrwt>
<totfact> 0.70646906E+05</totfact>
</mgrwt>
</event>
<event>
 5    1  0.1708429E+000  0.1150795E+03  0.7546771E-02  0.1251442E+00
         21   -1    0    0  501  502  0.00000000000E+00  0.00000000000E+00  0.21880903936E+04  0.21880903936E+04  0.00000000000E+00 0.  1.
         21   -1    0    0  502  503 -0.00000000000E+00 -0.00000000000E+00 -0.10686031184E+02  0.10686031184E+02  0.00000000000E+00 0. -1.
         24    1    1    2    0    0  0.32823131830E+02  0.56504883569E+02  0.96366972144E+03  0.96922479736E+03  0.80419002446E+02 0.  0.
          1    1    1    2  501    0 -0.71608988350E+02 -0.22793926740E+02  0.11211167253E+04  0.11236325566E+04  0.00000000000E+00 0. -1.
         -2    1    1    2    0  503  0.38785856519E+02 -0.33710956829E+02  0.92617915623E+02  0.10591907085E+03  0.00000000000E+00 0.  1.
<mgrwt>
<rscale>  2 0.11507950E+03</rscale>
<asrwt>0</asrwt>
<pdfrwt beam="1">  1       21 0.33662894E+00 0.11507950E+03</pdfrwt>
<pdfrwt beam="2">  1       21 0.16440065E-02 0.11507950E+03</pdfrwt>
<totfact> 0.39025636E+04</totfact>
</mgrwt>
</event>
<event>
 5    1  0.1708429E+000  0.8720736E+02  0.7546771E-02  0.1309759E+00
         21   -1    0    0  501  502  0.00000000000E+00  0.00000000000E+00  0.10021302933E+03  0.10021302933E+03  0.00000000000E+00 0.  1.
         21   -1    0    0  502  503 -0.00000000000E+00 -0.00000000000E+00 -0.76265728956E+02  0.76265728956E+02  0.00000000000E+00 0. -1.
         24    1    1    2    0    0  0.36968701590E+02  0.54998667132E+02  0.83582570653E+01  0.10454001482E+03  0.80419002446E+02 0.  0.
          1    1    1    2  501    0 -0.31716564354E+02 -0.26792571874E+02  0.83739771501E+01  0.42354525795E+02  0.00000000000E+00 0. -1.
         -2    1    1    2    0  503 -0.52521372367E+01 -0.28206095258E+02  0.72150661553E+01  0.29584217666E+02  0.00000000000E+00 0.  1.
<mgrwt>
<rscale>  2 0.87207361E+02</rscale>
<asrwt>0</asrwt>
<pdfrwt beam="1">  1       21 0.15417389E-01 0.87207361E+02</pdfrwt>
<pdfrwt beam="2">  1       21 0.11733189E-01 0.87207361E+02</pdfrwt>
<totfact> 0.22306919E+06</totfact>
</mgrwt>
</event>
<event>
 5    1  0.1708429E+000  0.1013911E+03  0.7546771E-02  0.1277398E+00
         21   -1    0    0  501  502  0.00000000000E+00  0.00000000000E+00  0.19636632333E+03  0.19636632333E+03  0.00000000000E+00 0. -1.
         21   -1    0    0  502  503 -0.00000000000E+00 -0.00000000000E+00 -0.16541066916E+03  0.16541066916E+03  0.00000000000E+00 0.  1.
         24    1    1    2    0    0  0.58378244963E+02  0.21421335664E+02 -0.47876693553E+02  0.11236675152E+03  0.80419002446E+02 0. -1.
          1    1    1    2  501    0 -0.72099608628E+02  0.40286947284E+01  0.15333816129E+03  0.16949093089E+03  0.00000000000E+00 0. -1.
         -2    1    1    2    0  503  0.13721363664E+02 -0.25450030392E+02 -0.74505813566E+02  0.79919310075E+02  0.00000000000E+00 0.  1.
<mgrwt>
<rscale>  2 0.10139111E+03</rscale>
<asrwt>0</asrwt>
<pdfrwt beam="1">  1       21 0.30210204E-01 0.10139111E+03</pdfrwt>
<pdfrwt beam="2">  1       21 0.25447795E-01 0.10139111E+03</pdfrwt>
<totfact> 0.15844641E+05</totfact>
</mgrwt>
</event>
<event>
 5    1  0.1708429E+000  0.1228742E+03  0.7546771E-02  0.1238429E+00
         21   -1    0    0  501  502  0.00000000000E+00  0.00000000000E+00  0.14242233549E+03  0.14242233549E+03  0.00000000000E+00 0. -1.
         21   -1    0    0  502  503 -0.00000000000E+00 -0.00000000000E+00 -0.12362877318E+03  0.12362877318E+03  0.00000000000E+00 0. -1.
         24    1    1    2    0    0  0.54052425526E+02  0.48663755485E+02 -0.27248037414E+02  0.11180115071E+03  0.80419002446E+02 0. -1.
          1    1    1    2  501    0 -0.91038276212E+02 -0.39345782889E+02  0.57225583865E+02  0.11450251445E+03  0.00000000000E+00 0. -1.
         -2    1    1    2    0  503  0.36985850686E+02 -0.93179725968E+01 -0.11183984138E+02  0.39747443509E+02  0.00000000000E+00 0.  1.
<mgrwt>
<rscale>  2 0.12287417E+03</rscale>
<asrwt>0</asrwt>
<pdfrwt beam="1">  1       21 0.21911128E-01 0.12287417E+03</pdfrwt>
<pdfrwt beam="2">  1       21 0.19019811E-01 0.12287417E+03</pdfrwt>
<totfact> 0.49722751E+05</totfact>
</mgrwt>
</event>
<event>
 5    1  0.1708429E+000  0.8452065E+02  0.7546771E-02  0.1316691E+00
         21   -1    0    0  501  502  0.00000000000E+00  0.00000000000E+00  0.80036394733E+02  0.80036394733E+02  0.00000000000E+00 0.  1.
         21   -1    0    0  502  503 -0.00000000000E+00 -0.00000000000E+00 -0.24525939742E+03  0.24525939742E+03  0.00000000000E+00 0.  1.
         24    1    1    2    0    0 -0.11400763833E+02  0.43367673307E+02  0.16393472661E+02  0.93523763848E+02  0.80419002446E+02 0.  1.
          1    1    1    2  501    0  0.37468936874E+02 -0.27023904751E+02  0.13690315168E+01  0.46217820218E+02  0.00000000000E+00 0. -1.
         -2    1    1    2    0  503 -0.26068173040E+02 -0.16343768556E+02 -0.18298550686E+03  0.18555420809E+03  0.00000000000E+00 0.  1.
<mgrwt>
<rscale>  2 0.84520646E+02</rscale>
<asrwt>0</asrwt>
<pdfrwt beam="1">  1       21 0.12313292E-01 0.84520646E+02</pdfrwt>
<pdfrwt beam="2">  1       21 0.37732215E-01 0.84520646E+02</pdfrwt>
<totfact> 0.38572086E+05</totfact>
</mgrwt>
</event>
<event>
 5    1  0.1708429E+000  0.7681888E+02  0.7546771E-02  0.1338329E+00
         21   -1    0    0  501  502  0.00000000000E+00  0.00000000000E+00  0.17190085732E+03  0.17190085732E+03  0.00000000000E+00 0. -1.
         21   -1    0    0  502  503 -0.00000000000E+00 -0.00000000000E+00 -0.49476949213E+02  0.49476949213E+02  0.00000000000E+00 0. -1.
         24    1    1    2    0    0  0.16585293928E+02 -0.53177159480E+02  0.59720980195E+02  0.11461541648E+03  0.80419002446E+02 0. -1.
          1    1    1    2  501    0 -0.49247703666E+01  0.21470124678E+02  0.68970534331E+02  0.72402722481E+02  0.00000000000E+00 0. -1.
         -2    1    1    2    0  503 -0.11660523561E+02  0.31707034803E+02 -0.62676064143E+01  0.34359667575E+02  0.00000000000E+00 0.  1.
<mgrwt>
<rscale>  2 0.76818885E+02</rscale>
<asrwt>0</asrwt>
<pdfrwt beam="1">  1       21 0.26446286E-01 0.76818885E+02</pdfrwt>
<pdfrwt beam="2">  1       21 0.76118384E-02 0.76818885E+02</pdfrwt>
<totfact> 0.17430309E+06</totfact>
</mgrwt>
</event>
<event>
 5    1  0.1708429E+000  0.1627266E+03  0.7546771E-02  0.1185652E+00
         21   -1    0    0  501  502  0.00000000000E+00  0.00000000000E+00  0.33406875335E+03  0.33406875335E+03  0.00000000000E+00 0.  1.
         21   -1    0    0  502  503 -0.00000000000E+00 -0.00000000000E+00 -0.93199197117E+02  0.93199197117E+02  0.00000000000E+00 0. -1.
         24    1    1    2    0    0  0.40535260122E+01  0.29333622408E+02  0.52870912668E+02  0.10069479548E+03  0.80419002446E+02 0. -1.
          1    1    1    2  501    0  0.85032504678E+02  0.67212004292E+02  0.15836520349E+03  0.19190497140E+03  0.00000000000E+00 0. -1.
         -2    1    1    2    0  503 -0.89086030690E+02 -0.96545626699E+02  0.29633440077E+02  0.13466818358E+03  0.00000000000E+00 0.  1.
<mgrwt>
<rscale>  2 0.16272661E+03</rscale>
<asrwt>0</asrwt>
<pdfrwt beam="1">  1       21 0.51395192E-01 0.16272661E+03</pdfrwt>
<pdfrwt beam="2">  1       21 0.14338338E-01 0.16272661E+03</pdfrwt>
<totfact> 0.15472725E+05</totfact>
</mgrwt>
</event>
<event>
 5    1  0.1708429E+000  0.8850880E+02  0.7546771E-02  0.1306504E+00
         21   -1    0    0  501  502  0.00000000000E+00  0.00000000000E+00  0.17008252982E+02  0.17008252982E+02  0.00000000000E+00 0. -1.
         21   -1    0    0  502  503 -0.00000000000E+00 -0.00000000000E+00 -0.54039379088E+03  0.54039379088E+03  0.00000000000E+00 0.  1.
         24    1    1    2    0    0  0.10934266919E+02 -0.35751907957E+02 -0.15624383173E+03  0.17965830909E+03  0.80419002446E+02 0. -1.
          1    1    1    2  501    0 -0.42750008030E+02  0.32852332242E+01 -0.15760966773E+03  0.16333757469E+03  0.00000000000E+00 0. -1.
         -2    1    1    2    0  503  0.31815741110E+02  0.32466674733E+02 -0.20953203843E+03  0.21440616008E+03  0.00000000000E+00 0.  1.
<mgrwt>
<rscale>  2 0.88508800E+02</rscale>
<asrwt>0</asrwt>
<pdfrwt beam="1">  1       21 0.26166538E-02 0.88508800E+02</pdfrwt>
<pdfrwt beam="2">  1       21 0.83137523E-01 0.88508800E+02</pdfrwt>
<totfact> 0.10013193E+06</totfact>
</mgrwt>
</event>
<event>
 5    1  0.1708429E+000  0.8088332E+02  0.7546771E-02  0.1326563E+00
         21   -1    0    0  503  502  0.00000000000E+00  0.00000000000E+00  0.23779830659E+02  0.23779830659E+02  0.00000000000E+00 0.  1.
         21   -1    0    0  501  503 -0.00000000000E+00 -0.00000000000E+00 -0.46257698886E+03  0.46257698886E+03  0.00000000000E+00 0.  1.
         24    1    1    2    0    0  0.23799739567E+02 -0.37489197943E+02 -0.37615500147E+03  0.38721010918E+03  0.80419002446E+02 0.  1.
          1    1    1    2  501    0 -0.40391393856E+02  0.17759170915E+02 -0.58124704732E+02  0.72974887114E+02  0.00000000000E+00 0. -1.
         -2    1    1    2    0  502  0.16591654289E+02  0.19730027028E+02 -0.45174520049E+01  0.26171823230E+02  0.00000000000E+00 0.  1.
<mgrwt>
<rscale>  2 0.80883321E+02</rscale>
<asrwt>0</asrwt>
<pdfrwt beam="1">  1       21 0.36584355E-02 0.80883321E+02</pdfrwt>
<pdfrwt beam="2">  1       21 0.71165690E-01 0.80883321E+02</pdfrwt>
<totfact> 0.81548463E+05</totfact>
</mgrwt>
</event>
<event>
 5    1  0.1708429E+000  0.8673800E+02  0.7546771E-02  0.1310949E+00
         21   -1    0    0  501  502  0.00000000000E+00  0.00000000000E+00  0.89481844609E+02  0.89481844609E+02  0.00000000000E+00 0.  1.
         21   -1    0    0  502  503 -0.00000000000E+00 -0.00000000000E+00 -0.14717982951E+03  0.14717982951E+03  0.00000000000E+00 0. -1.
         24    1    1    2    0    0 -0.25302866260E+02  0.65132016410E+01 -0.12535897865E+02  0.85481117951E+02  0.80419002446E+02 0.  1.
          1    1    1    2  501    0  0.33583245928E+02  0.33869184959E+02  0.36262343153E+02  0.59915887941E+02  0.00000000000E+00 0. -1.
         -2    1    1    2    0  503 -0.82803796680E+01 -0.40382386600E+02 -0.81424430188E+02  0.91264668226E+02  0.00000000000E+00 0.  1.
<mgrwt>
<rscale>  2 0.86738005E+02</rscale>
<asrwt>0</asrwt>
<pdfrwt beam="1">  1       21 0.13766438E-01 0.86738005E+02</pdfrwt>
<pdfrwt beam="2">  1       21 0.22643050E-01 0.86738005E+02</pdfrwt>
<totfact> 0.83706870E+05</totfact>
</mgrwt>
</event>
<event>
 5    1  0.1708429E+000  0.9348258E+02  0.7546771E-02  0.1294631E+00
         21   -1    0    0  501  502  0.00000000000E+00  0.00000000000E+00  0.53233081743E+02  0.53233081743E+02  0.00000000000E+00 0. -1.
         21   -1    0    0  502  503 -0.00000000000E+00 -0.00000000000E+00 -0.26639843017E+03  0.26639843017E+03  0.00000000000E+00 0.  1.
         24    1    1    2    0    0 -0.46193936867E+02 -0.45991345366E+02 -0.12263092946E+03  0.16048253633E+03  0.80419002446E+02 0.  0.
          1    1    1    2  501    0  0.46426271927E+02  0.10047585943E+02  0.13251534378E+02  0.49314864612E+02  0.00000000000E+00 0. -1.
         -2    1    1    2    0  503 -0.23233506017E+00  0.35943759423E+02 -0.10378595335E+03  0.10983411097E+03  0.00000000000E+00 0.  1.
<mgrwt>
<rscale>  2 0.93482576E+02</rscale>
<asrwt>0</asrwt>
<pdfrwt beam="1">  1       21 0.81897049E-02 0.93482576E+02</pdfrwt>
<pdfrwt beam="2">  1       21 0.40984374E-01 0.93482576E+02</pdfrwt>
<totfact> 0.66419416E+05</totfact>
</mgrwt>
</event>
<event>
 5    1  0.1708429E+000  0.8741792E+02  0.7546771E-02  0.1309228E+00
         21   -1    0    0  501  502  0.00000000000E+00  0.00000000000E+00  0.14938044000E+03  0.14938044000E+03  0.00000000000E+00 0.  1.
         21   -1    0    0  502  503 -0.00000000000E+00 -0.00000000000E+00 -0.17221693673E+03  0.17221693673E+03  0.00000000000E+00 0.  1.
         24    1    1    2    0    0  0.55599531288E+02  0.34642773564E+02 -0.29743477698E+02  0.10790421706E+03  0.80419002446E+02 0.  0.
          1    1    1    2  501    0 -0.97774792055E+01 -0.21220202444E+02  0.10341391539E+03  0.10602044137E+03  0.00000000000E+00 0. -1.
         -2    1    1    2    0  503 -0.45822052082E+02 -0.13422571120E+02 -0.96506934429E+02  0.10767271830E+03  0.00000000000E+00 0.  1.
<mgrwt>
<rscale>  2 0.87417916E+02</rscale>
<asrwt>0</asrwt>
<pdfrwt beam="1">  1       21 0.22981606E-01 0.87417916E+02</pdfrwt>
<pdfrwt beam="2">  1       21 0.26494913E-01 0.87417916E+02</pdfrwt>
<totfact> 0.24694463E+05</totfact>
</mgrwt>
</event>
<event>
 5    1  0.1708429E+000  0.9928254E+02  0.7546771E-02  0.1281812E+00
         21   -1    0    0  501  502  0.00000000000E+00  0.00000000000E+00  0.79459434458E+01  0.79459434458E+01  0.00000000000E+00 0.  1.
         21   -1    0    0  502  503 -0.00000000000E+00 -0.00000000000E+00 -0.14085695557E+04  0.14085695557E+04  0.00000000000E+00 0. -1.
         24    1    1    2    0    0 -0.50037366190E+01  0.33957474248E+02 -0.50755031120E+03  0.51502687482E+03  0.80419002446E+02 0. -1.
          1    1    1    2  501    0 -0.33509676295E+02  0.24227597499E+02 -0.16591746894E+03  0.17099263547E+03  0.00000000000E+00 0. -1.
         -2    1    1    2    0  503  0.38513412914E+02 -0.58185071747E+02 -0.72715583210E+03  0.73049598883E+03  0.00000000000E+00 0.  1.
<mgrwt>
<rscale>  2 0.99282543E+02</rscale>
<asrwt>0</asrwt>
<pdfrwt beam="1">  1       21 0.12224523E-02 0.99282543E+02</pdfrwt>
<pdfrwt beam="2">  1       21 0.21670310E+00 0.99282543E+02</pdfrwt>
<totfact> 0.30222725E+05</totfact>
</mgrwt>
</event>
<event>
 5    1  0.1708429E+000  0.7713922E+02  0.7546771E-02  0.1337372E+00
         21   -1    0    0  503  502  0.00000000000E+00  0.00000000000E+00  0.23303684072E+03  0.23303684072E+03  0.00000000000E+00 0. -1.
         21   -1    0    0  501  503 -0.00000000000E+00 -0.00000000000E+00 -0.36665681511E+02  0.36665681511E+02  0.00000000000E+00 0. -1.
         24    1    1    2    0    0 -0.49900412165E+02 -0.18770039833E+02  0.13232141174E+03  0.16376366351E+03  0.80419002446E+02 0. -1.
          1    1    1    2  501    0  0.22357046844E+02 -0.31673006195E+01 -0.94203362315E+01  0.24466550054E+02  0.00000000000E+00 0. -1.
         -2    1    1    2    0  502  0.27543365320E+02  0.21937340453E+02  0.73470083709E+02  0.81472308667E+02  0.00000000000E+00 0.  1.
<mgrwt>
<rscale>  2 0.77139222E+02</rscale>
<asrwt>0</asrwt>
<pdfrwt beam="1">  1       21 0.35851821E-01 0.77139222E+02</pdfrwt>
<pdfrwt beam="2">  1       21 0.56408742E-02 0.77139222E+02</pdfrwt>
<totfact> 0.16150912E+06</totfact>
</mgrwt>
</event>
<event>
 5    1  0.1708429E+000  0.1122349E+03  0.7546771E-02  0.1256486E+00
         21   -1    0    0  501  502  0.00000000000E+00  0.00000000000E+00  0.38443320777E+03  0.38443320777E+03  0.00000000000E+00 0.  1.
         21   -1    0    0  502  503 -0.00000000000E+00 -0.00000000000E+00 -0.44014055372E+02  0.44014055372E+02  0.00000000000E+00 0. -1.
         24    1    1    2    0    0 -0.56321600599E+02 -0.39634005359E+02  0.11020035411E+03  0.15282117352E+03  0.80419002446E+02 0. -1.
          1    1    1    2  501    0  0.56545813194E+02  0.69008272757E+02  0.22951205037E+03  0.24624246580E+03  0.00000000000E+00 0. -1.
         -2    1    1    2    0  503 -0.22421259506E+00 -0.29374267398E+02  0.70674791939E+00  0.29383623825E+02  0.00000000000E+00 0.  1.
<mgrwt>
<rscale>  2 0.11223487E+03</rscale>
<asrwt>0</asrwt>
<pdfrwt beam="1">  1       21 0.59143568E-01 0.11223487E+03</pdfrwt>
<pdfrwt beam="2">  1       21 0.67713934E-02 0.11223487E+03</pdfrwt>
<totfact> 0.43351736E+05</totfact>
</mgrwt>
</event>
<event>
 5    1  0.1708429E+000  0.7185795E+02  0.7546771E-02  0.1353887E+00
         21   -1    0    0  501  502  0.00000000000E+00  0.00000000000E+00  0.10826696111E+02  0.10826696111E+02  0.00000000000E+00 0. -1.
         21   -1    0    0  502  503 -0.00000000000E+00 -0.00000000000E+00 -0.20074922800E+04  0.20074922800E+04  0.00000000000E+00 0.  1.
         24    1    1    2    0    0 -0.11542024489E+02  0.25597566731E+02 -0.88257133459E+03  0.88667233539E+03  0.80419002446E+02 0. -1.
          1    1    1    2  501    0 -0.10207362909E+02 -0.33787271971E+02 -0.27344788658E+02  0.44648711869E+02  0.00000000000E+00 0. -1.
         -2    1    1    2    0  503  0.21749387397E+02  0.81897052393E+01 -0.10867494607E+04  0.10869979289E+04  0.00000000000E+00 0.  1.
<mgrwt>
<rscale>  2 0.71857946E+02</rscale>
<asrwt>0</asrwt>
<pdfrwt beam="1">  1       21 0.16656444E-02 0.71857946E+02</pdfrwt>
<pdfrwt beam="2">  1       21 0.30884518E+00 0.71857946E+02</pdfrwt>
<totfact> 0.59082670E+04</totfact>
</mgrwt>
</event>
<event>
 5    1  0.1708429E+000  0.8314437E+02  0.7546771E-02  0.1320358E+00
         21   -1    0    0  501  502  0.00000000000E+00  0.00000000000E+00  0.49126422518E+02  0.49126422518E+02  0.00000000000E+00 0. -1.
         21   -1    0    0  502  503 -0.00000000000E+00 -0.00000000000E+00 -0.39004617595E+03  0.39004617595E+03  0.00000000000E+00 0.  1.
         24    1    1    2    0    0  0.24954012091E+02 -0.34429083131E+02 -0.35119066981E+03  0.36278115580E+03  0.80419002446E+02 0.  1.
          1    1    1    2  501    0 -0.36636183478E+02 -0.23685462173E+01  0.88169984844E+01  0.37756581060E+02  0.00000000000E+00 0. -1.
         -2    1    1    2    0  503  0.11682171388E+02  0.36797629348E+02  0.14539179013E+01  0.38634861605E+02  0.00000000000E+00 0.  1.
<mgrwt>
<rscale>  2 0.83144365E+02</rscale>
<asrwt>0</asrwt>
<pdfrwt beam="1">  1       21 0.75579110E-02 0.83144365E+02</pdfrwt>
<pdfrwt beam="2">  1       21 0.60007106E-01 0.83144365E+02</pdfrwt>
<totfact> 0.35010206E+05</totfact>
</mgrwt>
</event>
<event>
 5    1  0.1708429E+000  0.6475446E+02  0.7546771E-02  0.1378898E+00
         21   -1    0    0  501  502  0.00000000000E+00  0.00000000000E+00  0.44567131878E+03  0.44567131878E+03  0.00000000000E+00 0. -1.
         21   -1    0    0  502  503 -0.00000000000E+00 -0.00000000000E+00 -0.16200685029E+02  0.16200685029E+02  0.00000000000E+00 0. -1.
         24    1    1    2    0    0  0.23773863563E+02  0.12221513962E+02  0.14351860575E+03  0.16667143770E+03  0.80419002446E+02 0. -1.
          1    1    1    2  501    0 -0.36312951472E+01 -0.22052796665E+02  0.25979244207E+03  0.26075203758E+03  0.00000000000E+00 0. -1.
         -2    1    1    2    0  503 -0.20142568415E+02  0.98312827033E+01  0.26159585920E+02  0.34448528524E+02  0.00000000000E+00 0.  1.
<mgrwt>
<rscale>  2 0.64754456E+02</rscale>
<asrwt>0</asrwt>
<pdfrwt beam="1">  1       21 0.68564809E-01 0.64754456E+02</pdfrwt>
<pdfrwt beam="2">  1       21 0.24924134E-02 0.64754456E+02</pdfrwt>
<totfact> 0.16332655E+06</totfact>
</mgrwt>
</event>
<event>
 5    1  0.1708429E+000  0.6934898E+02  0.7546771E-02  0.1362321E+00
         21   -1    0    0  503  502  0.00000000000E+00  0.00000000000E+00  0.12959786768E+02  0.12959786768E+02  0.00000000000E+00 0.  1.
         21   -1    0    0  501  503 -0.00000000000E+00 -0.00000000000E+00 -0.63106857988E+03  0.63106857988E+03  0.00000000000E+00 0.  1.
         24    1    1    2    0    0  0.14758881824E+02  0.31066088780E+02 -0.41715491225E+03  0.42622571865E+03  0.80419002446E+02 0.  1.
          1    1    1    2  501    0 -0.26292422665E+02 -0.11890860735E+02 -0.19124634728E+03  0.19341108915E+03  0.00000000000E+00 0. -1.
         -2    1    1    2    0  502  0.11533540841E+02 -0.19175228044E+02 -0.97075335763E+01  0.24391558848E+02  0.00000000000E+00 0.  1.
<mgrwt>
<rscale>  2 0.69348976E+02</rscale>
<asrwt>0</asrwt>
<pdfrwt beam="1">  1       21 0.19938138E-02 0.69348976E+02</pdfrwt>
<pdfrwt beam="2">  1       21 0.97087454E-01 0.69348976E+02</pdfrwt>
<totfact> 0.10877976E+06</totfact>
</mgrwt>
</event>
<event>
 5    1  0.1708429E+000  0.7757816E+02  0.7546771E-02  0.1336068E+00
         21   -1    0    0  503  502  0.00000000000E+00  0.00000000000E+00  0.28931434865E+03  0.28931434865E+03  0.00000000000E+00 0. -1.
         21   -1    0    0  501  503 -0.00000000000E+00 -0.00000000000E+00 -0.21369963086E+02  0.21369963086E+02  0.00000000000E+00 0.  1.
         24    1    1    2    0    0 -0.40494821681E+02  0.12413014188E+02  0.16038366409E+03  0.18434763130E+03  0.80419002446E+02 0. -1.
          1    1    1    2  501    0  0.36838968328E+02  0.12640057174E+02  0.49418962206E+02  0.62921494407E+02  0.00000000000E+00 0. -1.
         -2    1    1    2    0  502  0.36558533527E+01 -0.25053071362E+02  0.58141759265E+02  0.63415186027E+02  0.00000000000E+00 0.  1.
<mgrwt>
<rscale>  2 0.77578156E+02</rscale>
<asrwt>0</asrwt>
<pdfrwt beam="1">  1       21 0.44509897E-01 0.77578156E+02</pdfrwt>
<pdfrwt beam="2">  1       21 0.32876868E-02 0.77578156E+02</pdfrwt>
<totfact> 0.25650485E+06</totfact>
</mgrwt>
</event>
<event>
 5    1  0.1708429E+000  0.7578247E+02  0.7546771E-02  0.1341465E+00
         21   -1    0    0  503  502  0.00000000000E+00  0.00000000000E+00  0.17710676781E+02  0.17710676781E+02  0.00000000000E+00 0.  1.
         21   -1    0    0  501  503 -0.00000000000E+00 -0.00000000000E+00 -0.56679401513E+03  0.56679401513E+03  0.00000000000E+00 0. -1.
         24    1    1    2    0    0 -0.13181008817E+02 -0.24785621122E+02 -0.48423149270E+03  0.49166596433E+03  0.80419002446E+02 0. -1.
          1    1    1    2  501    0  0.44411998576E+01 -0.20137596771E+02 -0.21750022707E+02  0.29971829234E+02  0.00000000000E+00 0. -1.
         -2    1    1    2    0  502  0.87398089597E+01  0.44923217893E+02 -0.43101822949E+02  0.62866898349E+02  0.00000000000E+00 0.  1.
<mgrwt>
<rscale>  2 0.75782474E+02</rscale>
<asrwt>0</asrwt>
<pdfrwt beam="1">  1       21 0.27247197E-02 0.75782474E+02</pdfrwt>
<pdfrwt beam="2">  1       21 0.87199074E-01 0.75782474E+02</pdfrwt>
<totfact> 0.84194268E+05</totfact>
</mgrwt>
</event>
<event>
 5    1  0.1708429E+000  0.1059387E+03  0.7546771E-02  0.1268281E+00
         21   -1    0    0  503  502  0.00000000000E+00  0.00000000000E+00  0.21926860177E+03  0.21926860177E+03  0.00000000000E+00 0. -1.
         21   -1    0    0  501  503 -0.00000000000E+00 -0.00000000000E+00 -0.72358504710E+02  0.72358504710E+02  0.00000000000E+00 0. -1.
         24    1    1    2    0    0 -0.29385508630E+02 -0.71271494614E+02  0.99495507024E+02  0.14936433957E+03  0.80419002446E+02 0. -1.
          1    1    1    2  501    0  0.48745809368E+02  0.37318445954E+02 -0.19804831918E+02  0.64506214481E+02  0.00000000000E+00 0. -1.
         -2    1    1    2    0  502 -0.19360300738E+02  0.33953048661E+02  0.67219421953E+02  0.77756552429E+02  0.00000000000E+00 0.  1.
<mgrwt>
<rscale>  2 0.10593869E+03</rscale>
<asrwt>0</asrwt>
<pdfrwt beam="1">  1       21 0.33733631E-01 0.10593869E+03</pdfrwt>
<pdfrwt beam="2">  1       21 0.11132078E-01 0.10593869E+03</pdfrwt>
<totfact> 0.57233815E+05</totfact>
</mgrwt>
</event>
<event>
 5    1  0.1708429E+000  0.8620485E+02  0.7546771E-02  0.1312311E+00
         21   -1    0    0  503  502  0.00000000000E+00  0.00000000000E+00  0.21518827191E+03  0.21518827191E+03  0.00000000000E+00 0.  1.
         21   -1    0    0  501  503 -0.00000000000E+00 -0.00000000000E+00 -0.50735275670E+02  0.50735275670E+02  0.00000000000E+00 0.  1.
         24    1    1    2    0    0  0.39671041820E+02  0.47163743132E+02  0.12279696615E+03  0.15919962649E+03  0.80419002446E+02 0.  1.
          1    1    1    2  501    0 -0.23077214630E+01 -0.29801922226E+02 -0.17498013737E+02  0.34636117442E+02  0.00000000000E+00 0. -1.
         -2    1    1    2    0  502 -0.37363320357E+02 -0.17361820907E+02  0.59154043829E+02  0.72087803647E+02  0.00000000000E+00 0.  1.
<mgrwt>
<rscale>  2 0.86204853E+02</rscale>
<asrwt>0</asrwt>
<pdfrwt beam="1">  1       21 0.33105888E-01 0.86204853E+02</pdfrwt>
<pdfrwt beam="2">  1       21 0.78054271E-02 0.86204853E+02</pdfrwt>
<totfact> 0.10936962E+06</totfact>
</mgrwt>
</event>
<event>
 5    1  0.1708429E+000  0.2376664E+03  0.7546771E-02  0.1121357E+00
         21   -1    0    0  501  502  0.00000000000E+00  0.00000000000E+00  0.16933054211E+03  0.16933054211E+03  0.00000000000E+00 0. -1.
         21   -1    0    0  502  503 -0.00000000000E+00 -0.00000000000E+00 -0.64417134869E+03  0.64417134869E+03  0.00000000000E+00 0. -1.
         24    1    1    2    0    0  0.34721569963E+02 -0.19570177218E+03 -0.32743488872E+03  0.39138931176E+03  0.80419002446E+02 0. -1.
          1    1    1    2  501    0 -0.91702766743E+02  0.49942043613E+02  0.89939544586E+02  0.13781410243E+03  0.00000000000E+00 0. -1.
         -2    1    1    2    0  503  0.56981196780E+02  0.14575972857E+03 -0.23734546244E+03  0.28429847661E+03  0.00000000000E+00 0.  1.
<mgrwt>
<rscale>  2 0.23766637E+03</rscale>
<asrwt>0</asrwt>
<pdfrwt beam="1">  1       21 0.26050853E-01 0.23766637E+03</pdfrwt>
<pdfrwt beam="2">  1       21 0.99103283E-01 0.23766637E+03</pdfrwt>
<totfact> 0.11406526E+04</totfact>
</mgrwt>
</event>
<event>
 5    1  0.1708429E+000  0.9224050E+02  0.7546771E-02  0.1297515E+00
         21   -1    0    0  501  502  0.00000000000E+00  0.00000000000E+00  0.24727681436E+03  0.24727681436E+03  0.00000000000E+00 0. -1.
         21   -1    0    0  502  503 -0.00000000000E+00 -0.00000000000E+00 -0.53015177606E+02  0.53015177606E+02  0.00000000000E+00 0.  1.
         24    1    1    2    0    0  0.45120486111E+02  0.13216549611E+02  0.10963662961E+03  0.14386779333E+03  0.80419002446E+02 0.  0.
          1    1    1    2  501    0  0.22437882231E+02 -0.68934293874E+01  0.85398981097E+02  0.88566155501E+02  0.00000000000E+00 0. -1.
         -2    1    1    2    0  503 -0.67558368342E+02 -0.63231202236E+01 -0.77397395641E+00  0.67858043135E+02  0.00000000000E+00 0.  1.
<mgrwt>
<rscale>  2 0.92240499E+02</rscale>
<asrwt>0</asrwt>
<pdfrwt beam="1">  1       21 0.38042586E-01 0.92240499E+02</pdfrwt>
<pdfrwt beam="2">  1       21 0.81561813E-02 0.92240499E+02</pdfrwt>
<totfact> 0.77492973E+05</totfact>
</mgrwt>
</event>
<event>
 5    1  0.1708429E+000  0.1017833E+03  0.7546771E-02  0.1276590E+00
         21   -1    0    0  503  502  0.00000000000E+00  0.00000000000E+00  0.14265846791E+03  0.14265846791E+03  0.00000000000E+00 0.  1.
         21   -1    0    0  501  503 -0.00000000000E+00 -0.00000000000E+00 -0.74107037608E+02  0.74107037608E+02  0.00000000000E+00 0.  1.
         24    1    1    2    0    0  0.44320281601E+02  0.83421342667E+01  0.35651088395E+02  0.98853905454E+02  0.80419002446E+02 0.  1.
          1    1    1    2  501    0  0.26210252175E+02  0.22350412992E+02  0.50720438628E+00  0.34449608652E+02  0.00000000000E+00 0. -1.
         -2    1    1    2    0  502 -0.70530533777E+02 -0.30692547258E+02  0.32393137521E+02  0.83461991412E+02  0.00000000000E+00 0.  1.
<mgrwt>
<rscale>  2 0.10178331E+03</rscale>
<asrwt>0</asrwt>
<pdfrwt beam="1">  1       21 0.21947457E-01 0.10178331E+03</pdfrwt>
<pdfrwt beam="2">  1       21 0.11401083E-01 0.10178331E+03</pdfrwt>
<totfact> 0.12400112E+06</totfact>
</mgrwt>
</event>
<event>
 5    1  0.1708429E+000  0.8416485E+02  0.7546771E-02  0.1317631E+00
         21   -1    0    0  501  502  0.00000000000E+00  0.00000000000E+00  0.29570040084E+03  0.29570040084E+03  0.00000000000E+00 0. -1.
         21   -1    0    0  502  503 -0.00000000000E+00 -0.00000000000E+00 -0.39592027310E+02  0.39592027310E+02  0.00000000000E+00 0.  1.
         24    1    1    2    0    0  0.37353030372E+01  0.33989013681E+02  0.22702943395E+03  0.24326690152E+03  0.80419002446E+02 0. -1.
          1    1    1    2  501    0  0.14458944788E+02 -0.52817129020E+02  0.35250599131E+02  0.65125378627E+02  0.00000000000E+00 0. -1.
         -2    1    1    2    0  503 -0.18194247825E+02  0.18828115339E+02 -0.61716595505E+01  0.26900148006E+02  0.00000000000E+00 0.  1.
<mgrwt>
<rscale>  2 0.84164851E+02</rscale>
<asrwt>0</asrwt>
<pdfrwt beam="1">  1       21 0.45492368E-01 0.84164851E+02</pdfrwt>
<pdfrwt beam="2">  1       21 0.60910813E-02 0.84164851E+02</pdfrwt>
<totfact> 0.88946367E+05</totfact>
</mgrwt>
</event>
<event>
 5    1  0.1708429E+000  0.7895997E+02  0.7546771E-02  0.1332029E+00
         21   -1    0    0  501  502  0.00000000000E+00  0.00000000000E+00  0.65497369277E+02  0.65497369277E+02  0.00000000000E+00 0.  1.
         21   -1    0    0  502  503 -0.00000000000E+00 -0.00000000000E+00 -0.12468855655E+03  0.12468855655E+03  0.00000000000E+00 0. -1.
         24    1    1    2    0    0  0.14400108821E+02  0.44461093409E+02 -0.36910489295E+01  0.93085937486E+02  0.80419002446E+02 0.  1.
          1    1    1    2  501    0  0.97188819041E+01 -0.38979910874E+02 -0.45075208014E+01  0.40425336870E+02  0.00000000000E+00 0. -1.
         -2    1    1    2    0  503 -0.24118990725E+02 -0.54811825342E+01 -0.50992617542E+02  0.56674651471E+02  0.00000000000E+00 0.  1.
<mgrwt>
<rscale>  2 0.78959974E+02</rscale>
<asrwt>0</asrwt>
<pdfrwt beam="1">  1       21 0.10076518E-01 0.78959974E+02</pdfrwt>
<pdfrwt beam="2">  1       21 0.19182855E-01 0.78959974E+02</pdfrwt>
<totfact> 0.19521946E+06</totfact>
</mgrwt>
</event>
<event>
 5    1  0.1708429E+000  0.6554954E+02  0.7546771E-02  0.1375916E+00
         21   -1    0    0  503  502  0.00000000000E+00  0.00000000000E+00  0.42946903551E+03  0.42946903551E+03  0.00000000000E+00 0.  1.
         21   -1    0    0  501  503 -0.00000000000E+00 -0.00000000000E+00 -0.32989226499E+02  0.32989226499E+02  0.00000000000E+00 0. -1.
         24    1    1    2    0    0 -0.18798953201E+02 -0.20568238372E+02  0.27549190487E+02  0.89457402836E+02  0.80419002446E+02 0. -1.
          1    1    1    2  501    0  0.22696512970E+02 -0.22802738493E+01  0.81347674906E+02  0.84485357088E+02  0.00000000000E+00 0. -1.
         -2    1    1    2    0  502 -0.38975597684E+01  0.22848512222E+02  0.28758294362E+03  0.28851550208E+03  0.00000000000E+00 0.  1.
<mgrwt>
<rscale>  2 0.65549538E+02</rscale>
<asrwt>0</asrwt>
<pdfrwt beam="1">  1       21 0.66072155E-01 0.65549538E+02</pdfrwt>
<pdfrwt beam="2">  1       21 0.50752659E-02 0.65549538E+02</pdfrwt>
<totfact> 0.55694949E+05</totfact>
</mgrwt>
</event>
<event>
 5    1  0.1708429E+000  0.8405848E+02  0.7546771E-02  0.1317913E+00
         21   -1    0    0  503  502  0.00000000000E+00  0.00000000000E+00  0.28477555672E+02  0.28477555672E+02  0.00000000000E+00 0.  1.
         21   -1    0    0  501  503 -0.00000000000E+00 -0.00000000000E+00 -0.10434456535E+04  0.10434456535E+04  0.00000000000E+00 0. -1.
         24    1    1    2    0    0 -0.20482479854E+01 -0.37357745920E+02 -0.89346443297E+03  0.89785617191E+03  0.80419002446E+02 0.  0.
          1    1    1    2  501    0  0.19134169007E+02  0.52942909905E+02 -0.13571216963E+03  0.14692467839E+03  0.00000000000E+00 0. -1.
         -2    1    1    2    0  502 -0.17085921022E+02 -0.15585163985E+02  0.14208504821E+02  0.27142358830E+02  0.00000000000E+00 0.  1.
<mgrwt>
<rscale>  2 0.84058482E+02</rscale>
<asrwt>0</asrwt>
<pdfrwt beam="1">  1       21 0.43811626E-02 0.84058482E+02</pdfrwt>
<pdfrwt beam="2">  1       21 0.16053009E+00 0.84058482E+02</pdfrwt>
<totfact> 0.89662557E+04</totfact>
</mgrwt>
</event>
<event>
 5    1  0.1708429E+000  0.9894276E+02  0.7546771E-02  0.1282535E+00
         21   -1    0    0  501  502  0.00000000000E+00  0.00000000000E+00  0.17626510076E+03  0.17626510076E+03  0.00000000000E+00 0. -1.
         21   -1    0    0  502  503 -0.00000000000E+00 -0.00000000000E+00 -0.69679657189E+02  0.69679657189E+02  0.00000000000E+00 0.  1.
         24    1    1    2    0    0  0.25348891708E+02  0.31592176070E+02  0.65723147837E+02  0.11147815937E+03  0.80419002446E+02 0. -1.
          1    1    1    2  501    0 -0.15474508951E+02 -0.68195989147E+02  0.59868951064E+02  0.92056746980E+02  0.00000000000E+00 0. -1.
         -2    1    1    2    0  503 -0.98743827573E+01  0.36603813077E+02 -0.19006655327E+02  0.42409851607E+02  0.00000000000E+00 0.  1.
<mgrwt>
<rscale>  2 0.98942761E+02</rscale>
<asrwt>0</asrwt>
<pdfrwt beam="1">  1       21 0.27117708E-01 0.98942761E+02</pdfrwt>
<pdfrwt beam="2">  1       21 0.10719947E-01 0.98942761E+02</pdfrwt>
<totfact> 0.92899860E+05</totfact>
</mgrwt>
</event>
<event>
 5    1  0.1708429E+000  0.7295378E+02  0.7546771E-02  0.1350327E+00
         21   -1    0    0  503  502  0.00000000000E+00  0.00000000000E+00  0.29489296749E+03  0.29489296749E+03  0.00000000000E+00 0. -1.
         21   -1    0    0  501  503 -0.00000000000E+00 -0.00000000000E+00 -0.36488645629E+02  0.36488645629E+02  0.00000000000E+00 0. -1.
         24    1    1    2    0    0  0.32825523846E+02 -0.38655616673E+02  0.25371937444E+03  0.27094742781E+03  0.80419002446E+02 0. -1.
          1    1    1    2  501    0 -0.20727297295E+02  0.21742697139E+02 -0.13383912189E+02  0.32886088814E+02  0.00000000000E+00 0. -1.
         -2    1    1    2    0  502 -0.12098226551E+02  0.16912919535E+02  0.18068859607E+02  0.27548096493E+02  0.00000000000E+00 0.  1.
<mgrwt>
<rscale>  2 0.72953779E+02</rscale>
<asrwt>0</asrwt>
<pdfrwt beam="1">  1       21 0.45368147E-01 0.72953779E+02</pdfrwt>
<pdfrwt beam="2">  1       21 0.56136380E-02 0.72953779E+02</pdfrwt>
<totfact> 0.10221094E+06</totfact>
</mgrwt>
</event>
<event>
 5    1  0.1708429E+000  0.8300320E+02  0.7546771E-02  0.1320739E+00
         21   -1    0    0  501  502  0.00000000000E+00  0.00000000000E+00  0.29590756360E+02  0.29590756360E+02  0.00000000000E+00 0.  1.
         21   -1    0    0  502  503 -0.00000000000E+00 -0.00000000000E+00 -0.46517328049E+03  0.46517328049E+03  0.00000000000E+00 0. -1.
         24    1    1    2    0    0  0.61361280211E+01  0.18786903378E+02 -0.15820649780E+03  0.17856962706E+03  0.80419002446E+02 0.  0.
          1    1    1    2  501    0  0.34304992339E+02 -0.24770295695E+02 -0.71736908897E+01  0.42916918449E+02  0.00000000000E+00 0. -1.
         -2    1    1    2    0  503 -0.40441120360E+02  0.59833923167E+01 -0.27020233543E+03  0.27327749134E+03  0.00000000000E+00 0.  1.
<mgrwt>
<rscale>  2 0.83003202E+02</rscale>
<asrwt>0</asrwt>
<pdfrwt beam="1">  1       21 0.45524239E-02 0.83003202E+02</pdfrwt>
<pdfrwt beam="2">  1       21 0.71565123E-01 0.83003202E+02</pdfrwt>
<totfact> 0.56256632E+05</totfact>
</mgrwt>
</event>
<event>
 5    1  0.1708429E+000  0.7265014E+02  0.7546771E-02  0.1351306E+00
         21   -1    0    0  501  502  0.00000000000E+00  0.00000000000E+00  0.45118535205E+03  0.45118535205E+03  0.00000000000E+00 0. -1.
         21   -1    0    0  502  503 -0.00000000000E+00 -0.00000000000E+00 -0.54086668343E+02  0.54086668343E+02  0.00000000000E+00 0.  1.
         24    1    1    2    0    0  0.84517411911E+01 -0.88605126752E+01  0.54071285235E+02  0.97677328257E+02  0.80419002446E+02 0. -1.
          1    1    1    2  501    0 -0.54048024813E+00  0.35837346558E+02  0.36815094562E+03  0.36989150610E+03  0.00000000000E+00 0. -1.
         -2    1    1    2    0  503 -0.79112609429E+01 -0.26976833883E+02 -0.25123547145E+02  0.37703186035E+02  0.00000000000E+00 0.  1.
<mgrwt>
<rscale>  2 0.72650136E+02</rscale>
<asrwt>0</asrwt>
<pdfrwt beam="1">  1       21 0.69413129E-01 0.72650136E+02</pdfrwt>
<pdfrwt beam="2">  1       21 0.83210262E-02 0.72650136E+02</pdfrwt>
<totfact> 0.21890688E+05</totfact>
</mgrwt>
</event>
<event>
 5    1  0.1708429E+000  0.8445957E+02  0.7546771E-02  0.1316852E+00
         21   -1    0    0  501  502  0.00000000000E+00  0.00000000000E+00  0.41914677912E+02  0.41914677912E+02  0.00000000000E+00 0. -1.
         21   -1    0    0  502  503 -0.00000000000E+00 -0.00000000000E+00 -0.20841716009E+03  0.20841716009E+03  0.00000000000E+00 0.  1.
         24    1    1    2    0    0 -0.37921041164E+02 -0.36627253287E+02 -0.40205706656E+02  0.10422703991E+03  0.80419002446E+02 0. -1.
          1    1    1    2  501    0  0.35761010523E+02 -0.30629611190E+00 -0.52061221190E+02  0.63161019962E+02  0.00000000000E+00 0. -1.
         -2    1    1    2    0  503  0.21600306408E+01  0.36933549399E+02 -0.74235554336E+02  0.82943778134E+02  0.00000000000E+00 0.  1.
<mgrwt>
<rscale>  2 0.84459572E+02</rscale>
<asrwt>0</asrwt>
<pdfrwt beam="1">  1       21 0.64484121E-02 0.84459572E+02</pdfrwt>
<pdfrwt beam="2">  1       21 0.32064178E-01 0.84459572E+02</pdfrwt>
<totfact> 0.16063165E+06</totfact>
</mgrwt>
</event>
<event>
 5    1  0.1708429E+000  0.7973373E+02  0.7546771E-02  0.1329809E+00
         21   -1    0    0  501  502  0.00000000000E+00  0.00000000000E+00  0.29334645773E+02  0.29334645773E+02  0.00000000000E+00 0. -1.
         21   -1    0    0  502  503 -0.00000000000E+00 -0.00000000000E+00 -0.27925438508E+03  0.27925438508E+03  0.00000000000E+00 0. -1.
         24    1    1    2    0    0 -0.19364243241E+02 -0.27632501717E+02 -0.61716101756E+02  0.10683923548E+03  0.80419002446E+02 0. -1.
          1    1    1    2  501    0  0.11425395165E+02  0.48553620112E+02 -0.11943985071E+03  0.12943674756E+03  0.00000000000E+00 0. -1.
         -2    1    1    2    0  503  0.79388480753E+01 -0.20921118395E+02 -0.68763786835E+02  0.72313047810E+02  0.00000000000E+00 0.  1.
<mgrwt>
<rscale>  2 0.79733728E+02</rscale>
<asrwt>0</asrwt>
<pdfrwt beam="1">  1       21 0.45130224E-02 0.79733728E+02</pdfrwt>
<pdfrwt beam="2">  1       21 0.42962213E-01 0.79733728E+02</pdfrwt>
<totfact> 0.16403814E+06</totfact>
</mgrwt>
</event>
<event>
 5    1  0.1708429E+000  0.8600573E+02  0.7546771E-02  0.1312823E+00
         21   -1    0    0  501  502  0.00000000000E+00  0.00000000000E+00  0.12306074504E+03  0.12306074504E+03  0.00000000000E+00 0. -1.
         21   -1    0    0  502  503 -0.00000000000E+00 -0.00000000000E+00 -0.29567947705E+03  0.29567947705E+03  0.00000000000E+00 0.  1.
         24    1    1    2    0    0  0.52363891896E+02 -0.35880594418E+02 -0.13827004118E+03  0.17209071582E+03  0.80419002446E+02 0.  1.
          1    1    1    2  501    0 -0.11191547931E+02  0.24355098090E+02  0.10111061585E+03  0.10460295496E+03  0.00000000000E+00 0. -1.
         -2    1    1    2    0  503 -0.41172343965E+02  0.11525496328E+02 -0.13545930668E+03  0.14204655131E+03  0.00000000000E+00 0.  1.
<mgrwt>
<rscale>  2 0.86005729E+02</rscale>
<asrwt>0</asrwt>
<pdfrwt beam="1">  1       21 0.18932423E-01 0.86005729E+02</pdfrwt>
<pdfrwt beam="2">  1       21 0.45489150E-01 0.86005729E+02</pdfrwt>
<totfact> 0.12340838E+05</totfact>
</mgrwt>
</event>
<event>
 5    1  0.1708429E+000  0.6787907E+02  0.7546771E-02  0.1367458E+00
         21   -1    0    0  503  502  0.00000000000E+00  0.00000000000E+00  0.94607084833E+03  0.94607084833E+03  0.00000000000E+00 0. -1.
         21   -1    0    0  501  503 -0.00000000000E+00 -0.00000000000E+00 -0.52002312113E+01  0.52002312113E+01  0.00000000000E+00 0.  1.
         24    1    1    2    0    0 -0.10430642851E+02 -0.17745052425E+02  0.61952097687E+03  0.62505771089E+03  0.80419002446E+02 0.  0.
          1    1    1    2  501    0  0.29743667937E+02  0.66659505096E+01  0.12767936882E+03  0.13126744418E+03  0.00000000000E+00 0. -1.
         -2    1    1    2    0  502 -0.19313025086E+02  0.11079101916E+02  0.19367027142E+03  0.19494592448E+03  0.00000000000E+00 0.  1.
<mgrwt>
<rscale>  2 0.67879070E+02</rscale>
<asrwt>0</asrwt>
<pdfrwt beam="1">  1       21 0.14554922E+00 0.67879070E+02</pdfrwt>
<pdfrwt beam="2">  1       21 0.80003632E-03 0.67879070E+02</pdfrwt>
<totfact> 0.17306137E+06</totfact>
</mgrwt>
</event>
<event>
 5    1  0.1708429E+000  0.7881454E+02  0.7546771E-02  0.1332450E+00
         21   -1    0    0  501  502  0.00000000000E+00  0.00000000000E+00  0.15411616807E+03  0.15411616807E+03  0.00000000000E+00 0.  1.
         21   -1    0    0  502  503 -0.00000000000E+00 -0.00000000000E+00 -0.65925457804E+02  0.65925457804E+02  0.00000000000E+00 0. -1.
         24    1    1    2    0    0 -0.36755480128E+02 -0.15974185112E+02 -0.20273975538E+02  0.92110748276E+02  0.80419002446E+02 0. -1.
          1    1    1    2  501    0  0.14985419378E+02  0.35500169747E+02  0.59015719663E+02  0.70481770788E+02  0.00000000000E+00 0. -1.
         -2    1    1    2    0  503  0.21770060750E+02 -0.19525984635E+02  0.49448966143E+02  0.57449106813E+02  0.00000000000E+00 0.  1.
<mgrwt>
<rscale>  2 0.78814538E+02</rscale>
<asrwt>0</asrwt>
<pdfrwt beam="1">  1       21 0.23710180E-01 0.78814538E+02</pdfrwt>
<pdfrwt beam="2">  1       21 0.10142378E-01 0.78814538E+02</pdfrwt>
<totfact> 0.13084782E+06</totfact>
</mgrwt>
</event>
<event>
 5    1  0.1708429E+000  0.6848864E+02  0.7546771E-02  0.1365309E+00
         21   -1    0    0  503  502  0.00000000000E+00  0.00000000000E+00  0.23139094802E+03  0.23139094802E+03  0.00000000000E+00 0. -1.
         21   -1    0    0  501  503 -0.00000000000E+00 -0.00000000000E+00 -0.27429053525E+02  0.27429053525E+02  0.00000000000E+00 0.  1.
         24    1    1    2    0    0  0.22412767918E+02 -0.17620482214E+02  0.90029063675E+02  0.12403734043E+03  0.80419002446E+02 0.  1.
          1    1    1    2  501    0 -0.28162664343E+02 -0.47466113647E+01  0.13247570729E+02  0.31482758973E+02  0.00000000000E+00 0. -1.
         -2    1    1    2    0  502  0.57498964246E+01  0.22367093578E+02  0.10068526009E+03  0.10329990214E+03  0.00000000000E+00 0.  1.
<mgrwt>
<rscale>  2 0.68488644E+02</rscale>
<asrwt>0</asrwt>
<pdfrwt beam="1">  1       21 0.35598606E-01 0.68488644E+02</pdfrwt>
<pdfrwt beam="2">  1       21 0.42198545E-02 0.68488644E+02</pdfrwt>
<totfact> 0.26303507E+06</totfact>
</mgrwt>
</event>
<event>
 5    1  0.1708429E+000  0.9563607E+02  0.7546771E-02  0.1289750E+00
         21   -1    0    0  501  502  0.00000000000E+00  0.00000000000E+00  0.70939661882E+03  0.70939661882E+03  0.00000000000E+00 0. -1.
         21   -1    0    0  502  503 -0.00000000000E+00 -0.00000000000E+00 -0.30423558441E+02  0.30423558441E+02  0.00000000000E+00 0.  1.
         24    1    1    2    0    0 -0.33281460976E+02  0.45908066539E+02  0.32900425380E+03  0.34340387474E+03  0.80419002446E+02 0.  1.
          1    1    1    2  501    0 -0.22268838810E+02 -0.25692807067E+01  0.31843865184E+03  0.31922668649E+03  0.00000000000E+00 0. -1.
         -2    1    1    2    0  503  0.55550299786E+02 -0.43338785832E+02  0.31530154743E+02  0.77189616023E+02  0.00000000000E+00 0.  1.
<mgrwt>
<rscale>  2 0.95636068E+02</rscale>
<asrwt>0</asrwt>
<pdfrwt beam="1">  1       21 0.10913793E+00 0.95636068E+02</pdfrwt>
<pdfrwt beam="2">  1       21 0.46805480E-02 0.95636068E+02</pdfrwt>
<totfact> 0.20691818E+05</totfact>
</mgrwt>
</event>
<event>
 5    1  0.1708429E+000  0.9383906E+02  0.7546771E-02  0.1293812E+00
         21   -1    0    0  501  502  0.00000000000E+00  0.00000000000E+00  0.32672160739E+02  0.32672160739E+02  0.00000000000E+00 0.  1.
         21   -1    0    0  502  503 -0.00000000000E+00 -0.00000000000E+00 -0.52976025443E+03  0.52976025443E+03  0.00000000000E+00 0.  1.
         24    1    1    2    0    0 -0.22101996990E+02 -0.73066288642E+02 -0.10632554961E+03  0.15362135028E+03  0.80419002446E+02 0.  1.
          1    1    1    2  501    0  0.61082206415E+01  0.34667908134E+02 -0.31775321751E+02  0.47421991588E+02  0.00000000000E+00 0. -1.
         -2    1    1    2    0  503  0.15993776348E+02  0.38398380509E+02 -0.35898722233E+03  0.36138907330E+03  0.00000000000E+00 0.  1.
<mgrwt>
<rscale>  2 0.93839059E+02</rscale>
<asrwt>0</asrwt>
<pdfrwt beam="1">  1       21 0.50264863E-02 0.93839059E+02</pdfrwt>
<pdfrwt beam="2">  1       21 0.81501576E-01 0.93839059E+02</pdfrwt>
<totfact> 0.35870379E+05</totfact>
</mgrwt>
</event>
<event>
 5    1  0.1708429E+000  0.8913936E+02  0.7546771E-02  0.1304949E+00
         21   -1    0    0  503  502  0.00000000000E+00  0.00000000000E+00  0.87269035890E+02  0.87269035890E+02  0.00000000000E+00 0.  1.
         21   -1    0    0  501  503 -0.00000000000E+00 -0.00000000000E+00 -0.92093241198E+02  0.92093241198E+02  0.00000000000E+00 0. -1.
         24    1    1    2    0    0 -0.29042620229E+02  0.36087989299E+02  0.70256839331E+01  0.93071977257E+02  0.80419002446E+02 0. -1.
          1    1    1    2  501    0  0.33572712462E+02  0.13128056193E+02 -0.51412821552E+01  0.36412987568E+02  0.00000000000E+00 0. -1.
         -2    1    1    2    0  502 -0.45300922332E+01 -0.49216045492E+02 -0.67086070868E+01  0.49877312263E+02  0.00000000000E+00 0.  1.
<mgrwt>
<rscale>  2 0.89139360E+02</rscale>
<asrwt>0</asrwt>
<pdfrwt beam="1">  1       21 0.13426006E-01 0.89139360E+02</pdfrwt>
<pdfrwt beam="2">  1       21 0.14168191E-01 0.89139360E+02</pdfrwt>
<totfact> 0.20477497E+06</totfact>
</mgrwt>
</event>
<event>
 5    1  0.1708429E+000  0.7875237E+02  0.7546771E-02  0.1332630E+00
         21   -1    0    0  503  502  0.00000000000E+00  0.00000000000E+00  0.42505120349E+03  0.42505120349E+03  0.00000000000E+00 0.  1.
         21   -1    0    0  501  503 -0.00000000000E+00 -0.00000000000E+00 -0.22413002955E+02  0.22413002955E+02  0.00000000000E+00 0. -1.
         24    1    1    2    0    0 -0.25791261980E+02 -0.18009535653E+02  0.14081894247E+03  0.16518693375E+03  0.80419002446E+02 0. -1.
          1    1    1    2  501    0  0.15907299599E+02 -0.23558033774E+02  0.15692837074E+02  0.32469805531E+02  0.00000000000E+00 0. -1.
         -2    1    1    2    0  502  0.98839623811E+01  0.41567569427E+02  0.24612642099E+03  0.24980746716E+03  0.00000000000E+00 0.  1.
<mgrwt>
<rscale>  2 0.78752367E+02</rscale>
<asrwt>0</asrwt>
<pdfrwt beam="1">  1       21 0.65392487E-01 0.78752367E+02</pdfrwt>
<pdfrwt beam="2">  1       21 0.34481546E-02 0.78752367E+02</pdfrwt>
<totfact> 0.10759546E+06</totfact>
</mgrwt>
</event>
<event>
 5    1  0.1708429E+000  0.9141998E+02  0.7546771E-02  0.1299449E+00
         21   -1    0    0  503  502  0.00000000000E+00  0.00000000000E+00  0.63529047299E+03  0.63529047299E+03  0.00000000000E+00 0. -1.
         21   -1    0    0  501  503 -0.00000000000E+00 -0.00000000000E+00 -0.42852849957E+02  0.42852849957E+02  0.00000000000E+00 0.  1.
         24    1    1    2    0    0  0.89726248700E+01  0.72925665286E+02  0.58806677405E+03  0.59807057054E+03  0.80419002446E+02 0. -1.
          1    1    1    2  501    0  0.72948072739E+00 -0.25044374220E+02 -0.12994016142E+02  0.28224054948E+02  0.00000000000E+00 0. -1.
         -2    1    1    2    0  502 -0.97021055974E+01 -0.47881291066E+02  0.17364865129E+02  0.51848697458E+02  0.00000000000E+00 0.  1.
<mgrwt>
<rscale>  2 0.91419982E+02</rscale>
<asrwt>0</asrwt>
<pdfrwt beam="1">  1       21 0.97736989E-01 0.91419982E+02</pdfrwt>
<pdfrwt beam="2">  1       21 0.65927466E-02 0.91419982E+02</pdfrwt>
<totfact> 0.15108944E+05</totfact>
</mgrwt>
</event>
<event>
 5    1  0.1708429E+000  0.7475684E+02  0.7546771E-02  0.1344626E+00
         21   -1    0    0  503  502  0.00000000000E+00  0.00000000000E+00  0.77588939929E+03  0.77588939929E+03  0.00000000000E+00 0. -1.
         21   -1    0    0  501  503 -0.00000000000E+00 -0.00000000000E+00 -0.77715576050E+01  0.77715576050E+01  0.00000000000E+00 0.  1.
         24    1    1    2    0    0 -0.11920908542E+02 -0.32335200092E+02  0.44846734622E+03  0.45692214852E+03  0.80419002446E+02 0.  0.
          1    1    1    2  501    0 -0.20391998810E+02  0.15296105129E+02  0.71379476696E+02  0.75794684120E+02  0.00000000000E+00 0. -1.
         -2    1    1    2    0  502  0.32312907351E+02  0.17039094963E+02  0.24827101877E+03  0.25094412426E+03  0.00000000000E+00 0.  1.
<mgrwt>
<rscale>  2 0.74756838E+02</rscale>
<asrwt>0</asrwt>
<pdfrwt beam="1">  1       21 0.11936754E+00 0.74756838E+02</pdfrwt>
<pdfrwt beam="2">  1       21 0.11956249E-02 0.74756838E+02</pdfrwt>
<totfact> 0.15074647E+06</totfact>
</mgrwt>
</event>
<event>
 5    1  0.1708429E+000  0.1748275E+03  0.7546771E-02  0.1172905E+00
         21   -1    0    0  503  502  0.00000000000E+00  0.00000000000E+00  0.42356051020E+03  0.42356051020E+03  0.00000000000E+00 0.  1.
         21   -1    0    0  501  503 -0.00000000000E+00 -0.00000000000E+00 -0.20119068074E+03  0.20119068074E+03  0.00000000000E+00 0. -1.
         24    1    1    2    0    0  0.35749225494E+02  0.14510386714E+02 -0.59314324125E+02  0.10711658810E+03  0.80419002446E+02 0. -1.
          1    1    1    2  501    0  0.17283603652E+02  0.11720316667E+03 -0.70530786647E+02  0.13787638339E+03  0.00000000000E+00 0. -1.
         -2    1    1    2    0  502 -0.53032829146E+02 -0.13171355338E+03  0.35221494023E+03  0.37975821944E+03  0.00000000000E+00 0.  1.
<mgrwt>
<rscale>  2 0.17482754E+03</rscale>
<asrwt>0</asrwt>
<pdfrwt beam="1">  1       21 0.65163155E-01 0.17482754E+03</pdfrwt>
<pdfrwt beam="2">  1       21 0.30952413E-01 0.17482754E+03</pdfrwt>
<totfact> 0.21962444E+04</totfact>
</mgrwt>
</event>
<event>
 5    1  0.1708429E+000  0.7290021E+02  0.7546771E-02  0.1350500E+00
         21   -1    0    0  501  502  0.00000000000E+00  0.00000000000E+00  0.48168754386E+03  0.48168754386E+03  0.00000000000E+00 0. -1.
         21   -1    0    0  502  503 -0.00000000000E+00 -0.00000000000E+00 -0.74958589667E+02  0.74958589667E+02  0.00000000000E+00 0. -1.
         24    1    1    2    0    0  0.50527319259E+02  0.11659308333E+01 -0.22429861842E+02  0.97594487768E+02  0.80419002446E+02 0. -1.
          1    1    1    2  501    0 -0.28126241644E+02 -0.32844142078E+01  0.43490706571E+03  0.43582798058E+03  0.00000000000E+00 0. -1.
         -2    1    1    2    0  503 -0.22401077615E+02  0.21184833744E+01 -0.57482496797E+01  0.23223665182E+02  0.00000000000E+00 0.  1.
<mgrwt>
<rscale>  2 0.72900207E+02</rscale>
<asrwt>0</asrwt>
<pdfrwt beam="1">  1       21 0.74105774E-01 0.72900207E+02</pdfrwt>
<pdfrwt beam="2">  1       21 0.11532091E-01 0.72900207E+02</pdfrwt>
<totfact> 0.10847480E+05</totfact>
</mgrwt>
</event>
<event>
 5    1  0.1708429E+000  0.8102832E+02  0.7546771E-02  0.1326158E+00
         21   -1    0    0  503  502  0.00000000000E+00  0.00000000000E+00  0.32448282251E+02  0.32448282251E+02  0.00000000000E+00 0. -1.
         21   -1    0    0  501  503 -0.00000000000E+00 -0.00000000000E+00 -0.31793463313E+03  0.31793463313E+03  0.00000000000E+00 0. -1.
         24    1    1    2    0    0 -0.40365161792E+02  0.18817491529E+02 -0.98080907594E+02  0.13442665161E+03  0.80419002446E+02 0. -1.
          1    1    1    2  501    0  0.32389612785E+02 -0.37657430451E+02 -0.18901695519E+03  0.19543433279E+03  0.00000000000E+00 0. -1.
         -2    1    1    2    0  502  0.79755490067E+01  0.18839938923E+02  0.16115119050E+01  0.20521930981E+02  0.00000000000E+00 0.  1.
<mgrwt>
<rscale>  2 0.81028319E+02</rscale>
<asrwt>0</asrwt>
<pdfrwt beam="1">  1       21 0.49920433E-02 0.81028319E+02</pdfrwt>
<pdfrwt beam="2">  1       21 0.48913021E-01 0.81028319E+02</pdfrwt>
<totfact> 0.10701018E+06</totfact>
</mgrwt>
</event>
<event>
 5    1  0.1708429E+000  0.7272052E+02  0.7546771E-02  0.1351079E+00
         21   -1    0    0  503  502  0.00000000000E+00  0.00000000000E+00  0.17985606592E+02  0.17985606592E+02  0.00000000000E+00 0. -1.
         21   -1    0    0  501  503 -0.00000000000E+00 -0.00000000000E+00 -0.56442522117E+03  0.56442522117E+03  0.00000000000E+00 0. -1.
         24    1    1    2    0    0  0.27341085747E+01 -0.25845757645E+02 -0.15028695209E+03  0.17242059756E+03  0.80419002446E+02 0. -1.
          1    1    1    2  501    0 -0.28550223450E+02  0.83705720723E+01 -0.36397088095E+03  0.36518486266E+03  0.00000000000E+00 0. -1.
         -2    1    1    2    0  502  0.25816114875E+02  0.17475185573E+02 -0.32181781528E+02  0.44805367540E+02  0.00000000000E+00 0.  1.
<mgrwt>
<rscale>  2 0.72720519E+02</rscale>
<asrwt>0</asrwt>
<pdfrwt beam="1">  1       21 0.27670165E-02 0.72720519E+02</pdfrwt>
<pdfrwt beam="2">  1       21 0.86834647E-01 0.72720519E+02</pdfrwt>
<totfact> 0.82855786E+05</totfact>
</mgrwt>
</event>
<event>
 5    1  0.1708429E+000  0.8565392E+02  0.7546771E-02  0.1313731E+00
         21   -1    0    0  501  502  0.00000000000E+00  0.00000000000E+00  0.19683029746E+04  0.19683029746E+04  0.00000000000E+00 0. -1.
         21   -1    0    0  502  503 -0.00000000000E+00 -0.00000000000E+00 -0.38425692862E+01  0.38425692862E+01  0.00000000000E+00 0.  1.
         24    1    1    2    0    0  0.39480717374E+02  0.57496444034E+01  0.94352616063E+03  0.94778722148E+03  0.80419002446E+02 0.  0.
          1    1    1    2  501    0 -0.56100065133E+02  0.11840949930E+02  0.81331178989E+03  0.81533029686E+03  0.00000000000E+00 0. -1.
         -2    1    1    2    0  503  0.16619347758E+02 -0.17590594334E+02  0.20762245481E+03  0.20902802557E+03  0.00000000000E+00 0.  1.
<mgrwt>
<rscale>  2 0.85653922E+02</rscale>
<asrwt>0</asrwt>
<pdfrwt beam="1">  1       21 0.30281504E+00 0.85653922E+02</pdfrwt>
<pdfrwt beam="2">  1       21 0.59116608E-03 0.85653922E+02</pdfrwt>
<totfact> 0.31216823E+05</totfact>
</mgrwt>
</event>
<event>
 5    1  0.1708429E+000  0.9079704E+02  0.7546771E-02  0.1300933E+00
         21   -1    0    0  503  502  0.00000000000E+00  0.00000000000E+00  0.30800092292E+03  0.30800092292E+03  0.00000000000E+00 0.  1.
         21   -1    0    0  501  503 -0.00000000000E+00 -0.00000000000E+00 -0.10065351419E+03  0.10065351419E+03  0.00000000000E+00 0.  1.
         24    1    1    2    0    0 -0.50966660336E+02  0.15022532622E+02 -0.29288567278E+02  0.10073883601E+03  0.80419002446E+02 0.  1.
          1    1    1    2  501    0  0.17075077285E+02  0.26552002191E+02 -0.25355092436E+02  0.40490095049E+02  0.00000000000E+00 0. -1.
         -2    1    1    2    0  502  0.33891583051E+02 -0.41574534813E+02  0.26199106844E+03  0.26742550605E+03  0.00000000000E+00 0.  1.
<mgrwt>
<rscale>  2 0.90797043E+02</rscale>
<asrwt>0</asrwt>
<pdfrwt beam="1">  1       21 0.47384757E-01 0.90797043E+02</pdfrwt>
<pdfrwt beam="2">  1       21 0.15485156E-01 0.90797043E+02</pdfrwt>
<totfact> 0.16299218E+05</totfact>
</mgrwt>
</event>
<event>
 5    1  0.1708429E+000  0.7659218E+02  0.7546771E-02  0.1339010E+00
         21   -1    0    0  501  502  0.00000000000E+00  0.00000000000E+00  0.36355788445E+03  0.36355788445E+03  0.00000000000E+00 0. -1.
         21   -1    0    0  502  503 -0.00000000000E+00 -0.00000000000E+00 -0.46155076664E+02  0.46155076664E+02  0.00000000000E+00 0. -1.
         24    1    1    2    0    0  0.65883023940E+01  0.49319391415E+02  0.83651039030E+02  0.12625577366E+03  0.80419002446E+02 0. -1.
          1    1    1    2  501    0 -0.19093470309E+02 -0.31809345404E+02  0.25232193040E+03  0.25503480473E+03  0.00000000000E+00 0. -1.
         -2    1    1    2    0  503  0.12505167915E+02 -0.17510046011E+02 -0.18570161646E+02  0.28422382719E+02  0.00000000000E+00 0.  1.
<mgrwt>
<rscale>  2 0.76592177E+02</rscale>
<asrwt>0</asrwt>
<pdfrwt beam="1">  1       21 0.55931980E-01 0.76592177E+02</pdfrwt>
<pdfrwt beam="2">  1       21 0.71007813E-02 0.76592177E+02</pdfrwt>
<totfact> 0.45071604E+05</totfact>
</mgrwt>
</event>
<event>
 5    1  0.1708429E+000  0.1213124E+03  0.7546771E-02  0.1240948E+00
         21   -1    0    0  503  502  0.00000000000E+00  0.00000000000E+00  0.16937326195E+04  0.16937326195E+04  0.00000000000E+00 0.  1.
         21   -1    0    0  501  503 -0.00000000000E+00 -0.00000000000E+00 -0.41166946955E+02  0.41166946955E+02  0.00000000000E+00 0. -1.
         24    1    1    2    0    0  0.88123812999E+02 -0.62408361646E+02  0.44225483486E+03  0.46229553852E+03  0.80419002446E+02 0.  1.
          1    1    1    2  501    0 -0.21772852614E+02  0.15653199550E+02 -0.23783506829E+02  0.35843199692E+02  0.00000000000E+00 0. -1.
         -2    1    1    2    0  502 -0.66350960385E+02  0.46755162096E+02  0.12340943445E+04  0.12367608282E+04  0.00000000000E+00 0.  1.
<mgrwt>
<rscale>  2 0.12131241E+03</rscale>
<asrwt>0</asrwt>
<pdfrwt beam="1">  1       21 0.26057420E+00 0.12131241E+03</pdfrwt>
<pdfrwt beam="2">  1       21 0.63333778E-02 0.12131241E+03</pdfrwt>
<totfact> 0.11249846E+04</totfact>
</mgrwt>
</event>
<event>
 5    1  0.1708429E+000  0.7658031E+02  0.7546771E-02  0.1339046E+00
         21   -1    0    0  503  502  0.00000000000E+00  0.00000000000E+00  0.16605739931E+03  0.16605739931E+03  0.00000000000E+00 0. -1.
         21   -1    0    0  501  503 -0.00000000000E+00 -0.00000000000E+00 -0.56261191573E+02  0.56261191573E+02  0.00000000000E+00 0. -1.
         24    1    1    2    0    0 -0.28064846569E+02  0.47074954372E+02 -0.16205558721E+01  0.97332055859E+02  0.80419002446E+02 0. -1.
          1    1    1    2  501    0  0.74138179412E+01 -0.22780515803E+02  0.37677797022E+02  0.44648997583E+02  0.00000000000E+00 0. -1.
         -2    1    1    2    0  502  0.20651028628E+02 -0.24294438568E+02  0.73738966591E+02  0.80337537444E+02  0.00000000000E+00 0.  1.
<mgrwt>
<rscale>  2 0.76580307E+02</rscale>
<asrwt>0</asrwt>
<pdfrwt beam="1">  1       21 0.25547292E-01 0.76580307E+02</pdfrwt>
<pdfrwt beam="2">  1       21 0.86555680E-02 0.76580307E+02</pdfrwt>
<totfact> 0.14940772E+06</totfact>
</mgrwt>
</event>
<event>
 5    1  0.1708429E+000  0.8439323E+02  0.7546771E-02  0.1317027E+00
         21   -1    0    0  501  502  0.00000000000E+00  0.00000000000E+00  0.15343376001E+03  0.15343376001E+03  0.00000000000E+00 0.  1.
         21   -1    0    0  502  503 -0.00000000000E+00 -0.00000000000E+00 -0.10245753895E+03  0.10245753895E+03  0.00000000000E+00 0.  1.
         24    1    1    2    0    0  0.34284843944E+02  0.18249198272E+02  0.62367086787E+02  0.10892820218E+03  0.80419002446E+02 0.  1.
          1    1    1    2  501    0  0.18939295698E+02 -0.18183922154E+02  0.55549710093E+02  0.61442023387E+02  0.00000000000E+00 0. -1.
         -2    1    1    2    0  503 -0.53224139641E+02 -0.65276118435E-01 -0.66940575830E+02  0.85521073391E+02  0.00000000000E+00 0.  1.
<mgrwt>
<rscale>  2 0.84393233E+02</rscale>
<asrwt>0</asrwt>
<pdfrwt beam="1">  1       21 0.23605194E-01 0.84393233E+02</pdfrwt>
<pdfrwt beam="2">  1       21 0.15762698E-01 0.84393233E+02</pdfrwt>
<totfact> 0.60874215E+05</totfact>
</mgrwt>
</event>
<event>
 5    1  0.1708429E+000  0.7703794E+02  0.7546771E-02  0.1337674E+00
         21   -1    0    0  501  502  0.00000000000E+00  0.00000000000E+00  0.69410540771E+01  0.69410540771E+01  0.00000000000E+00 0. -1.
         21   -1    0    0  502  503 -0.00000000000E+00 -0.00000000000E+00 -0.98543131957E+03  0.98543131957E+03  0.00000000000E+00 0.  1.
         24    1    1    2    0    0 -0.12958653777E+02 -0.42662783593E+01 -0.52563314739E+03  0.53192438319E+03  0.80419002446E+02 0. -1.
          1    1    1    2  501    0  0.20076591805E+02  0.35331699374E+02 -0.13464285660E+03  0.14064173403E+03  0.00000000000E+00 0. -1.
         -2    1    1    2    0  503 -0.71179380283E+01 -0.31065421015E+02 -0.31821426151E+03  0.31980625643E+03  0.00000000000E+00 0.  1.
<mgrwt>
<rscale>  2 0.77037941E+02</rscale>
<asrwt>0</asrwt>
<pdfrwt beam="1">  1       21 0.10678547E-02 0.77037941E+02</pdfrwt>
<pdfrwt beam="2">  1       21 0.15160479E+00 0.77037941E+02</pdfrwt>
<totfact> 0.99914901E+05</totfact>
</mgrwt>
</event>
<event>
 5    1  0.1708429E+000  0.7380465E+02  0.7546771E-02  0.1347613E+00
         21   -1    0    0  503  502  0.00000000000E+00  0.00000000000E+00  0.33118608394E+02  0.33118608394E+02  0.00000000000E+00 0. -1.
         21   -1    0    0  501  503 -0.00000000000E+00 -0.00000000000E+00 -0.43866591850E+03  0.43866591850E+03  0.00000000000E+00 0. -1.
         24    1    1    2    0    0 -0.35635219865E+02  0.11968224451E+02 -0.11026334139E+03  0.14155680026E+03  0.80419002446E+02 0.  0.
          1    1    1    2  501    0  0.11597544392E+02  0.17385025259E+02 -0.29133437808E+03  0.29208297107E+03  0.00000000000E+00 0. -1.
         -2    1    1    2    0  502  0.24037675473E+02 -0.29353249709E+02 -0.39495906356E+01  0.38144755561E+02  0.00000000000E+00 0.  1.
<mgrwt>
<rscale>  2 0.73804646E+02</rscale>
<asrwt>0</asrwt>
<pdfrwt beam="1">  1       21 0.50951710E-02 0.73804646E+02</pdfrwt>
<pdfrwt beam="2">  1       21 0.67487058E-01 0.73804646E+02</pdfrwt>
<totfact> 0.52942422E+05</totfact>
</mgrwt>
</event>
<event>
 5    1  0.1708429E+000  0.7353135E+02  0.7546771E-02  0.1348480E+00
         21   -1    0    0  501  502  0.00000000000E+00  0.00000000000E+00  0.39490197898E+03  0.39490197898E+03  0.00000000000E+00 0.  1.
         21   -1    0    0  502  503 -0.00000000000E+00 -0.00000000000E+00 -0.78411418796E+02  0.78411418796E+02  0.00000000000E+00 0. -1.
         24    1    1    2    0    0 -0.16385291930E+02 -0.88012187987E+01  0.12905616988E+03  0.15319481121E+03  0.80419002446E+02 0.  1.
          1    1    1    2  501    0 -0.16949040471E+02  0.22763611028E+02  0.24798440789E+03  0.24960312200E+03  0.00000000000E+00 0. -1.
         -2    1    1    2    0  503  0.33334332402E+02 -0.13962392229E+02 -0.60550017579E+02  0.70515464561E+02  0.00000000000E+00 0.  1.
<mgrwt>
<rscale>  2 0.73531346E+02</rscale>
<asrwt>0</asrwt>
<pdfrwt beam="1">  1       21 0.60754149E-01 0.73531346E+02</pdfrwt>
<pdfrwt beam="2">  1       21 0.12063295E-01 0.73531346E+02</pdfrwt>
<totfact> 0.15299189E+05</totfact>
</mgrwt>
</event>
<event>
 5    1  0.1708429E+000  0.8809767E+02  0.7546771E-02  0.1307525E+00
         21   -1    0    0  501  502  0.00000000000E+00  0.00000000000E+00  0.64530366114E+03  0.64530366114E+03  0.00000000000E+00 0. -1.
         21   -1    0    0  502  503 -0.00000000000E+00 -0.00000000000E+00 -0.17000074225E+02  0.17000074225E+02  0.00000000000E+00 0.  1.
         24    1    1    2    0    0 -0.66828828845E+01  0.19862541251E+02  0.21953469295E+03  0.23473789390E+03  0.80419002446E+02 0.  1.
          1    1    1    2  501    0 -0.26216363898E+02  0.25818767914E+02  0.32225332403E+03  0.32434720804E+03  0.00000000000E+00 0. -1.
         -2    1    1    2    0  503  0.32899246782E+02 -0.45681309166E+02  0.86515569931E+02  0.10321863343E+03  0.00000000000E+00 0.  1.
<mgrwt>
<rscale>  2 0.88097672E+02</rscale>
<asrwt>0</asrwt>
<pdfrwt beam="1">  1       21 0.99277467E-01 0.88097672E+02</pdfrwt>
<pdfrwt beam="2">  1       21 0.26153965E-02 0.88097672E+02</pdfrwt>
<totfact> 0.67067062E+05</totfact>
</mgrwt>
</event>
<event>
 5    1  0.1708429E+000  0.7583480E+02  0.7546771E-02  0.1341305E+00
         21   -1    0    0  501  502  0.00000000000E+00  0.00000000000E+00  0.41886815543E+03  0.41886815543E+03  0.00000000000E+00 0.  1.
         21   -1    0    0  502  503 -0.00000000000E+00 -0.00000000000E+00 -0.22492060028E+02  0.22492060028E+02  0.00000000000E+00 0.  1.
         24    1    1    2    0    0  0.16328891185E+02  0.20667839425E+02  0.33950102784E+03  0.34988849099E+03  0.80419002446E+02 0.  1.
          1    1    1    2  501    0 -0.23694531407E+02  0.16681835052E+02  0.41042953299E+02  0.50241799877E+02  0.00000000000E+00 0. -1.
         -2    1    1    2    0  503  0.73656402229E+01 -0.37349674477E+02  0.15832114267E+02  0.41229924588E+02  0.00000000000E+00 0.  1.
<mgrwt>
<rscale>  2 0.75834797E+02</rscale>
<asrwt>0</asrwt>
<pdfrwt beam="1">  1       21 0.64441249E-01 0.75834797E+02</pdfrwt>
<pdfrwt beam="2">  1       21 0.34603172E-02 0.75834797E+02</pdfrwt>
<totfact> 0.11027000E+06</totfact>
</mgrwt>
</event>
<event>
 5    1  0.1708429E+000  0.8593525E+02  0.7546771E-02  0.1313005E+00
         21   -1    0    0  503  502  0.00000000000E+00  0.00000000000E+00  0.17482814732E+04  0.17482814732E+04  0.00000000000E+00 0.  1.
         21   -1    0    0  501  503 -0.00000000000E+00 -0.00000000000E+00 -0.88257960458E+01  0.88257960458E+01  0.00000000000E+00 0. -1.
         24    1    1    2    0    0 -0.22095133409E+01 -0.13247730265E+02  0.90952320663E+03  0.91317033661E+03  0.80419002446E+02 0.  0.
          1    1    1    2  501    0 -0.37515678369E+02  0.29188908965E+02  0.82002141925E+02  0.94782750595E+02  0.00000000000E+00 0. -1.
         -2    1    1    2    0  502  0.39725191710E+02 -0.15941178700E+02  0.74793032858E+03  0.74915418202E+03  0.00000000000E+00 0.  1.
<mgrwt>
<rscale>  2 0.85935252E+02</rscale>
<asrwt>0</asrwt>
<pdfrwt beam="1">  1       21 0.26896610E+00 0.85935252E+02</pdfrwt>
<pdfrwt beam="2">  1       21 0.13578162E-02 0.85935252E+02</pdfrwt>
<totfact> 0.13101595E+05</totfact>
</mgrwt>
</event>
<event>
 5    1  0.1708429E+000  0.9356262E+02  0.7546771E-02  0.1294447E+00
         21   -1    0    0  503  502  0.00000000000E+00  0.00000000000E+00  0.69590827096E+03  0.69590827096E+03  0.00000000000E+00 0.  1.
         21   -1    0    0  501  503 -0.00000000000E+00 -0.00000000000E+00 -0.16517466749E+02  0.16517466749E+02  0.00000000000E+00 0. -1.
         24    1    1    2    0    0 -0.29513048521E+02 -0.59953200563E+02  0.23102973980E+03  0.25358896450E+03  0.80419002446E+02 0. -1.
          1    1    1    2  501    0 -0.11880684708E+02  0.27534668270E+02  0.61529577060E+02  0.68448502387E+02  0.00000000000E+00 0. -1.
         -2    1    1    2    0  502  0.41393733229E+02  0.32418532292E+02  0.38683148735E+03  0.39038827082E+03  0.00000000000E+00 0.  1.
<mgrwt>
<rscale>  2 0.93562620E+02</rscale>
<asrwt>0</asrwt>
<pdfrwt beam="1">  1       21 0.10706279E+00 0.93562620E+02</pdfrwt>
<pdfrwt beam="2">  1       21 0.25411493E-02 0.93562620E+02</pdfrwt>
<totfact> 0.58898195E+05</totfact>
</mgrwt>
</event>
<event>
 5    1  0.1708429E+000  0.6989384E+02  0.7546771E-02  0.1360454E+00
         21   -1    0    0  501  502  0.00000000000E+00  0.00000000000E+00  0.95445587951E+02  0.95445587951E+02  0.00000000000E+00 0. -1.
         21   -1    0    0  502  503 -0.00000000000E+00 -0.00000000000E+00 -0.30635104735E+03  0.30635104735E+03  0.00000000000E+00 0. -1.
         24    1    1    2    0    0 -0.27708907198E+01  0.20138985603E+02 -0.40413138065E+02  0.92269682231E+02  0.80419002446E+02 0.  1.
          1    1    1    2  501    0 -0.21279830304E+02  0.51973368003E+01  0.66478763063E+02  0.69994781419E+02  0.00000000000E+00 0. -1.
         -2    1    1    2    0  503  0.24050721024E+02 -0.25336322403E+02 -0.23697108439E+03  0.23953217165E+03  0.00000000000E+00 0.  1.
<mgrwt>
<rscale>  2 0.69893844E+02</rscale>
<asrwt>0</asrwt>
<pdfrwt beam="1">  1       21 0.14683937E-01 0.69893844E+02</pdfrwt>
<pdfrwt beam="2">  1       21 0.47130930E-01 0.69893844E+02</pdfrwt>
<totfact> 0.18247802E+05</totfact>
</mgrwt>
</event>
<event>
 5    1  0.1708429E+000  0.1272614E+03  0.7546771E-02  0.1231577E+00
         21   -1    0    0  501  502  0.00000000000E+00  0.00000000000E+00  0.87019306241E+02  0.87019306241E+02  0.00000000000E+00 0. -1.
         21   -1    0    0  502  503 -0.00000000000E+00 -0.00000000000E+00 -0.69528696447E+03  0.69528696447E+03  0.00000000000E+00 0.  1.
         24    1    1    2    0    0 -0.63618245930E+02 -0.38365787805E+02 -0.14787865268E+03  0.18399599659E+03  0.80419002446E+02 0. -1.
          1    1    1    2  501    0  0.10005472193E+03  0.41814808180E+02  0.25211051271E+02  0.11133293614E+03  0.00000000000E+00 0. -1.
         -2    1    1    2    0  503 -0.36436475996E+02 -0.34490203754E+01 -0.48560005682E+03  0.48697733798E+03  0.00000000000E+00 0.  1.
<mgrwt>
<rscale>  2 0.12726140E+03</rscale>
<asrwt>0</asrwt>
<pdfrwt beam="1">  1       21 0.13387586E-01 0.12726140E+03</pdfrwt>
<pdfrwt beam="2">  1       21 0.10696722E+00 0.12726140E+03</pdfrwt>
<totfact> 0.35027545E+04</totfact>
</mgrwt>
</event>
<event>
 5    1  0.1708429E+000  0.1289073E+03  0.7546771E-02  0.1229086E+00
         21   -1    0    0  501  502  0.00000000000E+00  0.00000000000E+00  0.85336671634E+03  0.85336671634E+03  0.00000000000E+00 0.  1.
         21   -1    0    0  502  503 -0.00000000000E+00 -0.00000000000E+00 -0.22371748841E+02  0.22371748841E+02  0.00000000000E+00 0.  1.
         24    1    1    2    0    0  0.11167532970E+03  0.13764596522E+02  0.41850883470E+03  0.44076944547E+03  0.80419002446E+02 0.  1.
          1    1    1    2  501    0 -0.81028274218E+02 -0.27985147927E+02  0.37426051509E+03  0.38395270917E+03  0.00000000000E+00 0. -1.
         -2    1    1    2    0  503 -0.30647055481E+02  0.14220551405E+02  0.38225617711E+02  0.51016310542E+02  0.00000000000E+00 0.  1.
<mgrwt>
<rscale>  2 0.12890733E+03</rscale>
<asrwt>0</asrwt>
<pdfrwt beam="1">  1       21 0.13128716E+00 0.12890733E+03</pdfrwt>
<pdfrwt beam="2">  1       21 0.34418082E-02 0.12890733E+03</pdfrwt>
<totfact> 0.21721730E+05</totfact>
</mgrwt>
</event>
<event>
 5    1  0.1708429E+000  0.8078115E+02  0.7546771E-02  0.1326849E+00
         21   -1    0    0  503  502  0.00000000000E+00  0.00000000000E+00  0.58528627307E+03  0.58528627307E+03  0.00000000000E+00 0.  1.
         21   -1    0    0  501  503 -0.00000000000E+00 -0.00000000000E+00 -0.11490653938E+02  0.11490653938E+02  0.00000000000E+00 0. -1.
         24    1    1    2    0    0 -0.89470858414E+01 -0.15214046230E+02  0.33276282108E+03  0.34279706620E+03  0.80419002446E+02 0.  0.
          1    1    1    2  501    0 -0.34195976285E+02  0.26724793051E+01  0.86639081201E+02  0.93181743551E+02  0.00000000000E+00 0. -1.
         -2    1    1    2    0  502  0.43143062127E+02  0.12541566925E+02  0.15439371685E+03  0.16079811726E+03  0.00000000000E+00 0.  1.
<mgrwt>
<rscale>  2 0.80781154E+02</rscale>
<asrwt>0</asrwt>
<pdfrwt beam="1">  1       21 0.90044019E-01 0.80781154E+02</pdfrwt>
<pdfrwt beam="2">  1       21 0.17677934E-02 0.80781154E+02</pdfrwt>
<totfact> 0.15669067E+06</totfact>
</mgrwt>
</event>
<event>
 5    1  0.1708429E+000  0.1094387E+03  0.7546771E-02  0.1261613E+00
         21   -1    0    0  501  502  0.00000000000E+00  0.00000000000E+00  0.12251658088E+03  0.12251658088E+03  0.00000000000E+00 0. -1.
         21   -1    0    0  502  503 -0.00000000000E+00 -0.00000000000E+00 -0.17684900623E+03  0.17684900623E+03  0.00000000000E+00 0.  1.
         24    1    1    2    0    0 -0.83306036074E+02 -0.42753965823E+02  0.35906662499E+02  0.12854688486E+03  0.80419002446E+02 0.  1.
          1    1    1    2  501    0  0.62033699111E+02  0.22254048044E+02  0.96908901637E+01  0.66613330737E+02  0.00000000000E+00 0. -1.
         -2    1    1    2    0  503  0.21272336964E+02  0.20499917779E+02 -0.99929978012E+02  0.10420537152E+03  0.00000000000E+00 0.  1.
<mgrwt>
<rscale>  2 0.10943867E+03</rscale>
<asrwt>0</asrwt>
<pdfrwt beam="1">  1       21 0.18848705E-01 0.10943867E+03</pdfrwt>
<pdfrwt beam="2">  1       21 0.27207539E-01 0.10943867E+03</pdfrwt>
<totfact> 0.33702315E+05</totfact>
</mgrwt>
</event>
<event>
 5    1  0.1708429E+000  0.8105888E+02  0.7546771E-02  0.1326073E+00
         21   -1    0    0  501  502  0.00000000000E+00  0.00000000000E+00  0.56634722724E+02  0.56634722724E+02  0.00000000000E+00 0. -1.
         21   -1    0    0  502  503 -0.00000000000E+00 -0.00000000000E+00 -0.17155179955E+03  0.17155179955E+03  0.00000000000E+00 0.  1.
         24    1    1    2    0    0 -0.14816791829E+02  0.26834196213E+02 -0.99874508896E+02  0.13183984560E+03  0.80419002446E+02 0.  1.
          1    1    1    2  501    0  0.26054051464E+02  0.16797356432E+02  0.22005038256E+02  0.38015608498E+02  0.00000000000E+00 0. -1.
         -2    1    1    2    0  503 -0.11237259635E+02 -0.43631552645E+02 -0.37047606186E+02  0.58331068175E+02  0.00000000000E+00 0.  1.
<mgrwt>
<rscale>  2 0.81058876E+02</rscale>
<asrwt>0</asrwt>
<pdfrwt beam="1">  1       21 0.87130343E-02 0.81058876E+02</pdfrwt>
<pdfrwt beam="2">  1       21 0.26392585E-01 0.81058876E+02</pdfrwt>
<totfact> 0.13925585E+06</totfact>
</mgrwt>
</event>
<event>
 5    1  0.1708429E+000  0.6999021E+02  0.7546771E-02  0.1360126E+00
         21   -1    0    0  501  502  0.00000000000E+00  0.00000000000E+00  0.10369339923E+02  0.10369339923E+02  0.00000000000E+00 0.  1.
         21   -1    0    0  502  503 -0.00000000000E+00 -0.00000000000E+00 -0.85368308224E+03  0.85368308224E+03  0.00000000000E+00 0.  1.
         24    1    1    2    0    0  0.42646942377E+02  0.65724126452E+01 -0.22303637183E+03  0.24098630130E+03  0.80419002446E+02 0.  1.
          1    1    1    2  501    0 -0.24154431412E+02  0.77047751649E+01 -0.14391495860E+03  0.14613115830E+03  0.00000000000E+00 0. -1.
         -2    1    1    2    0  503 -0.18492510965E+02 -0.14277187810E+02 -0.47636241189E+03  0.47693496257E+03  0.00000000000E+00 0.  1.
<mgrwt>
<rscale>  2 0.69990206E+02</rscale>
<asrwt>0</asrwt>
<pdfrwt beam="1">  1       21 0.15952829E-02 0.69990206E+02</pdfrwt>
<pdfrwt beam="2">  1       21 0.13133588E+00 0.69990206E+02</pdfrwt>
<totfact> 0.76062430E+05</totfact>
</mgrwt>
</event>
<event>
 5    1  0.1708429E+000  0.6932177E+02  0.7546771E-02  0.1362415E+00
         21   -1    0    0  503  502  0.00000000000E+00  0.00000000000E+00  0.23208877011E+02  0.23208877011E+02  0.00000000000E+00 0. -1.
         21   -1    0    0  501  503 -0.00000000000E+00 -0.00000000000E+00 -0.59269265767E+03  0.59269265767E+03  0.00000000000E+00 0. -1.
         24    1    1    2    0    0  0.15786772692E+02 -0.17457526706E+02 -0.12596888488E+03  0.15129231092E+03  0.80419002446E+02 0. -1.
          1    1    1    2  501    0 -0.16010612670E+02 -0.15268635044E+02 -0.42768152388E+03  0.42825337921E+03  0.00000000000E+00 0. -1.
         -2    1    1    2    0  502  0.22383997763E+00  0.32726161750E+02 -0.15833371888E+02  0.36355844545E+02  0.00000000000E+00 0.  1.
<mgrwt>
<rscale>  2 0.69321769E+02</rscale>
<asrwt>0</asrwt>
<pdfrwt beam="1">  1       21 0.35705964E-02 0.69321769E+02</pdfrwt>
<pdfrwt beam="2">  1       21 0.91183488E-01 0.69321769E+02</pdfrwt>
<totfact> 0.49148397E+05</totfact>
</mgrwt>
</event>
<event>
 5    1  0.1708429E+000  0.1051093E+03  0.7546771E-02  0.1269904E+00
         21   -1    0    0  501  502  0.00000000000E+00  0.00000000000E+00  0.70269275542E+03  0.70269275542E+03  0.00000000000E+00 0.  1.
         21   -1    0    0  502  503 -0.00000000000E+00 -0.00000000000E+00 -0.28478125365E+02  0.28478125365E+02  0.00000000000E+00 0. -1.
         24    1    1    2    0    0  0.63874376216E+02 -0.35236949544E+02  0.58303183716E+03  0.59305557720E+03  0.80419002446E+02 0.  1.
          1    1    1    2  501    0 -0.70100427096E+02  0.44600946824E+01  0.75122202109E+02  0.10284603820E+03  0.00000000000E+00 0. -1.
         -2    1    1    2    0  503  0.62260508800E+01  0.30776854862E+02  0.16060590791E+02  0.35269265392E+02  0.00000000000E+00 0.  1.
<mgrwt>
<rscale>  2 0.10510934E+03</rscale>
<asrwt>0</asrwt>
<pdfrwt beam="1">  1       21 0.10810656E+00 0.10510934E+03</pdfrwt>
<pdfrwt beam="2">  1       21 0.43812506E-02 0.10510934E+03</pdfrwt>
<totfact> 0.23535987E+05</totfact>
</mgrwt>
</event>
<event>
 5    1  0.1708429E+000  0.7946918E+02  0.7546771E-02  0.1330565E+00
         21   -1    0    0  501  502  0.00000000000E+00  0.00000000000E+00  0.63406729005E+02  0.63406729005E+02  0.00000000000E+00 0. -1.
         21   -1    0    0  502  503 -0.00000000000E+00 -0.00000000000E+00 -0.29324064942E+03  0.29324064942E+03  0.00000000000E+00 0.  1.
         24    1    1    2    0    0  0.10541899818E+02  0.46325960451E+02 -0.15441790654E+03  0.18046975392E+03  0.80419002446E+02 0. -1.
          1    1    1    2  501    0 -0.27799968811E+02 -0.20795387326E+02  0.42168997170E+02  0.54621522518E+02  0.00000000000E+00 0. -1.
         -2    1    1    2    0  503  0.17258068993E+02 -0.25530573125E+02 -0.11758501104E+03  0.12155610199E+03  0.00000000000E+00 0.  1.
<mgrwt>
<rscale>  2 0.79469184E+02</rscale>
<asrwt>0</asrwt>
<pdfrwt beam="1">  1       21 0.97548814E-02 0.79469184E+02</pdfrwt>
<pdfrwt beam="2">  1       21 0.45113946E-01 0.79469184E+02</pdfrwt>
<totfact> 0.40602164E+05</totfact>
</mgrwt>
</event>
<event>
 5    1  0.1708429E+000  0.8887208E+02  0.7546771E-02  0.1305606E+00
         21   -1    0    0  501  502  0.00000000000E+00  0.00000000000E+00  0.10278966256E+03  0.10278966256E+03  0.00000000000E+00 0.  1.
         21   -1    0    0  502  503 -0.00000000000E+00 -0.00000000000E+00 -0.28528755511E+03  0.28528755511E+03  0.00000000000E+00 0.  1.
         24    1    1    2    0    0  0.49257262235E+02  0.29316392812E+02  0.25739608897E+02  0.10205622074E+03  0.80419002446E+02 0.  1.
          1    1    1    2  501    0 -0.55133539300E+02 -0.66048747317E+01  0.18151891583E+02  0.58419369168E+02  0.00000000000E+00 0. -1.
         -2    1    1    2    0  503  0.58762770654E+01 -0.22711518080E+02 -0.22638939303E+03  0.22760162776E+03  0.00000000000E+00 0.  1.
<mgrwt>
<rscale>  2 0.88872079E+02</rscale>
<asrwt>0</asrwt>
<pdfrwt beam="1">  1       21 0.15813794E-01 0.88872079E+02</pdfrwt>
<pdfrwt beam="2">  1       21 0.43890394E-01 0.88872079E+02</pdfrwt>
<totfact> 0.18329137E+05</totfact>
</mgrwt>
</event>
<event>
 5    1  0.1708429E+000  0.6947809E+02  0.7546771E-02  0.1361877E+00
         21   -1    0    0  501  502  0.00000000000E+00  0.00000000000E+00  0.58997707630E+02  0.58997707630E+02  0.00000000000E+00 0.  1.
         21   -1    0    0  502  503 -0.00000000000E+00 -0.00000000000E+00 -0.15959134018E+03  0.15959134018E+03  0.00000000000E+00 0. -1.
         24    1    1    2    0    0  0.17992282808E+02 -0.35167683898E+01 -0.11614082140E+03  0.14244997806E+03  0.80419002446E+02 0. -1.
          1    1    1    2  501    0  0.84432306848E+01  0.22431957691E+02  0.31780325387E+02  0.39805401040E+02  0.00000000000E+00 0. -1.
         -2    1    1    2    0  503 -0.26435513493E+02 -0.18915189301E+02 -0.16233136541E+02  0.36333668709E+02  0.00000000000E+00 0.  1.
<mgrwt>
<rscale>  2 0.69478094E+02</rscale>
<asrwt>0</asrwt>
<pdfrwt beam="1">  1       21 0.90765704E-02 0.69478094E+02</pdfrwt>
<pdfrwt beam="2">  1       21 0.24552514E-01 0.69478094E+02</pdfrwt>
<totfact> 0.14775019E+06</totfact>
</mgrwt>
</event>
<event>
 5    1  0.1708429E+000  0.9017877E+02  0.7546771E-02  0.1302419E+00
         21   -1    0    0  503  502  0.00000000000E+00  0.00000000000E+00  0.46594356569E+03  0.46594356569E+03  0.00000000000E+00 0. -1.
         21   -1    0    0  501  503 -0.00000000000E+00 -0.00000000000E+00 -0.19683954710E+02  0.19683954710E+02  0.00000000000E+00 0.  1.
         24    1    1    2    0    0 -0.65082713350E+02 -0.98598932065E+01  0.30906020968E+03  0.32606503375E+03  0.80419002446E+02 0. -1.
          1    1    1    2  501    0  0.15513300195E+02 -0.14470845615E+02  0.16650737354E+02  0.26968776579E+02  0.00000000000E+00 0. -1.
         -2    1    1    2    0  502  0.49569413155E+02  0.24330738821E+02  0.12054866394E+03  0.13259371007E+03  0.00000000000E+00 0.  1.
<mgrwt>
<rscale>  2 0.90178770E+02</rscale>
<asrwt>0</asrwt>
<pdfrwt beam="1">  1       21 0.71683617E-01 0.90178770E+02</pdfrwt>
<pdfrwt beam="2">  1       21 0.30283011E-02 0.90178770E+02</pdfrwt>
<totfact> 0.10942905E+06</totfact>
</mgrwt>
</event>
<event>
 5    1  0.1708429E+000  0.6373268E+02  0.7546771E-02  0.1382803E+00
         21   -1    0    0  503  502  0.00000000000E+00  0.00000000000E+00  0.38341197600E+03  0.38341197600E+03  0.00000000000E+00 0. -1.
         21   -1    0    0  501  503 -0.00000000000E+00 -0.00000000000E+00 -0.29591764303E+02  0.29591764303E+02  0.00000000000E+00 0. -1.
         24    1    1    2    0    0  0.56613569972E+01  0.10752439402E+02  0.19000927074E+03  0.20668431202E+03  0.80419002446E+02 0. -1.
          1    1    1    2  501    0 -0.19125048200E+02  0.98571504206E+01 -0.14739224526E+02  0.26080176815E+02  0.00000000000E+00 0. -1.
         -2    1    1    2    0  502  0.13463691203E+02 -0.20609589823E+02  0.17855016548E+03  0.18023925146E+03  0.00000000000E+00 0.  1.
<mgrwt>
<rscale>  2 0.63732676E+02</rscale>
<asrwt>0</asrwt>
<pdfrwt beam="1">  1       21 0.58986454E-01 0.63732676E+02</pdfrwt>
<pdfrwt beam="2">  1       21 0.45525794E-02 0.63732676E+02</pdfrwt>
<totfact> 0.84418398E+05</totfact>
</mgrwt>
</event>
<event>
 5    1  0.1708429E+000  0.9432544E+02  0.7546771E-02  0.1292703E+00
         21   -1    0    0  503  502  0.00000000000E+00  0.00000000000E+00  0.20220019679E+04  0.20220019679E+04  0.00000000000E+00 0. -1.
         21   -1    0    0  501  503 -0.00000000000E+00 -0.00000000000E+00 -0.73165574096E+01  0.73165574096E+01  0.00000000000E+00 0. -1.
         24    1    1    2    0    0  0.34530993246E+02 -0.14792624276E+02  0.14914637510E+04  0.14941025895E+04  0.80419002446E+02 0. -1.
          1    1    1    2  501    0 -0.60549923659E+02 -0.12882172820E+02  0.18986719636E+03  0.19970427108E+03  0.00000000000E+00 0. -1.
         -2    1    1    2    0  502  0.26018930413E+02  0.27674797096E+02  0.33335446306E+03  0.33551166474E+03  0.00000000000E+00 0.  1.
<mgrwt>
<rscale>  2 0.94325436E+02</rscale>
<asrwt>0</asrwt>
<pdfrwt beam="1">  1       21 0.31107678E+00 0.94325436E+02</pdfrwt>
<pdfrwt beam="2">  1       21 0.11256258E-02 0.94325436E+02</pdfrwt>
<totfact> 0.10208889E+05</totfact>
</mgrwt>
</event>
<event>
 5    1  0.1708429E+000  0.1081515E+03  0.7546771E-02  0.1264032E+00
         21   -1    0    0  501  502  0.00000000000E+00  0.00000000000E+00  0.10618055132E+04  0.10618055132E+04  0.00000000000E+00 0. -1.
         21   -1    0    0  502  503 -0.00000000000E+00 -0.00000000000E+00 -0.36380561523E+03  0.36380561523E+03  0.00000000000E+00 0. -1.
         24    1    1    2    0    0 -0.43880149564E+02 -0.82206724782E+02 -0.20743852715E+03  0.24120815000E+03  0.80419002446E+02 0. -1.
          1    1    1    2  501    0  0.13315332956E+02  0.22675918922E+02  0.10367180390E+04  0.10370514875E+04  0.00000000000E+00 0. -1.
         -2    1    1    2    0  503  0.30564816608E+02  0.59530805859E+02 -0.13127961387E+03  0.14735149093E+03  0.00000000000E+00 0.  1.
<mgrwt>
<rscale>  2 0.10815149E+03</rscale>
<asrwt>0</asrwt>
<pdfrwt beam="1">  1       21 0.16335469E+00 0.10815149E+03</pdfrwt>
<pdfrwt beam="2">  1       21 0.55970095E-01 0.10815149E+03</pdfrwt>
<totfact> 0.80503366E+02</totfact>
</mgrwt>
</event>
<event>
 5    1  0.1708429E+000  0.9793682E+02  0.7546771E-02  0.1284695E+00
         21   -1    0    0  501  502  0.00000000000E+00  0.00000000000E+00  0.15778154500E+02  0.15778154500E+02  0.00000000000E+00 0.  1.
         21   -1    0    0  502  503 -0.00000000000E+00 -0.00000000000E+00 -0.81990079237E+03  0.81990079237E+03  0.00000000000E+00 0. -1.
         24    1    1    2    0    0  0.76468110256E+02  0.17320703274E+02 -0.65272772591E+03  0.66232022374E+03  0.80419002446E+02 0.  0.
          1    1    1    2  501    0 -0.61876887469E+02 -0.13015245960E+01 -0.10028569436E+03  0.11784593189E+03  0.00000000000E+00 0. -1.
         -2    1    1    2    0  503 -0.14591222787E+02 -0.16019178678E+02 -0.51109217603E+02  0.55512791246E+02  0.00000000000E+00 0.  1.
<mgrwt>
<rscale>  2 0.97936824E+02</rscale>
<asrwt>0</asrwt>
<pdfrwt beam="1">  1       21 0.24274091E-02 0.97936824E+02</pdfrwt>
<pdfrwt beam="2">  1       21 0.12613855E+00 0.97936824E+02</pdfrwt>
<totfact> 0.42799607E+05</totfact>
</mgrwt>
</event>
<event>
 5    1  0.1708429E+000  0.8953160E+02  0.7546771E-02  0.1303990E+00
         21   -1    0    0  501  502  0.00000000000E+00  0.00000000000E+00  0.10178379400E+03  0.10178379400E+03  0.00000000000E+00 0. -1.
         21   -1    0    0  502  503 -0.00000000000E+00 -0.00000000000E+00 -0.90039308380E+02  0.90039308380E+02  0.00000000000E+00 0. -1.
         24    1    1    2    0    0  0.28710533320E+02  0.48171948397E+02  0.24514091698E+02  0.10105932902E+03  0.80419002446E+02 0. -1.
          1    1    1    2  501    0 -0.38856915364E+01 -0.55109360735E+02  0.10268963447E+02  0.56192453671E+02  0.00000000000E+00 0. -1.
         -2    1    1    2    0  503 -0.24824841783E+02  0.69374123376E+01 -0.23038569522E+02  0.34571319690E+02  0.00000000000E+00 0.  1.
<mgrwt>
<rscale>  2 0.89531597E+02</rscale>
<asrwt>0</asrwt>
<pdfrwt beam="1">  1       21 0.15659045E-01 0.89531597E+02</pdfrwt>
<pdfrwt beam="2">  1       21 0.13852201E-01 0.89531597E+02</pdfrwt>
<totfact> 0.16210652E+06</totfact>
</mgrwt>
</event>
<event>
 5    1  0.1708429E+000  0.6837518E+02  0.7546771E-02  0.1365707E+00
         21   -1    0    0  501  502  0.00000000000E+00  0.00000000000E+00  0.13420008994E+02  0.13420008994E+02  0.00000000000E+00 0.  1.
         21   -1    0    0  502  503 -0.00000000000E+00 -0.00000000000E+00 -0.37184294064E+03  0.37184294064E+03  0.00000000000E+00 0.  1.
         24    1    1    2    0    0  0.42473802281E+02 -0.97470079368E+01 -0.23702496557E+03  0.25406117039E+03  0.80419002446E+02 0.  1.
          1    1    1    2  501    0 -0.21424849490E+02  0.11215875305E+02 -0.36968820854E+02  0.44175940849E+02  0.00000000000E+00 0. -1.
         -2    1    1    2    0  503 -0.21048952791E+02 -0.14688673680E+01 -0.84429145224E+02  0.87025838394E+02  0.00000000000E+00 0.  1.
<mgrwt>
<rscale>  2 0.68375184E+02</rscale>
<asrwt>0</asrwt>
<pdfrwt beam="1">  1       21 0.20646171E-02 0.68375184E+02</pdfrwt>
<pdfrwt beam="2">  1       21 0.57206598E-01 0.68375184E+02</pdfrwt>
<totfact> 0.32320528E+06</totfact>
</mgrwt>
</event>
<event>
 5    1  0.1708429E+000  0.9064459E+02  0.7546771E-02  0.1301298E+00
         21   -1    0    0  503  502  0.00000000000E+00  0.00000000000E+00  0.12540776940E+03  0.12540776940E+03  0.00000000000E+00 0. -1.
         21   -1    0    0  501  503 -0.00000000000E+00 -0.00000000000E+00 -0.78351439277E+02  0.78351439277E+02  0.00000000000E+00 0.  1.
         24    1    1    2    0    0  0.12689768943E+02 -0.34113664990E+02 -0.98196846372E-01  0.88272294475E+02  0.80419002446E+02 0.  0.
          1    1    1    2  501    0 -0.45083051686E+02 -0.11965563384E+01 -0.41447224149E+01  0.45288983432E+02  0.00000000000E+00 0. -1.
         -2    1    1    2    0  502  0.32393282743E+02  0.35310221329E+02  0.51299249388E+02  0.70197930774E+02  0.00000000000E+00 0.  1.
<mgrwt>
<rscale>  2 0.90644593E+02</rscale>
<asrwt>0</asrwt>
<pdfrwt beam="1">  1       21 0.19293503E-01 0.90644593E+02</pdfrwt>
<pdfrwt beam="2">  1       21 0.12054068E-01 0.90644593E+02</pdfrwt>
<totfact> 0.14213640E+06</totfact>
</mgrwt>
</event>
<event>
 5    1  0.1708429E+000  0.1455677E+03  0.7546771E-02  0.1206028E+00
         21   -1    0    0  503  502  0.00000000000E+00  0.00000000000E+00  0.45511958486E+03  0.45511958486E+03  0.00000000000E+00 0.  1.
         21   -1    0    0  501  503 -0.00000000000E+00 -0.00000000000E+00 -0.68670846189E+02  0.68670846189E+02  0.00000000000E+00 0.  1.
         24    1    1    2    0    0 -0.33256570230E+01  0.13295016346E+03  0.60516304308E+02  0.16678202841E+03  0.80419002446E+02 0.  1.
          1    1    1    2  501    0 -0.11369375765E+02 -0.38859168454E+02  0.45795767576E+02  0.61127326181E+02  0.00000000000E+00 0. -1.
         -2    1    1    2    0  502  0.14695032788E+02 -0.94090995003E+02  0.28013666679E+03  0.29588107646E+03  0.00000000000E+00 0.  1.
<mgrwt>
<rscale>  2 0.14556775E+03</rscale>
<asrwt>0</asrwt>
<pdfrwt beam="1">  1       21 0.70018396E-01 0.14556775E+03</pdfrwt>
<pdfrwt beam="2">  1       21 0.10564746E-01 0.14556775E+03</pdfrwt>
<totfact> 0.13860060E+05</totfact>
</mgrwt>
</event>
<event>
 5    1  0.1708429E+000  0.9517009E+02  0.7546771E-02  0.1290793E+00
         21   -1    0    0  501  502  0.00000000000E+00  0.00000000000E+00  0.59323479534E+03  0.59323479534E+03  0.00000000000E+00 0. -1.
         21   -1    0    0  502  503 -0.00000000000E+00 -0.00000000000E+00 -0.21553638830E+02  0.21553638830E+02  0.00000000000E+00 0. -1.
         24    1    1    2    0    0 -0.41697506832E+02  0.30579121236E+02  0.15740490168E+03  0.18416645666E+03  0.80419002446E+02 0. -1.
          1    1    1    2  501    0  0.48558567078E+02 -0.52647195026E+02  0.39211827669E+03  0.39860557509E+03  0.00000000000E+00 0. -1.
         -2    1    1    2    0  503 -0.68610602462E+01  0.22068073790E+02  0.22157978144E+02  0.32016402421E+02  0.00000000000E+00 0.  1.
<mgrwt>
<rscale>  2 0.95170087E+02</rscale>
<asrwt>0</asrwt>
<pdfrwt beam="1">  1       21 0.91266879E-01 0.95170087E+02</pdfrwt>
<pdfrwt beam="2">  1       21 0.33159449E-02 0.95170087E+02</pdfrwt>
<totfact> 0.55263776E+05</totfact>
</mgrwt>
</event>
<event>
 5    1  0.1708429E+000  0.6881725E+02  0.7546771E-02  0.1364162E+00
         21   -1    0    0  503  502  0.00000000000E+00  0.00000000000E+00  0.51978593718E+03  0.51978593718E+03  0.00000000000E+00 0. -1.
         21   -1    0    0  501  503 -0.00000000000E+00 -0.00000000000E+00 -0.14797016237E+02  0.14797016237E+02  0.00000000000E+00 0.  1.
         24    1    1    2    0    0 -0.36076445214E+02  0.96696752101E+01  0.19806064894E+03  0.21700287816E+03  0.80419002446E+02 0.  1.
          1    1    1    2  501    0  0.27034537497E+02  0.87754787118E+01  0.35971125862E+02  0.45845361162E+02  0.00000000000E+00 0. -1.
         -2    1    1    2    0  502  0.90419077169E+01 -0.18445153922E+02  0.27095714615E+03  0.27173471410E+03  0.00000000000E+00 0.  1.
<mgrwt>
<rscale>  2 0.68817251E+02</rscale>
<asrwt>0</asrwt>
<pdfrwt beam="1">  1       21 0.79967053E-01 0.68817251E+02</pdfrwt>
<pdfrwt beam="2">  1       21 0.22764644E-02 0.68817251E+02</pdfrwt>
<totfact> 0.13573954E+06</totfact>
</mgrwt>
</event>
<event>
 5    1  0.1708429E+000  0.1188879E+03  0.7546771E-02  0.1244943E+00
         21   -1    0    0  503  502  0.00000000000E+00  0.00000000000E+00  0.12034427737E+03  0.12034427737E+03  0.00000000000E+00 0. -1.
         21   -1    0    0  501  503 -0.00000000000E+00 -0.00000000000E+00 -0.18629499171E+03  0.18629499171E+03  0.00000000000E+00 0.  1.
         24    1    1    2    0    0 -0.15113882871E+02 -0.44982643762E+02 -0.47760837694E+02  0.10488174897E+03  0.80419002446E+02 0.  1.
          1    1    1    2  501    0  0.50891739580E+02 -0.31577327205E+02 -0.77915691437E+02  0.98274878392E+02  0.00000000000E+00 0. -1.
         -2    1    1    2    0  502 -0.35777856709E+02  0.76559970967E+02  0.59725814787E+02  0.10348264172E+03  0.00000000000E+00 0.  1.
<mgrwt>
<rscale>  2 0.11888786E+03</rscale>
<asrwt>0</asrwt>
<pdfrwt beam="1">  1       21 0.18514504E-01 0.11888786E+03</pdfrwt>
<pdfrwt beam="2">  1       21 0.28660768E-01 0.11888786E+03</pdfrwt>
<totfact> 0.31483895E+05</totfact>
</mgrwt>
</event>
<event>
 5    1  0.1708429E+000  0.9738696E+02  0.7546771E-02  0.1285889E+00
         21   -1    0    0  501  502  0.00000000000E+00  0.00000000000E+00  0.32976647006E+03  0.32976647006E+03  0.00000000000E+00 0.  1.
         21   -1    0    0  502  503 -0.00000000000E+00 -0.00000000000E+00 -0.29155930018E+02  0.29155930018E+02  0.00000000000E+00 0.  1.
         24    1    1    2    0    0 -0.24400523736E+02 -0.27364805566E+02  0.15651933896E+03  0.17974909614E+03  0.80419002446E+02 0.  1.
          1    1    1    2  501    0  0.71549160988E+01 -0.38062749901E+02  0.56255150928E+02  0.68297933792E+02  0.00000000000E+00 0. -1.
         -2    1    1    2    0  503  0.17245607637E+02  0.65427555467E+02  0.87836050154E+02  0.11087537014E+03  0.00000000000E+00 0.  1.
<mgrwt>
<rscale>  2 0.97386964E+02</rscale>
<asrwt>0</asrwt>
<pdfrwt beam="1">  1       21 0.50733301E-01 0.97386964E+02</pdfrwt>
<pdfrwt beam="2">  1       21 0.44855279E-02 0.97386964E+02</pdfrwt>
<totfact> 0.11905617E+06</totfact>
</mgrwt>
</event>
<event>
 5    1  0.1708429E+000  0.1691757E+03  0.7546771E-02  0.1178710E+00
         21   -1    0    0  503  502  0.00000000000E+00  0.00000000000E+00  0.53053702375E+03  0.53053702375E+03  0.00000000000E+00 0.  1.
         21   -1    0    0  501  503 -0.00000000000E+00 -0.00000000000E+00 -0.18649560417E+03  0.18649560417E+03  0.00000000000E+00 0.  1.
         24    1    1    2    0    0 -0.26305734093E+01  0.13435382977E+03 -0.95893724956E+02  0.18363195237E+03  0.80419002446E+02 0.  1.
          1    1    1    2  501    0  0.24897013601E+02 -0.15156959683E+03  0.81540272711E+02  0.17390232903E+03  0.00000000000E+00 0. -1.
         -2    1    1    2    0  502 -0.22266440191E+02  0.17215767062E+02  0.35839487183E+03  0.35949834651E+03  0.00000000000E+00 0.  1.
<mgrwt>
<rscale>  2 0.16917565E+03</rscale>
<asrwt>0</asrwt>
<pdfrwt beam="1">  1       21 0.81621080E-01 0.16917565E+03</pdfrwt>
<pdfrwt beam="2">  1       21 0.28691632E-01 0.16917565E+03</pdfrwt>
<totfact> 0.15510997E+04</totfact>
</mgrwt>
</event>
<event>
 5    1  0.1708429E+000  0.8054251E+02  0.7546771E-02  0.1327519E+00
         21   -1    0    0  501  502  0.00000000000E+00  0.00000000000E+00  0.61900152646E+02  0.61900152646E+02  0.00000000000E+00 0.  1.
         21   -1    0    0  502  503 -0.00000000000E+00 -0.00000000000E+00 -0.16963314534E+03  0.16963314534E+03  0.00000000000E+00 0. -1.
         24    1    1    2    0    0 -0.46621796269E+02 -0.96577995311E+01 -0.34910585042E+02  0.99763870622E+02  0.80419002446E+02 0.  0.
          1    1    1    2  501    0  0.39393035084E+02 -0.14833194978E+02  0.11524168728E+02  0.43642196912E+02  0.00000000000E+00 0. -1.
         -2    1    1    2    0  503  0.72287611846E+01  0.24490994509E+02 -0.84346576375E+02  0.88127230449E+02  0.00000000000E+00 0.  1.
<mgrwt>
<rscale>  2 0.80542507E+02</rscale>
<asrwt>0</asrwt>
<pdfrwt beam="1">  1       21 0.95231004E-02 0.80542507E+02</pdfrwt>
<pdfrwt beam="2">  1       21 0.26097407E-01 0.80542507E+02</pdfrwt>
<totfact> 0.12206796E+06</totfact>
</mgrwt>
</event>
<event>
 5    1  0.1708429E+000  0.7858819E+02  0.7546771E-02  0.1333106E+00
         21   -1    0    0  503  502  0.00000000000E+00  0.00000000000E+00  0.15132048207E+03  0.15132048207E+03  0.00000000000E+00 0.  1.
         21   -1    0    0  501  503 -0.00000000000E+00 -0.00000000000E+00 -0.57324402180E+02  0.57324402180E+02  0.00000000000E+00 0.  1.
         24    1    1    2    0    0 -0.23379994245E+02 -0.52759289654E+02  0.95136872179E+01  0.99437885006E+02  0.80419002446E+02 0.  1.
          1    1    1    2  501    0  0.12559185703E+02  0.19277485571E+02  0.69031898519E+01  0.24021003842E+02  0.00000000000E+00 0. -1.
         -2    1    1    2    0  502  0.10820808542E+02  0.33481804083E+02  0.77579202821E+02  0.85185995401E+02  0.00000000000E+00 0.  1.
<mgrwt>
<rscale>  2 0.78588191E+02</rscale>
<asrwt>0</asrwt>
<pdfrwt beam="1">  1       21 0.23280074E-01 0.78588191E+02</pdfrwt>
<pdfrwt beam="2">  1       21 0.88191388E-02 0.78588191E+02</pdfrwt>
<totfact> 0.17213269E+06</totfact>
</mgrwt>
</event>
<event>
 5    1  0.1708429E+000  0.7169872E+02  0.7546771E-02  0.1354410E+00
         21   -1    0    0  501  502  0.00000000000E+00  0.00000000000E+00  0.35686040893E+02  0.35686040893E+02  0.00000000000E+00 0.  1.
         21   -1    0    0  502  503 -0.00000000000E+00 -0.00000000000E+00 -0.27834858908E+03  0.27834858908E+03  0.00000000000E+00 0. -1.
         24    1    1    2    0    0 -0.25284223935E+02 -0.72764992033E+01 -0.16863724855E+03  0.18867426156E+03  0.80419002446E+02 0. -1.
          1    1    1    2  501    0  0.31832701726E+02 -0.15269941366E+02  0.11137326534E+02  0.37020697601E+02  0.00000000000E+00 0. -1.
         -2    1    1    2    0  503 -0.65484777912E+01  0.22546440570E+02 -0.85162626165E+02  0.88339670811E+02  0.00000000000E+00 0.  1.
<mgrwt>
<rscale>  2 0.71698715E+02</rscale>
<asrwt>0</asrwt>
<pdfrwt beam="1">  1       21 0.54901602E-02 0.71698715E+02</pdfrwt>
<pdfrwt beam="2">  1       21 0.42822859E-01 0.71698715E+02</pdfrwt>
<totfact> 0.11892843E+06</totfact>
</mgrwt>
</event>
<event>
 5    1  0.1708429E+000  0.2437223E+03  0.7546771E-02  0.1117338E+00
         21   -1    0    0  501  502  0.00000000000E+00  0.00000000000E+00  0.93497550817E+03  0.93497550817E+03  0.00000000000E+00 0. -1.
         21   -1    0    0  502  503 -0.00000000000E+00 -0.00000000000E+00 -0.80601777019E+03  0.80601777019E+03  0.00000000000E+00 0.  1.
         24    1    1    2    0    0  0.81148472579E+02 -0.15887811519E+02  0.11834388374E+03  0.16525733850E+03  0.80419002446E+02 0. -1.
          1    1    1    2  501    0 -0.22272850036E+03 -0.26524838977E+02  0.77004958024E+03  0.80205231000E+03  0.00000000000E+00 0. -1.
         -2    1    1    2    0  503  0.14158002778E+03  0.42412650496E+02 -0.75943572599E+03  0.77368362985E+03  0.00000000000E+00 0.  1.
<mgrwt>
<rscale>  2 0.24372235E+03</rscale>
<asrwt>0</asrwt>
<pdfrwt beam="1">  1       21 0.14384239E+00 0.24372235E+03</pdfrwt>
<pdfrwt beam="2">  1       21 0.12400273E+00 0.24372235E+03</pdfrwt>
<totfact> 0.15281675E+02</totfact>
</mgrwt>
</event>
<event>
 5    1  0.1708429E+000  0.6463483E+02  0.7546771E-02  0.1379350E+00
         21   -1    0    0  503  502  0.00000000000E+00  0.00000000000E+00  0.66125450236E+02  0.66125450236E+02  0.00000000000E+00 0.  1.
         21   -1    0    0  501  503 -0.00000000000E+00 -0.00000000000E+00 -0.38327337747E+03  0.38327337747E+03  0.00000000000E+00 0. -1.
         24    1    1    2    0    0 -0.24939323713E+01  0.94601509484E-01  0.24503301576E+02  0.84106220879E+02  0.80419002446E+02 0.  0.
          1    1    1    2  501    0 -0.18257810119E+02  0.14605625480E+02 -0.33890867455E+03  0.33971423522E+03  0.00000000000E+00 0. -1.
         -2    1    1    2    0  502  0.20751742490E+02 -0.14700226989E+02 -0.27425542535E+01  0.25578371601E+02  0.00000000000E+00 0.  1.
<mgrwt>
<rscale>  2 0.64634826E+02</rscale>
<asrwt>0</asrwt>
<pdfrwt beam="1">  1       21 0.10173146E-01 0.64634826E+02</pdfrwt>
<pdfrwt beam="2">  1       21 0.58965133E-01 0.64634826E+02</pdfrwt>
<totfact> 0.21939336E+05</totfact>
</mgrwt>
</event>
<event>
 5    1  0.1954164E+000  0.8946359E+02  0.7546771E-02  0.1304156E+00
         21   -1    0    0  501  502  0.00000000000E+00  0.00000000000E+00  0.72579136996E+02  0.72579136996E+02  0.00000000000E+00 0. -1.
         21   -1    0    0  502  503 -0.00000000000E+00 -0.00000000000E+00 -0.57698444961E+03  0.57698444961E+03  0.00000000000E+00 0.  1.
         24    1    1    2    0    0 -0.21590198387E+02  0.32625992282E+02 -0.66999896484E+02  0.11174432479E+03  0.80419002446E+02 0.  0.
          1    1    1    2  501    0 -0.15263651789E+01  0.26224510172E+02  0.44558661573E+02  0.51725516388E+02  0.00000000000E+00 0. -1.
         -2    1    1    2    0  503  0.23116563566E+02 -0.58850502454E+02 -0.48196407770E+03  0.48609374543E+03  0.00000000000E+00 0.  1.
<mgrwt>
<rscale>  2 0.89463588E+02</rscale>
<asrwt>0</asrwt>
<pdfrwt beam="1">  1       21 0.11166021E-01 0.89463588E+02</pdfrwt>
<pdfrwt beam="2">  1       21 0.88766836E-01 0.89463588E+02</pdfrwt>
<totfact> 0.76231114E+04</totfact>
</mgrwt>
</event>
<event>
 5    1  0.1708429E+000  0.7425534E+02  0.7546771E-02  0.1346193E+00
         21   -1    0    0  503  502  0.00000000000E+00  0.00000000000E+00  0.38904630382E+04  0.38904630382E+04  0.00000000000E+00 0. -1.
         21   -1    0    0  501  503 -0.00000000000E+00 -0.00000000000E+00 -0.68116846230E+01  0.68116846230E+01  0.00000000000E+00 0. -1.
         24    1    1    2    0    0 -0.28349242173E+01 -0.34166092374E+02  0.18533312819E+04  0.18553919843E+04  0.80419002446E+02 0. -1.
          1    1    1    2  501    0  0.25780751423E+02  0.96969271864E+01  0.27983398577E+02  0.39265100747E+02  0.00000000000E+00 0. -1.
         -2    1    1    2    0  502 -0.22945827206E+02  0.24469165188E+02  0.20023366731E+04  0.20026176379E+04  0.00000000000E+00 0.  1.
<mgrwt>
<rscale>  2 0.74255342E+02</rscale>
<asrwt>0</asrwt>
<pdfrwt beam="1">  1       21 0.59853100E+00 0.74255342E+02</pdfrwt>
<pdfrwt beam="2">  1       21 0.10479546E-02 0.74255342E+02</pdfrwt>
<totfact> 0.16138334E+03</totfact>
</mgrwt>
</event>
<event>
 5    1  0.1708429E+000  0.7245398E+02  0.7546771E-02  0.1351942E+00
         21   -1    0    0  503  502  0.00000000000E+00  0.00000000000E+00  0.31982804443E+02  0.31982804443E+02  0.00000000000E+00 0. -1.
         21   -1    0    0  501  503 -0.00000000000E+00 -0.00000000000E+00 -0.43526085037E+03  0.43526085037E+03  0.00000000000E+00 0. -1.
         24    1    1    2    0    0  0.13094386565E+02  0.14897631369E+02 -0.63405285731E+02  0.10431130616E+03  0.80419002446E+02 0.  0.
          1    1    1    2  501    0  0.22582232452E+02  0.18682417949E+01 -0.31607500688E+03  0.31688619018E+03  0.00000000000E+00 0. -1.
         -2    1    1    2    0  502 -0.35676619017E+02 -0.16765873164E+02 -0.23797753312E+02  0.46046158473E+02  0.00000000000E+00 0.  1.
<mgrwt>
<rscale>  2 0.72453984E+02</rscale>
<asrwt>0</asrwt>
<pdfrwt beam="1">  1       21 0.49204315E-02 0.72453984E+02</pdfrwt>
<pdfrwt beam="2">  1       21 0.66963207E-01 0.72453984E+02</pdfrwt>
<totfact> 0.57021137E+05</totfact>
</mgrwt>
</event>
<event>
 5    1  0.1708429E+000  0.7706346E+02  0.7546771E-02  0.1337598E+00
         21   -1    0    0  501  502  0.00000000000E+00  0.00000000000E+00  0.35848594409E+02  0.35848594409E+02  0.00000000000E+00 0. -1.
         21   -1    0    0  502  503 -0.00000000000E+00 -0.00000000000E+00 -0.19723303701E+03  0.19723303701E+03  0.00000000000E+00 0.  1.
         24    1    1    2    0    0 -0.19731400003E+02 -0.37824868100E+01 -0.13232104059E+03  0.15614003039E+03  0.80419002446E+02 0.  0.
          1    1    1    2  501    0 -0.19343940892E+02  0.20986304537E+02 -0.11197112526E+02  0.30659229545E+02  0.00000000000E+00 0. -1.
         -2    1    1    2    0  503  0.39075340895E+02 -0.17203817727E+02 -0.17866289485E+02  0.46282371486E+02  0.00000000000E+00 0.  1.
<mgrwt>
<rscale>  2 0.77063457E+02</rscale>
<asrwt>0</asrwt>
<pdfrwt beam="1">  1       21 0.55151684E-02 0.77063457E+02</pdfrwt>
<pdfrwt beam="2">  1       21 0.30343544E-01 0.77063457E+02</pdfrwt>
<totfact> 0.23105724E+06</totfact>
</mgrwt>
</event>
<event>
 5    1  0.1708429E+000  0.1489616E+03  0.7546771E-02  0.1201755E+00
         21   -1    0    0  503  502  0.00000000000E+00  0.00000000000E+00  0.53878894857E+02  0.53878894857E+02  0.00000000000E+00 0.  1.
         21   -1    0    0  501  503 -0.00000000000E+00 -0.00000000000E+00 -0.16637015316E+04  0.16637015316E+04  0.00000000000E+00 0. -1.
         24    1    1    2    0    0 -0.20646786643E+02  0.74285267095E+02 -0.12619871223E+04  0.12668951430E+04  0.80419002446E+02 0. -1.
          1    1    1    2  501    0 -0.79123650765E+01 -0.12663489612E+03 -0.36678714239E+03  0.38811314105E+03  0.00000000000E+00 0. -1.
         -2    1    1    2    0  502  0.28559151720E+02  0.52349629026E+02  0.18951627880E+02  0.62572142407E+02  0.00000000000E+00 0.  1.
<mgrwt>
<rscale>  2 0.14896163E+03</rscale>
<asrwt>0</asrwt>
<pdfrwt beam="1">  1       21 0.82890603E-02 0.14896163E+03</pdfrwt>
<pdfrwt beam="2">  1       21 0.25595409E+00 0.14896163E+03</pdfrwt>
<totfact> 0.72652666E+03</totfact>
</mgrwt>
</event>
<event>
 5    1  0.1835771E+000  0.1048530E+03  0.7546771E-02  0.1270410E+00
         21   -1    0    0  501  502  0.00000000000E+00  0.00000000000E+00  0.62856434509E+03  0.62856434509E+03  0.00000000000E+00 0.  1.
         21   -1    0    0  502  503 -0.00000000000E+00 -0.00000000000E+00 -0.49526593539E+02  0.49526593539E+02  0.00000000000E+00 0.  1.
         24    1    1    2    0    0 -0.43068755340E+02  0.66011611693E+01  0.31310939408E+03  0.32619503618E+03  0.80419002446E+02 0.  1.
          1    1    1    2  501    0 -0.37426266819E+02  0.54338568418E+00  0.26844823848E+03  0.27104515760E+03  0.00000000000E+00 0. -1.
         -2    1    1    2    0  503  0.80495022159E+02 -0.71445468535E+01 -0.25198810053E+01  0.80850744847E+02  0.00000000000E+00 0.  1.
<mgrwt>
<rscale>  2 0.10485296E+03</rscale>
<asrwt>0</asrwt>
<pdfrwt beam="1">  1       21 0.96702201E-01 0.10485296E+03</pdfrwt>
<pdfrwt beam="2">  1       21 0.76194764E-02 0.10485296E+03</pdfrwt>
<totfact> 0.12030266E+05</totfact>
</mgrwt>
</event>
<event>
 5    1  0.1708429E+000  0.1887827E+03  0.7546771E-02  0.1159564E+00
         21   -1    0    0  501  502  0.00000000000E+00  0.00000000000E+00  0.33892612712E+03  0.33892612712E+03  0.00000000000E+00 0. -1.
         21   -1    0    0  502  503 -0.00000000000E+00 -0.00000000000E+00 -0.19589884985E+03  0.19589884985E+03  0.00000000000E+00 0.  1.
         24    1    1    2    0    0  0.11330882022E+03 -0.89457723186E+02  0.67346147465E+02  0.17844969182E+03  0.80419002446E+02 0.  1.
          1    1    1    2  501    0 -0.12346661399E+03  0.12011253020E+01  0.18067755716E+03  0.21883744454E+03  0.00000000000E+00 0. -1.
         -2    1    1    2    0  503  0.10157793777E+02  0.88256597884E+02 -0.10499642735E+03  0.13753784062E+03  0.00000000000E+00 0.  1.
<mgrwt>
<rscale>  2 0.18878270E+03</rscale>
<asrwt>0</asrwt>
<pdfrwt beam="1">  1       21 0.52142481E-01 0.18878270E+03</pdfrwt>
<pdfrwt beam="2">  1       21 0.30138285E-01 0.18878270E+03</pdfrwt>
<totfact> 0.36934259E+04</totfact>
</mgrwt>
</event>
<event>
 5    1  0.1708429E+000  0.6670768E+02  0.7546771E-02  0.1371661E+00
         21   -1    0    0  501  502  0.00000000000E+00  0.00000000000E+00  0.50646728811E+01  0.50646728811E+01  0.00000000000E+00 0.  1.
         21   -1    0    0  502  503 -0.00000000000E+00 -0.00000000000E+00 -0.10310531432E+04  0.10310531432E+04  0.00000000000E+00 0. -1.
         24    1    1    2    0    0 -0.15942670308E+02 -0.39332795868E+02 -0.78556778886E+03  0.79081300218E+03  0.80419002446E+02 0. -1.
          1    1    1    2  501    0  0.91694861352E+01  0.20070721305E+02 -0.63807154641E+02  0.67514934000E+02  0.00000000000E+00 0. -1.
         -2    1    1    2    0  503  0.67731841730E+01  0.19262074564E+02 -0.17661352684E+03  0.17778987992E+03  0.00000000000E+00 0.  1.
<mgrwt>
<rscale>  2 0.66707683E+02</rscale>
<asrwt>0</asrwt>
<pdfrwt beam="1">  1       21 0.77918051E-03 0.66707683E+02</pdfrwt>
<pdfrwt beam="2">  1       21 0.15862355E+00 0.66707683E+02</pdfrwt>
<totfact> 0.14502579E+06</totfact>
</mgrwt>
</event>
<event>
 5    1  0.1708429E+000  0.1453240E+03  0.7546771E-02  0.1206339E+00
         21   -1    0    0  501  502  0.00000000000E+00  0.00000000000E+00  0.57885378368E+03  0.57885378368E+03  0.00000000000E+00 0. -1.
         21   -1    0    0  502  503 -0.00000000000E+00 -0.00000000000E+00 -0.16335585102E+03  0.16335585102E+03  0.00000000000E+00 0.  1.
         24    1    1    2    0    0 -0.31774996989E+02  0.35675190379E+02 -0.12978251102E+02  0.94435272003E+02  0.80419002446E+02 0. -1.
          1    1    1    2  501    0  0.10669608292E+03 -0.54570854309E+02  0.51674782778E+03  0.53046239242E+03  0.00000000000E+00 0. -1.
         -2    1    1    2    0  503 -0.74921085935E+02  0.18895663930E+02 -0.88271644022E+02  0.11731197028E+03  0.00000000000E+00 0.  1.
<mgrwt>
<rscale>  2 0.14532404E+03</rscale>
<asrwt>0</asrwt>
<pdfrwt beam="1">  1       21 0.89054427E-01 0.14532404E+03</pdfrwt>
<pdfrwt beam="2">  1       21 0.25131670E-01 0.14532404E+03</pdfrwt>
<totfact> 0.16667105E+04</totfact>
</mgrwt>
</event>
<event>
 5    1  0.1708429E+000  0.8880330E+02  0.7546771E-02  0.1305776E+00
         21   -1    0    0  503  502  0.00000000000E+00  0.00000000000E+00  0.16426892447E+03  0.16426892447E+03  0.00000000000E+00 0. -1.
         21   -1    0    0  501  503 -0.00000000000E+00 -0.00000000000E+00 -0.92347353492E+02  0.92347353492E+02  0.00000000000E+00 0. -1.
         24    1    1    2    0    0 -0.33247639518E+02  0.29641476265E+02  0.92281554809E+02  0.13025791324E+03  0.80419002446E+02 0. -1.
          1    1    1    2  501    0  0.40531990616E+02  0.12884527045E+02 -0.56053584039E+02  0.70362330718E+02  0.00000000000E+00 0. -1.
         -2    1    1    2    0  502 -0.72843510973E+01 -0.42526003310E+02  0.35693600207E+02  0.55996034004E+02  0.00000000000E+00 0.  1.
<mgrwt>
<rscale>  2 0.88803301E+02</rscale>
<asrwt>0</asrwt>
<pdfrwt beam="1">  1       21 0.25272142E-01 0.88803301E+02</pdfrwt>
<pdfrwt beam="2">  1       21 0.14207285E-01 0.88803301E+02</pdfrwt>
<totfact> 0.64538174E+05</totfact>
</mgrwt>
</event>
<event>
 5    1  0.1708429E+000  0.7141499E+02  0.7546771E-02  0.1355346E+00
         21   -1    0    0  503  502  0.00000000000E+00  0.00000000000E+00  0.97619129432E+01  0.97619129432E+01  0.00000000000E+00 0. -1.
         21   -1    0    0  501  503 -0.00000000000E+00 -0.00000000000E+00 -0.52606993184E+03  0.52606993184E+03  0.00000000000E+00 0.  1.
         24    1    1    2    0    0  0.70538739699E+01 -0.22106251719E+01 -0.31365196048E+03  0.32388178749E+03  0.80419002446E+02 0.  1.
          1    1    1    2  501    0 -0.14564008947E+02  0.29966391816E+02 -0.10988335360E+03  0.11482354459E+03  0.00000000000E+00 0. -1.
         -2    1    1    2    0  502  0.75101349773E+01 -0.27755766644E+02 -0.92772704824E+02  0.97126512703E+02  0.00000000000E+00 0.  1.
<mgrwt>
<rscale>  2 0.71414993E+02</rscale>
<asrwt>0</asrwt>
<pdfrwt beam="1">  1       21 0.15018322E-02 0.71414993E+02</pdfrwt>
<pdfrwt beam="2">  1       21 0.80933867E-01 0.71414993E+02</pdfrwt>
<totfact> 0.25595363E+06</totfact>
</mgrwt>
</event>
<event>
 5    1  0.1708429E+000  0.7024002E+02  0.7546771E-02  0.1359279E+00
         21   -1    0    0  503  502  0.00000000000E+00  0.00000000000E+00  0.12712272018E+03  0.12712272018E+03  0.00000000000E+00 0.  1.
         21   -1    0    0  501  503 -0.00000000000E+00 -0.00000000000E+00 -0.30025647943E+03  0.30025647943E+03  0.00000000000E+00 0.  1.
         24    1    1    2    0    0  0.16576313462E+02  0.30248013780E+01 -0.22969182923E+03  0.24394564141E+03  0.80419002446E+02 0.  1.
          1    1    1    2  501    0  0.19918693567E+02 -0.80333185537E+01 -0.58660934560E+02  0.62469142814E+02  0.00000000000E+00 0. -1.
         -2    1    1    2    0  502 -0.36495007029E+02  0.50085171757E+01  0.11521900454E+03  0.12096441538E+03  0.00000000000E+00 0.  1.
<mgrwt>
<rscale>  2 0.70240016E+02</rscale>
<asrwt>0</asrwt>
<pdfrwt beam="1">  1       21 0.19557342E-01 0.70240016E+02</pdfrwt>
<pdfrwt beam="2">  1       21 0.46193304E-01 0.70240016E+02</pdfrwt>
<totfact> 0.11371671E+05</totfact>
</mgrwt>
</event>
<event>
 5    1  0.1708429E+000  0.7686642E+02  0.7546771E-02  0.1338187E+00
         21   -1    0    0  501  502  0.00000000000E+00  0.00000000000E+00  0.48434200489E+02  0.48434200489E+02  0.00000000000E+00 0.  1.
         21   -1    0    0  502  503 -0.00000000000E+00 -0.00000000000E+00 -0.13418127853E+03  0.13418127853E+03  0.00000000000E+00 0. -1.
         24    1    1    2    0    0  0.17716898132E+02  0.10184563129E+02 -0.56708494844E+02  0.10050215494E+03  0.80419002446E+02 0. -1.
          1    1    1    2  501    0 -0.15994943183E+01 -0.38309124904E+02  0.37171246109E+00  0.38344303399E+02  0.00000000000E+00 0. -1.
         -2    1    1    2    0  503 -0.16117403814E+02  0.28124561775E+02 -0.29410295662E+02  0.43769020685E+02  0.00000000000E+00 0.  1.
<mgrwt>
<rscale>  2 0.76866415E+02</rscale>
<asrwt>0</asrwt>
<pdfrwt beam="1">  1       21 0.74514154E-02 0.76866415E+02</pdfrwt>
<pdfrwt beam="2">  1       21 0.20643274E-01 0.76866415E+02</pdfrwt>
<totfact> 0.28575967E+06</totfact>
</mgrwt>
</event>
<event>
 5    1  0.1708429E+000  0.9516105E+02  0.7546771E-02  0.1290814E+00
         21   -1    0    0  501  502  0.00000000000E+00  0.00000000000E+00  0.17225645917E+03  0.17225645917E+03  0.00000000000E+00 0. -1.
         21   -1    0    0  502  503 -0.00000000000E+00 -0.00000000000E+00 -0.56393637896E+02  0.56393637896E+02  0.00000000000E+00 0. -1.
         24    1    1    2    0    0  0.37619370872E+02  0.30516799504E+02  0.49509030201E+02  0.10613600776E+03  0.80419002446E+02 0.  0.
          1    1    1    2  501    0 -0.46407717867E+02  0.16009620906E+02  0.55194733622E+02  0.73867738958E+02  0.00000000000E+00 0. -1.
         -2    1    1    2    0  503  0.87883469948E+01 -0.46526420411E+02  0.11159057449E+02  0.48646350349E+02  0.00000000000E+00 0.  1.
<mgrwt>
<rscale>  2 0.95161050E+02</rscale>
<asrwt>0</asrwt>
<pdfrwt beam="1">  1       21 0.26500993E-01 0.95161050E+02</pdfrwt>
<pdfrwt beam="2">  1       21 0.86759444E-02 0.95161050E+02</pdfrwt>
<totfact> 0.13986230E+06</totfact>
</mgrwt>
</event>
<event>
 5    1  0.1708429E+000  0.9684280E+02  0.7546771E-02  0.1287079E+00
         21   -1    0    0  503  502  0.00000000000E+00  0.00000000000E+00  0.18484575132E+03  0.18484575132E+03  0.00000000000E+00 0.  1.
         21   -1    0    0  501  503 -0.00000000000E+00 -0.00000000000E+00 -0.11796552471E+03  0.11796552471E+03  0.00000000000E+00 0. -1.
         24    1    1    2    0    0 -0.21127576007E+02  0.75340680600E+02  0.61715474487E+02  0.12805705122E+03  0.80419002446E+02 0. -1.
          1    1    1    2  501    0  0.25070391002E+02 -0.51062301662E+02 -0.73151578842E+02  0.92666264860E+02  0.00000000000E+00 0. -1.
         -2    1    1    2    0  502 -0.39428149956E+01 -0.24278378937E+02  0.78316330966E+02  0.82087959957E+02  0.00000000000E+00 0.  1.
<mgrwt>
<rscale>  2 0.96842796E+02</rscale>
<asrwt>0</asrwt>
<pdfrwt beam="1">  1       21 0.28437808E-01 0.96842796E+02</pdfrwt>
<pdfrwt beam="2">  1       21 0.18148542E-01 0.96842796E+02</pdfrwt>
<totfact> 0.33259147E+05</totfact>
</mgrwt>
</event>
<event>
 5    1  0.1708429E+000  0.9386189E+02  0.7546771E-02  0.1293760E+00
         21   -1    0    0  501  502  0.00000000000E+00  0.00000000000E+00  0.14693349389E+03  0.14693349389E+03  0.00000000000E+00 0.  1.
         21   -1    0    0  502  503 -0.00000000000E+00 -0.00000000000E+00 -0.89773132239E+02  0.89773132239E+02  0.00000000000E+00 0. -1.
         24    1    1    2    0    0 -0.67092055011E+02 -0.29240401944E+02  0.71016648715E+02  0.12987272732E+03  0.80419002446E+02 0.  0.
          1    1    1    2  501    0  0.52998108369E+02  0.81496010562E+01  0.25998387681E+02  0.59591372279E+02  0.00000000000E+00 0. -1.
         -2    1    1    2    0  503  0.14093946642E+02  0.21090800887E+02 -0.39854674746E+02  0.47242526532E+02  0.00000000000E+00 0.  1.
<mgrwt>
<rscale>  2 0.93861886E+02</rscale>
<asrwt>0</asrwt>
<pdfrwt beam="1">  1       21 0.22605153E-01 0.93861886E+02</pdfrwt>
<pdfrwt beam="2">  1       21 0.13811251E-01 0.93861886E+02</pdfrwt>
<totfact> 0.83581477E+05</totfact>
</mgrwt>
</event>
<event>
 5    1  0.1708429E+000  0.1315099E+03  0.7546771E-02  0.1225232E+00
         21   -1    0    0  503  502  0.00000000000E+00  0.00000000000E+00  0.84428675636E+01  0.84428675636E+01  0.00000000000E+00 0. -1.
         21   -1    0    0  501  503 -0.00000000000E+00 -0.00000000000E+00 -0.22005224305E+04  0.22005224305E+04  0.00000000000E+00 0.  1.
         24    1    1    2    0    0  0.25447602268E+02  0.71298487536E+02 -0.12008859244E+04  0.12059540929E+04  0.80419002446E+02 0.  1.
          1    1    1    2  501    0 -0.25913916086E+02 -0.11043501860E+03 -0.78247899726E+03  0.79065846326E+03  0.00000000000E+00 0. -1.
         -2    1    1    2    0  502  0.46631381807E+00  0.39136531061E+02 -0.20871464125E+03  0.21235274188E+03  0.00000000000E+00 0.  1.
<mgrwt>
<rscale>  2 0.13150988E+03</rscale>
<asrwt>0</asrwt>
<pdfrwt beam="1">  1       21 0.12989025E-02 0.13150988E+03</pdfrwt>
<pdfrwt beam="2">  1       21 0.33854195E+00 0.13150988E+03</pdfrwt>
<totfact> 0.54073473E+04</totfact>
</mgrwt>
</event>
<event>
 5    1  0.1708429E+000  0.6818962E+02  0.7546771E-02  0.1366360E+00
         21   -1    0    0  501  502  0.00000000000E+00  0.00000000000E+00  0.15777290044E+02  0.15777290044E+02  0.00000000000E+00 0.  1.
         21   -1    0    0  502  503 -0.00000000000E+00 -0.00000000000E+00 -0.69427465563E+03  0.69427465563E+03  0.00000000000E+00 0. -1.
         24    1    1    2    0    0 -0.17103653394E+02 -0.79500735344E+01 -0.41997071647E+03  0.42801677219E+03  0.80419002446E+02 0.  0.
          1    1    1    2  501    0  0.15668433869E+01  0.28206142821E+02 -0.68515083768E+01  0.29068619817E+02  0.00000000000E+00 0. -1.
         -2    1    1    2    0  503  0.15536810007E+02 -0.20256069287E+02 -0.25167514074E+03  0.25296655367E+03  0.00000000000E+00 0.  1.
<mgrwt>
<rscale>  2 0.68189619E+02</rscale>
<asrwt>0</asrwt>
<pdfrwt beam="1">  1       21 0.24272757E-02 0.68189619E+02</pdfrwt>
<pdfrwt beam="2">  1       21 0.10681147E+00 0.68189619E+02</pdfrwt>
<totfact> 0.63805941E+05</totfact>
</mgrwt>
</event>
<event>
 5    1  0.1708429E+000  0.9111363E+02  0.7546771E-02  0.1300177E+00
         21   -1    0    0  501  502  0.00000000000E+00  0.00000000000E+00  0.94960093089E+02  0.94960093089E+02  0.00000000000E+00 0.  1.
         21   -1    0    0  502  503 -0.00000000000E+00 -0.00000000000E+00 -0.13455628091E+03  0.13455628091E+03  0.00000000000E+00 0.  1.
         24    1    1    2    0    0  0.65484087854E+02 -0.27886578643E+02  0.32249837943E+01  0.10744041840E+03  0.80419002446E+02 0.  1.
          1    1    1    2  501    0 -0.46793176968E+02  0.78726383162E+01  0.21555183902E+02  0.52117231295E+02  0.00000000000E+00 0. -1.
         -2    1    1    2    0  503 -0.18690910886E+02  0.20013940326E+02 -0.64376355521E+02  0.69958724312E+02  0.00000000000E+00 0.  1.
<mgrwt>
<rscale>  2 0.91113634E+02</rscale>
<asrwt>0</asrwt>
<pdfrwt beam="1">  1       21 0.14609245E-01 0.91113634E+02</pdfrwt>
<pdfrwt beam="2">  1       21 0.20700966E-01 0.91113634E+02</pdfrwt>
<totfact> 0.88940196E+05</totfact>
</mgrwt>
</event>
<event>
 5    1  0.2212352E+000  0.7382367E+02  0.7546771E-02  0.1347553E+00
         21   -1    0    0  501  502  0.00000000000E+00  0.00000000000E+00  0.16882911312E+03  0.16882911312E+03  0.00000000000E+00 0.  1.
         21   -1    0    0  502  503 -0.00000000000E+00 -0.00000000000E+00 -0.24385272329E+03  0.24385272329E+03  0.00000000000E+00 0.  1.
         24    1    1    2    0    0  0.14569536870E+02  0.45396362774E+02  0.86040938460E+02  0.12705652365E+03  0.80419002446E+02 0.  1.
          1    1    1    2  501    0  0.58032191599E+01 -0.23681207119E+02  0.58851714778E+02  0.63702443089E+02  0.00000000000E+00 0. -1.
         -2    1    1    2    0  503 -0.20372756030E+02 -0.21715155655E+02 -0.21991626341E+03  0.22192286967E+03  0.00000000000E+00 0.  1.
<mgrwt>
<rscale>  2 0.73823671E+02</rscale>
<asrwt>0</asrwt>
<pdfrwt beam="1">  1       21 0.25973710E-01 0.73823671E+02</pdfrwt>
<pdfrwt beam="2">  1       21 0.37515803E-01 0.73823671E+02</pdfrwt>
<totfact> 0.10158881E+05</totfact>
</mgrwt>
</event>
<event>
 5    1  0.1708429E+000  0.8878874E+02  0.7546771E-02  0.1305812E+00
         21   -1    0    0  501  502  0.00000000000E+00  0.00000000000E+00  0.55324404019E+02  0.55324404019E+02  0.00000000000E+00 0.  1.
         21   -1    0    0  502  503 -0.00000000000E+00 -0.00000000000E+00 -0.28335848216E+03  0.28335848216E+03  0.00000000000E+00 0.  1.
         24    1    1    2    0    0  0.67964835638E+02 -0.41352244925E+01 -0.44916111295E+02  0.11454689857E+03  0.80419002446E+02 0.  1.
          1    1    1    2  501    0 -0.41311863177E+02  0.14244083961E+02 -0.52666959537E+01  0.44014793574E+02  0.00000000000E+00 0. -1.
         -2    1    1    2    0  503 -0.26652972461E+02 -0.10108859469E+02 -0.17785127089E+03  0.18012119403E+03  0.00000000000E+00 0.  1.
<mgrwt>
<rscale>  2 0.88788742E+02</rscale>
<asrwt>0</asrwt>
<pdfrwt beam="1">  1       21 0.85114466E-02 0.88788742E+02</pdfrwt>
<pdfrwt beam="2">  1       21 0.43593614E-01 0.88788742E+02</pdfrwt>
<totfact> 0.54966183E+05</totfact>
</mgrwt>
</event>
<event>
 5    1  0.1708429E+000  0.1548154E+03  0.7546771E-02  0.1194678E+00
         21   -1    0    0  503  502  0.00000000000E+00  0.00000000000E+00  0.41896247116E+02  0.41896247116E+02  0.00000000000E+00 0. -1.
         21   -1    0    0  501  503 -0.00000000000E+00 -0.00000000000E+00 -0.68856209293E+03  0.68856209293E+03  0.00000000000E+00 0.  1.
         24    1    1    2    0    0 -0.42829555659E+02  0.57595350539E+02 -0.13459482742E+03  0.17243717338E+03  0.80419002446E+02 0. -1.
          1    1    1    2  501    0 -0.75308936790E+02 -0.22110186872E+02 -0.32202864650E+03  0.33145549549E+03  0.00000000000E+00 0. -1.
         -2    1    1    2    0  502  0.11813849245E+03 -0.35485163667E+02 -0.19004237190E+03  0.22656567118E+03  0.00000000000E+00 0.  1.
<mgrwt>
<rscale>  2 0.15481545E+03</rscale>
<asrwt>0</asrwt>
<pdfrwt beam="1">  1       21 0.64455769E-02 0.15481545E+03</pdfrwt>
<pdfrwt beam="2">  1       21 0.10593262E+00 0.15481545E+03</pdfrwt>
<totfact> 0.12662168E+05</totfact>
</mgrwt>
</event>
<event>
 5    1  0.1708429E+000  0.8607724E+02  0.7546771E-02  0.1312639E+00
         21   -1    0    0  501  502  0.00000000000E+00  0.00000000000E+00  0.63543248205E+03  0.63543248205E+03  0.00000000000E+00 0.  1.
         21   -1    0    0  502  503 -0.00000000000E+00 -0.00000000000E+00 -0.16612354643E+02  0.16612354643E+02  0.00000000000E+00 0. -1.
         24    1    1    2    0    0  0.11646708035E+02  0.14024548516E+02  0.20835714248E+03  0.22408089732E+03  0.80419002446E+02 0.  0.
          1    1    1    2  501    0 -0.45761264673E+02 -0.27073358780E+02  0.36856522006E+03  0.37238069437E+03  0.00000000000E+00 0. -1.
         -2    1    1    2    0  503  0.34114556638E+02  0.13048810265E+02  0.41897764866E+02  0.55583244999E+02  0.00000000000E+00 0.  1.
<mgrwt>
<rscale>  2 0.86077236E+02</rscale>
<asrwt>0</asrwt>
<pdfrwt beam="1">  1       21 0.97758825E-01 0.86077236E+02</pdfrwt>
<pdfrwt beam="2">  1       21 0.25557474E-02 0.86077236E+02</pdfrwt>
<totfact> 0.72123105E+05</totfact>
</mgrwt>
</event>
<event>
 5    1  0.1708429E+000  0.1102372E+03  0.7546771E-02  0.1260131E+00
         21   -1    0    0  503  502  0.00000000000E+00  0.00000000000E+00  0.11364134549E+03  0.11364134549E+03  0.00000000000E+00 0.  1.
         21   -1    0    0  501  503 -0.00000000000E+00 -0.00000000000E+00 -0.11163621030E+03  0.11163621030E+03  0.00000000000E+00 0. -1.
         24    1    1    2    0    0 -0.13289439100E+01  0.74424226269E+02  0.21847375503E+02  0.11173743920E+03  0.80419002446E+02 0.  0.
          1    1    1    2  501    0 -0.38813155696E+02 -0.52078452323E+02 -0.18676159756E+02  0.67582728524E+02  0.00000000000E+00 0. -1.
         -2    1    1    2    0  502  0.40142099606E+02 -0.22345773946E+02 -0.11660805603E+01  0.45957388066E+02  0.00000000000E+00 0.  1.
<mgrwt>
<rscale>  2 0.11023716E+03</rscale>
<asrwt>0</asrwt>
<pdfrwt beam="1">  1       21 0.17483284E-01 0.11023716E+03</pdfrwt>
<pdfrwt beam="2">  1       21 0.17174802E-01 0.11023716E+03</pdfrwt>
<totfact> 0.90759813E+05</totfact>
</mgrwt>
</event>
<event>
 5    1  0.1708429E+000  0.9084799E+02  0.7546771E-02  0.1300811E+00
         21   -1    0    0  503  502  0.00000000000E+00  0.00000000000E+00  0.23075802595E+03  0.23075802595E+03  0.00000000000E+00 0.  1.
         21   -1    0    0  501  503 -0.00000000000E+00 -0.00000000000E+00 -0.19269720846E+03  0.19269720846E+03  0.00000000000E+00 0. -1.
         24    1    1    2    0    0  0.92057601447E+01 -0.42762365403E+02  0.29880330821E+02  0.96298577554E+02  0.80419002446E+02 0.  1.
          1    1    1    2  501    0 -0.37429372125E+02  0.48586754265E+02 -0.15226000896E+03  0.16414853309E+03  0.00000000000E+00 0. -1.
         -2    1    1    2    0  502  0.28223611980E+02 -0.58243888620E+01  0.16044049562E+03  0.16300812377E+03  0.00000000000E+00 0.  1.
<mgrwt>
<rscale>  2 0.90847988E+02</rscale>
<asrwt>0</asrwt>
<pdfrwt beam="1">  1       21 0.35501235E-01 0.90847988E+02</pdfrwt>
<pdfrwt beam="2">  1       21 0.29645724E-01 0.90847988E+02</pdfrwt>
<totfact> 0.87283822E+04</totfact>
</mgrwt>
</event>
<event>
 5    1  0.2136754E+000  0.9975636E+02  0.7546771E-02  0.1280809E+00
         21   -1    0    0  503  502  0.00000000000E+00  0.00000000000E+00  0.39959961051E+03  0.39959961051E+03  0.00000000000E+00 0.  1.
         21   -1    0    0  501  503 -0.00000000000E+00 -0.00000000000E+00 -0.24114031258E+03  0.24114031258E+03  0.00000000000E+00 0. -1.
         24    1    1    2    0    0  0.41387763922E+02  0.45324277373E+02  0.11691779622E+03  0.15460990960E+03  0.80419002446E+02 0.  0.
          1    1    1    2  501    0 -0.37712017947E+02  0.13013179801E+02 -0.21721767658E+03  0.22085075994E+03  0.00000000000E+00 0. -1.
         -2    1    1    2    0  502 -0.36757459753E+01 -0.58337457174E+02  0.25875917829E+03  0.26527925355E+03  0.00000000000E+00 0.  1.
<mgrwt>
<rscale>  2 0.99756358E+02</rscale>
<asrwt>0</asrwt>
<pdfrwt beam="1">  1       21 0.61476863E-01 0.99756358E+02</pdfrwt>
<pdfrwt beam="2">  1       21 0.37098510E-01 0.99756358E+02</pdfrwt>
<totfact> 0.18446893E+04</totfact>
</mgrwt>
</event>
<event>
 5    1  0.1708429E+000  0.1006230E+03  0.7546771E-02  0.1278991E+00
         21   -1    0    0  501  502  0.00000000000E+00  0.00000000000E+00  0.88199868078E+03  0.88199868078E+03  0.00000000000E+00 0. -1.
         21   -1    0    0  502  503 -0.00000000000E+00 -0.00000000000E+00 -0.25797657885E+02  0.25797657885E+02  0.00000000000E+00 0. -1.
         24    1    1    2    0    0  0.56381387710E+02  0.39605233047E+02  0.13763930717E+03  0.17366413043E+03  0.80419002446E+02 0. -1.
          1    1    1    2  501    0 -0.42277666712E+02 -0.58245653823E+02  0.70152596179E+03  0.70520821915E+03  0.00000000000E+00 0. -1.
         -2    1    1    2    0  503 -0.14103720997E+02  0.18640420776E+02  0.17035753940E+02  0.28923989092E+02  0.00000000000E+00 0.  1.
<mgrwt>
<rscale>  2 0.10062297E+03</rscale>
<asrwt>0</asrwt>
<pdfrwt beam="1">  1       21 0.13569208E+00 0.10062297E+03</pdfrwt>
<pdfrwt beam="2">  1       21 0.39688711E-02 0.10062297E+03</pdfrwt>
<totfact> 0.16009480E+05</totfact>
</mgrwt>
</event>
<event>
 5    1  0.2575021E+000  0.9540628E+02  0.7546771E-02  0.1290264E+00
         21   -1    0    0  503  502  0.00000000000E+00  0.00000000000E+00  0.14945027288E+03  0.14945027288E+03  0.00000000000E+00 0. -1.
         21   -1    0    0  501  503 -0.00000000000E+00 -0.00000000000E+00 -0.28245767326E+03  0.28245767326E+03  0.00000000000E+00 0. -1.
         24    1    1    2    0    0 -0.37718817097E+02 -0.52162892915E+02  0.73156619203E+02  0.12634390942E+03  0.80419002446E+02 0. -1.
          1    1    1    2  501    0  0.44410849015E+02  0.10538017819E+02 -0.24441364922E+03  0.24863910645E+03  0.00000000000E+00 0. -1.
         -2    1    1    2    0  502 -0.66920319175E+01  0.41624875095E+02  0.38249629638E+02  0.56924930262E+02  0.00000000000E+00 0.  1.
<mgrwt>
<rscale>  2 0.95406277E+02</rscale>
<asrwt>0</asrwt>
<pdfrwt beam="1">  1       21 0.22992350E-01 0.95406277E+02</pdfrwt>
<pdfrwt beam="2">  1       21 0.43455027E-01 0.95406277E+02</pdfrwt>
<totfact> 0.94207043E+04</totfact>
</mgrwt>
</event>
<event>
 5    1  0.1708429E+000  0.9305558E+02  0.7546771E-02  0.1295616E+00
         21   -1    0    0  503  502  0.00000000000E+00  0.00000000000E+00  0.11207176144E+03  0.11207176144E+03  0.00000000000E+00 0. -1.
         21   -1    0    0  501  503 -0.00000000000E+00 -0.00000000000E+00 -0.97937600254E+02  0.97937600254E+02  0.00000000000E+00 0.  1.
         24    1    1    2    0    0 -0.21295940598E+02 -0.34387132909E+02 -0.19950909347E+02  0.92202205689E+02  0.80419002446E+02 0.  1.
          1    1    1    2  501    0  0.33330757774E+02  0.59525941647E+02 -0.65460736506E+01  0.68535598217E+02  0.00000000000E+00 0. -1.
         -2    1    1    2    0  502 -0.12034817175E+02 -0.25138808738E+02  0.40631144186E+02  0.49271557791E+02  0.00000000000E+00 0.  1.
<mgrwt>
<rscale>  2 0.93055576E+02</rscale>
<asrwt>0</asrwt>
<pdfrwt beam="1">  1       21 0.17241809E-01 0.93055576E+02</pdfrwt>
<pdfrwt beam="2">  1       21 0.15067323E-01 0.93055576E+02</pdfrwt>
<totfact> 0.11749242E+06</totfact>
</mgrwt>
</event>
<event>
 5    1  0.1968934E+000  0.1098839E+03  0.7546771E-02  0.1260785E+00
         21   -1    0    0  501  502  0.00000000000E+00  0.00000000000E+00  0.14767782442E+03  0.14767782442E+03  0.00000000000E+00 0.  1.
         21   -1    0    0  502  503 -0.00000000000E+00 -0.00000000000E+00 -0.41452434380E+03  0.41452434380E+03  0.00000000000E+00 0.  1.
         24    1    1    2    0    0 -0.70696681041E+02  0.61468683224E+02  0.49676309903E+02  0.13308407661E+03  0.80419002446E+02 0.  1.
          1    1    1    2  501    0  0.53691336680E+02 -0.32645697734E+02  0.37725868011E+02  0.73292171015E+02  0.00000000000E+00 0. -1.
         -2    1    1    2    0  503  0.17005344361E+02 -0.28822985490E+02 -0.35424869730E+03  0.35582592059E+03  0.00000000000E+00 0.  1.
<mgrwt>
<rscale>  2 0.10988391E+03</rscale>
<asrwt>0</asrwt>
<pdfrwt beam="1">  1       21 0.22719665E-01 0.10988391E+03</pdfrwt>
<pdfrwt beam="2">  1       21 0.63772976E-01 0.10988391E+03</pdfrwt>
<totfact> 0.43205018E+04</totfact>
</mgrwt>
</event>
<event>
 5    1  0.1708429E+000  0.1072744E+03  0.7546771E-02  0.1265702E+00
         21   -1    0    0  503  502  0.00000000000E+00  0.00000000000E+00  0.16635237471E+02  0.16635237471E+02  0.00000000000E+00 0.  1.
         21   -1    0    0  501  503 -0.00000000000E+00 -0.00000000000E+00 -0.74922388336E+03  0.74922388336E+03  0.00000000000E+00 0. -1.
         24    1    1    2    0    0 -0.38743346398E+02 -0.10391981964E+02 -0.26015063150E+03  0.27523554858E+03  0.80419002446E+02 0.  1.
          1    1    1    2  501    0  0.62506930858E+02 -0.36304781276E+02 -0.35097480827E+03  0.35834127530E+03  0.00000000000E+00 0. -1.
         -2    1    1    2    0  502 -0.23763584460E+02  0.46696763239E+02 -0.12146320613E+03  0.13228229695E+03  0.00000000000E+00 0.  1.
<mgrwt>
<rscale>  2 0.10727439E+03</rscale>
<asrwt>0</asrwt>
<pdfrwt beam="1">  1       21 0.25592675E-02 0.10727439E+03</pdfrwt>
<pdfrwt beam="2">  1       21 0.11526520E+00 0.10727439E+03</pdfrwt>
<totfact> 0.48782149E+05</totfact>
</mgrwt>
</event>
<event>
 5    1  0.1708429E+000  0.8524725E+02  0.7546771E-02  0.1314787E+00
         21   -1    0    0  503  502  0.00000000000E+00  0.00000000000E+00  0.23065309700E+02  0.23065309700E+02  0.00000000000E+00 0. -1.
         21   -1    0    0  501  503 -0.00000000000E+00 -0.00000000000E+00 -0.32149172309E+03  0.32149172309E+03  0.00000000000E+00 0. -1.
         24    1    1    2    0    0 -0.24291867859E+02 -0.44563131438E+02 -0.17516676982E+03  0.19931527972E+03  0.80419002446E+02 0. -1.
          1    1    1    2  501    0  0.37241634354E+02  0.10105726734E+02 -0.49101024548E+02  0.62449785058E+02  0.00000000000E+00 0. -1.
         -2    1    1    2    0  502 -0.12949766496E+02  0.34457404705E+02 -0.74158619023E+02  0.82791968008E+02  0.00000000000E+00 0.  1.
<mgrwt>
<rscale>  2 0.85247255E+02</rscale>
<asrwt>0</asrwt>
<pdfrwt beam="1">  1       21 0.35485094E-02 0.85247255E+02</pdfrwt>
<pdfrwt beam="2">  1       21 0.49460262E-01 0.85247255E+02</pdfrwt>
<totfact> 0.18379903E+06</totfact>
</mgrwt>
</event>
<event>
 5    1  0.1708429E+000  0.7515306E+02  0.7546771E-02  0.1343398E+00
         21   -1    0    0  501  502  0.00000000000E+00  0.00000000000E+00  0.13596519949E+02  0.13596519949E+02  0.00000000000E+00 0.  1.
         21   -1    0    0  502  503 -0.00000000000E+00 -0.00000000000E+00 -0.42264819870E+03  0.42264819870E+03  0.00000000000E+00 0. -1.
         24    1    1    2    0    0 -0.21971991070E+02  0.54259669909E+01 -0.25530813723E+03  0.26862924338E+03  0.80419002446E+02 0.  0.
          1    1    1    2  501    0  0.43616157995E+02  0.25636658562E+01 -0.99723478905E+02  0.10887476230E+03  0.00000000000E+00 0. -1.
         -2    1    1    2    0  503 -0.21644166925E+02 -0.79896328471E+01 -0.54020062611E+02  0.58740712963E+02  0.00000000000E+00 0.  1.
<mgrwt>
<rscale>  2 0.75153055E+02</rscale>
<asrwt>0</asrwt>
<pdfrwt beam="1">  1       21 0.20917721E-02 0.75153055E+02</pdfrwt>
<pdfrwt beam="2">  1       21 0.65022807E-01 0.75153055E+02</pdfrwt>
<totfact> 0.24334476E+06</totfact>
</mgrwt>
</event>
<event>
 5    1  0.1708429E+000  0.7478794E+02  0.7546771E-02  0.1344529E+00
         21   -1    0    0  503  502  0.00000000000E+00  0.00000000000E+00  0.68455784535E+02  0.68455784535E+02  0.00000000000E+00 0. -1.
         21   -1    0    0  501  503 -0.00000000000E+00 -0.00000000000E+00 -0.12343970018E+03  0.12343970018E+03  0.00000000000E+00 0.  1.
         24    1    1    2    0    0  0.52026888157E+01  0.14068316564E+02  0.71528706693E+01  0.82117994466E+02  0.80419002446E+02 0. -1.
          1    1    1    2  501    0  0.27615999933E+02 -0.20415817039E+02 -0.67679266999E+02  0.75894217297E+02  0.00000000000E+00 0. -1.
         -2    1    1    2    0  502 -0.32818688749E+02  0.63475004749E+01  0.55424806889E+01  0.33883272948E+02  0.00000000000E+00 0.  1.
<mgrwt>
<rscale>  2 0.74787938E+02</rscale>
<asrwt>0</asrwt>
<pdfrwt beam="1">  1       21 0.10531659E-01 0.74787938E+02</pdfrwt>
<pdfrwt beam="2">  1       21 0.18990723E-01 0.74787938E+02</pdfrwt>
<totfact> 0.18378127E+06</totfact>
</mgrwt>
</event>
<event>
 5    1  0.1708429E+000  0.9102505E+02  0.7546771E-02  0.1300388E+00
         21   -1    0    0  501  502  0.00000000000E+00  0.00000000000E+00  0.20759140001E+03  0.20759140001E+03  0.00000000000E+00 0.  1.
         21   -1    0    0  502  503 -0.00000000000E+00 -0.00000000000E+00 -0.15929200646E+03  0.15929200646E+03  0.00000000000E+00 0.  1.
         24    1    1    2    0    0  0.12795186537E+02  0.70648312902E+02  0.11680715633E+03  0.15895291328E+03  0.80419002446E+02 0.  1.
          1    1    1    2  501    0 -0.13743343069E+02 -0.24541697196E+02  0.62772244084E+02  0.68786110570E+02  0.00000000000E+00 0. -1.
         -2    1    1    2    0  503  0.94815653181E+00 -0.46106615706E+02 -0.13128000687E+03  0.13914438262E+03  0.00000000000E+00 0.  1.
<mgrwt>
<rscale>  2 0.91025054E+02</rscale>
<asrwt>0</asrwt>
<pdfrwt beam="1">  1       21 0.31937138E-01 0.91025054E+02</pdfrwt>
<pdfrwt beam="2">  1       21 0.24506463E-01 0.91025054E+02</pdfrwt>
<totfact> 0.15342216E+05</totfact>
</mgrwt>
</event>
<event>
 5    1  0.1708429E+000  0.6530441E+02  0.7546771E-02  0.1376830E+00
         21   -1    0    0  501  502  0.00000000000E+00  0.00000000000E+00  0.53367507056E+02  0.53367507056E+02  0.00000000000E+00 0.  1.
         21   -1    0    0  502  503 -0.00000000000E+00 -0.00000000000E+00 -0.61483033075E+03  0.61483033075E+03  0.00000000000E+00 0.  1.
         24    1    1    2    0    0  0.68775156506E+01  0.27680680723E+02 -0.64554984558E+01  0.85571079937E+02  0.80419002446E+02 0.  1.
          1    1    1    2  501    0  0.13387875699E+02 -0.18981812065E+02  0.36683486415E+01  0.23515977266E+02  0.00000000000E+00 0. -1.
         -2    1    1    2    0  503 -0.20265391350E+02 -0.86988686582E+01 -0.55867567388E+03  0.55911078060E+03  0.00000000000E+00 0.  1.
<mgrwt>
<rscale>  2 0.65304408E+02</rscale>
<asrwt>0</asrwt>
<pdfrwt beam="1">  1       21 0.82103854E-02 0.65304408E+02</pdfrwt>
<pdfrwt beam="2">  1       21 0.94589285E-01 0.65304408E+02</pdfrwt>
<totfact> 0.11388569E+05</totfact>
</mgrwt>
</event>
<event>
 5    1  0.1708429E+000  0.8128040E+02  0.7546771E-02  0.1325457E+00
         21   -1    0    0  501  502  0.00000000000E+00  0.00000000000E+00  0.50445642160E+03  0.50445642160E+03  0.00000000000E+00 0. -1.
         21   -1    0    0  502  503 -0.00000000000E+00 -0.00000000000E+00 -0.13123886675E+02  0.13123886675E+02  0.00000000000E+00 0. -1.
         24    1    1    2    0    0 -0.21229898267E+02  0.33061127164E+02  0.28224876061E+03  0.29610019508E+03  0.80419002446E+02 0. -1.
          1    1    1    2  501    0 -0.16003279158E+02 -0.32034590194E+02  0.10300244698E+03  0.10904964006E+03  0.00000000000E+00 0. -1.
         -2    1    1    2    0  503  0.37233177425E+02 -0.10265369698E+01  0.10608132734E+03  0.11243047313E+03  0.00000000000E+00 0.  1.
<mgrwt>
<rscale>  2 0.81280401E+02</rscale>
<asrwt>0</asrwt>
<pdfrwt beam="1">  1       21 0.77608665E-01 0.81280401E+02</pdfrwt>
<pdfrwt beam="2">  1       21 0.20190599E-02 0.81280401E+02</pdfrwt>
<totfact> 0.17641409E+06</totfact>
</mgrwt>
</event>
<event>
 5    1  0.1708429E+000  0.7800822E+02  0.7546771E-02  0.1334801E+00
         21   -1    0    0  501  502  0.00000000000E+00  0.00000000000E+00  0.50512097442E+03  0.50512097442E+03  0.00000000000E+00 0. -1.
         21   -1    0    0  502  503 -0.00000000000E+00 -0.00000000000E+00 -0.15526934479E+03  0.15526934479E+03  0.00000000000E+00 0. -1.
         24    1    1    2    0    0  0.10797148769E+02 -0.56244894239E+02 -0.77299473217E+02  0.12538935786E+03  0.80419002446E+02 0. -1.
          1    1    1    2  501    0 -0.49903091361E+01  0.29608932088E+02  0.47712817055E+03  0.47807204811E+03  0.00000000000E+00 0. -1.
         -2    1    1    2    0  503 -0.58068396328E+01  0.26635962151E+02 -0.49977067713E+02  0.56928913246E+02  0.00000000000E+00 0.  1.
<mgrwt>
<rscale>  2 0.78008216E+02</rscale>
<asrwt>0</asrwt>
<pdfrwt beam="1">  1       21 0.77710918E-01 0.78008216E+02</pdfrwt>
<pdfrwt beam="2">  1       21 0.23887592E-01 0.78008216E+02</pdfrwt>
<totfact> 0.26396112E+04</totfact>
</mgrwt>
</event>
<event>
 5    1  0.1708429E+000  0.1097679E+03  0.7546771E-02  0.1261000E+00
         21   -1    0    0  501  502  0.00000000000E+00  0.00000000000E+00  0.87459850727E+02  0.87459850727E+02  0.00000000000E+00 0.  1.
         21   -1    0    0  502  503 -0.00000000000E+00 -0.00000000000E+00 -0.37403885684E+03  0.37403885684E+03  0.00000000000E+00 0.  1.
         24    1    1    2    0    0 -0.35632243819E+02  0.79019865354E+02  0.15413418513E+02  0.11924170975E+03  0.80419002446E+02 0.  1.
          1    1    1    2  501    0  0.43728058399E+02 -0.33566389902E+02 -0.23436456119E+02  0.59900860576E+02  0.00000000000E+00 0. -1.
         -2    1    1    2    0  503 -0.80958145799E+01 -0.45453475453E+02 -0.27855596851E+03  0.28235613724E+03  0.00000000000E+00 0.  1.
<mgrwt>
<rscale>  2 0.10976794E+03</rscale>
<asrwt>0</asrwt>
<pdfrwt beam="1">  1       21 0.13455361E-01 0.10976794E+03</pdfrwt>
<pdfrwt beam="2">  1       21 0.57544440E-01 0.10976794E+03</pdfrwt>
<totfact> 0.13931985E+05</totfact>
</mgrwt>
</event>
<event>
 5    1  0.1708429E+000  0.7240898E+02  0.7546771E-02  0.1352088E+00
         21   -1    0    0  501  502  0.00000000000E+00  0.00000000000E+00  0.10172772638E+03  0.10172772638E+03  0.00000000000E+00 0. -1.
         21   -1    0    0  502  503 -0.00000000000E+00 -0.00000000000E+00 -0.60321517326E+02  0.60321517326E+02  0.00000000000E+00 0.  1.
         24    1    1    2    0    0 -0.80334293529E+01 -0.21269873639E+02 -0.35383337403E+00  0.83572032787E+02  0.80419002446E+02 0.  1.
          1    1    1    2  501    0  0.16510775898E+01  0.40731649177E+02  0.41242472492E+02  0.57989092415E+02  0.00000000000E+00 0. -1.
         -2    1    1    2    0  503  0.63823517631E+01 -0.19461775538E+02  0.51756993429E+00  0.20488118502E+02  0.00000000000E+00 0.  1.
<mgrwt>
<rscale>  2 0.72408981E+02</rscale>
<asrwt>0</asrwt>
<pdfrwt beam="1">  1       21 0.15650419E-01 0.72408981E+02</pdfrwt>
<pdfrwt beam="2">  1       21 0.92802334E-02 0.72408981E+02</pdfrwt>
<totfact> 0.32278604E+06</totfact>
</mgrwt>
</event>
<event>
 5    1  0.1708429E+000  0.1069406E+03  0.7546771E-02  0.1266343E+00
         21   -1    0    0  503  502  0.00000000000E+00  0.00000000000E+00  0.35146348901E+03  0.35146348901E+03  0.00000000000E+00 0.  1.
         21   -1    0    0  501  503 -0.00000000000E+00 -0.00000000000E+00 -0.55512935558E+02  0.55512935558E+02  0.00000000000E+00 0. -1.
         24    1    1    2    0    0 -0.27376530987E+02  0.55675824967E+02  0.84099694588E+02  0.13186829232E+03  0.80419002446E+02 0. -1.
          1    1    1    2  501    0  0.48153636697E+02 -0.71493541829E+02  0.29814812027E+02  0.91208674295E+02  0.00000000000E+00 0. -1.
         -2    1    1    2    0  502 -0.20777105710E+02  0.15817716861E+02  0.18203604684E+03  0.18389945796E+03  0.00000000000E+00 0.  1.
<mgrwt>
<rscale>  2 0.10694056E+03</rscale>
<asrwt>0</asrwt>
<pdfrwt beam="1">  1       21 0.54071305E-01 0.10694056E+03</pdfrwt>
<pdfrwt beam="2">  1       21 0.85404518E-02 0.10694056E+03</pdfrwt>
<totfact> 0.35177446E+05</totfact>
</mgrwt>
</event>
<event>
 5    1  0.1708429E+000  0.1097630E+03  0.7546771E-02  0.1261009E+00
         21   -1    0    0  503  502  0.00000000000E+00  0.00000000000E+00  0.40218349426E+03  0.40218349426E+03  0.00000000000E+00 0.  1.
         21   -1    0    0  501  503 -0.00000000000E+00 -0.00000000000E+00 -0.40514374613E+02  0.40514374613E+02  0.00000000000E+00 0.  1.
         24    1    1    2    0    0 -0.35570527108E+02  0.84358868687E+02  0.83485974308E+02  0.14771189859E+03  0.80419002446E+02 0.  1.
          1    1    1    2  501    0 -0.37151563646E+01 -0.31982205160E+02  0.78634357156E+02  0.84970735898E+02  0.00000000000E+00 0. -1.
         -2    1    1    2    0  502  0.39285683473E+02 -0.52376663527E+02  0.19954878819E+03  0.21001523439E+03  0.00000000000E+00 0.  1.
<mgrwt>
<rscale>  2 0.10976303E+03</rscale>
<asrwt>0</asrwt>
<pdfrwt beam="1">  1       21 0.61874381E-01 0.10976303E+03</pdfrwt>
<pdfrwt beam="2">  1       21 0.62329810E-02 0.10976303E+03</pdfrwt>
<totfact> 0.45361738E+05</totfact>
</mgrwt>
</event>
<event>
 5    1  0.1708429E+000  0.8355128E+02  0.7546771E-02  0.1319265E+00
         21   -1    0    0  503  502  0.00000000000E+00  0.00000000000E+00  0.99082815919E+01  0.99082815919E+01  0.00000000000E+00 0.  1.
         21   -1    0    0  501  503 -0.00000000000E+00 -0.00000000000E+00 -0.79672041943E+03  0.79672041943E+03  0.00000000000E+00 0. -1.
         24    1    1    2    0    0 -0.19414222701E+02  0.25530688477E+01 -0.26409770886E+03  0.27676388128E+03  0.80419002446E+02 0.  1.
          1    1    1    2  501    0  0.46596788184E+02  0.18312865698E+02 -0.36873104153E+03  0.37211450215E+03  0.00000000000E+00 0. -1.
         -2    1    1    2    0  502 -0.27182565483E+02 -0.20865934546E+02 -0.15398338745E+03  0.15775031760E+03  0.00000000000E+00 0.  1.
<mgrwt>
<rscale>  2 0.83551280E+02</rscale>
<asrwt>0</asrwt>
<pdfrwt beam="1">  1       21 0.15243510E-02 0.83551280E+02</pdfrwt>
<pdfrwt beam="2">  1       21 0.12257237E+00 0.83551280E+02</pdfrwt>
<totfact> 0.96654538E+05</totfact>
</mgrwt>
</event>
<event>
 5    1  0.1708429E+000  0.9775753E+02  0.7546771E-02  0.1285083E+00
         21   -1    0    0  501  502  0.00000000000E+00  0.00000000000E+00  0.47889039745E+02  0.47889039745E+02  0.00000000000E+00 0. -1.
         21   -1    0    0  502  503 -0.00000000000E+00 -0.00000000000E+00 -0.32943289557E+03  0.32943289557E+03  0.00000000000E+00 0. -1.
         24    1    1    2    0    0 -0.38775496838E+02  0.25577381268E+02 -0.18008738053E+03  0.20262384403E+03  0.80419002446E+02 0. -1.
          1    1    1    2  501    0  0.20157025429E+02 -0.60116970868E+02  0.26305085972E+01  0.63460818116E+02  0.00000000000E+00 0. -1.
         -2    1    1    2    0  503  0.18618471409E+02  0.34539589600E+02 -0.10408698389E+03  0.11123727317E+03  0.00000000000E+00 0.  1.
<mgrwt>
<rscale>  2 0.97757527E+02</rscale>
<asrwt>0</asrwt>
<pdfrwt beam="1">  1       21 0.73675441E-02 0.97757527E+02</pdfrwt>
<pdfrwt beam="2">  1       21 0.50681987E-01 0.97757527E+02</pdfrwt>
<totfact> 0.51827345E+05</totfact>
</mgrwt>
</event>
<event>
 5    1  0.1708429E+000  0.1954263E+03  0.7546771E-02  0.1153656E+00
         21   -1    0    0  501  502  0.00000000000E+00  0.00000000000E+00  0.79618362637E+02  0.79618362637E+02  0.00000000000E+00 0.  1.
         21   -1    0    0  502  503 -0.00000000000E+00 -0.00000000000E+00 -0.52523165066E+03  0.52523165066E+03  0.00000000000E+00 0. -1.
         24    1    1    2    0    0 -0.97748103163E+02  0.15392872484E+03 -0.19797389743E+03  0.28090856879E+03  0.80419002446E+02 0. -1.
          1    1    1    2  501    0 -0.72891485099E+01 -0.20467164134E+02  0.22040287690E+01  0.21837908245E+02  0.00000000000E+00 0. -1.
         -2    1    1    2    0  503  0.10503725167E+03 -0.13346156070E+03 -0.24984341936E+03  0.30210353626E+03  0.00000000000E+00 0.  1.
<mgrwt>
<rscale>  2 0.19542632E+03</rscale>
<asrwt>0</asrwt>
<pdfrwt beam="1">  1       21 0.12248979E-01 0.19542632E+03</pdfrwt>
<pdfrwt beam="2">  1       21 0.80804871E-01 0.19542632E+03</pdfrwt>
<totfact> 0.75960722E+04</totfact>
</mgrwt>
</event>
<event>
 5    1  0.1708429E+000  0.8664462E+02  0.7546771E-02  0.1311187E+00
         21   -1    0    0  501  502  0.00000000000E+00  0.00000000000E+00  0.81600331782E+01  0.81600331782E+01  0.00000000000E+00 0.  1.
         21   -1    0    0  502  503 -0.00000000000E+00 -0.00000000000E+00 -0.11280599484E+04  0.11280599484E+04  0.00000000000E+00 0. -1.
         24    1    1    2    0    0 -0.17917732599E+02  0.45123241569E+02 -0.83715794259E+03  0.84241188790E+03  0.80419002446E+02 0. -1.
          1    1    1    2  501    0 -0.20759316389E+02 -0.11535332767E+01 -0.60149844234E+02  0.63641838575E+02  0.00000000000E+00 0. -1.
         -2    1    1    2    0  503  0.38677048988E+02 -0.43969708292E+02 -0.22259212842E+03  0.23016625512E+03  0.00000000000E+00 0.  1.
<mgrwt>
<rscale>  2 0.86644621E+02</rscale>
<asrwt>0</asrwt>
<pdfrwt beam="1">  1       21 0.12553891E-02 0.86644621E+02</pdfrwt>
<pdfrwt beam="2">  1       21 0.17354776E+00 0.86644621E+02</pdfrwt>
<totfact> 0.54440089E+05</totfact>
</mgrwt>
</event>
<event>
 5    1  0.1708429E+000  0.8218341E+02  0.7546771E-02  0.1322967E+00
         21   -1    0    0  501  502  0.00000000000E+00  0.00000000000E+00  0.39791099956E+03  0.39791099956E+03  0.00000000000E+00 0.  1.
         21   -1    0    0  502  503 -0.00000000000E+00 -0.00000000000E+00 -0.20266500985E+02  0.20266500985E+02  0.00000000000E+00 0. -1.
         24    1    1    2    0    0 -0.19057528058E+02 -0.70798322904E+01  0.26006391377E+03  0.27297210224E+03  0.80419002446E+02 0.  1.
          1    1    1    2  501    0 -0.28644104141E+02 -0.10603969911E+02  0.66164680233E+02  0.72874507135E+02  0.00000000000E+00 0. -1.
         -2    1    1    2    0  503  0.47701632199E+02  0.17683802201E+02  0.51415904578E+02  0.72330891175E+02  0.00000000000E+00 0.  1.
<mgrwt>
<rscale>  2 0.82183414E+02</rscale>
<asrwt>0</asrwt>
<pdfrwt beam="1">  1       21 0.61217071E-01 0.82183414E+02</pdfrwt>
<pdfrwt beam="2">  1       21 0.31179235E-02 0.82183414E+02</pdfrwt>
<totfact> 0.14584652E+06</totfact>
</mgrwt>
</event>
<event>
 5    1  0.1708429E+000  0.1291946E+03  0.7546771E-02  0.1228656E+00
         21   -1    0    0  503  502  0.00000000000E+00  0.00000000000E+00  0.39890916008E+03  0.39890916008E+03  0.00000000000E+00 0. -1.
         21   -1    0    0  501  503 -0.00000000000E+00 -0.00000000000E+00 -0.68339821451E+02  0.68339821451E+02  0.00000000000E+00 0. -1.
         24    1    1    2    0    0 -0.67580661740E+02 -0.87990541881E+02  0.23693352851E+03  0.27370457466E+03  0.80419002446E+02 0. -1.
          1    1    1    2  501    0  0.39173917407E+02  0.83986807562E+02 -0.30184835486E+01  0.92722655766E+02  0.00000000000E+00 0. -1.
         -2    1    1    2    0  502  0.28406744333E+02  0.40037343194E+01  0.96654293669E+02  0.10082175111E+03  0.00000000000E+00 0.  1.
<mgrwt>
<rscale>  2 0.12919455E+03</rscale>
<asrwt>0</asrwt>
<pdfrwt beam="1">  1       21 0.61370638E-01 0.12919455E+03</pdfrwt>
<pdfrwt beam="2">  1       21 0.10513819E-01 0.12919455E+03</pdfrwt>
<totfact> 0.18677729E+05</totfact>
</mgrwt>
</event>
<event>
 5    1  0.1708429E+000  0.6958642E+02  0.7546771E-02  0.1361505E+00
         21   -1    0    0  501  502  0.00000000000E+00  0.00000000000E+00  0.20479607875E+02  0.20479607875E+02  0.00000000000E+00 0. -1.
         21   -1    0    0  502  503 -0.00000000000E+00 -0.00000000000E+00 -0.54960368222E+03  0.54960368222E+03  0.00000000000E+00 0. -1.
         24    1    1    2    0    0  0.33318440679E+02  0.41712803579E+01 -0.41846006224E+03  0.42743836715E+03  0.80419002446E+02 0. -1.
          1    1    1    2  501    0 -0.18963444986E+02  0.17649468248E+02  0.29444073680E+01  0.26072696637E+02  0.00000000000E+00 0. -1.
         -2    1    1    2    0  503 -0.14354995693E+02 -0.21820748606E+02 -0.11360841948E+03  0.11657222631E+03  0.00000000000E+00 0.  1.
<mgrwt>
<rscale>  2 0.69586423E+02</rscale>
<asrwt>0</asrwt>
<pdfrwt beam="1">  1       21 0.31507089E-02 0.69586423E+02</pdfrwt>
<pdfrwt beam="2">  1       21 0.84554412E-01 0.69586423E+02</pdfrwt>
<totfact> 0.71237329E+05</totfact>
</mgrwt>
</event>
<event>
 5    1  0.1708429E+000  0.8404717E+02  0.7546771E-02  0.1317943E+00
         21   -1    0    0  501  502  0.00000000000E+00  0.00000000000E+00  0.47179710737E+02  0.47179710737E+02  0.00000000000E+00 0. -1.
         21   -1    0    0  502  503 -0.00000000000E+00 -0.00000000000E+00 -0.64978860136E+03  0.64978860136E+03  0.00000000000E+00 0.  1.
         24    1    1    2    0    0 -0.67099685370E-01 -0.33720397480E+02 -0.32695069733E+03  0.33838002918E+03  0.80419002446E+02 0.  0.
          1    1    1    2  501    0 -0.12441671868E+02  0.54901083903E+02  0.21614069141E+02  0.60300018221E+02  0.00000000000E+00 0. -1.
         -2    1    1    2    0  503  0.12508771554E+02 -0.21180686423E+02 -0.29727226243E+03  0.29828826470E+03  0.00000000000E+00 0.  1.
<mgrwt>
<rscale>  2 0.84047174E+02</rscale>
<asrwt>0</asrwt>
<pdfrwt beam="1">  1       21 0.72584169E-02 0.84047174E+02</pdfrwt>
<pdfrwt beam="2">  1       21 0.99967478E-01 0.84047174E+02</pdfrwt>
<totfact> 0.12234140E+05</totfact>
</mgrwt>
</event>
<event>
 5    1  0.1708429E+000  0.9372143E+02  0.7546771E-02  0.1294082E+00
         21   -1    0    0  503  502  0.00000000000E+00  0.00000000000E+00  0.29273807872E+03  0.29273807872E+03  0.00000000000E+00 0. -1.
         21   -1    0    0  501  503 -0.00000000000E+00 -0.00000000000E+00 -0.32753669295E+02  0.32753669295E+02  0.00000000000E+00 0.  1.
         24    1    1    2    0    0  0.57986454302E+02 -0.46951055101E+02  0.15607190044E+03  0.19076814335E+03  0.80419002446E+02 0.  0.
          1    1    1    2  501    0 -0.47223932725E+02  0.25322689206E+02  0.41429178339E+02  0.67732674748E+02  0.00000000000E+00 0. -1.
         -2    1    1    2    0  502 -0.10762521577E+02  0.21628365894E+02  0.62483330645E+02  0.66990929912E+02  0.00000000000E+00 0.  1.
<mgrwt>
<rscale>  2 0.93721431E+02</rscale>
<asrwt>0</asrwt>
<pdfrwt beam="1">  1       21 0.45036626E-01 0.93721431E+02</pdfrwt>
<pdfrwt beam="2">  1       21 0.50390263E-02 0.93721431E+02</pdfrwt>
<totfact> 0.12489172E+06</totfact>
</mgrwt>
</event>
<event>
 5    1  0.1708429E+000  0.7646379E+02  0.7546771E-02  0.1339397E+00
         21   -1    0    0  501  502  0.00000000000E+00  0.00000000000E+00  0.74076542501E+03  0.74076542501E+03  0.00000000000E+00 0. -1.
         21   -1    0    0  502  503 -0.00000000000E+00 -0.00000000000E+00 -0.18422673912E+02  0.18422673912E+02  0.00000000000E+00 0.  1.
         24    1    1    2    0    0  0.53080775566E+02 -0.13276629293E+02  0.57508674877E+03  0.58325450893E+03  0.80419002446E+02 0.  1.
          1    1    1    2  501    0 -0.28316249825E+02  0.18234951063E+01  0.14588024966E+03  0.14861420652E+03  0.00000000000E+00 0. -1.
         -2    1    1    2    0  503 -0.24764525741E+02  0.11453134186E+02  0.13757526647E+01  0.27319383471E+02  0.00000000000E+00 0.  1.
<mgrwt>
<rscale>  2 0.76463786E+02</rscale>
<asrwt>0</asrwt>
<pdfrwt beam="1">  1       21 0.11396389E+00 0.76463786E+02</pdfrwt>
<pdfrwt beam="2">  1       21 0.28342581E-02 0.76463786E+02</pdfrwt>
<totfact> 0.42716514E+05</totfact>
</mgrwt>
</event>
<event>
 5    1  0.1708429E+000  0.7484618E+02  0.7546771E-02  0.1344348E+00
         21   -1    0    0  503  502  0.00000000000E+00  0.00000000000E+00  0.78105428454E+03  0.78105428454E+03  0.00000000000E+00 0. -1.
         21   -1    0    0  501  503 -0.00000000000E+00 -0.00000000000E+00 -0.13828661142E+02  0.13828661142E+02  0.00000000000E+00 0. -1.
         24    1    1    2    0    0 -0.14977568959E+02  0.96466698550E+01  0.49650738276E+03  0.50329333683E+03  0.80419002446E+02 0. -1.
          1    1    1    2  501    0  0.39517544615E+02  0.31586685947E+01  0.31123507153E+02  0.50401252139E+02  0.00000000000E+00 0. -1.
         -2    1    1    2    0  502 -0.24539975656E+02 -0.12805338450E+02  0.23959473348E+03  0.24118835670E+03  0.00000000000E+00 0.  1.
<mgrwt>
<rscale>  2 0.74846180E+02</rscale>
<asrwt>0</asrwt>
<pdfrwt beam="1">  1       21 0.12016216E+00 0.74846180E+02</pdfrwt>
<pdfrwt beam="2">  1       21 0.21274869E-02 0.74846180E+02</pdfrwt>
<totfact> 0.59710729E+05</totfact>
</mgrwt>
</event>
<event>
 5    1  0.1708429E+000  0.7805154E+02  0.7546771E-02  0.1334674E+00
         21   -1    0    0  503  502  0.00000000000E+00  0.00000000000E+00  0.13665888328E+03  0.13665888328E+03  0.00000000000E+00 0.  1.
         21   -1    0    0  501  503 -0.00000000000E+00 -0.00000000000E+00 -0.10298745715E+03  0.10298745715E+03  0.00000000000E+00 0.  1.
         24    1    1    2    0    0  0.52844996459E+02  0.19932650387E+02  0.10595063252E+03  0.14450832740E+03  0.80419002446E+02 0.  1.
          1    1    1    2  501    0 -0.28241322508E+02 -0.40066816985E+01 -0.52598271800E+02  0.59834805854E+02  0.00000000000E+00 0. -1.
         -2    1    1    2    0  502 -0.24603673951E+02 -0.15925968688E+02 -0.19680934596E+02  0.35303207179E+02  0.00000000000E+00 0.  1.
<mgrwt>
<rscale>  2 0.78051544E+02</rscale>
<asrwt>0</asrwt>
<pdfrwt beam="1">  1       21 0.21024444E-01 0.78051544E+02</pdfrwt>
<pdfrwt beam="2">  1       21 0.15844224E-01 0.78051544E+02</pdfrwt>
<totfact> 0.74606844E+05</totfact>
</mgrwt>
</event>
<event>
 5    1  0.1708429E+000  0.1210377E+03  0.7546771E-02  0.1241395E+00
         21   -1    0    0  501  502  0.00000000000E+00  0.00000000000E+00  0.85291799473E+03  0.85291799473E+03  0.00000000000E+00 0. -1.
         21   -1    0    0  502  503 -0.00000000000E+00 -0.00000000000E+00 -0.89659330107E+02  0.89659330107E+02  0.00000000000E+00 0.  1.
         24    1    1    2    0    0  0.56627216802E+02  0.64519673976E+02  0.32045876321E+02  0.12191629980E+03  0.80419002446E+02 0.  0.
          1    1    1    2  501    0  0.24892549878E+02 -0.14748988502E+02  0.72432290483E+03  0.72490057399E+03  0.00000000000E+00 0. -1.
         -2    1    1    2    0  503 -0.81519766681E+02 -0.49770685474E+02  0.68898834725E+01  0.95760451056E+02  0.00000000000E+00 0.  1.
<mgrwt>
<rscale>  2 0.12103773E+03</rscale>
<asrwt>0</asrwt>
<pdfrwt beam="1">  1       21 0.13121815E+00 0.12103773E+03</pdfrwt>
<pdfrwt beam="2">  1       21 0.13793744E-01 0.12103773E+03</pdfrwt>
<totfact> 0.20315224E+04</totfact>
</mgrwt>
</event>
<event>
 5    1  0.1708429E+000  0.7146288E+02  0.7546771E-02  0.1355188E+00
         21   -1    0    0  503  502  0.00000000000E+00  0.00000000000E+00  0.29693443613E+03  0.29693443613E+03  0.00000000000E+00 0. -1.
         21   -1    0    0  501  503 -0.00000000000E+00 -0.00000000000E+00 -0.42527556411E+02  0.42527556411E+02  0.00000000000E+00 0. -1.
         24    1    1    2    0    0  0.12666462005E+02  0.12456643241E+02  0.21014180866E+03  0.22570423771E+03  0.80419002446E+02 0. -1.
          1    1    1    2  501    0 -0.34394502240E+02 -0.17005380591E+02 -0.21753763388E+02  0.44106586526E+02  0.00000000000E+00 0. -1.
         -2    1    1    2    0  502  0.21728040235E+02  0.45487373498E+01  0.66018834453E+02  0.69651168306E+02  0.00000000000E+00 0.  1.
<mgrwt>
<rscale>  2 0.71462883E+02</rscale>
<asrwt>0</asrwt>
<pdfrwt beam="1">  1       21 0.45682220E-01 0.71462883E+02</pdfrwt>
<pdfrwt beam="2">  1       21 0.65427012E-02 0.71462883E+02</pdfrwt>
<totfact> 0.78014154E+05</totfact>
</mgrwt>
</event>
<event>
 5    1  0.1708429E+000  0.6451127E+02  0.7546771E-02  0.1379819E+00
         21   -1    0    0  501  502  0.00000000000E+00  0.00000000000E+00  0.12018405665E+04  0.12018405665E+04  0.00000000000E+00 0. -1.
         21   -1    0    0  502  503 -0.00000000000E+00 -0.00000000000E+00 -0.17681479244E+02  0.17681479244E+02  0.00000000000E+00 0.  1.
         24    1    1    2    0    0  0.76706317856E+01 -0.35541837450E+02  0.35241452151E+03  0.36329777281E+03  0.80419002446E+02 0.  0.
          1    1    1    2  501    0 -0.12805755166E+02  0.15649092983E+02  0.83515373269E+03  0.83539849097E+03  0.00000000000E+00 0. -1.
         -2    1    1    2    0  503  0.51351233809E+01  0.19892744467E+02 -0.34091669647E+01  0.20825781953E+02  0.00000000000E+00 0.  1.
<mgrwt>
<rscale>  2 0.64511273E+02</rscale>
<asrwt>0</asrwt>
<pdfrwt beam="1">  1       21 0.18489848E+00 0.64511273E+02</pdfrwt>
<pdfrwt beam="2">  1       21 0.27202285E-02 0.64511273E+02</pdfrwt>
<totfact> 0.13640120E+05</totfact>
</mgrwt>
</event>
<event>
 5    1  0.1708429E+000  0.7801209E+02  0.7546771E-02  0.1334789E+00
         21   -1    0    0  503  502  0.00000000000E+00  0.00000000000E+00  0.66041318137E+02  0.66041318137E+02  0.00000000000E+00 0.  1.
         21   -1    0    0  501  503 -0.00000000000E+00 -0.00000000000E+00 -0.26360845214E+03  0.26360845214E+03  0.00000000000E+00 0.  1.
         24    1    1    2    0    0  0.12020992604E+02 -0.46016724079E+02 -0.18776796091E+03  0.20972855374E+03  0.80419002446E+02 0.  1.
          1    1    1    2  501    0  0.83649484116E+01  0.40665722109E+02 -0.55666178563E+02  0.69443478833E+02  0.00000000000E+00 0. -1.
         -2    1    1    2    0  502 -0.20385941016E+02  0.53510019700E+01  0.45867005465E+02  0.50477737702E+02  0.00000000000E+00 0.  1.
<mgrwt>
<rscale>  2 0.78012086E+02</rscale>
<asrwt>0</asrwt>
<pdfrwt beam="1">  1       21 0.10160203E-01 0.78012086E+02</pdfrwt>
<pdfrwt beam="2">  1       21 0.40555147E-01 0.78012086E+02</pdfrwt>
<totfact> 0.46782786E+05</totfact>
</mgrwt>
</event>
<event>
 5    1  0.1708429E+000  0.1153875E+03  0.7546771E-02  0.1250906E+00
         21   -1    0    0  501  502  0.00000000000E+00  0.00000000000E+00  0.26562228329E+03  0.26562228329E+03  0.00000000000E+00 0. -1.
         21   -1    0    0  502  503 -0.00000000000E+00 -0.00000000000E+00 -0.14762465095E+03  0.14762465095E+03  0.00000000000E+00 0.  1.
         24    1    1    2    0    0  0.44628181569E+01 -0.79356816400E+02 -0.57257565898E+01  0.11321405080E+03  0.80419002446E+02 0.  1.
          1    1    1    2  501    0  0.21896362317E+02 -0.10340857075E+02  0.18608376687E+03  0.18765274392E+03  0.00000000000E+00 0. -1.
         -2    1    1    2    0  503 -0.26359180474E+02  0.89697673474E+02 -0.62360377941E+02  0.11238013952E+03  0.00000000000E+00 0.  1.
<mgrwt>
<rscale>  2 0.11538753E+03</rscale>
<asrwt>0</asrwt>
<pdfrwt beam="1">  1       21 0.40864967E-01 0.11538753E+03</pdfrwt>
<pdfrwt beam="2">  1       21 0.22711485E-01 0.11538753E+03</pdfrwt>
<totfact> 0.10798368E+05</totfact>
</mgrwt>
</event>
<event>
 5    1  0.1708429E+000  0.8228414E+02  0.7546771E-02  0.1322692E+00
         21   -1    0    0  503  502  0.00000000000E+00  0.00000000000E+00  0.11636644778E+03  0.11636644778E+03  0.00000000000E+00 0.  1.
         21   -1    0    0  501  503 -0.00000000000E+00 -0.00000000000E+00 -0.26819251846E+03  0.26819251846E+03  0.00000000000E+00 0. -1.
         24    1    1    2    0    0  0.21403849244E+02 -0.77149812641E+01 -0.12726485772E+03  0.15225375419E+03  0.80419002446E+02 0. -1.
          1    1    1    2  501    0 -0.32025254767E+02 -0.28734925942E+02 -0.12112810375E+03  0.12854310728E+03  0.00000000000E+00 0. -1.
         -2    1    1    2    0  502  0.10621405523E+02  0.36449907207E+02  0.96566890784E+02  0.10376210477E+03  0.00000000000E+00 0.  1.
<mgrwt>
<rscale>  2 0.82284138E+02</rscale>
<asrwt>0</asrwt>
<pdfrwt beam="1">  1       21 0.17902530E-01 0.82284138E+02</pdfrwt>
<pdfrwt beam="2">  1       21 0.41260388E-01 0.82284138E+02</pdfrwt>
<totfact> 0.16621001E+05</totfact>
</mgrwt>
</event>
<event>
 5    1  0.1708429E+000  0.8311308E+02  0.7546771E-02  0.1320442E+00
         21   -1    0    0  501  502  0.00000000000E+00  0.00000000000E+00  0.48288328205E+03  0.48288328205E+03  0.00000000000E+00 0. -1.
         21   -1    0    0  502  503 -0.00000000000E+00 -0.00000000000E+00 -0.41718529153E+02  0.41718529153E+02  0.00000000000E+00 0. -1.
         24    1    1    2    0    0 -0.30333278432E+02  0.54604912586E+02  0.79898268891E+02  0.12943242865E+03  0.80419002446E+02 0. -1.
          1    1    1    2  501    0  0.27509647559E+02 -0.34642648227E+02  0.37040268325E+03  0.37303490660E+03  0.00000000000E+00 0. -1.
         -2    1    1    2    0  503  0.28236308729E+01 -0.19962264359E+02 -0.91361992372E+01  0.22134475962E+02  0.00000000000E+00 0.  1.
<mgrwt>
<rscale>  2 0.83113076E+02</rscale>
<asrwt>0</asrwt>
<pdfrwt beam="1">  1       21 0.74289731E-01 0.83113076E+02</pdfrwt>
<pdfrwt beam="2">  1       21 0.64182356E-02 0.83113076E+02</pdfrwt>
<totfact> 0.29261275E+05</totfact>
</mgrwt>
</event>
<event>
 5    1  0.1708429E+000  0.7528902E+02  0.7546771E-02  0.1342978E+00
         21   -1    0    0  503  502  0.00000000000E+00  0.00000000000E+00  0.13051138168E+03  0.13051138168E+03  0.00000000000E+00 0.  1.
         21   -1    0    0  501  503 -0.00000000000E+00 -0.00000000000E+00 -0.96834502818E+02  0.96834502818E+02  0.00000000000E+00 0. -1.
         24    1    1    2    0    0  0.10766075764E+02 -0.45541185594E+02  0.16979087385E+02  0.94580195260E+02  0.80419002446E+02 0.  1.
          1    1    1    2  501    0 -0.18398251801E+02  0.95235751801E+01 -0.51363664289E+02  0.55384295272E+02  0.00000000000E+00 0. -1.
         -2    1    1    2    0  502  0.76321760375E+01  0.36017610414E+02  0.68061455762E+02  0.77381393961E+02  0.00000000000E+00 0.  1.
<mgrwt>
<rscale>  2 0.75289017E+02</rscale>
<asrwt>0</asrwt>
<pdfrwt beam="1">  1       21 0.20078674E-01 0.75289017E+02</pdfrwt>
<pdfrwt beam="2">  1       21 0.14897616E-01 0.75289017E+02</pdfrwt>
<totfact> 0.90501248E+05</totfact>
</mgrwt>
</event>
<event>
 5    1  0.1708429E+000  0.7310227E+02  0.7546771E-02  0.1349850E+00
         21   -1    0    0  503  502  0.00000000000E+00  0.00000000000E+00  0.82804065505E+02  0.82804065505E+02  0.00000000000E+00 0.  1.
         21   -1    0    0  501  503 -0.00000000000E+00 -0.00000000000E+00 -0.64785523733E+02  0.64785523733E+02  0.00000000000E+00 0. -1.
         24    1    1    2    0    0 -0.19187404670E+02 -0.11121291282E+02  0.12876619339E+02  0.84408902953E+02  0.80419002446E+02 0.  0.
          1    1    1    2  501    0 -0.15115982197E+02  0.22092152612E+02 -0.21507628506E+00  0.26769430001E+02  0.00000000000E+00 0. -1.
         -2    1    1    2    0  502  0.34303386867E+02 -0.10970861330E+02  0.53569987188E+01  0.36411256283E+02  0.00000000000E+00 0.  1.
<mgrwt>
<rscale>  2 0.73102273E+02</rscale>
<asrwt>0</asrwt>
<pdfrwt beam="1">  1       21 0.12739087E-01 0.73102273E+02</pdfrwt>
<pdfrwt beam="2">  1       21 0.99670036E-02 0.73102273E+02</pdfrwt>
<totfact> 0.41093650E+06</totfact>
</mgrwt>
</event>
<event>
 5    1  0.1708429E+000  0.8640763E+02  0.7546771E-02  0.1311792E+00
         21   -1    0    0  503  502  0.00000000000E+00  0.00000000000E+00  0.14563657993E+03  0.14563657993E+03  0.00000000000E+00 0.  1.
         21   -1    0    0  501  503 -0.00000000000E+00 -0.00000000000E+00 -0.78988265423E+02  0.78988265423E+02  0.00000000000E+00 0.  1.
         24    1    1    2    0    0 -0.19754913516E+02  0.60882196940E+02  0.84186274045E+02  0.13285873402E+03  0.80419002446E+02 0.  0.
          1    1    1    2  501    0  0.24079946893E+02 -0.28268855016E+02 -0.37912506171E+02  0.53069107119E+02  0.00000000000E+00 0. -1.
         -2    1    1    2    0  502 -0.43250333766E+01 -0.32613341925E+02  0.20374546637E+02  0.38697004223E+02  0.00000000000E+00 0.  1.
<mgrwt>
<rscale>  2 0.86407633E+02</rscale>
<asrwt>0</asrwt>
<pdfrwt beam="1">  1       21 0.22405628E-01 0.86407633E+02</pdfrwt>
<pdfrwt beam="2">  1       21 0.12152041E-01 0.86407633E+02</pdfrwt>
<totfact> 0.10633478E+06</totfact>
</mgrwt>
</event>
<event>
 5    1  0.1708429E+000  0.1252996E+03  0.7546771E-02  0.1234602E+00
         21   -1    0    0  501  502  0.00000000000E+00  0.00000000000E+00  0.19860822417E+04  0.19860822417E+04  0.00000000000E+00 0. -1.
         21   -1    0    0  502  503 -0.00000000000E+00 -0.00000000000E+00 -0.15446456382E+02  0.15446456382E+02  0.00000000000E+00 0.  1.
         24    1    1    2    0    0 -0.48830132287E+02 -0.11011308966E+02  0.13447356850E+04  0.13480678429E+04  0.80419002446E+02 0. -1.
          1    1    1    2  501    0  0.69591091830E+02 -0.53708243014E+02  0.52169209668E+03  0.52904644330E+03  0.00000000000E+00 0. -1.
         -2    1    1    2    0  503 -0.20760959543E+02  0.64719551980E+02  0.10420800368E+03  0.12441441187E+03  0.00000000000E+00 0.  1.
<mgrwt>
<rscale>  2 0.12529960E+03</rscale>
<asrwt>0</asrwt>
<pdfrwt beam="1">  1       21 0.30555091E+00 0.12529960E+03</pdfrwt>
<pdfrwt beam="2">  1       21 0.23763795E-02 0.12529960E+03</pdfrwt>
<totfact> 0.31775464E+04</totfact>
</mgrwt>
</event>
<event>
 5    1  0.1708429E+000  0.9004219E+02  0.7546771E-02  0.1302750E+00
         21   -1    0    0  503  502  0.00000000000E+00  0.00000000000E+00  0.12770021910E+02  0.12770021910E+02  0.00000000000E+00 0. -1.
         21   -1    0    0  501  503 -0.00000000000E+00 -0.00000000000E+00 -0.10027839666E+04  0.10027839666E+04  0.00000000000E+00 0.  1.
         24    1    1    2    0    0  0.38044946058E+00 -0.49617352982E+02 -0.75501978898E+03  0.76091006312E+03  0.80419002446E+02 0.  0.
          1    1    1    2  501    0  0.23867696748E+02 -0.62624757777E+01 -0.13741220063E+03  0.13961016594E+03  0.00000000000E+00 0. -1.
         -2    1    1    2    0  502 -0.24248146208E+02  0.55879828760E+02 -0.97581955113E+02  0.11503375948E+03  0.00000000000E+00 0.  1.
<mgrwt>
<rscale>  2 0.90042189E+02</rscale>
<asrwt>0</asrwt>
<pdfrwt beam="1">  1       21 0.19646190E-02 0.90042189E+02</pdfrwt>
<pdfrwt beam="2">  1       21 0.15427443E+00 0.90042189E+02</pdfrwt>
<totfact> 0.36397451E+05</totfact>
</mgrwt>
</event>
<event>
 5    1  0.1708429E+000  0.6261720E+02  0.7546771E-02  0.1387166E+00
         21   -1    0    0  501  502  0.00000000000E+00  0.00000000000E+00  0.22661673308E+02  0.22661673308E+02  0.00000000000E+00 0. -1.
         21   -1    0    0  502  503 -0.00000000000E+00 -0.00000000000E+00 -0.19719515646E+03  0.19719515646E+03  0.00000000000E+00 0. -1.
         24    1    1    2    0    0 -0.23724701827E+02 -0.19014821739E+01 -0.13529095832E+03  0.15917706012E+03  0.80419002446E+02 0. -1.
          1    1    1    2  501    0  0.13245655188E+02 -0.15909881437E+02 -0.60288810834E+01  0.21561983114E+02  0.00000000000E+00 0. -1.
         -2    1    1    2    0  503  0.10479046639E+02  0.17811363611E+02 -0.33213643753E+02  0.39117786537E+02  0.00000000000E+00 0.  1.
<mgrwt>
<rscale>  2 0.62617200E+02</rscale>
<asrwt>0</asrwt>
<pdfrwt beam="1">  1       21 0.34864113E-02 0.62617200E+02</pdfrwt>
<pdfrwt beam="2">  1       21 0.30337716E-01 0.62617200E+02</pdfrwt>
<totfact> 0.48444894E+06</totfact>
</mgrwt>
</event>
<event>
 5    1  0.1708429E+000  0.7831082E+02  0.7546771E-02  0.1333915E+00
         21   -1    0    0  503  502  0.00000000000E+00  0.00000000000E+00  0.40850289500E+03  0.40850289500E+03  0.00000000000E+00 0.  1.
         21   -1    0    0  501  503 -0.00000000000E+00 -0.00000000000E+00 -0.42300728940E+02  0.42300728940E+02  0.00000000000E+00 0.  1.
         24    1    1    2    0    0 -0.47307315767E+02 -0.33301345516E+01  0.94010685529E+02  0.13249262949E+03  0.80419002446E+02 0.  1.
          1    1    1    2  501    0  0.15246896344E+02 -0.18873177039E+02 -0.14972955919E+02  0.28510595726E+02  0.00000000000E+00 0. -1.
         -2    1    1    2    0  502  0.32060419423E+02  0.22203311591E+02  0.28716443645E+03  0.28980039873E+03  0.00000000000E+00 0.  1.
<mgrwt>
<rscale>  2 0.78310824E+02</rscale>
<asrwt>0</asrwt>
<pdfrwt beam="1">  1       21 0.62846596E-01 0.78310824E+02</pdfrwt>
<pdfrwt beam="2">  1       21 0.65078047E-02 0.78310824E+02</pdfrwt>
<totfact> 0.40925270E+05</totfact>
</mgrwt>
</event>
<event>
 5    1  0.1728202E+000  0.2015310E+03  0.7546771E-02  0.1148454E+00
         21   -1    0    0  501  502  0.00000000000E+00  0.00000000000E+00  0.69277946713E+03  0.69277946713E+03  0.00000000000E+00 0.  1.
         21   -1    0    0  502  503 -0.00000000000E+00 -0.00000000000E+00 -0.15880910153E+03  0.15880910153E+03  0.00000000000E+00 0. -1.
         24    1    1    2    0    0  0.65398274235E+02  0.81944187673E+02  0.10740726233E+03  0.17028012251E+03  0.80419002446E+02 0. -1.
          1    1    1    2  501    0 -0.12269453544E+03  0.45768518493E+02  0.50441661875E+03  0.52113801587E+03  0.00000000000E+00 0. -1.
         -2    1    1    2    0  503  0.57296261208E+02 -0.12771270617E+03 -0.77853515479E+02  0.16017043028E+03  0.00000000000E+00 0.  1.
<mgrwt>
<rscale>  2 0.20153100E+03</rscale>
<asrwt>0</asrwt>
<pdfrwt beam="1">  1       21 0.10658145E+00 0.20153100E+03</pdfrwt>
<pdfrwt beam="2">  1       21 0.24432170E-01 0.20153100E+03</pdfrwt>
<totfact> 0.11084861E+04</totfact>
</mgrwt>
</event>
<event>
 5    1  0.1708429E+000  0.9070253E+02  0.7546771E-02  0.1301159E+00
         21   -1    0    0  503  502  0.00000000000E+00  0.00000000000E+00  0.36939282501E+02  0.36939282501E+02  0.00000000000E+00 0.  1.
         21   -1    0    0  501  503 -0.00000000000E+00 -0.00000000000E+00 -0.72553567402E+03  0.72553567402E+03  0.00000000000E+00 0. -1.
         24    1    1    2    0    0 -0.22096540200E+02 -0.36879961856E+00 -0.71922798382E+02  0.11012946011E+03  0.80419002446E+02 0.  0.
          1    1    1    2  501    0  0.27278408886E+02  0.45244116831E+02 -0.60276988905E+03  0.60508072258E+03  0.00000000000E+00 0. -1.
         -2    1    1    2    0  502 -0.51818686856E+01 -0.44875317213E+02 -0.13903704091E+02  0.47264773833E+02  0.00000000000E+00 0.  1.
<mgrwt>
<rscale>  2 0.90702530E+02</rscale>
<asrwt>0</asrwt>
<pdfrwt beam="1">  1       21 0.56829667E-02 0.90702530E+02</pdfrwt>
<pdfrwt beam="2">  1       21 0.11162087E+00 0.90702530E+02</pdfrwt>
<totfact> 0.14225759E+05</totfact>
</mgrwt>
</event>
<event>
 5    1  0.1708429E+000  0.1513744E+03  0.7546771E-02  0.1198794E+00
         21   -1    0    0  503  502  0.00000000000E+00  0.00000000000E+00  0.22788136752E+02  0.22788136752E+02  0.00000000000E+00 0. -1.
         21   -1    0    0  501  503 -0.00000000000E+00 -0.00000000000E+00 -0.10588334255E+04  0.10588334255E+04  0.00000000000E+00 0. -1.
         24    1    1    2    0    0 -0.10034990769E+03 -0.52498355271E+02 -0.59838932675E+03  0.61429893668E+03  0.80419002446E+02 0. -1.
          1    1    1    2  501    0  0.10260605236E+03 -0.83617283128E+01 -0.27666465709E+03  0.29519697316E+03  0.00000000000E+00 0. -1.
         -2    1    1    2    0  502 -0.22561446730E+01  0.60860083584E+02 -0.16099130489E+03  0.17212565240E+03  0.00000000000E+00 0.  1.
<mgrwt>
<rscale>  2 0.15137438E+03</rscale>
<asrwt>0</asrwt>
<pdfrwt beam="1">  1       21 0.35058684E-02 0.15137438E+03</pdfrwt>
<pdfrwt beam="2">  1       21 0.16289739E+00 0.15137438E+03</pdfrwt>
<totfact> 0.11953048E+05</totfact>
</mgrwt>
</event>
<event>
 5    1  0.1708429E+000  0.7294511E+02  0.7546771E-02  0.1350355E+00
         21   -1    0    0  503  502  0.00000000000E+00  0.00000000000E+00  0.78098264459E+03  0.78098264459E+03  0.00000000000E+00 0.  1.
         21   -1    0    0  501  503 -0.00000000000E+00 -0.00000000000E+00 -0.86590272436E+01  0.86590272436E+01  0.00000000000E+00 0.  1.
         24    1    1    2    0    0  0.18495540429E+02  0.44041984270E+02  0.44732475888E+03  0.45699938431E+03  0.80419002446E+02 0.  1.
          1    1    1    2  501    0 -0.18483048442E+02 -0.16393512492E+02  0.45461045910E+02  0.51740477643E+02  0.00000000000E+00 0. -1.
         -2    1    1    2    0  502 -0.12491987349E-01 -0.27648471778E+02  0.27953781256E+03  0.28090180989E+03  0.00000000000E+00 0.  1.
<mgrwt>
<rscale>  2 0.72945112E+02</rscale>
<asrwt>0</asrwt>
<pdfrwt beam="1">  1       21 0.12015112E+00 0.72945112E+02</pdfrwt>
<pdfrwt beam="2">  1       21 0.13321587E-02 0.72945112E+02</pdfrwt>
<totfact> 0.12522508E+06</totfact>
</mgrwt>
</event>
<event>
 5    1  0.1708429E+000  0.1846197E+03  0.7546771E-02  0.1163406E+00
         21   -1    0    0  501  502  0.00000000000E+00  0.00000000000E+00  0.12156560943E+03  0.12156560943E+03  0.00000000000E+00 0. -1.
         21   -1    0    0  502  503 -0.00000000000E+00 -0.00000000000E+00 -0.11558052111E+04  0.11558052111E+04  0.00000000000E+00 0.  1.
         24    1    1    2    0    0  0.67963585846E+02 -0.58801646553E+02 -0.79016144855E+02  0.14417853426E+03  0.80419002446E+02 0.  0.
          1    1    1    2  501    0 -0.22093713567E+02  0.14730745846E+03  0.22285968655E+02  0.15061302698E+03  0.00000000000E+00 0. -1.
         -2    1    1    2    0  503 -0.45869872279E+02 -0.88505811907E+02 -0.97750942545E+03  0.98257925928E+03  0.00000000000E+00 0.  1.
<mgrwt>
<rscale>  2 0.18461965E+03</rscale>
<asrwt>0</asrwt>
<pdfrwt beam="1">  1       21 0.18702402E-01 0.18461965E+03</pdfrwt>
<pdfrwt beam="2">  1       21 0.17781618E+00 0.18461965E+03</pdfrwt>
<totfact> 0.49610119E+03</totfact>
</mgrwt>
</event>
<event>
 5    1  0.1708429E+000  0.8213003E+02  0.7546771E-02  0.1323113E+00
         21   -1    0    0  501  502  0.00000000000E+00  0.00000000000E+00  0.16154105282E+02  0.16154105282E+02  0.00000000000E+00 0.  1.
         21   -1    0    0  502  503 -0.00000000000E+00 -0.00000000000E+00 -0.59715247870E+03  0.59715247870E+03  0.00000000000E+00 0.  1.
         24    1    1    2    0    0 -0.14567857881E+01 -0.60215879511E+02 -0.34610028617E+03  0.36038964804E+03  0.80419002446E+02 0.  1.
          1    1    1    2  501    0  0.11167087292E+02  0.36084321758E+02 -0.35523629344E+02  0.51852775789E+02  0.00000000000E+00 0. -1.
         -2    1    1    2    0  503 -0.97103015036E+01  0.24131557754E+02 -0.19937445790E+03  0.20106416015E+03  0.00000000000E+00 0.  1.
<mgrwt>
<rscale>  2 0.82130025E+02</rscale>
<asrwt>0</asrwt>
<pdfrwt beam="1">  1       21 0.24852473E-02 0.82130025E+02</pdfrwt>
<pdfrwt beam="2">  1       21 0.91869600E-01 0.82130025E+02</pdfrwt>
<totfact> 0.86900250E+05</totfact>
</mgrwt>
</event>
<event>
 5    1  0.1708429E+000  0.1091485E+03  0.7546771E-02  0.1262155E+00
         21   -1    0    0  503  502  0.00000000000E+00  0.00000000000E+00  0.25409516417E+02  0.25409516417E+02  0.00000000000E+00 0. -1.
         21   -1    0    0  501  503 -0.00000000000E+00 -0.00000000000E+00 -0.50599652854E+03  0.50599652854E+03  0.00000000000E+00 0.  1.
         24    1    1    2    0    0 -0.81106732680E+02  0.13509801830E+02 -0.27205334813E+03  0.29536597132E+03  0.80419002446E+02 0. -1.
          1    1    1    2  501    0  0.24940403644E+02  0.24897947152E+02 -0.11565022922E+03  0.12090040126E+03  0.00000000000E+00 0. -1.
         -2    1    1    2    0  502  0.56166329036E+02 -0.38407748983E+02 -0.92883434774E+02  0.11513967238E+03  0.00000000000E+00 0.  1.
<mgrwt>
<rscale>  2 0.10914848E+03</rscale>
<asrwt>0</asrwt>
<pdfrwt beam="1">  1       21 0.39091563E-02 0.10914848E+03</pdfrwt>
<pdfrwt beam="2">  1       21 0.77845621E-01 0.10914848E+03</pdfrwt>
<totfact> 0.60163618E+05</totfact>
</mgrwt>
</event>
<event>
 5    1  0.1708429E+000  0.8097263E+02  0.7546771E-02  0.1326314E+00
         21   -1    0    0  503  502  0.00000000000E+00  0.00000000000E+00  0.34630406051E+02  0.34630406051E+02  0.00000000000E+00 0. -1.
         21   -1    0    0  501  503 -0.00000000000E+00 -0.00000000000E+00 -0.16888421255E+04  0.16888421255E+04  0.00000000000E+00 0. -1.
         24    1    1    2    0    0 -0.51945517915E+02  0.88880462545E+01 -0.21239297334E+03  0.23314228547E+03  0.80419002446E+02 0. -1.
          1    1    1    2  501    0  0.43961628954E+02  0.10179778852E+02 -0.14612576797E+04  0.14619542603E+04  0.00000000000E+00 0. -1.
         -2    1    1    2    0  502  0.79838889609E+01 -0.19067825106E+02  0.19438933513E+02  0.28375985857E+02  0.00000000000E+00 0.  1.
<mgrwt>
<rscale>  2 0.80972634E+02</rscale>
<asrwt>0</asrwt>
<pdfrwt beam="1">  1       21 0.53277555E-02 0.80972634E+02</pdfrwt>
<pdfrwt beam="2">  1       21 0.25982183E+00 0.80972634E+02</pdfrwt>
<totfact> 0.16270056E+04</totfact>
</mgrwt>
</event>
<event>
 5    1  0.1708429E+000  0.1022099E+03  0.7546771E-02  0.1275716E+00
         21   -1    0    0  501  502  0.00000000000E+00  0.00000000000E+00  0.96283387176E+03  0.96283387176E+03  0.00000000000E+00 0. -1.
         21   -1    0    0  502  503 -0.00000000000E+00 -0.00000000000E+00 -0.30764554604E+02  0.30764554604E+02  0.00000000000E+00 0.  1.
         24    1    1    2    0    0  0.19160971697E+02 -0.18316059896E+02  0.55496530646E+03  0.56138785898E+03  0.80419002446E+02 0.  0.
          1    1    1    2  501    0 -0.12516759983E+02 -0.49777961448E+02  0.35732347914E+03  0.36099111273E+03  0.00000000000E+00 0. -1.
         -2    1    1    2    0  503 -0.66442117143E+01  0.68094021344E+02  0.19780531561E+02  0.71219454652E+02  0.00000000000E+00 0.  1.
<mgrwt>
<rscale>  2 0.10220991E+03</rscale>
<asrwt>0</asrwt>
<pdfrwt beam="1">  1       21 0.14812826E+00 0.10220991E+03</pdfrwt>
<pdfrwt beam="2">  1       21 0.47330091E-02 0.10220991E+03</pdfrwt>
<totfact> 0.95726133E+04</totfact>
</mgrwt>
</event>
<event>
 5    1  0.1708429E+000  0.8217954E+02  0.7546771E-02  0.1322978E+00
         21   -1    0    0  501  502  0.00000000000E+00  0.00000000000E+00  0.60640050840E+02  0.60640050840E+02  0.00000000000E+00 0. -1.
         21   -1    0    0  502  503 -0.00000000000E+00 -0.00000000000E+00 -0.22533710060E+03  0.22533710060E+03  0.00000000000E+00 0.  1.
         24    1    1    2    0    0  0.10508981173E+02 -0.43359024149E+02 -0.15451326373E+03  0.17981103493E+03  0.80419002446E+02 0.  1.
          1    1    1    2  501    0  0.23701102750E+02  0.16115794871E+02  0.33681168681E+02  0.44225357428E+02  0.00000000000E+00 0. -1.
         -2    1    1    2    0  503 -0.34210083923E+02  0.27243229278E+02 -0.43864954707E+02  0.61940759076E+02  0.00000000000E+00 0.  1.
<mgrwt>
<rscale>  2 0.82179542E+02</rscale>
<asrwt>0</asrwt>
<pdfrwt beam="1">  1       21 0.93292385E-02 0.82179542E+02</pdfrwt>
<pdfrwt beam="2">  1       21 0.34667247E-01 0.82179542E+02</pdfrwt>
<totfact> 0.73667355E+05</totfact>
</mgrwt>
</event>
<event>
 5    1  0.1708429E+000  0.1044137E+03  0.7546771E-02  0.1271279E+00
         21   -1    0    0  503  502  0.00000000000E+00  0.00000000000E+00  0.81717801099E+03  0.81717801099E+03  0.00000000000E+00 0. -1.
         21   -1    0    0  501  503 -0.00000000000E+00 -0.00000000000E+00 -0.14266278119E+02  0.14266278119E+02  0.00000000000E+00 0. -1.
         24    1    1    2    0    0 -0.35040834142E+02 -0.23880332040E+02  0.34740311389E+03  0.35910203259E+03  0.80419002446E+02 0. -1.
          1    1    1    2  501    0  0.53278231904E+02  0.58289646196E+02  0.22242816559E+03  0.23603080667E+03  0.00000000000E+00 0. -1.
         -2    1    1    2    0  502 -0.18237397762E+02 -0.34409314156E+02  0.23308045338E+03  0.23631144984E+03  0.00000000000E+00 0.  1.
<mgrwt>
<rscale>  2 0.10441375E+03</rscale>
<asrwt>0</asrwt>
<pdfrwt beam="1">  1       21 0.12571966E+00 0.10441375E+03</pdfrwt>
<pdfrwt beam="2">  1       21 0.21948127E-02 0.10441375E+03</pdfrwt>
<totfact> 0.50692800E+05</totfact>
</mgrwt>
</event>
<event>
 5    1  0.1708429E+000  0.7768571E+02  0.7546771E-02  0.1335750E+00
         21   -1    0    0  503  502  0.00000000000E+00  0.00000000000E+00  0.90437216294E+02  0.90437216294E+02  0.00000000000E+00 0.  1.
         21   -1    0    0  501  503 -0.00000000000E+00 -0.00000000000E+00 -0.35457783617E+03  0.35457783617E+03  0.00000000000E+00 0.  1.
         24    1    1    2    0    0  0.45796764643E+02  0.26729101771E+02 -0.16419377440E+03  0.19036438753E+03  0.80419002446E+02 0.  1.
          1    1    1    2  501    0 -0.78566720085E+01 -0.18672056668E+02 -0.17180388151E+03  0.17299406549E+03  0.00000000000E+00 0. -1.
         -2    1    1    2    0  502 -0.37940092635E+02 -0.80570451023E+01  0.71857036032E+02  0.81656599440E+02  0.00000000000E+00 0.  1.
<mgrwt>
<rscale>  2 0.77685710E+02</rscale>
<asrwt>0</asrwt>
<pdfrwt beam="1">  1       21 0.13913418E-01 0.77685710E+02</pdfrwt>
<pdfrwt beam="2">  1       21 0.54550437E-01 0.77685710E+02</pdfrwt>
<totfact> 0.14865409E+05</totfact>
</mgrwt>
</event>
<event>
 5    1  0.1708429E+000  0.7188583E+02  0.7546771E-02  0.1353795E+00
         21   -1    0    0  501  502  0.00000000000E+00  0.00000000000E+00  0.24346391911E+03  0.24346391911E+03  0.00000000000E+00 0. -1.
         21   -1    0    0  502  503 -0.00000000000E+00 -0.00000000000E+00 -0.17758121391E+03  0.17758121391E+03  0.00000000000E+00 0.  1.
         24    1    1    2    0    0  0.38122615329E+02  0.36026358358E+01 -0.44226315382E+02  0.99445943664E+02  0.80419002446E+02 0. -1.
          1    1    1    2  501    0 -0.28051637385E+02  0.16265680761E+02  0.21344278730E+03  0.21589184834E+03  0.00000000000E+00 0. -1.
         -2    1    1    2    0  503 -0.10070977944E+02 -0.19868316597E+02 -0.10333376672E+03  0.10570734102E+03  0.00000000000E+00 0.  1.
<mgrwt>
<rscale>  2 0.71885832E+02</rscale>
<asrwt>0</asrwt>
<pdfrwt beam="1">  1       21 0.37455988E-01 0.71885832E+02</pdfrwt>
<pdfrwt beam="2">  1       21 0.27320187E-01 0.71885832E+02</pdfrwt>
<totfact> 0.92813390E+04</totfact>
</mgrwt>
</event>
<event>
 5    1  0.1708429E+000  0.1348561E+03  0.7546771E-02  0.1220423E+00
         21   -1    0    0  501  502  0.00000000000E+00  0.00000000000E+00  0.70185633106E+03  0.70185633106E+03  0.00000000000E+00 0. -1.
         21   -1    0    0  502  503 -0.00000000000E+00 -0.00000000000E+00 -0.10456505070E+03  0.10456505070E+03  0.00000000000E+00 0.  1.
         24    1    1    2    0    0 -0.44859650046E+02 -0.88151492776E+02  0.16113430096E+03  0.20546180370E+03  0.80419002446E+02 0. -1.
          1    1    1    2  501    0  0.76502078940E+02  0.45099799735E+02  0.50560055169E+03  0.51334050872E+03  0.00000000000E+00 0. -1.
         -2    1    1    2    0  503 -0.31642428895E+02  0.43051693041E+02 -0.69443572291E+02  0.87619069344E+02  0.00000000000E+00 0.  1.
<mgrwt>
<rscale>  2 0.13485612E+03</rscale>
<asrwt>0</asrwt>
<pdfrwt beam="1">  1       21 0.10797789E+00 0.13485612E+03</pdfrwt>
<pdfrwt beam="2">  1       21 0.16086931E-01 0.13485612E+03</pdfrwt>
<totfact> 0.24476885E+04</totfact>
</mgrwt>
</event>
<event>
 5    1  0.1708429E+000  0.7859504E+02  0.7546771E-02  0.1333086E+00
         21   -1    0    0  501  502  0.00000000000E+00  0.00000000000E+00  0.16936118768E+02  0.16936118768E+02  0.00000000000E+00 0.  1.
         21   -1    0    0  502  503 -0.00000000000E+00 -0.00000000000E+00 -0.72919173229E+03  0.72919173229E+03  0.00000000000E+00 0.  1.
         24    1    1    2    0    0  0.19872052568E+02  0.25206878591E+02 -0.56332291001E+03  0.56993877048E+03  0.80419002446E+02 0.  1.
          1    1    1    2  501    0  0.18624515617E+02 -0.26137380052E+02 -0.12527309069E+02  0.34452411969E+02  0.00000000000E+00 0. -1.
         -2    1    1    2    0  503 -0.38496568184E+02  0.93050146121E+00 -0.13640539445E+03  0.14173666861E+03  0.00000000000E+00 0.  1.
<mgrwt>
<rscale>  2 0.78595043E+02</rscale>
<asrwt>0</asrwt>
<pdfrwt beam="1">  1       21 0.26055578E-02 0.78595043E+02</pdfrwt>
<pdfrwt beam="2">  1       21 0.11218330E+00 0.78595043E+02</pdfrwt>
<totfact> 0.50755332E+05</totfact>
</mgrwt>
</event>
<event>
 5    1  0.1708429E+000  0.1091480E+03  0.7546771E-02  0.1262156E+00
         21   -1    0    0  501  502  0.00000000000E+00  0.00000000000E+00  0.81618136456E+03  0.81618136456E+03  0.00000000000E+00 0. -1.
         21   -1    0    0  502  503 -0.00000000000E+00 -0.00000000000E+00 -0.60831515677E+02  0.60831515677E+02  0.00000000000E+00 0. -1.
         24    1    1    2    0    0  0.74827287498E+02 -0.55559898241E+02  0.81833259506E+02  0.14781719644E+03  0.80419002446E+02 0. -1.
          1    1    1    2  501    0 -0.58230770881E+02  0.32195584059E+02  0.69193603077E+03  0.69512793714E+03  0.00000000000E+00 0. -1.
         -2    1    1    2    0  503 -0.16596516617E+02  0.23364314182E+02 -0.18419441397E+02  0.34067746659E+02  0.00000000000E+00 0.  1.
<mgrwt>
<rscale>  2 0.10914800E+03</rscale>
<asrwt>0</asrwt>
<pdfrwt beam="1">  1       21 0.12556636E+00 0.10914800E+03</pdfrwt>
<pdfrwt beam="2">  1       21 0.93586953E-02 0.10914800E+03</pdfrwt>
<totfact> 0.45262268E+04</totfact>
</mgrwt>
</event>
<event>
 5    1  0.1708429E+000  0.7380707E+02  0.7546771E-02  0.1347605E+00
         21   -1    0    0  501  502  0.00000000000E+00  0.00000000000E+00  0.12209790977E+04  0.12209790977E+04  0.00000000000E+00 0. -1.
         21   -1    0    0  502  503 -0.00000000000E+00 -0.00000000000E+00 -0.10242689799E+02  0.10242689799E+02  0.00000000000E+00 0.  1.
         24    1    1    2    0    0 -0.47703218898E+02 -0.57251409681E+01  0.57366573037E+03  0.58126410562E+03  0.80419002446E+02 0. -1.
          1    1    1    2  501    0  0.23833203583E+02  0.15185231717E+02  0.61625803105E+03  0.61690564407E+03  0.00000000000E+00 0. -1.
         -2    1    1    2    0  503  0.23870015315E+02 -0.94600907488E+01  0.20812646435E+02  0.33052037755E+02  0.00000000000E+00 0.  1.
<mgrwt>
<rscale>  2 0.73807066E+02</rscale>
<asrwt>0</asrwt>
<pdfrwt beam="1">  1       21 0.18784282E+00 0.73807066E+02</pdfrwt>
<pdfrwt beam="2">  1       21 0.15757994E-02 0.73807066E+02</pdfrwt>
<totfact> 0.30915999E+05</totfact>
</mgrwt>
</event>
<event>
 5    1  0.1708429E+000  0.1020110E+03  0.7546771E-02  0.1276123E+00
         21   -1    0    0  501  502  0.00000000000E+00  0.00000000000E+00  0.10604116490E+03  0.10604116490E+03  0.00000000000E+00 0.  1.
         21   -1    0    0  502  503 -0.00000000000E+00 -0.00000000000E+00 -0.26268686308E+03  0.26268686308E+03  0.00000000000E+00 0.  1.
         24    1    1    2    0    0 -0.52665135667E+02  0.37201349026E+02  0.19179035028E+02  0.10484563998E+03  0.80419002446E+02 0.  1.
          1    1    1    2  501    0  0.11850780638E+02  0.24356405096E+02  0.32818075921E+02  0.42552339278E+02  0.00000000000E+00 0. -1.
         -2    1    1    2    0  503  0.40814355029E+02 -0.61557754122E+02 -0.20864280912E+03  0.22133004872E+03  0.00000000000E+00 0.  1.
<mgrwt>
<rscale>  2 0.10201105E+03</rscale>
<asrwt>0</asrwt>
<pdfrwt beam="1">  1       21 0.16314025E-01 0.10201105E+03</pdfrwt>
<pdfrwt beam="2">  1       21 0.40413364E-01 0.10201105E+03</pdfrwt>
<totfact> 0.20350973E+05</totfact>
</mgrwt>
</event>
<event>
 5    1  0.1708429E+000  0.1386677E+03  0.7546771E-02  0.1215133E+00
         21   -1    0    0  503  502  0.00000000000E+00  0.00000000000E+00  0.35050606845E+03  0.35050606845E+03  0.00000000000E+00 0. -1.
         21   -1    0    0  501  503 -0.00000000000E+00 -0.00000000000E+00 -0.81131620289E+02  0.81131620289E+02  0.00000000000E+00 0. -1.
         24    1    1    2    0    0 -0.94070542622E+01 -0.10552213869E+03  0.47560195100E+02  0.14125368150E+03  0.80419002446E+02 0. -1.
          1    1    1    2  501    0 -0.34780909147E+01  0.12275921205E+03  0.79148247497E+02  0.14610395731E+03  0.00000000000E+00 0. -1.
         -2    1    1    2    0  502  0.12885145177E+02 -0.17237073365E+02  0.14266600556E+03  0.14428004993E+03  0.00000000000E+00 0.  1.
<mgrwt>
<rscale>  2 0.13866769E+03</rscale>
<asrwt>0</asrwt>
<pdfrwt beam="1">  1       21 0.53924010E-01 0.13866769E+03</pdfrwt>
<pdfrwt beam="2">  1       21 0.12481788E-01 0.13866769E+03</pdfrwt>
<totfact> 0.18073263E+05</totfact>
</mgrwt>
</event>
<event>
 5    1  0.1708429E+000  0.6193885E+02  0.7546771E-02  0.1389871E+00
         21   -1    0    0  503  502  0.00000000000E+00  0.00000000000E+00  0.74636377781E+02  0.74636377781E+02  0.00000000000E+00 0. -1.
         21   -1    0    0  501  503 -0.00000000000E+00 -0.00000000000E+00 -0.67179058507E+02  0.67179058507E+02  0.00000000000E+00 0. -1.
         24    1    1    2    0    0 -0.43744519591E+00 -0.36045257666E+01  0.34904759014E+02  0.87742476148E+02  0.80419002446E+02 0. -1.
          1    1    1    2  501    0 -0.21305406591E+02 -0.18464019031E+00 -0.23377862929E+02  0.31630348040E+02  0.00000000000E+00 0. -1.
         -2    1    1    2    0  502  0.21742851787E+02  0.37891659569E+01 -0.40695768108E+01  0.22442612101E+02  0.00000000000E+00 0.  1.
<mgrwt>
<rscale>  2 0.61938846E+02</rscale>
<asrwt>0</asrwt>
<pdfrwt beam="1">  1       21 0.11482520E-01 0.61938846E+02</pdfrwt>
<pdfrwt beam="2">  1       21 0.10335240E-01 0.61938846E+02</pdfrwt>
<totfact> 0.45687922E+06</totfact>
</mgrwt>
</event>
<event>
 5    1  0.1708429E+000  0.7423596E+02  0.7546771E-02  0.1346253E+00
         21   -1    0    0  503  502  0.00000000000E+00  0.00000000000E+00  0.25015418740E+03  0.25015418740E+03  0.00000000000E+00 0.  1.
         21   -1    0    0  501  503 -0.00000000000E+00 -0.00000000000E+00 -0.54976129367E+02  0.54976129367E+02  0.00000000000E+00 0. -1.
         24    1    1    2    0    0  0.32392782152E+01  0.12352435287E+02 -0.73473671864E+01  0.81757417644E+02  0.80419002446E+02 0. -1.
          1    1    1    2  501    0  0.24322625720E+02  0.14704724695E+02  0.15445877036E+02  0.32348016442E+02  0.00000000000E+00 0. -1.
         -2    1    1    2    0  502 -0.27561903936E+02 -0.27057159981E+02  0.18707954818E+03  0.19102488268E+03  0.00000000000E+00 0.  1.
<mgrwt>
<rscale>  2 0.74235960E+02</rscale>
<asrwt>0</asrwt>
<pdfrwt beam="1">  1       21 0.38485259E-01 0.74235960E+02</pdfrwt>
<pdfrwt beam="2">  1       21 0.84578662E-02 0.74235960E+02</pdfrwt>
<totfact> 0.71006280E+05</totfact>
</mgrwt>
</event>
<event>
 5    1  0.1708429E+000  0.8839525E+02  0.7546771E-02  0.1306785E+00
         21   -1    0    0  501  502  0.00000000000E+00  0.00000000000E+00  0.12227324503E+03  0.12227324503E+03  0.00000000000E+00 0.  1.
         21   -1    0    0  502  503 -0.00000000000E+00 -0.00000000000E+00 -0.13543295904E+03  0.13543295904E+03  0.00000000000E+00 0. -1.
         24    1    1    2    0    0 -0.21624565721E+01 -0.67020496385E+02 -0.81057785243E+01  0.10502067774E+03  0.80419002446E+02 0.  0.
          1    1    1    2  501    0  0.12405629723E+02  0.17120531069E+02  0.63699754858E+02  0.67116845888E+02  0.00000000000E+00 0. -1.
         -2    1    1    2    0  503 -0.10243173151E+02  0.49899965316E+02 -0.68753690352E+02  0.85568680437E+02  0.00000000000E+00 0.  1.
<mgrwt>
<rscale>  2 0.88395254E+02</rscale>
<asrwt>0</asrwt>
<pdfrwt beam="1">  1       21 0.18811269E-01 0.88395254E+02</pdfrwt>
<pdfrwt beam="2">  1       21 0.20835840E-01 0.88395254E+02</pdfrwt>
<totfact> 0.55738243E+05</totfact>
</mgrwt>
</event>
<event>
 5    1  0.1708429E+000  0.8563756E+02  0.7546771E-02  0.1313774E+00
         21   -1    0    0  503  502  0.00000000000E+00  0.00000000000E+00  0.22721128483E+02  0.22721128483E+02  0.00000000000E+00 0.  1.
         21   -1    0    0  501  503 -0.00000000000E+00 -0.00000000000E+00 -0.10584236431E+04  0.10584236431E+04  0.00000000000E+00 0.  1.
         24    1    1    2    0    0  0.47078778318E+02 -0.36818936241E+02 -0.64942514088E+03  0.65710902825E+03  0.80419002446E+02 0.  1.
          1    1    1    2  501    0 -0.13321175662E+01  0.23353897020E+02 -0.37408364680E+03  0.37481429248E+03  0.00000000000E+00 0. -1.
         -2    1    1    2    0  502 -0.45746660752E+02  0.13465039221E+02 -0.12193726973E+02  0.49221450899E+02  0.00000000000E+00 0.  1.
<mgrwt>
<rscale>  2 0.85637561E+02</rscale>
<asrwt>0</asrwt>
<pdfrwt beam="1">  1       21 0.34955584E-02 0.85637561E+02</pdfrwt>
<pdfrwt beam="2">  1       21 0.16283440E+00 0.85637561E+02</pdfrwt>
<totfact> 0.12501558E+05</totfact>
</mgrwt>
</event>
<event>
 5    1  0.1708429E+000  0.7454194E+02  0.7546771E-02  0.1345295E+00
         21   -1    0    0  503  502  0.00000000000E+00  0.00000000000E+00  0.24406352222E+02  0.24406352222E+02  0.00000000000E+00 0. -1.
         21   -1    0    0  501  503 -0.00000000000E+00 -0.00000000000E+00 -0.36670647686E+03  0.36670647686E+03  0.00000000000E+00 0.  1.
         24    1    1    2    0    0 -0.45258680661E+02  0.47415428936E+01 -0.87197525739E+02  0.12704902539E+03  0.80419002446E+02 0. -1.
          1    1    1    2  501    0  0.15245681163E+02 -0.18240946646E+02 -0.18613370466E+03  0.18764572721E+03  0.00000000000E+00 0. -1.
         -2    1    1    2    0  502  0.30012999498E+02  0.13499403752E+02 -0.68968894236E+02  0.76418076478E+02  0.00000000000E+00 0.  1.
<mgrwt>
<rscale>  2 0.74541942E+02</rscale>
<asrwt>0</asrwt>
<pdfrwt beam="1">  1       21 0.37548236E-02 0.74541942E+02</pdfrwt>
<pdfrwt beam="2">  1       21 0.56416378E-01 0.74541942E+02</pdfrwt>
<totfact> 0.12741291E+06</totfact>
</mgrwt>
</event>
<event>
 5    1  0.1708429E+000  0.1993449E+03  0.7546771E-02  0.1150293E+00
         21   -1    0    0  503  502  0.00000000000E+00  0.00000000000E+00  0.10883444007E+04  0.10883444007E+04  0.00000000000E+00 0.  1.
         21   -1    0    0  501  503 -0.00000000000E+00 -0.00000000000E+00 -0.44808207501E+02  0.44808207501E+02  0.00000000000E+00 0. -1.
         24    1    1    2    0    0 -0.33425159084E+02  0.17283979686E+03  0.36532315338E+03  0.41342358301E+03  0.80419002446E+02 0. -1.
          1    1    1    2  501    0 -0.30843469912E+02 -0.14141234199E+02  0.19516059206E+02  0.39142952211E+02  0.00000000000E+00 0. -1.
         -2    1    1    2    0  502  0.64268628996E+02 -0.15869856266E+03  0.65869698060E+03  0.68058607297E+03  0.00000000000E+00 0.  1.
<mgrwt>
<rscale>  2 0.19934490E+03</rscale>
<asrwt>0</asrwt>
<pdfrwt beam="1">  1       21 0.16743758E+00 0.19934490E+03</pdfrwt>
<pdfrwt beam="2">  1       21 0.68935712E-02 0.19934490E+03</pdfrwt>
<totfact> 0.34405334E+04</totfact>
</mgrwt>
</event>
<event>
 5    1  0.1708429E+000  0.1347125E+03  0.7546771E-02  0.1220626E+00
         21   -1    0    0  503  502  0.00000000000E+00  0.00000000000E+00  0.89571226028E+02  0.89571226028E+02  0.00000000000E+00 0.  1.
         21   -1    0    0  501  503 -0.00000000000E+00 -0.00000000000E+00 -0.81294881844E+03  0.81294881844E+03  0.00000000000E+00 0. -1.
         24    1    1    2    0    0  0.79389719241E+02 -0.71597106088E+02 -0.26732487227E+03  0.29892921639E+03  0.80419002446E+02 0. -1.
          1    1    1    2  501    0 -0.97283154903E+02  0.61721788326E+02 -0.52199288212E+03  0.53455604044E+03  0.00000000000E+00 0. -1.
         -2    1    1    2    0  502  0.17893435662E+02  0.98753177628E+01  0.65940161989E+02  0.69034787635E+02  0.00000000000E+00 0.  1.
<mgrwt>
<rscale>  2 0.13471249E+03</rscale>
<asrwt>0</asrwt>
<pdfrwt beam="1">  1       21 0.13780188E-01 0.13471249E+03</pdfrwt>
<pdfrwt beam="2">  1       21 0.12506905E+00 0.13471249E+03</pdfrwt>
<totfact> 0.22668056E+04</totfact>
</mgrwt>
</event>
<event>
 5    1  0.1708429E+000  0.6694201E+02  0.7546771E-02  0.1370812E+00
         21   -1    0    0  501  502  0.00000000000E+00  0.00000000000E+00  0.47540129352E+02  0.47540129352E+02  0.00000000000E+00 0. -1.
         21   -1    0    0  502  503 -0.00000000000E+00 -0.00000000000E+00 -0.17204710268E+03  0.17204710268E+03  0.00000000000E+00 0.  1.
         24    1    1    2    0    0  0.32737233510E+01  0.24621375343E+02 -0.88073757184E+02  0.12182418498E+03  0.80419002446E+02 0.  1.
          1    1    1    2  501    0 -0.22152682837E+02 -0.54563953736E+01  0.23079349516E+02  0.32452580505E+02  0.00000000000E+00 0. -1.
         -2    1    1    2    0  503  0.18878959486E+02 -0.19164979970E+02 -0.59512565662E+02  0.65310466544E+02  0.00000000000E+00 0.  1.
<mgrwt>
<rscale>  2 0.66942010E+02</rscale>
<asrwt>0</asrwt>
<pdfrwt beam="1">  1       21 0.73138661E-02 0.66942010E+02</pdfrwt>
<pdfrwt beam="2">  1       21 0.26468785E-01 0.66942010E+02</pdfrwt>
<totfact> 0.18501901E+06</totfact>
</mgrwt>
</event>
<event>
 5    1  0.1708429E+000  0.7630259E+02  0.7546771E-02  0.1339884E+00
         21   -1    0    0  501  502  0.00000000000E+00  0.00000000000E+00  0.23789574264E+03  0.23789574264E+03  0.00000000000E+00 0. -1.
         21   -1    0    0  502  503 -0.00000000000E+00 -0.00000000000E+00 -0.78332970143E+02  0.78332970143E+02  0.00000000000E+00 0. -1.
         24    1    1    2    0    0 -0.13942305953E+02 -0.51399938891E+01  0.19480703622E+02  0.84068550603E+02  0.80419002446E+02 0. -1.
          1    1    1    2  501    0  0.12833653224E+02  0.36888396833E+02  0.17826300373E+03  0.18249152028E+03  0.00000000000E+00 0. -1.
         -2    1    1    2    0  503  0.11086527288E+01 -0.31748402944E+02 -0.38180934863E+02  0.49668641892E+02  0.00000000000E+00 0.  1.
<mgrwt>
<rscale>  2 0.76302591E+02</rscale>
<asrwt>0</asrwt>
<pdfrwt beam="1">  1       21 0.36599345E-01 0.76302591E+02</pdfrwt>
<pdfrwt beam="2">  1       21 0.12051226E-01 0.76302591E+02</pdfrwt>
<totfact> 0.42529112E+05</totfact>
</mgrwt>
</event>
<event>
 5    1  0.1708429E+000  0.7201450E+02  0.7546771E-02  0.1353374E+00
         21   -1    0    0  503  502  0.00000000000E+00  0.00000000000E+00  0.15057545862E+03  0.15057545862E+03  0.00000000000E+00 0. -1.
         21   -1    0    0  501  503 -0.00000000000E+00 -0.00000000000E+00 -0.35184523824E+02  0.35184523824E+02  0.00000000000E+00 0.  1.
         24    1    1    2    0    0 -0.23352548876E+02  0.39902401455E+02  0.86156990148E+02  0.12660089291E+03  0.80419002446E+02 0. -1.
          1    1    1    2  501    0  0.36263409624E+01 -0.27988244375E+02  0.13734631200E+02  0.31386816758E+02  0.00000000000E+00 0. -1.
         -2    1    1    2    0  502  0.19726207913E+02 -0.11914157080E+02  0.15499313447E+02  0.27772272771E+02  0.00000000000E+00 0.  1.
<mgrwt>
<rscale>  2 0.72014499E+02</rscale>
<asrwt>0</asrwt>
<pdfrwt beam="1">  1       21 0.23165455E-01 0.72014499E+02</pdfrwt>
<pdfrwt beam="2">  1       21 0.54130037E-02 0.72014499E+02</pdfrwt>
<totfact> 0.39357881E+06</totfact>
</mgrwt>
</event>
<event>
 5    1  0.1708429E+000  0.7783997E+02  0.7546771E-02  0.1335295E+00
         21   -1    0    0  501  502  0.00000000000E+00  0.00000000000E+00  0.39454823911E+03  0.39454823911E+03  0.00000000000E+00 0. -1.
         21   -1    0    0  502  503 -0.00000000000E+00 -0.00000000000E+00 -0.23575723083E+02  0.23575723083E+02  0.00000000000E+00 0.  1.
         24    1    1    2    0    0  0.85544906360E+01  0.54731651632E+02  0.16398880507E+03  0.19086193215E+03  0.80419002446E+02 0.  0.
          1    1    1    2  501    0  0.50448646699E+01 -0.22237930896E+02  0.18353523368E+03  0.18494636583E+03  0.00000000000E+00 0. -1.
         -2    1    1    2    0  503 -0.13599355306E+02 -0.32493720736E+02  0.23448477281E+02  0.42315664225E+02  0.00000000000E+00 0.  1.
<mgrwt>
<rscale>  2 0.77839970E+02</rscale>
<asrwt>0</asrwt>
<pdfrwt beam="1">  1       21 0.60699724E-01 0.77839970E+02</pdfrwt>
<pdfrwt beam="2">  1       21 0.36270346E-02 0.77839970E+02</pdfrwt>
<totfact> 0.11589894E+06</totfact>
</mgrwt>
</event>
<event>
 5    1  0.1708429E+000  0.6558741E+02  0.7546771E-02  0.1375775E+00
         21   -1    0    0  503  502  0.00000000000E+00  0.00000000000E+00  0.61015244888E+03  0.61015244888E+03  0.00000000000E+00 0. -1.
         21   -1    0    0  501  503 -0.00000000000E+00 -0.00000000000E+00 -0.96821857118E+01  0.96821857118E+01  0.00000000000E+00 0.  1.
         24    1    1    2    0    0  0.25991568353E+02  0.10470090576E+02  0.30041951816E+03  0.31225676497E+03  0.80419002446E+02 0.  0.
          1    1    1    2  501    0 -0.18575109022E+01 -0.19985495766E+02  0.28885153644E+02  0.35174173605E+02  0.00000000000E+00 0. -1.
         -2    1    1    2    0  502 -0.24134057450E+02  0.95154051901E+01  0.27116559136E+03  0.27240369602E+03  0.00000000000E+00 0.  1.
<mgrwt>
<rscale>  2 0.65587409E+02</rscale>
<asrwt>0</asrwt>
<pdfrwt beam="1">  1       21 0.93869578E-01 0.65587409E+02</pdfrwt>
<pdfrwt beam="2">  1       21 0.14895675E-02 0.65587409E+02</pdfrwt>
<totfact> 0.18576744E+06</totfact>
</mgrwt>
</event>
<event>
 5    1  0.1708429E+000  0.7772969E+02  0.7546771E-02  0.1335621E+00
         21   -1    0    0  501  502  0.00000000000E+00  0.00000000000E+00  0.23700959130E+04  0.23700959130E+04  0.00000000000E+00 0.  1.
         21   -1    0    0  502  503 -0.00000000000E+00 -0.00000000000E+00 -0.27843749279E+01  0.27843749279E+01  0.00000000000E+00 0. -1.
         24    1    1    2    0    0 -0.12638149803E+02 -0.14469973826E+02  0.15963497414E+04  0.15984895420E+04  0.80419002446E+02 0.  1.
          1    1    1    2  501    0  0.38840649107E+02 -0.62912114806E+01  0.42500440377E+03  0.42682188157E+03  0.00000000000E+00 0. -1.
         -2    1    1    2    0  503 -0.26202499304E+02  0.20761185307E+02  0.34595739293E+03  0.34756886441E+03  0.00000000000E+00 0.  1.
<mgrwt>
<rscale>  2 0.77729693E+02</rscale>
<asrwt>0</asrwt>
<pdfrwt beam="1">  1       21 0.36462853E+00 0.77729693E+02</pdfrwt>
<pdfrwt beam="2">  1       21 0.42836727E-03 0.77729693E+02</pdfrwt>
<totfact> 0.23536691E+05</totfact>
</mgrwt>
</event>
<event>
 5    1  0.1708429E+000  0.7642213E+02  0.7546771E-02  0.1339523E+00
         21   -1    0    0  501  502  0.00000000000E+00  0.00000000000E+00  0.30329102006E+02  0.30329102006E+02  0.00000000000E+00 0.  1.
         21   -1    0    0  502  503 -0.00000000000E+00 -0.00000000000E+00 -0.45430474156E+03  0.45430474156E+03  0.00000000000E+00 0. -1.
         24    1    1    2    0    0  0.10361515993E+02 -0.92384602015E+01 -0.96930966160E+02  0.12671045070E+03  0.80419002446E+02 0.  1.
          1    1    1    2  501    0 -0.23473631806E+02 -0.25167957335E+02 -0.61960608104E+01  0.34968966758E+02  0.00000000000E+00 0. -1.
         -2    1    1    2    0  503  0.13112115813E+02  0.34406417536E+02 -0.32084861258E+03  0.32295442611E+03  0.00000000000E+00 0.  1.
<mgrwt>
<rscale>  2 0.76422128E+02</rscale>
<asrwt>0</asrwt>
<pdfrwt beam="1">  1       21 0.46660157E-02 0.76422128E+02</pdfrwt>
<pdfrwt beam="2">  1       21 0.69893037E-01 0.76422128E+02</pdfrwt>
<totfact> 0.56825947E+05</totfact>
</mgrwt>
</event>
<event>
 5    1  0.1708429E+000  0.8068241E+02  0.7546771E-02  0.1327126E+00
         21   -1    0    0  503  502  0.00000000000E+00  0.00000000000E+00  0.27562662316E+02  0.27562662316E+02  0.00000000000E+00 0.  1.
         21   -1    0    0  501  503 -0.00000000000E+00 -0.00000000000E+00 -0.76810606752E+03  0.76810606752E+03  0.00000000000E+00 0.  1.
         24    1    1    2    0    0  0.49364064104E+01  0.45708185922E+02 -0.40117925264E+03  0.41173488445E+03  0.80419002446E+02 0.  1.
          1    1    1    2  501    0 -0.23308823403E+02 -0.46742419800E+01 -0.33812281879E+03  0.33895750526E+03  0.00000000000E+00 0. -1.
         -2    1    1    2    0  502  0.18372416993E+02 -0.41033943942E+02 -0.12413337730E+01  0.44976340126E+02  0.00000000000E+00 0.  1.
<mgrwt>
<rscale>  2 0.80682407E+02</rscale>
<asrwt>0</asrwt>
<pdfrwt beam="1">  1       21 0.42404099E-02 0.80682407E+02</pdfrwt>
<pdfrwt beam="2">  1       21 0.11817016E+00 0.80682407E+02</pdfrwt>
<totfact> 0.20305016E+05</totfact>
</mgrwt>
</event>
<event>
 5    1  0.1708429E+000  0.8603423E+02  0.7546771E-02  0.1312750E+00
         21   -1    0    0  503  502  0.00000000000E+00  0.00000000000E+00  0.73195854758E+02  0.73195854758E+02  0.00000000000E+00 0. -1.
         21   -1    0    0  501  503 -0.00000000000E+00 -0.00000000000E+00 -0.16582642982E+03  0.16582642982E+03  0.00000000000E+00 0. -1.
         24    1    1    2    0    0  0.62988947816E+02  0.23496516404E+02 -0.41205670269E+02  0.11262689309E+03  0.80419002446E+02 0. -1.
          1    1    1    2  501    0 -0.43782491629E+02 -0.15496622166E+02 -0.79126859380E+02  0.91750268376E+02  0.00000000000E+00 0. -1.
         -2    1    1    2    0  502 -0.19206456187E+02 -0.79998942381E+01  0.27701954591E+02  0.34645123109E+02  0.00000000000E+00 0.  1.
<mgrwt>
<rscale>  2 0.86034226E+02</rscale>
<asrwt>0</asrwt>
<pdfrwt beam="1">  1       21 0.11260901E-01 0.86034226E+02</pdfrwt>
<pdfrwt beam="2">  1       21 0.25511758E-01 0.86034226E+02</pdfrwt>
<totfact> 0.95412812E+05</totfact>
</mgrwt>
</event>
<event>
 5    1  0.1708429E+000  0.1532943E+03  0.7546771E-02  0.1196482E+00
         21   -1    0    0  503  502  0.00000000000E+00  0.00000000000E+00  0.42698893017E+03  0.42698893017E+03  0.00000000000E+00 0. -1.
         21   -1    0    0  501  503 -0.00000000000E+00 -0.00000000000E+00 -0.57980916768E+02  0.57980916768E+02  0.00000000000E+00 0. -1.
         24    1    1    2    0    0 -0.88991529002E+02 -0.11160466440E+03  0.23122783755E+03  0.28338775937E+03  0.80419002446E+02 0. -1.
          1    1    1    2  501    0  0.68626165185E+02  0.84856636394E+02  0.82207460525E+02  0.13663186251E+03  0.00000000000E+00 0. -1.
         -2    1    1    2    0  502  0.20365363817E+02  0.26748028002E+02  0.55572715328E+02  0.64950225052E+02  0.00000000000E+00 0.  1.
<mgrwt>
<rscale>  2 0.15329430E+03</rscale>
<asrwt>0</asrwt>
<pdfrwt beam="1">  1       21 0.65690603E-01 0.15329430E+03</pdfrwt>
<pdfrwt beam="2">  1       21 0.89201413E-02 0.15329430E+03</pdfrwt>
<totfact> 0.21375874E+05</totfact>
</mgrwt>
</event>
<event>
 5    1  0.1924741E+000  0.7250965E+02  0.7546771E-02  0.1351761E+00
         21   -1    0    0  501  502  0.00000000000E+00  0.00000000000E+00  0.22523057533E+03  0.22523057533E+03  0.00000000000E+00 0. -1.
         21   -1    0    0  502  503 -0.00000000000E+00 -0.00000000000E+00 -0.16610759811E+03  0.16610759811E+03  0.00000000000E+00 0.  1.
         24    1    1    2    0    0 -0.30041594224E+02 -0.41064107152E+01  0.56881250337E+02  0.10306334259E+03  0.80419002446E+02 0.  1.
          1    1    1    2  501    0  0.72334793486E+01  0.26284066428E+02  0.14217801084E+03  0.14476795963E+03  0.00000000000E+00 0. -1.
         -2    1    1    2    0  503  0.22808114876E+02 -0.22177655713E+02 -0.13993628396E+03  0.14350687121E+03  0.00000000000E+00 0.  1.
<mgrwt>
<rscale>  2 0.72509651E+02</rscale>
<asrwt>0</asrwt>
<pdfrwt beam="1">  1       21 0.34650858E-01 0.72509651E+02</pdfrwt>
<pdfrwt beam="2">  1       21 0.25555015E-01 0.72509651E+02</pdfrwt>
<totfact> 0.12224314E+05</totfact>
</mgrwt>
</event>
<event>
 5    1  0.1708429E+000  0.7166757E+02  0.7546771E-02  0.1354512E+00
         21   -1    0    0  503  502  0.00000000000E+00  0.00000000000E+00  0.78990554649E+01  0.78990554649E+01  0.00000000000E+00 0. -1.
         21   -1    0    0  501  503 -0.00000000000E+00 -0.00000000000E+00 -0.77420187803E+03  0.77420187803E+03  0.00000000000E+00 0. -1.
         24    1    1    2    0    0  0.24157385774E+02  0.83136756873E+01 -0.59409803154E+03  0.60006031658E+03  0.80419002446E+02 0. -1.
          1    1    1    2  501    0 -0.29299837530E+02  0.16492030214E+02 -0.10263985816E+03  0.10800651842E+03  0.00000000000E+00 0. -1.
         -2    1    1    2    0  502  0.51424517562E+01 -0.24805705901E+02 -0.69564932863E+02  0.74034098492E+02  0.00000000000E+00 0.  1.
<mgrwt>
<rscale>  2 0.71667569E+02</rscale>
<asrwt>0</asrwt>
<pdfrwt beam="1">  1       21 0.12152392E-02 0.71667569E+02</pdfrwt>
<pdfrwt beam="2">  1       21 0.11910799E+00 0.71667569E+02</pdfrwt>
<totfact> 0.14759552E+06</totfact>
</mgrwt>
</event>
<event>
 5    1  0.1708429E+000  0.7147496E+02  0.7546771E-02  0.1355148E+00
         21   -1    0    0  501  502  0.00000000000E+00  0.00000000000E+00  0.28421854213E+03  0.28421854213E+03  0.00000000000E+00 0.  1.
         21   -1    0    0  502  503 -0.00000000000E+00 -0.00000000000E+00 -0.49118384202E+02  0.49118384202E+02  0.00000000000E+00 0.  1.
         24    1    1    2    0    0 -0.89008239337E-01  0.18763382365E+02  0.13888483578E+03  0.16158058672E+03  0.80419002446E+02 0.  1.
          1    1    1    2  501    0 -0.91020689486E+01 -0.37987457115E+02  0.12781090181E+03  0.13364700213E+03  0.00000000000E+00 0. -1.
         -2    1    1    2    0  503  0.91910771880E+01  0.19224074750E+02 -0.31595579657E+02  0.38109337487E+02  0.00000000000E+00 0.  1.
<mgrwt>
<rscale>  2 0.71474960E+02</rscale>
<asrwt>0</asrwt>
<pdfrwt beam="1">  1       21 0.43725929E-01 0.71474960E+02</pdfrwt>
<pdfrwt beam="2">  1       21 0.75566746E-02 0.71474960E+02</pdfrwt>
<totfact> 0.66789955E+05</totfact>
</mgrwt>
</event>
<event>
 5    1  0.1708429E+000  0.7866013E+02  0.7546771E-02  0.1332897E+00
         21   -1    0    0  501  502  0.00000000000E+00  0.00000000000E+00  0.14540239976E+03  0.14540239976E+03  0.00000000000E+00 0.  1.
         21   -1    0    0  502  503 -0.00000000000E+00 -0.00000000000E+00 -0.83079292369E+02  0.83079292369E+02  0.00000000000E+00 0. -1.
         24    1    1    2    0    0  0.30881691473E+02  0.37338412424E+01  0.76320624654E+02  0.11515065845E+03  0.80419002446E+02 0.  0.
          1    1    1    2  501    0  0.12826774992E+02  0.18141303122E+02  0.36705203742E+02  0.42905769046E+02  0.00000000000E+00 0. -1.
         -2    1    1    2    0  503 -0.43708466465E+02 -0.21875144365E+02 -0.50702721006E+02  0.70425264637E+02  0.00000000000E+00 0.  1.
<mgrwt>
<rscale>  2 0.78660129E+02</rscale>
<asrwt>0</asrwt>
<pdfrwt beam="1">  1       21 0.22369600E-01 0.78660129E+02</pdfrwt>
<pdfrwt beam="2">  1       21 0.12781430E-01 0.78660129E+02</pdfrwt>
<totfact> 0.97398477E+05</totfact>
</mgrwt>
</event>
<event>
 5    1  0.1708429E+000  0.8722457E+02  0.7546771E-02  0.1309715E+00
         21   -1    0    0  503  502  0.00000000000E+00  0.00000000000E+00  0.23128361971E+03  0.23128361971E+03  0.00000000000E+00 0. -1.
         21   -1    0    0  501  503 -0.00000000000E+00 -0.00000000000E+00 -0.80160689863E+02  0.80160689863E+02  0.00000000000E+00 0. -1.
         24    1    1    2    0    0  0.62860975139E+01  0.63377281820E+02  0.14940685637E+03  0.18123415671E+03  0.80419002446E+02 0. -1.
          1    1    1    2  501    0 -0.19927052229E+02 -0.32720505590E+02 -0.53377337311E+02  0.65702808426E+02  0.00000000000E+00 0. -1.
         -2    1    1    2    0  502  0.13640954715E+02 -0.30656776229E+02  0.55093410785E+02  0.64507344437E+02  0.00000000000E+00 0.  1.
<mgrwt>
<rscale>  2 0.87224566E+02</rscale>
<asrwt>0</asrwt>
<pdfrwt beam="1">  1       21 0.35582095E-01 0.87224566E+02</pdfrwt>
<pdfrwt beam="2">  1       21 0.12332414E-01 0.87224566E+02</pdfrwt>
<totfact> 0.43130783E+05</totfact>
</mgrwt>
</event>
<event>
 5    1  0.1708429E+000  0.1169503E+03  0.7546771E-02  0.1248215E+00
         21   -1    0    0  501  502  0.00000000000E+00  0.00000000000E+00  0.80572469051E+02  0.80572469051E+02  0.00000000000E+00 0.  1.
         21   -1    0    0  502  503 -0.00000000000E+00 -0.00000000000E+00 -0.30800223412E+03  0.30800223412E+03  0.00000000000E+00 0. -1.
         24    1    1    2    0    0  0.67772285511E+02 -0.69461545560E+02 -0.68400027563E+01  0.12622198932E+03  0.80419002446E+02 0.  1.
          1    1    1    2  501    0 -0.71469770904E+02  0.48014281753E+02 -0.72173022055E+02  0.11234876287E+03  0.00000000000E+00 0. -1.
         -2    1    1    2    0  503  0.36974853929E+01  0.21447263807E+02 -0.14841674026E+03  0.15000395099E+03  0.00000000000E+00 0.  1.
<mgrwt>
<rscale>  2 0.11695035E+03</rscale>
<asrwt>0</asrwt>
<pdfrwt beam="1">  1       21 0.12395764E-01 0.11695035E+03</pdfrwt>
<pdfrwt beam="2">  1       21 0.47384959E-01 0.11695035E+03</pdfrwt>
<totfact> 0.24034160E+05</totfact>
</mgrwt>
</event>
<event>
 5    1  0.1708429E+000  0.9339300E+02  0.7546771E-02  0.1294837E+00
         21   -1    0    0  503  502  0.00000000000E+00  0.00000000000E+00  0.40784532510E+02  0.40784532510E+02  0.00000000000E+00 0. -1.
         21   -1    0    0  501  503 -0.00000000000E+00 -0.00000000000E+00 -0.68859164955E+03  0.68859164955E+03  0.00000000000E+00 0. -1.
         24    1    1    2    0    0  0.12350597416E+02  0.51690128096E+02 -0.12257419956E+03  0.15593606687E+03  0.80419002446E+02 0. -1.
          1    1    1    2  501    0 -0.35864352111E+02 -0.25958577983E+01 -0.51716164259E+03  0.51841021864E+03  0.00000000000E+00 0. -1.
         -2    1    1    2    0  502  0.23513754696E+02 -0.49094270298E+02 -0.80712748989E+01  0.55029896551E+02  0.00000000000E+00 0.  1.
<mgrwt>
<rscale>  2 0.93393002E+02</rscale>
<asrwt>0</asrwt>
<pdfrwt beam="1">  1       21 0.62745438E-02 0.93393002E+02</pdfrwt>
<pdfrwt beam="2">  1       21 0.10593717E+00 0.93393002E+02</pdfrwt>
<totfact> 0.13604506E+05</totfact>
</mgrwt>
</event>
<event>
 5    1  0.1708429E+000  0.7389282E+02  0.7546771E-02  0.1347334E+00
         21   -1    0    0  503  502  0.00000000000E+00  0.00000000000E+00  0.52521814958E+02  0.52521814958E+02  0.00000000000E+00 0. -1.
         21   -1    0    0  501  503 -0.00000000000E+00 -0.00000000000E+00 -0.13683361366E+03  0.13683361366E+03  0.00000000000E+00 0. -1.
         24    1    1    2    0    0  0.50698035601E+02 -0.11096873593E+00 -0.46969772912E+02  0.10603621386E+03  0.80419002446E+02 0. -1.
          1    1    1    2  501    0 -0.28066711381E+02 -0.71301625774E+01 -0.48949701613E+02  0.56874008072E+02  0.00000000000E+00 0. -1.
         -2    1    1    2    0  502 -0.22631324220E+02  0.72411313133E+01  0.11607675824E+02  0.26445206686E+02  0.00000000000E+00 0.  1.
<mgrwt>
<rscale>  2 0.73892823E+02</rscale>
<asrwt>0</asrwt>
<pdfrwt beam="1">  1       21 0.80802793E-02 0.73892823E+02</pdfrwt>
<pdfrwt beam="2">  1       21 0.21051325E-01 0.73892823E+02</pdfrwt>
<totfact> 0.23979698E+06</totfact>
</mgrwt>
</event>
<event>
 5    1  0.1708429E+000  0.1175627E+03  0.7546771E-02  0.1247173E+00
         21   -1    0    0  503  502  0.00000000000E+00  0.00000000000E+00  0.16089826315E+03  0.16089826315E+03  0.00000000000E+00 0. -1.
         21   -1    0    0  501  503 -0.00000000000E+00 -0.00000000000E+00 -0.12243933354E+03  0.12243933354E+03  0.00000000000E+00 0.  1.
         24    1    1    2    0    0 -0.42996315415E+02  0.38702555480E+02  0.70145942821E+02  0.12138467856E+03  0.80419002446E+02 0. -1.
          1    1    1    2  501    0 -0.34281522545E+02 -0.47179795050E+02 -0.55641328238E+02  0.80604672675E+02  0.00000000000E+00 0. -1.
         -2    1    1    2    0  502  0.77277837961E+02  0.84772395698E+01  0.23954315029E+02  0.81348245458E+02  0.00000000000E+00 0.  1.
<mgrwt>
<rscale>  2 0.11756270E+03</rscale>
<asrwt>0</asrwt>
<pdfrwt beam="1">  1       21 0.24753579E-01 0.11756270E+03</pdfrwt>
<pdfrwt beam="2">  1       21 0.18836820E-01 0.11756270E+03</pdfrwt>
<totfact> 0.40296987E+05</totfact>
</mgrwt>
</event>
<event>
 5    1  0.1708429E+000  0.6961516E+02  0.7546771E-02  0.1361407E+00
         21   -1    0    0  501  502  0.00000000000E+00  0.00000000000E+00  0.18841445082E+04  0.18841445082E+04  0.00000000000E+00 0.  1.
         21   -1    0    0  502  503 -0.00000000000E+00 -0.00000000000E+00 -0.33043428677E+01  0.33043428677E+01  0.00000000000E+00 0.  1.
         24    1    1    2    0    0 -0.17869044325E+02  0.42613169871E+02  0.15103653848E+04  0.15132104931E+04  0.80419002446E+02 0.  1.
          1    1    1    2  501    0  0.66408044217E+01 -0.22342161983E+02  0.27522756225E+03  0.27621275045E+03  0.00000000000E+00 0. -1.
         -2    1    1    2    0  503  0.11228239903E+02 -0.20271007889E+02  0.95247218271E+02  0.98025607473E+02  0.00000000000E+00 0.  1.
<mgrwt>
<rscale>  2 0.69615159E+02</rscale>
<asrwt>0</asrwt>
<pdfrwt beam="1">  1       21 0.28986753E+00 0.69615159E+02</pdfrwt>
<pdfrwt beam="2">  1       21 0.50836195E-03 0.69615159E+02</pdfrwt>
<totfact> 0.47251619E+05</totfact>
</mgrwt>
</event>
<event>
 5    1  0.1708429E+000  0.7560969E+02  0.7546771E-02  0.1341993E+00
         21   -1    0    0  503  502  0.00000000000E+00  0.00000000000E+00  0.12885228095E+04  0.12885228095E+04  0.00000000000E+00 0.  1.
         21   -1    0    0  501  503 -0.00000000000E+00 -0.00000000000E+00 -0.22185078504E+02  0.22185078504E+02  0.00000000000E+00 0. -1.
         24    1    1    2    0    0 -0.12435715176E+02  0.43786144374E+02  0.18028349658E+03  0.20258634837E+03  0.80419002446E+02 0.  0.
          1    1    1    2  501    0 -0.11422031171E+02 -0.27904773816E+02  0.10118938932E+02  0.31804592796E+02  0.00000000000E+00 0. -1.
         -2    1    1    2    0  502  0.23857746347E+02 -0.15881370558E+02  0.10759352955E+04  0.10763169469E+04  0.00000000000E+00 0.  1.
<mgrwt>
<rscale>  2 0.75609690E+02</rscale>
<asrwt>0</asrwt>
<pdfrwt beam="1">  1       21 0.19823422E+00 0.75609690E+02</pdfrwt>
<pdfrwt beam="2">  1       21 0.34130900E-02 0.75609690E+02</pdfrwt>
<totfact> 0.77155205E+04</totfact>
</mgrwt>
</event>
<event>
 5    1  0.1708429E+000  0.7001804E+02  0.7546771E-02  0.1360032E+00
         21   -1    0    0  503  502  0.00000000000E+00  0.00000000000E+00  0.55124549665E+02  0.55124549665E+02  0.00000000000E+00 0. -1.
         21   -1    0    0  501  503 -0.00000000000E+00 -0.00000000000E+00 -0.19478970852E+03  0.19478970852E+03  0.00000000000E+00 0. -1.
         24    1    1    2    0    0 -0.11310559753E+02 -0.10282229823E+02 -0.56720487774E+01  0.82055110162E+02  0.80419002446E+02 0. -1.
          1    1    1    2  501    0  0.12051119678E+02 -0.22426931957E+02 -0.13269553543E+03  0.13511588317E+03  0.00000000000E+00 0. -1.
         -2    1    1    2    0  502 -0.74055992470E+00  0.32709161780E+02 -0.12975746514E+01  0.32743264854E+02  0.00000000000E+00 0.  1.
<mgrwt>
<rscale>  2 0.70018044E+02</rscale>
<asrwt>0</asrwt>
<pdfrwt beam="1">  1       21 0.84806998E-02 0.70018044E+02</pdfrwt>
<pdfrwt beam="2">  1       21 0.29967648E-01 0.70018044E+02</pdfrwt>
<totfact> 0.11423075E+06</totfact>
</mgrwt>
</event>
<event>
 5    1  0.1708429E+000  0.1532981E+03  0.7546771E-02  0.1196478E+00
         21   -1    0    0  501  502  0.00000000000E+00  0.00000000000E+00  0.30719945705E+03  0.30719945705E+03  0.00000000000E+00 0.  1.
         21   -1    0    0  502  503 -0.00000000000E+00 -0.00000000000E+00 -0.12827670744E+03  0.12827670744E+03  0.00000000000E+00 0.  1.
         24    1    1    2    0    0  0.12775554610E+03 -0.60285066953E+02  0.16825507379E+03  0.23395032522E+03  0.80419002446E+02 0.  1.
          1    1    1    2  501    0 -0.39393546867E+02  0.47471500120E+01  0.70738270135E+02  0.81106657124E+02  0.00000000000E+00 0. -1.
         -2    1    1    2    0  503 -0.88361999235E+02  0.55537916941E+02 -0.60070594316E+02  0.12041918214E+03  0.00000000000E+00 0.  1.
<mgrwt>
<rscale>  2 0.15329811E+03</rscale>
<asrwt>0</asrwt>
<pdfrwt beam="1">  1       21 0.47261455E-01 0.15329811E+03</pdfrwt>
<pdfrwt beam="2">  1       21 0.19734878E-01 0.15329811E+03</pdfrwt>
<totfact> 0.10291113E+05</totfact>
</mgrwt>
</event>
<event>
 5    1  0.1708429E+000  0.7614031E+02  0.7546771E-02  0.1340376E+00
         21   -1    0    0  501  502  0.00000000000E+00  0.00000000000E+00  0.10460313147E+03  0.10460313147E+03  0.00000000000E+00 0. -1.
         21   -1    0    0  502  503 -0.00000000000E+00 -0.00000000000E+00 -0.18938559787E+03  0.18938559787E+03  0.00000000000E+00 0.  1.
         24    1    1    2    0    0 -0.11099444117E+02  0.11709354130E+02 -0.16656877573E+03  0.18566819770E+03  0.80419002446E+02 0.  1.
          1    1    1    2  501    0 -0.11399265226E+01 -0.39696436307E+02  0.53972329122E+02  0.67008348724E+02  0.00000000000E+00 0. -1.
         -2    1    1    2    0  503  0.12239370639E+02  0.27987082177E+02  0.27813980212E+02  0.41312182921E+02  0.00000000000E+00 0.  1.
<mgrwt>
<rscale>  2 0.76140309E+02</rscale>
<asrwt>0</asrwt>
<pdfrwt beam="1">  1       21 0.16092790E-01 0.76140309E+02</pdfrwt>
<pdfrwt beam="2">  1       21 0.29136246E-01 0.76140309E+02</pdfrwt>
<totfact> 0.39527948E+05</totfact>
</mgrwt>
</event>
<event>
 5    1  0.1708429E+000  0.7345471E+02  0.7546771E-02  0.1348724E+00
         21   -1    0    0  503  502  0.00000000000E+00  0.00000000000E+00  0.23444923914E+03  0.23444923914E+03  0.00000000000E+00 0.  1.
         21   -1    0    0  501  503 -0.00000000000E+00 -0.00000000000E+00 -0.19944763024E+03  0.19944763024E+03  0.00000000000E+00 0. -1.
         24    1    1    2    0    0  0.20340168764E+02 -0.28930798516E+02 -0.15738737667E+03  0.18024626447E+03  0.80419002446E+02 0. -1.
          1    1    1    2  501    0  0.81938237832E+01  0.29399351938E+02 -0.21839947195E+02  0.37529241080E+02  0.00000000000E+00 0. -1.
         -2    1    1    2    0  502 -0.28533992548E+02 -0.46855342242E+00  0.21422893276E+03  0.21612136383E+03  0.00000000000E+00 0.  1.
<mgrwt>
<rscale>  2 0.73454713E+02</rscale>
<asrwt>0</asrwt>
<pdfrwt beam="1">  1       21 0.36069114E-01 0.73454713E+02</pdfrwt>
<pdfrwt beam="2">  1       21 0.30684251E-01 0.73454713E+02</pdfrwt>
<totfact> 0.80116286E+04</totfact>
</mgrwt>
</event>
<event>
 5    1  0.1708429E+000  0.1136141E+03  0.7546771E-02  0.1254020E+00
         21   -1    0    0  501  502  0.00000000000E+00  0.00000000000E+00  0.58839940608E+02  0.58839940608E+02  0.00000000000E+00 0.  1.
         21   -1    0    0  502  503 -0.00000000000E+00 -0.00000000000E+00 -0.60643101864E+03  0.60643101864E+03  0.00000000000E+00 0. -1.
         24    1    1    2    0    0  0.25012732271E+02  0.95816104464E+02 -0.71459582892E+02  0.14621918681E+03  0.80419002446E+02 0.  1.
          1    1    1    2  501    0 -0.46825879043E+01 -0.39694915198E+02 -0.79077139017E+00  0.39977971953E+02  0.00000000000E+00 0. -1.
         -2    1    1    2    0  503 -0.20330144367E+02 -0.56121189266E+02 -0.47534072375E+03  0.47907380048E+03  0.00000000000E+00 0.  1.
<mgrwt>
<rscale>  2 0.11361407E+03</rscale>
<asrwt>0</asrwt>
<pdfrwt beam="1">  1       21 0.90522983E-02 0.11361407E+03</pdfrwt>
<pdfrwt beam="2">  1       21 0.93297083E-01 0.11361407E+03</pdfrwt>
<totfact> 0.96704893E+04</totfact>
</mgrwt>
</event>
<event>
 5    1  0.1708429E+000  0.6837221E+02  0.7546771E-02  0.1365718E+00
         21   -1    0    0  503  502  0.00000000000E+00  0.00000000000E+00  0.42608162799E+02  0.42608162799E+02  0.00000000000E+00 0. -1.
         21   -1    0    0  501  503 -0.00000000000E+00 -0.00000000000E+00 -0.15211637961E+03  0.15211637961E+03  0.00000000000E+00 0.  1.
         24    1    1    2    0    0  0.15169843179E+02 -0.40039694317E+02 -0.74344989730E+02  0.11759121870E+03  0.80419002446E+02 0.  1.
          1    1    1    2  501    0 -0.51728606645E+00  0.23638470336E+02 -0.46665772660E+02  0.52313852875E+02  0.00000000000E+00 0. -1.
         -2    1    1    2    0  502 -0.14652557112E+02  0.16401223981E+02  0.11502545574E+02  0.24819470838E+02  0.00000000000E+00 0.  1.
<mgrwt>
<rscale>  2 0.68372215E+02</rscale>
<asrwt>0</asrwt>
<pdfrwt beam="1">  1       21 0.65551021E-02 0.68372215E+02</pdfrwt>
<pdfrwt beam="2">  1       21 0.23402520E-01 0.68372215E+02</pdfrwt>
<totfact> 0.27974496E+06</totfact>
</mgrwt>
</event>
<event>
 5    1  0.1708429E+000  0.7532932E+02  0.7546771E-02  0.1342854E+00
         21   -1    0    0  501  502  0.00000000000E+00  0.00000000000E+00  0.23054312812E+02  0.23054312812E+02  0.00000000000E+00 0.  1.
         21   -1    0    0  502  503 -0.00000000000E+00 -0.00000000000E+00 -0.29696546596E+03  0.29696546596E+03  0.00000000000E+00 0. -1.
         24    1    1    2    0    0 -0.91333458474E+01  0.19470803030E+02 -0.12044695802E+03  0.14641453421E+03  0.80419002446E+02 0.  1.
          1    1    1    2  501    0 -0.16247677735E+02  0.16652083393E+02 -0.13622383155E+02  0.26960123070E+02  0.00000000000E+00 0. -1.
         -2    1    1    2    0  503  0.25381023583E+02 -0.36122886423E+02 -0.13984181197E+03  0.14664512149E+03  0.00000000000E+00 0.  1.
<mgrwt>
<rscale>  2 0.75329325E+02</rscale>
<asrwt>0</asrwt>
<pdfrwt beam="1">  1       21 0.35468175E-02 0.75329325E+02</pdfrwt>
<pdfrwt beam="2">  1       21 0.45686993E-01 0.75329325E+02</pdfrwt>
<totfact> 0.21489120E+06</totfact>
</mgrwt>
</event>
<event>
 5    1  0.1708429E+000  0.9714820E+02  0.7546771E-02  0.1286410E+00
         21   -1    0    0  501  502  0.00000000000E+00  0.00000000000E+00  0.42261256380E+03  0.42261256380E+03  0.00000000000E+00 0. -1.
         21   -1    0    0  502  503 -0.00000000000E+00 -0.00000000000E+00 -0.35671673065E+02  0.35671673065E+02  0.00000000000E+00 0.  1.
         24    1    1    2    0    0 -0.56508002230E+02  0.88150647270E+01  0.72523649040E+02  0.12246532287E+03  0.80419002446E+02 0.  1.
          1    1    1    2  501    0  0.50560914937E+02  0.28356914991E+02  0.27603787880E+03  0.28205926909E+03  0.00000000000E+00 0. -1.
         -2    1    1    2    0  503  0.59470872936E+01 -0.37171979718E+02  0.38379362889E+02  0.53759644895E+02  0.00000000000E+00 0.  1.
<mgrwt>
<rscale>  2 0.97148197E+02</rscale>
<asrwt>0</asrwt>
<pdfrwt beam="1">  1       21 0.65017314E-01 0.97148197E+02</pdfrwt>
<pdfrwt beam="2">  1       21 0.54879500E-02 0.97148197E+02</pdfrwt>
<totfact> 0.50627594E+05</totfact>
</mgrwt>
</event>
<event>
 5    1  0.1708429E+000  0.8916854E+02  0.7546771E-02  0.1304878E+00
         21   -1    0    0  503  502  0.00000000000E+00  0.00000000000E+00  0.14040521182E+03  0.14040521182E+03  0.00000000000E+00 0.  1.
         21   -1    0    0  501  503 -0.00000000000E+00 -0.00000000000E+00 -0.34084148657E+03  0.34084148657E+03  0.00000000000E+00 0.  1.
         24    1    1    2    0    0 -0.41813252656E+02  0.33825576378E+01 -0.15930480574E+03  0.18331673923E+03  0.80419002446E+02 0.  1.
          1    1    1    2  501    0 -0.12955009349E+02 -0.25473543184E+02 -0.16141801423E+03  0.16392836541E+03  0.00000000000E+00 0. -1.
         -2    1    1    2    0  502  0.54768262005E+02  0.22090985546E+02  0.12028654522E+03  0.13400159374E+03  0.00000000000E+00 0.  1.
<mgrwt>
<rscale>  2 0.89168541E+02</rscale>
<asrwt>0</asrwt>
<pdfrwt beam="1">  1       21 0.21600802E-01 0.89168541E+02</pdfrwt>
<pdfrwt beam="2">  1       21 0.52437151E-01 0.89168541E+02</pdfrwt>
<totfact> 0.72480743E+04</totfact>
</mgrwt>
</event>
<event>
 5    1  0.1708429E+000  0.1109679E+03  0.7546771E-02  0.1258788E+00
         21   -1    0    0  503  502  0.00000000000E+00  0.00000000000E+00  0.73404188462E+02  0.73404188462E+02  0.00000000000E+00 0.  1.
         21   -1    0    0  501  503 -0.00000000000E+00 -0.00000000000E+00 -0.25329855764E+03  0.25329855764E+03  0.00000000000E+00 0. -1.
         24    1    1    2    0    0  0.20046914658E+02  0.69409997592E+01 -0.10892626625E+00  0.83170211520E+02  0.80419002446E+02 0.  1.
          1    1    1    2  501    0 -0.47092732072E+02 -0.61743311718E+02 -0.16237552736E+03  0.17998826029E+03  0.00000000000E+00 0. -1.
         -2    1    1    2    0  502  0.27045817414E+02  0.54802311959E+02 -0.17409915546E+02  0.63544274289E+02  0.00000000000E+00 0.  1.
<mgrwt>
<rscale>  2 0.11096787E+03</rscale>
<asrwt>0</asrwt>
<pdfrwt beam="1">  1       21 0.11292952E-01 0.11096787E+03</pdfrwt>
<pdfrwt beam="2">  1       21 0.38969009E-01 0.11096787E+03</pdfrwt>
<totfact> 0.42030756E+05</totfact>
</mgrwt>
</event>
<event>
 5    1  0.1708429E+000  0.1045732E+03  0.7546771E-02  0.1270963E+00
         21   -1    0    0  501  502  0.00000000000E+00  0.00000000000E+00  0.15904130509E+04  0.15904130509E+04  0.00000000000E+00 0. -1.
         21   -1    0    0  502  503 -0.00000000000E+00 -0.00000000000E+00 -0.79123784029E+01  0.79123784029E+01  0.00000000000E+00 0.  1.
         24    1    1    2    0    0 -0.30276196909E+02  0.59373103829E+02  0.98959881640E+03  0.99509539590E+03  0.80419002446E+02 0. -1.
          1    1    1    2  501    0  0.57559937935E+02 -0.48718523452E+02  0.50443258863E+03  0.51003811373E+03  0.00000000000E+00 0. -1.
         -2    1    1    2    0  503 -0.27283741026E+02 -0.10654580377E+02  0.88469267452E+02  0.93191919665E+02  0.00000000000E+00 0.  1.
<mgrwt>
<rscale>  2 0.10457322E+03</rscale>
<asrwt>0</asrwt>
<pdfrwt beam="1">  1       21 0.24467868E+00 0.10457322E+03</pdfrwt>
<pdfrwt beam="2">  1       21 0.12172903E-02 0.10457322E+03</pdfrwt>
<totfact> 0.20843048E+05</totfact>
</mgrwt>
</event>
<event>
 5    1  0.1708429E+000  0.1060754E+03  0.7546771E-02  0.1268015E+00
         21   -1    0    0  501  502  0.00000000000E+00  0.00000000000E+00  0.97566076399E+02  0.97566076399E+02  0.00000000000E+00 0.  1.
         21   -1    0    0  502  503 -0.00000000000E+00 -0.00000000000E+00 -0.15228810035E+03  0.15228810035E+03  0.00000000000E+00 0.  1.
         24    1    1    2    0    0 -0.45497550999E+02  0.56926364692E+02  0.29370035785E+02  0.11242976964E+03  0.80419002446E+02 0.  1.
          1    1    1    2  501    0 -0.17576068022E+02 -0.30577374666E+02 -0.10092032415E+02  0.36684371697E+02  0.00000000000E+00 0. -1.
         -2    1    1    2    0  503  0.63073619021E+02 -0.26348990026E+02 -0.74000027318E+02  0.10074003541E+03  0.00000000000E+00 0.  1.
<mgrwt>
<rscale>  2 0.10607538E+03</rscale>
<asrwt>0</asrwt>
<pdfrwt beam="1">  1       21 0.15010166E-01 0.10607538E+03</pdfrwt>
<pdfrwt beam="2">  1       21 0.23428938E-01 0.10607538E+03</pdfrwt>
<totfact> 0.67467336E+05</totfact>
</mgrwt>
</event>
<event>
 5    1  0.1708429E+000  0.9142246E+02  0.7546771E-02  0.1299443E+00
         21   -1    0    0  501  502  0.00000000000E+00  0.00000000000E+00  0.42087505595E+03  0.42087505595E+03  0.00000000000E+00 0. -1.
         21   -1    0    0  502  503 -0.00000000000E+00 -0.00000000000E+00 -0.49166356055E+02  0.49166356055E+02  0.00000000000E+00 0.  1.
         24    1    1    2    0    0 -0.37501195761E+02 -0.26708909044E+02  0.32102338937E+02  0.98068759682E+02  0.80419002446E+02 0.  1.
          1    1    1    2  501    0  0.41336510934E+02 -0.18157905686E+02  0.31947085649E+03  0.32264538556E+03  0.00000000000E+00 0. -1.
         -2    1    1    2    0  503 -0.38353151730E+01  0.44866814729E+02  0.20135504469E+02  0.49327266767E+02  0.00000000000E+00 0.  1.
<mgrwt>
<rscale>  2 0.91422457E+02</rscale>
<asrwt>0</asrwt>
<pdfrwt beam="1">  1       21 0.64750006E-01 0.91422457E+02</pdfrwt>
<pdfrwt beam="2">  1       21 0.75640551E-02 0.91422457E+02</pdfrwt>
<totfact> 0.29731479E+05</totfact>
</mgrwt>
</event>
<event>
 5    1  0.1708429E+000  0.6793344E+02  0.7546771E-02  0.1367265E+00
         21   -1    0    0  501  502  0.00000000000E+00  0.00000000000E+00  0.28770020157E+01  0.28770020157E+01  0.00000000000E+00 0.  1.
         21   -1    0    0  502  503 -0.00000000000E+00 -0.00000000000E+00 -0.21862632100E+04  0.21862632100E+04  0.00000000000E+00 0. -1.
         24    1    1    2    0    0 -0.20846707392E+02  0.33079205116E+02 -0.10627373077E+04  0.10664926724E+04  0.80419002446E+02 0.  1.
          1    1    1    2  501    0  0.19659123936E+02 -0.78170357999E+01 -0.13277271220E+03  0.13444768614E+03  0.00000000000E+00 0. -1.
         -2    1    1    2    0  503  0.11875834568E+01 -0.25262169317E+02 -0.98787618801E+03  0.98819985347E+03  0.00000000000E+00 0.  1.
<mgrwt>
<rscale>  2 0.67933438E+02</rscale>
<asrwt>0</asrwt>
<pdfrwt beam="1">  1       21 0.44261690E-03 0.67933438E+02</pdfrwt>
<pdfrwt beam="2">  1       21 0.33634727E+00 0.67933438E+02</pdfrwt>
<totfact> 0.32832781E+05</totfact>
</mgrwt>
</event>
<event>
 5    1  0.1708429E+000  0.6472365E+02  0.7546771E-02  0.1379014E+00
         21   -1    0    0  501  502  0.00000000000E+00  0.00000000000E+00  0.39725673758E+01  0.39725673758E+01  0.00000000000E+00 0.  1.
         21   -1    0    0  502  503 -0.00000000000E+00 -0.00000000000E+00 -0.14926877155E+04  0.14926877155E+04  0.00000000000E+00 0. -1.
         24    1    1    2    0    0  0.71529610219E+01  0.84294029286E-01 -0.83291522388E+03  0.83681907130E+03  0.80419002446E+02 0.  0.
          1    1    1    2  501    0  0.16212741333E+02  0.14006510322E+02 -0.65583673891E+02  0.68994591049E+02  0.00000000000E+00 0. -1.
         -2    1    1    2    0  503 -0.23365702355E+02 -0.14090804352E+02 -0.59021625040E+03  0.59084662058E+03  0.00000000000E+00 0.  1.
<mgrwt>
<rscale>  2 0.64723648E+02</rscale>
<asrwt>0</asrwt>
<pdfrwt beam="1">  1       21 0.61116419E-03 0.64723648E+02</pdfrwt>
<pdfrwt beam="2">  1       21 0.22964427E+00 0.64723648E+02</pdfrwt>
<totfact> 0.76382223E+05</totfact>
</mgrwt>
</event>
<event>
 5    1  0.1708429E+000  0.8623079E+02  0.7546771E-02  0.1312245E+00
         21   -1    0    0  503  502  0.00000000000E+00  0.00000000000E+00  0.34320543093E+02  0.34320543093E+02  0.00000000000E+00 0.  1.
         21   -1    0    0  501  503 -0.00000000000E+00 -0.00000000000E+00 -0.91958355480E+03  0.91958355480E+03  0.00000000000E+00 0. -1.
         24    1    1    2    0    0  0.55666583469E+02 -0.14573764767E+02 -0.21052050850E+03  0.23258818454E+03  0.80419002446E+02 0. -1.
          1    1    1    2  501    0 -0.36400255114E+02 -0.14095703223E+02 -0.68435051180E+03  0.68546282935E+03  0.00000000000E+00 0. -1.
         -2    1    1    2    0  502 -0.19266328354E+02  0.28669467990E+02  0.96080085941E+01  0.35853083999E+02  0.00000000000E+00 0.  1.
<mgrwt>
<rscale>  2 0.86230790E+02</rscale>
<asrwt>0</asrwt>
<pdfrwt beam="1">  1       21 0.52800838E-02 0.86230790E+02</pdfrwt>
<pdfrwt beam="2">  1       21 0.14147439E+00 0.86230790E+02</pdfrwt>
<totfact> 0.90639433E+04</totfact>
</mgrwt>
</event>
<event>
 5    1  0.1708429E+000  0.7987554E+02  0.7546771E-02  0.1329405E+00
         21   -1    0    0  501  502  0.00000000000E+00  0.00000000000E+00  0.91321260475E+02  0.91321260475E+02  0.00000000000E+00 0.  1.
         21   -1    0    0  502  503 -0.00000000000E+00 -0.00000000000E+00 -0.86963940239E+02  0.86963940239E+02  0.00000000000E+00 0. -1.
         24    1    1    2    0    0 -0.13558496382E+02  0.33351660921E+02  0.39036650074E+02  0.96370338350E+02  0.80419002446E+02 0.  0.
          1    1    1    2  501    0 -0.15339361766E+02 -0.39255679009E+02 -0.96629332770E+01  0.43239757554E+02  0.00000000000E+00 0. -1.
         -2    1    1    2    0  503  0.28897858148E+02  0.59040180873E+01 -0.25016396561E+02  0.38675104810E+02  0.00000000000E+00 0.  1.
<mgrwt>
<rscale>  2 0.79875545E+02</rscale>
<asrwt>0</asrwt>
<pdfrwt beam="1">  1       21 0.14049425E-01 0.79875545E+02</pdfrwt>
<pdfrwt beam="2">  1       21 0.13379068E-01 0.79875545E+02</pdfrwt>
<totfact> 0.20814820E+06</totfact>
</mgrwt>
</event>
<event>
 5    1  0.1708429E+000  0.7669656E+02  0.7546771E-02  0.1338696E+00
         21   -1    0    0  503  502  0.00000000000E+00  0.00000000000E+00  0.56721168173E+03  0.56721168173E+03  0.00000000000E+00 0. -1.
         21   -1    0    0  501  503 -0.00000000000E+00 -0.00000000000E+00 -0.18626284371E+02  0.18626284371E+02  0.00000000000E+00 0. -1.
         24    1    1    2    0    0  0.47285466538E+01 -0.50878080806E+02  0.17367820842E+03  0.19809662868E+03  0.80419002446E+02 0.  0.
          1    1    1    2  501    0  0.11664956610E+02  0.19972089266E+02  0.18490360137E+02  0.29611635895E+02  0.00000000000E+00 0. -1.
         -2    1    1    2    0  502 -0.16393503264E+02  0.30905991540E+02  0.35641682880E+03  0.35812970153E+03  0.00000000000E+00 0.  1.
<mgrwt>
<rscale>  2 0.76696563E+02</rscale>
<asrwt>0</asrwt>
<pdfrwt beam="1">  1       21 0.87263322E-01 0.76696563E+02</pdfrwt>
<pdfrwt beam="2">  1       21 0.28655826E-02 0.76696563E+02</pdfrwt>
<totfact> 0.77499003E+05</totfact>
</mgrwt>
</event>
<event>
 5    1  0.1708429E+000  0.8912374E+02  0.7546771E-02  0.1304988E+00
         21   -1    0    0  501  502  0.00000000000E+00  0.00000000000E+00  0.10058122792E+03  0.10058122792E+03  0.00000000000E+00 0. -1.
         21   -1    0    0  502  503 -0.00000000000E+00 -0.00000000000E+00 -0.15225759080E+03  0.15225759080E+03  0.00000000000E+00 0.  1.
         24    1    1    2    0    0 -0.28693772855E+02  0.49885441694E+01 -0.84169117219E+02  0.11999947675E+03  0.80419002446E+02 0.  1.
          1    1    1    2  501    0 -0.21017396642E+02 -0.30344887697E+02  0.60137700527E+02  0.70562640226E+02  0.00000000000E+00 0. -1.
         -2    1    1    2    0  503  0.49711169497E+02  0.25356343527E+02 -0.27644946190E+02  0.62276701741E+02  0.00000000000E+00 0.  1.
<mgrwt>
<rscale>  2 0.89123737E+02</rscale>
<asrwt>0</asrwt>
<pdfrwt beam="1">  1       21 0.15474035E-01 0.89123737E+02</pdfrwt>
<pdfrwt beam="2">  1       21 0.23424245E-01 0.89123737E+02</pdfrwt>
<totfact> 0.63856070E+05</totfact>
</mgrwt>
</event>
<event>
 5    1  0.1708429E+000  0.8745199E+02  0.7546771E-02  0.1309142E+00
         21   -1    0    0  501  502  0.00000000000E+00  0.00000000000E+00  0.30767322561E+03  0.30767322561E+03  0.00000000000E+00 0. -1.
         21   -1    0    0  502  503 -0.00000000000E+00 -0.00000000000E+00 -0.35278105634E+02  0.35278105634E+02  0.00000000000E+00 0.  1.
         24    1    1    2    0    0  0.21020190948E+02  0.60841201428E+02  0.63527800799E+02  0.12102271542E+03  0.80419002446E+02 0.  1.
          1    1    1    2  501    0 -0.13816847320E+01 -0.48883671669E+02  0.16871095237E+03  0.17565565137E+03  0.00000000000E+00 0. -1.
         -2    1    1    2    0  503 -0.19638506216E+02 -0.11957529760E+02  0.40156366806E+02  0.46272964454E+02  0.00000000000E+00 0.  1.
<mgrwt>
<rscale>  2 0.87451995E+02</rscale>
<asrwt>0</asrwt>
<pdfrwt beam="1">  1       21 0.47334341E-01 0.87451995E+02</pdfrwt>
<pdfrwt beam="2">  1       21 0.54274011E-02 0.87451995E+02</pdfrwt>
<totfact> 0.99659763E+05</totfact>
</mgrwt>
</event>
<event>
 5    1  0.1708429E+000  0.1058025E+03  0.7546771E-02  0.1268546E+00
         21   -1    0    0  503  502  0.00000000000E+00  0.00000000000E+00  0.18690320339E+03  0.18690320339E+03  0.00000000000E+00 0.  1.
         21   -1    0    0  501  503 -0.00000000000E+00 -0.00000000000E+00 -0.11039732381E+03  0.11039732381E+03  0.00000000000E+00 0. -1.
         24    1    1    2    0    0  0.87434028748E+02 -0.19432286875E+01  0.24903063295E+01  0.11883561377E+03  0.80419002446E+02 0. -1.
          1    1    1    2  501    0 -0.58702864578E+02 -0.13416284427E+02 -0.31553811350E+02  0.67982836129E+02  0.00000000000E+00 0. -1.
         -2    1    1    2    0  502 -0.28731164169E+02  0.15359513114E+02  0.10556938461E+03  0.11048207730E+03  0.00000000000E+00 0.  1.
<mgrwt>
<rscale>  2 0.10580252E+03</rscale>
<asrwt>0</asrwt>
<pdfrwt beam="1">  1       21 0.28754339E-01 0.10580252E+03</pdfrwt>
<pdfrwt beam="2">  1       21 0.16984204E-01 0.10580252E+03</pdfrwt>
<totfact> 0.36684582E+05</totfact>
</mgrwt>
</event>
<event>
 5    1  0.1708429E+000  0.7011369E+02  0.7546771E-02  0.1359707E+00
         21   -1    0    0  501  502  0.00000000000E+00  0.00000000000E+00  0.45703856583E+02  0.45703856583E+02  0.00000000000E+00 0. -1.
         21   -1    0    0  502  503 -0.00000000000E+00 -0.00000000000E+00 -0.11223293693E+03  0.11223293693E+03  0.00000000000E+00 0. -1.
         24    1    1    2    0    0  0.13937031494E+02 -0.33814070391E+02 -0.56660172526E+02  0.10495343400E+03  0.80419002446E+02 0. -1.
          1    1    1    2  501    0  0.11893794334E+02  0.18065458166E+02 -0.19865747340E+01  0.21720257861E+02  0.00000000000E+00 0. -1.
         -2    1    1    2    0  503 -0.25830825828E+02  0.15748612225E+02 -0.78823330869E+01  0.31263101651E+02  0.00000000000E+00 0.  1.
<mgrwt>
<rscale>  2 0.70113688E+02</rscale>
<asrwt>0</asrwt>
<pdfrwt beam="1">  1       21 0.70313627E-02 0.70113688E+02</pdfrwt>
<pdfrwt beam="2">  1       21 0.17266605E-01 0.70113688E+02</pdfrwt>
<totfact> 0.43284285E+06</totfact>
</mgrwt>
</event>
<event>
 5    1  0.1708429E+000  0.6514408E+02  0.7546771E-02  0.1377430E+00
         21   -1    0    0  503  502  0.00000000000E+00  0.00000000000E+00  0.12548159593E+02  0.12548159593E+02  0.00000000000E+00 0.  1.
         21   -1    0    0  501  503 -0.00000000000E+00 -0.00000000000E+00 -0.58114386267E+03  0.58114386267E+03  0.00000000000E+00 0.  1.
         24    1    1    2    0    0  0.29642293750E+02 -0.24467406670E+02 -0.39576990987E+03  0.40568258168E+03  0.80419002446E+02 0.  1.
          1    1    1    2  501    0 -0.10392924836E+02  0.18116782495E+02 -0.16494396213E+03  0.16626106381E+03  0.00000000000E+00 0. -1.
         -2    1    1    2    0  502 -0.19249368915E+02  0.63506241749E+01 -0.78818310716E+01  0.21748376768E+02  0.00000000000E+00 0.  1.
<mgrwt>
<rscale>  2 0.65144078E+02</rscale>
<asrwt>0</asrwt>
<pdfrwt beam="1">  1       21 0.19304861E-02 0.65144078E+02</pdfrwt>
<pdfrwt beam="2">  1       21 0.89406748E-01 0.65144078E+02</pdfrwt>
<totfact> 0.13763738E+06</totfact>
</mgrwt>
</event>
<event>
 5    1  0.1708429E+000  0.7856566E+02  0.7546771E-02  0.1333172E+00
         21   -1    0    0  501  502  0.00000000000E+00  0.00000000000E+00  0.53969857033E+03  0.53969857033E+03  0.00000000000E+00 0. -1.
         21   -1    0    0  502  503 -0.00000000000E+00 -0.00000000000E+00 -0.16043315603E+02  0.16043315603E+02  0.00000000000E+00 0. -1.
         24    1    1    2    0    0 -0.31203329289E+02 -0.89428920950E+01  0.24699691009E+03  0.26177912947E+03  0.80419002446E+02 0. -1.
          1    1    1    2  501    0  0.48313433337E+02 -0.46772468744E+01  0.26454826107E+03  0.26896439712E+03  0.00000000000E+00 0. -1.
         -2    1    1    2    0  503 -0.17110104048E+02  0.13620138969E+02  0.12110083564E+02  0.24998359346E+02  0.00000000000E+00 0.  1.
<mgrwt>
<rscale>  2 0.78565662E+02</rscale>
<asrwt>0</asrwt>
<pdfrwt beam="1">  1       21 0.83030535E-01 0.78565662E+02</pdfrwt>
<pdfrwt beam="2">  1       21 0.24682028E-02 0.78565662E+02</pdfrwt>
<totfact> 0.11012907E+06</totfact>
</mgrwt>
</event>
<event>
 5    1  0.1708429E+000  0.8383279E+02  0.7546771E-02  0.1318513E+00
         21   -1    0    0  501  502  0.00000000000E+00  0.00000000000E+00  0.17617833294E+02  0.17617833294E+02  0.00000000000E+00 0. -1.
         21   -1    0    0  502  503 -0.00000000000E+00 -0.00000000000E+00 -0.49068696608E+03  0.49068696608E+03  0.00000000000E+00 0.  1.
         24    1    1    2    0    0 -0.36885995909E+02  0.31736770502E+02 -0.15337875270E+03  0.17988901309E+03  0.80419002446E+02 0. -1.
          1    1    1    2  501    0 -0.12939779484E+02 -0.17662790926E+02 -0.67392520877E+02  0.70860171793E+02  0.00000000000E+00 0. -1.
         -2    1    1    2    0  503  0.49825775393E+02 -0.14073979576E+02 -0.25229785921E+03  0.25755561449E+03  0.00000000000E+00 0.  1.
<mgrwt>
<rscale>  2 0.83832786E+02</rscale>
<asrwt>0</asrwt>
<pdfrwt beam="1">  1       21 0.27104356E-02 0.83832786E+02</pdfrwt>
<pdfrwt beam="2">  1       21 0.75490310E-01 0.83832786E+02</pdfrwt>
<totfact> 0.11689001E+06</totfact>
</mgrwt>
</event>
<event>
 5    1  0.1708429E+000  0.1427633E+03  0.7546771E-02  0.1209658E+00
         21   -1    0    0  501  502  0.00000000000E+00  0.00000000000E+00  0.36134765749E+03  0.36134765749E+03  0.00000000000E+00 0. -1.
         21   -1    0    0  502  503 -0.00000000000E+00 -0.00000000000E+00 -0.14527290210E+03  0.14527290210E+03  0.00000000000E+00 0.  1.
         24    1    1    2    0    0  0.13033915141E+03  0.16196732044E+02  0.68890738358E+02  0.16871211665E+03  0.80419002446E+02 0. -1.
          1    1    1    2  501    0 -0.87360041794E+02 -0.14097771634E+02  0.22898028731E+03  0.24548420732E+03  0.00000000000E+00 0. -1.
         -2    1    1    2    0  503 -0.42979109619E+02 -0.20989604098E+01 -0.81796270277E+02  0.92424235619E+02  0.00000000000E+00 0.  1.
<mgrwt>
<rscale>  2 0.14276328E+03</rscale>
<asrwt>0</asrwt>
<pdfrwt beam="1">  1       21 0.55591947E-01 0.14276328E+03</pdfrwt>
<pdfrwt beam="2">  1       21 0.22349677E-01 0.14276328E+03</pdfrwt>
<totfact> 0.58488110E+04</totfact>
</mgrwt>
</event>
<event>
 5    1  0.1708429E+000  0.8089352E+02  0.7546771E-02  0.1326535E+00
         21   -1    0    0  503  502  0.00000000000E+00  0.00000000000E+00  0.10361996821E+02  0.10361996821E+02  0.00000000000E+00 0.  1.
         21   -1    0    0  501  503 -0.00000000000E+00 -0.00000000000E+00 -0.11596105135E+04  0.11596105135E+04  0.00000000000E+00 0.  1.
         24    1    1    2    0    0 -0.44138932105E+02  0.40893842987E+02 -0.68304770263E+03  0.69039259248E+03  0.80419002446E+02 0.  1.
          1    1    1    2  501    0  0.22862362169E+02 -0.29152097984E+02 -0.44720019297E+03  0.44873215286E+03  0.00000000000E+00 0. -1.
         -2    1    1    2    0  502  0.21276569936E+02 -0.11741745003E+02 -0.19000621117E+02  0.30847765021E+02  0.00000000000E+00 0.  1.
<mgrwt>
<rscale>  2 0.80893523E+02</rscale>
<asrwt>0</asrwt>
<pdfrwt beam="1">  1       21 0.15941533E-02 0.80893523E+02</pdfrwt>
<pdfrwt beam="2">  1       21 0.17840162E+00 0.80893523E+02</pdfrwt>
<totfact> 0.34768008E+05</totfact>
</mgrwt>
</event>
<event>
 5    1  0.1708429E+000  0.1227807E+03  0.7546771E-02  0.1238579E+00
         21   -1    0    0  503  502  0.00000000000E+00  0.00000000000E+00  0.62350273865E+02  0.62350273865E+02  0.00000000000E+00 0. -1.
         21   -1    0    0  501  503 -0.00000000000E+00 -0.00000000000E+00 -0.52631006010E+03  0.52631006010E+03  0.00000000000E+00 0.  1.
         24    1    1    2    0    0 -0.60941726808E+02 -0.68609013991E+02 -0.43742706681E+03  0.45412635423E+03  0.80419002446E+02 0.  1.
          1    1    1    2  501    0  0.29024104347E+02  0.83443592877E+02 -0.39828315353E+02  0.96909888708E+02  0.00000000000E+00 0. -1.
         -2    1    1    2    0  502  0.31917622461E+02 -0.14834578887E+02  0.13295595937E+02  0.37624091027E+02  0.00000000000E+00 0.  1.
<mgrwt>
<rscale>  2 0.12278073E+03</rscale>
<asrwt>0</asrwt>
<pdfrwt beam="1">  1       21 0.95923496E-02 0.12278073E+03</pdfrwt>
<pdfrwt beam="2">  1       21 0.80970780E-01 0.12278073E+03</pdfrwt>
<totfact> 0.12002570E+05</totfact>
</mgrwt>
</event>
<event>
 5    1  0.1708429E+000  0.1216682E+03  0.7546771E-02  0.1240370E+00
         21   -1    0    0  503  502  0.00000000000E+00  0.00000000000E+00  0.16439414882E+03  0.16439414882E+03  0.00000000000E+00 0.  1.
         21   -1    0    0  501  503 -0.00000000000E+00 -0.00000000000E+00 -0.18428820870E+03  0.18428820870E+03  0.00000000000E+00 0.  1.
         24    1    1    2    0    0 -0.90758378227E+02 -0.40002491399E+02 -0.12476654591E+03  0.17852503877E+03  0.80419002446E+02 0.  1.
          1    1    1    2  501    0  0.20791416797E+02 -0.15831709259E+02 -0.68323367379E+01  0.27011235732E+02  0.00000000000E+00 0. -1.
         -2    1    1    2    0  502  0.69966961430E+02  0.55834200659E+02  0.11170482276E+03  0.14314608301E+03  0.00000000000E+00 0.  1.
<mgrwt>
<rscale>  2 0.12166818E+03</rscale>
<asrwt>0</asrwt>
<pdfrwt beam="1">  1       21 0.25291408E-01 0.12166818E+03</pdfrwt>
<pdfrwt beam="2">  1       21 0.28352032E-01 0.12166818E+03</pdfrwt>
<totfact> 0.17984613E+05</totfact>
</mgrwt>
</event>
<event>
 5    1  0.1708429E+000  0.7464554E+02  0.7546771E-02  0.1344972E+00
         21   -1    0    0  501  502  0.00000000000E+00  0.00000000000E+00  0.88504125431E+02  0.88504125431E+02  0.00000000000E+00 0.  1.
         21   -1    0    0  502  503 -0.00000000000E+00 -0.00000000000E+00 -0.67679566500E+02  0.67679566500E+02  0.00000000000E+00 0. -1.
         24    1    1    2    0    0  0.27456128518E+02  0.30918405656E+02  0.27797333061E+02  0.94602824911E+02  0.80419002446E+02 0.  1.
          1    1    1    2  501    0 -0.34893403936E+02 -0.94591761403E+01  0.39709208563E+01  0.36370233212E+02  0.00000000000E+00 0. -1.
         -2    1    1    2    0  503  0.74372754175E+01 -0.21459229516E+02 -0.10943694985E+02  0.25210633807E+02  0.00000000000E+00 0.  1.
<mgrwt>
<rscale>  2 0.74645538E+02</rscale>
<asrwt>0</asrwt>
<pdfrwt beam="1">  1       21 0.13616019E-01 0.74645538E+02</pdfrwt>
<pdfrwt beam="2">  1       21 0.10412241E-01 0.74645538E+02</pdfrwt>
<totfact> 0.33951975E+06</totfact>
</mgrwt>
</event>
<event>
 5    1  0.1708429E+000  0.7070377E+02  0.7546771E-02  0.1357716E+00
         21   -1    0    0  503  502  0.00000000000E+00  0.00000000000E+00  0.80970944312E+03  0.80970944312E+03  0.00000000000E+00 0. -1.
         21   -1    0    0  501  503 -0.00000000000E+00 -0.00000000000E+00 -0.20887862955E+02  0.20887862955E+02  0.00000000000E+00 0. -1.
         24    1    1    2    0    0 -0.35354597321E+02  0.27671244608E+02  0.47720003895E+03  0.48600693252E+03  0.80419002446E+02 0. -1.
          1    1    1    2  501    0  0.21603344025E+02 -0.40603026666E+01 -0.83057427535E+01  0.23498423213E+02  0.00000000000E+00 0. -1.
         -2    1    1    2    0  502  0.13751253296E+02 -0.23610941941E+02  0.31992728396E+03  0.32109195034E+03  0.00000000000E+00 0.  1.
<mgrwt>
<rscale>  2 0.70703772E+02</rscale>
<asrwt>0</asrwt>
<pdfrwt beam="1">  1       21 0.12457066E+00 0.70703772E+02</pdfrwt>
<pdfrwt beam="2">  1       21 0.32135180E-02 0.70703772E+02</pdfrwt>
<totfact> 0.28242501E+05</totfact>
</mgrwt>
</event>
<event>
 5    1  0.1708429E+000  0.9063075E+02  0.7546771E-02  0.1301331E+00
         21   -1    0    0  501  502  0.00000000000E+00  0.00000000000E+00  0.66730144823E+02  0.66730144823E+02  0.00000000000E+00 0. -1.
         21   -1    0    0  502  503 -0.00000000000E+00 -0.00000000000E+00 -0.14885521985E+03  0.14885521985E+03  0.00000000000E+00 0. -1.
         24    1    1    2    0    0  0.44519636307E+02 -0.54392824486E+02 -0.48100916697E+02  0.11713877033E+03  0.80419002446E+02 0. -1.
          1    1    1    2  501    0 -0.20881772697E+02  0.79535972034E+01  0.14990663966E+02  0.26907771100E+02  0.00000000000E+00 0. -1.
         -2    1    1    2    0  503 -0.23637863611E+02  0.46439227282E+02 -0.49014822296E+02  0.71538823246E+02  0.00000000000E+00 0.  1.
<mgrwt>
<rscale>  2 0.90630750E+02</rscale>
<asrwt>0</asrwt>
<pdfrwt beam="1">  1       21 0.10266176E-01 0.90630750E+02</pdfrwt>
<pdfrwt beam="2">  1       21 0.22900803E-01 0.90630750E+02</pdfrwt>
<totfact> 0.13723431E+06</totfact>
</mgrwt>
</event>
<event>
 5    1  0.1708429E+000  0.7423227E+02  0.7546771E-02  0.1346265E+00
         21   -1    0    0  503  502  0.00000000000E+00  0.00000000000E+00  0.16047014308E+02  0.16047014308E+02  0.00000000000E+00 0.  1.
         21   -1    0    0  501  503 -0.00000000000E+00 -0.00000000000E+00 -0.34855860005E+03  0.34855860005E+03  0.00000000000E+00 0.  1.
         24    1    1    2    0    0 -0.17816650373E+02 -0.29926738202E+02 -0.21644372707E+03  0.23351262414E+03  0.80419002446E+02 0.  1.
          1    1    1    2  501    0 -0.86659338689E+01  0.33044538479E+02 -0.61216747510E+02  0.70103709665E+02  0.00000000000E+00 0. -1.
         -2    1    1    2    0  502  0.26482584242E+02 -0.31178002768E+01 -0.54851111162E+02  0.60989280553E+02  0.00000000000E+00 0.  1.
<mgrwt>
<rscale>  2 0.74232267E+02</rscale>
<asrwt>0</asrwt>
<pdfrwt beam="1">  1       21 0.24687713E-02 0.74232267E+02</pdfrwt>
<pdfrwt beam="2">  1       21 0.53624402E-01 0.74232267E+02</pdfrwt>
<totfact> 0.27877447E+06</totfact>
</mgrwt>
</event>
<event>
 5    1  0.1708429E+000  0.1153604E+03  0.7546771E-02  0.1250953E+00
         21   -1    0    0  501  502  0.00000000000E+00  0.00000000000E+00  0.18877981072E+03  0.18877981072E+03  0.00000000000E+00 0. -1.
         21   -1    0    0  502  503 -0.00000000000E+00 -0.00000000000E+00 -0.23086132871E+03  0.23086132871E+03  0.00000000000E+00 0.  1.
         24    1    1    2    0    0  0.57232713703E+02  0.64926729873E+02  0.73604904541E+01  0.11837422246E+03  0.80419002446E+02 0.  1.
          1    1    1    2  501    0 -0.18397058801E+02  0.14984567605E+02  0.11335028874E+03  0.11580706799E+03  0.00000000000E+00 0. -1.
         -2    1    1    2    0  503 -0.38835654902E+02 -0.79911297478E+02 -0.16279229718E+03  0.18545984897E+03  0.00000000000E+00 0.  1.
<mgrwt>
<rscale>  2 0.11536044E+03</rscale>
<asrwt>0</asrwt>
<pdfrwt beam="1">  1       21 0.29043048E-01 0.11536044E+03</pdfrwt>
<pdfrwt beam="2">  1       21 0.35517127E-01 0.11536044E+03</pdfrwt>
<totfact> 0.89560199E+04</totfact>
</mgrwt>
</event>
<event>
 5    1  0.1708429E+000  0.7470379E+02  0.7546771E-02  0.1344791E+00
         21   -1    0    0  503  502  0.00000000000E+00  0.00000000000E+00  0.19327736324E+03  0.19327736324E+03  0.00000000000E+00 0.  1.
         21   -1    0    0  501  503 -0.00000000000E+00 -0.00000000000E+00 -0.44257624679E+02  0.44257624679E+02  0.00000000000E+00 0.  1.
         24    1    1    2    0    0 -0.28412244416E+02  0.37261824299E+02  0.38252544490E+02  0.10062888401E+03  0.80419002446E+02 0.  1.
          1    1    1    2  501    0  0.22564069596E+02 -0.44434347497E+01  0.19300272713E+01  0.23078265844E+02  0.00000000000E+00 0. -1.
         -2    1    1    2    0  502  0.58481748201E+01 -0.32818389550E+02  0.10883716680E+03  0.11382783807E+03  0.00000000000E+00 0.  1.
<mgrwt>
<rscale>  2 0.74703794E+02</rscale>
<asrwt>0</asrwt>
<pdfrwt beam="1">  1       21 0.29734979E-01 0.74703794E+02</pdfrwt>
<pdfrwt beam="2">  1       21 0.68088654E-02 0.74703794E+02</pdfrwt>
<totfact> 0.16851749E+06</totfact>
</mgrwt>
</event>
<event>
 5    1  0.1708429E+000  0.6373855E+02  0.7546771E-02  0.1382780E+00
         21   -1    0    0  503  502  0.00000000000E+00  0.00000000000E+00  0.43937491311E+02  0.43937491311E+02  0.00000000000E+00 0. -1.
         21   -1    0    0  501  503 -0.00000000000E+00 -0.00000000000E+00 -0.12252473612E+03  0.12252473612E+03  0.00000000000E+00 0.  1.
         24    1    1    2    0    0 -0.11686605724E+02  0.36918094308E+01 -0.37185910021E+02  0.89443915772E+02  0.80419002446E+02 0.  0.
          1    1    1    2  501    0  0.13822566190E+02  0.18912070840E+02 -0.47968848215E+02  0.53382957567E+02  0.00000000000E+00 0. -1.
         -2    1    1    2    0  502 -0.21359604659E+01 -0.22603880271E+02  0.65675134274E+01  0.23635354091E+02  0.00000000000E+00 0.  1.
<mgrwt>
<rscale>  2 0.63738548E+02</rscale>
<asrwt>0</asrwt>
<pdfrwt beam="1">  1       21 0.67596142E-02 0.63738548E+02</pdfrwt>
<pdfrwt beam="2">  1       21 0.18849959E-01 0.63738548E+02</pdfrwt>
<totfact> 0.39229889E+06</totfact>
</mgrwt>
</event>
<event>
 5    1  0.1708429E+000  0.1081934E+03  0.7546771E-02  0.1263952E+00
         21   -1    0    0  501  502  0.00000000000E+00  0.00000000000E+00  0.16754556061E+02  0.16754556061E+02  0.00000000000E+00 0. -1.
         21   -1    0    0  502  503 -0.00000000000E+00 -0.00000000000E+00 -0.12896480417E+04  0.12896480417E+04  0.00000000000E+00 0.  1.
         24    1    1    2    0    0  0.57031680031E+02 -0.25819315242E+02 -0.53360785389E+03  0.54325298642E+03  0.80419002446E+02 0.  1.
          1    1    1    2  501    0  0.15057101368E+02  0.38443469603E+02 -0.32391098593E+02  0.52476660763E+02  0.00000000000E+00 0. -1.
         -2    1    1    2    0  503 -0.72088781399E+02 -0.12624154361E+02 -0.70689453316E+03  0.71067295059E+03  0.00000000000E+00 0.  1.
<mgrwt>
<rscale>  2 0.10819341E+03</rscale>
<asrwt>0</asrwt>
<pdfrwt beam="1">  1       21 0.25776245E-02 0.10819341E+03</pdfrwt>
<pdfrwt beam="2">  1       21 0.19840736E+00 0.10819341E+03</pdfrwt>
<totfact> 0.11775985E+05</totfact>
</mgrwt>
</event>
<event>
 5    1  0.1708429E+000  0.6800279E+02  0.7546771E-02  0.1367019E+00
         21   -1    0    0  501  502  0.00000000000E+00  0.00000000000E+00  0.23071321080E+02  0.23071321080E+02  0.00000000000E+00 0. -1.
         21   -1    0    0  502  503 -0.00000000000E+00 -0.00000000000E+00 -0.46551613984E+03  0.46551613984E+03  0.00000000000E+00 0.  1.
         24    1    1    2    0    0  0.37897988571E+01 -0.15392130808E+02 -0.33296098191E+03  0.34290160643E+03  0.80419002446E+02 0.  1.
          1    1    1    2  501    0  0.22302559908E+02  0.16779720166E+02  0.49163535919E+01  0.28339613969E+02  0.00000000000E+00 0. -1.
         -2    1    1    2    0  503 -0.26092358765E+02 -0.13875893578E+01 -0.11440019045E+03  0.11734624053E+03  0.00000000000E+00 0.  1.
<mgrwt>
<rscale>  2 0.68002787E+02</rscale>
<asrwt>0</asrwt>
<pdfrwt beam="1">  1       21 0.35494344E-02 0.68002787E+02</pdfrwt>
<pdfrwt beam="2">  1       21 0.71617859E-01 0.68002787E+02</pdfrwt>
<totfact> 0.84291529E+05</totfact>
</mgrwt>
</event>
<event>
 5    1  0.1708429E+000  0.7745247E+02  0.7546771E-02  0.1336440E+00
         21   -1    0    0  503  502  0.00000000000E+00  0.00000000000E+00  0.45126006882E+02  0.45126006882E+02  0.00000000000E+00 0.  1.
         21   -1    0    0  501  503 -0.00000000000E+00 -0.00000000000E+00 -0.78562933104E+03  0.78562933104E+03  0.00000000000E+00 0. -1.
         24    1    1    2    0    0  0.15408566805E+02  0.54438645079E+02 -0.12124383327E+03  0.15610340505E+03  0.80419002446E+02 0.  0.
          1    1    1    2  501    0 -0.76697460216E+01 -0.27577454314E+02 -0.63949965607E+03  0.64013994650E+03  0.00000000000E+00 0. -1.
         -2    1    1    2    0  502 -0.77388207836E+01 -0.26861190765E+02  0.20240165182E+02  0.34511986368E+02  0.00000000000E+00 0.  1.
<mgrwt>
<rscale>  2 0.77452466E+02</rscale>
<asrwt>0</asrwt>
<pdfrwt beam="1">  1       21 0.69424622E-02 0.77452466E+02</pdfrwt>
<pdfrwt beam="2">  1       21 0.12086606E+00 0.77452466E+02</pdfrwt>
<totfact> 0.84789258E+04</totfact>
</mgrwt>
</event>
<event>
 5    1  0.1708429E+000  0.6965853E+02  0.7546771E-02  0.1361258E+00
         21   -1    0    0  501  502  0.00000000000E+00  0.00000000000E+00  0.48120400036E+01  0.48120400036E+01  0.00000000000E+00 0.  1.
         21   -1    0    0  502  503 -0.00000000000E+00 -0.00000000000E+00 -0.17021332775E+04  0.17021332775E+04  0.00000000000E+00 0.  1.
         24    1    1    2    0    0 -0.28628927591E+02  0.22151521360E+02 -0.81376579394E+03  0.81853056677E+03  0.80419002446E+02 0.  1.
          1    1    1    2  501    0  0.25316311046E+02  0.32376044514E+01 -0.70863047699E+02  0.75319115879E+02  0.00000000000E+00 0. -1.
         -2    1    1    2    0  503  0.33126165446E+01 -0.25389125811E+02 -0.81269239581E+03  0.81309563481E+03  0.00000000000E+00 0.  1.
<mgrwt>
<rscale>  2 0.69658535E+02</rscale>
<asrwt>0</asrwt>
<pdfrwt beam="1">  1       21 0.74031403E-03 0.69658535E+02</pdfrwt>
<pdfrwt beam="2">  1       21 0.26186659E+00 0.69658535E+02</pdfrwt>
<totfact> 0.37627209E+05</totfact>
</mgrwt>
</event>
<event>
 5    1  0.1708429E+000  0.9902238E+02  0.7546771E-02  0.1282365E+00
         21   -1    0    0  501  502  0.00000000000E+00  0.00000000000E+00  0.13693158783E+04  0.13693158783E+04  0.00000000000E+00 0.  1.
         21   -1    0    0  502  503 -0.00000000000E+00 -0.00000000000E+00 -0.75748322094E+01  0.75748322094E+01  0.00000000000E+00 0. -1.
         24    1    1    2    0    0 -0.14296160284E+02  0.36082367868E+02  0.47951286953E+03  0.48775621520E+03  0.80419002446E+02 0. -1.
          1    1    1    2  501    0  0.24618482370E+02  0.31727846783E+02  0.40798591453E+03  0.40995759828E+03  0.00000000000E+00 0. -1.
         -2    1    1    2    0  503 -0.10322322086E+02 -0.67810214651E+02  0.47424226203E+03  0.47917689702E+03  0.00000000000E+00 0.  1.
<mgrwt>
<rscale>  2 0.99022385E+02</rscale>
<asrwt>0</asrwt>
<pdfrwt beam="1">  1       21 0.21066378E+00 0.99022385E+02</pdfrwt>
<pdfrwt beam="2">  1       21 0.11653599E-02 0.99022385E+02</pdfrwt>
<totfact> 0.35424082E+05</totfact>
</mgrwt>
</event>
<event>
 5    1  0.1708429E+000  0.7779208E+02  0.7546771E-02  0.1335437E+00
         21   -1    0    0  503  502  0.00000000000E+00  0.00000000000E+00  0.27025484539E+03  0.27025484539E+03  0.00000000000E+00 0. -1.
         21   -1    0    0  501  503 -0.00000000000E+00 -0.00000000000E+00 -0.31287136022E+02  0.31287136022E+02  0.00000000000E+00 0.  1.
         24    1    1    2    0    0 -0.68534339447E+00 -0.39930498974E+02  0.16661615962E+03  0.18926984716E+03  0.80419002446E+02 0. -1.
          1    1    1    2  501    0 -0.19993890158E+02 -0.91291821109E+00 -0.65431108378E+01  0.21057097681E+02  0.00000000000E+00 0. -1.
         -2    1    1    2    0  502  0.20679233552E+02  0.40843417185E+02  0.78894660591E+02  0.91215036575E+02  0.00000000000E+00 0.  1.
<mgrwt>
<rscale>  2 0.77792082E+02</rscale>
<asrwt>0</asrwt>
<pdfrwt beam="1">  1       21 0.41577667E-01 0.77792082E+02</pdfrwt>
<pdfrwt beam="2">  1       21 0.48134057E-02 0.77792082E+02</pdfrwt>
<totfact> 0.15725004E+06</totfact>
</mgrwt>
</event>
<event>
 5    1  0.1708429E+000  0.9123260E+02  0.7546771E-02  0.1299894E+00
         21   -1    0    0  503  502  0.00000000000E+00  0.00000000000E+00  0.11783562366E+03  0.11783562366E+03  0.00000000000E+00 0.  1.
         21   -1    0    0  501  503 -0.00000000000E+00 -0.00000000000E+00 -0.11044728713E+03  0.11044728713E+03  0.00000000000E+00 0. -1.
         24    1    1    2    0    0  0.43071969878E+02  0.42494865290E+02 -0.42415050968E+02  0.10921199874E+03  0.80419002446E+02 0. -1.
          1    1    1    2  501    0 -0.31300432508E+02  0.60453984953E+01 -0.16629988807E+02  0.35955812408E+02  0.00000000000E+00 0. -1.
         -2    1    1    2    0  502 -0.11771537370E+02 -0.48540263785E+02  0.66433376311E+02  0.83115099642E+02  0.00000000000E+00 0.  1.
<mgrwt>
<rscale>  2 0.91232604E+02</rscale>
<asrwt>0</asrwt>
<pdfrwt beam="1">  1       21 0.18128558E-01 0.91232604E+02</pdfrwt>
<pdfrwt beam="2">  1       21 0.16991890E-01 0.91232604E+02</pdfrwt>
<totfact> 0.86433192E+05</totfact>
</mgrwt>
</event>
<event>
 5    1  0.1708429E+000  0.8402790E+02  0.7546771E-02  0.1317994E+00
         21   -1    0    0  503  502  0.00000000000E+00  0.00000000000E+00  0.42642573273E+02  0.42642573273E+02  0.00000000000E+00 0. -1.
         21   -1    0    0  501  503 -0.00000000000E+00 -0.00000000000E+00 -0.70182586653E+03  0.70182586653E+03  0.00000000000E+00 0. -1.
         24    1    1    2    0    0  0.47557148334E+02 -0.76910486196E+01 -0.35146631080E+02  0.10011661309E+03  0.80419002446E+02 0. -1.
          1    1    1    2  501    0 -0.33458250517E+01  0.26177559946E+02 -0.57563902478E+03  0.57624365163E+03  0.00000000000E+00 0. -1.
         -2    1    1    2    0  502 -0.44211323283E+02 -0.18486511327E+02 -0.48397637391E+02  0.68108175078E+02  0.00000000000E+00 0.  1.
<mgrwt>
<rscale>  2 0.84027901E+02</rscale>
<asrwt>0</asrwt>
<pdfrwt beam="1">  1       21 0.65603960E-02 0.84027901E+02</pdfrwt>
<pdfrwt beam="2">  1       21 0.10797321E+00 0.84027901E+02</pdfrwt>
<totfact> 0.12129298E+05</totfact>
</mgrwt>
</event>
<event>
 5    1  0.1708429E+000  0.1047793E+03  0.7546771E-02  0.1270555E+00
         21   -1    0    0  501  502  0.00000000000E+00  0.00000000000E+00  0.95440360377E+03  0.95440360377E+03  0.00000000000E+00 0.  1.
         21   -1    0    0  502  503 -0.00000000000E+00 -0.00000000000E+00 -0.22976091800E+02  0.22976091800E+02  0.00000000000E+00 0. -1.
         24    1    1    2    0    0  0.50466614189E+02  0.20747710636E+02  0.18694896864E+03  0.21069997502E+03  0.80419002446E+02 0.  0.
          1    1    1    2  501    0 -0.67815515508E+02 -0.45850468504E+02  0.72683764957E+03  0.73143296237E+03  0.00000000000E+00 0. -1.
         -2    1    1    2    0  503  0.17348901318E+02  0.25102757869E+02  0.17640893761E+02  0.35246758181E+02  0.00000000000E+00 0.  1.
<mgrwt>
<rscale>  2 0.10477926E+03</rscale>
<asrwt>0</asrwt>
<pdfrwt beam="1">  1       21 0.14683129E+00 0.10477926E+03</pdfrwt>
<pdfrwt beam="2">  1       21 0.35347841E-02 0.10477926E+03</pdfrwt>
<totfact> 0.15841689E+05</totfact>
</mgrwt>
</event>
<event>
 5    1  0.1708429E+000  0.7802837E+02  0.7546771E-02  0.1334742E+00
         21   -1    0    0  503  502  0.00000000000E+00  0.00000000000E+00  0.15663169796E+03  0.15663169796E+03  0.00000000000E+00 0. -1.
         21   -1    0    0  501  503 -0.00000000000E+00 -0.00000000000E+00 -0.54403012308E+02  0.54403012308E+02  0.00000000000E+00 0. -1.
         24    1    1    2    0    0  0.68093925960E+01 -0.51569932923E+02  0.44839706390E+02  0.10575273534E+03  0.80419002446E+02 0. -1.
          1    1    1    2  501    0  0.12162596597E+02  0.22270467946E+02 -0.11649142751E+02  0.27921408011E+02  0.00000000000E+00 0. -1.
         -2    1    1    2    0  502 -0.18971989193E+02  0.29299464977E+02  0.69038122016E+02  0.77360566915E+02  0.00000000000E+00 0.  1.
<mgrwt>
<rscale>  2 0.78028374E+02</rscale>
<asrwt>0</asrwt>
<pdfrwt beam="1">  1       21 0.24097184E-01 0.78028374E+02</pdfrwt>
<pdfrwt beam="2">  1       21 0.83696943E-02 0.78028374E+02</pdfrwt>
<totfact> 0.17652040E+06</totfact>
</mgrwt>
</event>
<event>
 5    1  0.1708429E+000  0.7253331E+02  0.7546771E-02  0.1351684E+00
         21   -1    0    0  501  502  0.00000000000E+00  0.00000000000E+00  0.53829507723E+02  0.53829507723E+02  0.00000000000E+00 0. -1.
         21   -1    0    0  502  503 -0.00000000000E+00 -0.00000000000E+00 -0.13898332369E+03  0.13898332369E+03  0.00000000000E+00 0. -1.
         24    1    1    2    0    0 -0.75883044042E+01 -0.63584942540E+01 -0.80941018920E+02  0.11452806342E+03  0.80419002446E+02 0. -1.
          1    1    1    2  501    0  0.35537336726E+02  0.81297229849E+00  0.20093005498E+02  0.40832488235E+02  0.00000000000E+00 0. -1.
         -2    1    1    2    0  503 -0.27949032322E+02  0.55455219555E+01 -0.24305802543E+02  0.37452279754E+02  0.00000000000E+00 0.  1.
<mgrwt>
<rscale>  2 0.72533307E+02</rscale>
<asrwt>0</asrwt>
<pdfrwt beam="1">  1       21 0.82814628E-02 0.72533307E+02</pdfrwt>
<pdfrwt beam="2">  1       21 0.21382050E-01 0.72533307E+02</pdfrwt>
<totfact> 0.22328564E+06</totfact>
</mgrwt>
</event>
<event>
 5    1  0.2375953E+000  0.8270761E+02  0.7546771E-02  0.1321539E+00
         21   -1    0    0  501  502  0.00000000000E+00  0.00000000000E+00  0.17547573457E+03  0.17547573457E+03  0.00000000000E+00 0.  1.
         21   -1    0    0  502  503 -0.00000000000E+00 -0.00000000000E+00 -0.19352963050E+03  0.19352963050E+03  0.00000000000E+00 0.  1.
         24    1    1    2    0    0 -0.54554526137E+02  0.19411373198E+02  0.11853115359E+03  0.15449869921E+03  0.80419002446E+02 0.  1.
          1    1    1    2  501    0  0.34963787859E+02  0.46702964524E+01  0.29229611191E+02  0.45811006328E+02  0.00000000000E+00 0. -1.
         -2    1    1    2    0  503  0.19590738278E+02 -0.24081669651E+02 -0.16581466071E+03  0.16869565953E+03  0.00000000000E+00 0.  1.
<mgrwt>
<rscale>  2 0.82707610E+02</rscale>
<asrwt>0</asrwt>
<pdfrwt beam="1">  1       21 0.26996267E-01 0.82707610E+02</pdfrwt>
<pdfrwt beam="2">  1       21 0.29773789E-01 0.82707610E+02</pdfrwt>
<totfact> 0.14682582E+05</totfact>
</mgrwt>
</event>
<event>
 5    1  0.1708429E+000  0.7520141E+02  0.7546771E-02  0.1343248E+00
         21   -1    0    0  503  502  0.00000000000E+00  0.00000000000E+00  0.43051232194E+02  0.43051232194E+02  0.00000000000E+00 0. -1.
         21   -1    0    0  501  503 -0.00000000000E+00 -0.00000000000E+00 -0.18829936122E+03  0.18829936122E+03  0.00000000000E+00 0.  1.
         24    1    1    2    0    0  0.36353212246E+02  0.38908409011E+02 -0.11846562249E+03  0.15276367369E+03  0.80419002446E+02 0.  0.
          1    1    1    2  501    0 -0.14853685942E+02 -0.22259813433E+02 -0.40178174640E+02  0.48274392773E+02  0.00000000000E+00 0. -1.
         -2    1    1    2    0  502 -0.21499526303E+02 -0.16648595578E+02  0.13395668108E+02  0.30312526950E+02  0.00000000000E+00 0.  1.
<mgrwt>
<rscale>  2 0.75201407E+02</rscale>
<asrwt>0</asrwt>
<pdfrwt beam="1">  1       21 0.66232667E-02 0.75201407E+02</pdfrwt>
<pdfrwt beam="2">  1       21 0.28969132E-01 0.75201407E+02</pdfrwt>
<totfact> 0.18553771E+06</totfact>
</mgrwt>
</event>
<event>
 5    1  0.1708429E+000  0.6243737E+02  0.7546771E-02  0.1387879E+00
         21   -1    0    0  501  502  0.00000000000E+00  0.00000000000E+00  0.10761978785E+02  0.10761978785E+02  0.00000000000E+00 0.  1.
         21   -1    0    0  502  503 -0.00000000000E+00 -0.00000000000E+00 -0.61239348784E+03  0.61239348784E+03  0.00000000000E+00 0. -1.
         24    1    1    2    0    0  0.98899889612E-03  0.57720003301E+01 -0.38393287737E+03  0.39230726003E+03  0.80419002446E+02 0.  0.
          1    1    1    2  501    0 -0.16206712012E+02 -0.17795869568E+02 -0.17806989538E+02  0.29940597261E+02  0.00000000000E+00 0. -1.
         -2    1    1    2    0  503  0.16205723013E+02  0.12023869238E+02 -0.19989164214E+03  0.20090760934E+03  0.00000000000E+00 0.  1.
<mgrwt>
<rscale>  2 0.62437373E+02</rscale>
<asrwt>0</asrwt>
<pdfrwt beam="1">  1       21 0.16556879E-02 0.62437373E+02</pdfrwt>
<pdfrwt beam="2">  1       21 0.94214445E-01 0.62437373E+02</pdfrwt>
<totfact> 0.15575962E+06</totfact>
</mgrwt>
</event>
<event>
 5    1  0.1708429E+000  0.1689512E+03  0.7546771E-02  0.1178946E+00
         21   -1    0    0  501  502  0.00000000000E+00  0.00000000000E+00  0.32559512455E+03  0.32559512455E+03  0.00000000000E+00 0. -1.
         21   -1    0    0  502  503 -0.00000000000E+00 -0.00000000000E+00 -0.10226588149E+03  0.10226588149E+03  0.00000000000E+00 0. -1.
         24    1    1    2    0    0  0.91084729146E+02 -0.10187896040E+03  0.87653770619E+02  0.18117988275E+03  0.80419002446E+02 0. -1.
          1    1    1    2  501    0  0.53971982190E+01  0.80287385268E+02  0.12302797960E+03  0.14700706699E+03  0.00000000000E+00 0. -1.
         -2    1    1    2    0  503 -0.96481927365E+02  0.21591575130E+02  0.12647492839E+02  0.99674056302E+02  0.00000000000E+00 0.  1.
<mgrwt>
<rscale>  2 0.16895116E+03</rscale>
<asrwt>0</asrwt>
<pdfrwt beam="1">  1       21 0.50091557E-01 0.16895116E+03</pdfrwt>
<pdfrwt beam="2">  1       21 0.15733213E-01 0.16895116E+03</pdfrwt>
<totfact> 0.13761164E+05</totfact>
</mgrwt>
</event>
<event>
 5    1  0.1708429E+000  0.1157487E+03  0.7546771E-02  0.1250280E+00
         21   -1    0    0  501  502  0.00000000000E+00  0.00000000000E+00  0.23761092796E+03  0.23761092796E+03  0.00000000000E+00 0.  1.
         21   -1    0    0  502  503 -0.00000000000E+00 -0.00000000000E+00 -0.65309227682E+02  0.65309227682E+02  0.00000000000E+00 0. -1.
         24    1    1    2    0    0  0.22513309453E+02 -0.82736802500E+02  0.65031048469E+02  0.13434463447E+03  0.80419002446E+02 0. -1.
          1    1    1    2  501    0  0.20836786826E+02  0.34332963611E+00  0.61294817715E+02  0.64740591897E+02  0.00000000000E+00 0. -1.
         -2    1    1    2    0  503 -0.43350096279E+02  0.82393472864E+02  0.45975834097E+02  0.10383492928E+03  0.00000000000E+00 0.  1.
<mgrwt>
<rscale>  2 0.11574869E+03</rscale>
<asrwt>0</asrwt>
<pdfrwt beam="1">  1       21 0.36555527E-01 0.11574869E+03</pdfrwt>
<pdfrwt beam="2">  1       21 0.10047574E-01 0.11574869E+03</pdfrwt>
<totfact> 0.58495349E+05</totfact>
</mgrwt>
</event>
<event>
 5    1  0.1708429E+000  0.9064422E+02  0.7546771E-02  0.1301299E+00
         21   -1    0    0  501  502  0.00000000000E+00  0.00000000000E+00  0.39396830316E+03  0.39396830316E+03  0.00000000000E+00 0. -1.
         21   -1    0    0  502  503 -0.00000000000E+00 -0.00000000000E+00 -0.32220726182E+02  0.32220726182E+02  0.00000000000E+00 0. -1.
         24    1    1    2    0    0  0.45882280437E+02  0.72829312678E+01  0.80603105310E+02  0.12297276644E+03  0.80419002446E+02 0. -1.
          1    1    1    2  501    0 -0.63503920961E+02  0.93438690976E+01  0.26814710075E+03  0.27572254806E+03  0.00000000000E+00 0. -1.
         -2    1    1    2    0  503  0.17621640524E+02 -0.16626800365E+02  0.12997370919E+02  0.27493714845E+02  0.00000000000E+00 0.  1.
<mgrwt>
<rscale>  2 0.90644216E+02</rscale>
<asrwt>0</asrwt>
<pdfrwt beam="1">  1       21 0.60610505E-01 0.90644216E+02</pdfrwt>
<pdfrwt beam="2">  1       21 0.49570351E-02 0.90644216E+02</pdfrwt>
<totfact> 0.69634897E+05</totfact>
</mgrwt>
</event>
<event>
 5    1  0.1708429E+000  0.1055416E+03  0.7546771E-02  0.1269056E+00
         21   -1    0    0  501  502  0.00000000000E+00  0.00000000000E+00  0.66612981889E+02  0.66612981889E+02  0.00000000000E+00 0. -1.
         21   -1    0    0  502  503 -0.00000000000E+00 -0.00000000000E+00 -0.30196791185E+03  0.30196791185E+03  0.00000000000E+00 0. -1.
         24    1    1    2    0    0  0.23414425045E+02 -0.90577402778E+01 -0.22168584705E+03  0.23715418760E+03  0.80419002446E+02 0. -1.
          1    1    1    2  501    0 -0.74830004287E+02  0.13171814298E+01  0.76484013359E+01  0.75231393391E+02  0.00000000000E+00 0. -1.
         -2    1    1    2    0  503  0.51415579242E+02  0.77405588479E+01 -0.21317484242E+02  0.56195312745E+02  0.00000000000E+00 0.  1.
<mgrwt>
<rscale>  2 0.10554160E+03</rscale>
<asrwt>0</asrwt>
<pdfrwt beam="1">  1       21 0.10248151E-01 0.10554160E+03</pdfrwt>
<pdfrwt beam="2">  1       21 0.46456602E-01 0.10554160E+03</pdfrwt>
<totfact> 0.35032911E+05</totfact>
</mgrwt>
</event>
<event>
 5    1  0.1708429E+000  0.9490200E+02  0.7546771E-02  0.1291397E+00
         21   -1    0    0  503  502  0.00000000000E+00  0.00000000000E+00  0.47356174866E+03  0.47356174866E+03  0.00000000000E+00 0. -1.
         21   -1    0    0  501  503 -0.00000000000E+00 -0.00000000000E+00 -0.81276719865E+02  0.81276719865E+02  0.00000000000E+00 0. -1.
         24    1    1    2    0    0  0.44319160297E+02 -0.40974281353E+02 -0.42763459582E+02  0.10926577292E+03  0.80419002446E+02 0. -1.
          1    1    1    2  501    0 -0.24931561397E+02  0.58202619106E+02  0.21889496226E+03  0.22786867298E+03  0.00000000000E+00 0. -1.
         -2    1    1    2    0  502 -0.19387598901E+02 -0.17228337753E+02  0.21615352612E+03  0.21770402262E+03  0.00000000000E+00 0.  1.
<mgrwt>
<rscale>  2 0.94901998E+02</rscale>
<asrwt>0</asrwt>
<pdfrwt beam="1">  1       21 0.72855652E-01 0.94901998E+02</pdfrwt>
<pdfrwt beam="2">  1       21 0.12504111E-01 0.94901998E+02</pdfrwt>
<totfact> 0.96473841E+04</totfact>
</mgrwt>
</event>
<event>
 5    1  0.1862002E+000  0.8455140E+02  0.7546771E-02  0.1316610E+00
         21   -1    0    0  501  502  0.00000000000E+00  0.00000000000E+00  0.60315561467E+02  0.60315561467E+02  0.00000000000E+00 0. -1.
         21   -1    0    0  502  503 -0.00000000000E+00 -0.00000000000E+00 -0.76231398654E+03  0.76231398654E+03  0.00000000000E+00 0.  1.
         24    1    1    2    0    0  0.36978602988E+02 -0.43440732965E+02 -0.46453818872E+02  0.10899397966E+03  0.80419002446E+02 0.  1.
          1    1    1    2  501    0  0.53115820763E+01  0.22865248415E+02  0.23352461185E+02  0.33111477355E+02  0.00000000000E+00 0. -1.
         -2    1    1    2    0  503 -0.42290185064E+02  0.20575484550E+02 -0.67889706739E+03  0.68052409100E+03  0.00000000000E+00 0.  1.
<mgrwt>
<rscale>  2 0.84551402E+02</rscale>
<asrwt>0</asrwt>
<pdfrwt beam="1">  1       21 0.92793177E-02 0.84551402E+02</pdfrwt>
<pdfrwt beam="2">  1       21 0.11727907E+00 0.84551402E+02</pdfrwt>
<totfact> 0.55274402E+04</totfact>
</mgrwt>
</event>
<event>
 5    1  0.1708429E+000  0.8391878E+02  0.7546771E-02  0.1318284E+00
         21   -1    0    0  501  502  0.00000000000E+00  0.00000000000E+00  0.33145925884E+02  0.33145925884E+02  0.00000000000E+00 0. -1.
         21   -1    0    0  502  503 -0.00000000000E+00 -0.00000000000E+00 -0.21988539173E+03  0.21988539173E+03  0.00000000000E+00 0.  1.
         24    1    1    2    0    0  0.31067507561E+02  0.33317285553E+01 -0.96984698382E+02  0.12980577073E+03  0.80419002446E+02 0.  0.
          1    1    1    2  501    0 -0.38616967183E+02  0.29042414207E+02 -0.36948579980E+02  0.60827046122E+02  0.00000000000E+00 0. -1.
         -2    1    1    2    0  503  0.75494596219E+01 -0.32374142762E+02 -0.52806187480E+02  0.62398500754E+02  0.00000000000E+00 0.  1.
<mgrwt>
<rscale>  2 0.83918779E+02</rscale>
<asrwt>0</asrwt>
<pdfrwt beam="1">  1       21 0.50993733E-02 0.83918779E+02</pdfrwt>
<pdfrwt beam="2">  1       21 0.33828521E-01 0.83918779E+02</pdfrwt>
<totfact> 0.21450663E+06</totfact>
</mgrwt>
</event>
<event>
 5    1  0.1708429E+000  0.8034978E+02  0.7546771E-02  0.1328062E+00
         21   -1    0    0  501  502  0.00000000000E+00  0.00000000000E+00  0.27507295989E+03  0.27507295989E+03  0.00000000000E+00 0.  1.
         21   -1    0    0  502  503 -0.00000000000E+00 -0.00000000000E+00 -0.23545467568E+02  0.23545467568E+02  0.00000000000E+00 0. -1.
         24    1    1    2    0    0  0.19629112174E+02  0.18938452943E+02  0.12447899833E+03  0.15068577910E+03  0.80419002446E+02 0. -1.
          1    1    1    2  501    0 -0.28625756213E+01  0.26858817752E+02  0.45371080116E+02  0.52802702024E+02  0.00000000000E+00 0. -1.
         -2    1    1    2    0  503 -0.16766536553E+02 -0.45797270695E+02  0.81677413884E+02  0.95129946336E+02  0.00000000000E+00 0.  1.
<mgrwt>
<rscale>  2 0.80349777E+02</rscale>
<asrwt>0</asrwt>
<pdfrwt beam="1">  1       21 0.42318915E-01 0.80349777E+02</pdfrwt>
<pdfrwt beam="2">  1       21 0.36223798E-02 0.80349777E+02</pdfrwt>
<totfact> 0.24258662E+06</totfact>
</mgrwt>
</event>
<event>
 5    1  0.1708429E+000  0.1140033E+03  0.7546771E-02  0.1253331E+00
         21   -1    0    0  503  502  0.00000000000E+00  0.00000000000E+00  0.47680468059E+03  0.47680468059E+03  0.00000000000E+00 0.  1.
         21   -1    0    0  501  503 -0.00000000000E+00 -0.00000000000E+00 -0.57930925674E+02  0.57930925674E+02  0.00000000000E+00 0. -1.
         24    1    1    2    0    0 -0.81789362791E+02  0.32262062555E+02  0.23307061056E+03  0.26176223182E+03  0.80419002446E+02 0.  1.
          1    1    1    2  501    0  0.13419321980E+02  0.19097901744E+02 -0.31641293504E+02  0.39318945918E+02  0.00000000000E+00 0. -1.
         -2    1    1    2    0  502  0.68370040811E+02 -0.51359964299E+02  0.21744443786E+03  0.23365442852E+03  0.00000000000E+00 0.  1.
<mgrwt>
<rscale>  2 0.11400333E+03</rscale>
<asrwt>0</asrwt>
<pdfrwt beam="1">  1       21 0.73354564E-01 0.11400333E+03</pdfrwt>
<pdfrwt beam="2">  1       21 0.89124504E-02 0.11400333E+03</pdfrwt>
<totfact> 0.17025873E+05</totfact>
</mgrwt>
</event>
<event>
 5    1  0.1708429E+000  0.9900482E+02  0.7546771E-02  0.1282403E+00
         21   -1    0    0  501  502  0.00000000000E+00  0.00000000000E+00  0.98371005105E+01  0.98371005105E+01  0.00000000000E+00 0. -1.
         21   -1    0    0  502  503 -0.00000000000E+00 -0.00000000000E+00 -0.12408818890E+04  0.12408818890E+04  0.00000000000E+00 0. -1.
         24    1    1    2    0    0 -0.46907376890E+02  0.54926413969E+02 -0.38433056416E+03  0.39924229668E+03  0.80419002446E+02 0. -1.
          1    1    1    2  501    0  0.51138803950E+02 -0.20283190108E+02 -0.51022885317E+03  0.51318619202E+03  0.00000000000E+00 0. -1.
         -2    1    1    2    0  503 -0.42314270595E+01 -0.34643223861E+02 -0.33648537118E+03  0.33829050083E+03  0.00000000000E+00 0.  1.
<mgrwt>
<rscale>  2 0.99004816E+02</rscale>
<asrwt>0</asrwt>
<pdfrwt beam="1">  1       21 0.15134003E-02 0.99004816E+02</pdfrwt>
<pdfrwt beam="2">  1       21 0.19090488E+00 0.99004816E+02</pdfrwt>
<totfact> 0.31053114E+05</totfact>
</mgrwt>
</event>
<event>
 5    1  0.1708429E+000  0.7445775E+02  0.7546771E-02  0.1345558E+00
         21   -1    0    0  501  502  0.00000000000E+00  0.00000000000E+00  0.23412620005E+03  0.23412620005E+03  0.00000000000E+00 0.  1.
         21   -1    0    0  502  503 -0.00000000000E+00 -0.00000000000E+00 -0.34029063627E+02  0.34029063627E+02  0.00000000000E+00 0.  1.
         24    1    1    2    0    0  0.42923021948E+02  0.28132453680E+02  0.83333704372E+02  0.12667100300E+03  0.80419002446E+02 0.  1.
          1    1    1    2  501    0 -0.27577675828E+02 -0.90406755437E+01  0.11304295457E+03  0.11670891824E+03  0.00000000000E+00 0. -1.
         -2    1    1    2    0  503 -0.15345346120E+02 -0.19091778137E+02  0.37204774762E+01  0.24775342432E+02  0.00000000000E+00 0.  1.
<mgrwt>
<rscale>  2 0.74457752E+02</rscale>
<asrwt>0</asrwt>
<pdfrwt beam="1">  1       21 0.36019414E-01 0.74457752E+02</pdfrwt>
<pdfrwt beam="2">  1       21 0.52352407E-02 0.74457752E+02</pdfrwt>
<totfact> 0.18095741E+06</totfact>
</mgrwt>
</event>
<event>
 5    1  0.1708429E+000  0.7053562E+02  0.7546771E-02  0.1358281E+00
         21   -1    0    0  501  502  0.00000000000E+00  0.00000000000E+00  0.12702711241E+03  0.12702711241E+03  0.00000000000E+00 0. -1.
         21   -1    0    0  502  503 -0.00000000000E+00 -0.00000000000E+00 -0.12195815457E+03  0.12195815457E+03  0.00000000000E+00 0. -1.
         24    1    1    2    0    0 -0.21072949503E+02 -0.35032072567E+02 -0.62942764620E+02  0.11000146763E+03  0.80419002446E+02 0. -1.
          1    1    1    2  501    0  0.20418740144E+02  0.52695910051E+01  0.95900370985E+02  0.98191520476E+02  0.00000000000E+00 0. -1.
         -2    1    1    2    0  503  0.65420935964E+00  0.29762481562E+02 -0.27888648531E+02  0.40792278871E+02  0.00000000000E+00 0.  1.
<mgrwt>
<rscale>  2 0.70535619E+02</rscale>
<asrwt>0</asrwt>
<pdfrwt beam="1">  1       21 0.19542633E-01 0.70535619E+02</pdfrwt>
<pdfrwt beam="2">  1       21 0.18762793E-01 0.70535619E+02</pdfrwt>
<totfact> 0.62819301E+05</totfact>
</mgrwt>
</event>
<event>
 5    1  0.1708429E+000  0.6841678E+02  0.7546771E-02  0.1365561E+00
         21   -1    0    0  503  502  0.00000000000E+00  0.00000000000E+00  0.15119662109E+02  0.15119662109E+02  0.00000000000E+00 0. -1.
         21   -1    0    0  501  503 -0.00000000000E+00 -0.00000000000E+00 -0.33660315532E+03  0.33660315532E+03  0.00000000000E+00 0. -1.
         24    1    1    2    0    0 -0.31456759855E+02 -0.82363400093E+01 -0.20550040928E+03  0.22305828656E+03  0.80419002446E+02 0. -1.
          1    1    1    2  501    0  0.22707452200E+02 -0.13666957802E+02 -0.88822762240E+02  0.92692487359E+02  0.00000000000E+00 0. -1.
         -2    1    1    2    0  502  0.87493076553E+01  0.21903297812E+02 -0.27160321693E+02  0.35972043505E+02  0.00000000000E+00 0.  1.
<mgrwt>
<rscale>  2 0.68416777E+02</rscale>
<asrwt>0</asrwt>
<pdfrwt beam="1">  1       21 0.23261017E-02 0.68416777E+02</pdfrwt>
<pdfrwt beam="2">  1       21 0.51785104E-01 0.68416777E+02</pdfrwt>
<totfact> 0.32780438E+06</totfact>
</mgrwt>
</event>
<event>
 5    1  0.1708429E+000  0.7245196E+02  0.7546771E-02  0.1351948E+00
         21   -1    0    0  501  502  0.00000000000E+00  0.00000000000E+00  0.56556991903E+03  0.56556991903E+03  0.00000000000E+00 0. -1.
         21   -1    0    0  502  503 -0.00000000000E+00 -0.00000000000E+00 -0.30021269409E+02  0.30021269409E+02  0.00000000000E+00 0.  1.
         24    1    1    2    0    0 -0.84418587157E+01  0.61142435299E+01  0.49428048354E+03  0.50088827229E+03  0.80419002446E+02 0. -1.
          1    1    1    2  501    0  0.16372921896E+02 -0.32429214639E+02  0.53460706460E+02  0.64635699646E+02  0.00000000000E+00 0. -1.
         -2    1    1    2    0  503 -0.79310631806E+01  0.26314971109E+02 -0.12192540377E+02  0.30067216507E+02  0.00000000000E+00 0.  1.
<mgrwt>
<rscale>  2 0.72451957E+02</rscale>
<asrwt>0</asrwt>
<pdfrwt beam="1">  1       21 0.87010749E-01 0.72451957E+02</pdfrwt>
<pdfrwt beam="2">  1       21 0.46186573E-02 0.72451957E+02</pdfrwt>
<totfact> 0.35806916E+05</totfact>
</mgrwt>
</event>
<event>
 5    1  0.1708429E+000  0.2184800E+03  0.7546771E-02  0.1135021E+00
         21   -1    0    0  501  502  0.00000000000E+00  0.00000000000E+00  0.72877759732E+02  0.72877759732E+02  0.00000000000E+00 0.  1.
         21   -1    0    0  502  503 -0.00000000000E+00 -0.00000000000E+00 -0.12191533785E+04  0.12191533785E+04  0.00000000000E+00 0. -1.
         24    1    1    2    0    0  0.14762469474E+03 -0.40942101533E+02 -0.75157737970E+02  0.18864041907E+03  0.80419002446E+02 0.  1.
          1    1    1    2  501    0 -0.17675658611E+03 -0.37124587155E+02 -0.68759895409E+03  0.71092436122E+03  0.00000000000E+00 0. -1.
         -2    1    1    2    0  503  0.29131891373E+02  0.78066688688E+02 -0.38351892672E+03  0.39246635796E+03  0.00000000000E+00 0.  1.
<mgrwt>
<rscale>  2 0.21848002E+03</rscale>
<asrwt>0</asrwt>
<pdfrwt beam="1">  1       21 0.11211964E-01 0.21848002E+03</pdfrwt>
<pdfrwt beam="2">  1       21 0.18756204E+00 0.21848002E+03</pdfrwt>
<totfact> 0.10507899E+04</totfact>
</mgrwt>
</event>
<event>
 5    1  0.1708429E+000  0.8634740E+02  0.7546771E-02  0.1311946E+00
         21   -1    0    0  501  502  0.00000000000E+00  0.00000000000E+00  0.32262005906E+02  0.32262005906E+02  0.00000000000E+00 0. -1.
         21   -1    0    0  502  503 -0.00000000000E+00 -0.00000000000E+00 -0.25982155899E+03  0.25982155899E+03  0.00000000000E+00 0. -1.
         24    1    1    2    0    0 -0.57425875053E+02  0.33715357091E+02 -0.14320446478E+03  0.17722638380E+03  0.80419002446E+02 0. -1.
          1    1    1    2  501    0  0.24608941549E+02 -0.60015339181E+01 -0.68412872336E+01  0.26237790008E+02  0.00000000000E+00 0. -1.
         -2    1    1    2    0  503  0.32816933504E+02 -0.27713823173E+02 -0.77513801073E+02  0.88619391084E+02  0.00000000000E+00 0.  1.
<mgrwt>
<rscale>  2 0.86347404E+02</rscale>
<asrwt>0</asrwt>
<pdfrwt beam="1">  1       21 0.49633852E-02 0.86347404E+02</pdfrwt>
<pdfrwt beam="2">  1       21 0.39972550E-01 0.86347404E+02</pdfrwt>
<totfact> 0.16211938E+06</totfact>
</mgrwt>
</event>
<event>
 5    1  0.2323099E+000  0.1464812E+03  0.7546771E-02  0.1204865E+00
         21   -1    0    0  501  502  0.00000000000E+00  0.00000000000E+00  0.13860795647E+04  0.13860795647E+04  0.00000000000E+00 0. -1.
         21   -1    0    0  502  503 -0.00000000000E+00 -0.00000000000E+00 -0.91594105156E+02  0.91594105156E+02  0.00000000000E+00 0.  1.
         24    1    1    2    0    0 -0.17165592121E+02  0.95319211973E+02  0.83756821721E+03  0.84697588169E+03  0.80419002446E+02 0.  1.
          1    1    1    2  501    0 -0.47638629539E+02  0.47287334710E+01  0.50124077582E+03  0.50352171282E+03  0.00000000000E+00 0. -1.
         -2    1    1    2    0  503  0.64804221661E+02 -0.10004794544E+03 -0.44323533445E+02  0.12717607538E+03  0.00000000000E+00 0.  1.
<mgrwt>
<rscale>  2 0.14648118E+03</rscale>
<asrwt>0</asrwt>
<pdfrwt beam="1">  1       21 0.21324299E+00 0.14648118E+03</pdfrwt>
<pdfrwt beam="2">  1       21 0.14091402E-01 0.14648118E+03</pdfrwt>
<totfact> 0.51087571E+03</totfact>
</mgrwt>
</event>
<event>
 5    1  0.1708429E+000  0.8095136E+02  0.7546771E-02  0.1326373E+00
         21   -1    0    0  501  502  0.00000000000E+00  0.00000000000E+00  0.32120042387E+02  0.32120042387E+02  0.00000000000E+00 0. -1.
         21   -1    0    0  502  503 -0.00000000000E+00 -0.00000000000E+00 -0.57442744272E+03  0.57442744272E+03  0.00000000000E+00 0.  1.
         24    1    1    2    0    0  0.52638085260E+02  0.42459796395E+01 -0.19176197024E+03  0.21454292239E+03  0.80419002446E+02 0.  1.
          1    1    1    2  501    0 -0.10307137304E+02 -0.18374569147E+02  0.13638087917E+02  0.25096998083E+02  0.00000000000E+00 0. -1.
         -2    1    1    2    0  503 -0.42330947956E+02  0.14128589507E+02 -0.36418351800E+03  0.36690756463E+03  0.00000000000E+00 0.  1.
<mgrwt>
<rscale>  2 0.80951360E+02</rscale>
<asrwt>0</asrwt>
<pdfrwt beam="1">  1       21 0.49415450E-02 0.80951360E+02</pdfrwt>
<pdfrwt beam="2">  1       21 0.88373453E-01 0.80951360E+02</pdfrwt>
<totfact> 0.30879882E+05</totfact>
</mgrwt>
</event>
<event>
 5    1  0.1708429E+000  0.7812622E+02  0.7546771E-02  0.1334455E+00
         21   -1    0    0  503  502  0.00000000000E+00  0.00000000000E+00  0.13647386421E+03  0.13647386421E+03  0.00000000000E+00 0. -1.
         21   -1    0    0  501  503 -0.00000000000E+00 -0.00000000000E+00 -0.69945566887E+02  0.69945566887E+02  0.00000000000E+00 0. -1.
         24    1    1    2    0    0 -0.20511941136E+02 -0.18879297189E+02  0.80457553824E+02  0.11712301872E+03  0.80419002446E+02 0. -1.
          1    1    1    2  501    0  0.44187461836E+02  0.17153501116E+02 -0.33899791079E+02  0.58274953618E+02  0.00000000000E+00 0. -1.
         -2    1    1    2    0  502 -0.23675520700E+02  0.17257960736E+01  0.19970534578E+02  0.31021458764E+02  0.00000000000E+00 0.  1.
<mgrwt>
<rscale>  2 0.78126217E+02</rscale>
<asrwt>0</asrwt>
<pdfrwt beam="1">  1       21 0.20995979E-01 0.78126217E+02</pdfrwt>
<pdfrwt beam="2">  1       21 0.10760856E-01 0.78126217E+02</pdfrwt>
<totfact> 0.14771396E+06</totfact>
</mgrwt>
</event>
<event>
 5    1  0.1708429E+000  0.8844665E+02  0.7546771E-02  0.1306658E+00
         21   -1    0    0  503  502  0.00000000000E+00  0.00000000000E+00  0.50627486507E+03  0.50627486507E+03  0.00000000000E+00 0. -1.
         21   -1    0    0  501  503 -0.00000000000E+00 -0.00000000000E+00 -0.72737979109E+02  0.72737979109E+02  0.00000000000E+00 0. -1.
         24    1    1    2    0    0 -0.40683110731E+02 -0.49174637748E+02  0.44944922611E+03  0.46102611997E+03  0.80419002446E+02 0. -1.
          1    1    1    2  501    0 -0.38237255711E+01  0.21455513420E+02 -0.50616687700E+02  0.55109064655E+02  0.00000000000E+00 0. -1.
         -2    1    1    2    0  502  0.44506836302E+02  0.27719124328E+02  0.34704347554E+02  0.62877659548E+02  0.00000000000E+00 0.  1.
<mgrwt>
<rscale>  2 0.88446646E+02</rscale>
<asrwt>0</asrwt>
<pdfrwt beam="1">  1       21 0.77888438E-01 0.88446646E+02</pdfrwt>
<pdfrwt beam="2">  1       21 0.11190459E-01 0.88446646E+02</pdfrwt>
<totfact> 0.10163810E+05</totfact>
</mgrwt>
</event>
<event>
 5    1  0.1708429E+000  0.6528909E+02  0.7546771E-02  0.1376887E+00
         21   -1    0    0  501  502  0.00000000000E+00  0.00000000000E+00  0.33279705451E+02  0.33279705451E+02  0.00000000000E+00 0. -1.
         21   -1    0    0  502  503 -0.00000000000E+00 -0.00000000000E+00 -0.48016660952E+03  0.48016660952E+03  0.00000000000E+00 0. -1.
         24    1    1    2    0    0 -0.27507175542E+02  0.14976525612E+02 -0.36944089469E+03  0.37938731087E+03  0.80419002446E+02 0. -1.
          1    1    1    2  501    0  0.80653236240E+01 -0.22134234054E+02  0.22147196825E+02  0.32333760832E+02  0.00000000000E+00 0. -1.
         -2    1    1    2    0  503  0.19441851918E+02  0.71577084423E+01 -0.99593206198E+02  0.10172524326E+03  0.00000000000E+00 0.  1.
<mgrwt>
<rscale>  2 0.65289087E+02</rscale>
<asrwt>0</asrwt>
<pdfrwt beam="1">  1       21 0.51199547E-02 0.65289087E+02</pdfrwt>
<pdfrwt beam="2">  1       21 0.73871786E-01 0.65289087E+02</pdfrwt>
<totfact> 0.43262731E+05</totfact>
</mgrwt>
</event>
<event>
 5    1  0.1708429E+000  0.1322371E+03  0.7546771E-02  0.1224174E+00
         21   -1    0    0  501  502  0.00000000000E+00  0.00000000000E+00  0.21205859855E+03  0.21205859855E+03  0.00000000000E+00 0. -1.
         21   -1    0    0  502  503 -0.00000000000E+00 -0.00000000000E+00 -0.11048683176E+03  0.11048683176E+03  0.00000000000E+00 0.  1.
         24    1    1    2    0    0  0.10971028464E+03 -0.63401504460E-01  0.13304110540E+03  0.19027217940E+03  0.80419002446E+02 0.  0.
          1    1    1    2  501    0 -0.10443042664E+02 -0.24113202778E+02 -0.75736254155E+01  0.27347092902E+02  0.00000000000E+00 0. -1.
         -2    1    1    2    0  503 -0.99267241971E+02  0.24176604282E+02 -0.23895713191E+02  0.10492615800E+03  0.00000000000E+00 0.  1.
<mgrwt>
<rscale>  2 0.13223710E+03</rscale>
<asrwt>0</asrwt>
<pdfrwt beam="1">  1       21 0.32624400E-01 0.13223710E+03</pdfrwt>
<pdfrwt beam="2">  1       21 0.16997974E-01 0.13223710E+03</pdfrwt>
<totfact> 0.28589382E+05</totfact>
</mgrwt>
</event>
<event>
 5    1  0.1708429E+000  0.6416396E+02  0.7546771E-02  0.1381144E+00
         21   -1    0    0  501  502  0.00000000000E+00  0.00000000000E+00  0.21402983619E+03  0.21402983619E+03  0.00000000000E+00 0. -1.
         21   -1    0    0  502  503 -0.00000000000E+00 -0.00000000000E+00 -0.38117588445E+02  0.38117588445E+02  0.00000000000E+00 0.  1.
         24    1    1    2    0    0 -0.42339816338E+01 -0.42340802108E+01  0.75955310809E+02  0.11078031969E+03  0.80419002446E+02 0.  1.
          1    1    1    2  501    0 -0.10970634033E+02 -0.17803699902E+02  0.11059675955E+03  0.11255651809E+03  0.00000000000E+00 0. -1.
         -2    1    1    2    0  503  0.15204615666E+02  0.22037780113E+02 -0.10639822613E+02  0.28810586858E+02  0.00000000000E+00 0.  1.
<mgrwt>
<rscale>  2 0.64163956E+02</rscale>
<asrwt>0</asrwt>
<pdfrwt beam="1">  1       21 0.32927666E-01 0.64163956E+02</pdfrwt>
<pdfrwt beam="2">  1       21 0.58642445E-02 0.64163956E+02</pdfrwt>
<totfact> 0.17695855E+06</totfact>
</mgrwt>
</event>
<event>
 5    1  0.1708429E+000  0.7609647E+02  0.7546771E-02  0.1340509E+00
         21   -1    0    0  503  502  0.00000000000E+00  0.00000000000E+00  0.18505695275E+03  0.18505695275E+03  0.00000000000E+00 0. -1.
         21   -1    0    0  501  503 -0.00000000000E+00 -0.00000000000E+00 -0.68069997202E+02  0.68069997202E+02  0.00000000000E+00 0. -1.
         24    1    1    2    0    0  0.35096260419E+01  0.17251182643E+02  0.51339315439E+02  0.97019905389E+02  0.80419002446E+02 0.  0.
          1    1    1    2  501    0 -0.16622578231E+02  0.22521167041E+02 -0.36331584191E+02  0.45863897368E+02  0.00000000000E+00 0. -1.
         -2    1    1    2    0  502  0.13112952189E+02 -0.39772349684E+02  0.10197922430E+03  0.11024314719E+03  0.00000000000E+00 0.  1.
<mgrwt>
<rscale>  2 0.76096469E+02</rscale>
<asrwt>0</asrwt>
<pdfrwt beam="1">  1       21 0.28470300E-01 0.76096469E+02</pdfrwt>
<pdfrwt beam="2">  1       21 0.10472307E-01 0.76096469E+02</pdfrwt>
<totfact> 0.87849115E+05</totfact>
</mgrwt>
</event>
<event>
 5    1  0.1708429E+000  0.9252438E+02  0.7546771E-02  0.1296851E+00
         21   -1    0    0  503  502  0.00000000000E+00  0.00000000000E+00  0.76259616306E+02  0.76259616306E+02  0.00000000000E+00 0.  1.
         21   -1    0    0  501  503 -0.00000000000E+00 -0.00000000000E+00 -0.14929677379E+03  0.14929677379E+03  0.00000000000E+00 0.  1.
         24    1    1    2    0    0 -0.60125498982E+02  0.24233856098E+02 -0.71117911403E+02  0.12540864677E+03  0.80419002446E+02 0.  1.
          1    1    1    2  501    0  0.15256243731E+02  0.15553004958E+02 -0.27386621911E+02  0.34995371061E+02  0.00000000000E+00 0. -1.
         -2    1    1    2    0  502  0.44869255251E+02 -0.39786861056E+02  0.25467375829E+02  0.65152372260E+02  0.00000000000E+00 0.  1.
<mgrwt>
<rscale>  2 0.92524376E+02</rscale>
<asrwt>0</asrwt>
<pdfrwt beam="1">  1       21 0.11732249E-01 0.92524376E+02</pdfrwt>
<pdfrwt beam="2">  1       21 0.22968734E-01 0.92524376E+02</pdfrwt>
<totfact> 0.10818131E+06</totfact>
</mgrwt>
</event>
<event>
 5    1  0.1708429E+000  0.8552853E+02  0.7546771E-02  0.1314056E+00
         21   -1    0    0  501  502  0.00000000000E+00  0.00000000000E+00  0.89853182699E+03  0.89853182699E+03  0.00000000000E+00 0.  1.
         21   -1    0    0  502  503 -0.00000000000E+00 -0.00000000000E+00 -0.23127732611E+02  0.23127732611E+02  0.00000000000E+00 0. -1.
         24    1    1    2    0    0 -0.51325224240E+02  0.18315204492E+02  0.88880146392E+02  0.13166860573E+03  0.80419002446E+02 0. -1.
          1    1    1    2  501    0  0.21411646237E+02 -0.33966838428E+02  0.43589279406E+03  0.43773820101E+03  0.00000000000E+00 0. -1.
         -2    1    1    2    0  503  0.29913578003E+02  0.15651633936E+02  0.35063115392E+03  0.35225275286E+03  0.00000000000E+00 0.  1.
<mgrwt>
<rscale>  2 0.85528526E+02</rscale>
<asrwt>0</asrwt>
<pdfrwt beam="1">  1       21 0.13823564E+00 0.85528526E+02</pdfrwt>
<pdfrwt beam="2">  1       21 0.35581134E-02 0.85528526E+02</pdfrwt>
<totfact> 0.18433576E+05</totfact>
</mgrwt>
</event>
<event>
 5    1  0.1708429E+000  0.8017284E+02  0.7546771E-02  0.1328562E+00
         21   -1    0    0  503  502  0.00000000000E+00  0.00000000000E+00  0.94373106006E+01  0.94373106006E+01  0.00000000000E+00 0. -1.
         21   -1    0    0  501  503 -0.00000000000E+00 -0.00000000000E+00 -0.19478517010E+04  0.19478517010E+04  0.00000000000E+00 0. -1.
         24    1    1    2    0    0 -0.33096461589E+02 -0.46782757298E+02 -0.27044656080E+03  0.28791068121E+03  0.80419002446E+02 0. -1.
          1    1    1    2  501    0  0.26517118204E+02  0.17944513709E+02 -0.12279829402E+04  0.12284002868E+04  0.00000000000E+00 0. -1.
         -2    1    1    2    0  502  0.65793433847E+01  0.28838243589E+02 -0.43998488939E+03  0.44097804361E+03  0.00000000000E+00 0.  1.
<mgrwt>
<rscale>  2 0.80172838E+02</rscale>
<asrwt>0</asrwt>
<pdfrwt beam="1">  1       21 0.14518942E-02 0.80172838E+02</pdfrwt>
<pdfrwt beam="2">  1       21 0.29966944E+00 0.80172838E+02</pdfrwt>
<totfact> 0.80902018E+04</totfact>
</mgrwt>
</event>
<event>
 5    1  0.1708429E+000  0.7617564E+02  0.7546771E-02  0.1340269E+00
         21   -1    0    0  501  502  0.00000000000E+00  0.00000000000E+00  0.17929847696E+02  0.17929847696E+02  0.00000000000E+00 0. -1.
         21   -1    0    0  502  503 -0.00000000000E+00 -0.00000000000E+00 -0.38635021188E+03  0.38635021188E+03  0.00000000000E+00 0. -1.
         24    1    1    2    0    0 -0.47931635686E+02 -0.26785226536E+02 -0.20739418147E+03  0.22911667884E+03  0.80419002446E+02 0. -1.
          1    1    1    2  501    0  0.22485869153E+02  0.11015896350E+02 -0.23238598535E+02  0.34161334076E+02  0.00000000000E+00 0. -1.
         -2    1    1    2    0  503  0.25445766533E+02  0.15769330186E+02 -0.13778758418E+03  0.14100204666E+03  0.00000000000E+00 0.  1.
<mgrwt>
<rscale>  2 0.76175636E+02</rscale>
<asrwt>0</asrwt>
<pdfrwt beam="1">  1       21 0.27584382E-02 0.76175636E+02</pdfrwt>
<pdfrwt beam="2">  1       21 0.59438493E-01 0.76175636E+02</pdfrwt>
<totfact> 0.18870111E+06</totfact>
</mgrwt>
</event>
<event>
 5    1  0.1708429E+000  0.9032168E+02  0.7546771E-02  0.1302075E+00
         21   -1    0    0  503  502  0.00000000000E+00  0.00000000000E+00  0.30175008663E+02  0.30175008663E+02  0.00000000000E+00 0.  1.
         21   -1    0    0  501  503 -0.00000000000E+00 -0.00000000000E+00 -0.11471890331E+04  0.11471890331E+04  0.00000000000E+00 0. -1.
         24    1    1    2    0    0 -0.27200466021E+02  0.23936808168E+02 -0.42038370782E+02  0.97710166868E+02  0.80419002446E+02 0.  1.
          1    1    1    2  501    0  0.56568719856E+02 -0.35342308320E+01 -0.84663164051E+03  0.84852675006E+03  0.00000000000E+00 0. -1.
         -2    1    1    2    0  502 -0.29368253834E+02 -0.20402577336E+02 -0.22834401317E+03  0.23112712486E+03  0.00000000000E+00 0.  1.
<mgrwt>
<rscale>  2 0.90321683E+02</rscale>
<asrwt>0</asrwt>
<pdfrwt beam="1">  1       21 0.46423093E-02 0.90321683E+02</pdfrwt>
<pdfrwt beam="2">  1       21 0.17649061E+00 0.90321683E+02</pdfrwt>
<totfact> 0.63045922E+04</totfact>
</mgrwt>
</event>
<event>
 5    1  0.1708429E+000  0.6809943E+02  0.7546771E-02  0.1366678E+00
         21   -1    0    0  501  502  0.00000000000E+00  0.00000000000E+00  0.55458409290E+02  0.55458409290E+02  0.00000000000E+00 0.  1.
         21   -1    0    0  502  503 -0.00000000000E+00 -0.00000000000E+00 -0.11220212173E+03  0.11220212173E+03  0.00000000000E+00 0. -1.
         24    1    1    2    0    0 -0.21653045445E+02  0.67154179215E+01 -0.46104197888E+01  0.83680482431E+02  0.80419002446E+02 0.  0.
          1    1    1    2  501    0  0.82427647053E+01 -0.27055073665E+02 -0.21366038667E+01  0.28363449316E+02  0.00000000000E+00 0. -1.
         -2    1    1    2    0  503  0.13410280740E+02  0.20339655743E+02 -0.49996688783E+02  0.55616599272E+02  0.00000000000E+00 0.  1.
<mgrwt>
<rscale>  2 0.68099429E+02</rscale>
<asrwt>0</asrwt>
<pdfrwt beam="1">  1       21 0.85320630E-02 0.68099429E+02</pdfrwt>
<pdfrwt beam="2">  1       21 0.17261865E-01 0.68099429E+02</pdfrwt>
<totfact> 0.31155261E+06</totfact>
</mgrwt>
</event>
<event>
 5    1  0.1708429E+000  0.8258090E+02  0.7546771E-02  0.1321883E+00
         21   -1    0    0  501  502  0.00000000000E+00  0.00000000000E+00  0.69646076050E+03  0.69646076050E+03  0.00000000000E+00 0. -1.
         21   -1    0    0  502  503 -0.00000000000E+00 -0.00000000000E+00 -0.24790579358E+02  0.24790579358E+02  0.00000000000E+00 0. -1.
         24    1    1    2    0    0  0.11452621800E+02 -0.61637440876E+02  0.16399191596E+03  0.19310852161E+03  0.80419002446E+02 0. -1.
          1    1    1    2  501    0 -0.37944242286E+01  0.41096971373E+02  0.50427199403E+03  0.50595810367E+03  0.00000000000E+00 0. -1.
         -2    1    1    2    0  503 -0.76581975715E+01  0.20540469503E+02  0.34062711496E+01  0.22184714571E+02  0.00000000000E+00 0.  1.
<mgrwt>
<rscale>  2 0.82580905E+02</rscale>
<asrwt>0</asrwt>
<pdfrwt beam="1">  1       21 0.10714779E+00 0.82580905E+02</pdfrwt>
<pdfrwt beam="2">  1       21 0.38139358E-02 0.82580905E+02</pdfrwt>
<totfact> 0.30422420E+05</totfact>
</mgrwt>
</event>
<event>
 5    1  0.1708429E+000  0.9440603E+02  0.7546771E-02  0.1292519E+00
         21   -1    0    0  503  502  0.00000000000E+00  0.00000000000E+00  0.22245787762E+02  0.22245787762E+02  0.00000000000E+00 0. -1.
         21   -1    0    0  501  503 -0.00000000000E+00 -0.00000000000E+00 -0.62177914258E+03  0.62177914258E+03  0.00000000000E+00 0.  1.
         24    1    1    2    0    0 -0.35477775499E+01 -0.29081425956E+02 -0.11680977422E+03  0.14481041181E+03  0.80419002446E+02 0. -1.
          1    1    1    2  501    0  0.49328098652E+02  0.65023582423E+00 -0.38022913463E+03  0.38341606506E+03  0.00000000000E+00 0. -1.
         -2    1    1    2    0  502 -0.45780321102E+02  0.28431190132E+02 -0.10249444597E+03  0.11579845348E+03  0.00000000000E+00 0.  1.
<mgrwt>
<rscale>  2 0.94406031E+02</rscale>
<asrwt>0</asrwt>
<pdfrwt beam="1">  1       21 0.34224292E-02 0.94406031E+02</pdfrwt>
<pdfrwt beam="2">  1       21 0.95658321E-01 0.94406031E+02</pdfrwt>
<totfact> 0.47148250E+05</totfact>
</mgrwt>
</event>
<event>
 5    1  0.1708429E+000  0.8608338E+02  0.7546771E-02  0.1312623E+00
         21   -1    0    0  501  502  0.00000000000E+00  0.00000000000E+00  0.39631355352E+03  0.39631355352E+03  0.00000000000E+00 0.  1.
         21   -1    0    0  502  503 -0.00000000000E+00 -0.00000000000E+00 -0.31439261515E+02  0.31439261515E+02  0.00000000000E+00 0. -1.
         24    1    1    2    0    0  0.29434971732E+02 -0.18347070478E+02  0.18921009778E+03  0.20849630599E+03  0.80419002446E+02 0. -1.
          1    1    1    2  501    0  0.11676834547E+02 -0.23302495439E+02  0.15502576752E+03  0.15720160099E+03  0.00000000000E+00 0. -1.
         -2    1    1    2    0  503 -0.41111806279E+02  0.41649565917E+02  0.20638426705E+02  0.62054908053E+02  0.00000000000E+00 0.  1.
<mgrwt>
<rscale>  2 0.86083376E+02</rscale>
<asrwt>0</asrwt>
<pdfrwt beam="1">  1       21 0.60971312E-01 0.86083376E+02</pdfrwt>
<pdfrwt beam="2">  1       21 0.48368097E-02 0.86083376E+02</pdfrwt>
<totfact> 0.71605886E+05</totfact>
</mgrwt>
</event>
<event>
 5    1  0.1708429E+000  0.1028090E+03  0.7546771E-02  0.1274497E+00
         21   -1    0    0  503  502  0.00000000000E+00  0.00000000000E+00  0.28781471584E+02  0.28781471584E+02  0.00000000000E+00 0. -1.
         21   -1    0    0  501  503 -0.00000000000E+00 -0.00000000000E+00 -0.73305059356E+03  0.73305059356E+03  0.00000000000E+00 0. -1.
         24    1    1    2    0    0 -0.73554386101E+02  0.18592508940E+02 -0.49469523177E+03  0.50689892226E+03  0.80419002446E+02 0. -1.
          1    1    1    2  501    0  0.21262491263E+02  0.20681576251E+02 -0.18125680181E+03  0.18366776890E+03  0.00000000000E+00 0. -1.
         -2    1    1    2    0  502  0.52291894839E+02 -0.39274085191E+02 -0.28317088403E+02  0.71265373983E+02  0.00000000000E+00 0.  1.
<mgrwt>
<rscale>  2 0.10280905E+03</rscale>
<asrwt>0</asrwt>
<pdfrwt beam="1">  1       21 0.44279194E-02 0.10280905E+03</pdfrwt>
<pdfrwt beam="2">  1       21 0.11277700E+00 0.10280905E+03</pdfrwt>
<totfact> 0.20935167E+05</totfact>
</mgrwt>
</event>
<event>
 5    1  0.1708429E+000  0.7916808E+02  0.7546771E-02  0.1331429E+00
         21   -1    0    0  503  502  0.00000000000E+00  0.00000000000E+00  0.95716730125E+01  0.95716730125E+01  0.00000000000E+00 0. -1.
         21   -1    0    0  501  503 -0.00000000000E+00 -0.00000000000E+00 -0.84455614344E+03  0.84455614344E+03  0.00000000000E+00 0. -1.
         24    1    1    2    0    0 -0.15679287326E+02 -0.56030567689E+02 -0.34063268800E+03  0.35480009675E+03  0.80419002446E+02 0. -1.
          1    1    1    2  501    0  0.47491268397E+01  0.35513182918E+02 -0.41755690184E+03  0.41909128676E+03  0.00000000000E+00 0. -1.
         -2    1    1    2    0  502  0.10930160486E+02  0.20517384771E+02 -0.76794880591E+02  0.80236432941E+02  0.00000000000E+00 0.  1.
<mgrwt>
<rscale>  2 0.79168084E+02</rscale>
<asrwt>0</asrwt>
<pdfrwt beam="1">  1       21 0.14725650E-02 0.79168084E+02</pdfrwt>
<pdfrwt beam="2">  1       21 0.12993172E+00 0.79168084E+02</pdfrwt>
<totfact> 0.88594751E+05</totfact>
</mgrwt>
</event>
<event>
 5    1  0.1708429E+000  0.7449237E+02  0.7546771E-02  0.1345450E+00
         21   -1    0    0  503  502  0.00000000000E+00  0.00000000000E+00  0.74835075648E+02  0.74835075648E+02  0.00000000000E+00 0.  1.
         21   -1    0    0  501  503 -0.00000000000E+00 -0.00000000000E+00 -0.13289293318E+03  0.13289293318E+03  0.00000000000E+00 0. -1.
         24    1    1    2    0    0  0.48880313288E+02  0.19906841891E+02 -0.22627614918E+02  0.98816963587E+02  0.80419002446E+02 0.  0.
          1    1    1    2  501    0 -0.24424623017E+02 -0.92703665027E+01 -0.64422813343E+02  0.69518348539E+02  0.00000000000E+00 0. -1.
         -2    1    1    2    0  502 -0.24455690271E+02 -0.10636475388E+02  0.28992570734E+02  0.39392696697E+02  0.00000000000E+00 0.  1.
<mgrwt>
<rscale>  2 0.74492374E+02</rscale>
<asrwt>0</asrwt>
<pdfrwt beam="1">  1       21 0.11513089E-01 0.74492374E+02</pdfrwt>
<pdfrwt beam="2">  1       21 0.20445067E-01 0.74492374E+02</pdfrwt>
<totfact> 0.13767024E+06</totfact>
</mgrwt>
</event>
<event>
 5    1  0.1708429E+000  0.1188618E+03  0.7546771E-02  0.1244987E+00
         21   -1    0    0  501  502  0.00000000000E+00  0.00000000000E+00  0.87593688949E+03  0.87593688949E+03  0.00000000000E+00 0.  1.
         21   -1    0    0  502  503 -0.00000000000E+00 -0.00000000000E+00 -0.24888220888E+02  0.24888220888E+02  0.00000000000E+00 0.  1.
         24    1    1    2    0    0  0.92032497259E+02  0.68952667333E+00  0.67590249699E+03  0.68686378372E+03  0.80419002446E+02 0.  1.
          1    1    1    2  501    0 -0.51234327952E+02  0.34383477471E+02  0.12933044063E+03  0.14329529915E+03  0.00000000000E+00 0. -1.
         -2    1    1    2    0  503 -0.40798169307E+02 -0.35073004145E+02  0.45815730980E+02  0.70666027508E+02  0.00000000000E+00 0.  1.
<mgrwt>
<rscale>  2 0.11886183E+03</rscale>
<asrwt>0</asrwt>
<pdfrwt beam="1">  1       21 0.13475950E+00 0.11886183E+03</pdfrwt>
<pdfrwt beam="2">  1       21 0.38289577E-02 0.11886183E+03</pdfrwt>
<totfact> 0.17134497E+05</totfact>
</mgrwt>
</event>
<event>
 5    1  0.1708429E+000  0.8076216E+02  0.7546771E-02  0.1326902E+00
         21   -1    0    0  501  502  0.00000000000E+00  0.00000000000E+00  0.26261027437E+03  0.26261027437E+03  0.00000000000E+00 0.  1.
         21   -1    0    0  502  503 -0.00000000000E+00 -0.00000000000E+00 -0.39539281506E+02  0.39539281506E+02  0.00000000000E+00 0.  1.
         24    1    1    2    0    0 -0.76027702652E+01  0.47178481116E+02  0.55633290179E+02  0.10883882637E+03  0.80419002446E+02 0.  1.
          1    1    1    2  501    0  0.24564852348E+02 -0.89301132457E+01  0.14191068921E+03  0.14429768746E+03  0.00000000000E+00 0. -1.
         -2    1    1    2    0  503 -0.16962082083E+02 -0.38248367870E+02  0.25527013472E+02  0.49013042041E+02  0.00000000000E+00 0.  1.
<mgrwt>
<rscale>  2 0.80762157E+02</rscale>
<asrwt>0</asrwt>
<pdfrwt beam="1">  1       21 0.40401580E-01 0.80762157E+02</pdfrwt>
<pdfrwt beam="2">  1       21 0.60829665E-02 0.80762157E+02</pdfrwt>
<totfact> 0.11283099E+06</totfact>
</mgrwt>
</event>
<event>
 5    1  0.1708429E+000  0.7830644E+02  0.7546771E-02  0.1333927E+00
         21   -1    0    0  503  502  0.00000000000E+00  0.00000000000E+00  0.52202872420E+02  0.52202872420E+02  0.00000000000E+00 0.  1.
         21   -1    0    0  501  503 -0.00000000000E+00 -0.00000000000E+00 -0.86592582218E+03  0.86592582218E+03  0.00000000000E+00 0. -1.
         24    1    1    2    0    0  0.69934454466E+01 -0.10645177231E+02 -0.95990144965E+02  0.12587117209E+03  0.80419002446E+02 0. -1.
          1    1    1    2  501    0  0.28521529495E+02  0.23972746128E+02 -0.74475319516E+03  0.74568457937E+03  0.00000000000E+00 0. -1.
         -2    1    1    2    0  502 -0.35514974942E+02 -0.13327568897E+02  0.27020390367E+02  0.46572943148E+02  0.00000000000E+00 0.  1.
<mgrwt>
<rscale>  2 0.78306442E+02</rscale>
<asrwt>0</asrwt>
<pdfrwt beam="1">  1       21 0.80312115E-02 0.78306442E+02</pdfrwt>
<pdfrwt beam="2">  1       21 0.13321935E+00 0.78306442E+02</pdfrwt>
<totfact> 0.52277123E+04</totfact>
</mgrwt>
</event>
<event>
 5    1  0.1708429E+000  0.6507997E+02  0.7546771E-02  0.1377671E+00
         21   -1    0    0  501  502  0.00000000000E+00  0.00000000000E+00  0.22374127826E+02  0.22374127826E+02  0.00000000000E+00 0. -1.
         21   -1    0    0  502  503 -0.00000000000E+00 -0.00000000000E+00 -0.44302457241E+03  0.44302457241E+03  0.00000000000E+00 0.  1.
         24    1    1    2    0    0 -0.22719000606E+02  0.78073840348E+01 -0.15785947224E+03  0.17878461110E+03  0.80419002446E+02 0.  1.
          1    1    1    2  501    0  0.98081140648E+01 -0.23761217659E+02 -0.28491765395E+01  0.25863340331E+02  0.00000000000E+00 0. -1.
         -2    1    1    2    0  503  0.12910886541E+02  0.15953833624E+02 -0.25994179581E+03  0.26075074881E+03  0.00000000000E+00 0.  1.
<mgrwt>
<rscale>  2 0.65079970E+02</rscale>
<asrwt>0</asrwt>
<pdfrwt beam="1">  1       21 0.34421734E-02 0.65079970E+02</pdfrwt>
<pdfrwt beam="2">  1       21 0.68157630E-01 0.65079970E+02</pdfrwt>
<totfact> 0.98384409E+05</totfact>
</mgrwt>
</event>
<event>
 5    1  0.1708429E+000  0.6998448E+02  0.7546771E-02  0.1360146E+00
         21   -1    0    0  503  502  0.00000000000E+00  0.00000000000E+00  0.11523493814E+03  0.11523493814E+03  0.00000000000E+00 0. -1.
         21   -1    0    0  501  503 -0.00000000000E+00 -0.00000000000E+00 -0.51513552704E+02  0.51513552704E+02  0.00000000000E+00 0.  1.
         24    1    1    2    0    0  0.75323366434E+01 -0.66014558073E+00  0.48439499693E+02  0.94184781002E+02  0.80419002446E+02 0. -1.
          1    1    1    2  501    0  0.25650374400E+01  0.28998510102E+02 -0.12436934264E+02  0.31657074077E+02  0.00000000000E+00 0. -1.
         -2    1    1    2    0  502 -0.10097374083E+02 -0.28338364521E+02  0.27718820007E+02  0.40906635766E+02  0.00000000000E+00 0.  1.
<mgrwt>
<rscale>  2 0.69984482E+02</rscale>
<asrwt>0</asrwt>
<pdfrwt beam="1">  1       21 0.17728452E-01 0.69984482E+02</pdfrwt>
<pdfrwt beam="2">  1       21 0.79251620E-02 0.69984482E+02</pdfrwt>
<totfact> 0.33723383E+06</totfact>
</mgrwt>
</event>
<event>
 5    1  0.1708429E+000  0.7029401E+02  0.7546771E-02  0.1359096E+00
         21   -1    0    0  503  502  0.00000000000E+00  0.00000000000E+00  0.18869689369E+03  0.18869689369E+03  0.00000000000E+00 0.  1.
         21   -1    0    0  501  503 -0.00000000000E+00 -0.00000000000E+00 -0.59716688541E+03  0.59716688541E+03  0.00000000000E+00 0. -1.
         24    1    1    2    0    0 -0.20230098091E+02 -0.14240098198E+01 -0.28627779432E+03  0.29804945252E+03  0.80419002446E+02 0.  1.
          1    1    1    2  501    0 -0.24961899165E+01  0.24872120204E+02 -0.30302631181E+03  0.30405558534E+03  0.00000000000E+00 0. -1.
         -2    1    1    2    0  502  0.22726288007E+02 -0.23448110384E+02  0.18083411441E+03  0.18375874124E+03  0.00000000000E+00 0.  1.
<mgrwt>
<rscale>  2 0.70294006E+02</rscale>
<asrwt>0</asrwt>
<pdfrwt beam="1">  1       21 0.29030292E-01 0.70294006E+02</pdfrwt>
<pdfrwt beam="2">  1       21 0.91871826E-01 0.70294006E+02</pdfrwt>
<totfact> 0.12773710E+04</totfact>
</mgrwt>
</event>
<event>
 5    1  0.1708429E+000  0.6434531E+02  0.7546771E-02  0.1380451E+00
         21   -1    0    0  501  502  0.00000000000E+00  0.00000000000E+00  0.99362228351E+02  0.99362228351E+02  0.00000000000E+00 0. -1.
         21   -1    0    0  502  503 -0.00000000000E+00 -0.00000000000E+00 -0.59238495740E+02  0.59238495740E+02  0.00000000000E+00 0.  1.
         24    1    1    2    0    0  0.30486929173E+02  0.83991082521E+01  0.59661234302E+02  0.10500798399E+03  0.80419002446E+02 0.  0.
          1    1    1    2  501    0 -0.19095885122E+02  0.92918333271E+01  0.44362873355E+01  0.21694968091E+02  0.00000000000E+00 0. -1.
         -2    1    1    2    0  503 -0.11391044051E+02 -0.17690941579E+02 -0.23973789027E+02  0.31897772004E+02  0.00000000000E+00 0.  1.
<mgrwt>
<rscale>  2 0.64345314E+02</rscale>
<asrwt>0</asrwt>
<pdfrwt beam="1">  1       21 0.15286497E-01 0.64345314E+02</pdfrwt>
<pdfrwt beam="2">  1       21 0.91136147E-02 0.64345314E+02</pdfrwt>
<totfact> 0.34444015E+06</totfact>
</mgrwt>
</event>
<event>
 5    1  0.1708429E+000  0.6754023E+02  0.7546771E-02  0.1368663E+00
         21   -1    0    0  503  502  0.00000000000E+00  0.00000000000E+00  0.42877408184E+01  0.42877408184E+01  0.00000000000E+00 0. -1.
         21   -1    0    0  501  503 -0.00000000000E+00 -0.00000000000E+00 -0.14267523727E+04  0.14267523727E+04  0.00000000000E+00 0.  1.
         24    1    1    2    0    0 -0.39415471810E+02  0.11045890779E+02 -0.64103344646E+03  0.64735360242E+03  0.80419002446E+02 0. -1.
          1    1    1    2  501    0  0.16278749747E+02 -0.14060892424E+02 -0.63859629709E+03  0.63895847834E+03  0.00000000000E+00 0. -1.
         -2    1    1    2    0  502  0.23136722063E+02  0.30150016449E+01 -0.14283488829E+03  0.14472803272E+03  0.00000000000E+00 0.  1.
<mgrwt>
<rscale>  2 0.67540228E+02</rscale>
<asrwt>0</asrwt>
<pdfrwt beam="1">  1       21 0.65965244E-03 0.67540228E+02</pdfrwt>
<pdfrwt beam="2">  1       21 0.21950036E+00 0.67540228E+02</pdfrwt>
<totfact> 0.77496980E+05</totfact>
</mgrwt>
</event>
<event>
 5    1  0.1708429E+000  0.1336040E+03  0.7546771E-02  0.1222204E+00
         21   -1    0    0  501  502  0.00000000000E+00  0.00000000000E+00  0.66421644604E+03  0.66421644604E+03  0.00000000000E+00 0.  1.
         21   -1    0    0  502  503 -0.00000000000E+00 -0.00000000000E+00 -0.10154456598E+03  0.10154456598E+03  0.00000000000E+00 0.  1.
         24    1    1    2    0    0  0.10698454864E+03  0.39175097524E+02  0.46274326433E+03  0.48330003782E+03  0.80419002446E+02 0.  1.
          1    1    1    2  501    0 -0.96237230507E+02 -0.10112305273E+02  0.17570751652E+03  0.20059161153E+03  0.00000000000E+00 0. -1.
         -2    1    1    2    0  503 -0.10747318132E+02 -0.29062792251E+02 -0.75778900786E+02  0.81869362675E+02  0.00000000000E+00 0.  1.
<mgrwt>
<rscale>  2 0.13360400E+03</rscale>
<asrwt>0</asrwt>
<pdfrwt beam="1">  1       21 0.10218714E+00 0.13360400E+03</pdfrwt>
<pdfrwt beam="2">  1       21 0.15622241E-01 0.13360400E+03</pdfrwt>
<totfact> 0.29445738E+04</totfact>
</mgrwt>
</event>
<event>
 5    1  0.1708429E+000  0.8443880E+02  0.7546771E-02  0.1316907E+00
         21   -1    0    0  501  502  0.00000000000E+00  0.00000000000E+00  0.24570275746E+03  0.24570275746E+03  0.00000000000E+00 0. -1.
         21   -1    0    0  502  503 -0.00000000000E+00 -0.00000000000E+00 -0.74970216835E+02  0.74970216835E+02  0.00000000000E+00 0.  1.
         24    1    1    2    0    0 -0.57662396903E+02  0.29106107160E+01 -0.18154417752E+02  0.10064900650E+03  0.80419002446E+02 0.  1.
          1    1    1    2  501    0  0.18927344424E+02 -0.20005153759E+02  0.17240312282E+03  0.17458890945E+03  0.00000000000E+00 0. -1.
         -2    1    1    2    0  503  0.38735052480E+02  0.17094543043E+02  0.16483835560E+02  0.45435058350E+02  0.00000000000E+00 0.  1.
<mgrwt>
<rscale>  2 0.84438797E+02</rscale>
<asrwt>0</asrwt>
<pdfrwt beam="1">  1       21 0.37800424E-01 0.84438797E+02</pdfrwt>
<pdfrwt beam="2">  1       21 0.11533880E-01 0.84438797E+02</pdfrwt>
<totfact> 0.43097091E+05</totfact>
</mgrwt>
</event>
<event>
 5    1  0.1708429E+000  0.9880536E+02  0.7546771E-02  0.1282828E+00
         21   -1    0    0  503  502  0.00000000000E+00  0.00000000000E+00  0.59587897527E+03  0.59587897527E+03  0.00000000000E+00 0.  1.
         21   -1    0    0  501  503 -0.00000000000E+00 -0.00000000000E+00 -0.56303800843E+02  0.56303800843E+02  0.00000000000E+00 0. -1.
         24    1    1    2    0    0  0.43260664791E+02 -0.64546469895E+02  0.16959512435E+03  0.20314392448E+03  0.80419002446E+02 0. -1.
          1    1    1    2  501    0 -0.28741678022E+02  0.11787515690E+02 -0.31268281893E+02  0.44076468033E+02  0.00000000000E+00 0. -1.
         -2    1    1    2    0  502 -0.14518986769E+02  0.52758954205E+02  0.40124833196E+03  0.40496238360E+03  0.00000000000E+00 0.  1.
<mgrwt>
<rscale>  2 0.98805361E+02</rscale>
<asrwt>0</asrwt>
<pdfrwt beam="1">  1       21 0.91673684E-01 0.98805361E+02</pdfrwt>
<pdfrwt beam="2">  1       21 0.86621236E-02 0.98805361E+02</pdfrwt>
<totfact> 0.10943634E+05</totfact>
</mgrwt>
</event>
<event>
 5    1  0.1708429E+000  0.8649646E+02  0.7546771E-02  0.1311565E+00
         21   -1    0    0  503  502  0.00000000000E+00  0.00000000000E+00  0.34553537012E+03  0.34553537012E+03  0.00000000000E+00 0. -1.
         21   -1    0    0  501  503 -0.00000000000E+00 -0.00000000000E+00 -0.42571216359E+02  0.42571216359E+02  0.00000000000E+00 0. -1.
         24    1    1    2    0    0  0.54320192090E+02  0.15525460157E+02  0.11917712813E+03  0.15447370976E+03  0.80419002446E+02 0. -1.
          1    1    1    2  501    0 -0.43953007236E+02  0.11781244669E+02 -0.20149021068E+01  0.45549142709E+02  0.00000000000E+00 0. -1.
         -2    1    1    2    0  502 -0.10367184854E+02 -0.27306704826E+02  0.18580192773E+03  0.18808373401E+03  0.00000000000E+00 0.  1.
<mgrwt>
<rscale>  2 0.86496463E+02</rscale>
<asrwt>0</asrwt>
<pdfrwt beam="1">  1       21 0.53159286E-01 0.86496463E+02</pdfrwt>
<pdfrwt beam="2">  1       21 0.65494181E-02 0.86496463E+02</pdfrwt>
<totfact> 0.57368974E+05</totfact>
</mgrwt>
</event>
<event>
 5    1  0.1708429E+000  0.9943172E+02  0.7546771E-02  0.1281496E+00
         21   -1    0    0  501  502  0.00000000000E+00  0.00000000000E+00  0.50595486260E+02  0.50595486260E+02  0.00000000000E+00 0. -1.
         21   -1    0    0  502  503 -0.00000000000E+00 -0.00000000000E+00 -0.23533194898E+03  0.23533194898E+03  0.00000000000E+00 0. -1.
         24    1    1    2    0    0 -0.62872673531E+02  0.39577540555E+02 -0.14160623740E+03  0.17899412621E+03  0.80419002446E+02 0. -1.
          1    1    1    2  501    0  0.21469770495E+02 -0.42768102244E+02 -0.11260568412E+01  0.47867834907E+02  0.00000000000E+00 0. -1.
         -2    1    1    2    0  503  0.41402903036E+02  0.31905616891E+01 -0.42004168484E+02  0.59065474126E+02  0.00000000000E+00 0.  1.
<mgrwt>
<rscale>  2 0.99431721E+02</rscale>
<asrwt>0</asrwt>
<pdfrwt beam="1">  1       21 0.77839207E-02 0.99431721E+02</pdfrwt>
<pdfrwt beam="2">  1       21 0.36204916E-01 0.99431721E+02</pdfrwt>
<totfact> 0.92574326E+05</totfact>
</mgrwt>
</event>
<event>
 5    1  0.1708429E+000  0.1052588E+03  0.7546771E-02  0.1269611E+00
         21   -1    0    0  503  502  0.00000000000E+00  0.00000000000E+00  0.54732370653E+02  0.54732370653E+02  0.00000000000E+00 0.  1.
         21   -1    0    0  501  503 -0.00000000000E+00 -0.00000000000E+00 -0.25440390864E+03  0.25440390864E+03  0.00000000000E+00 0.  1.
         24    1    1    2    0    0 -0.33653086852E+02 -0.82359979015E+02 -0.79722141182E+02  0.14400879191E+03  0.80419002446E+02 0.  1.
          1    1    1    2  501    0  0.47420670455E+01  0.33361946978E+02 -0.98872646275E+02  0.10445720122E+03  0.00000000000E+00 0. -1.
         -2    1    1    2    0  502  0.28911019807E+02  0.48998032037E+02 -0.21076750529E+02  0.60670286159E+02  0.00000000000E+00 0.  1.
<mgrwt>
<rscale>  2 0.10525883E+03</rscale>
<asrwt>0</asrwt>
<pdfrwt beam="1">  1       21 0.84203646E-02 0.10525883E+03</pdfrwt>
<pdfrwt beam="2">  1       21 0.39139063E-01 0.10525883E+03</pdfrwt>
<totfact> 0.69423838E+05</totfact>
</mgrwt>
</event>
<event>
 5    1  0.1708429E+000  0.6708902E+02  0.7546771E-02  0.1370281E+00
         21   -1    0    0  503  502  0.00000000000E+00  0.00000000000E+00  0.12701326417E+03  0.12701326417E+03  0.00000000000E+00 0.  1.
         21   -1    0    0  501  503 -0.00000000000E+00 -0.00000000000E+00 -0.62832143686E+02  0.62832143686E+02  0.00000000000E+00 0. -1.
         24    1    1    2    0    0 -0.24454746205E+01 -0.15342002881E+02  0.21851440574E+02  0.84770624677E+02  0.80419002446E+02 0.  1.
          1    1    1    2  501    0  0.15645483232E+02 -0.13428483133E+02 -0.23963212420E+02  0.31612352875E+02  0.00000000000E+00 0. -1.
         -2    1    1    2    0  502 -0.13200008612E+02  0.28770486014E+02  0.66292892329E+02  0.73462430305E+02  0.00000000000E+00 0.  1.
<mgrwt>
<rscale>  2 0.67089024E+02</rscale>
<asrwt>0</asrwt>
<pdfrwt beam="1">  1       21 0.19540502E-01 0.67089024E+02</pdfrwt>
<pdfrwt beam="2">  1       21 0.96664836E-02 0.67089024E+02</pdfrwt>
<totfact> 0.20119986E+06</totfact>
</mgrwt>
</event>
<event>
 5    1  0.1708429E+000  0.8461496E+02  0.7546771E-02  0.1316443E+00
         21   -1    0    0  501  502  0.00000000000E+00  0.00000000000E+00  0.15440473285E+02  0.15440473285E+02  0.00000000000E+00 0.  1.
         21   -1    0    0  502  503 -0.00000000000E+00 -0.00000000000E+00 -0.69301212137E+03  0.69301212137E+03  0.00000000000E+00 0. -1.
         24    1    1    2    0    0  0.12777323817E+02 -0.37652851532E+00 -0.43526953469E+03  0.44282071492E+03  0.80419002446E+02 0. -1.
          1    1    1    2  501    0  0.84971436940E+01  0.41039143025E+02 -0.39116402891E+02  0.57328053223E+02  0.00000000000E+00 0. -1.
         -2    1    1    2    0  503 -0.21274467511E+02 -0.40662614510E+02 -0.20318571051E+03  0.20830382652E+03  0.00000000000E+00 0.  1.
<mgrwt>
<rscale>  2 0.84614958E+02</rscale>
<asrwt>0</asrwt>
<pdfrwt beam="1">  1       21 0.23754574E-02 0.84614958E+02</pdfrwt>
<pdfrwt beam="2">  1       21 0.10661725E+00 0.84614958E+02</pdfrwt>
<totfact> 0.66341575E+05</totfact>
</mgrwt>
</event>
<event>
 5    1  0.1708429E+000  0.1617204E+03  0.7546771E-02  0.1186768E+00
         21   -1    0    0  501  502  0.00000000000E+00  0.00000000000E+00  0.77872864258E+03  0.77872864258E+03  0.00000000000E+00 0. -1.
         21   -1    0    0  502  503 -0.00000000000E+00 -0.00000000000E+00 -0.46930479809E+02  0.46930479809E+02  0.00000000000E+00 0.  1.
         24    1    1    2    0    0 -0.22155298733E+02 -0.80671197977E+02  0.32040437360E+03  0.34077100526E+03  0.80419002446E+02 0.  1.
          1    1    1    2  501    0  0.10635362648E+03  0.52548078966E+02  0.36687997849E+03  0.38558178521E+03  0.00000000000E+00 0. -1.
         -2    1    1    2    0  503 -0.84198327747E+02  0.28123119011E+02  0.44513810672E+02  0.99306331917E+02  0.00000000000E+00 0.  1.
<mgrwt>
<rscale>  2 0.16172036E+03</rscale>
<asrwt>0</asrwt>
<pdfrwt beam="1">  1       21 0.11980440E+00 0.16172036E+03</pdfrwt>
<pdfrwt beam="2">  1       21 0.72200744E-02 0.16172036E+03</pdfrwt>
<totfact> 0.77175869E+04</totfact>
</mgrwt>
</event>
<event>
 5    1  0.1708429E+000  0.1041855E+03  0.7546771E-02  0.1271733E+00
         21   -1    0    0  501  502  0.00000000000E+00  0.00000000000E+00  0.15159606439E+03  0.15159606439E+03  0.00000000000E+00 0. -1.
         21   -1    0    0  502  503 -0.00000000000E+00 -0.00000000000E+00 -0.72075191804E+02  0.72075191804E+02  0.00000000000E+00 0. -1.
         24    1    1    2    0    0  0.48925080406E+02  0.67634203716E+02  0.51883614987E+02  0.12699281265E+03  0.80419002446E+02 0. -1.
          1    1    1    2  501    0 -0.53620026125E+02 -0.47012796937E+02  0.18729400311E+02  0.73729917357E+02  0.00000000000E+00 0. -1.
         -2    1    1    2    0  503  0.46949457190E+01 -0.20621406779E+02  0.89078572853E+01  0.22948526189E+02  0.00000000000E+00 0.  1.
<mgrwt>
<rscale>  2 0.10418553E+03</rscale>
<asrwt>0</asrwt>
<pdfrwt beam="1">  1       21 0.23322471E-01 0.10418553E+03</pdfrwt>
<pdfrwt beam="2">  1       21 0.11088491E-01 0.10418553E+03</pdfrwt>
<totfact> 0.11634064E+06</totfact>
</mgrwt>
</event>
<event>
 5    1  0.2327461E+000  0.1240195E+03  0.7546771E-02  0.1236610E+00
         21   -1    0    0  501  502  0.00000000000E+00  0.00000000000E+00  0.46862521114E+03  0.46862521114E+03  0.00000000000E+00 0.  1.
         21   -1    0    0  502  503 -0.00000000000E+00 -0.00000000000E+00 -0.91699648196E+02  0.91699648196E+02  0.00000000000E+00 0.  1.
         24    1    1    2    0    0 -0.33748383947E+02  0.83798905481E+02  0.41068549473E+03  0.42812498352E+03  0.80419002446E+02 0.  1.
          1    1    1    2  501    0  0.12365760547E+02  0.18681598319E+02 -0.69279761898E+00  0.22414149955E+02  0.00000000000E+00 0. -1.
         -2    1    1    2    0  503  0.21382623400E+02 -0.10248050380E+03 -0.33067134160E+02  0.10978572587E+03  0.00000000000E+00 0.  1.
<mgrwt>
<rscale>  2 0.12401948E+03</rscale>
<asrwt>0</asrwt>
<pdfrwt beam="1">  1       21 0.72096185E-01 0.12401948E+03</pdfrwt>
<pdfrwt beam="2">  1       21 0.14107639E-01 0.12401948E+03</pdfrwt>
<totfact> 0.78465645E+04</totfact>
</mgrwt>
</event>
<event>
 5    1  0.1708429E+000  0.7462883E+02  0.7546771E-02  0.1345024E+00
         21   -1    0    0  501  502  0.00000000000E+00  0.00000000000E+00  0.13791120724E+04  0.13791120724E+04  0.00000000000E+00 0. -1.
         21   -1    0    0  502  503 -0.00000000000E+00 -0.00000000000E+00 -0.52898858242E+01  0.52898858242E+01  0.00000000000E+00 0.  1.
         24    1    1    2    0    0  0.18241125265E+02 -0.41611956790E+01  0.50583424050E+03  0.51252858361E+03  0.80419002446E+02 0.  1.
          1    1    1    2  501    0 -0.25670570767E+02 -0.25458286428E+02  0.71241208209E+03  0.71332887034E+03  0.00000000000E+00 0. -1.
         -2    1    1    2    0  503  0.74294455028E+01  0.29619482107E+02  0.15557586394E+03  0.15854450423E+03  0.00000000000E+00 0.  1.
<mgrwt>
<rscale>  2 0.74628834E+02</rscale>
<asrwt>0</asrwt>
<pdfrwt beam="1">  1       21 0.21217080E+00 0.74628834E+02</pdfrwt>
<pdfrwt beam="2">  1       21 0.81382968E-03 0.74628834E+02</pdfrwt>
<totfact> 0.61636486E+05</totfact>
</mgrwt>
</event>
<event>
 5    1  0.1708429E+000  0.7762725E+02  0.7546771E-02  0.1335923E+00
         21   -1    0    0  503  502  0.00000000000E+00  0.00000000000E+00  0.57440455632E+02  0.57440455632E+02  0.00000000000E+00 0.  1.
         21   -1    0    0  501  503 -0.00000000000E+00 -0.00000000000E+00 -0.13698197900E+03  0.13698197900E+03  0.00000000000E+00 0.  1.
         24    1    1    2    0    0  0.27426523261E+02 -0.98586296236E+01  0.19697486569E+01  0.85559935837E+02  0.80419002446E+02 0.  0.
          1    1    1    2  501    0 -0.10641589721E+02  0.36615980956E+02 -0.58309749990E+02  0.69670656930E+02  0.00000000000E+00 0. -1.
         -2    1    1    2    0  502 -0.16784933540E+02 -0.26757351332E+02 -0.23201522039E+02  0.39191841870E+02  0.00000000000E+00 0.  1.
<mgrwt>
<rscale>  2 0.77627246E+02</rscale>
<asrwt>0</asrwt>
<pdfrwt beam="1">  1       21 0.88369932E-02 0.77627246E+02</pdfrwt>
<pdfrwt beam="2">  1       21 0.21074151E-01 0.77627246E+02</pdfrwt>
<totfact> 0.20593419E+06</totfact>
</mgrwt>
</event>
<event>
 5    1  0.2775604E+000  0.1254291E+03  0.7546771E-02  0.1234400E+00
         21   -1    0    0  503  502  0.00000000000E+00  0.00000000000E+00  0.13852155728E+04  0.13852155728E+04  0.00000000000E+00 0. -1.
         21   -1    0    0  501  503 -0.00000000000E+00 -0.00000000000E+00 -0.15565461692E+03  0.15565461692E+03  0.00000000000E+00 0. -1.
         24    1    1    2    0    0 -0.10916277691E+03 -0.26705930953E+02  0.11664783488E+04  0.11746355489E+04  0.80419002446E+02 0. -1.
          1    1    1    2  501    0  0.79242088315E+02  0.15677408683E+02 -0.13947729391E+03  0.16118003977E+03  0.00000000000E+00 0. -1.
         -2    1    1    2    0  502  0.29920688595E+02  0.11028522269E+02  0.20255990105E+03  0.20505460108E+03  0.00000000000E+00 0.  1.
<mgrwt>
<rscale>  2 0.12542909E+03</rscale>
<asrwt>0</asrwt>
<pdfrwt beam="1">  1       21 0.21311008E+00 0.12542909E+03</pdfrwt>
<pdfrwt beam="2">  1       21 0.23946865E-01 0.12542909E+03</pdfrwt>
<totfact> 0.19867006E+03</totfact>
</mgrwt>
</event>
<event>
 5    1  0.1708429E+000  0.6685082E+02  0.7546771E-02  0.1371142E+00
         21   -1    0    0  501  502  0.00000000000E+00  0.00000000000E+00  0.25774961133E+03  0.25774961133E+03  0.00000000000E+00 0.  1.
         21   -1    0    0  502  503 -0.00000000000E+00 -0.00000000000E+00 -0.19391959203E+02  0.19391959203E+02  0.00000000000E+00 0.  1.
         24    1    1    2    0    0 -0.29731773720E+01  0.20256283543E+01  0.12530017870E+03  0.14893049953E+03  0.80419002446E+02 0.  1.
          1    1    1    2  501    0 -0.53744787817E+01  0.24661313265E+02  0.84722040235E+02  0.88401863643E+02  0.00000000000E+00 0. -1.
         -2    1    1    2    0  503  0.83476561536E+01 -0.26686941619E+02  0.28335433194E+02  0.39809207359E+02  0.00000000000E+00 0.  1.
<mgrwt>
<rscale>  2 0.66850819E+02</rscale>
<asrwt>0</asrwt>
<pdfrwt beam="1">  1       21 0.39653784E-01 0.66850819E+02</pdfrwt>
<pdfrwt beam="2">  1       21 0.29833785E-02 0.66850819E+02</pdfrwt>
<totfact> 0.37404920E+06</totfact>
</mgrwt>
</event>
<event>
 5    1  0.1708429E+000  0.7953052E+02  0.7546771E-02  0.1330389E+00
         21   -1    0    0  503  502  0.00000000000E+00  0.00000000000E+00  0.37056346777E+02  0.37056346777E+02  0.00000000000E+00 0. -1.
         21   -1    0    0  501  503 -0.00000000000E+00 -0.00000000000E+00 -0.26792478714E+03  0.26792478714E+03  0.00000000000E+00 0.  1.
         24    1    1    2    0    0 -0.14273819540E+02 -0.26899739093E+02 -0.16354532029E+03  0.18477452646E+03  0.80419002446E+02 0.  0.
          1    1    1    2  501    0  0.23140997636E+02 -0.16725251116E+02 -0.70010095694E+02  0.75608553058E+02  0.00000000000E+00 0. -1.
         -2    1    1    2    0  502 -0.88671780958E+01  0.43624990209E+02  0.26869756152E+01  0.44598054398E+02  0.00000000000E+00 0.  1.
<mgrwt>
<rscale>  2 0.79530517E+02</rscale>
<asrwt>0</asrwt>
<pdfrwt beam="1">  1       21 0.57009767E-02 0.79530517E+02</pdfrwt>
<pdfrwt beam="2">  1       21 0.41219196E-01 0.79530517E+02</pdfrwt>
<totfact> 0.12082930E+06</totfact>
</mgrwt>
</event>
<event>
 5    1  0.1708429E+000  0.8312319E+02  0.7546771E-02  0.1320415E+00
         21   -1    0    0  503  502  0.00000000000E+00  0.00000000000E+00  0.42170175090E+02  0.42170175090E+02  0.00000000000E+00 0.  1.
         21   -1    0    0  501  503 -0.00000000000E+00 -0.00000000000E+00 -0.44222768866E+03  0.44222768866E+03  0.00000000000E+00 0. -1.
         24    1    1    2    0    0 -0.25892626212E+02  0.78908022956E+00 -0.23716105411E+03  0.25176106189E+03  0.80419002446E+02 0. -1.
          1    1    1    2  501    0  0.53789591273E+02  0.10588967142E+01 -0.18770242811E+03  0.19526044892E+03  0.00000000000E+00 0. -1.
         -2    1    1    2    0  502 -0.27896965062E+02 -0.18479769437E+01  0.24805968658E+02  0.37376352946E+02  0.00000000000E+00 0.  1.
<mgrwt>
<rscale>  2 0.83123191E+02</rscale>
<asrwt>0</asrwt>
<pdfrwt beam="1">  1       21 0.64877196E-02 0.83123191E+02</pdfrwt>
<pdfrwt beam="2">  1       21 0.68035025E-01 0.83123191E+02</pdfrwt>
<totfact> 0.34739060E+05</totfact>
</mgrwt>
</event>
<event>
 5    1  0.1708429E+000  0.8534330E+02  0.7546771E-02  0.1314537E+00
         21   -1    0    0  501  502  0.00000000000E+00  0.00000000000E+00  0.26734923056E+02  0.26734923056E+02  0.00000000000E+00 0. -1.
         21   -1    0    0  502  503 -0.00000000000E+00 -0.00000000000E+00 -0.20411379921E+04  0.20411379921E+04  0.00000000000E+00 0. -1.
         24    1    1    2    0    0 -0.27113714078E+02 -0.23474230341E+02 -0.13887727519E+04  0.13915614128E+04  0.80419002446E+02 0. -1.
          1    1    1    2  501    0  0.25478103193E+02 -0.24076437861E+02  0.11891723116E+02  0.37016505522E+02  0.00000000000E+00 0. -1.
         -2    1    1    2    0  503  0.16356108854E+01  0.47550668202E+02 -0.63752204025E+03  0.63929499691E+03  0.00000000000E+00 0.  1.
<mgrwt>
<rscale>  2 0.85343300E+02</rscale>
<asrwt>0</asrwt>
<pdfrwt beam="1">  1       21 0.41130648E-02 0.85343300E+02</pdfrwt>
<pdfrwt beam="2">  1       21 0.31402125E+00 0.85343300E+02</pdfrwt>
<totfact> 0.12505428E+04</totfact>
</mgrwt>
</event>
<event>
 5    1  0.1708429E+000  0.6700468E+02  0.7546771E-02  0.1370586E+00
         21   -1    0    0  501  502  0.00000000000E+00  0.00000000000E+00  0.19382725428E+02  0.19382725428E+02  0.00000000000E+00 0. -1.
         21   -1    0    0  502  503 -0.00000000000E+00 -0.00000000000E+00 -0.76304984364E+03  0.76304984364E+03  0.00000000000E+00 0. -1.
         24    1    1    2    0    0  0.37501212730E+02  0.88654914154E+00 -0.33892140542E+03  0.35034563210E+03  0.80419002446E+02 0.  0.
          1    1    1    2  501    0 -0.21440717233E+02  0.12098584671E+02  0.21085282694E+01  0.24708824293E+02  0.00000000000E+00 0. -1.
         -2    1    1    2    0  503 -0.16060495497E+02 -0.12985133813E+02 -0.40685424106E+03  0.40737811267E+03  0.00000000000E+00 0.  1.
<mgrwt>
<rscale>  2 0.67004677E+02</rscale>
<asrwt>0</asrwt>
<pdfrwt beam="1">  1       21 0.29819575E-02 0.67004677E+02</pdfrwt>
<pdfrwt beam="2">  1       21 0.11739229E+00 0.67004677E+02</pdfrwt>
<totfact> 0.36762009E+05</totfact>
</mgrwt>
</event>
<event>
 5    1  0.1708429E+000  0.8387349E+02  0.7546771E-02  0.1318405E+00
         21   -1    0    0  503  502  0.00000000000E+00  0.00000000000E+00  0.89839146256E+03  0.89839146256E+03  0.00000000000E+00 0.  1.
         21   -1    0    0  501  503 -0.00000000000E+00 -0.00000000000E+00 -0.43304912874E+02  0.43304912874E+02  0.00000000000E+00 0. -1.
         24    1    1    2    0    0  0.35777293964E+02  0.10848797672E+02  0.22631210582E+03  0.24306808999E+03  0.80419002446E+02 0.  1.
          1    1    1    2  501    0 -0.39714367738E+02  0.22390241366E+02 -0.19431001014E+02  0.49559234393E+02  0.00000000000E+00 0. -1.
         -2    1    1    2    0  502  0.39370737733E+01 -0.33239039038E+02  0.64820544488E+03  0.64906905106E+03  0.00000000000E+00 0.  1.
<mgrwt>
<rscale>  2 0.83873490E+02</rscale>
<asrwt>0</asrwt>
<pdfrwt beam="1">  1       21 0.13821406E+00 0.83873490E+02</pdfrwt>
<pdfrwt beam="2">  1       21 0.66622949E-02 0.83873490E+02</pdfrwt>
<totfact> 0.65186170E+04</totfact>
</mgrwt>
</event>
<event>
 5    1  0.1708429E+000  0.1001751E+03  0.7546771E-02  0.1279928E+00
         21   -1    0    0  503  502  0.00000000000E+00  0.00000000000E+00  0.12271428240E+03  0.12271428240E+03  0.00000000000E+00 0. -1.
         21   -1    0    0  501  503 -0.00000000000E+00 -0.00000000000E+00 -0.13557570727E+03  0.13557570727E+03  0.00000000000E+00 0. -1.
         24    1    1    2    0    0  0.21960417734E+02 -0.25847117041E+02  0.65625038058E+02  0.10919796235E+03  0.80419002446E+02 0. -1.
          1    1    1    2  501    0 -0.11596697197E+02  0.68348313396E+02 -0.79309941981E+02  0.10533775309E+03  0.00000000000E+00 0. -1.
         -2    1    1    2    0  502 -0.10363720537E+02 -0.42501196354E+02  0.82347905036E+00  0.43754274222E+02  0.00000000000E+00 0.  1.
<mgrwt>
<rscale>  2 0.10017512E+03</rscale>
<asrwt>0</asrwt>
<pdfrwt beam="1">  1       21 0.18879120E-01 0.10017512E+03</pdfrwt>
<pdfrwt beam="2">  1       21 0.20857801E-01 0.10017512E+03</pdfrwt>
<totfact> 0.55273149E+05</totfact>
</mgrwt>
</event>
<event>
 5    1  0.1708429E+000  0.1689513E+03  0.7546771E-02  0.1178946E+00
         21   -1    0    0  501  502  0.00000000000E+00  0.00000000000E+00  0.31433148510E+02  0.31433148510E+02  0.00000000000E+00 0.  1.
         21   -1    0    0  502  503 -0.00000000000E+00 -0.00000000000E+00 -0.97674782066E+03  0.97674782066E+03  0.00000000000E+00 0. -1.
         24    1    1    2    0    0  0.60691860266E+01 -0.56913295787E+02 -0.24248170241E+03  0.26180250231E+03  0.80419002446E+02 0.  1.
          1    1    1    2  501    0  0.11235134736E+03  0.13914628737E+02 -0.22051272665E+03  0.24787558323E+03  0.00000000000E+00 0. -1.
         -2    1    1    2    0  503 -0.11842053339E+03  0.42998667050E+02 -0.48232024309E+03  0.49850288363E+03  0.00000000000E+00 0.  1.
<mgrwt>
<rscale>  2 0.16895130E+03</rscale>
<asrwt>0</asrwt>
<pdfrwt beam="1">  1       21 0.48358688E-02 0.16895130E+03</pdfrwt>
<pdfrwt beam="2">  1       21 0.15026890E+00 0.16895130E+03</pdfrwt>
<totfact> 0.85702678E+04</totfact>
</mgrwt>
</event>
<event>
 5    1  0.1708429E+000  0.1180492E+03  0.7546771E-02  0.1246350E+00
         21   -1    0    0  501  502  0.00000000000E+00  0.00000000000E+00  0.61647304722E+02  0.61647304722E+02  0.00000000000E+00 0. -1.
         21   -1    0    0  502  503 -0.00000000000E+00 -0.00000000000E+00 -0.73448607646E+03  0.73448607646E+03  0.00000000000E+00 0. -1.
         24    1    1    2    0    0  0.57280687041E+02 -0.42540678435E+02 -0.59410562969E+03  0.60375450443E+03  0.80419002446E+02 0. -1.
          1    1    1    2  501    0  0.30299106298E+02  0.24976327610E+02  0.31612942656E+02  0.50410623154E+02  0.00000000000E+00 0. -1.
         -2    1    1    2    0  503 -0.87579793339E+02  0.17564350825E+02 -0.11034608470E+03  0.14196825360E+03  0.00000000000E+00 0.  1.
<mgrwt>
<rscale>  2 0.11804915E+03</rscale>
<asrwt>0</asrwt>
<pdfrwt beam="1">  1       21 0.94842003E-02 0.11804915E+03</pdfrwt>
<pdfrwt beam="2">  1       21 0.11299786E+00 0.11804915E+03</pdfrwt>
<totfact> 0.56752755E+04</totfact>
</mgrwt>
</event>
<event>
 5    1  0.1708429E+000  0.1217234E+03  0.7546771E-02  0.1240281E+00
         21   -1    0    0  503  502  0.00000000000E+00  0.00000000000E+00  0.17662664792E+04  0.17662664792E+04  0.00000000000E+00 0.  1.
         21   -1    0    0  501  503 -0.00000000000E+00 -0.00000000000E+00 -0.49462850343E+03  0.49462850343E+03  0.00000000000E+00 0. -1.
         24    1    1    2    0    0  0.49959861544E+02 -0.78220150359E+02  0.25148467182E+03  0.27986806856E+03  0.80419002446E+02 0.  0.
          1    1    1    2  501    0  0.20598440685E+02  0.24180236078E+02 -0.47859392155E+03  0.47964687148E+03  0.00000000000E+00 0. -1.
         -2    1    1    2    0  502 -0.70558302229E+02  0.54039914281E+02  0.14987472255E+04  0.15013800426E+04  0.00000000000E+00 0.  1.
<mgrwt>
<rscale>  2 0.12172335E+03</rscale>
<asrwt>0</asrwt>
<pdfrwt beam="1">  1       21 0.27173330E+00 0.12172335E+03</pdfrwt>
<pdfrwt beam="2">  1       21 0.76096694E-01 0.12172335E+03</pdfrwt>
<totfact> 0.88094041E+01</totfact>
</mgrwt>
</event>
<event>
 5    1  0.1708429E+000  0.8022581E+02  0.7546771E-02  0.1328412E+00
         21   -1    0    0  501  502  0.00000000000E+00  0.00000000000E+00  0.51225140930E+02  0.51225140930E+02  0.00000000000E+00 0. -1.
         21   -1    0    0  502  503 -0.00000000000E+00 -0.00000000000E+00 -0.18202643225E+03  0.18202643225E+03  0.00000000000E+00 0. -1.
         24    1    1    2    0    0  0.29637830566E+02  0.28105071700E+02 -0.73551683138E+02  0.11638454409E+03  0.80419002446E+02 0. -1.
          1    1    1    2  501    0 -0.12566034306E+02 -0.44708124571E+02  0.82545159401E+01  0.47168407375E+02  0.00000000000E+00 0. -1.
         -2    1    1    2    0  503 -0.17071796261E+02  0.16603052872E+02 -0.65504124126E+02  0.69698621721E+02  0.00000000000E+00 0.  1.
<mgrwt>
<rscale>  2 0.80225806E+02</rscale>
<asrwt>0</asrwt>
<pdfrwt beam="1">  1       21 0.78807908E-02 0.80225806E+02</pdfrwt>
<pdfrwt beam="2">  1       21 0.28004067E-01 0.80225806E+02</pdfrwt>
<totfact> 0.14778103E+06</totfact>
</mgrwt>
</event>
<event>
 5    1  0.1708429E+000  0.1510254E+03  0.7546771E-02  0.1199219E+00
         21   -1    0    0  503  502  0.00000000000E+00  0.00000000000E+00  0.21040393445E+03  0.21040393445E+03  0.00000000000E+00 0.  1.
         21   -1    0    0  501  503 -0.00000000000E+00 -0.00000000000E+00 -0.16568691039E+03  0.16568691039E+03  0.00000000000E+00 0.  1.
         24    1    1    2    0    0 -0.13324560001E+03  0.40931786348E+02 -0.36011597008E+02  0.16490558550E+03  0.80419002446E+02 0.  1.
          1    1    1    2  501    0  0.33339787766E+02 -0.48676753250E+00 -0.38185109963E+02  0.50693993863E+02  0.00000000000E+00 0. -1.
         -2    1    1    2    0  502  0.99905812241E+02 -0.40445018816E+02  0.11891373104E+03  0.16049126548E+03  0.00000000000E+00 0.  1.
<mgrwt>
<rscale>  2 0.15102545E+03</rscale>
<asrwt>0</asrwt>
<pdfrwt beam="1">  1       21 0.32369836E-01 0.15102545E+03</pdfrwt>
<pdfrwt beam="2">  1       21 0.25490294E-01 0.15102545E+03</pdfrwt>
<totfact> 0.13592442E+05</totfact>
</mgrwt>
</event>
<event>
 5    1  0.1708429E+000  0.7148612E+02  0.7546771E-02  0.1355111E+00
         21   -1    0    0  503  502  0.00000000000E+00  0.00000000000E+00  0.19907038714E+04  0.19907038714E+04  0.00000000000E+00 0. -1.
         21   -1    0    0  501  503 -0.00000000000E+00 -0.00000000000E+00 -0.36836265728E+01  0.36836265728E+01  0.00000000000E+00 0.  1.
         24    1    1    2    0    0 -0.10329565583E+02  0.15507756273E+02  0.72464273097E+03  0.72932948242E+03  0.80419002446E+02 0.  1.
          1    1    1    2  501    0  0.16522953001E+02 -0.35680597924E+02  0.31488580542E+03  0.31733134655E+03  0.00000000000E+00 0. -1.
         -2    1    1    2    0  502 -0.61933874181E+01  0.20172841651E+02  0.94749170841E+03  0.94772666898E+03  0.00000000000E+00 0.  1.
<mgrwt>
<rscale>  2 0.71486116E+02</rscale>
<asrwt>0</asrwt>
<pdfrwt beam="1">  1       21 0.30626127E+00 0.71486116E+02</pdfrwt>
<pdfrwt beam="2">  1       21 0.56671337E-03 0.71486116E+02</pdfrwt>
<totfact> 0.32581037E+05</totfact>
</mgrwt>
</event>
<event>
 5    1  0.1708429E+000  0.8418455E+02  0.7546771E-02  0.1317579E+00
         21   -1    0    0  501  502  0.00000000000E+00  0.00000000000E+00  0.79617527805E+02  0.79617527805E+02  0.00000000000E+00 0. -1.
         21   -1    0    0  502  503 -0.00000000000E+00 -0.00000000000E+00 -0.12048055651E+03  0.12048055651E+03  0.00000000000E+00 0.  1.
         24    1    1    2    0    0 -0.57922798080E+01 -0.71701412947E+01 -0.85834675334E+01  0.81399344597E+02  0.80419002446E+02 0.  0.
          1    1    1    2  501    0  0.37266678877E+02 -0.23026115028E+02  0.22037024639E+02  0.49037106182E+02  0.00000000000E+00 0. -1.
         -2    1    1    2    0  503 -0.31474399069E+02  0.30196256323E+02 -0.54316585809E+02  0.69661633534E+02  0.00000000000E+00 0.  1.
<mgrwt>
<rscale>  2 0.84184550E+02</rscale>
<asrwt>0</asrwt>
<pdfrwt beam="1">  1       21 0.12248850E-01 0.84184550E+02</pdfrwt>
<pdfrwt beam="2">  1       21 0.18535470E-01 0.84184550E+02</pdfrwt>
<totfact> 0.14828599E+06</totfact>
</mgrwt>
</event>
<event>
 5    1  0.1708429E+000  0.7269010E+02  0.7546771E-02  0.1351177E+00
         21   -1    0    0  503  502  0.00000000000E+00  0.00000000000E+00  0.79653441676E+02  0.79653441676E+02  0.00000000000E+00 0.  1.
         21   -1    0    0  501  503 -0.00000000000E+00 -0.00000000000E+00 -0.14745371006E+03  0.14745371006E+03  0.00000000000E+00 0. -1.
         24    1    1    2    0    0  0.61141387890E+01 -0.12925229718E+02 -0.11018802807E+03  0.13716071500E+03  0.80419002446E+02 0. -1.
          1    1    1    2  501    0  0.10799192606E+02  0.34577615967E+02 -0.35718616027E+01  0.36400443434E+02  0.00000000000E+00 0. -1.
         -2    1    1    2    0  502 -0.16913331395E+02 -0.21652386248E+02  0.45959621288E+02  0.53545993296E+02  0.00000000000E+00 0.  1.
<mgrwt>
<rscale>  2 0.72690102E+02</rscale>
<asrwt>0</asrwt>
<pdfrwt beam="1">  1       21 0.12254376E-01 0.72690102E+02</pdfrwt>
<pdfrwt beam="2">  1       21 0.22685186E-01 0.72690102E+02</pdfrwt>
<totfact> 0.10197503E+06</totfact>
</mgrwt>
</event>
<event>
 5    1  0.1708429E+000  0.8019974E+02  0.7546771E-02  0.1328486E+00
         21   -1    0    0  503  502  0.00000000000E+00  0.00000000000E+00  0.15808880105E+03  0.15808880105E+03  0.00000000000E+00 0.  1.
         21   -1    0    0  501  503 -0.00000000000E+00 -0.00000000000E+00 -0.15574287305E+03  0.15574287305E+03  0.00000000000E+00 0. -1.
         24    1    1    2    0    0  0.14672700028E+01 -0.21526624138E+02 -0.13146529887E+03  0.15561455327E+03  0.80419002446E+02 0. -1.
          1    1    1    2  501    0  0.54825341131E+01  0.48741066870E+02  0.50939298750E+02  0.70714651502E+02  0.00000000000E+00 0. -1.
         -2    1    1    2    0  502 -0.69498041159E+01 -0.27214442732E+02  0.82871928112E+02  0.87502469334E+02  0.00000000000E+00 0.  1.
<mgrwt>
<rscale>  2 0.80199744E+02</rscale>
<asrwt>0</asrwt>
<pdfrwt beam="1">  1       21 0.24321354E-01 0.80199744E+02</pdfrwt>
<pdfrwt beam="2">  1       21 0.23960442E-01 0.80199744E+02</pdfrwt>
<totfact> 0.26863636E+05</totfact>
</mgrwt>
</event>
<event>
 5    1  0.1708429E+000  0.1270878E+03  0.7546771E-02  0.1231842E+00
         21   -1    0    0  503  502  0.00000000000E+00  0.00000000000E+00  0.62399220302E+02  0.62399220302E+02  0.00000000000E+00 0.  1.
         21   -1    0    0  501  503 -0.00000000000E+00 -0.00000000000E+00 -0.45614387407E+03  0.45614387407E+03  0.00000000000E+00 0.  1.
         24    1    1    2    0    0 -0.84535087185E+02 -0.59683681119E+02 -0.26856095178E+03  0.29883193191E+03  0.80419002446E+02 0.  1.
          1    1    1    2  501    0 -0.44026359735E+01  0.28554662924E+02 -0.12205837242E+03  0.12543124913E+03  0.00000000000E+00 0. -1.
         -2    1    1    2    0  502  0.88937723159E+02  0.31129018195E+02 -0.31253295729E+01  0.94279913340E+02  0.00000000000E+00 0.  1.
<mgrwt>
<rscale>  2 0.12708783E+03</rscale>
<asrwt>0</asrwt>
<pdfrwt beam="1">  1       21 0.95998798E-02 0.12708783E+03</pdfrwt>
<pdfrwt beam="2">  1       21 0.70175983E-01 0.12708783E+03</pdfrwt>
<totfact> 0.16412608E+05</totfact>
</mgrwt>
</event>
<event>
 5    1  0.1708429E+000  0.7706074E+02  0.7546771E-02  0.1337606E+00
         21   -1    0    0  503  502  0.00000000000E+00  0.00000000000E+00  0.12084895932E+03  0.12084895932E+03  0.00000000000E+00 0.  1.
         21   -1    0    0  501  503 -0.00000000000E+00 -0.00000000000E+00 -0.10019594770E+03  0.10019594770E+03  0.00000000000E+00 0. -1.
         24    1    1    2    0    0  0.19343004177E+02  0.12294564881E+02  0.88711608599E+02  0.12191092482E+03  0.80419002446E+02 0.  1.
          1    1    1    2  501    0 -0.43347238616E+02 -0.16011494619E+02 -0.53983721879E+02  0.71060490313E+02  0.00000000000E+00 0. -1.
         -2    1    1    2    0  502  0.24004234439E+02  0.37169297384E+01 -0.14074875100E+02  0.28073491888E+02  0.00000000000E+00 0.  1.
<mgrwt>
<rscale>  2 0.77060738E+02</rscale>
<asrwt>0</asrwt>
<pdfrwt beam="1">  1       21 0.18592148E-01 0.77060738E+02</pdfrwt>
<pdfrwt beam="2">  1       21 0.15414761E-01 0.77060738E+02</pdfrwt>
<totfact> 0.97989803E+05</totfact>
</mgrwt>
</event>
<event>
 5    1  0.1708429E+000  0.9178268E+02  0.7546771E-02  0.1298591E+00
         21   -1    0    0  503  502  0.00000000000E+00  0.00000000000E+00  0.15708501926E+04  0.15708501926E+04  0.00000000000E+00 0.  1.
         21   -1    0    0  501  503 -0.00000000000E+00 -0.00000000000E+00 -0.10151654101E+03  0.10151654101E+03  0.00000000000E+00 0.  1.
         24    1    1    2    0    0  0.18385030396E+02  0.15500763327E+02  0.21260383083E+02  0.86588121874E+02  0.80419002446E+02 0.  1.
          1    1    1    2  501    0  0.37730854983E+02 -0.21105808290E+02 -0.61487354373E+02  0.75164934039E+02  0.00000000000E+00 0. -1.
         -2    1    1    2    0  502 -0.56115885379E+02  0.56050449628E+01  0.15095606229E+04  0.15106136777E+04  0.00000000000E+00 0.  1.
<mgrwt>
<rscale>  2 0.91782679E+02</rscale>
<asrwt>0</asrwt>
<pdfrwt beam="1">  1       21 0.24166924E+00 0.91782679E+02</pdfrwt>
<pdfrwt beam="2">  1       21 0.15617930E-01 0.91782679E+02</pdfrwt>
<totfact> 0.31481015E+03</totfact>
</mgrwt>
</event>
<event>
 5    1  0.1708429E+000  0.7185009E+02  0.7546771E-02  0.1353912E+00
         21   -1    0    0  503  502  0.00000000000E+00  0.00000000000E+00  0.21216852366E+02  0.21216852366E+02  0.00000000000E+00 0.  1.
         21   -1    0    0  501  503 -0.00000000000E+00 -0.00000000000E+00 -0.74324264032E+03  0.74324264032E+03  0.00000000000E+00 0.  1.
         24    1    1    2    0    0 -0.48874607149E+02  0.23680470822E+01 -0.56741712208E+03  0.57517279252E+03  0.80419002446E+02 0.  1.
          1    1    1    2  501    0  0.22573749510E+02  0.28435084619E+01 -0.16027534623E+03  0.16188219889E+03  0.00000000000E+00 0. -1.
         -2    1    1    2    0  502  0.26300857639E+02 -0.52115555441E+01  0.56666803617E+01  0.27404501274E+02  0.00000000000E+00 0.  1.
<mgrwt>
<rscale>  2 0.71850086E+02</rscale>
<asrwt>0</asrwt>
<pdfrwt beam="1">  1       21 0.32641320E-02 0.71850086E+02</pdfrwt>
<pdfrwt beam="2">  1       21 0.11434499E+00 0.71850086E+02</pdfrwt>
<totfact> 0.33755161E+05</totfact>
</mgrwt>
</event>
<event>
 5    1  0.1708429E+000  0.7008642E+02  0.7546771E-02  0.1359799E+00
         21   -1    0    0  501  502  0.00000000000E+00  0.00000000000E+00  0.10240332936E+03  0.10240332936E+03  0.00000000000E+00 0.  1.
         21   -1    0    0  502  503 -0.00000000000E+00 -0.00000000000E+00 -0.84045410595E+02  0.84045410595E+02  0.00000000000E+00 0. -1.
         24    1    1    2    0    0  0.60574987185E+00  0.17352387510E+02 -0.63244078932E+01  0.82514764586E+02  0.80419002446E+02 0. -1.
          1    1    1    2  501    0  0.18719251269E+02 -0.29599378843E+02  0.55455071880E+02  0.65588097954E+02  0.00000000000E+00 0. -1.
         -2    1    1    2    0  503 -0.19325001141E+02  0.12246991333E+02 -0.30772745225E+02  0.38345877412E+02  0.00000000000E+00 0.  1.
<mgrwt>
<rscale>  2 0.70086424E+02</rscale>
<asrwt>0</asrwt>
<pdfrwt beam="1">  1       21 0.15754358E-01 0.70086424E+02</pdfrwt>
<pdfrwt beam="2">  1       21 0.12930063E-01 0.70086424E+02</pdfrwt>
<totfact> 0.17928625E+06</totfact>
</mgrwt>
</event>
<event>
 5    1  0.1708429E+000  0.6927626E+02  0.7546771E-02  0.1362572E+00
         21   -1    0    0  503  502  0.00000000000E+00  0.00000000000E+00  0.64694994593E+02  0.64694994593E+02  0.00000000000E+00 0.  1.
         21   -1    0    0  501  503 -0.00000000000E+00 -0.00000000000E+00 -0.30153583866E+03  0.30153583866E+03  0.00000000000E+00 0.  1.
         24    1    1    2    0    0 -0.22097800566E+02  0.22405713510E+02 -0.13379679157E+03  0.15924549028E+03  0.80419002446E+02 0.  1.
          1    1    1    2  501    0 -0.19859803618E+01 -0.27505939247E+02 -0.15077687985E+03  0.15327814035E+03  0.00000000000E+00 0. -1.
         -2    1    1    2    0  502  0.24083780928E+02  0.51002257369E+01  0.47732827350E+02  0.53707202619E+02  0.00000000000E+00 0.  1.
<mgrwt>
<rscale>  2 0.69276257E+02</rscale>
<asrwt>0</asrwt>
<pdfrwt beam="1">  1       21 0.99530761E-02 0.69276257E+02</pdfrwt>
<pdfrwt beam="2">  1       21 0.46390129E-01 0.69276257E+02</pdfrwt>
<totfact> 0.37104560E+05</totfact>
</mgrwt>
</event>
<event>
 5    1  0.1708429E+000  0.6851260E+02  0.7546771E-02  0.1365225E+00
         21   -1    0    0  501  502  0.00000000000E+00  0.00000000000E+00  0.13030600519E+02  0.13030600519E+02  0.00000000000E+00 0.  1.
         21   -1    0    0  502  503 -0.00000000000E+00 -0.00000000000E+00 -0.43897776164E+03  0.43897776164E+03  0.00000000000E+00 0. -1.
         24    1    1    2    0    0  0.31358458499E+02  0.27507029684E+02 -0.35081321010E+03  0.36232183751E+03  0.80419002446E+02 0.  0.
          1    1    1    2  501    0 -0.75794803500E+01 -0.20168922613E+02 -0.20908040554E+02  0.30022993214E+02  0.00000000000E+00 0. -1.
         -2    1    1    2    0  503 -0.23778978149E+02 -0.73381070711E+01 -0.54225910464E+02  0.59663531431E+02  0.00000000000E+00 0.  1.
<mgrwt>
<rscale>  2 0.68512604E+02</rscale>
<asrwt>0</asrwt>
<pdfrwt beam="1">  1       21 0.20047080E-02 0.68512604E+02</pdfrwt>
<pdfrwt beam="2">  1       21 0.67535034E-01 0.68512604E+02</pdfrwt>
<totfact> 0.23921840E+06</totfact>
</mgrwt>
</event>
<event>
 5    1  0.1708429E+000  0.1654905E+03  0.7546771E-02  0.1182634E+00
         21   -1    0    0  503  502  0.00000000000E+00  0.00000000000E+00  0.23005054902E+03  0.23005054902E+03  0.00000000000E+00 0. -1.
         21   -1    0    0  501  503 -0.00000000000E+00 -0.00000000000E+00 -0.31545940642E+03  0.31545940642E+03  0.00000000000E+00 0. -1.
         24    1    1    2    0    0 -0.11181143515E+03 -0.38919255318E+02  0.17310415632E+03  0.22460803716E+03  0.80419002446E+02 0. -1.
          1    1    1    2  501    0 -0.74494840535E+01  0.65293650020E+02 -0.11495753132E+03  0.13241597167E+03  0.00000000000E+00 0. -1.
         -2    1    1    2    0  502  0.11926091921E+03 -0.26374394702E+02 -0.14355548240E+03  0.18848594662E+03  0.00000000000E+00 0.  1.
<mgrwt>
<rscale>  2 0.16549052E+03</rscale>
<asrwt>0</asrwt>
<pdfrwt beam="1">  1       21 0.35392392E-01 0.16549052E+03</pdfrwt>
<pdfrwt beam="2">  1       21 0.48532216E-01 0.16549052E+03</pdfrwt>
<totfact> 0.31676359E+04</totfact>
</mgrwt>
</event>
<event>
 5    1  0.1708429E+000  0.8246087E+02  0.7546771E-02  0.1322209E+00
         21   -1    0    0  501  502  0.00000000000E+00  0.00000000000E+00  0.36214976497E+02  0.36214976497E+02  0.00000000000E+00 0. -1.
         21   -1    0    0  502  503 -0.00000000000E+00 -0.00000000000E+00 -0.54319836598E+03  0.54319836598E+03  0.00000000000E+00 0.  1.
         24    1    1    2    0    0  0.55499759836E+02 -0.24208860193E+02 -0.14238067013E+03  0.17437248474E+03  0.80419002446E+02 0.  0.
          1    1    1    2  501    0 -0.40978314488E+02  0.67216580286E+01 -0.18399773576E+01  0.41566674892E+02  0.00000000000E+00 0. -1.
         -2    1    1    2    0  503 -0.14521445348E+02  0.17487202164E+02 -0.36276274199E+03  0.36347418284E+03  0.00000000000E+00 0.  1.
<mgrwt>
<rscale>  2 0.82460868E+02</rscale>
<asrwt>0</asrwt>
<pdfrwt beam="1">  1       21 0.55715348E-02 0.82460868E+02</pdfrwt>
<pdfrwt beam="2">  1       21 0.83568981E-01 0.82460868E+02</pdfrwt>
<totfact> 0.28642418E+05</totfact>
</mgrwt>
</event>
<event>
 5    1  0.1708429E+000  0.8400170E+02  0.7546771E-02  0.1318064E+00
         21   -1    0    0  501  502  0.00000000000E+00  0.00000000000E+00  0.16417177414E+02  0.16417177414E+02  0.00000000000E+00 0. -1.
         21   -1    0    0  502  503 -0.00000000000E+00 -0.00000000000E+00 -0.15535668959E+04  0.15535668959E+04  0.00000000000E+00 0. -1.
         24    1    1    2    0    0 -0.31855540685E+02  0.53781490678E+02 -0.48842238131E+03  0.49892971723E+03  0.80419002446E+02 0.  0.
          1    1    1    2  501    0  0.12148697835E+02 -0.40750501559E+02 -0.29969797043E+02  0.52022908138E+02  0.00000000000E+00 0. -1.
         -2    1    1    2    0  503  0.19706842851E+02 -0.13030989119E+02 -0.10187575401E+04  0.10190314479E+04  0.00000000000E+00 0.  1.
<mgrwt>
<rscale>  2 0.84001704E+02</rscale>
<asrwt>0</asrwt>
<pdfrwt beam="1">  1       21 0.25257198E-02 0.84001704E+02</pdfrwt>
<pdfrwt beam="2">  1       21 0.23901027E+00 0.84001704E+02</pdfrwt>
<totfact> 0.71727658E+04</totfact>
</mgrwt>
</event>
<event>
 5    1  0.1708429E+000  0.6572179E+02  0.7546771E-02  0.1375277E+00
         21   -1    0    0  501  502  0.00000000000E+00  0.00000000000E+00  0.14404091730E+03  0.14404091730E+03  0.00000000000E+00 0. -1.
         21   -1    0    0  502  503 -0.00000000000E+00 -0.00000000000E+00 -0.36894700590E+02  0.36894700590E+02  0.00000000000E+00 0. -1.
         24    1    1    2    0    0  0.97642810428E+01 -0.35822491840E+01  0.60959694259E+02  0.10144690223E+03  0.80419002446E+02 0.  1.
          1    1    1    2  501    0 -0.12558731688E+02 -0.21617402204E+02  0.47947001331E+02  0.54073549507E+02  0.00000000000E+00 0. -1.
         -2    1    1    2    0  503  0.27944506456E+01  0.25199651388E+02 -0.17604788847E+01  0.25415166149E+02  0.00000000000E+00 0.  1.
<mgrwt>
<rscale>  2 0.65721786E+02</rscale>
<asrwt>0</asrwt>
<pdfrwt beam="1">  1       21 0.22160141E-01 0.65721786E+02</pdfrwt>
<pdfrwt beam="2">  1       21 0.56761078E-02 0.65721786E+02</pdfrwt>
<totfact> 0.39214358E+06</totfact>
</mgrwt>
</event>
<event>
 5    1  0.1708429E+000  0.1324278E+03  0.7546771E-02  0.1223897E+00
         21   -1    0    0  503  502  0.00000000000E+00  0.00000000000E+00  0.13262958538E+04  0.13262958538E+04  0.00000000000E+00 0.  1.
         21   -1    0    0  501  503 -0.00000000000E+00 -0.00000000000E+00 -0.22956950581E+02  0.22956950581E+02  0.00000000000E+00 0. -1.
         24    1    1    2    0    0 -0.79210699586E+02  0.26835782101E+02  0.58606900518E+03  0.59744337716E+03  0.80419002446E+02 0. -1.
          1    1    1    2  501    0  0.11008177888E+03 -0.37308175824E+02  0.18461077119E+03  0.21815369551E+03  0.00000000000E+00 0. -1.
         -2    1    1    2    0  502 -0.30871079298E+02  0.10472393723E+02  0.53265912685E+03  0.53365573171E+03  0.00000000000E+00 0.  1.
<mgrwt>
<rscale>  2 0.13242785E+03</rscale>
<asrwt>0</asrwt>
<pdfrwt beam="1">  1       21 0.20404546E+00 0.13242785E+03</pdfrwt>
<pdfrwt beam="2">  1       21 0.35318396E-02 0.13242785E+03</pdfrwt>
<totfact> 0.63626183E+04</totfact>
</mgrwt>
</event>
<event>
 5    1  0.1708429E+000  0.7293175E+02  0.7546771E-02  0.1350398E+00
         21   -1    0    0  501  502  0.00000000000E+00  0.00000000000E+00  0.60444679906E+02  0.60444679906E+02  0.00000000000E+00 0.  1.
         21   -1    0    0  502  503 -0.00000000000E+00 -0.00000000000E+00 -0.94809743700E+02  0.94809743700E+02  0.00000000000E+00 0.  1.
         24    1    1    2    0    0  0.32070739014E+02 -0.30187739849E+02 -0.15478113328E+02  0.92987202801E+02  0.80419002446E+02 0.  1.
          1    1    1    2  501    0 -0.20109371784E+02 -0.16363115688E+01  0.49147662978E+01  0.20765819918E+02  0.00000000000E+00 0. -1.
         -2    1    1    2    0  503 -0.11961367230E+02  0.31824051418E+02 -0.23801716763E+02  0.41501400887E+02  0.00000000000E+00 0.  1.
<mgrwt>
<rscale>  2 0.72931752E+02</rscale>
<asrwt>0</asrwt>
<pdfrwt beam="1">  1       21 0.92991815E-02 0.72931752E+02</pdfrwt>
<pdfrwt beam="2">  1       21 0.14586114E-01 0.72931752E+02</pdfrwt>
<totfact> 0.36466745E+06</totfact>
</mgrwt>
</event>
<event>
 5    1  0.1708429E+000  0.7922327E+02  0.7546771E-02  0.1331270E+00
         21   -1    0    0  503  502  0.00000000000E+00  0.00000000000E+00  0.98767024678E+03  0.98767024678E+03  0.00000000000E+00 0. -1.
         21   -1    0    0  501  503 -0.00000000000E+00 -0.00000000000E+00 -0.83388641013E+01  0.83388641013E+01  0.00000000000E+00 0.  1.
         24    1    1    2    0    0  0.96956945024E+01  0.72723638488E+01  0.31760397570E+03  0.32785117829E+03  0.80419002446E+02 0.  1.
          1    1    1    2  501    0 -0.22534502891E+02  0.30101411326E+02  0.14082267012E+03  0.14575638306E+03  0.00000000000E+00 0. -1.
         -2    1    1    2    0  502  0.12838808388E+02 -0.37373775175E+02  0.52090473686E+03  0.52240154954E+03  0.00000000000E+00 0.  1.
<mgrwt>
<rscale>  2 0.79223269E+02</rscale>
<asrwt>0</asrwt>
<pdfrwt beam="1">  1       21 0.15194918E+00 0.79223269E+02</pdfrwt>
<pdfrwt beam="2">  1       21 0.12829030E-02 0.79223269E+02</pdfrwt>
<totfact> 0.74533121E+05</totfact>
</mgrwt>
</event>
<event>
 5    1  0.1708429E+000  0.7828811E+02  0.7546771E-02  0.1333981E+00
         21   -1    0    0  503  502  0.00000000000E+00  0.00000000000E+00  0.39188882899E+03  0.39188882899E+03  0.00000000000E+00 0.  1.
         21   -1    0    0  501  503 -0.00000000000E+00 -0.00000000000E+00 -0.18726167046E+02  0.18726167046E+02  0.00000000000E+00 0. -1.
         24    1    1    2    0    0 -0.72997240544E+01  0.25042082279E+02  0.20188949513E+03  0.21887662290E+03  0.80419002446E+02 0.  1.
          1    1    1    2  501    0 -0.30116402231E+02 -0.10648502806E+02  0.26461642414E+02  0.41480197861E+02  0.00000000000E+00 0. -1.
         -2    1    1    2    0  502  0.37416126285E+02 -0.14393579472E+02  0.14481152440E+03  0.15025817527E+03  0.00000000000E+00 0.  1.
<mgrwt>
<rscale>  2 0.78288107E+02</rscale>
<asrwt>0</asrwt>
<pdfrwt beam="1">  1       21 0.60290583E-01 0.78288107E+02</pdfrwt>
<pdfrwt beam="2">  1       21 0.28809491E-02 0.78288107E+02</pdfrwt>
<totfact> 0.17091843E+06</totfact>
</mgrwt>
</event>
<event>
 5    1  0.1708429E+000  0.8548493E+02  0.7546771E-02  0.1314169E+00
         21   -1    0    0  503  502  0.00000000000E+00  0.00000000000E+00  0.39882930192E+03  0.39882930192E+03  0.00000000000E+00 0. -1.
         21   -1    0    0  501  503 -0.00000000000E+00 -0.00000000000E+00 -0.26478190772E+02  0.26478190772E+02  0.00000000000E+00 0. -1.
         24    1    1    2    0    0  0.60045235721E+02  0.26923383028E+02  0.19178592110E+03  0.21812692263E+03  0.80419002446E+02 0. -1.
          1    1    1    2  501    0 -0.39409557193E+02 -0.24193653366E+02  0.29863075531E+02  0.55047700602E+02  0.00000000000E+00 0. -1.
         -2    1    1    2    0  502 -0.20635678528E+02 -0.27297296622E+01  0.15070211452E+03  0.15213286947E+03  0.00000000000E+00 0.  1.
<mgrwt>
<rscale>  2 0.85484934E+02</rscale>
<asrwt>0</asrwt>
<pdfrwt beam="1">  1       21 0.61358350E-01 0.85484934E+02</pdfrwt>
<pdfrwt beam="2">  1       21 0.40735681E-02 0.85484934E+02</pdfrwt>
<totfact> 0.93835865E+05</totfact>
</mgrwt>
</event>
<event>
 5    1  0.1708429E+000  0.8144811E+02  0.7546771E-02  0.1324991E+00
         21   -1    0    0  501  502  0.00000000000E+00  0.00000000000E+00  0.18610218727E+03  0.18610218727E+03  0.00000000000E+00 0.  1.
         21   -1    0    0  502  503 -0.00000000000E+00 -0.00000000000E+00 -0.50366685162E+02  0.50366685162E+02  0.00000000000E+00 0. -1.
         24    1    1    2    0    0  0.54944664578E+02 -0.27754720936E+02  0.13156904603E+03  0.16603273932E+03  0.80419002446E+02 0.  1.
          1    1    1    2  501    0 -0.27806463639E+02  0.15633219180E+02  0.19092160611E+02  0.37176707208E+02  0.00000000000E+00 0. -1.
         -2    1    1    2    0  503 -0.27138200939E+02  0.12121501756E+02 -0.14925704537E+02  0.33259425896E+02  0.00000000000E+00 0.  1.
<mgrwt>
<rscale>  2 0.81448111E+02</rscale>
<asrwt>0</asrwt>
<pdfrwt beam="1">  1       21 0.28631105E-01 0.81448111E+02</pdfrwt>
<pdfrwt beam="2">  1       21 0.77487209E-02 0.81448111E+02</pdfrwt>
<totfact> 0.14592413E+06</totfact>
</mgrwt>
</event>
<event>
 5    1  0.1708429E+000  0.9229901E+02  0.7546771E-02  0.1297378E+00
         21   -1    0    0  503  502  0.00000000000E+00  0.00000000000E+00  0.19248808935E+03  0.19248808935E+03  0.00000000000E+00 0. -1.
         21   -1    0    0  501  503 -0.00000000000E+00 -0.00000000000E+00 -0.57498830126E+02  0.57498830126E+02  0.00000000000E+00 0.  1.
         24    1    1    2    0    0 -0.31429019804E+02  0.63589333016E+02  0.17972465990E+02  0.10872723692E+03  0.80419002446E+02 0.  1.
          1    1    1    2  501    0  0.30527083422E+02 -0.26964832823E+02  0.46665556480E+02  0.61940933097E+02  0.00000000000E+00 0. -1.
         -2    1    1    2    0  502  0.90193638217E+00 -0.36624500193E+02  0.70351236756E+02  0.79318749465E+02  0.00000000000E+00 0.  1.
<mgrwt>
<rscale>  2 0.92299013E+02</rscale>
<asrwt>0</asrwt>
<pdfrwt beam="1">  1       21 0.29613552E-01 0.92299013E+02</pdfrwt>
<pdfrwt beam="2">  1       21 0.88459739E-02 0.92299013E+02</pdfrwt>
<totfact> 0.10950635E+06</totfact>
</mgrwt>
</event>
<event>
 5    1  0.1708429E+000  0.9842539E+02  0.7546771E-02  0.1283642E+00
         21   -1    0    0  503  502  0.00000000000E+00  0.00000000000E+00  0.12747401351E+03  0.12747401351E+03  0.00000000000E+00 0. -1.
         21   -1    0    0  501  503 -0.00000000000E+00 -0.00000000000E+00 -0.97970414127E+02  0.97970414127E+02  0.00000000000E+00 0.  1.
         24    1    1    2    0    0 -0.14968661167E+02  0.45769354192E+01 -0.18647077401E+02  0.84023440806E+02  0.80419002446E+02 0.  1.
          1    1    1    2  501    0 -0.12419356201E+02 -0.55623370613E+02 -0.11640293911E+02  0.58169547094E+02  0.00000000000E+00 0. -1.
         -2    1    1    2    0  502  0.27388017368E+02  0.51046435194E+02  0.59790970691E+02  0.83251439732E+02  0.00000000000E+00 0.  1.
<mgrwt>
<rscale>  2 0.98425390E+02</rscale>
<asrwt>0</asrwt>
<pdfrwt beam="1">  1       21 0.19611387E-01 0.98425390E+02</pdfrwt>
<pdfrwt beam="2">  1       21 0.15072371E-01 0.98425390E+02</pdfrwt>
<totfact> 0.92986939E+05</totfact>
</mgrwt>
</event>
<event>
 5    1  0.1708429E+000  0.6939762E+02  0.7546771E-02  0.1362154E+00
         21   -1    0    0  501  502  0.00000000000E+00  0.00000000000E+00  0.30201705328E+03  0.30201705328E+03  0.00000000000E+00 0.  1.
         21   -1    0    0  502  503 -0.00000000000E+00 -0.00000000000E+00 -0.16396869605E+02  0.16396869605E+02  0.00000000000E+00 0. -1.
         24    1    1    2    0    0 -0.81538127986E+01 -0.12572809328E+02  0.18276934354E+03  0.20024087767E+03  0.80419002446E+02 0.  1.
          1    1    1    2  501    0  0.25997339266E+02 -0.10316389589E+02  0.62460682645E+02  0.68437025210E+02  0.00000000000E+00 0. -1.
         -2    1    1    2    0  503 -0.17843526467E+02  0.22889198917E+02  0.40390157487E+02  0.49736020003E+02  0.00000000000E+00 0.  1.
<mgrwt>
<rscale>  2 0.69397620E+02</rscale>
<asrwt>0</asrwt>
<pdfrwt beam="1">  1       21 0.46464158E-01 0.69397620E+02</pdfrwt>
<pdfrwt beam="2">  1       21 0.25225956E-02 0.69397620E+02</pdfrwt>
<totfact> 0.35869014E+06</totfact>
</mgrwt>
</event>
<event>
 5    1  0.1708429E+000  0.1138269E+03  0.7546771E-02  0.1253643E+00
         21   -1    0    0  501  502  0.00000000000E+00  0.00000000000E+00  0.49395434755E+02  0.49395434755E+02  0.00000000000E+00 0. -1.
         21   -1    0    0  502  503 -0.00000000000E+00 -0.00000000000E+00 -0.30639721605E+03  0.30639721605E+03  0.00000000000E+00 0. -1.
         24    1    1    2    0    0  0.17352282694E+02 -0.42504366310E+02 -0.15445977645E+03  0.18009098080E+03  0.80419002446E+02 0.  0.
          1    1    1    2  501    0 -0.72366147252E+02  0.31619845666E+02 -0.31094769378E+02  0.84873780349E+02  0.00000000000E+00 0. -1.
         -2    1    1    2    0  503  0.55013864558E+02  0.10884520644E+02 -0.71447235461E+02  0.90827889650E+02  0.00000000000E+00 0.  1.
<mgrwt>
<rscale>  2 0.11382693E+03</rscale>
<asrwt>0</asrwt>
<pdfrwt beam="1">  1       21 0.75992977E-02 0.11382693E+03</pdfrwt>
<pdfrwt beam="2">  1       21 0.47138033E-01 0.11382693E+03</pdfrwt>
<totfact> 0.56972652E+05</totfact>
</mgrwt>
</event>
<event>
 5    1  0.1708429E+000  0.6897308E+02  0.7546771E-02  0.1363620E+00
         21   -1    0    0  501  502  0.00000000000E+00  0.00000000000E+00  0.79490687475E+01  0.79490687475E+01  0.00000000000E+00 0.  1.
         21   -1    0    0  502  503 -0.00000000000E+00 -0.00000000000E+00 -0.60572752255E+03  0.60572752255E+03  0.00000000000E+00 0. -1.
         24    1    1    2    0    0 -0.19599880284E+02  0.11301376364E+02 -0.38638770402E+03  0.39531576011E+03  0.80419002446E+02 0.  1.
          1    1    1    2  501    0  0.17286032079E+02  0.18032885526E+02 -0.85318332902E+02  0.88899998845E+02  0.00000000000E+00 0. -1.
         -2    1    1    2    0  503  0.23138482049E+01 -0.29334261890E+02 -0.12607241687E+03  0.12946083234E+03  0.00000000000E+00 0.  1.
<mgrwt>
<rscale>  2 0.68973084E+02</rscale>
<asrwt>0</asrwt>
<pdfrwt beam="1">  1       21 0.12229334E-02 0.68973084E+02</pdfrwt>
<pdfrwt beam="2">  1       21 0.93188871E-01 0.68973084E+02</pdfrwt>
<totfact> 0.25770386E+06</totfact>
</mgrwt>
</event>
<event>
 5    1  0.1708429E+000  0.8728926E+02  0.7546771E-02  0.1309552E+00
         21   -1    0    0  501  502  0.00000000000E+00  0.00000000000E+00  0.39979775907E+02  0.39979775907E+02  0.00000000000E+00 0. -1.
         21   -1    0    0  502  503 -0.00000000000E+00 -0.00000000000E+00 -0.32147896062E+03  0.32147896062E+03  0.00000000000E+00 0.  1.
         24    1    1    2    0    0  0.47888076967E+02 -0.12035026203E+02 -0.13183653592E+03  0.16213018821E+03  0.80419002446E+02 0.  1.
          1    1    1    2  501    0 -0.30057392147E+02 -0.25007326440E+02  0.48873262370E+01  0.39404303776E+02  0.00000000000E+00 0. -1.
         -2    1    1    2    0  503 -0.17830684820E+02  0.37042352643E+02 -0.15454997502E+03  0.15992424454E+03  0.00000000000E+00 0.  1.
<mgrwt>
<rscale>  2 0.87289263E+02</rscale>
<asrwt>0</asrwt>
<pdfrwt beam="1">  1       21 0.61507350E-02 0.87289263E+02</pdfrwt>
<pdfrwt beam="2">  1       21 0.49458300E-01 0.87289263E+02</pdfrwt>
<totfact> 0.73924900E+05</totfact>
</mgrwt>
</event>
<event>
 5    1  0.2019043E+000  0.1020288E+03  0.7546771E-02  0.1276087E+00
         21   -1    0    0  501  502  0.00000000000E+00  0.00000000000E+00  0.62141082177E+03  0.62141082177E+03  0.00000000000E+00 0.  1.
         21   -1    0    0  502  503 -0.00000000000E+00 -0.00000000000E+00 -0.74322300163E+02  0.74322300163E+02  0.00000000000E+00 0.  1.
         24    1    1    2    0    0  0.24344049662E+01  0.82232519376E+02  0.42510708274E+03  0.44039909323E+03  0.80419002446E+02 0.  1.
          1    1    1    2  501    0 -0.17477405911E+02 -0.30665065872E+02  0.17579216419E+03  0.17930056043E+03  0.00000000000E+00 0. -1.
         -2    1    1    2    0  503  0.15043000944E+02 -0.51567453504E+02 -0.53810725315E+02  0.76033468271E+02  0.00000000000E+00 0.  1.
<mgrwt>
<rscale>  2 0.10202884E+03</rscale>
<asrwt>0</asrwt>
<pdfrwt beam="1">  1       21 0.95601662E-01 0.10202884E+03</pdfrwt>
<pdfrwt beam="2">  1       21 0.11434200E-01 0.10202884E+03</pdfrwt>
<totfact> 0.61259582E+04</totfact>
</mgrwt>
</event>
<event>
 5    1  0.1708429E+000  0.7682054E+02  0.7546771E-02  0.1338324E+00
         21   -1    0    0  501  502  0.00000000000E+00  0.00000000000E+00  0.15261508691E+03  0.15261508691E+03  0.00000000000E+00 0.  1.
         21   -1    0    0  502  503 -0.00000000000E+00 -0.00000000000E+00 -0.62516718351E+02  0.62516718351E+02  0.00000000000E+00 0. -1.
         24    1    1    2    0    0  0.19641896543E+02  0.25581562690E+02 -0.16210935954E+02  0.88148912916E+02  0.80419002446E+02 0. -1.
          1    1    1    2  501    0 -0.25601649693E+02  0.12472153093E+02  0.62288696527E+02  0.68490004999E+02  0.00000000000E+00 0. -1.
         -2    1    1    2    0  503  0.59597531502E+01 -0.38053715783E+02  0.44020607984E+02  0.58492887344E+02  0.00000000000E+00 0.  1.
<mgrwt>
<rscale>  2 0.76820544E+02</rscale>
<asrwt>0</asrwt>
<pdfrwt beam="1">  1       21 0.23479244E-01 0.76820544E+02</pdfrwt>
<pdfrwt beam="2">  1       21 0.96179567E-02 0.76820544E+02</pdfrwt>
<totfact> 0.14589497E+06</totfact>
</mgrwt>
</event>
<event>
 5    1  0.1708429E+000  0.6720514E+02  0.7546771E-02  0.1369864E+00
         21   -1    0    0  501  502  0.00000000000E+00  0.00000000000E+00  0.99052807904E+02  0.99052807904E+02  0.00000000000E+00 0.  1.
         21   -1    0    0  502  503 -0.00000000000E+00 -0.00000000000E+00 -0.19585491578E+03  0.19585491578E+03  0.00000000000E+00 0.  1.
         24    1    1    2    0    0  0.26558800273E+02  0.33198313630E+02  0.55900807391E+02  0.10676897546E+03  0.80419002446E+02 0.  1.
          1    1    1    2  501    0 -0.95301009339E+01 -0.19068154318E+02  0.10275955437E+02  0.23664585207E+02  0.00000000000E+00 0. -1.
         -2    1    1    2    0  503 -0.17028699339E+02 -0.14130159312E+02 -0.16297887070E+03  0.16447416301E+03  0.00000000000E+00 0.  1.
<mgrwt>
<rscale>  2 0.67205143E+02</rscale>
<asrwt>0</asrwt>
<pdfrwt beam="1">  1       21 0.15238894E-01 0.67205143E+02</pdfrwt>
<pdfrwt beam="2">  1       21 0.30131525E-01 0.67205143E+02</pdfrwt>
<totfact> 0.40866547E+05</totfact>
</mgrwt>
</event>
<event>
 5    1  0.1708429E+000  0.1325078E+03  0.7546771E-02  0.1223781E+00
         21   -1    0    0  503  502  0.00000000000E+00  0.00000000000E+00  0.46678520739E+03  0.46678520739E+03  0.00000000000E+00 0. -1.
         21   -1    0    0  501  503 -0.00000000000E+00 -0.00000000000E+00 -0.50863533581E+02  0.50863533581E+02  0.00000000000E+00 0. -1.
         24    1    1    2    0    0  0.77658453340E+02  0.51262281696E+02  0.17084630030E+03  0.21050969379E+03  0.80419002446E+02 0.  0.
          1    1    1    2  501    0 -0.98992682032E+02 -0.15234947748E+02  0.58643844411E+02  0.11606358264E+03  0.00000000000E+00 0. -1.
         -2    1    1    2    0  502  0.21334228692E+02 -0.36027333947E+02  0.18643152910E+03  0.19107546454E+03  0.00000000000E+00 0.  1.
<mgrwt>
<rscale>  2 0.13250784E+03</rscale>
<asrwt>0</asrwt>
<pdfrwt beam="1">  1       21 0.71813106E-01 0.13250784E+03</pdfrwt>
<pdfrwt beam="2">  1       21 0.78251593E-02 0.13250784E+03</pdfrwt>
<totfact> 0.22205565E+05</totfact>
</mgrwt>
</event>
<event>
 5    1  0.1708429E+000  0.8314331E+02  0.7546771E-02  0.1320361E+00
         21   -1    0    0  501  502  0.00000000000E+00  0.00000000000E+00  0.49289574410E+02  0.49289574410E+02  0.00000000000E+00 0.  1.
         21   -1    0    0  502  503 -0.00000000000E+00 -0.00000000000E+00 -0.16533260052E+03  0.16533260052E+03  0.00000000000E+00 0. -1.
         24    1    1    2    0    0  0.25436883805E+02 -0.24473583145E+02 -0.81208625965E+02  0.11961625398E+03  0.80419002446E+02 0. -1.
          1    1    1    2  501    0 -0.38333858036E+02 -0.11682354259E+02  0.41567217657E+01  0.40289457787E+02  0.00000000000E+00 0. -1.
         -2    1    1    2    0  503  0.12896974230E+02  0.36155937404E+02 -0.38991121912E+02  0.54716463169E+02  0.00000000000E+00 0.  1.
<mgrwt>
<rscale>  2 0.83143305E+02</rscale>
<asrwt>0</asrwt>
<pdfrwt beam="1">  1       21 0.75830115E-02 0.83143305E+02</pdfrwt>
<pdfrwt beam="2">  1       21 0.25435785E-01 0.83143305E+02</pdfrwt>
<totfact> 0.18928073E+06</totfact>
</mgrwt>
</event>
<event>
 5    1  0.1708429E+000  0.7057049E+02  0.7546771E-02  0.1358164E+00
         21   -1    0    0  501  502  0.00000000000E+00  0.00000000000E+00  0.25001387123E+03  0.25001387123E+03  0.00000000000E+00 0.  1.
         21   -1    0    0  502  503 -0.00000000000E+00 -0.00000000000E+00 -0.22542475293E+02  0.22542475293E+02  0.00000000000E+00 0.  1.
         24    1    1    2    0    0 -0.36703929878E+02  0.26893284098E+02  0.18774959190E+03  0.20925475481E+03  0.80419002446E+02 0.  1.
          1    1    1    2  501    0  0.10309407584E+02 -0.18263106232E+02  0.21805357635E+02  0.30253901494E+02  0.00000000000E+00 0. -1.
         -2    1    1    2    0  503  0.26394522293E+02 -0.86301778654E+01  0.17916446403E+02  0.33047690219E+02  0.00000000000E+00 0.  1.
<mgrwt>
<rscale>  2 0.70570486E+02</rscale>
<asrwt>0</asrwt>
<pdfrwt beam="1">  1       21 0.38463671E-01 0.70570486E+02</pdfrwt>
<pdfrwt beam="2">  1       21 0.34680733E-02 0.70570486E+02</pdfrwt>
<totfact> 0.31222016E+06</totfact>
</mgrwt>
</event>
<event>
 5    1  0.1708429E+000  0.1260997E+03  0.7546771E-02  0.1233361E+00
         21   -1    0    0  501  502  0.00000000000E+00  0.00000000000E+00  0.63514035167E+03  0.63514035167E+03  0.00000000000E+00 0. -1.
         21   -1    0    0  502  503 -0.00000000000E+00 -0.00000000000E+00 -0.32883712262E+02  0.32883712262E+02  0.00000000000E+00 0. -1.
         24    1    1    2    0    0  0.17193762330E+02  0.90294079657E+02  0.32844124603E+03  0.35041334782E+03  0.80419002446E+02 0. -1.
          1    1    1    2  501    0 -0.10837455706E+02 -0.10939890528E+03  0.27625841056E+03  0.29732857301E+03  0.00000000000E+00 0. -1.
         -2    1    1    2    0  503 -0.63563066234E+01  0.19104825621E+02 -0.24430171790E+01  0.20282143103E+02  0.00000000000E+00 0.  1.
<mgrwt>
<rscale>  2 0.12609969E+03</rscale>
<asrwt>0</asrwt>
<pdfrwt beam="1">  1       21 0.97713891E-01 0.12609969E+03</pdfrwt>
<pdfrwt beam="2">  1       21 0.50590331E-02 0.12609969E+03</pdfrwt>
<totfact> 0.23316850E+05</totfact>
</mgrwt>
</event>
<event>
 5    1  0.1708429E+000  0.6719459E+02  0.7546771E-02  0.1369901E+00
         21   -1    0    0  503  502  0.00000000000E+00  0.00000000000E+00  0.64666420785E+02  0.64666420785E+02  0.00000000000E+00 0. -1.
         21   -1    0    0  501  503 -0.00000000000E+00 -0.00000000000E+00 -0.10993872802E+03  0.10993872802E+03  0.00000000000E+00 0.  1.
         24    1    1    2    0    0 -0.60437920578E+01 -0.72764641854E+01  0.24232598654E+02  0.84521648974E+02  0.80419002446E+02 0. -1.
          1    1    1    2  501    0  0.29470814937E+02  0.47834830553E+01 -0.54527631085E+02  0.62166495758E+02  0.00000000000E+00 0. -1.
         -2    1    1    2    0  502 -0.23427022879E+02  0.24929811301E+01 -0.14977274806E+02  0.27917004075E+02  0.00000000000E+00 0.  1.
<mgrwt>
<rscale>  2 0.67194594E+02</rscale>
<asrwt>0</asrwt>
<pdfrwt beam="1">  1       21 0.99486801E-02 0.67194594E+02</pdfrwt>
<pdfrwt beam="2">  1       21 0.16913651E-01 0.67194594E+02</pdfrwt>
<totfact> 0.24830758E+06</totfact>
</mgrwt>
</event>
<event>
 5    1  0.1708429E+000  0.1466672E+03  0.7546771E-02  0.1204629E+00
         21   -1    0    0  501  502  0.00000000000E+00  0.00000000000E+00  0.12750165410E+04  0.12750165410E+04  0.00000000000E+00 0.  1.
         21   -1    0    0  502  503 -0.00000000000E+00 -0.00000000000E+00 -0.17821020806E+02  0.17821020806E+02  0.00000000000E+00 0.  1.
         24    1    1    2    0    0  0.12914335699E+03 -0.45389267966E+01  0.55015788018E+03  0.57082354330E+03  0.80419002446E+02 0.  1.
          1    1    1    2  501    0 -0.37082689269E+02  0.27599412214E+02  0.32968423897E+03  0.33290922310E+03  0.00000000000E+00 0. -1.
         -2    1    1    2    0  503 -0.92060667717E+02 -0.23060485418E+02  0.37735340102E+03  0.38910479539E+03  0.00000000000E+00 0.  1.
<mgrwt>
<rscale>  2 0.14666716E+03</rscale>
<asrwt>0</asrwt>
<pdfrwt beam="1">  1       21 0.19615632E+00 0.14666716E+03</pdfrwt>
<pdfrwt beam="2">  1       21 0.27416965E-02 0.14666716E+03</pdfrwt>
<totfact> 0.10721289E+05</totfact>
</mgrwt>
</event>
<event>
 5    1  0.1708429E+000  0.8944518E+02  0.7546771E-02  0.1304201E+00
         21   -1    0    0  503  502  0.00000000000E+00  0.00000000000E+00  0.13184233415E+03  0.13184233415E+03  0.00000000000E+00 0. -1.
         21   -1    0    0  501  503 -0.00000000000E+00 -0.00000000000E+00 -0.13972744166E+03  0.13972744166E+03  0.00000000000E+00 0.  1.
         24    1    1    2    0    0 -0.24533476203E+02 -0.39508466139E+02 -0.10251768046E+03  0.13834703145E+03  0.80419002446E+02 0.  1.
          1    1    1    2  501    0  0.76739121623E+01 -0.21431140257E+02  0.46290958074E+01  0.23229533543E+02  0.00000000000E+00 0. -1.
         -2    1    1    2    0  502  0.16859564041E+02  0.60939606397E+02  0.90003477143E+02  0.10999321081E+03  0.00000000000E+00 0.  1.
<mgrwt>
<rscale>  2 0.89445178E+02</rscale>
<asrwt>0</asrwt>
<pdfrwt beam="1">  1       21 0.20283436E-01 0.89445178E+02</pdfrwt>
<pdfrwt beam="2">  1       21 0.21496529E-01 0.89445178E+02</pdfrwt>
<totfact> 0.45863454E+05</totfact>
</mgrwt>
</event>
<event>
 5    1  0.1708429E+000  0.7171326E+02  0.7546771E-02  0.1354362E+00
         21   -1    0    0  501  502  0.00000000000E+00  0.00000000000E+00  0.43089214121E+03  0.43089214121E+03  0.00000000000E+00 0.  1.
         21   -1    0    0  502  503 -0.00000000000E+00 -0.00000000000E+00 -0.29597989611E+02  0.29597989611E+02  0.00000000000E+00 0. -1.
         24    1    1    2    0    0  0.18998625169E+02  0.45242611088E+01  0.17309137118E+03  0.19185738304E+03  0.80419002446E+02 0.  0.
          1    1    1    2  501    0  0.20079372422E+02 -0.76038585708E+01  0.22842609609E+03  0.22943295587E+03  0.00000000000E+00 0. -1.
         -2    1    1    2    0  503 -0.39077997592E+02  0.30795974621E+01 -0.22331566888E+00  0.39199791915E+02  0.00000000000E+00 0.  1.
<mgrwt>
<rscale>  2 0.71713265E+02</rscale>
<asrwt>0</asrwt>
<pdfrwt beam="1">  1       21 0.66291094E-01 0.71713265E+02</pdfrwt>
<pdfrwt beam="2">  1       21 0.45535372E-02 0.71713265E+02</pdfrwt>
<totfact> 0.66193283E+05</totfact>
</mgrwt>
</event>
<event>
 5    1  0.1708429E+000  0.7697895E+02  0.7546771E-02  0.1337850E+00
         21   -1    0    0  501  502  0.00000000000E+00  0.00000000000E+00  0.93430963920E+02  0.93430963920E+02  0.00000000000E+00 0.  1.
         21   -1    0    0  502  503 -0.00000000000E+00 -0.00000000000E+00 -0.89445495708E+02  0.89445495708E+02  0.00000000000E+00 0.  1.
         24    1    1    2    0    0 -0.97743140884E+01  0.39958370042E+02  0.25918267414E+02  0.93974364017E+02  0.80419002446E+02 0.  1.
          1    1    1    2  501    0 -0.19358517478E+02 -0.98032551829E+01  0.20066735749E+02  0.29555539155E+02  0.00000000000E+00 0. -1.
         -2    1    1    2    0  503  0.29132831566E+02 -0.30155114859E+02 -0.41999534951E+02  0.59346556457E+02  0.00000000000E+00 0.  1.
<mgrwt>
<rscale>  2 0.76978945E+02</rscale>
<asrwt>0</asrwt>
<pdfrwt beam="1">  1       21 0.14373994E-01 0.76978945E+02</pdfrwt>
<pdfrwt beam="2">  1       21 0.13760846E-01 0.76978945E+02</pdfrwt>
<totfact> 0.18991995E+06</totfact>
</mgrwt>
</event>
<event>
 5    1  0.1708429E+000  0.7130131E+02  0.7546771E-02  0.1355723E+00
         21   -1    0    0  503  502  0.00000000000E+00  0.00000000000E+00  0.37577263200E+03  0.37577263200E+03  0.00000000000E+00 0.  1.
         21   -1    0    0  501  503 -0.00000000000E+00 -0.00000000000E+00 -0.31736858155E+02  0.31736858155E+02  0.00000000000E+00 0. -1.
         24    1    1    2    0    0  0.25698750127E+02 -0.22735643489E+02  0.25519147303E+03  0.26975403445E+03  0.80419002446E+02 0.  1.
          1    1    1    2  501    0 -0.24714240670E+02 -0.67879667621E+01 -0.15064746794E+02  0.29729056168E+02  0.00000000000E+00 0. -1.
         -2    1    1    2    0  502 -0.98450945668E+00  0.29523610251E+02  0.10390904761E+03  0.10802639953E+03  0.00000000000E+00 0.  1.
<mgrwt>
<rscale>  2 0.71301312E+02</rscale>
<asrwt>0</asrwt>
<pdfrwt beam="1">  1       21 0.57811171E-01 0.71301312E+02</pdfrwt>
<pdfrwt beam="2">  1       21 0.48825938E-02 0.71301312E+02</pdfrwt>
<totfact> 0.78608786E+05</totfact>
</mgrwt>
</event>
<event>
 5    1  0.1708429E+000  0.6589405E+02  0.7546771E-02  0.1374640E+00
         21   -1    0    0  501  502  0.00000000000E+00  0.00000000000E+00  0.39962050029E+02  0.39962050029E+02  0.00000000000E+00 0. -1.
         21   -1    0    0  502  503 -0.00000000000E+00 -0.00000000000E+00 -0.19096005623E+03  0.19096005623E+03  0.00000000000E+00 0.  1.
         24    1    1    2    0    0  0.36884705044E+02  0.14196569211E+01 -0.97245136268E+02  0.13147748619E+03  0.80419002446E+02 0. -1.
          1    1    1    2  501    0 -0.20796812508E+02  0.10483571701E+02  0.15090556837E+02  0.27751352972E+02  0.00000000000E+00 0. -1.
         -2    1    1    2    0  503 -0.16087892536E+02 -0.11903228622E+02 -0.68843426769E+02  0.71693267098E+02  0.00000000000E+00 0.  1.
<mgrwt>
<rscale>  2 0.65894047E+02</rscale>
<asrwt>0</asrwt>
<pdfrwt beam="1">  1       21 0.61480076E-02 0.65894047E+02</pdfrwt>
<pdfrwt beam="2">  1       21 0.29378471E-01 0.65894047E+02</pdfrwt>
<totfact> 0.20337545E+06</totfact>
</mgrwt>
</event>
<event>
 5    1  0.1708429E+000  0.9825627E+02  0.7546771E-02  0.1284006E+00
         21   -1    0    0  503  502  0.00000000000E+00  0.00000000000E+00  0.39656131351E+01  0.39656131351E+01  0.00000000000E+00 0.  1.
         21   -1    0    0  501  503 -0.00000000000E+00 -0.00000000000E+00 -0.26780201476E+04  0.26780201476E+04  0.00000000000E+00 0.  1.
         24    1    1    2    0    0  0.50800390345E+02  0.32260061024E+02 -0.14746047579E+04  0.14780215828E+04  0.80419002446E+02 0.  1.
          1    1    1    2  501    0  0.46662680782E+01  0.19592987167E+02 -0.49993527645E+03  0.50034082368E+03  0.00000000000E+00 0. -1.
         -2    1    1    2    0  502 -0.55466658423E+02 -0.51853048191E+02 -0.69951450013E+03  0.70362335428E+03  0.00000000000E+00 0.  1.
<mgrwt>
<rscale>  2 0.98256270E+02</rscale>
<asrwt>0</asrwt>
<pdfrwt beam="1">  1       21 0.61009577E-03 0.98256270E+02</pdfrwt>
<pdfrwt beam="2">  1       21 0.41200212E+00 0.98256270E+02</pdfrwt>
<totfact> 0.68911430E+04</totfact>
</mgrwt>
</event>
<event>
 5    1  0.4508356E+000  0.7957885E+02  0.7546771E-02  0.1330251E+00
         21   -1    0    0  503  502  0.00000000000E+00  0.00000000000E+00  0.12659208419E+03  0.12659208419E+03  0.00000000000E+00 0. -1.
         21   -1    0    0  501  503 -0.00000000000E+00 -0.00000000000E+00 -0.51165546799E+03  0.51165546799E+03  0.00000000000E+00 0. -1.
         24    1    1    2    0    0  0.12211623513E+02 -0.32044990124E+02  0.88246144883E+02  0.12421997900E+03  0.80419002446E+02 0. -1.
          1    1    1    2  501    0 -0.35433593037E+02  0.45212914798E+01 -0.47653515954E+03  0.47787209573E+03  0.00000000000E+00 0. -1.
         -2    1    1    2    0  502  0.23221969524E+02  0.27523698644E+02  0.32256308645E+01  0.36155477456E+02  0.00000000000E+00 0.  1.
<mgrwt>
<rscale>  2 0.79578852E+02</rscale>
<asrwt>0</asrwt>
<pdfrwt beam="1">  1       21 0.19475705E-01 0.79578852E+02</pdfrwt>
<pdfrwt beam="2">  1       21 0.78716228E-01 0.79578852E+02</pdfrwt>
<totfact> 0.37280115E+04</totfact>
</mgrwt>
</event>
<event>
 5    1  0.1708429E+000  0.6789133E+02  0.7546771E-02  0.1367414E+00
         21   -1    0    0  503  502  0.00000000000E+00  0.00000000000E+00  0.41933256941E+03  0.41933256941E+03  0.00000000000E+00 0. -1.
         21   -1    0    0  501  503 -0.00000000000E+00 -0.00000000000E+00 -0.23092093727E+02  0.23092093727E+02  0.00000000000E+00 0. -1.
         24    1    1    2    0    0  0.30727642666E+02  0.30671205144E+02  0.29386056529E+03  0.30774365734E+03  0.80419002446E+02 0. -1.
          1    1    1    2  501    0 -0.20068211869E+02 -0.13515328809E+02 -0.55948197028E+01  0.24833430047E+02  0.00000000000E+00 0. -1.
         -2    1    1    2    0  502 -0.10659430798E+02 -0.17155876335E+02  0.10797473010E+03  0.10984757575E+03  0.00000000000E+00 0.  1.
<mgrwt>
<rscale>  2 0.67891333E+02</rscale>
<asrwt>0</asrwt>
<pdfrwt beam="1">  1       21 0.64512697E-01 0.67891333E+02</pdfrwt>
<pdfrwt beam="2">  1       21 0.35526301E-02 0.67891333E+02</pdfrwt>
<totfact> 0.10510602E+06</totfact>
</mgrwt>
</event>
<event>
 5    1  0.1708429E+000  0.9107774E+02  0.7546771E-02  0.1300263E+00
         21   -1    0    0  501  502  0.00000000000E+00  0.00000000000E+00  0.94475810621E+03  0.94475810621E+03  0.00000000000E+00 0. -1.
         21   -1    0    0  502  503 -0.00000000000E+00 -0.00000000000E+00 -0.21296420910E+03  0.21296420910E+03  0.00000000000E+00 0.  1.
         24    1    1    2    0    0  0.42580738862E+02 -0.49070145381E+02  0.13459476079E+03  0.16971730636E+03  0.80419002446E+02 0. -1.
          1    1    1    2  501    0 -0.29644743327E+02  0.17292000970E+01  0.78923698146E+03  0.78979542531E+03  0.00000000000E+00 0. -1.
         -2    1    1    2    0  503 -0.12935995535E+02  0.47340945284E+02 -0.19203784514E+03  0.19820958364E+03  0.00000000000E+00 0.  1.
<mgrwt>
<rscale>  2 0.91077738E+02</rscale>
<asrwt>0</asrwt>
<pdfrwt beam="1">  1       21 0.14534740E+00 0.91077738E+02</pdfrwt>
<pdfrwt beam="2">  1       21 0.32763725E-01 0.91077738E+02</pdfrwt>
<totfact> 0.32865777E+03</totfact>
</mgrwt>
</event>
<event>
 5    1  0.1708429E+000  0.8133054E+02  0.7546771E-02  0.1325317E+00
         21   -1    0    0  503  502  0.00000000000E+00  0.00000000000E+00  0.25219298855E+02  0.25219298855E+02  0.00000000000E+00 0.  1.
         21   -1    0    0  501  503 -0.00000000000E+00 -0.00000000000E+00 -0.38367657889E+03  0.38367657889E+03  0.00000000000E+00 0.  1.
         24    1    1    2    0    0  0.26979701346E+02 -0.13863228153E+01 -0.13587948376E+03  0.16018825249E+03  0.80419002446E+02 0.  0.
          1    1    1    2  501    0  0.41218538299E+01  0.33129805487E+02 -0.19171839134E+03  0.19460348216E+03  0.00000000000E+00 0. -1.
         -2    1    1    2    0  502 -0.31101555176E+02 -0.31743482672E+02 -0.30859404932E+02  0.54104143088E+02  0.00000000000E+00 0.  1.
<mgrwt>
<rscale>  2 0.81330542E+02</rscale>
<asrwt>0</asrwt>
<pdfrwt beam="1">  1       21 0.38798922E-02 0.81330542E+02</pdfrwt>
<pdfrwt beam="2">  1       21 0.59027165E-01 0.81330542E+02</pdfrwt>
<totfact> 0.11015479E+06</totfact>
</mgrwt>
</event>
<event>
 5    1  0.1708429E+000  0.1311744E+03  0.7546771E-02  0.1225723E+00
         21   -1    0    0  501  502  0.00000000000E+00  0.00000000000E+00  0.72293422171E+02  0.72293422171E+02  0.00000000000E+00 0.  1.
         21   -1    0    0  502  503 -0.00000000000E+00 -0.00000000000E+00 -0.24481911132E+03  0.24481911132E+03  0.00000000000E+00 0.  1.
         24    1    1    2    0    0 -0.30728441664E+02  0.11376145552E+03 -0.11978359368E+03  0.18628266468E+03  0.80419002446E+02 0.  1.
          1    1    1    2  501    0 -0.19922382184E+01 -0.25081056196E+02 -0.12532201392E+02  0.28108441166E+02  0.00000000000E+00 0. -1.
         -2    1    1    2    0  503  0.32720679882E+02 -0.88680399327E+02 -0.40209894079E+02  0.10272142765E+03  0.00000000000E+00 0.  1.
<mgrwt>
<rscale>  2 0.13117440E+03</rscale>
<asrwt>0</asrwt>
<pdfrwt beam="1">  1       21 0.11122065E-01 0.13117440E+03</pdfrwt>
<pdfrwt beam="2">  1       21 0.37664479E-01 0.13117440E+03</pdfrwt>
<totfact> 0.46095248E+05</totfact>
</mgrwt>
</event>
<event>
 5    1  0.1708429E+000  0.1147946E+03  0.7546771E-02  0.1251940E+00
         21   -1    0    0  501  502  0.00000000000E+00  0.00000000000E+00  0.88495504611E+02  0.88495504611E+02  0.00000000000E+00 0.  1.
         21   -1    0    0  502  503 -0.00000000000E+00 -0.00000000000E+00 -0.46771906480E+03  0.46771906480E+03  0.00000000000E+00 0.  1.
         24    1    1    2    0    0 -0.75633571478E+02  0.48953863910E+02 -0.26703775260E+00  0.12076508266E+03  0.80419002446E+02 0.  1.
          1    1    1    2  501    0  0.83005533790E+02 -0.29618803780E+02 -0.41595584465E+02  0.97454526956E+02  0.00000000000E+00 0. -1.
         -2    1    1    2    0  503 -0.73719623128E+01 -0.19335060130E+02 -0.33736093797E+03  0.33799495980E+03  0.00000000000E+00 0.  1.
<mgrwt>
<rscale>  2 0.11479461E+03</rscale>
<asrwt>0</asrwt>
<pdfrwt beam="1">  1       21 0.13614693E-01 0.11479461E+03</pdfrwt>
<pdfrwt beam="2">  1       21 0.71956778E-01 0.11479461E+03</pdfrwt>
<totfact> 0.84357865E+04</totfact>
</mgrwt>
</event>
<event>
 5    1  0.1708429E+000  0.1933670E+03  0.7546771E-02  0.1155459E+00
         21   -1    0    0  501  502  0.00000000000E+00  0.00000000000E+00  0.42021696545E+02  0.42021696545E+02  0.00000000000E+00 0. -1.
         21   -1    0    0  502  503 -0.00000000000E+00 -0.00000000000E+00 -0.14404184669E+04  0.14404184669E+04  0.00000000000E+00 0.  1.
         24    1    1    2    0    0 -0.48337238845E+01 -0.59651328123E+02 -0.38508740250E+03  0.39792105920E+03  0.80419002446E+02 0.  1.
          1    1    1    2  501    0  0.27638105573E+02 -0.11096566826E+03 -0.90613534223E+02  0.14590427340E+03  0.00000000000E+00 0. -1.
         -2    1    1    2    0  503 -0.22804381689E+02  0.17061699639E+03 -0.92269583361E+03  0.93861483083E+03  0.00000000000E+00 0.  1.
<mgrwt>
<rscale>  2 0.19336702E+03</rscale>
<asrwt>0</asrwt>
<pdfrwt beam="1">  1       21 0.64648771E-02 0.19336702E+03</pdfrwt>
<pdfrwt beam="2">  1       21 0.22160282E+00 0.19336702E+03</pdfrwt>
<totfact> 0.17052058E+04</totfact>
</mgrwt>
</event>
<event>
 5    1  0.1708429E+000  0.1154861E+03  0.7546771E-02  0.1250735E+00
         21   -1    0    0  501  502  0.00000000000E+00  0.00000000000E+00  0.81513643084E+02  0.81513643084E+02  0.00000000000E+00 0. -1.
         21   -1    0    0  502  503 -0.00000000000E+00 -0.00000000000E+00 -0.26110737175E+03  0.26110737175E+03  0.00000000000E+00 0.  1.
         24    1    1    2    0    0 -0.78619276564E+02  0.87284209736E+01 -0.18501753764E+03  0.21669305750E+03  0.80419002446E+02 0.  1.
          1    1    1    2  501    0  0.49172720926E+01  0.33074483260E+02  0.21404936149E+02  0.39702295894E+02  0.00000000000E+00 0. -1.
         -2    1    1    2    0  503  0.73702004471E+02 -0.41802904233E+02 -0.15981127179E+02  0.86225661443E+02  0.00000000000E+00 0.  1.
<mgrwt>
<rscale>  2 0.11548610E+03</rscale>
<asrwt>0</asrwt>
<pdfrwt beam="1">  1       21 0.12540561E-01 0.11548610E+03</pdfrwt>
<pdfrwt beam="2">  1       21 0.40170365E-01 0.11548610E+03</pdfrwt>
<totfact> 0.32866570E+05</totfact>
</mgrwt>
</event>
<event>
 5    1  0.1708429E+000  0.8578123E+02  0.7546771E-02  0.1313402E+00
         21   -1    0    0  501  502  0.00000000000E+00  0.00000000000E+00  0.14959760024E+03  0.14959760024E+03  0.00000000000E+00 0. -1.
         21   -1    0    0  502  503 -0.00000000000E+00 -0.00000000000E+00 -0.31602629989E+03  0.31602629989E+03  0.00000000000E+00 0. -1.
         24    1    1    2    0    0  0.14605120867E+02  0.63705331671E+02 -0.10270996791E+03  0.14590487415E+03  0.80419002446E+02 0. -1.
          1    1    1    2  501    0 -0.18610328896E+02 -0.43154442611E+02  0.12308171548E+03  0.13174884798E+03  0.00000000000E+00 0. -1.
         -2    1    1    2    0  503  0.40052080286E+01 -0.20550889060E+02 -0.18680044723E+03  0.18797017800E+03  0.00000000000E+00 0.  1.
<mgrwt>
<rscale>  2 0.85781231E+02</rscale>
<asrwt>0</asrwt>
<pdfrwt beam="1">  1       21 0.23015016E-01 0.85781231E+02</pdfrwt>
<pdfrwt beam="2">  1       21 0.48619430E-01 0.85781231E+02</pdfrwt>
<totfact> 0.75391043E+04</totfact>
</mgrwt>
</event>
<event>
 5    1  0.1708429E+000  0.1054606E+03  0.7546771E-02  0.1269215E+00
         21   -1    0    0  501  502  0.00000000000E+00  0.00000000000E+00  0.41848150707E+03  0.41848150707E+03  0.00000000000E+00 0. -1.
         21   -1    0    0  502  503 -0.00000000000E+00 -0.00000000000E+00 -0.70341339608E+02  0.70341339608E+02  0.00000000000E+00 0.  1.
         24    1    1    2    0    0  0.20677498770E+02 -0.74972686457E+02  0.37043570270E+03  0.38696031897E+03  0.80419002446E+02 0.  0.
          1    1    1    2  501    0  0.21753593154E+02  0.19550781945E+02 -0.10485496364E+02  0.31070846847E+02  0.00000000000E+00 0. -1.
         -2    1    1    2    0  503 -0.42431091924E+02  0.55421904512E+02 -0.11810038867E+02  0.70791680865E+02  0.00000000000E+00 0.  1.
<mgrwt>
<rscale>  2 0.10546060E+03</rscale>
<asrwt>0</asrwt>
<pdfrwt beam="1">  1       21 0.64381769E-01 0.10546060E+03</pdfrwt>
<pdfrwt beam="2">  1       21 0.10821745E-01 0.10546060E+03</pdfrwt>
<totfact> 0.16154948E+05</totfact>
</mgrwt>
</event>
<event>
 5    1  0.1708429E+000  0.7219402E+02  0.7546771E-02  0.1352787E+00
         21   -1    0    0  501  502  0.00000000000E+00  0.00000000000E+00  0.83970040510E+02  0.83970040510E+02  0.00000000000E+00 0. -1.
         21   -1    0    0  502  503 -0.00000000000E+00 -0.00000000000E+00 -0.62766114029E+02  0.62766114029E+02  0.00000000000E+00 0.  1.
         24    1    1    2    0    0 -0.10857713183E+02  0.27200862672E+02  0.20139782428E+02  0.87923851464E+02  0.80419002446E+02 0.  0.
          1    1    1    2  501    0  0.17943240314E+02  0.10264945136E+02  0.22674828475E+00  0.20673180365E+02  0.00000000000E+00 0. -1.
         -2    1    1    2    0  503 -0.70855271310E+01 -0.37465807808E+02  0.83739576929E+00  0.38139122710E+02  0.00000000000E+00 0.  1.
<mgrwt>
<rscale>  2 0.72194019E+02</rscale>
<asrwt>0</asrwt>
<pdfrwt beam="1">  1       21 0.12918468E-01 0.72194019E+02</pdfrwt>
<pdfrwt beam="2">  1       21 0.96563252E-02 0.72194019E+02</pdfrwt>
<totfact> 0.42305194E+06</totfact>
</mgrwt>
</event>
<event>
 5    1  0.1708429E+000  0.8219272E+02  0.7546771E-02  0.1322942E+00
         21   -1    0    0  501  502  0.00000000000E+00  0.00000000000E+00  0.32773606442E+02  0.32773606442E+02  0.00000000000E+00 0. -1.
         21   -1    0    0  502  503 -0.00000000000E+00 -0.00000000000E+00 -0.31971662673E+03  0.31971662673E+03  0.00000000000E+00 0. -1.
         24    1    1    2    0    0  0.30671231301E+02 -0.25960892100E+02 -0.11076510667E+03  0.14265629029E+03  0.80419002446E+02 0. -1.
          1    1    1    2  501    0 -0.38469825569E+02 -0.82947069258E+01 -0.10860859118E+02  0.40825089137E+02  0.00000000000E+00 0. -1.
         -2    1    1    2    0  503  0.77985942677E+01  0.34255599025E+02 -0.16531705450E+03  0.16900885375E+03  0.00000000000E+00 0.  1.
<mgrwt>
<rscale>  2 0.82192716E+02</rscale>
<asrwt>0</asrwt>
<pdfrwt beam="1">  1       21 0.50420930E-02 0.82192716E+02</pdfrwt>
<pdfrwt beam="2">  1       21 0.49187177E-01 0.82192716E+02</pdfrwt>
<totfact> 0.10409625E+06</totfact>
</mgrwt>
</event>
<event>
 5    1  0.1708429E+000  0.7760501E+02  0.7546771E-02  0.1335989E+00
         21   -1    0    0  503  502  0.00000000000E+00  0.00000000000E+00  0.18776671739E+03  0.18776671739E+03  0.00000000000E+00 0.  1.
         21   -1    0    0  501  503 -0.00000000000E+00 -0.00000000000E+00 -0.82738331264E+02  0.82738331264E+02  0.00000000000E+00 0. -1.
         24    1    1    2    0    0 -0.45923298242E+02  0.25392851570E+01  0.14988745345E+03  0.17620687258E+03  0.80419002446E+02 0.  1.
          1    1    1    2  501    0  0.36515626046E+02  0.17453217359E+02 -0.56361998391E+02  0.69387899552E+02  0.00000000000E+00 0. -1.
         -2    1    1    2    0  502  0.94076721963E+01 -0.19992502516E+02  0.11502931071E+02  0.24910276518E+02  0.00000000000E+00 0.  1.
<mgrwt>
<rscale>  2 0.77605014E+02</rscale>
<asrwt>0</asrwt>
<pdfrwt beam="1">  1       21 0.28887187E-01 0.77605014E+02</pdfrwt>
<pdfrwt beam="2">  1       21 0.12728974E-01 0.77605014E+02</pdfrwt>
<totfact> 0.60853439E+05</totfact>
</mgrwt>
</event>
<event>
 5    1  0.1708429E+000  0.1252090E+03  0.7546771E-02  0.1234743E+00
         21   -1    0    0  501  502  0.00000000000E+00  0.00000000000E+00  0.36812733528E+02  0.36812733528E+02  0.00000000000E+00 0. -1.
         21   -1    0    0  502  503 -0.00000000000E+00 -0.00000000000E+00 -0.49967282872E+03  0.49967282872E+03  0.00000000000E+00 0. -1.
         24    1    1    2    0    0  0.63565561779E+02 -0.34127199911E+02 -0.21343020241E+03  0.23921729384E+03  0.80419002446E+02 0. -1.
          1    1    1    2  501    0 -0.35629436133E+02  0.80617961818E+02 -0.78813682954E+02  0.11823835718E+03  0.00000000000E+00 0. -1.
         -2    1    1    2    0  503 -0.27936125646E+02 -0.46490761907E+02 -0.17061620983E+03  0.17902991123E+03  0.00000000000E+00 0.  1.
<mgrwt>
<rscale>  2 0.12520900E+03</rscale>
<asrwt>0</asrwt>
<pdfrwt beam="1">  1       21 0.56634976E-02 0.12520900E+03</pdfrwt>
<pdfrwt beam="2">  1       21 0.76872741E-01 0.12520900E+03</pdfrwt>
<totfact> 0.33229143E+05</totfact>
</mgrwt>
</event>
<event>
 5    1  0.1708429E+000  0.9013883E+02  0.7546771E-02  0.1302516E+00
         21   -1    0    0  501  502  0.00000000000E+00  0.00000000000E+00  0.20343912156E+02  0.20343912156E+02  0.00000000000E+00 0. -1.
         21   -1    0    0  502  503 -0.00000000000E+00 -0.00000000000E+00 -0.60296878087E+03  0.60296878087E+03  0.00000000000E+00 0. -1.
         24    1    1    2    0    0 -0.97461665943E+01  0.58123047772E+02 -0.16168421604E+03  0.18995335774E+03  0.80419002446E+02 0. -1.
          1    1    1    2  501    0  0.29818998640E+02 -0.51369840692E+02 -0.14622199065E+03  0.15782554851E+03  0.00000000000E+00 0. -1.
         -2    1    1    2    0  503 -0.20072832046E+02 -0.67532070808E+01 -0.27471866202E+03  0.27553378677E+03  0.00000000000E+00 0.  1.
<mgrwt>
<rscale>  2 0.90138831E+02</rscale>
<asrwt>0</asrwt>
<pdfrwt beam="1">  1       21 0.31298330E-02 0.90138831E+02</pdfrwt>
<pdfrwt beam="2">  1       21 0.92764418E-01 0.90138831E+02</pdfrwt>
<totfact> 0.58542229E+05</totfact>
</mgrwt>
</event>
<event>
 5    1  0.1708429E+000  0.1059440E+03  0.7546771E-02  0.1268271E+00
         21   -1    0    0  503  502  0.00000000000E+00  0.00000000000E+00  0.47398030182E+02  0.47398030182E+02  0.00000000000E+00 0. -1.
         21   -1    0    0  501  503 -0.00000000000E+00 -0.00000000000E+00 -0.46469288243E+03  0.46469288243E+03  0.00000000000E+00 0.  1.
         24    1    1    2    0    0 -0.67909825968E+02 -0.55192672362E+02 -0.68915690674E+02  0.13738472958E+03  0.80419002446E+02 0. -1.
          1    1    1    2  501    0  0.71173331803E+01  0.23351470939E+02 -0.26760150823E+03  0.26871269943E+03  0.00000000000E+00 0. -1.
         -2    1    1    2    0  502  0.60792492787E+02  0.31841201424E+02 -0.80777653343E+02  0.10599348361E+03  0.00000000000E+00 0.  1.
<mgrwt>
<rscale>  2 0.10594397E+03</rscale>
<asrwt>0</asrwt>
<pdfrwt beam="1">  1       21 0.72920041E-02 0.10594397E+03</pdfrwt>
<pdfrwt beam="2">  1       21 0.71491218E-01 0.10594397E+03</pdfrwt>
<totfact> 0.25484287E+05</totfact>
</mgrwt>
</event>
<event>
 5    1  0.1708429E+000  0.1601765E+03  0.7546771E-02  0.1188498E+00
         21   -1    0    0  501  502  0.00000000000E+00  0.00000000000E+00  0.43736264292E+02  0.43736264292E+02  0.00000000000E+00 0.  1.
         21   -1    0    0  502  503 -0.00000000000E+00 -0.00000000000E+00 -0.63687161462E+03  0.63687161462E+03  0.00000000000E+00 0. -1.
         24    1    1    2    0    0 -0.12215668732E+03 -0.30214326749E+02 -0.18756954250E+03  0.23975969433E+03  0.80419002446E+02 0.  1.
          1    1    1    2  501    0  0.11767035206E+03  0.66021172476E+02 -0.29154796801E+03  0.32125585539E+03  0.00000000000E+00 0. -1.
         -2    1    1    2    0  503  0.44863352556E+01 -0.35806845727E+02 -0.11401783982E+03  0.11959232919E+03  0.00000000000E+00 0.  1.
<mgrwt>
<rscale>  2 0.16017646E+03</rscale>
<asrwt>0</asrwt>
<pdfrwt beam="1">  1       21 0.67286559E-02 0.16017646E+03</pdfrwt>
<pdfrwt beam="2">  1       21 0.97980251E-01 0.16017646E+03</pdfrwt>
<totfact> 0.14125815E+05</totfact>
</mgrwt>
</event>
<event>
 5    1  0.1708429E+000  0.1324656E+03  0.7546771E-02  0.1223842E+00
         21   -1    0    0  501  502  0.00000000000E+00  0.00000000000E+00  0.24953530040E+03  0.24953530040E+03  0.00000000000E+00 0. -1.
         21   -1    0    0  502  503 -0.00000000000E+00 -0.00000000000E+00 -0.20446146328E+03  0.20446146328E+03  0.00000000000E+00 0. -1.
         24    1    1    2    0    0  0.10059960058E+03 -0.55786694829E+02 -0.11513887536E+02  0.14082691688E+03  0.80419002446E+02 0. -1.
          1    1    1    2  501    0 -0.45392168746E+02 -0.96326586332E+00  0.16938237943E+03  0.17536181832E+03  0.00000000000E+00 0. -1.
         -2    1    1    2    0  503 -0.55207431833E+02  0.56749960692E+02 -0.11279465478E+03  0.13780802848E+03  0.00000000000E+00 0.  1.
<mgrwt>
<rscale>  2 0.13246559E+03</rscale>
<asrwt>0</asrwt>
<pdfrwt beam="1">  1       21 0.38390046E-01 0.13246559E+03</pdfrwt>
<pdfrwt beam="2">  1       21 0.31455610E-01 0.13246559E+03</pdfrwt>
<totfact> 0.65316021E+04</totfact>
</mgrwt>
</event>
<event>
 5    1  0.1708429E+000  0.6985724E+02  0.7546771E-02  0.1360579E+00
         21   -1    0    0  501  502  0.00000000000E+00  0.00000000000E+00  0.18141425716E+02  0.18141425716E+02  0.00000000000E+00 0. -1.
         21   -1    0    0  502  503 -0.00000000000E+00 -0.00000000000E+00 -0.47554836763E+03  0.47554836763E+03  0.00000000000E+00 0. -1.
         24    1    1    2    0    0 -0.59578506711E+01  0.84439355306E+01 -0.34221840745E+03  0.35169226660E+03  0.80419002446E+02 0. -1.
          1    1    1    2  501    0 -0.72262915739E+01  0.23228875043E+02 -0.27978562609E+01  0.24487301308E+02  0.00000000000E+00 0. -1.
         -2    1    1    2    0  503  0.13184142245E+02 -0.31672810574E+02 -0.11239067821E+03  0.11751022544E+03  0.00000000000E+00 0.  1.
<mgrwt>
<rscale>  2 0.69857243E+02</rscale>
<asrwt>0</asrwt>
<pdfrwt beam="1">  1       21 0.27909891E-02 0.69857243E+02</pdfrwt>
<pdfrwt beam="2">  1       21 0.73161272E-01 0.69857243E+02</pdfrwt>
<totfact> 0.11884279E+06</totfact>
</mgrwt>
</event>
<event>
 5    1  0.1708429E+000  0.7201891E+02  0.7546771E-02  0.1353359E+00
         21   -1    0    0  503  502  0.00000000000E+00  0.00000000000E+00  0.56604297460E+02  0.56604297460E+02  0.00000000000E+00 0.  1.
         21   -1    0    0  501  503 -0.00000000000E+00 -0.00000000000E+00 -0.22520366076E+03  0.22520366076E+03  0.00000000000E+00 0. -1.
         24    1    1    2    0    0  0.43793266574E+02 -0.49896096801E+01 -0.81732732040E+01  0.92069347512E+02  0.80419002446E+02 0.  1.
          1    1    1    2  501    0 -0.25625001669E+02  0.16819403305E+02 -0.16479605145E+03  0.16762240784E+03  0.00000000000E+00 0. -1.
         -2    1    1    2    0  502 -0.18168264905E+02 -0.11829793625E+02  0.43699613539E+01  0.22116202864E+02  0.00000000000E+00 0.  1.
<mgrwt>
<rscale>  2 0.72018911E+02</rscale>
<asrwt>0</asrwt>
<pdfrwt beam="1">  1       21 0.87083533E-02 0.72018911E+02</pdfrwt>
<pdfrwt beam="2">  1       21 0.34646718E-01 0.72018911E+02</pdfrwt>
<totfact> 0.82806930E+05</totfact>
</mgrwt>
</event>
<event>
 5    1  0.1708429E+000  0.9284287E+02  0.7546771E-02  0.1296110E+00
         21   -1    0    0  503  502  0.00000000000E+00  0.00000000000E+00  0.86943372633E+03  0.86943372633E+03  0.00000000000E+00 0.  1.
         21   -1    0    0  501  503 -0.00000000000E+00 -0.00000000000E+00 -0.10252022448E+04  0.10252022448E+04  0.00000000000E+00 0. -1.
         24    1    1    2    0    0  0.50920654336E+02 -0.50328073590E+02 -0.69107069628E+02  0.12794073259E+03  0.80419002446E+02 0.  1.
          1    1    1    2  501    0 -0.25171921992E+02  0.46769809745E+01 -0.92568362508E+03  0.92603761994E+03  0.00000000000E+00 0. -1.
         -2    1    1    2    0  502 -0.25748732344E+02  0.45651092616E+02  0.83902217624E+03  0.84065761859E+03  0.00000000000E+00 0.  1.
<mgrwt>
<rscale>  2 0.92842873E+02</rscale>
<asrwt>0</asrwt>
<pdfrwt beam="1">  1       21 0.13375904E+00 0.92842873E+02</pdfrwt>
<pdfrwt beam="2">  1       21 0.15772342E+00 0.92842873E+02</pdfrwt>
<totfact> 0.12752913E+02</totfact>
</mgrwt>
</event>
<event>
 5    1  0.1708429E+000  0.3832900E+03  0.7546771E-02  0.1049724E+00
         21   -1    0    0  503  502  0.00000000000E+00  0.00000000000E+00  0.28567035610E+03  0.28567035610E+03  0.00000000000E+00 0. -1.
         21   -1    0    0  501  503 -0.00000000000E+00 -0.00000000000E+00 -0.89339982184E+03  0.89339982184E+03  0.00000000000E+00 0. -1.
         24    1    1    2    0    0 -0.49393135226E+02  0.32604001029E+03 -0.14300969646E+03  0.36832154343E+03  0.80419002446E+02 0. -1.
          1    1    1    2  501    0  0.98633524757E+02 -0.35607126351E+03 -0.57663103462E+03  0.68484937540E+03  0.00000000000E+00 0. -1.
         -2    1    1    2    0  502 -0.49240389530E+02  0.30031253221E+02  0.11191126535E+03  0.12589925911E+03  0.00000000000E+00 0.  1.
<mgrwt>
<rscale>  2 0.38329002E+03</rscale>
<asrwt>0</asrwt>
<pdfrwt beam="1">  1       21 0.43949286E-01 0.38329002E+03</pdfrwt>
<pdfrwt beam="2">  1       21 0.13744612E+00 0.38329002E+03</pdfrwt>
<totfact> 0.16417934E+03</totfact>
</mgrwt>
</event>
<event>
 5    1  0.1708429E+000  0.8102201E+02  0.7546771E-02  0.1326176E+00
         21   -1    0    0  501  502  0.00000000000E+00  0.00000000000E+00  0.19667725159E+03  0.19667725159E+03  0.00000000000E+00 0.  1.
         21   -1    0    0  502  503 -0.00000000000E+00 -0.00000000000E+00 -0.95372499053E+02  0.95372499053E+02  0.00000000000E+00 0.  1.
         24    1    1    2    0    0  0.27703763211E+02 -0.15672993176E+02  0.71006918368E+02  0.11190326010E+03  0.80419002446E+02 0.  1.
          1    1    1    2  501    0  0.21525535334E+02 -0.51014951499E+01  0.94249186157E+02  0.96810552190E+02  0.00000000000E+00 0. -1.
         -2    1    1    2    0  503 -0.49229298545E+02  0.20774488326E+02 -0.63951351984E+02  0.83335938352E+02  0.00000000000E+00 0.  1.
<mgrwt>
<rscale>  2 0.81022011E+02</rscale>
<asrwt>0</asrwt>
<pdfrwt beam="1">  1       21 0.30258039E-01 0.81022011E+02</pdfrwt>
<pdfrwt beam="2">  1       21 0.14672692E-01 0.81022011E+02</pdfrwt>
<totfact> 0.43362961E+05</totfact>
</mgrwt>
</event>
<event>
 5    1  0.1708429E+000  0.1067964E+03  0.7546771E-02  0.1266620E+00
         21   -1    0    0  503  502  0.00000000000E+00  0.00000000000E+00  0.12416933953E+02  0.12416933953E+02  0.00000000000E+00 0. -1.
         21   -1    0    0  501  503 -0.00000000000E+00 -0.00000000000E+00 -0.13496892145E+04  0.13496892145E+04  0.00000000000E+00 0.  1.
         24    1    1    2    0    0 -0.60695843248E+02 -0.17975818908E+02 -0.36524876873E+03  0.37931648325E+03  0.80419002446E+02 0.  0.
          1    1    1    2  501    0  0.84789249354E+02  0.19851926714E+02 -0.93183227093E+03  0.93589246014E+03  0.00000000000E+00 0. -1.
         -2    1    1    2    0  502 -0.24093406106E+02 -0.18761078065E+01 -0.40191240874E+02  0.46897205048E+02  0.00000000000E+00 0.  1.
<mgrwt>
<rscale>  2 0.10679638E+03</rscale>
<asrwt>0</asrwt>
<pdfrwt beam="1">  1       21 0.19102983E-02 0.10679638E+03</pdfrwt>
<pdfrwt beam="2">  1       21 0.20764442E+00 0.10679638E+03</pdfrwt>
<totfact> 0.16762570E+05</totfact>
</mgrwt>
</event>
<event>
 5    1  0.1708429E+000  0.1162097E+03  0.7546771E-02  0.1249484E+00
         21   -1    0    0  503  502  0.00000000000E+00  0.00000000000E+00  0.35359764933E+03  0.35359764933E+03  0.00000000000E+00 0. -1.
         21   -1    0    0  501  503 -0.00000000000E+00 -0.00000000000E+00 -0.34611244819E+03  0.34611244819E+03  0.00000000000E+00 0. -1.
         24    1    1    2    0    0 -0.90727427818E+02  0.25765416255E+02  0.22801651161E+02  0.12602560884E+03  0.80419002446E+02 0. -1.
          1    1    1    2  501    0  0.19862374413E+02 -0.31648396720E+02 -0.28874920562E+03  0.29115672528E+03  0.00000000000E+00 0. -1.
         -2    1    1    2    0  502  0.70865053405E+02  0.58829804656E+01  0.27343275560E+03  0.28252776339E+03  0.00000000000E+00 0.  1.
<mgrwt>
<rscale>  2 0.11620971E+03</rscale>
<asrwt>0</asrwt>
<pdfrwt beam="1">  1       21 0.54399639E-01 0.11620971E+03</pdfrwt>
<pdfrwt beam="2">  1       21 0.53248069E-01 0.11620971E+03</pdfrwt>
<totfact> 0.11314419E+04</totfact>
</mgrwt>
</event>
<event>
 5    1  0.1708429E+000  0.7467827E+02  0.7546771E-02  0.1344870E+00
         21   -1    0    0  503  502  0.00000000000E+00  0.00000000000E+00  0.36545324450E+03  0.36545324450E+03  0.00000000000E+00 0. -1.
         21   -1    0    0  501  503 -0.00000000000E+00 -0.00000000000E+00 -0.68515098168E+02  0.68515098168E+02  0.00000000000E+00 0. -1.
         24    1    1    2    0    0  0.44017368026E+02  0.28634501183E+02  0.18530923094E+03  0.20872036406E+03  0.80419002446E+02 0. -1.
          1    1    1    2  501    0 -0.24427054593E+02 -0.21246265911E+02 -0.51473104339E+02  0.60807608747E+02  0.00000000000E+00 0. -1.
         -2    1    1    2    0  502 -0.19590313432E+02 -0.73882352720E+01  0.16310201973E+03  0.16444036986E+03  0.00000000000E+00 0.  1.
<mgrwt>
<rscale>  2 0.74678267E+02</rscale>
<asrwt>0</asrwt>
<pdfrwt beam="1">  1       21 0.56223575E-01 0.74678267E+02</pdfrwt>
<pdfrwt beam="2">  1       21 0.10540785E-01 0.74678267E+02</pdfrwt>
<totfact> 0.22713445E+05</totfact>
</mgrwt>
</event>
<event>
 5    1  0.1708429E+000  0.8534600E+02  0.7546771E-02  0.1314530E+00
         21   -1    0    0  501  502  0.00000000000E+00  0.00000000000E+00  0.10134117285E+04  0.10134117285E+04  0.00000000000E+00 0. -1.
         21   -1    0    0  502  503 -0.00000000000E+00 -0.00000000000E+00 -0.99832671232E+01  0.99832671232E+01  0.00000000000E+00 0. -1.
         24    1    1    2    0    0 -0.20996566862E+02 -0.62987094599E+02  0.42013828884E+03  0.43288754614E+03  0.80419002446E+02 0. -1.
          1    1    1    2  501    0  0.81680370595E+01  0.26479189222E+02  0.46951080590E+03  0.47032782307E+03  0.00000000000E+00 0. -1.
         -2    1    1    2    0  503  0.12828529802E+02  0.36507905377E+02  0.11377936662E+03  0.12017962639E+03  0.00000000000E+00 0.  1.
<mgrwt>
<rscale>  2 0.85346001E+02</rscale>
<asrwt>0</asrwt>
<pdfrwt beam="1">  1       21 0.15590942E+00 0.85346001E+02</pdfrwt>
<pdfrwt beam="2">  1       21 0.15358880E-02 0.85346001E+02</pdfrwt>
<totfact> 0.52481610E+05</totfact>
</mgrwt>
</event>
<event>
 5    1  0.1708429E+000  0.6810610E+02  0.7546771E-02  0.1366654E+00
         21   -1    0    0  503  502  0.00000000000E+00  0.00000000000E+00  0.27901187380E+03  0.27901187380E+03  0.00000000000E+00 0.  1.
         21   -1    0    0  501  503 -0.00000000000E+00 -0.00000000000E+00 -0.17133364916E+03  0.17133364916E+03  0.00000000000E+00 0. -1.
         24    1    1    2    0    0 -0.46367232512E+01  0.12077327811E+02 -0.18067704315E+01  0.81472949028E+02  0.80419002446E+02 0. -1.
          1    1    1    2  501    0 -0.20348420752E+02 -0.20016341558E+02 -0.12739137516E+03  0.13054989323E+03  0.00000000000E+00 0. -1.
         -2    1    1    2    0  502  0.24985144003E+02  0.79390137466E+01  0.23687637024E+03  0.23832268070E+03  0.00000000000E+00 0.  1.
<mgrwt>
<rscale>  2 0.68106102E+02</rscale>
<asrwt>0</asrwt>
<pdfrwt beam="1">  1       21 0.42924904E-01 0.68106102E+02</pdfrwt>
<pdfrwt beam="2">  1       21 0.26359023E-01 0.68106102E+02</pdfrwt>
<totfact> 0.76132494E+04</totfact>
</mgrwt>
</event>
<event>
 5    1  0.1708429E+000  0.7173690E+02  0.7546771E-02  0.1354284E+00
         21   -1    0    0  501  502  0.00000000000E+00  0.00000000000E+00  0.20110307337E+03  0.20110307337E+03  0.00000000000E+00 0. -1.
         21   -1    0    0  502  503 -0.00000000000E+00 -0.00000000000E+00 -0.10537852270E+03  0.10537852270E+03  0.00000000000E+00 0.  1.
         24    1    1    2    0    0  0.15568066126E+02  0.10124609744E+02  0.12074711039E+02  0.83413949711E+02  0.80419002446E+02 0.  0.
          1    1    1    2  501    0  0.18179027749E+02 -0.18740257617E+02  0.14779131782E+03  0.15007980520E+03  0.00000000000E+00 0. -1.
         -2    1    1    2    0  503 -0.33747093875E+02  0.86156478735E+01 -0.64141478190E+02  0.72987841163E+02  0.00000000000E+00 0.  1.
<mgrwt>
<rscale>  2 0.71736897E+02</rscale>
<asrwt>0</asrwt>
<pdfrwt beam="1">  1       21 0.30938934E-01 0.71736897E+02</pdfrwt>
<pdfrwt beam="2">  1       21 0.16212080E-01 0.71736897E+02</pdfrwt>
<totfact> 0.34812731E+05</totfact>
</mgrwt>
</event>
<event>
 5    1  0.1708429E+000  0.6416619E+02  0.7546771E-02  0.1381136E+00
         21   -1    0    0  503  502  0.00000000000E+00  0.00000000000E+00  0.30512733152E+02  0.30512733152E+02  0.00000000000E+00 0. -1.
         21   -1    0    0  501  503 -0.00000000000E+00 -0.00000000000E+00 -0.45253685698E+03  0.45253685698E+03  0.00000000000E+00 0. -1.
         24    1    1    2    0    0  0.53468336226E+01 -0.29878598478E+02 -0.71585808122E+02  0.11186180383E+03  0.80419002446E+02 0. -1.
          1    1    1    2  501    0  0.11645154512E+02  0.18723104540E+02 -0.35016580475E+03  0.35085930953E+03  0.00000000000E+00 0. -1.
         -2    1    1    2    0  502 -0.16991988135E+02  0.11155493937E+02 -0.27251095576E+00  0.20328476774E+02  0.00000000000E+00 0.  1.
<mgrwt>
<rscale>  2 0.64166186E+02</rscale>
<asrwt>0</asrwt>
<pdfrwt beam="1">  1       21 0.46942665E-02 0.64166186E+02</pdfrwt>
<pdfrwt beam="2">  1       21 0.69621056E-01 0.64166186E+02</pdfrwt>
<totfact> 0.56668182E+05</totfact>
</mgrwt>
</event>
<event>
 5    1  0.1758860E+000  0.7798047E+02  0.7546771E-02  0.1334882E+00
         21   -1    0    0  503  502  0.00000000000E+00  0.00000000000E+00  0.72554965800E+03  0.72554965800E+03  0.00000000000E+00 0.  1.
         21   -1    0    0  501  503 -0.00000000000E+00 -0.00000000000E+00 -0.37893968767E+02  0.37893968767E+02  0.00000000000E+00 0. -1.
         24    1    1    2    0    0 -0.10323834529E+01 -0.41857829256E+02  0.63124682403E+03  0.63772479369E+03  0.80419002446E+02 0.  1.
          1    1    1    2  501    0 -0.23858233563E+02  0.28073819408E+02 -0.21583278006E+02  0.42698858701E+02  0.00000000000E+00 0. -1.
         -2    1    1    2    0  502  0.24890617016E+02  0.13784009849E+02  0.77992143207E+02  0.83019974373E+02  0.00000000000E+00 0.  1.
<mgrwt>
<rscale>  2 0.77980470E+02</rscale>
<asrwt>0</asrwt>
<pdfrwt beam="1">  1       21 0.11162301E+00 0.77980470E+02</pdfrwt>
<pdfrwt beam="2">  1       21 0.58298419E-02 0.77980470E+02</pdfrwt>
<totfact> 0.13723409E+05</totfact>
</mgrwt>
</event>
<event>
 5    1  0.1708429E+000  0.3010667E+03  0.7546771E-02  0.1084709E+00
         21   -1    0    0  501  502  0.00000000000E+00  0.00000000000E+00  0.86086849736E+03  0.86086849736E+03  0.00000000000E+00 0. -1.
         21   -1    0    0  502  503 -0.00000000000E+00 -0.00000000000E+00 -0.23176787859E+03  0.23176787859E+03  0.00000000000E+00 0.  1.
         24    1    1    2    0    0 -0.26106353561E+03  0.43810764727E+01  0.10752739252E+03  0.29360299650E+03  0.80419002446E+02 0.  1.
          1    1    1    2  501    0  0.23416475117E+03 -0.80958524754E+02  0.62222139181E+03  0.66973642117E+03  0.00000000000E+00 0. -1.
         -2    1    1    2    0  503  0.26898784440E+02  0.76577448281E+02 -0.10064816555E+03  0.12929695827E+03  0.00000000000E+00 0.  1.
<mgrwt>
<rscale>  2 0.30106673E+03</rscale>
<asrwt>0</asrwt>
<pdfrwt beam="1">  1       21 0.13244131E+00 0.30106673E+03</pdfrwt>
<pdfrwt beam="2">  1       21 0.35656597E-01 0.30106673E+03</pdfrwt>
<totfact> 0.28936533E+03</totfact>
</mgrwt>
</event>
<event>
 5    1  0.1708429E+000  0.7734193E+02  0.7546771E-02  0.1336768E+00
         21   -1    0    0  501  502  0.00000000000E+00  0.00000000000E+00  0.24274823726E+03  0.24274823726E+03  0.00000000000E+00 0.  1.
         21   -1    0    0  502  503 -0.00000000000E+00 -0.00000000000E+00 -0.78340258939E+02  0.78340258939E+02  0.00000000000E+00 0. -1.
         24    1    1    2    0    0  0.31560161980E+02  0.41759987878E+02  0.14991371786E+02  0.97117957115E+02  0.80419002446E+02 0. -1.
          1    1    1    2  501    0 -0.31545463445E+01 -0.26107205255E+02  0.17848846466E+03  0.18041526916E+03  0.00000000000E+00 0. -1.
         -2    1    1    2    0  503 -0.28405615636E+02 -0.15652782622E+02 -0.29071858125E+02  0.43555269926E+02  0.00000000000E+00 0.  1.
<mgrwt>
<rscale>  2 0.77341929E+02</rscale>
<asrwt>0</asrwt>
<pdfrwt beam="1">  1       21 0.37345882E-01 0.77341929E+02</pdfrwt>
<pdfrwt beam="2">  1       21 0.12052348E-01 0.77341929E+02</pdfrwt>
<totfact> 0.40879556E+05</totfact>
</mgrwt>
</event>
<event>
 5    1  0.1708429E+000  0.1013909E+03  0.7546771E-02  0.1277398E+00
         21   -1    0    0  501  502  0.00000000000E+00  0.00000000000E+00  0.23270917981E+02  0.23270917981E+02  0.00000000000E+00 0.  1.
         21   -1    0    0  502  503 -0.00000000000E+00 -0.00000000000E+00 -0.14657723579E+04  0.14657723579E+04  0.00000000000E+00 0.  1.
         24    1    1    2    0    0 -0.82867351137E+02  0.10552943856E+02 -0.19164432503E+03  0.22399358424E+03  0.80419002446E+02 0.  1.
          1    1    1    2  501    0  0.52915694264E+02 -0.18123388681E+02 -0.10666557721E+03  0.12044116106E+03  0.00000000000E+00 0. -1.
         -2    1    1    2    0  503  0.29951656873E+02  0.75704448248E+01 -0.11441915376E+04  0.11446085305E+04  0.00000000000E+00 0.  1.
<mgrwt>
<rscale>  2 0.10139095E+03</rscale>
<asrwt>0</asrwt>
<pdfrwt beam="1">  1       21 0.35801404E-02 0.10139095E+03</pdfrwt>
<pdfrwt beam="2">  1       21 0.22550349E+00 0.10139095E+03</pdfrwt>
<totfact> 0.47572908E+04</totfact>
</mgrwt>
</event>
<event>
 5    1  0.1708429E+000  0.6762268E+02  0.7546771E-02  0.1368369E+00
         21   -1    0    0  503  502  0.00000000000E+00  0.00000000000E+00  0.12302516574E+03  0.12302516574E+03  0.00000000000E+00 0. -1.
         21   -1    0    0  501  503 -0.00000000000E+00 -0.00000000000E+00 -0.45459334183E+02  0.45459334183E+02  0.00000000000E+00 0.  1.
         24    1    1    2    0    0  0.22309468531E+02  0.21008014686E+02  0.81381771207E+02  0.11844516751E+03  0.80419002446E+02 0. -1.
          1    1    1    2  501    0  0.49675084662E+01 -0.21336101750E+02 -0.58807726911E+01  0.22682347006E+02  0.00000000000E+00 0. -1.
         -2    1    1    2    0  502 -0.27276976997E+02  0.32808706386E+00  0.20648330435E+01  0.27356985410E+02  0.00000000000E+00 0.  1.
<mgrwt>
<rscale>  2 0.67622676E+02</rscale>
<asrwt>0</asrwt>
<pdfrwt beam="1">  1       21 0.18926949E-01 0.67622676E+02</pdfrwt>
<pdfrwt beam="2">  1       21 0.69937437E-02 0.67622676E+02</pdfrwt>
<totfact> 0.36932195E+06</totfact>
</mgrwt>
</event>
<event>
 5    1  0.1708429E+000  0.7785779E+02  0.7546771E-02  0.1335243E+00
         21   -1    0    0  501  502  0.00000000000E+00  0.00000000000E+00  0.24481975690E+03  0.24481975690E+03  0.00000000000E+00 0. -1.
         21   -1    0    0  502  503 -0.00000000000E+00 -0.00000000000E+00 -0.26425605527E+02  0.26425605527E+02  0.00000000000E+00 0. -1.
         24    1    1    2    0    0  0.52324080324E+02  0.14693612100E+02  0.14220486114E+03  0.17217186212E+03  0.80419002446E+02 0. -1.
          1    1    1    2  501    0 -0.21730846342E+02 -0.17543318175E+02  0.55200002967E+02  0.61863058629E+02  0.00000000000E+00 0. -1.
         -2    1    1    2    0  503 -0.30593233982E+02  0.28497060753E+01  0.20989287265E+02  0.37210441681E+02  0.00000000000E+00 0.  1.
<mgrwt>
<rscale>  2 0.77857786E+02</rscale>
<asrwt>0</asrwt>
<pdfrwt beam="1">  1       21 0.37664576E-01 0.77857786E+02</pdfrwt>
<pdfrwt beam="2">  1       21 0.40654779E-02 0.77857786E+02</pdfrwt>
<totfact> 0.25228644E+06</totfact>
</mgrwt>
</event>
<event>
 5    1  0.1708429E+000  0.6581994E+02  0.7546771E-02  0.1374913E+00
         21   -1    0    0  503  502  0.00000000000E+00  0.00000000000E+00  0.39853000083E+02  0.39853000083E+02  0.00000000000E+00 0. -1.
         21   -1    0    0  501  503 -0.00000000000E+00 -0.00000000000E+00 -0.19367836791E+03  0.19367836791E+03  0.00000000000E+00 0. -1.
         24    1    1    2    0    0  0.10826178262E+02  0.50397374433E+01 -0.48514723454E+02  0.94675759492E+02  0.80419002446E+02 0. -1.
          1    1    1    2  501    0 -0.21755071737E+02  0.15745839453E+02 -0.11140326304E+03  0.11459450956E+03  0.00000000000E+00 0. -1.
         -2    1    1    2    0  502  0.10928893475E+02 -0.20785576896E+02  0.60926186653E+01  0.24261098939E+02  0.00000000000E+00 0.  1.
<mgrwt>
<rscale>  2 0.65819938E+02</rscale>
<asrwt>0</asrwt>
<pdfrwt beam="1">  1       21 0.61312308E-02 0.65819938E+02</pdfrwt>
<pdfrwt beam="2">  1       21 0.29796672E-01 0.65819938E+02</pdfrwt>
<totfact> 0.19891203E+06</totfact>
</mgrwt>
</event>
<event>
 5    1  0.1708429E+000  0.7982408E+02  0.7546771E-02  0.1329551E+00
         21   -1    0    0  503  502  0.00000000000E+00  0.00000000000E+00  0.14729448776E+02  0.14729448776E+02  0.00000000000E+00 0. -1.
         21   -1    0    0  501  503 -0.00000000000E+00 -0.00000000000E+00 -0.50576908222E+03  0.50576908222E+03  0.00000000000E+00 0.  1.
         24    1    1    2    0    0  0.13339496338E+02 -0.14885302450E+02 -0.15459344772E+03  0.17540200804E+03  0.80419002446E+02 0. -1.
          1    1    1    2  501    0  0.22651157824E+02 -0.17298188203E+02 -0.12528099108E+03  0.12848201816E+03  0.00000000000E+00 0. -1.
         -2    1    1    2    0  502 -0.35990654162E+02  0.32183490653E+02 -0.21116519464E+03  0.21661450479E+03  0.00000000000E+00 0.  1.
<mgrwt>
<rscale>  2 0.79824082E+02</rscale>
<asrwt>0</asrwt>
<pdfrwt beam="1">  1       21 0.22660688E-02 0.79824082E+02</pdfrwt>
<pdfrwt beam="2">  1       21 0.77810637E-01 0.79824082E+02</pdfrwt>
<totfact> 0.14577559E+06</totfact>
</mgrwt>
</event>
<event>
 5    1  0.1708429E+000  0.6791685E+02  0.7546771E-02  0.1367324E+00
         21   -1    0    0  501  502  0.00000000000E+00  0.00000000000E+00  0.12344237500E+02  0.12344237500E+02  0.00000000000E+00 0. -1.
         21   -1    0    0  502  503 -0.00000000000E+00 -0.00000000000E+00 -0.65906959389E+03  0.65906959389E+03  0.00000000000E+00 0.  1.
         24    1    1    2    0    0  0.12374200648E+02 -0.71594169368E+01 -0.33840819957E+03  0.34812598808E+03  0.80419002446E+02 0.  0.
          1    1    1    2  501    0 -0.41567832703E+01  0.29789452843E+02 -0.25457046679E+02  0.39404968893E+02  0.00000000000E+00 0. -1.
         -2    1    1    2    0  503 -0.82174173775E+01 -0.22630035906E+02 -0.28286011015E+03  0.28388287442E+03  0.00000000000E+00 0.  1.
<mgrwt>
<rscale>  2 0.67916852E+02</rscale>
<asrwt>0</asrwt>
<pdfrwt beam="1">  1       21 0.18991128E-02 0.67916852E+02</pdfrwt>
<pdfrwt beam="2">  1       21 0.10139536E+00 0.67916852E+02</pdfrwt>
<totfact> 0.10636352E+06</totfact>
</mgrwt>
</event>
<event>
 5    1  0.1708429E+000  0.9358709E+02  0.7546771E-02  0.1294390E+00
         21   -1    0    0  503  502  0.00000000000E+00  0.00000000000E+00  0.10785174167E+04  0.10785174167E+04  0.00000000000E+00 0. -1.
         21   -1    0    0  501  503 -0.00000000000E+00 -0.00000000000E+00 -0.26093170499E+02  0.26093170499E+02  0.00000000000E+00 0.  1.
         24    1    1    2    0    0  0.41949173621E+02 -0.54717747581E+02  0.38060342140E+03  0.39506954502E+03  0.80419002446E+02 0.  0.
          1    1    1    2  501    0  0.54920518502E+00  0.33930935830E+02 -0.20635239111E+01  0.33998061174E+02  0.00000000000E+00 0. -1.
         -2    1    1    2    0  502 -0.42498378806E+02  0.20786811750E+02  0.67388434872E+03  0.67554298101E+03  0.00000000000E+00 0.  1.
<mgrwt>
<rscale>  2 0.93587085E+02</rscale>
<asrwt>0</asrwt>
<pdfrwt beam="1">  1       21 0.16592572E+00 0.93587085E+02</pdfrwt>
<pdfrwt beam="2">  1       21 0.40143348E-02 0.93587085E+02</pdfrwt>
<totfact> 0.94243072E+04</totfact>
</mgrwt>
</event>
<event>
 5    1  0.1708429E+000  0.7875113E+02  0.7546771E-02  0.1332633E+00
         21   -1    0    0  501  502  0.00000000000E+00  0.00000000000E+00  0.21598701069E+03  0.21598701069E+03  0.00000000000E+00 0.  1.
         21   -1    0    0  502  503 -0.00000000000E+00 -0.00000000000E+00 -0.69338039135E+02  0.69338039135E+02  0.00000000000E+00 0.  1.
         24    1    1    2    0    0 -0.94152169316E+01  0.32664337326E+02  0.11737172790E+03  0.14628377801E+03  0.80419002446E+02 0.  1.
          1    1    1    2  501    0  0.19892273079E+02  0.12722684196E+02  0.72038270492E+02  0.75809508881E+02  0.00000000000E+00 0. -1.
         -2    1    1    2    0  503 -0.10477056147E+02 -0.45387021523E+02 -0.42761026837E+02  0.63231762939E+02  0.00000000000E+00 0.  1.
<mgrwt>
<rscale>  2 0.78751126E+02</rscale>
<asrwt>0</asrwt>
<pdfrwt beam="1">  1       21 0.33228771E-01 0.78751126E+02</pdfrwt>
<pdfrwt beam="2">  1       21 0.10667391E-01 0.78751126E+02</pdfrwt>
<totfact> 0.63400005E+05</totfact>
</mgrwt>
</event>
<event>
 5    1  0.1708429E+000  0.8687911E+02  0.7546771E-02  0.1310590E+00
         21   -1    0    0  501  502  0.00000000000E+00  0.00000000000E+00  0.69813434580E+02  0.69813434580E+02  0.00000000000E+00 0. -1.
         21   -1    0    0  502  503 -0.00000000000E+00 -0.00000000000E+00 -0.87023926082E+03  0.87023926082E+03  0.00000000000E+00 0. -1.
         24    1    1    2    0    0 -0.66228409023E+02  0.11892202890E+02 -0.73931334890E+03  0.74671217377E+03  0.80419002446E+02 0. -1.
          1    1    1    2  501    0  0.22174749189E+02  0.30492197962E+01  0.59765977278E+02  0.63819975579E+02  0.00000000000E+00 0. -1.
         -2    1    1    2    0  503  0.44053659834E+02 -0.14941422686E+02 -0.12087845462E+03  0.12952054604E+03  0.00000000000E+00 0.  1.
<mgrwt>
<rscale>  2 0.86879106E+02</rscale>
<asrwt>0</asrwt>
<pdfrwt beam="1">  1       21 0.10740528E-01 0.86879106E+02</pdfrwt>
<pdfrwt beam="2">  1       21 0.13388297E+00 0.86879106E+02</pdfrwt>
<totfact> 0.31049656E+04</totfact>
</mgrwt>
</event>
<event>
 5    1  0.1708429E+000  0.2603031E+03  0.7546771E-02  0.1106961E+00
         21   -1    0    0  503  502  0.00000000000E+00  0.00000000000E+00  0.20964250834E+03  0.20964250834E+03  0.00000000000E+00 0. -1.
         21   -1    0    0  501  503 -0.00000000000E+00 -0.00000000000E+00 -0.34905161834E+03  0.34905161834E+03  0.00000000000E+00 0.  1.
         24    1    1    2    0    0  0.10365432942E+03  0.14437320421E+03  0.12341704772E+02  0.19546707072E+03  0.80419002446E+02 0. -1.
          1    1    1    2  501    0  0.76716577668E+02  0.22350964927E+02 -0.64079995498E+02  0.10242677748E+03  0.00000000000E+00 0. -1.
         -2    1    1    2    0  502 -0.18037090709E+03 -0.16672416914E+03 -0.87670819273E+02  0.26080027847E+03  0.00000000000E+00 0.  1.
<mgrwt>
<rscale>  2 0.26030308E+03</rscale>
<asrwt>0</asrwt>
<pdfrwt beam="1">  1       21 0.32252694E-01 0.26030308E+03</pdfrwt>
<pdfrwt beam="2">  1       21 0.53700249E-01 0.26030308E+03</pdfrwt>
<totfact> 0.29346955E+04</totfact>
</mgrwt>
</event>
<event>
 5    1  0.1708429E+000  0.8216218E+02  0.7546771E-02  0.1323025E+00
         21   -1    0    0  503  502  0.00000000000E+00  0.00000000000E+00  0.36519488609E+02  0.36519488609E+02  0.00000000000E+00 0. -1.
         21   -1    0    0  501  503 -0.00000000000E+00 -0.00000000000E+00 -0.22522392363E+03  0.22522392363E+03  0.00000000000E+00 0.  1.
         24    1    1    2    0    0 -0.29721509037E+02  0.46301795505E+02 -0.11633387516E+03  0.15174982976E+03  0.80419002446E+02 0.  0.
          1    1    1    2  501    0  0.66415392338E+01 -0.43070873417E+02 -0.74792703657E+02  0.86563033107E+02  0.00000000000E+00 0. -1.
         -2    1    1    2    0  502  0.23079969804E+02 -0.32309220882E+01  0.24221437950E+01  0.23430549380E+02  0.00000000000E+00 0.  1.
<mgrwt>
<rscale>  2 0.82162183E+02</rscale>
<asrwt>0</asrwt>
<pdfrwt beam="1">  1       21 0.56183829E-02 0.82162183E+02</pdfrwt>
<pdfrwt beam="2">  1       21 0.34649834E-01 0.82162183E+02</pdfrwt>
<totfact> 0.17409465E+06</totfact>
</mgrwt>
</event>
<event>
 5    1  0.1708429E+000  0.1188684E+03  0.7546771E-02  0.1244976E+00
         21   -1    0    0  503  502  0.00000000000E+00  0.00000000000E+00  0.40637274398E+02  0.40637274398E+02  0.00000000000E+00 0.  1.
         21   -1    0    0  501  503 -0.00000000000E+00 -0.00000000000E+00 -0.76397656181E+03  0.76397656181E+03  0.00000000000E+00 0.  1.
         24    1    1    2    0    0 -0.90626788844E+02  0.51239914646E+02 -0.65163071793E+03  0.66477706956E+03  0.80419002446E+02 0.  1.
          1    1    1    2  501    0  0.70478547452E+02 -0.49158979197E+02 -0.80509169043E+02  0.11775210056E+03  0.00000000000E+00 0. -1.
         -2    1    1    2    0  502  0.20148241392E+02 -0.20809354491E+01  0.88005995606E+01  0.22084666087E+02  0.00000000000E+00 0.  1.
<mgrwt>
<rscale>  2 0.11886838E+03</rscale>
<asrwt>0</asrwt>
<pdfrwt beam="1">  1       21 0.62518883E-02 0.11886838E+03</pdfrwt>
<pdfrwt beam="2">  1       21 0.11753486E+00 0.11886838E+03</pdfrwt>
<totfact> 0.10555997E+05</totfact>
</mgrwt>
</event>
<event>
 5    1  0.1708429E+000  0.1065195E+03  0.7546771E-02  0.1267154E+00
         21   -1    0    0  501  502  0.00000000000E+00  0.00000000000E+00  0.97223376679E+02  0.97223376679E+02  0.00000000000E+00 0. -1.
         21   -1    0    0  502  503 -0.00000000000E+00 -0.00000000000E+00 -0.48147010841E+03  0.48147010841E+03  0.00000000000E+00 0.  1.
         24    1    1    2    0    0  0.15305375916E+01 -0.29087286147E+02 -0.41258135218E+03  0.42135377165E+03  0.80419002446E+02 0.  1.
          1    1    1    2  501    0  0.46231532573E+02  0.56053132565E+02  0.59803191057E+02  0.94104887944E+02  0.00000000000E+00 0. -1.
         -2    1    1    2    0  503 -0.47762070165E+02 -0.26965846417E+02 -0.31468570606E+02  0.63234825495E+02  0.00000000000E+00 0.  1.
<mgrwt>
<rscale>  2 0.10651946E+03</rscale>
<asrwt>0</asrwt>
<pdfrwt beam="1">  1       21 0.14957442E-01 0.10651946E+03</pdfrwt>
<pdfrwt beam="2">  1       21 0.74072325E-01 0.10651946E+03</pdfrwt>
<totfact> 0.67223354E+04</totfact>
</mgrwt>
</event>
<event>
 5    1  0.1708429E+000  0.8082325E+02  0.7546771E-02  0.1326731E+00
         21   -1    0    0  501  502  0.00000000000E+00  0.00000000000E+00  0.37168271101E+03  0.37168271101E+03  0.00000000000E+00 0. -1.
         21   -1    0    0  502  503 -0.00000000000E+00 -0.00000000000E+00 -0.17701387568E+02  0.17701387568E+02  0.00000000000E+00 0.  1.
         24    1    1    2    0    0  0.16978243800E+02 -0.34165231687E+02  0.19741874275E+03  0.21655692037E+03  0.80419002446E+02 0. -1.
          1    1    1    2  501    0 -0.38730265869E+02  0.32951107210E+02  0.11889925051E+03  0.12931682308E+03  0.00000000000E+00 0. -1.
         -2    1    1    2    0  503  0.21752022068E+02  0.12141244774E+01  0.37663330189E+02  0.43510355126E+02  0.00000000000E+00 0.  1.
<mgrwt>
<rscale>  2 0.80823252E+02</rscale>
<asrwt>0</asrwt>
<pdfrwt beam="1">  1       21 0.57181950E-01 0.80823252E+02</pdfrwt>
<pdfrwt beam="2">  1       21 0.27232907E-02 0.80823252E+02</pdfrwt>
<totfact> 0.20927737E+06</totfact>
</mgrwt>
</event>
<event>
 5    1  0.1708429E+000  0.7846277E+02  0.7546771E-02  0.1333471E+00
         21   -1    0    0  503  502  0.00000000000E+00  0.00000000000E+00  0.45154296740E+01  0.45154296740E+01  0.00000000000E+00 0. -1.
         21   -1    0    0  501  503 -0.00000000000E+00 -0.00000000000E+00 -0.18096209318E+04  0.18096209318E+04  0.00000000000E+00 0.  1.
         24    1    1    2    0    0  0.14679294551E+02  0.49752653657E+02 -0.12541264616E+04  0.12577723187E+04  0.80419002446E+02 0.  0.
          1    1    1    2  501    0  0.94271611432E+01 -0.24806713896E+02 -0.42099288493E+03  0.42182846464E+03  0.00000000000E+00 0. -1.
         -2    1    1    2    0  502 -0.24106455694E+02 -0.24945939761E+02 -0.12998615563E+03  0.13453557809E+03  0.00000000000E+00 0.  1.
<mgrwt>
<rscale>  2 0.78462765E+02</rscale>
<asrwt>0</asrwt>
<pdfrwt beam="1">  1       21 0.69468239E-03 0.78462765E+02</pdfrwt>
<pdfrwt beam="2">  1       21 0.27840286E+00 0.78462765E+02</pdfrwt>
<totfact> 0.33378488E+05</totfact>
</mgrwt>
</event>
<event>
 5    1  0.1708429E+000  0.7481702E+02  0.7546771E-02  0.1344439E+00
         21   -1    0    0  501  502  0.00000000000E+00  0.00000000000E+00  0.11230492378E+03  0.11230492378E+03  0.00000000000E+00 0. -1.
         21   -1    0    0  502  503 -0.00000000000E+00 -0.00000000000E+00 -0.52320406518E+02  0.52320406518E+02  0.00000000000E+00 0.  1.
         24    1    1    2    0    0  0.10199581814E+02 -0.18548334504E+02  0.39583325457E+02  0.92098467906E+02  0.80419002446E+02 0.  1.
          1    1    1    2  501    0  0.20587955171E+02  0.27555996181E+02  0.21259570364E+02  0.40437187782E+02  0.00000000000E+00 0. -1.
         -2    1    1    2    0  503 -0.30787536985E+02 -0.90076616769E+01 -0.85837856295E+00  0.32089674605E+02  0.00000000000E+00 0.  1.
<mgrwt>
<rscale>  2 0.74817016E+02</rscale>
<asrwt>0</asrwt>
<pdfrwt beam="1">  1       21 0.17277681E-01 0.74817016E+02</pdfrwt>
<pdfrwt beam="2">  1       21 0.80492933E-02 0.74817016E+02</pdfrwt>
<totfact> 0.34553446E+06</totfact>
</mgrwt>
</event>
<event>
 5    1  0.1738420E+000  0.9367291E+02  0.7546771E-02  0.1294193E+00
         21   -1    0    0  503  502  0.00000000000E+00  0.00000000000E+00  0.52788946038E+03  0.52788946038E+03  0.00000000000E+00 0. -1.
         21   -1    0    0  501  503 -0.00000000000E+00 -0.00000000000E+00 -0.58713184963E+02  0.58713184963E+02  0.00000000000E+00 0. -1.
         24    1    1    2    0    0  0.12611082020E+02  0.37319275841E+02  0.41716254424E+03  0.42666564428E+03  0.80419002446E+02 0. -1.
          1    1    1    2  501    0 -0.40875873249E+02  0.10541526567E+02 -0.36241750511E+02  0.55636546229E+02  0.00000000000E+00 0. -1.
         -2    1    1    2    0  502  0.28264791228E+02 -0.47860802408E+02  0.88255481685E+02  0.10430045483E+03  0.00000000000E+00 0.  1.
<mgrwt>
<rscale>  2 0.93672910E+02</rscale>
<asrwt>0</asrwt>
<pdfrwt beam="1">  1       21 0.81213760E-01 0.93672910E+02</pdfrwt>
<pdfrwt beam="2">  1       21 0.90327980E-02 0.93672910E+02</pdfrwt>
<totfact> 0.13400516E+05</totfact>
</mgrwt>
</event>
<event>
 5    1  0.1708429E+000  0.9689032E+02  0.7546771E-02  0.1286974E+00
         21   -1    0    0  503  502  0.00000000000E+00  0.00000000000E+00  0.22024350637E+03  0.22024350637E+03  0.00000000000E+00 0.  1.
         21   -1    0    0  501  503 -0.00000000000E+00 -0.00000000000E+00 -0.47714718929E+02  0.47714718929E+02  0.00000000000E+00 0.  1.
         24    1    1    2    0    0  0.78245259579E+02  0.86842677303E+01  0.88372147830E+02  0.14308944622E+03  0.80419002446E+02 0.  0.
          1    1    1    2  501    0 -0.48437672270E+02 -0.15129442447E+02  0.21358223398E+02  0.55057077933E+02  0.00000000000E+00 0. -1.
         -2    1    1    2    0  502 -0.29807587309E+02  0.64451747170E+01  0.62798416210E+02  0.69811701146E+02  0.00000000000E+00 0.  1.
<mgrwt>
<rscale>  2 0.96890316E+02</rscale>
<asrwt>0</asrwt>
<pdfrwt beam="1">  1       21 0.33883616E-01 0.96890316E+02</pdfrwt>
<pdfrwt beam="2">  1       21 0.73407261E-02 0.96890316E+02</pdfrwt>
<totfact> 0.11637364E+06</totfact>
</mgrwt>
</event>
<event>
 5    1  0.1708429E+000  0.1721820E+03  0.7546771E-02  0.1175591E+00
         21   -1    0    0  503  502  0.00000000000E+00  0.00000000000E+00  0.54614094316E+02  0.54614094316E+02  0.00000000000E+00 0. -1.
         21   -1    0    0  501  503 -0.00000000000E+00 -0.00000000000E+00 -0.61336335547E+03  0.61336335547E+03  0.00000000000E+00 0.  1.
         24    1    1    2    0    0  0.10330424028E+03  0.12579669091E+03 -0.39479142268E+03  0.43453890146E+03  0.80419002446E+02 0.  1.
          1    1    1    2  501    0 -0.87615946646E+02 -0.10833178753E+03 -0.15472488666E+03  0.20821172121E+03  0.00000000000E+00 0. -1.
         -2    1    1    2    0  502 -0.15688293636E+02 -0.17464903381E+02 -0.92329518094E+01  0.25226827118E+02  0.00000000000E+00 0.  1.
<mgrwt>
<rscale>  2 0.17218198E+03</rscale>
<asrwt>0</asrwt>
<pdfrwt beam="1">  1       21 0.84021690E-02 0.17218198E+03</pdfrwt>
<pdfrwt beam="2">  1       21 0.94363586E-01 0.17218198E+03</pdfrwt>
<totfact> 0.10453717E+05</totfact>
</mgrwt>
</event>
<event>
 5    1  0.1708429E+000  0.7470246E+02  0.7546771E-02  0.1344795E+00
         21   -1    0    0  501  502  0.00000000000E+00  0.00000000000E+00  0.18696314494E+02  0.18696314494E+02  0.00000000000E+00 0. -1.
         21   -1    0    0  502  503 -0.00000000000E+00 -0.00000000000E+00 -0.41941212629E+03  0.41941212629E+03  0.00000000000E+00 0. -1.
         24    1    1    2    0    0  0.11126298173E+02  0.20964776341E+02 -0.26114000484E+03  0.27427109662E+03  0.80419002446E+02 0. -1.
          1    1    1    2  501    0 -0.35756921756E+02 -0.47575301627E+01 -0.21190774285E+02  0.41835875293E+02  0.00000000000E+00 0. -1.
         -2    1    1    2    0  503  0.24630623583E+02 -0.16207246179E+02 -0.11838503267E+03  0.12200146887E+03  0.00000000000E+00 0.  1.
<mgrwt>
<rscale>  2 0.74702458E+02</rscale>
<asrwt>0</asrwt>
<pdfrwt beam="1">  1       21 0.28763565E-02 0.74702458E+02</pdfrwt>
<pdfrwt beam="2">  1       21 0.64524932E-01 0.74702458E+02</pdfrwt>
<totfact> 0.14833102E+06</totfact>
</mgrwt>
</event>
<event>
 5    1  0.1708429E+000  0.1024050E+03  0.7546771E-02  0.1275318E+00
         21   -1    0    0  501  502  0.00000000000E+00  0.00000000000E+00  0.33772626235E+02  0.33772626235E+02  0.00000000000E+00 0.  1.
         21   -1    0    0  502  503 -0.00000000000E+00 -0.00000000000E+00 -0.62891300452E+03  0.62891300452E+03  0.00000000000E+00 0. -1.
         24    1    1    2    0    0 -0.67148411349E+01 -0.87770367994E+00 -0.76310044172E+02  0.11106888966E+03  0.80419002446E+02 0.  1.
          1    1    1    2  501    0 -0.38488921005E+02  0.46174919474E+02 -0.49293642283E+02  0.77739201167E+02  0.00000000000E+00 0. -1.
         -2    1    1    2    0  503  0.45203762140E+02 -0.45297215794E+02 -0.46953669183E+03  0.47387753993E+03  0.00000000000E+00 0.  1.
<mgrwt>
<rscale>  2 0.10240504E+03</rscale>
<asrwt>0</asrwt>
<pdfrwt beam="1">  1       21 0.51957887E-02 0.10240504E+03</pdfrwt>
<pdfrwt beam="2">  1       21 0.96755846E-01 0.10240504E+03</pdfrwt>
<totfact> 0.22977933E+05</totfact>
</mgrwt>
</event>
<event>
 5    1  0.1708429E+000  0.7244482E+02  0.7546771E-02  0.1351971E+00
         21   -1    0    0  503  502  0.00000000000E+00  0.00000000000E+00  0.73668009344E+02  0.73668009344E+02  0.00000000000E+00 0.  1.
         21   -1    0    0  501  503 -0.00000000000E+00 -0.00000000000E+00 -0.96204350320E+02  0.96204350320E+02  0.00000000000E+00 0. -1.
         24    1    1    2    0    0 -0.33229627022E+01  0.13374063197E+02 -0.31443507746E+02  0.87440367001E+02  0.80419002446E+02 0. -1.
          1    1    1    2  501    0  0.32593977234E+02 -0.66677582340E+01 -0.21567284630E+02  0.39648128810E+02  0.00000000000E+00 0. -1.
         -2    1    1    2    0  502 -0.29271014532E+02 -0.67063049628E+01  0.30474451400E+02  0.42783863852E+02  0.00000000000E+00 0.  1.
<mgrwt>
<rscale>  2 0.72444815E+02</rscale>
<asrwt>0</asrwt>
<pdfrwt beam="1">  1       21 0.11333540E-01 0.72444815E+02</pdfrwt>
<pdfrwt beam="2">  1       21 0.14800669E-01 0.72444815E+02</pdfrwt>
<totfact> 0.25249610E+06</totfact>
</mgrwt>
</event>
<event>
 5    1  0.1708429E+000  0.9437710E+02  0.7546771E-02  0.1292585E+00
         21   -1    0    0  503  502  0.00000000000E+00  0.00000000000E+00  0.79684786302E+02  0.79684786302E+02  0.00000000000E+00 0.  1.
         21   -1    0    0  501  503 -0.00000000000E+00 -0.00000000000E+00 -0.20296287817E+03  0.20296287817E+03  0.00000000000E+00 0. -1.
         24    1    1    2    0    0  0.97139887084E+01  0.36892613083E+02 -0.14416613064E+03  0.16942997272E+03  0.80419002446E+02 0. -1.
          1    1    1    2  501    0 -0.42647289298E+02  0.86764429378E+01 -0.15553551420E+02  0.46216716762E+02  0.00000000000E+00 0. -1.
         -2    1    1    2    0  502  0.32933300589E+02 -0.45569056021E+02  0.36441590193E+02  0.67000974993E+02  0.00000000000E+00 0.  1.
<mgrwt>
<rscale>  2 0.94377095E+02</rscale>
<asrwt>0</asrwt>
<pdfrwt beam="1">  1       21 0.12259198E-01 0.94377095E+02</pdfrwt>
<pdfrwt beam="2">  1       21 0.31225058E-01 0.94377095E+02</pdfrwt>
<totfact> 0.56101718E+05</totfact>
</mgrwt>
</event>
<event>
 5    1  0.1708429E+000  0.8685489E+02  0.7546771E-02  0.1310652E+00
         21   -1    0    0  503  502  0.00000000000E+00  0.00000000000E+00  0.21900745433E+03  0.21900745433E+03  0.00000000000E+00 0.  1.
         21   -1    0    0  501  503 -0.00000000000E+00 -0.00000000000E+00 -0.35475414813E+02  0.35475414813E+02  0.00000000000E+00 0. -1.
         24    1    1    2    0    0  0.11503427378E+02  0.29435541636E+01  0.10083745799E+03  0.12952375165E+03  0.80419002446E+02 0.  1.
          1    1    1    2  501    0 -0.13459613738E+02 -0.46709078071E+02  0.33224023203E+02  0.58878985165E+02  0.00000000000E+00 0. -1.
         -2    1    1    2    0  502  0.19561863597E+01  0.43765523907E+02  0.49470558315E+02  0.66080132324E+02  0.00000000000E+00 0.  1.
<mgrwt>
<rscale>  2 0.86854887E+02</rscale>
<asrwt>0</asrwt>
<pdfrwt beam="1">  1       21 0.33693454E-01 0.86854887E+02</pdfrwt>
<pdfrwt beam="2">  1       21 0.54577562E-02 0.86854887E+02</pdfrwt>
<totfact> 0.19331160E+06</totfact>
</mgrwt>
</event>
<event>
 5    1  0.1708429E+000  0.8796268E+02  0.7546771E-02  0.1307862E+00
         21   -1    0    0  503  502  0.00000000000E+00  0.00000000000E+00  0.26541598517E+03  0.26541598517E+03  0.00000000000E+00 0.  1.
         21   -1    0    0  501  503 -0.00000000000E+00 -0.00000000000E+00 -0.12856575189E+03  0.12856575189E+03  0.00000000000E+00 0. -1.
         24    1    1    2    0    0 -0.33678241819E+02 -0.26976393704E+02  0.14911683318E+03  0.17482847503E+03  0.80419002446E+02 0.  1.
          1    1    1    2  501    0 -0.10594234989E+01 -0.23424649580E+02 -0.10524973298E+03  0.10783015755E+03  0.00000000000E+00 0. -1.
         -2    1    1    2    0  502  0.34737665318E+02  0.50401043284E+02  0.92983133072E+02  0.11132310448E+03  0.00000000000E+00 0.  1.
<mgrwt>
<rscale>  2 0.87962681E+02</rscale>
<asrwt>0</asrwt>
<pdfrwt beam="1">  1       21 0.40833228E-01 0.87962681E+02</pdfrwt>
<pdfrwt beam="2">  1       21 0.19779347E-01 0.87962681E+02</pdfrwt>
<totfact> 0.14124562E+05</totfact>
</mgrwt>
</event>
<event>
 5    1  0.1708429E+000  0.1062567E+03  0.7546771E-02  0.1267663E+00
         21   -1    0    0  501  502  0.00000000000E+00  0.00000000000E+00  0.20853743277E+03  0.20853743277E+03  0.00000000000E+00 0. -1.
         21   -1    0    0  502  503 -0.00000000000E+00 -0.00000000000E+00 -0.78712701131E+02  0.78712701131E+02  0.00000000000E+00 0.  1.
         24    1    1    2    0    0 -0.33995000434E+02 -0.59330294553E+01 -0.85842060409E+01  0.87930457981E+02  0.80419002446E+02 0.  1.
          1    1    1    2  501    0  0.32430568375E+02 -0.55107685275E+02  0.11927126800E+03  0.13533009315E+03  0.00000000000E+00 0. -1.
         -2    1    1    2    0  503  0.15644320590E+01  0.61040714730E+02  0.19137669681E+02  0.63989582772E+02  0.00000000000E+00 0.  1.
<mgrwt>
<rscale>  2 0.10625667E+03</rscale>
<asrwt>0</asrwt>
<pdfrwt beam="1">  1       21 0.32082682E-01 0.10625667E+03</pdfrwt>
<pdfrwt beam="2">  1       21 0.12109646E-01 0.10625667E+03</pdfrwt>
<totfact> 0.54404887E+05</totfact>
</mgrwt>
</event>
<event>
 5    1  0.1708429E+000  0.6998267E+02  0.7546771E-02  0.1360152E+00
         21   -1    0    0  503  502  0.00000000000E+00  0.00000000000E+00  0.13286851771E+02  0.13286851771E+02  0.00000000000E+00 0. -1.
         21   -1    0    0  501  503 -0.00000000000E+00 -0.00000000000E+00 -0.37007304780E+03  0.37007304780E+03  0.00000000000E+00 0. -1.
         24    1    1    2    0    0  0.33391087894E+02  0.17251813863E+02 -0.22869690278E+03  0.24532036020E+03  0.80419002446E+02 0. -1.
          1    1    1    2  501    0 -0.29451965818E+02  0.38753323695E+01 -0.81084496019E+02  0.86354687112E+02  0.00000000000E+00 0. -1.
         -2    1    1    2    0  502 -0.39391220758E+01 -0.21127146233E+02 -0.47004797230E+02  0.51684852262E+02  0.00000000000E+00 0.  1.
<mgrwt>
<rscale>  2 0.69982667E+02</rscale>
<asrwt>0</asrwt>
<pdfrwt beam="1">  1       21 0.20441312E-02 0.69982667E+02</pdfrwt>
<pdfrwt beam="2">  1       21 0.56934310E-01 0.69982667E+02</pdfrwt>
<totfact> 0.33207189E+06</totfact>
</mgrwt>
</event>
<event>
 5    1  0.1708429E+000  0.9353452E+02  0.7546771E-02  0.1294511E+00
         21   -1    0    0  503  502  0.00000000000E+00  0.00000000000E+00  0.53140326998E+03  0.53140326998E+03  0.00000000000E+00 0.  1.
         21   -1    0    0  501  503 -0.00000000000E+00 -0.00000000000E+00 -0.18487923373E+02  0.18487923373E+02  0.00000000000E+00 0.  1.
         24    1    1    2    0    0 -0.70825665858E+02  0.27952544954E+02  0.33197895473E+03  0.34996408680E+03  0.80419002446E+02 0.  1.
          1    1    1    2  501    0  0.28645471744E+02 -0.14084957381E+02  0.34930031237E+02  0.47318666064E+02  0.00000000000E+00 0. -1.
         -2    1    1    2    0  502  0.42180194114E+02 -0.13867587573E+02  0.14600636064E+03  0.15260844049E+03  0.00000000000E+00 0.  1.
<mgrwt>
<rscale>  2 0.93534519E+02</rscale>
<asrwt>0</asrwt>
<pdfrwt beam="1">  1       21 0.81754338E-01 0.93534519E+02</pdfrwt>
<pdfrwt beam="2">  1       21 0.28442963E-02 0.93534519E+02</pdfrwt>
<totfact> 0.90851864E+05</totfact>
</mgrwt>
</event>
<event>
 5    1  0.1708429E+000  0.8390392E+02  0.7546771E-02  0.1318324E+00
         21   -1    0    0  501  502  0.00000000000E+00  0.00000000000E+00  0.33444871483E+03  0.33444871483E+03  0.00000000000E+00 0.  1.
         21   -1    0    0  502  503 -0.00000000000E+00 -0.00000000000E+00 -0.23760123365E+02  0.23760123365E+02  0.00000000000E+00 0. -1.
         24    1    1    2    0    0 -0.40594582425E+02  0.16448233009E+02  0.22793921144E+03  0.24564601474E+03  0.80419002446E+02 0.  1.
          1    1    1    2  501    0  0.55529250090E+02 -0.21684667944E+01  0.62482141856E+02  0.83619482865E+02  0.00000000000E+00 0. -1.
         -2    1    1    2    0  503 -0.14934667665E+02 -0.14279766214E+02  0.20267238168E+02  0.28943340587E+02  0.00000000000E+00 0.  1.
<mgrwt>
<rscale>  2 0.83903925E+02</rscale>
<asrwt>0</asrwt>
<pdfrwt beam="1">  1       21 0.51453645E-01 0.83903925E+02</pdfrwt>
<pdfrwt beam="2">  1       21 0.36554039E-02 0.83903925E+02</pdfrwt>
<totfact> 0.16144132E+06</totfact>
</mgrwt>
</event>
<event>
 5    1  0.1708429E+000  0.8875848E+02  0.7546771E-02  0.1305886E+00
         21   -1    0    0  501  502  0.00000000000E+00  0.00000000000E+00  0.22819154767E+03  0.22819154767E+03  0.00000000000E+00 0. -1.
         21   -1    0    0  502  503 -0.00000000000E+00 -0.00000000000E+00 -0.11967768657E+03  0.11967768657E+03  0.00000000000E+00 0.  1.
         24    1    1    2    0    0 -0.40473272245E+02  0.16405257663E+02  0.50889471262E+01  0.91653322812E+02  0.80419002446E+02 0.  1.
          1    1    1    2  501    0 -0.20915263527E+02  0.40390416217E+01  0.16531320372E+03  0.16667998509E+03  0.00000000000E+00 0. -1.
         -2    1    1    2    0  503  0.61388535772E+02 -0.20444299285E+02 -0.61888289742E+02  0.89535926335E+02  0.00000000000E+00 0.  1.
<mgrwt>
<rscale>  2 0.88758482E+02</rscale>
<asrwt>0</asrwt>
<pdfrwt beam="1">  1       21 0.35106392E-01 0.88758482E+02</pdfrwt>
<pdfrwt beam="2">  1       21 0.18411952E-01 0.88758482E+02</pdfrwt>
<totfact> 0.21645610E+05</totfact>
</mgrwt>
</event>
<event>
 5    1  0.1708429E+000  0.1083336E+03  0.7546771E-02  0.1263687E+00
         21   -1    0    0  501  502  0.00000000000E+00  0.00000000000E+00  0.51795174676E+03  0.51795174676E+03  0.00000000000E+00 0.  1.
         21   -1    0    0  502  503 -0.00000000000E+00 -0.00000000000E+00 -0.35474998892E+02  0.35474998892E+02  0.00000000000E+00 0.  1.
         24    1    1    2    0    0 -0.23702018846E+01 -0.59673986141E+02  0.18020229957E+03  0.20617149950E+03  0.80419002446E+02 0.  0.
          1    1    1    2  501    0  0.46826814708E+02  0.54324535545E+02  0.29283991338E+03  0.30149481025E+03  0.00000000000E+00 0. -1.
         -2    1    1    2    0  503 -0.44456612823E+02  0.53494505956E+01  0.94345349158E+01  0.45760435908E+02  0.00000000000E+00 0.  1.
<mgrwt>
<rscale>  2 0.10833364E+03</rscale>
<asrwt>0</asrwt>
<pdfrwt beam="1">  1       21 0.79684879E-01 0.10833364E+03</pdfrwt>
<pdfrwt beam="2">  1       21 0.54576925E-02 0.10833364E+03</pdfrwt>
<totfact> 0.32769303E+05</totfact>
</mgrwt>
</event>
<event>
 5    1  0.1708429E+000  0.1285913E+03  0.7546771E-02  0.1229561E+00
         21   -1    0    0  501  502  0.00000000000E+00  0.00000000000E+00  0.56275589331E+03  0.56275589331E+03  0.00000000000E+00 0. -1.
         21   -1    0    0  502  503 -0.00000000000E+00 -0.00000000000E+00 -0.49518471896E+02  0.49518471896E+02  0.00000000000E+00 0.  1.
         24    1    1    2    0    0 -0.82612734090E+02 -0.17015458588E+02  0.32665995112E+03  0.34682607930E+03  0.80419002446E+02 0. -1.
          1    1    1    2  501    0 -0.27884883173E+02  0.11016340303E+02  0.14366272670E+03  0.14675798277E+03  0.00000000000E+00 0. -1.
         -2    1    1    2    0  503  0.11049761726E+03  0.59991182844E+01  0.42914743599E+02  0.11869030314E+03  0.00000000000E+00 0.  1.
<mgrwt>
<rscale>  2 0.12859130E+03</rscale>
<asrwt>0</asrwt>
<pdfrwt beam="1">  1       21 0.86577825E-01 0.12859130E+03</pdfrwt>
<pdfrwt beam="2">  1       21 0.76182268E-02 0.12859130E+03</pdfrwt>
<totfact> 0.15345358E+05</totfact>
</mgrwt>
</event>
<event>
 5    1  0.1708429E+000  0.8537836E+02  0.7546771E-02  0.1314446E+00
         21   -1    0    0  501  502  0.00000000000E+00  0.00000000000E+00  0.37404664374E+02  0.37404664374E+02  0.00000000000E+00 0. -1.
         21   -1    0    0  502  503 -0.00000000000E+00 -0.00000000000E+00 -0.61961507132E+03  0.61961507132E+03  0.00000000000E+00 0. -1.
         24    1    1    2    0    0  0.18674698333E+02  0.39201095567E+02 -0.40023291711E+03  0.41053510708E+03  0.80419002446E+02 0. -1.
          1    1    1    2  501    0  0.10506081618E+02 -0.47801093049E+02  0.11791201902E+02  0.50342374695E+02  0.00000000000E+00 0. -1.
         -2    1    1    2    0  503 -0.29180779952E+02  0.85999974815E+01 -0.19376869173E+03  0.19614225392E+03  0.00000000000E+00 0.  1.
<mgrwt>
<rscale>  2 0.85378364E+02</rscale>
<asrwt>0</asrwt>
<pdfrwt beam="1">  1       21 0.57545641E-02 0.85378364E+02</pdfrwt>
<pdfrwt beam="2">  1       21 0.95325389E-01 0.85378364E+02</pdfrwt>
<totfact> 0.20159569E+05</totfact>
</mgrwt>
</event>
<event>
 5    1  0.1708429E+000  0.9451711E+02  0.7546771E-02  0.1292267E+00
         21   -1    0    0  503  502  0.00000000000E+00  0.00000000000E+00  0.47327799683E+02  0.47327799683E+02  0.00000000000E+00 0. -1.
         21   -1    0    0  501  503 -0.00000000000E+00 -0.00000000000E+00 -0.48630522910E+03  0.48630522910E+03  0.00000000000E+00 0. -1.
         24    1    1    2    0    0 -0.40202794940E+02  0.40438673222E+02 -0.32127646243E+02  0.10368680061E+03  0.80419002446E+02 0. -1.
          1    1    1    2  501    0  0.78289557495E+01 -0.54568584805E+02 -0.38386527845E+03  0.38780352628E+03  0.00000000000E+00 0. -1.
         -2    1    1    2    0  502  0.32373839190E+02  0.14129911583E+02 -0.22984504717E+02  0.42142701887E+02  0.00000000000E+00 0.  1.
<mgrwt>
<rscale>  2 0.94517110E+02</rscale>
<asrwt>0</asrwt>
<pdfrwt beam="1">  1       21 0.72812000E-02 0.94517110E+02</pdfrwt>
<pdfrwt beam="2">  1       21 0.74816188E-01 0.94517110E+02</pdfrwt>
<totfact> 0.23209605E+05</totfact>
</mgrwt>
</event>
<event>
 5    1  0.1708429E+000  0.7451808E+02  0.7546771E-02  0.1345370E+00
         21   -1    0    0  503  502  0.00000000000E+00  0.00000000000E+00  0.63809017323E+03  0.63809017323E+03  0.00000000000E+00 0. -1.
         21   -1    0    0  501  503 -0.00000000000E+00 -0.00000000000E+00 -0.15399333152E+02  0.15399333152E+02  0.00000000000E+00 0.  1.
         24    1    1    2    0    0  0.19321286351E+02  0.45036794970E+02  0.31222308826E+03  0.32611669354E+03  0.80419002446E+02 0. -1.
          1    1    1    2  501    0  0.92805766205E+00 -0.29042947648E+02  0.18895835503E+02  0.34661314148E+02  0.00000000000E+00 0. -1.
         -2    1    1    2    0  502 -0.20249344013E+02 -0.15993847322E+02  0.29157191631E+03  0.29271149869E+03  0.00000000000E+00 0.  1.
<mgrwt>
<rscale>  2 0.74518077E+02</rscale>
<asrwt>0</asrwt>
<pdfrwt beam="1">  1       21 0.98167699E-01 0.74518077E+02</pdfrwt>
<pdfrwt beam="2">  1       21 0.23691287E-02 0.74518077E+02</pdfrwt>
<totfact> 0.80642276E+05</totfact>
</mgrwt>
</event>
<event>
 5    1  0.1708429E+000  0.6666456E+02  0.7546771E-02  0.1371817E+00
         21   -1    0    0  503  502  0.00000000000E+00  0.00000000000E+00  0.45994467320E+02  0.45994467320E+02  0.00000000000E+00 0. -1.
         21   -1    0    0  501  503 -0.00000000000E+00 -0.00000000000E+00 -0.12171487806E+03  0.12171487806E+03  0.00000000000E+00 0.  1.
         24    1    1    2    0    0  0.16718903736E+02  0.11411060371E+02 -0.33561657809E+02  0.89461359649E+02  0.80419002446E+02 0. -1.
          1    1    1    2  501    0  0.13039747353E+02 -0.15619393677E+02 -0.43646780703E+02  0.48156431924E+02  0.00000000000E+00 0. -1.
         -2    1    1    2    0  502 -0.29758651090E+02  0.42083333062E+01  0.14880277736E+01  0.30091553807E+02  0.00000000000E+00 0.  1.
<mgrwt>
<rscale>  2 0.66664560E+02</rscale>
<asrwt>0</asrwt>
<pdfrwt beam="1">  1       21 0.70760721E-02 0.66664560E+02</pdfrwt>
<pdfrwt beam="2">  1       21 0.18725365E-01 0.66664560E+02</pdfrwt>
<totfact> 0.36883042E+06</totfact>
</mgrwt>
</event>
<event>
 5    1  0.1708429E+000  0.1696142E+03  0.7546771E-02  0.1178251E+00
         21   -1    0    0  501  502  0.00000000000E+00  0.00000000000E+00  0.10953156356E+03  0.10953156356E+03  0.00000000000E+00 0.  1.
         21   -1    0    0  502  503 -0.00000000000E+00 -0.00000000000E+00 -0.34856032688E+03  0.34856032688E+03  0.00000000000E+00 0.  1.
         24    1    1    2    0    0 -0.14697339954E+03  0.62999514483E+02 -0.24867479735E+02  0.18070895523E+03  0.80419002446E+02 0.  1.
          1    1    1    2  501    0  0.45382302594E+02 -0.14329135052E+02 -0.17427970919E+02  0.50681472655E+02  0.00000000000E+00 0. -1.
         -2    1    1    2    0  503  0.10159109695E+03 -0.48670379430E+02 -0.19673331266E+03  0.22670146255E+03  0.00000000000E+00 0.  1.
<mgrwt>
<rscale>  2 0.16961421E+03</rscale>
<asrwt>0</asrwt>
<pdfrwt beam="1">  1       21 0.16851010E-01 0.16961421E+03</pdfrwt>
<pdfrwt beam="2">  1       21 0.53624666E-01 0.16961421E+03</pdfrwt>
<totfact> 0.10525153E+05</totfact>
</mgrwt>
</event>
<event>
 5    1  0.1708429E+000  0.6881260E+02  0.7546771E-02  0.1364178E+00
         21   -1    0    0  503  502  0.00000000000E+00  0.00000000000E+00  0.70999408878E+03  0.70999408878E+03  0.00000000000E+00 0. -1.
         21   -1    0    0  501  503 -0.00000000000E+00 -0.00000000000E+00 -0.67024280855E+01  0.67024280855E+01  0.00000000000E+00 0. -1.
         24    1    1    2    0    0 -0.37383119302E+02  0.46730378540E+01  0.44023482980E+03  0.44910272346E+03  0.80419002446E+02 0. -1.
          1    1    1    2  501    0  0.18387622309E+02 -0.17908231963E+02  0.12482648443E+03  0.12743806590E+03  0.00000000000E+00 0. -1.
         -2    1    1    2    0  502  0.18995496993E+02  0.13235194109E+02  0.13823034647E+03  0.14015572751E+03  0.00000000000E+00 0.  1.
<mgrwt>
<rscale>  2 0.68812598E+02</rscale>
<asrwt>0</asrwt>
<pdfrwt beam="1">  1       21 0.10922980E+00 0.68812598E+02</pdfrwt>
<pdfrwt beam="2">  1       21 0.10311433E-02 0.68812598E+02</pdfrwt>
<totfact> 0.23342955E+06</totfact>
</mgrwt>
</event>
<event>
 5    1  0.1708429E+000  0.1398677E+03  0.7546771E-02  0.1213507E+00
         21   -1    0    0  501  502  0.00000000000E+00  0.00000000000E+00  0.11009406339E+02  0.11009406339E+02  0.00000000000E+00 0. -1.
         21   -1    0    0  502  503 -0.00000000000E+00 -0.00000000000E+00 -0.27385574550E+04  0.27385574550E+04  0.00000000000E+00 0. -1.
         24    1    1    2    0    0  0.13896165905E+02  0.24830477876E+02 -0.13449956058E+04  0.13476980566E+04  0.80419002446E+02 0. -1.
          1    1    1    2  501    0 -0.98464393769E+02 -0.43791069987E+02 -0.36349455881E+03  0.37913215234E+03  0.00000000000E+00 0. -1.
         -2    1    1    2    0  503  0.84568227863E+02  0.18960592111E+02 -0.10190578840E+04  0.10227366524E+04  0.00000000000E+00 0.  1.
<mgrwt>
<rscale>  2 0.13986771E+03</rscale>
<asrwt>0</asrwt>
<pdfrwt beam="1">  1       21 0.16937566E-02 0.13986771E+03</pdfrwt>
<pdfrwt beam="2">  1       21 0.42131610E+00 0.13986771E+03</pdfrwt>
<totfact> 0.11157986E+04</totfact>
</mgrwt>
</event>
<event>
 5    1  0.1708429E+000  0.7471861E+02  0.7546771E-02  0.1344745E+00
         21   -1    0    0  501  502  0.00000000000E+00  0.00000000000E+00  0.34479014020E+02  0.34479014020E+02  0.00000000000E+00 0. -1.
         21   -1    0    0  502  503 -0.00000000000E+00 -0.00000000000E+00 -0.34572215737E+03  0.34572215737E+03  0.00000000000E+00 0. -1.
         24    1    1    2    0    0 -0.10733866931E+02 -0.34123434009E+02 -0.27781776348E+03  0.29142674947E+03  0.80419002446E+02 0. -1.
          1    1    1    2  501    0 -0.20025209452E+02  0.10324428840E+02  0.14698095543E+02  0.26900499197E+02  0.00000000000E+00 0. -1.
         -2    1    1    2    0  503  0.30759076383E+02  0.23799005169E+02 -0.48123475408E+02  0.61873922716E+02  0.00000000000E+00 0.  1.
<mgrwt>
<rscale>  2 0.74718614E+02</rscale>
<asrwt>0</asrwt>
<pdfrwt beam="1">  1       21 0.53044637E-02 0.74718614E+02</pdfrwt>
<pdfrwt beam="2">  1       21 0.53188024E-01 0.74718614E+02</pdfrwt>
<totfact> 0.81439580E+05</totfact>
</mgrwt>
</event>
<event>
 5    1  0.1708429E+000  0.1121480E+03  0.7546771E-02  0.1256643E+00
         21   -1    0    0  501  502  0.00000000000E+00  0.00000000000E+00  0.19984983293E+03  0.19984983293E+03  0.00000000000E+00 0.  1.
         21   -1    0    0  502  503 -0.00000000000E+00 -0.00000000000E+00 -0.11491670431E+03  0.11491670431E+03  0.00000000000E+00 0.  1.
         24    1    1    2    0    0 -0.94267027445E+02 -0.11586792627E+02  0.43620175007E+01  0.12452617949E+03  0.80419002446E+02 0.  1.
          1    1    1    2  501    0  0.24018660318E+02  0.16944062393E+02  0.11002148169E+03  0.11388030439E+03  0.00000000000E+00 0. -1.
         -2    1    1    2    0  503  0.70248367128E+02 -0.53572697659E+01 -0.29450370564E+02  0.76360053364E+02  0.00000000000E+00 0.  1.
<mgrwt>
<rscale>  2 0.11214797E+03</rscale>
<asrwt>0</asrwt>
<pdfrwt beam="1">  1       21 0.30746128E-01 0.11214797E+03</pdfrwt>
<pdfrwt beam="2">  1       21 0.17679493E-01 0.11214797E+03</pdfrwt>
<totfact> 0.29966127E+05</totfact>
</mgrwt>
</event>
<event>
 5    1  0.1708429E+000  0.9022731E+02  0.7546771E-02  0.1302302E+00
         21   -1    0    0  501  502  0.00000000000E+00  0.00000000000E+00  0.24967144267E+03  0.24967144267E+03  0.00000000000E+00 0.  1.
         21   -1    0    0  502  503 -0.00000000000E+00 -0.00000000000E+00 -0.33760646492E+02  0.33760646492E+02  0.00000000000E+00 0. -1.
         24    1    1    2    0    0 -0.27017788357E+01  0.22699650782E+01  0.77299020063E+02  0.11160110576E+03  0.80419002446E+02 0. -1.
          1    1    1    2  501    0  0.18502388102E+02  0.45779702687E+02  0.53340236564E+02  0.72686314945E+02  0.00000000000E+00 0. -1.
         -2    1    1    2    0  503 -0.15800609267E+02 -0.48049667765E+02  0.85271539553E+02  0.99144668456E+02  0.00000000000E+00 0.  1.
<mgrwt>
<rscale>  2 0.90227314E+02</rscale>
<asrwt>0</asrwt>
<pdfrwt beam="1">  1       21 0.38410990E-01 0.90227314E+02</pdfrwt>
<pdfrwt beam="2">  1       21 0.51939458E-02 0.90227314E+02</pdfrwt>
<totfact> 0.16284484E+06</totfact>
</mgrwt>
</event>
<event>
 5    1  0.1708429E+000  0.1217142E+03  0.7546771E-02  0.1240296E+00
         21   -1    0    0  503  502  0.00000000000E+00  0.00000000000E+00  0.12499292496E+03  0.12499292496E+03  0.00000000000E+00 0.  1.
         21   -1    0    0  501  503 -0.00000000000E+00 -0.00000000000E+00 -0.37539277615E+03  0.37539277615E+03  0.00000000000E+00 0. -1.
         24    1    1    2    0    0 -0.31588865083E+02 -0.83560092079E+02 -0.19084330770E+03  0.22554052725E+03  0.80419002446E+02 0.  1.
          1    1    1    2  501    0 -0.23011263075E+02 -0.47491011085E+00 -0.14275299433E+03  0.14459654615E+03  0.00000000000E+00 0. -1.
         -2    1    1    2    0  502  0.54600128158E+02  0.84035002189E+02  0.83196450841E+02  0.13024862771E+03  0.00000000000E+00 0.  1.
<mgrwt>
<rscale>  2 0.12171419E+03</rscale>
<asrwt>0</asrwt>
<pdfrwt beam="1">  1       21 0.19229681E-01 0.12171419E+03</pdfrwt>
<pdfrwt beam="2">  1       21 0.57752735E-01 0.12171419E+03</pdfrwt>
<totfact> 0.72100585E+04</totfact>
</mgrwt>
</event>
<event>
 5    1  0.1708429E+000  0.7546905E+02  0.7546771E-02  0.1342425E+00
         21   -1    0    0  503  502  0.00000000000E+00  0.00000000000E+00  0.47707282179E+02  0.47707282179E+02  0.00000000000E+00 0. -1.
         21   -1    0    0  501  503 -0.00000000000E+00 -0.00000000000E+00 -0.12726387117E+03  0.12726387117E+03  0.00000000000E+00 0.  1.
         24    1    1    2    0    0  0.25638003098E+02  0.15664551687E+01 -0.58163327826E+02  0.10251804545E+03  0.80419002446E+02 0.  1.
          1    1    1    2  501    0  0.12804266734E+02  0.19005296080E+02 -0.17196988052E+02  0.28651124301E+02  0.00000000000E+00 0. -1.
         -2    1    1    2    0  502 -0.38442269832E+02 -0.20571751248E+02 -0.41962731160E+01  0.43801983600E+02  0.00000000000E+00 0.  1.
<mgrwt>
<rscale>  2 0.75469052E+02</rscale>
<asrwt>0</asrwt>
<pdfrwt beam="1">  1       21 0.73395820E-02 0.75469052E+02</pdfrwt>
<pdfrwt beam="2">  1       21 0.19579057E-01 0.75469052E+02</pdfrwt>
<totfact> 0.32253456E+06</totfact>
</mgrwt>
</event>
<event>
 5    1  0.1708429E+000  0.6277397E+02  0.7546771E-02  0.1386546E+00
         21   -1    0    0  501  502  0.00000000000E+00  0.00000000000E+00  0.15938430614E+03  0.15938430614E+03  0.00000000000E+00 0.  1.
         21   -1    0    0  502  503 -0.00000000000E+00 -0.00000000000E+00 -0.49786269221E+02  0.49786269221E+02  0.00000000000E+00 0. -1.
         24    1    1    2    0    0  0.25670715277E+02  0.70889497543E+00  0.30687092678E+02  0.89824282721E+02  0.80419002446E+02 0. -1.
          1    1    1    2  501    0 -0.12007803514E+02 -0.16397561264E+02  0.92362533133E+02  0.94572220484E+02  0.00000000000E+00 0. -1.
         -2    1    1    2    0  503 -0.13662911762E+02  0.15688666288E+02 -0.13451588888E+02  0.24774072159E+02  0.00000000000E+00 0.  1.
<mgrwt>
<rscale>  2 0.62773970E+02</rscale>
<asrwt>0</asrwt>
<pdfrwt beam="1">  1       21 0.24520662E-01 0.62773970E+02</pdfrwt>
<pdfrwt beam="2">  1       21 0.76594261E-02 0.62773970E+02</pdfrwt>
<totfact> 0.19664994E+06</totfact>
</mgrwt>
</event>
<event>
 5    1  0.1708429E+000  0.9067768E+02  0.7546771E-02  0.1301219E+00
         21   -1    0    0  503  502  0.00000000000E+00  0.00000000000E+00  0.10961250684E+04  0.10961250684E+04  0.00000000000E+00 0.  1.
         21   -1    0    0  501  503 -0.00000000000E+00 -0.00000000000E+00 -0.35758463482E+02  0.35758463482E+02  0.00000000000E+00 0. -1.
         24    1    1    2    0    0 -0.51047143277E+02 -0.20615976230E+02  0.16523772274E+03  0.19183730160E+03  0.80419002446E+02 0.  1.
          1    1    1    2  501    0  0.85221179322E+01 -0.22061367320E+02 -0.14947513535E+02  0.27977823056E+02  0.00000000000E+00 0. -1.
         -2    1    1    2    0  502  0.42525025345E+02  0.42677343550E+02  0.91007639570E+03  0.91206840721E+03  0.00000000000E+00 0.  1.
<mgrwt>
<rscale>  2 0.90677676E+02</rscale>
<asrwt>0</asrwt>
<pdfrwt beam="1">  1       21 0.16863460E+00 0.90677676E+02</pdfrwt>
<pdfrwt beam="2">  1       21 0.55013029E-02 0.90677676E+02</pdfrwt>
<totfact> 0.53648243E+04</totfact>
</mgrwt>
</event>
<event>
 5    1  0.1708429E+000  0.8312580E+02  0.7546771E-02  0.1320408E+00
         21   -1    0    0  503  502  0.00000000000E+00  0.00000000000E+00  0.98924026084E+03  0.98924026084E+03  0.00000000000E+00 0.  1.
         21   -1    0    0  501  503 -0.00000000000E+00 -0.00000000000E+00 -0.21118459300E+02  0.21118459300E+02  0.00000000000E+00 0.  1.
         24    1    1    2    0    0 -0.52978081049E+02  0.31398686279E+02  0.11347577858E+03  0.15210694544E+03  0.80419002446E+02 0.  1.
          1    1    1    2  501    0  0.30134453234E+02 -0.29284465327E+02  0.27878182032E+03  0.28193078675E+03  0.00000000000E+00 0. -1.
         -2    1    1    2    0  502  0.22843627815E+02 -0.21142209524E+01  0.57586420265E+03  0.57632098795E+03  0.00000000000E+00 0.  1.
<mgrwt>
<rscale>  2 0.83125801E+02</rscale>
<asrwt>0</asrwt>
<pdfrwt beam="1">  1       21 0.15219077E+00 0.83125801E+02</pdfrwt>
<pdfrwt beam="2">  1       21 0.32489945E-02 0.83125801E+02</pdfrwt>
<totfact> 0.16800982E+05</totfact>
</mgrwt>
</event>
<event>
 5    1  0.1708429E+000  0.6130303E+02  0.7546771E-02  0.1392443E+00
         21   -1    0    0  501  502  0.00000000000E+00  0.00000000000E+00  0.42396295743E+03  0.42396295743E+03  0.00000000000E+00 0.  1.
         21   -1    0    0  502  503 -0.00000000000E+00 -0.00000000000E+00 -0.14553790385E+02  0.14553790385E+02  0.00000000000E+00 0. -1.
         24    1    1    2    0    0  0.28543793720E+01 -0.25266001440E+00  0.14741772970E+03  0.16795063055E+03  0.80419002446E+02 0. -1.
          1    1    1    2  501    0  0.58769111056E+01 -0.19592550579E+02  0.23525993357E+03  0.23614750150E+03  0.00000000000E+00 0. -1.
         -2    1    1    2    0  503 -0.87312904776E+01  0.19845210593E+02  0.26731503780E+02  0.34418615765E+02  0.00000000000E+00 0.  1.
<mgrwt>
<rscale>  2 0.61303032E+02</rscale>
<asrwt>0</asrwt>
<pdfrwt beam="1">  1       21 0.65225061E-01 0.61303032E+02</pdfrwt>
<pdfrwt beam="2">  1       21 0.22390450E-02 0.61303032E+02</pdfrwt>
<totfact> 0.21483795E+06</totfact>
</mgrwt>
</event>
<event>
 5    1  0.1708429E+000  0.6655202E+02  0.7546771E-02  0.1372227E+00
         21   -1    0    0  503  502  0.00000000000E+00  0.00000000000E+00  0.39529128250E+03  0.39529128250E+03  0.00000000000E+00 0. -1.
         21   -1    0    0  501  503 -0.00000000000E+00 -0.00000000000E+00 -0.20921684461E+02  0.20921684461E+02  0.00000000000E+00 0. -1.
         24    1    1    2    0    0 -0.74347384887E+01 -0.39467047582E+02  0.29120440663E+03  0.30476244122E+03  0.80419002446E+02 0. -1.
          1    1    1    2  501    0  0.11504501838E+02  0.17981421161E+02 -0.38834870346E+01  0.21697155137E+02  0.00000000000E+00 0. -1.
         -2    1    1    2    0  502 -0.40697633489E+01  0.21485626421E+02  0.87048678438E+02  0.89753370601E+02  0.00000000000E+00 0.  1.
<mgrwt>
<rscale>  2 0.66552024E+02</rscale>
<asrwt>0</asrwt>
<pdfrwt beam="1">  1       21 0.60814038E-01 0.66552024E+02</pdfrwt>
<pdfrwt beam="2">  1       21 0.32187210E-02 0.66552024E+02</pdfrwt>
<totfact> 0.13951450E+06</totfact>
</mgrwt>
</event>
<event>
 5    1  0.1708429E+000  0.6634981E+02  0.7546771E-02  0.1372965E+00
         21   -1    0    0  503  502  0.00000000000E+00  0.00000000000E+00  0.25566837344E+02  0.25566837344E+02  0.00000000000E+00 0. -1.
         21   -1    0    0  501  503 -0.00000000000E+00 -0.00000000000E+00 -0.29126365650E+03  0.29126365650E+03  0.00000000000E+00 0.  1.
         24    1    1    2    0    0 -0.13078922763E+02 -0.30282119450E+02 -0.15170667146E+03  0.17484334445E+03  0.80419002446E+02 0.  1.
          1    1    1    2  501    0  0.21293048295E+02  0.92803567929E+01 -0.11695761444E+03  0.11924178170E+03  0.00000000000E+00 0. -1.
         -2    1    1    2    0  502 -0.82141255327E+01  0.21001762657E+02  0.29674667358E+01  0.22745367700E+02  0.00000000000E+00 0.  1.
<mgrwt>
<rscale>  2 0.66349814E+02</rscale>
<asrwt>0</asrwt>
<pdfrwt beam="1">  1       21 0.39333595E-02 0.66349814E+02</pdfrwt>
<pdfrwt beam="2">  1       21 0.44809794E-01 0.66349814E+02</pdfrwt>
<totfact> 0.18760363E+06</totfact>
</mgrwt>
</event>
<event>
 5    1  0.1708429E+000  0.1042830E+03  0.7546771E-02  0.1271539E+00
         21   -1    0    0  501  502  0.00000000000E+00  0.00000000000E+00  0.46650468510E+02  0.46650468510E+02  0.00000000000E+00 0. -1.
         21   -1    0    0  502  503 -0.00000000000E+00 -0.00000000000E+00 -0.54096736873E+03  0.54096736873E+03  0.00000000000E+00 0. -1.
         24    1    1    2    0    0 -0.65322376090E+02  0.41206951001E+02 -0.25975143191E+03  0.28267127191E+03  0.80419002446E+02 0. -1.
          1    1    1    2  501    0  0.69063659914E+02 -0.15103407963E+02 -0.18275363445E+01  0.70719459428E+02  0.00000000000E+00 0. -1.
         -2    1    1    2    0  503 -0.37412838240E+01 -0.26103543039E+02 -0.23273793196E+03  0.23422710590E+03  0.00000000000E+00 0.  1.
<mgrwt>
<rscale>  2 0.10428305E+03</rscale>
<asrwt>0</asrwt>
<pdfrwt beam="1">  1       21 0.71769948E-02 0.10428305E+03</pdfrwt>
<pdfrwt beam="2">  1       21 0.83225753E-01 0.10428305E+03</pdfrwt>
<totfact> 0.18736345E+05</totfact>
</mgrwt>
</event>
<event>
 5    1  0.1708429E+000  0.1227930E+03  0.7546771E-02  0.1238559E+00
         21   -1    0    0  503  502  0.00000000000E+00  0.00000000000E+00  0.18345019319E+04  0.18345019319E+04  0.00000000000E+00 0.  1.
         21   -1    0    0  501  503 -0.00000000000E+00 -0.00000000000E+00 -0.20533957072E+02  0.20533957072E+02  0.00000000000E+00 0. -1.
         24    1    1    2    0    0  0.28179205386E+02  0.25022636084E+02  0.61786815830E+03  0.62421829269E+03  0.80419002446E+02 0.  0.
          1    1    1    2  501    0 -0.79022502823E+02  0.27503438894E+02  0.92225115655E+02  0.12452496561E+03  0.00000000000E+00 0. -1.
         -2    1    1    2    0  502  0.50843297437E+02 -0.52526074978E+02  0.11038747009E+04  0.11062926307E+04  0.00000000000E+00 0.  1.
<mgrwt>
<rscale>  2 0.12279297E+03</rscale>
<asrwt>0</asrwt>
<pdfrwt beam="1">  1       21 0.28223094E+00 0.12279297E+03</pdfrwt>
<pdfrwt beam="2">  1       21 0.31590718E-02 0.12279297E+03</pdfrwt>
<totfact> 0.27065547E+04</totfact>
</mgrwt>
</event>
<event>
 5    1  0.1708429E+000  0.8478176E+02  0.7546771E-02  0.1316004E+00
         21   -1    0    0  503  502  0.00000000000E+00  0.00000000000E+00  0.32463734779E+03  0.32463734779E+03  0.00000000000E+00 0.  1.
         21   -1    0    0  501  503 -0.00000000000E+00 -0.00000000000E+00 -0.24582933449E+03  0.24582933449E+03  0.00000000000E+00 0.  1.
         24    1    1    2    0    0  0.34496941896E+02  0.29219210320E+02 -0.69272508411E+02  0.11536766283E+03  0.80419002446E+02 0.  1.
          1    1    1    2  501    0 -0.27844416174E+02 -0.49044061249E+02 -0.14794807423E+03  0.15833276390E+03  0.00000000000E+00 0. -1.
         -2    1    1    2    0  502 -0.66525257216E+01  0.19824850929E+02  0.29602859594E+03  0.29676625554E+03  0.00000000000E+00 0.  1.
<mgrwt>
<rscale>  2 0.84781761E+02</rscale>
<asrwt>0</asrwt>
<pdfrwt beam="1">  1       21 0.49944207E-01 0.84781761E+02</pdfrwt>
<pdfrwt beam="2">  1       21 0.37819898E-01 0.84781761E+02</pdfrwt>
<totfact> 0.27750010E+04</totfact>
</mgrwt>
</event>
<event>
 5    1  0.1708429E+000  0.1409181E+03  0.7546771E-02  0.1212099E+00
         21   -1    0    0  501  502  0.00000000000E+00  0.00000000000E+00  0.10866979049E+03  0.10866979049E+03  0.00000000000E+00 0. -1.
         21   -1    0    0  502  503 -0.00000000000E+00 -0.00000000000E+00 -0.28960678298E+03  0.28960678298E+03  0.00000000000E+00 0.  1.
         24    1    1    2    0    0  0.10308257427E+03 -0.34236915287E+02 -0.10106629140E+03  0.16875957661E+03  0.80419002446E+02 0. -1.
          1    1    1    2  501    0 -0.72877525376E+02  0.69189950056E+02  0.34436936742E+02  0.10622751765E+03  0.00000000000E+00 0. -1.
         -2    1    1    2    0  503 -0.30205048895E+02 -0.34953034769E+02 -0.11430763782E+03  0.12328947921E+03  0.00000000000E+00 0.  1.
<mgrwt>
<rscale>  2 0.14091807E+03</rscale>
<asrwt>0</asrwt>
<pdfrwt beam="1">  1       21 0.16718430E-01 0.14091807E+03</pdfrwt>
<pdfrwt beam="2">  1       21 0.44554889E-01 0.14091807E+03</pdfrwt>
<totfact> 0.15813806E+05</totfact>
</mgrwt>
</event>
<event>
 5    1  0.1708429E+000  0.7730958E+02  0.7546771E-02  0.1336865E+00
         21   -1    0    0  501  502  0.00000000000E+00  0.00000000000E+00  0.29823164945E+03  0.29823164945E+03  0.00000000000E+00 0. -1.
         21   -1    0    0  502  503 -0.00000000000E+00 -0.00000000000E+00 -0.43476268403E+02  0.43476268403E+02  0.00000000000E+00 0.  1.
         24    1    1    2    0    0  0.26666473122E+02  0.83588055645E+01  0.70150422690E+02  0.11031440603E+03  0.80419002446E+02 0.  0.
          1    1    1    2  501    0  0.18290514609E+02  0.10088501997E+02  0.18150193405E+03  0.18269995309E+03  0.00000000000E+00 0. -1.
         -2    1    1    2    0  503 -0.44956987731E+02 -0.18447307562E+02  0.31030243095E+01  0.48693558732E+02  0.00000000000E+00 0.  1.
<mgrwt>
<rscale>  2 0.77309581E+02</rscale>
<asrwt>0</asrwt>
<pdfrwt beam="1">  1       21 0.45881791E-01 0.77309581E+02</pdfrwt>
<pdfrwt beam="2">  1       21 0.66886568E-02 0.77309581E+02</pdfrwt>
<totfact> 0.74618962E+05</totfact>
</mgrwt>
</event>
<event>
 5    1  0.1708429E+000  0.7843365E+02  0.7546771E-02  0.1333556E+00
         21   -1    0    0  503  502  0.00000000000E+00  0.00000000000E+00  0.27387534719E+02  0.27387534719E+02  0.00000000000E+00 0. -1.
         21   -1    0    0  501  503 -0.00000000000E+00 -0.00000000000E+00 -0.31834709839E+03  0.31834709839E+03  0.00000000000E+00 0.  1.
         24    1    1    2    0    0 -0.11959060373E+02  0.36457912296E+02 -0.69863693348E+02  0.11322698484E+03  0.80419002446E+02 0.  0.
          1    1    1    2  501    0  0.34516266990E+02 -0.20696085276E+02 -0.16741402816E+03  0.17218349937E+03  0.00000000000E+00 0. -1.
         -2    1    1    2    0  502 -0.22557206617E+02 -0.15761827020E+02 -0.53681842165E+02  0.60324148892E+02  0.00000000000E+00 0.  1.
<mgrwt>
<rscale>  2 0.78433652E+02</rscale>
<asrwt>0</asrwt>
<pdfrwt beam="1">  1       21 0.42134670E-02 0.78433652E+02</pdfrwt>
<pdfrwt beam="2">  1       21 0.48976475E-01 0.78433652E+02</pdfrwt>
<totfact> 0.14111086E+06</totfact>
</mgrwt>
</event>
<event>
 5    1  0.1708429E+000  0.1158500E+03  0.7546771E-02  0.1250105E+00
         21   -1    0    0  503  502  0.00000000000E+00  0.00000000000E+00  0.14224694822E+03  0.14224694822E+03  0.00000000000E+00 0.  1.
         21   -1    0    0  501  503 -0.00000000000E+00 -0.00000000000E+00 -0.22581159483E+03  0.22581159483E+03  0.00000000000E+00 0. -1.
         24    1    1    2    0    0 -0.53316203501E+02  0.75096047781E+01 -0.14012890722E+03  0.17030072904E+03  0.80419002446E+02 0. -1.
          1    1    1    2  501    0 -0.27490624957E+02 -0.39405206117E+02 -0.43801602192E+02  0.65016037131E+02  0.00000000000E+00 0. -1.
         -2    1    1    2    0  502  0.80806828459E+02  0.31895601339E+02  0.10036586281E+03  0.13274177687E+03  0.00000000000E+00 0.  1.
<mgrwt>
<rscale>  2 0.11585003E+03</rscale>
<asrwt>0</asrwt>
<pdfrwt beam="1">  1       21 0.21884146E-01 0.11585003E+03</pdfrwt>
<pdfrwt beam="2">  1       21 0.34740245E-01 0.11585003E+03</pdfrwt>
<totfact> 0.15948565E+05</totfact>
</mgrwt>
</event>
<event>
 5    1  0.1708429E+000  0.9511138E+02  0.7546771E-02  0.1290925E+00
         21   -1    0    0  503  502  0.00000000000E+00  0.00000000000E+00  0.16140754317E+03  0.16140754317E+03  0.00000000000E+00 0.  1.
         21   -1    0    0  501  503 -0.00000000000E+00 -0.00000000000E+00 -0.12798355579E+03  0.12798355579E+03  0.00000000000E+00 0.  1.
         24    1    1    2    0    0 -0.10547590964E+02  0.38332290793E+02 -0.57910965821E+00  0.89711579603E+02  0.80419002446E+02 0.  1.
          1    1    1    2  501    0 -0.31860348622E+02  0.12578437519E+02 -0.69098297465E+02  0.77122458579E+02  0.00000000000E+00 0. -1.
         -2    1    1    2    0  502  0.42407939585E+02 -0.50910728312E+02  0.10310139450E+03  0.12255706077E+03  0.00000000000E+00 0.  1.
<mgrwt>
<rscale>  2 0.95111385E+02</rscale>
<asrwt>0</asrwt>
<pdfrwt beam="1">  1       21 0.24831930E-01 0.95111385E+02</pdfrwt>
<pdfrwt beam="2">  1       21 0.19689778E-01 0.95111385E+02</pdfrwt>
<totfact> 0.37029559E+05</totfact>
</mgrwt>
</event>
<event>
 5    1  0.2199032E+000  0.7366890E+02  0.7546771E-02  0.1348043E+00
         21   -1    0    0  501  502  0.00000000000E+00  0.00000000000E+00  0.34675641429E+03  0.34675641429E+03  0.00000000000E+00 0.  1.
         21   -1    0    0  502  503 -0.00000000000E+00 -0.00000000000E+00 -0.95659540945E+02  0.95659540945E+02  0.00000000000E+00 0.  1.
         24    1    1    2    0    0  0.17707195696E+02 -0.34217162475E+02  0.26897262034E+03  0.28336874463E+03  0.80419002446E+02 0.  1.
          1    1    1    2  501    0  0.14161688914E+02  0.16349999085E+02  0.64984356592E+02  0.68489725541E+02  0.00000000000E+00 0. -1.
         -2    1    1    2    0  503 -0.31868884611E+02  0.17867163390E+02 -0.82860103588E+02  0.90557485061E+02  0.00000000000E+00 0.  1.
<mgrwt>
<rscale>  2 0.73668899E+02</rscale>
<asrwt>0</asrwt>
<pdfrwt beam="1">  1       21 0.53347140E-01 0.73668899E+02</pdfrwt>
<pdfrwt beam="2">  1       21 0.14716853E-01 0.73668899E+02</pdfrwt>
<totfact> 0.14115882E+05</totfact>
</mgrwt>
</event>
<event>
 5    1  0.1708429E+000  0.6803801E+02  0.7546771E-02  0.1366895E+00
         21   -1    0    0  503  502  0.00000000000E+00  0.00000000000E+00  0.32894198396E+03  0.32894198396E+03  0.00000000000E+00 0. -1.
         21   -1    0    0  501  503 -0.00000000000E+00 -0.00000000000E+00 -0.27657349730E+02  0.27657349730E+02  0.00000000000E+00 0.  1.
         24    1    1    2    0    0 -0.13079032624E+02  0.32846789888E+02  0.13306094575E+03  0.15944404642E+03  0.80419002446E+02 0.  0.
          1    1    1    2  501    0  0.21207587379E+02 -0.90069766686E+01 -0.37523703919E+01  0.23344542718E+02  0.00000000000E+00 0. -1.
         -2    1    1    2    0  502 -0.81285547550E+01 -0.23839813219E+02  0.17197605887E+03  0.17381074455E+03  0.00000000000E+00 0.  1.
<mgrwt>
<rscale>  2 0.68038012E+02</rscale>
<asrwt>0</asrwt>
<pdfrwt beam="1">  1       21 0.50606456E-01 0.68038012E+02</pdfrwt>
<pdfrwt beam="2">  1       21 0.42549771E-02 0.68038012E+02</pdfrwt>
<totfact> 0.12933969E+06</totfact>
</mgrwt>
</event>
<event>
 5    1  0.1708429E+000  0.6831373E+02  0.7546771E-02  0.1365923E+00
         21   -1    0    0  503  502  0.00000000000E+00  0.00000000000E+00  0.23654008937E+03  0.23654008937E+03  0.00000000000E+00 0.  1.
         21   -1    0    0  501  503 -0.00000000000E+00 -0.00000000000E+00 -0.10968713695E+03  0.10968713695E+03  0.00000000000E+00 0. -1.
         24    1    1    2    0    0 -0.27667243248E+02  0.21126334991E+02  0.27033299588E+02  0.91705035958E+02  0.80419002446E+02 0.  0.
          1    1    1    2  501    0  0.28503028490E+02 -0.65651347313E+00 -0.74102311606E+02  0.79397772188E+02  0.00000000000E+00 0. -1.
         -2    1    1    2    0  502 -0.83578524224E+00 -0.20469821518E+02  0.17392196443E+03  0.17512441818E+03  0.00000000000E+00 0.  1.
<mgrwt>
<rscale>  2 0.68313725E+02</rscale>
<asrwt>0</asrwt>
<pdfrwt beam="1">  1       21 0.36390783E-01 0.68313725E+02</pdfrwt>
<pdfrwt beam="2">  1       21 0.16874944E-01 0.68313725E+02</pdfrwt>
<totfact> 0.23741843E+05</totfact>
</mgrwt>
</event>
<event>
 5    1  0.1708429E+000  0.8749021E+02  0.7546771E-02  0.1309046E+00
         21   -1    0    0  503  502  0.00000000000E+00  0.00000000000E+00  0.66505105746E+02  0.66505105746E+02  0.00000000000E+00 0. -1.
         21   -1    0    0  501  503 -0.00000000000E+00 -0.00000000000E+00 -0.23213720071E+03  0.23213720071E+03  0.00000000000E+00 0. -1.
         24    1    1    2    0    0 -0.52967628492E+02 -0.18541159346E+02 -0.19333943592E+03  0.21678721756E+03  0.80419002446E+02 0. -1.
          1    1    1    2  501    0  0.34927092187E+02  0.37155381256E+02  0.20393747543E+02  0.54921116738E+02  0.00000000000E+00 0. -1.
         -2    1    1    2    0  502  0.18040536306E+02 -0.18614221910E+02  0.73135934213E+01  0.26933972159E+02  0.00000000000E+00 0.  1.
<mgrwt>
<rscale>  2 0.87490209E+02</rscale>
<asrwt>0</asrwt>
<pdfrwt beam="1">  1       21 0.10231555E-01 0.87490209E+02</pdfrwt>
<pdfrwt beam="2">  1       21 0.35713416E-01 0.87490209E+02</pdfrwt>
<totfact> 0.59319728E+05</totfact>
</mgrwt>
</event>
<event>
 5    1  0.1708429E+000  0.1269539E+03  0.7546771E-02  0.1232047E+00
         21   -1    0    0  501  502  0.00000000000E+00  0.00000000000E+00  0.71668525430E+02  0.71668525430E+02  0.00000000000E+00 0.  1.
         21   -1    0    0  502  503 -0.00000000000E+00 -0.00000000000E+00 -0.24945576104E+03  0.24945576104E+03  0.00000000000E+00 0.  1.
         24    1    1    2    0    0 -0.52905967706E+02  0.99435635683E+02 -0.47987596889E+02  0.14648041668E+03  0.80419002446E+02 0.  1.
          1    1    1    2  501    0  0.10844170530E+02 -0.47280908924E+02 -0.41757255989E+02  0.64005849818E+02  0.00000000000E+00 0. -1.
         -2    1    1    2    0  503  0.42061797176E+02 -0.52154726759E+02 -0.88042382728E+02  0.11063801996E+03  0.00000000000E+00 0.  1.
<mgrwt>
<rscale>  2 0.12695389E+03</rscale>
<asrwt>0</asrwt>
<pdfrwt beam="1">  1       21 0.11025927E-01 0.12695389E+03</pdfrwt>
<pdfrwt beam="2">  1       21 0.38377810E-01 0.12695389E+03</pdfrwt>
<totfact> 0.45111445E+05</totfact>
</mgrwt>
</event>
<event>
 5    1  0.1708429E+000  0.9262535E+02  0.7546771E-02  0.1296616E+00
         21   -1    0    0  503  502  0.00000000000E+00  0.00000000000E+00  0.17059306231E+04  0.17059306231E+04  0.00000000000E+00 0.  1.
         21   -1    0    0  501  503 -0.00000000000E+00 -0.00000000000E+00 -0.69397741930E+01  0.69397741930E+01  0.00000000000E+00 0. -1.
         24    1    1    2    0    0 -0.44650608080E+02  0.47463381165E+02  0.13612579304E+04  0.13651874664E+04  0.80419002446E+02 0.  1.
          1    1    1    2  501    0  0.52394364522E+02 -0.25136241838E+02  0.21619876813E+03  0.22387252495E+03  0.00000000000E+00 0. -1.
         -2    1    1    2    0  502 -0.77437564422E+01 -0.22327139327E+02  0.12153415040E+03  0.12381040597E+03  0.00000000000E+00 0.  1.
<mgrwt>
<rscale>  2 0.92625352E+02</rscale>
<asrwt>0</asrwt>
<pdfrwt beam="1">  1       21 0.26245053E+00 0.92625352E+02</pdfrwt>
<pdfrwt beam="2">  1       21 0.10676589E-02 0.92625352E+02</pdfrwt>
<totfact> 0.20595273E+05</totfact>
</mgrwt>
</event>
<event>
 5    1  0.1708429E+000  0.9971727E+02  0.7546771E-02  0.1280892E+00
         21   -1    0    0  503  502  0.00000000000E+00  0.00000000000E+00  0.81470732816E+02  0.81470732816E+02  0.00000000000E+00 0.  1.
         21   -1    0    0  501  503 -0.00000000000E+00 -0.00000000000E+00 -0.16410855515E+03  0.16410855515E+03  0.00000000000E+00 0.  1.
         24    1    1    2    0    0  0.81925970812E+02 -0.15479827988E+02 -0.79942495313E+02  0.14074625494E+03  0.80419002446E+02 0.  1.
          1    1    1    2  501    0 -0.21436016473E+02  0.67822110292E+01 -0.30337098617E+02  0.37760306423E+02  0.00000000000E+00 0. -1.
         -2    1    1    2    0  502 -0.60489954339E+02  0.86976169588E+01  0.27641771598E+02  0.67072726602E+02  0.00000000000E+00 0.  1.
<mgrwt>
<rscale>  2 0.99717272E+02</rscale>
<asrwt>0</asrwt>
<pdfrwt beam="1">  1       21 0.12533959E-01 0.99717272E+02</pdfrwt>
<pdfrwt beam="2">  1       21 0.25247469E-01 0.99717272E+02</pdfrwt>
<totfact> 0.80798879E+05</totfact>
</mgrwt>
</event>
<event>
 5    1  0.1708429E+000  0.8236490E+02  0.7546771E-02  0.1322471E+00
         21   -1    0    0  503  502  0.00000000000E+00  0.00000000000E+00  0.15050434218E+02  0.15050434218E+02  0.00000000000E+00 0. -1.
         21   -1    0    0  501  503 -0.00000000000E+00 -0.00000000000E+00 -0.46466486083E+03  0.46466486083E+03  0.00000000000E+00 0.  1.
         24    1    1    2    0    0  0.27880109977E+02 -0.15247081811E+00 -0.24742973526E+03  0.26166011087E+03  0.80419002446E+02 0.  1.
          1    1    1    2  501    0 -0.51865070403E+02  0.11432093447E+02 -0.15615824020E+03  0.16494263933E+03  0.00000000000E+00 0. -1.
         -2    1    1    2    0  502  0.23984960425E+02 -0.11279622629E+02 -0.46026451162E+02  0.53112544844E+02  0.00000000000E+00 0.  1.
<mgrwt>
<rscale>  2 0.82364896E+02</rscale>
<asrwt>0</asrwt>
<pdfrwt beam="1">  1       21 0.23154514E-02 0.82364896E+02</pdfrwt>
<pdfrwt beam="2">  1       21 0.71486901E-01 0.82364896E+02</pdfrwt>
<totfact> 0.16946190E+06</totfact>
</mgrwt>
</event>
<event>
 5    1  0.1708429E+000  0.7135681E+02  0.7546771E-02  0.1355539E+00
         21   -1    0    0  503  502  0.00000000000E+00  0.00000000000E+00  0.33963598644E+02  0.33963598644E+02  0.00000000000E+00 0. -1.
         21   -1    0    0  501  503 -0.00000000000E+00 -0.00000000000E+00 -0.50000931186E+03  0.50000931186E+03  0.00000000000E+00 0.  1.
         24    1    1    2    0    0  0.28590603017E+02  0.36203214429E+02 -0.10224106398E+03  0.13801647160E+03  0.80419002446E+02 0.  0.
          1    1    1    2  501    0 -0.18705040305E+02 -0.84192255476E+01 -0.36582259683E+03  0.36639723559E+03  0.00000000000E+00 0. -1.
         -2    1    1    2    0  502 -0.98855627120E+01 -0.27783988882E+02  0.20179475919E+01  0.29559203318E+02  0.00000000000E+00 0.  1.
<mgrwt>
<rscale>  2 0.71356813E+02</rscale>
<asrwt>0</asrwt>
<pdfrwt beam="1">  1       21 0.52251687E-02 0.71356813E+02</pdfrwt>
<pdfrwt beam="2">  1       21 0.76924515E-01 0.71356813E+02</pdfrwt>
<totfact> 0.38308938E+05</totfact>
</mgrwt>
</event>
<event>
 5    1  0.1708429E+000  0.1262547E+03  0.7546771E-02  0.1233121E+00
         21   -1    0    0  503  502  0.00000000000E+00  0.00000000000E+00  0.17321780562E+03  0.17321780562E+03  0.00000000000E+00 0.  1.
         21   -1    0    0  501  503 -0.00000000000E+00 -0.00000000000E+00 -0.40466594808E+03  0.40466594808E+03  0.00000000000E+00 0.  1.
         24    1    1    2    0    0  0.11218516750E+02  0.15891648142E+02 -0.25019888612E+03  0.26352437870E+03  0.80419002446E+02 0.  1.
          1    1    1    2  501    0  0.76817268635E+02 -0.26134911679E+02 -0.12289792650E+03  0.14726787398E+03  0.00000000000E+00 0. -1.
         -2    1    1    2    0  502 -0.88035785385E+02  0.10243263537E+02  0.14164867016E+03  0.16709150102E+03  0.00000000000E+00 0.  1.
<mgrwt>
<rscale>  2 0.12625467E+03</rscale>
<asrwt>0</asrwt>
<pdfrwt beam="1">  1       21 0.26648894E-01 0.12625467E+03</pdfrwt>
<pdfrwt beam="2">  1       21 0.62256298E-01 0.12625467E+03</pdfrwt>
<totfact> 0.33319991E+04</totfact>
</mgrwt>
</event>
<event>
 5    1  0.1708429E+000  0.6487107E+02  0.7546771E-02  0.1378457E+00
         21   -1    0    0  503  502  0.00000000000E+00  0.00000000000E+00  0.61532490687E+02  0.61532490687E+02  0.00000000000E+00 0. -1.
         21   -1    0    0  501  503 -0.00000000000E+00 -0.00000000000E+00 -0.72033357951E+02  0.72033357951E+02  0.00000000000E+00 0.  1.
         24    1    1    2    0    0  0.11481517545E+02  0.67946677071E+01 -0.99709977901E+01  0.82125693335E+02  0.80419002446E+02 0. -1.
          1    1    1    2  501    0 -0.23631336016E+02  0.11485351706E+02 -0.92024351253E+01  0.27839507142E+02  0.00000000000E+00 0. -1.
         -2    1    1    2    0  502  0.12149818471E+02 -0.18280019413E+02  0.86725656515E+01  0.23600648161E+02  0.00000000000E+00 0.  1.
<mgrwt>
<rscale>  2 0.64871075E+02</rscale>
<asrwt>0</asrwt>
<pdfrwt beam="1">  1       21 0.94665370E-02 0.64871075E+02</pdfrwt>
<pdfrwt beam="2">  1       21 0.11082055E-01 0.64871075E+02</pdfrwt>
<totfact> 0.56680795E+06</totfact>
</mgrwt>
</event>
<event>
 5    1  0.1708429E+000  0.1254915E+03  0.7546771E-02  0.1234303E+00
         21   -1    0    0  503  502  0.00000000000E+00  0.00000000000E+00  0.22365291874E+03  0.22365291874E+03  0.00000000000E+00 0.  1.
         21   -1    0    0  501  503 -0.00000000000E+00 -0.00000000000E+00 -0.19413750558E+03  0.19413750558E+03  0.00000000000E+00 0. -1.
         24    1    1    2    0    0 -0.58196406989E+02 -0.39990332089E+02 -0.18163987257E+02  0.10855042531E+03  0.80419002446E+02 0.  1.
          1    1    1    2  501    0  0.39520901394E+02  0.85815475583E+02 -0.10940054071E+03  0.14454990766E+03  0.00000000000E+00 0. -1.
         -2    1    1    2    0  502  0.18675505596E+02 -0.45825143493E+02  0.15707994112E+03  0.16469009135E+03  0.00000000000E+00 0.  1.
<mgrwt>
<rscale>  2 0.12549150E+03</rscale>
<asrwt>0</asrwt>
<pdfrwt beam="1">  1       21 0.34408141E-01 0.12549150E+03</pdfrwt>
<pdfrwt beam="2">  1       21 0.29867308E-01 0.12549150E+03</pdfrwt>
<totfact> 0.89903171E+04</totfact>
</mgrwt>
</event>
<event>
 5    1  0.1708429E+000  0.8822188E+02  0.7546771E-02  0.1307216E+00
         21   -1    0    0  503  502  0.00000000000E+00  0.00000000000E+00  0.11549684905E+03  0.11549684905E+03  0.00000000000E+00 0.  1.
         21   -1    0    0  501  503 -0.00000000000E+00 -0.00000000000E+00 -0.95359395139E+02  0.95359395139E+02  0.00000000000E+00 0. -1.
         24    1    1    2    0    0 -0.15504458657E+02  0.67325507499E+02  0.22831673370E+02  0.10845097262E+03  0.80419002446E+02 0. -1.
          1    1    1    2  501    0  0.27364351817E+01 -0.41733444865E+02 -0.38317167588E+02  0.56721899032E+02  0.00000000000E+00 0. -1.
         -2    1    1    2    0  502  0.12768023475E+02 -0.25592062634E+02  0.35622948134E+02  0.45683372544E+02  0.00000000000E+00 0.  1.
<mgrwt>
<rscale>  2 0.88221878E+02</rscale>
<asrwt>0</asrwt>
<pdfrwt beam="1">  1       21 0.17768746E-01 0.88221878E+02</pdfrwt>
<pdfrwt beam="2">  1       21 0.14670676E-01 0.88221878E+02</pdfrwt>
<totfact> 0.11654026E+06</totfact>
</mgrwt>
</event>
<event>
 5    1  0.1708429E+000  0.8321997E+02  0.7546771E-02  0.1320154E+00
         21   -1    0    0  503  502  0.00000000000E+00  0.00000000000E+00  0.10751354521E+04  0.10751354521E+04  0.00000000000E+00 0.  1.
         21   -1    0    0  501  503 -0.00000000000E+00 -0.00000000000E+00 -0.29809293200E+02  0.29809293200E+02  0.00000000000E+00 0.  1.
         24    1    1    2    0    0 -0.17659008511E+02  0.39135742373E+02  0.23083231069E+03  0.24818182553E+03  0.80419002446E+02 0.  1.
          1    1    1    2  501    0 -0.20486254319E+02 -0.29531103406E+02 -0.50335835134E+01  0.36292005282E+02  0.00000000000E+00 0. -1.
         -2    1    1    2    0  502  0.38145262830E+02 -0.96046389665E+01  0.81952743174E+03  0.82047091450E+03  0.00000000000E+00 0.  1.
<mgrwt>
<rscale>  2 0.83219970E+02</rscale>
<asrwt>0</asrwt>
<pdfrwt beam="1">  1       21 0.16540542E+00 0.83219970E+02</pdfrwt>
<pdfrwt beam="2">  1       21 0.45860459E-02 0.83219970E+02</pdfrwt>
<totfact> 0.76951273E+04</totfact>
</mgrwt>
</event>
<event>
 5    1  0.1708429E+000  0.1050640E+03  0.7546771E-02  0.1269994E+00
         21   -1    0    0  501  502  0.00000000000E+00  0.00000000000E+00  0.55002999466E+02  0.55002999466E+02  0.00000000000E+00 0. -1.
         21   -1    0    0  502  503 -0.00000000000E+00 -0.00000000000E+00 -0.79742747912E+03  0.79742747912E+03  0.00000000000E+00 0.  1.
         24    1    1    2    0    0 -0.69194373430E+02  0.61223462808E+00 -0.89352872147E+02  0.13870612049E+03  0.80419002446E+02 0.  1.
          1    1    1    2  501    0 -0.91345845279E+01 -0.21168223237E+02  0.23149454396E+02  0.32671570950E+02  0.00000000000E+00 0. -1.
         -2    1    1    2    0  503  0.78328957957E+02  0.20555988609E+02 -0.67622106190E+03  0.68105278715E+03  0.00000000000E+00 0.  1.
<mgrwt>
<rscale>  2 0.10506403E+03</rscale>
<asrwt>0</asrwt>
<pdfrwt beam="1">  1       21 0.84619998E-02 0.10506403E+03</pdfrwt>
<pdfrwt beam="2">  1       21 0.12268115E+00 0.10506403E+03</pdfrwt>
<totfact> 0.57187580E+04</totfact>
</mgrwt>
</event>
<event>
 5    1  0.1708429E+000  0.7217188E+02  0.7546771E-02  0.1352859E+00
         21   -1    0    0  501  502  0.00000000000E+00  0.00000000000E+00  0.12390778436E+02  0.12390778436E+02  0.00000000000E+00 0.  1.
         21   -1    0    0  502  503 -0.00000000000E+00 -0.00000000000E+00 -0.43100953689E+03  0.43100953689E+03  0.00000000000E+00 0.  1.
         24    1    1    2    0    0  0.96054157657E+01 -0.22476692729E+02 -0.23061481427E+03  0.24545442397E+03  0.80419002446E+02 0.  1.
          1    1    1    2  501    0  0.23169850760E+02  0.91588784238E+01 -0.56167293292E+02  0.61445031321E+02  0.00000000000E+00 0. -1.
         -2    1    1    2    0  503 -0.32775266526E+02  0.13317814305E+02 -0.13183665089E+03  0.13650086004E+03  0.00000000000E+00 0.  1.
<mgrwt>
<rscale>  2 0.72171882E+02</rscale>
<asrwt>0</asrwt>
<pdfrwt beam="1">  1       21 0.19062740E-02 0.72171882E+02</pdfrwt>
<pdfrwt beam="2">  1       21 0.66309147E-01 0.72171882E+02</pdfrwt>
<totfact> 0.27009104E+06</totfact>
</mgrwt>
</event>
<event>
 5    1  0.1708429E+000  0.1337878E+03  0.7546771E-02  0.1221941E+00
         21   -1    0    0  503  502  0.00000000000E+00  0.00000000000E+00  0.26588812891E+03  0.26588812891E+03  0.00000000000E+00 0.  1.
         21   -1    0    0  501  503 -0.00000000000E+00 -0.00000000000E+00 -0.36669893432E+03  0.36669893432E+03  0.00000000000E+00 0.  1.
         24    1    1    2    0    0  0.10640807376E+03  0.92910125111E+01 -0.22324690732E+03  0.26022182587E+03  0.80419002446E+02 0.  1.
          1    1    1    2  501    0 -0.10383245363E+03  0.18922589852E+02 -0.10162755299E+03  0.14651758379E+03  0.00000000000E+00 0. -1.
         -2    1    1    2    0  502 -0.25756201298E+01 -0.28213602363E+02  0.22406365490E+03  0.22584765357E+03  0.00000000000E+00 0.  1.
<mgrwt>
<rscale>  2 0.13378775E+03</rscale>
<asrwt>0</asrwt>
<pdfrwt beam="1">  1       21 0.40905866E-01 0.13378775E+03</pdfrwt>
<pdfrwt beam="2">  1       21 0.56415220E-01 0.13378775E+03</pdfrwt>
<totfact> 0.17693498E+04</totfact>
</mgrwt>
</event>
<event>
 5    1  0.1708429E+000  0.8160965E+02  0.7546771E-02  0.1324545E+00
         21   -1    0    0  503  502  0.00000000000E+00  0.00000000000E+00  0.21233296688E+03  0.21233296688E+03  0.00000000000E+00 0. -1.
         21   -1    0    0  501  503 -0.00000000000E+00 -0.00000000000E+00 -0.38402378061E+02  0.38402378061E+02  0.00000000000E+00 0. -1.
         24    1    1    2    0    0 -0.39990709233E+02 -0.46504268189E+00  0.56036861312E+02  0.10586226367E+03  0.80419002446E+02 0. -1.
          1    1    1    2  501    0  0.49576988131E+02  0.18551823696E+02  0.46022494694E+02  0.70143552323E+02  0.00000000000E+00 0. -1.
         -2    1    1    2    0  502 -0.95862788978E+01 -0.18086781015E+02  0.71871232817E+02  0.74729528951E+02  0.00000000000E+00 0.  1.
<mgrwt>
<rscale>  2 0.81609653E+02</rscale>
<asrwt>0</asrwt>
<pdfrwt beam="1">  1       21 0.32666610E-01 0.81609653E+02</pdfrwt>
<pdfrwt beam="2">  1       21 0.59080583E-02 0.81609653E+02</pdfrwt>
<totfact> 0.17929621E+06</totfact>
</mgrwt>
</event>
<event>
 5    1  0.1708429E+000  0.2485983E+03  0.7546771E-02  0.1114194E+00
         21   -1    0    0  501  502  0.00000000000E+00  0.00000000000E+00  0.79015887770E+03  0.79015887770E+03  0.00000000000E+00 0. -1.
         21   -1    0    0  502  503 -0.00000000000E+00 -0.00000000000E+00 -0.25213873518E+03  0.25213873518E+03  0.00000000000E+00 0.  1.
         24    1    1    2    0    0 -0.14291894574E+03  0.15106461269E+03  0.18082211381E+03  0.28707175942E+03  0.80419002446E+02 0. -1.
          1    1    1    2  501    0  0.18371952858E+03 -0.14258612232E+03  0.52930728925E+03  0.57814347174E+03  0.00000000000E+00 0. -1.
         -2    1    1    2    0  503 -0.40800582841E+02 -0.84784903653E+01 -0.17210926053E+03  0.17708238173E+03  0.00000000000E+00 0.  1.
<mgrwt>
<rscale>  2 0.24859827E+03</rscale>
<asrwt>0</asrwt>
<pdfrwt beam="1">  1       21 0.12156290E+00 0.24859827E+03</pdfrwt>
<pdfrwt beam="2">  1       21 0.38790575E-01 0.24859827E+03</pdfrwt>
<totfact> 0.31368370E+03</totfact>
</mgrwt>
</event>
<event>
 5    1  0.1708429E+000  0.9884668E+02  0.7546771E-02  0.1282740E+00
         21   -1    0    0  501  502  0.00000000000E+00  0.00000000000E+00  0.32185597325E+02  0.32185597325E+02  0.00000000000E+00 0.  1.
         21   -1    0    0  502  503 -0.00000000000E+00 -0.00000000000E+00 -0.72691549140E+03  0.72691549140E+03  0.00000000000E+00 0.  1.
         24    1    1    2    0    0 -0.57518733337E+02 -0.30331082741E+02 -0.74601236079E+02  0.12751838943E+03  0.80419002446E+02 0.  1.
          1    1    1    2  501    0  0.58344080986E+02 -0.53448295353E+01 -0.16566089298E+03  0.17571605064E+03  0.00000000000E+00 0. -1.
         -2    1    1    2    0  503 -0.82534764984E+00  0.35675912276E+02 -0.45446776502E+03  0.45586664865E+03  0.00000000000E+00 0.  1.
<mgrwt>
<rscale>  2 0.98846677E+02</rscale>
<asrwt>0</asrwt>
<pdfrwt beam="1">  1       21 0.49516305E-02 0.98846677E+02</pdfrwt>
<pdfrwt beam="2">  1       21 0.11183315E+00 0.98846677E+02</pdfrwt>
<totfact> 0.17760732E+05</totfact>
</mgrwt>
</event>
<event>
 5    1  0.1708429E+000  0.9549428E+02  0.7546771E-02  0.1290067E+00
         21   -1    0    0  501  502  0.00000000000E+00  0.00000000000E+00  0.42146959559E+03  0.42146959559E+03  0.00000000000E+00 0. -1.
         21   -1    0    0  502  503 -0.00000000000E+00 -0.00000000000E+00 -0.20442710802E+03  0.20442710802E+03  0.00000000000E+00 0.  1.
         24    1    1    2    0    0 -0.14519886973E+02 -0.56501954530E+02  0.25179098136E+02  0.10249146755E+03  0.80419002446E+02 0.  1.
          1    1    1    2  501    0  0.42974170001E+02  0.27565131727E+02  0.35328767120E+03  0.35695769273E+03  0.00000000000E+00 0. -1.
         -2    1    1    2    0  503 -0.28454283028E+02  0.28936822803E+02 -0.16142428177E+03  0.16644754334E+03  0.00000000000E+00 0.  1.
<mgrwt>
<rscale>  2 0.95494281E+02</rscale>
<asrwt>0</asrwt>
<pdfrwt beam="1">  1       21 0.64841476E-01 0.95494281E+02</pdfrwt>
<pdfrwt beam="2">  1       21 0.31450324E-01 0.95494281E+02</pdfrwt>
<totfact> 0.22801913E+04</totfact>
</mgrwt>
</event>
<event>
 5    1  0.1708429E+000  0.6411032E+02  0.7546771E-02  0.1381350E+00
         21   -1    0    0  501  502  0.00000000000E+00  0.00000000000E+00  0.16970826892E+03  0.16970826892E+03  0.00000000000E+00 0. -1.
         21   -1    0    0  502  503 -0.00000000000E+00 -0.00000000000E+00 -0.24281243343E+02  0.24281243343E+02  0.00000000000E+00 0. -1.
         24    1    1    2    0    0  0.19308010706E+02  0.18290826235E+02  0.10036997041E+03  0.13133430822E+03  0.80419002446E+02 0. -1.
          1    1    1    2  501    0  0.13788764608E+01 -0.22386889464E+02  0.22274443949E+02  0.31610519980E+02  0.00000000000E+00 0. -1.
         -2    1    1    2    0  503 -0.20686887167E+02  0.40960632293E+01  0.22782611225E+02  0.31044684068E+02  0.00000000000E+00 0.  1.
<mgrwt>
<rscale>  2 0.64110325E+02</rscale>
<asrwt>0</asrwt>
<pdfrwt beam="1">  1       21 0.26108964E-01 0.64110325E+02</pdfrwt>
<pdfrwt beam="2">  1       21 0.37355760E-02 0.64110325E+02</pdfrwt>
<totfact> 0.57499276E+06</totfact>
</mgrwt>
</event>
<event>
 5    1  0.1708429E+000  0.1180021E+03  0.7546771E-02  0.1246430E+00
         21   -1    0    0  503  502  0.00000000000E+00  0.00000000000E+00  0.19545118360E+03  0.19545118360E+03  0.00000000000E+00 0.  1.
         21   -1    0    0  501  503 -0.00000000000E+00 -0.00000000000E+00 -0.13750873896E+03  0.13750873896E+03  0.00000000000E+00 0. -1.
         24    1    1    2    0    0 -0.22525330849E+02  0.41941657315E+02 -0.72489395395E+02  0.11827265765E+03  0.80419002446E+02 0. -1.
          1    1    1    2  501    0 -0.56854224796E+02 -0.16827334419E+02 -0.77117904515E+00  0.59297190304E+02  0.00000000000E+00 0. -1.
         -2    1    1    2    0  502  0.79379555646E+02 -0.25114322896E+02  0.13120301908E+03  0.15539007460E+03  0.00000000000E+00 0.  1.
<mgrwt>
<rscale>  2 0.11800209E+03</rscale>
<asrwt>0</asrwt>
<pdfrwt beam="1">  1       21 0.30069413E-01 0.11800209E+03</pdfrwt>
<pdfrwt beam="2">  1       21 0.21155191E-01 0.11800209E+03</pdfrwt>
<totfact> 0.22462248E+05</totfact>
</mgrwt>
</event>
<event>
 5    1  0.1708429E+000  0.8454609E+02  0.7546771E-02  0.1316624E+00
         21   -1    0    0  503  502  0.00000000000E+00  0.00000000000E+00  0.43459079246E+03  0.43459079246E+03  0.00000000000E+00 0. -1.
         21   -1    0    0  501  503 -0.00000000000E+00 -0.00000000000E+00 -0.41468991636E+02  0.41468991636E+02  0.00000000000E+00 0.  1.
         24    1    1    2    0    0 -0.56397363703E+01  0.34021402978E+02  0.24174431441E+02  0.90779301478E+02  0.80419002446E+02 0.  0.
          1    1    1    2  501    0  0.59860116348E+00  0.23671033844E+02  0.18415169141E+02  0.29996576823E+02  0.00000000000E+00 0. -1.
         -2    1    1    2    0  502  0.50411352069E+01 -0.57692436822E+02  0.35053220024E+03  0.35528390580E+03  0.00000000000E+00 0.  1.
<mgrwt>
<rscale>  2 0.84546085E+02</rscale>
<asrwt>0</asrwt>
<pdfrwt beam="1">  1       21 0.66860119E-01 0.84546085E+02</pdfrwt>
<pdfrwt beam="2">  1       21 0.63798452E-02 0.84546085E+02</pdfrwt>
<totfact> 0.37082478E+05</totfact>
</mgrwt>
</event>
<event>
 5    1  0.1708429E+000  0.8954127E+02  0.7546771E-02  0.1303966E+00
         21   -1    0    0  501  502  0.00000000000E+00  0.00000000000E+00  0.69191308535E+02  0.69191308535E+02  0.00000000000E+00 0.  1.
         21   -1    0    0  502  503 -0.00000000000E+00 -0.00000000000E+00 -0.17446179301E+03  0.17446179301E+03  0.00000000000E+00 0. -1.
         24    1    1    2    0    0  0.24664979219E+02 -0.46019963486E+01 -0.10066495701E+03  0.13126381487E+03  0.80419002446E+02 0. -1.
          1    1    1    2  501    0  0.25214388227E+02  0.29735318329E+02  0.27737617001E+02  0.47846942710E+02  0.00000000000E+00 0. -1.
         -2    1    1    2    0  503 -0.49879367446E+02 -0.25133321980E+02 -0.32343144469E+02  0.64542343967E+02  0.00000000000E+00 0.  1.
<mgrwt>
<rscale>  2 0.89541266E+02</rscale>
<asrwt>0</asrwt>
<pdfrwt beam="1">  1       21 0.10644817E-01 0.89541266E+02</pdfrwt>
<pdfrwt beam="2">  1       21 0.26840275E-01 0.89541266E+02</pdfrwt>
<totfact> 0.95745038E+05</totfact>
</mgrwt>
</event>
<event>
 5    1  0.1708429E+000  0.7244140E+02  0.7546771E-02  0.1351982E+00
         21   -1    0    0  501  502  0.00000000000E+00  0.00000000000E+00  0.14564007471E+02  0.14564007471E+02  0.00000000000E+00 0.  1.
         21   -1    0    0  502  503 -0.00000000000E+00 -0.00000000000E+00 -0.41427713937E+03  0.41427713937E+03  0.00000000000E+00 0. -1.
         24    1    1    2    0    0  0.28933992314E+02 -0.22744686109E+02 -0.30240860423E+03  0.31507566793E+03  0.80419002446E+02 0. -1.
          1    1    1    2  501    0  0.63256759092E+01  0.20113365316E+02 -0.21463064274E+02  0.30086953453E+02  0.00000000000E+00 0. -1.
         -2    1    1    2    0  503 -0.35259668223E+02  0.26313207931E+01 -0.75841463394E+02  0.83678525454E+02  0.00000000000E+00 0.  1.
<mgrwt>
<rscale>  2 0.72441396E+02</rscale>
<asrwt>0</asrwt>
<pdfrwt beam="1">  1       21 0.22406163E-02 0.72441396E+02</pdfrwt>
<pdfrwt beam="2">  1       21 0.63734951E-01 0.72441396E+02</pdfrwt>
<totfact> 0.22708341E+06</totfact>
</mgrwt>
</event>
<event>
 5    1  0.1708429E+000  0.1200773E+03  0.7546771E-02  0.1242970E+00
         21   -1    0    0  503  502  0.00000000000E+00  0.00000000000E+00  0.12706304338E+04  0.12706304338E+04  0.00000000000E+00 0.  1.
         21   -1    0    0  501  503 -0.00000000000E+00 -0.00000000000E+00 -0.14114589520E+02  0.14114589520E+02  0.00000000000E+00 0. -1.
         24    1    1    2    0    0 -0.51109519293E+02  0.18978945581E+02  0.61646540879E+03  0.62407467464E+03  0.80419002446E+02 0.  1.
          1    1    1    2  501    0 -0.30451495991E+02 -0.47645086804E+02  0.11068545150E+03  0.12429246590E+03  0.00000000000E+00 0. -1.
         -2    1    1    2    0  502  0.81561015284E+02  0.28666141223E+02  0.52936498399E+03  0.53637788279E+03  0.00000000000E+00 0.  1.
<mgrwt>
<rscale>  2 0.12007734E+03</rscale>
<asrwt>0</asrwt>
<pdfrwt beam="1">  1       21 0.19548151E+00 0.12007734E+03</pdfrwt>
<pdfrwt beam="2">  1       21 0.21714763E-02 0.12007734E+03</pdfrwt>
<totfact> 0.16085634E+05</totfact>
</mgrwt>
</event>
<event>
 5    1  0.1708429E+000  0.9044688E+02  0.7546771E-02  0.1301773E+00
         21   -1    0    0  503  502  0.00000000000E+00  0.00000000000E+00  0.13279194305E+04  0.13279194305E+04  0.00000000000E+00 0.  1.
         21   -1    0    0  501  503 -0.00000000000E+00 -0.00000000000E+00 -0.80837298971E+01  0.80837298971E+01  0.00000000000E+00 0. -1.
         24    1    1    2    0    0 -0.13427761103E+02  0.88366320826E+01  0.64111085083E+03  0.64633484344E+03  0.80419002446E+02 0. -1.
          1    1    1    2  501    0  0.41252228581E+02 -0.39753873482E+02  0.17307010368E+03  0.18230572565E+03  0.00000000000E+00 0. -1.
         -2    1    1    2    0  502 -0.27824467478E+02  0.30917241400E+02  0.50565474605E+03  0.50736259126E+03  0.00000000000E+00 0.  1.
<mgrwt>
<rscale>  2 0.90446875E+02</rscale>
<asrwt>0</asrwt>
<pdfrwt beam="1">  1       21 0.20429512E+00 0.90446875E+02</pdfrwt>
<pdfrwt beam="2">  1       21 0.12436518E-02 0.90446875E+02</pdfrwt>
<totfact> 0.35130742E+05</totfact>
</mgrwt>
</event>
<event>
 5    1  0.1708429E+000  0.6637163E+02  0.7546771E-02  0.1372885E+00
         21   -1    0    0  503  502  0.00000000000E+00  0.00000000000E+00  0.34807745938E+01  0.34807745938E+01  0.00000000000E+00 0. -1.
         21   -1    0    0  501  503 -0.00000000000E+00 -0.00000000000E+00 -0.14623266010E+04  0.14623266010E+04  0.00000000000E+00 0. -1.
         24    1    1    2    0    0 -0.29835616904E+02 -0.24898701135E+02 -0.78307375820E+03  0.78815089678E+03  0.80419002446E+02 0. -1.
          1    1    1    2  501    0  0.21890992503E+02  0.56570487863E+01 -0.52103956191E+03  0.52152990597E+03  0.00000000000E+00 0. -1.
         -2    1    1    2    0  502  0.79446244012E+01  0.19241652348E+02 -0.15473250635E+03  0.15612657289E+03  0.00000000000E+00 0.  1.
<mgrwt>
<rscale>  2 0.66371629E+02</rscale>
<asrwt>0</asrwt>
<pdfrwt beam="1">  1       21 0.53550413E-03 0.66371629E+02</pdfrwt>
<pdfrwt beam="2">  1       21 0.22497318E+00 0.66371629E+02</pdfrwt>
<totfact> 0.99222850E+05</totfact>
</mgrwt>
</event>
<event>
 5    1  0.1708429E+000  0.1051096E+03  0.7546771E-02  0.1269904E+00
         21   -1    0    0  501  502  0.00000000000E+00  0.00000000000E+00  0.17960991901E+03  0.17960991901E+03  0.00000000000E+00 0. -1.
         21   -1    0    0  502  503 -0.00000000000E+00 -0.00000000000E+00 -0.34482769709E+03  0.34482769709E+03  0.00000000000E+00 0.  1.
         24    1    1    2    0    0 -0.23444086743E+01  0.87729582079E+02 -0.31695892634E+03  0.33857370360E+03  0.80419002446E+02 0.  1.
          1    1    1    2  501    0  0.12409480141E+02 -0.67015617369E+02  0.14744750230E+03  0.16243723127E+03  0.00000000000E+00 0. -1.
         -2    1    1    2    0  503 -0.10065071467E+02 -0.20713964709E+02  0.42936459685E+01  0.23426681227E+02  0.00000000000E+00 0.  1.
<mgrwt>
<rscale>  2 0.10510957E+03</rscale>
<asrwt>0</asrwt>
<pdfrwt beam="1">  1       21 0.27632296E-01 0.10510957E+03</pdfrwt>
<pdfrwt beam="2">  1       21 0.53050414E-01 0.10510957E+03</pdfrwt>
<totfact> 0.44164112E+04</totfact>
</mgrwt>
</event>
<event>
 5    1  0.1708429E+000  0.6687728E+02  0.7546771E-02  0.1371046E+00
         21   -1    0    0  501  502  0.00000000000E+00  0.00000000000E+00  0.37039899982E+03  0.37039899982E+03  0.00000000000E+00 0. -1.
         21   -1    0    0  502  503 -0.00000000000E+00 -0.00000000000E+00 -0.18915171510E+02  0.18915171510E+02  0.00000000000E+00 0.  1.
         24    1    1    2    0    0 -0.22347747904E+00 -0.14690411753E+02  0.13391000408E+03  0.15689156538E+03  0.80419002446E+02 0. -1.
          1    1    1    2  501    0 -0.21858903439E+02  0.19626616249E+02  0.20385580512E+03  0.20596165906E+03  0.00000000000E+00 0. -1.
         -2    1    1    2    0  503  0.22082380918E+02 -0.49362044960E+01  0.13718019115E+02  0.26460946889E+02  0.00000000000E+00 0.  1.
<mgrwt>
<rscale>  2 0.66877283E+02</rscale>
<asrwt>0</asrwt>
<pdfrwt beam="1">  1       21 0.56984456E-01 0.66877283E+02</pdfrwt>
<pdfrwt beam="2">  1       21 0.29100267E-02 0.66877283E+02</pdfrwt>
<totfact> 0.18792566E+06</totfact>
</mgrwt>
</event>
<event>
 5    1  0.1708429E+000  0.1116383E+03  0.7546771E-02  0.1257566E+00
         21   -1    0    0  501  502  0.00000000000E+00  0.00000000000E+00  0.17288977613E+03  0.17288977613E+03  0.00000000000E+00 0. -1.
         21   -1    0    0  502  503 -0.00000000000E+00 -0.00000000000E+00 -0.16883189925E+03  0.16883189925E+03  0.00000000000E+00 0. -1.
         24    1    1    2    0    0 -0.44275921973E+01 -0.65614095308E+02 -0.88653977777E+02  0.13657070259E+03  0.80419002446E+02 0. -1.
          1    1    1    2  501    0 -0.42235903654E+02  0.58554105997E+02  0.12749890880E+03  0.14652107913E+03  0.00000000000E+00 0. -1.
         -2    1    1    2    0  503  0.46663495851E+02  0.70599893110E+01 -0.34787054139E+02  0.58629893653E+02  0.00000000000E+00 0.  1.
<mgrwt>
<rscale>  2 0.11163829E+03</rscale>
<asrwt>0</asrwt>
<pdfrwt beam="1">  1       21 0.26598427E-01 0.11163829E+03</pdfrwt>
<pdfrwt beam="2">  1       21 0.25974138E-01 0.11163829E+03</pdfrwt>
<totfact> 0.19370412E+05</totfact>
</mgrwt>
</event>
<event>
 5    1  0.1708429E+000  0.7417064E+02  0.7546771E-02  0.1346459E+00
         21   -1    0    0  501  502  0.00000000000E+00  0.00000000000E+00  0.15957096324E+03  0.15957096324E+03  0.00000000000E+00 0.  1.
         21   -1    0    0  502  503 -0.00000000000E+00 -0.00000000000E+00 -0.54909071722E+02  0.54909071722E+02  0.00000000000E+00 0. -1.
         24    1    1    2    0    0  0.12048465290E+02 -0.10989158483E+02  0.51760470605E+02  0.97016954145E+02  0.80419002446E+02 0. -1.
          1    1    1    2  501    0 -0.15326018282E+02 -0.25445081694E+02  0.70769844352E+02  0.76750960179E+02  0.00000000000E+00 0. -1.
         -2    1    1    2    0  503  0.32775529924E+01  0.36434240177E+02 -0.17868423437E+02  0.40712120640E+02  0.00000000000E+00 0.  1.
<mgrwt>
<rscale>  2 0.74170644E+02</rscale>
<asrwt>0</asrwt>
<pdfrwt beam="1">  1       21 0.24549379E-01 0.74170644E+02</pdfrwt>
<pdfrwt beam="2">  1       21 0.84475496E-02 0.74170644E+02</pdfrwt>
<totfact> 0.16751941E+06</totfact>
</mgrwt>
</event>
<event>
 5    1  0.1708429E+000  0.7323949E+02  0.7546771E-02  0.1349411E+00
         21   -1    0    0  501  502  0.00000000000E+00  0.00000000000E+00  0.80380753770E+02  0.80380753770E+02  0.00000000000E+00 0.  1.
         21   -1    0    0  502  503 -0.00000000000E+00 -0.00000000000E+00 -0.29552655384E+03  0.29552655384E+03  0.00000000000E+00 0.  1.
         24    1    1    2    0    0  0.13910997226E+02  0.44571516098E+02 -0.49691311439E+01  0.93123810649E+02  0.80419002446E+02 0.  1.
          1    1    1    2  501    0 -0.16712953105E+02 -0.11475388865E+02  0.32249542431E+02  0.38092523389E+02  0.00000000000E+00 0. -1.
         -2    1    1    2    0  503  0.28019558783E+01 -0.33096127233E+02 -0.24242621136E+03  0.24469097357E+03  0.00000000000E+00 0.  1.
<mgrwt>
<rscale>  2 0.73239489E+02</rscale>
<asrwt>0</asrwt>
<pdfrwt beam="1">  1       21 0.12366270E-01 0.73239489E+02</pdfrwt>
<pdfrwt beam="2">  1       21 0.45465623E-01 0.73239489E+02</pdfrwt>
<totfact> 0.26506015E+05</totfact>
</mgrwt>
</event>
<event>
 5    1  0.1708429E+000  0.1799951E+03  0.7546771E-02  0.1167808E+00
         21   -1    0    0  503  502  0.00000000000E+00  0.00000000000E+00  0.75440279075E+02  0.75440279075E+02  0.00000000000E+00 0.  1.
         21   -1    0    0  501  503 -0.00000000000E+00 -0.00000000000E+00 -0.85516439854E+03  0.85516439854E+03  0.00000000000E+00 0. -1.
         24    1    1    2    0    0 -0.15832531460E+03 -0.56294119294E+02 -0.23004678894E+03  0.29601465194E+03  0.80419002446E+02 0.  1.
          1    1    1    2  501    0  0.13600028121E+03  0.30111346571E+02 -0.57515099666E+03  0.59177820055E+03  0.00000000000E+00 0. -1.
         -2    1    1    2    0  502  0.22325033382E+02  0.26182772723E+02  0.25473666145E+02  0.42811825117E+02  0.00000000000E+00 0.  1.
<mgrwt>
<rscale>  2 0.17999507E+03</rscale>
<asrwt>0</asrwt>
<pdfrwt beam="1">  1       21 0.11606196E-01 0.17999507E+03</pdfrwt>
<pdfrwt beam="2">  1       21 0.13156376E+00 0.17999507E+03</pdfrwt>
<totfact> 0.26327254E+04</totfact>
</mgrwt>
</event>
<event>
 5    1  0.1708429E+000  0.6291301E+02  0.7546771E-02  0.1385998E+00
         21   -1    0    0  503  502  0.00000000000E+00  0.00000000000E+00  0.16415119042E+02  0.16415119042E+02  0.00000000000E+00 0. -1.
         21   -1    0    0  501  503 -0.00000000000E+00 -0.00000000000E+00 -0.12300025367E+04  0.12300025367E+04  0.00000000000E+00 0. -1.
         24    1    1    2    0    0 -0.83479720896E+01 -0.14084219677E+02 -0.11580761364E+03  0.14193897707E+03  0.80419002446E+02 0. -1.
          1    1    1    2  501    0  0.22595626846E+02 -0.14956294100E+01 -0.10665019610E+04  0.10667423457E+04  0.00000000000E+00 0. -1.
         -2    1    1    2    0  502 -0.14247654756E+02  0.15579849087E+02 -0.31277843067E+02  0.37736333030E+02  0.00000000000E+00 0.  1.
<mgrwt>
<rscale>  2 0.62913009E+02</rscale>
<asrwt>0</asrwt>
<pdfrwt beam="1">  1       21 0.25254024E-02 0.62913009E+02</pdfrwt>
<pdfrwt beam="2">  1       21 0.18923120E+00 0.62913009E+02</pdfrwt>
<totfact> 0.14455201E+05</totfact>
</mgrwt>
</event>
<event>
 5    1  0.1708429E+000  0.6831751E+02  0.7546771E-02  0.1365910E+00
         21   -1    0    0  503  502  0.00000000000E+00  0.00000000000E+00  0.51350898202E+03  0.51350898202E+03  0.00000000000E+00 0. -1.
         21   -1    0    0  501  503 -0.00000000000E+00 -0.00000000000E+00 -0.64961061832E+02  0.64961061832E+02  0.00000000000E+00 0. -1.
         24    1    1    2    0    0  0.39548613804E+01  0.31622816614E+02  0.31693080875E+03  0.32852396709E+03  0.80419002446E+02 0. -1.
          1    1    1    2  501    0 -0.20629173983E+02 -0.10283754144E+02 -0.55909197203E+02  0.60474430550E+02  0.00000000000E+00 0. -1.
         -2    1    1    2    0  502  0.16674312603E+02 -0.21339062470E+02  0.18752630864E+03  0.18947164622E+03  0.00000000000E+00 0.  1.
<mgrwt>
<rscale>  2 0.68317505E+02</rscale>
<asrwt>0</asrwt>
<pdfrwt beam="1">  1       21 0.79001379E-01 0.68317505E+02</pdfrwt>
<pdfrwt beam="2">  1       21 0.99940099E-02 0.68317505E+02</pdfrwt>
<totfact> 0.12121398E+05</totfact>
</mgrwt>
</event>
<event>
 5    1  0.1708429E+000  0.7727712E+02  0.7546771E-02  0.1336961E+00
         21   -1    0    0  501  502  0.00000000000E+00  0.00000000000E+00  0.18399151237E+03  0.18399151237E+03  0.00000000000E+00 0. -1.
         21   -1    0    0  502  503 -0.00000000000E+00 -0.00000000000E+00 -0.11177613030E+03  0.11177613030E+03  0.00000000000E+00 0.  1.
         24    1    1    2    0    0  0.22379112995E+02 -0.15994831855E+02 -0.59006751768E+02  0.10346821760E+03  0.80419002446E+02 0.  0.
          1    1    1    2  501    0 -0.44784559625E+02  0.14631032661E+02  0.15356402511E+03  0.16062886947E+03  0.00000000000E+00 0. -1.
         -2    1    1    2    0  503  0.22405446630E+02  0.13637991946E+01 -0.22341891265E+02  0.31670555604E+02  0.00000000000E+00 0.  1.
<mgrwt>
<rscale>  2 0.77277122E+02</rscale>
<asrwt>0</asrwt>
<pdfrwt beam="1">  1       21 0.28306387E-01 0.77277122E+02</pdfrwt>
<pdfrwt beam="2">  1       21 0.17196328E-01 0.77277122E+02</pdfrwt>
<totfact> 0.37066613E+05</totfact>
</mgrwt>
</event>
<event>
 5    1  0.1708429E+000  0.6446785E+02  0.7546771E-02  0.1379984E+00
         21   -1    0    0  503  502  0.00000000000E+00  0.00000000000E+00  0.20273237869E+02  0.20273237869E+02  0.00000000000E+00 0. -1.
         21   -1    0    0  501  503 -0.00000000000E+00 -0.00000000000E+00 -0.27197977683E+03  0.27197977683E+03  0.00000000000E+00 0.  1.
         24    1    1    2    0    0  0.26357231106E+02  0.38605646995E+01 -0.94444553419E+02  0.12687236585E+03  0.80419002446E+02 0. -1.
          1    1    1    2  501    0 -0.11814679840E+02 -0.19540080937E+02 -0.12217212862E+03  0.12428769221E+03  0.00000000000E+00 0. -1.
         -2    1    1    2    0  502 -0.14542551266E+02  0.15679516237E+02 -0.35089856923E+02  0.41092956643E+02  0.00000000000E+00 0.  1.
<mgrwt>
<rscale>  2 0.64467849E+02</rscale>
<asrwt>0</asrwt>
<pdfrwt beam="1">  1       21 0.31189596E-02 0.64467849E+02</pdfrwt>
<pdfrwt beam="2">  1       21 0.41843044E-01 0.64467849E+02</pdfrwt>
<totfact> 0.31257344E+06</totfact>
</mgrwt>
</event>
<event>
 5    1  0.1708429E+000  0.9200328E+02  0.7546771E-02  0.1298072E+00
         21   -1    0    0  501  502  0.00000000000E+00  0.00000000000E+00  0.51039609503E+02  0.51039609503E+02  0.00000000000E+00 0. -1.
         21   -1    0    0  502  503 -0.00000000000E+00 -0.00000000000E+00 -0.44229148669E+03  0.44229148669E+03  0.00000000000E+00 0.  1.
         24    1    1    2    0    0  0.30957014921E+02  0.63228403155E+02 -0.14042505656E+02  0.10779877392E+03  0.80419002446E+02 0. -1.
          1    1    1    2  501    0 -0.10375629101E+02 -0.53253990263E+02 -0.21605470917E+03  0.22276283018E+03  0.00000000000E+00 0. -1.
         -2    1    1    2    0  503 -0.20581385820E+02 -0.99744128920E+01 -0.16115466236E+03  0.16276949209E+03  0.00000000000E+00 0.  1.
<mgrwt>
<rscale>  2 0.92003279E+02</rscale>
<asrwt>0</asrwt>
<pdfrwt beam="1">  1       21 0.78522474E-02 0.92003279E+02</pdfrwt>
<pdfrwt beam="2">  1       21 0.68044846E-01 0.92003279E+02</pdfrwt>
<totfact> 0.25082567E+05</totfact>
</mgrwt>
</event>
<event>
 5    1  0.1708429E+000  0.7873581E+02  0.7546771E-02  0.1332678E+00
         21   -1    0    0  501  502  0.00000000000E+00  0.00000000000E+00  0.13828994799E+02  0.13828994799E+02  0.00000000000E+00 0.  1.
         21   -1    0    0  502  503 -0.00000000000E+00 -0.00000000000E+00 -0.48903049239E+03  0.48903049239E+03  0.00000000000E+00 0. -1.
         24    1    1    2    0    0  0.47489365302E+02  0.46433969080E+01 -0.34291950871E+03  0.35544029929E+03  0.80419002446E+02 0. -1.
          1    1    1    2  501    0 -0.22030417938E+02 -0.23551933730E+02 -0.53144232673E+02  0.62163834851E+02  0.00000000000E+00 0. -1.
         -2    1    1    2    0  503 -0.25458947365E+02  0.18908536822E+02 -0.79137756208E+02  0.85255353048E+02  0.00000000000E+00 0.  1.
<mgrwt>
<rscale>  2 0.78735809E+02</rscale>
<asrwt>0</asrwt>
<pdfrwt beam="1">  1       21 0.21275379E-02 0.78735809E+02</pdfrwt>
<pdfrwt beam="2">  1       21 0.75235452E-01 0.78735809E+02</pdfrwt>
<totfact> 0.17348060E+06</totfact>
</mgrwt>
</event>
<event>
 5    1  0.1708429E+000  0.1248765E+03  0.7546771E-02  0.1235262E+00
         21   -1    0    0  501  502  0.00000000000E+00  0.00000000000E+00  0.16535827497E+03  0.16535827497E+03  0.00000000000E+00 0.  1.
         21   -1    0    0  502  503 -0.00000000000E+00 -0.00000000000E+00 -0.12223947290E+03  0.12223947290E+03  0.00000000000E+00 0.  1.
         24    1    1    2    0    0 -0.10570552759E+03 -0.34315590444E+02 -0.12962627236E+01  0.13718642266E+03  0.80419002446E+02 0.  1.
          1    1    1    2  501    0  0.49262568627E+02  0.25415266711E+02  0.68742501443E+02  0.88307802341E+02  0.00000000000E+00 0. -1.
         -2    1    1    2    0  503  0.56442958965E+02  0.89003237332E+01 -0.24327436643E+02  0.62103522870E+02  0.00000000000E+00 0.  1.
<mgrwt>
<rscale>  2 0.12487648E+03</rscale>
<asrwt>0</asrwt>
<pdfrwt beam="1">  1       21 0.25439734E-01 0.12487648E+03</pdfrwt>
<pdfrwt beam="2">  1       21 0.18806073E-01 0.12487648E+03</pdfrwt>
<totfact> 0.38351713E+05</totfact>
</mgrwt>
</event>
<event>
 5    1  0.1708429E+000  0.8620983E+02  0.7546771E-02  0.1312299E+00
         21   -1    0    0  501  502  0.00000000000E+00  0.00000000000E+00  0.26967993405E+02  0.26967993405E+02  0.00000000000E+00 0.  1.
         21   -1    0    0  502  503 -0.00000000000E+00 -0.00000000000E+00 -0.37927197901E+03  0.37927197901E+03  0.00000000000E+00 0.  1.
         24    1    1    2    0    0 -0.26998507691E+02 -0.22435266376E+02 -0.13092921982E+03  0.15761325183E+03  0.80419002446E+02 0.  1.
          1    1    1    2  501    0  0.36871017149E+02 -0.19417595584E+02 -0.27236199008E+02  0.49782782769E+02  0.00000000000E+00 0. -1.
         -2    1    1    2    0  503 -0.98725094576E+01  0.41852861959E+02 -0.19413856678E+03  0.19884393782E+03  0.00000000000E+00 0.  1.
<mgrwt>
<rscale>  2 0.86209834E+02</rscale>
<asrwt>0</asrwt>
<pdfrwt beam="1">  1       21 0.41489222E-02 0.86209834E+02</pdfrwt>
<pdfrwt beam="2">  1       21 0.58349534E-01 0.86209834E+02</pdfrwt>
<totfact> 0.10118790E+06</totfact>
</mgrwt>
</event>
<event>
 5    1  0.1708429E+000  0.1236509E+03  0.7546771E-02  0.1237193E+00
         21   -1    0    0  501  502  0.00000000000E+00  0.00000000000E+00  0.44534756670E+03  0.44534756670E+03  0.00000000000E+00 0. -1.
         21   -1    0    0  502  503 -0.00000000000E+00 -0.00000000000E+00 -0.62755333205E+02  0.62755333205E+02  0.00000000000E+00 0. -1.
         24    1    1    2    0    0 -0.71812018498E+02 -0.83629762303E+02  0.28057993198E+03  0.31199874571E+03  0.80419002446E+02 0. -1.
          1    1    1    2  501    0  0.27219125694E+02  0.23284132392E+02  0.11455895723E+03  0.12002827295E+03  0.00000000000E+00 0. -1.
         -2    1    1    2    0  503  0.44592892804E+02  0.60345629911E+02 -0.12546655711E+02  0.76075881247E+02  0.00000000000E+00 0.  1.
<mgrwt>
<rscale>  2 0.12365090E+03</rscale>
<asrwt>0</asrwt>
<pdfrwt beam="1">  1       21 0.68515008E-01 0.12365090E+03</pdfrwt>
<pdfrwt beam="2">  1       21 0.96546669E-02 0.12365090E+03</pdfrwt>
<totfact> 0.17138525E+05</totfact>
</mgrwt>
</event>
<event>
 5    1  0.1708429E+000  0.1837000E+03  0.7546771E-02  0.1164269E+00
         21   -1    0    0  501  502  0.00000000000E+00  0.00000000000E+00  0.28361429745E+04  0.28361429745E+04  0.00000000000E+00 0.  1.
         21   -1    0    0  502  503 -0.00000000000E+00 -0.00000000000E+00 -0.12547053004E+02  0.12547053004E+02  0.00000000000E+00 0.  1.
         24    1    1    2    0    0 -0.10587835242E+03  0.13872462663E+03  0.17300120394E+04  0.17406503440E+04  0.80419002446E+02 0.  1.
          1    1    1    2  501    0  0.35028246122E+02 -0.34047917404E+02  0.40664116215E+03  0.40956473659E+03  0.00000000000E+00 0. -1.
         -2    1    1    2    0  503  0.70850106297E+02 -0.10467670923E+03  0.68694272001E+03  0.69847494700E+03  0.00000000000E+00 0.  1.
<mgrwt>
<rscale>  2 0.18370000E+03</rscale>
<asrwt>0</asrwt>
<pdfrwt beam="1">  1       21 0.43632918E+00 0.18370000E+03</pdfrwt>
<pdfrwt beam="2">  1       21 0.19303181E-02 0.18370000E+03</pdfrwt>
<totfact> 0.67574889E+03</totfact>
</mgrwt>
</event>
<event>
 5    1  0.1708429E+000  0.1211997E+03  0.7546771E-02  0.1241131E+00
         21   -1    0    0  503  502  0.00000000000E+00  0.00000000000E+00  0.95351087412E+03  0.95351087412E+03  0.00000000000E+00 0. -1.
         21   -1    0    0  501  503 -0.00000000000E+00 -0.00000000000E+00 -0.28986925356E+02  0.28986925356E+02  0.00000000000E+00 0. -1.
         24    1    1    2    0    0 -0.80526150648E+02 -0.71264379814E+01  0.14024872783E+03  0.18075444301E+03  0.80419002446E+02 0. -1.
          1    1    1    2  501    0  0.10076927139E+03  0.22134187852E+02  0.30836886013E+03  0.32517029728E+03  0.00000000000E+00 0. -1.
         -2    1    1    2    0  502 -0.20243120746E+02 -0.15007749871E+02  0.47590636080E+03  0.47657305919E+03  0.00000000000E+00 0.  1.
<mgrwt>
<rscale>  2 0.12119971E+03</rscale>
<asrwt>0</asrwt>
<pdfrwt beam="1">  1       21 0.14669396E+00 0.12119971E+03</pdfrwt>
<pdfrwt beam="2">  1       21 0.44595277E-02 0.12119971E+03</pdfrwt>
<totfact> 0.10713052E+05</totfact>
</mgrwt>
</event>
<event>
 5    1  0.1708429E+000  0.8833857E+02  0.7546771E-02  0.1306926E+00
         21   -1    0    0  503  502  0.00000000000E+00  0.00000000000E+00  0.66353641072E+03  0.66353641072E+03  0.00000000000E+00 0. -1.
         21   -1    0    0  501  503 -0.00000000000E+00 -0.00000000000E+00 -0.12682117587E+02  0.12682117587E+02  0.00000000000E+00 0.  1.
         24    1    1    2    0    0 -0.17984100538E+02  0.42831556440E+01  0.39630161229E+03  0.40480113284E+03  0.80419002446E+02 0. -1.
          1    1    1    2  501    0  0.53871915709E+02  0.11285410384E+02  0.15167354055E+03  0.16135181032E+03  0.00000000000E+00 0. -1.
         -2    1    1    2    0  502 -0.35887815170E+02 -0.15568566028E+02  0.10287914029E+03  0.11006558514E+03  0.00000000000E+00 0.  1.
<mgrwt>
<rscale>  2 0.88338570E+02</rscale>
<asrwt>0</asrwt>
<pdfrwt beam="1">  1       21 0.10208250E+00 0.88338570E+02</pdfrwt>
<pdfrwt beam="2">  1       21 0.19510955E-02 0.88338570E+02</pdfrwt>
<totfact> 0.10066374E+06</totfact>
</mgrwt>
</event>
<event>
 5    1  0.1708429E+000  0.7187023E+02  0.7546771E-02  0.1353846E+00
         21   -1    0    0  503  502  0.00000000000E+00  0.00000000000E+00  0.14769008165E+02  0.14769008165E+02  0.00000000000E+00 0. -1.
         21   -1    0    0  501  503 -0.00000000000E+00 -0.00000000000E+00 -0.37363172204E+03  0.37363172204E+03  0.00000000000E+00 0. -1.
         24    1    1    2    0    0  0.68435579732E+01 -0.14399417765E+02 -0.15443996272E+03  0.17485163871E+03  0.80419002446E+02 0. -1.
          1    1    1    2  501    0 -0.28650469329E+02  0.24524591383E+02 -0.12625034361E+03  0.13176287124E+03  0.00000000000E+00 0. -1.
         -2    1    1    2    0  502  0.21806911356E+02 -0.10125173618E+02 -0.78172407541E+02  0.81786220260E+02  0.00000000000E+00 0.  1.
<mgrwt>
<rscale>  2 0.71870227E+02</rscale>
<asrwt>0</asrwt>
<pdfrwt beam="1">  1       21 0.22721550E-02 0.71870227E+02</pdfrwt>
<pdfrwt beam="2">  1       21 0.57481807E-01 0.71870227E+02</pdfrwt>
<totfact> 0.27545256E+06</totfact>
</mgrwt>
</event>
<event>
 5    1  0.1708429E+000  0.8714731E+02  0.7546771E-02  0.1309911E+00
         21   -1    0    0  503  502  0.00000000000E+00  0.00000000000E+00  0.32434514699E+02  0.32434514699E+02  0.00000000000E+00 0.  1.
         21   -1    0    0  501  503 -0.00000000000E+00 -0.00000000000E+00 -0.26177671037E+03  0.26177671037E+03  0.00000000000E+00 0. -1.
         24    1    1    2    0    0 -0.13563647045E+02  0.83113326865E+01 -0.13870672645E+03  0.16112052225E+03  0.80419002446E+02 0. -1.
          1    1    1    2  501    0  0.39981868661E+02  0.26979905746E+02 -0.68455763481E+02  0.83741606681E+02  0.00000000000E+00 0. -1.
         -2    1    1    2    0  502 -0.26418221616E+02 -0.35291238432E+02 -0.22179705745E+02  0.49349096146E+02  0.00000000000E+00 0.  1.
<mgrwt>
<rscale>  2 0.87147310E+02</rscale>
<asrwt>0</asrwt>
<pdfrwt beam="1">  1       21 0.49899254E-02 0.87147310E+02</pdfrwt>
<pdfrwt beam="2">  1       21 0.40273340E-01 0.87147310E+02</pdfrwt>
<totfact> 0.15837220E+06</totfact>
</mgrwt>
</event>
<event>
 5    1  0.1708429E+000  0.7137405E+02  0.7546771E-02  0.1355482E+00
         21   -1    0    0  503  502  0.00000000000E+00  0.00000000000E+00  0.77928696710E+02  0.77928696710E+02  0.00000000000E+00 0.  1.
         21   -1    0    0  501  503 -0.00000000000E+00 -0.00000000000E+00 -0.57319535003E+03  0.57319535003E+03  0.00000000000E+00 0. -1.
         24    1    1    2    0    0  0.46105479797E+02  0.15634094394E+02 -0.29281514974E+03  0.30753547445E+03  0.80419002446E+02 0.  1.
          1    1    1    2  501    0 -0.22836219831E+02 -0.89856245292E+01 -0.27037306312E+03  0.27148448877E+03  0.00000000000E+00 0. -1.
         -2    1    1    2    0  502 -0.23269259966E+02 -0.66484698649E+01  0.67921559533E+02  0.72104083521E+02  0.00000000000E+00 0.  1.
<mgrwt>
<rscale>  2 0.71374052E+02</rscale>
<asrwt>0</asrwt>
<pdfrwt beam="1">  1       21 0.11989030E-01 0.71374052E+02</pdfrwt>
<pdfrwt beam="2">  1       21 0.88183904E-01 0.71374052E+02</pdfrwt>
<totfact> 0.69247218E+04</totfact>
</mgrwt>
</event>
<event>
 5    1  0.1708429E+000  0.7274256E+02  0.7546771E-02  0.1351008E+00
         21   -1    0    0  503  502  0.00000000000E+00  0.00000000000E+00  0.92256663820E+01  0.92256663820E+01  0.00000000000E+00 0.  1.
         21   -1    0    0  501  503 -0.00000000000E+00 -0.00000000000E+00 -0.96647880104E+03  0.96647880104E+03  0.00000000000E+00 0.  1.
         24    1    1    2    0    0  0.47739513752E+01  0.45985348986E+02 -0.82287638174E+03  0.82808827942E+03  0.80419002446E+02 0.  1.
          1    1    1    2  501    0 -0.14621257934E+02 -0.18842960416E+02 -0.99598520542E+02  0.10241437221E+03  0.00000000000E+00 0. -1.
         -2    1    1    2    0  502  0.98473065585E+01 -0.27142388570E+02 -0.34778232374E+02  0.45201815791E+02  0.00000000000E+00 0.  1.
<mgrwt>
<rscale>  2 0.72742564E+02</rscale>
<asrwt>0</asrwt>
<pdfrwt beam="1">  1       21 0.14193345E-02 0.72742564E+02</pdfrwt>
<pdfrwt beam="2">  1       21 0.14868892E+00 0.72742564E+02</pdfrwt>
<totfact> 0.67236565E+05</totfact>
</mgrwt>
</event>
<event>
 5    1  0.1708429E+000  0.8467696E+02  0.7546771E-02  0.1316279E+00
         21   -1    0    0  501  502  0.00000000000E+00  0.00000000000E+00  0.50645422199E+02  0.50645422199E+02  0.00000000000E+00 0. -1.
         21   -1    0    0  502  503 -0.00000000000E+00 -0.00000000000E+00 -0.15871133364E+03  0.15871133364E+03  0.00000000000E+00 0.  1.
         24    1    1    2    0    0  0.93783646337E+01 -0.13562740843E+02 -0.19257008462E+02  0.84320519399E+02  0.80419002446E+02 0. -1.
          1    1    1    2  501    0 -0.46816813523E+02 -0.16614276767E+01 -0.39469137622E+02  0.61256731834E+02  0.00000000000E+00 0. -1.
         -2    1    1    2    0  503  0.37438448889E+02  0.15224168520E+02 -0.49339765358E+02  0.63779504607E+02  0.00000000000E+00 0.  1.
<mgrwt>
<rscale>  2 0.84676957E+02</rscale>
<asrwt>0</asrwt>
<pdfrwt beam="1">  1       21 0.77916036E-02 0.84676957E+02</pdfrwt>
<pdfrwt beam="2">  1       21 0.24417128E-01 0.84676957E+02</pdfrwt>
<totfact> 0.19521710E+06</totfact>
</mgrwt>
</event>
<event>
 5    1  0.1708429E+000  0.1521415E+03  0.7546771E-02  0.1197866E+00
         21   -1    0    0  501  502  0.00000000000E+00  0.00000000000E+00  0.59040928255E+02  0.59040928255E+02  0.00000000000E+00 0.  1.
         21   -1    0    0  502  503 -0.00000000000E+00 -0.00000000000E+00 -0.40505188872E+03  0.40505188872E+03  0.00000000000E+00 0.  1.
         24    1    1    2    0    0  0.71634320859E+02  0.11361481756E+03 -0.19128081822E+03  0.24717477636E+03  0.80419002446E+02 0.  1.
          1    1    1    2  501    0  0.13745620127E+01 -0.52516169422E+02 -0.31707467729E+02  0.61361233538E+02  0.00000000000E+00 0. -1.
         -2    1    1    2    0  503 -0.73008882872E+02 -0.61098648141E+02 -0.12302267452E+03  0.15555680708E+03  0.00000000000E+00 0.  1.
<mgrwt>
<rscale>  2 0.15214146E+03</rscale>
<asrwt>0</asrwt>
<pdfrwt beam="1">  1       21 0.90832198E-02 0.15214146E+03</pdfrwt>
<pdfrwt beam="2">  1       21 0.62315675E-01 0.15214146E+03</pdfrwt>
<totfact> 0.23212426E+05</totfact>
</mgrwt>
</event>
<event>
 5    1  0.1708429E+000  0.8220827E+02  0.7546771E-02  0.1322899E+00
         21   -1    0    0  503  502  0.00000000000E+00  0.00000000000E+00  0.97515000348E+01  0.97515000348E+01  0.00000000000E+00 0.  1.
         21   -1    0    0  501  503 -0.00000000000E+00 -0.00000000000E+00 -0.11742324246E+04  0.11742324246E+04  0.00000000000E+00 0. -1.
         24    1    1    2    0    0  0.74735567237E+01  0.31251601854E+02 -0.62892026371E+03  0.63485465323E+03  0.80419002446E+02 0.  0.
          1    1    1    2  501    0 -0.22194099058E+02  0.16622883136E+02 -0.44316055884E+03  0.44402722798E+03  0.00000000000E+00 0. -1.
         -2    1    1    2    0  502  0.14720542335E+02 -0.47874484991E+02 -0.92400102025E+02  0.10510204343E+03  0.00000000000E+00 0.  1.
<mgrwt>
<rscale>  2 0.82208272E+02</rscale>
<asrwt>0</asrwt>
<pdfrwt beam="1">  1       21 0.15002307E-02 0.82208272E+02</pdfrwt>
<pdfrwt beam="2">  1       21 0.18065115E+00 0.82208272E+02</pdfrwt>
<totfact> 0.36974240E+05</totfact>
</mgrwt>
</event>
<event>
 5    1  0.1708429E+000  0.9333490E+02  0.7546771E-02  0.1294971E+00
         21   -1    0    0  503  502  0.00000000000E+00  0.00000000000E+00  0.37415868157E+03  0.37415868157E+03  0.00000000000E+00 0. -1.
         21   -1    0    0  501  503 -0.00000000000E+00 -0.00000000000E+00 -0.29092587468E+02  0.29092587468E+02  0.00000000000E+00 0.  1.
         24    1    1    2    0    0 -0.25615406560E+02  0.16114709235E+02  0.24998774996E+03  0.26434243699E+03  0.80419002446E+02 0. -1.
          1    1    1    2  501    0  0.44521137440E+02  0.28107369262E+02  0.42607146891E+02  0.67731269381E+02  0.00000000000E+00 0. -1.
         -2    1    1    2    0  502 -0.18905730880E+02 -0.44222078497E+02  0.52471197247E+02  0.71177562667E+02  0.00000000000E+00 0.  1.
<mgrwt>
<rscale>  2 0.93334896E+02</rscale>
<asrwt>0</asrwt>
<pdfrwt beam="1">  1       21 0.57562871E-01 0.93334896E+02</pdfrwt>
<pdfrwt beam="2">  1       21 0.44757829E-02 0.93334896E+02</pdfrwt>
<totfact> 0.91950649E+05</totfact>
</mgrwt>
</event>
<event>
 5    1  0.1708429E+000  0.6782866E+02  0.7546771E-02  0.1367636E+00
         21   -1    0    0  501  502  0.00000000000E+00  0.00000000000E+00  0.10779350542E+04  0.10779350542E+04  0.00000000000E+00 0. -1.
         21   -1    0    0  502  503 -0.00000000000E+00 -0.00000000000E+00 -0.13306269996E+02  0.13306269996E+02  0.00000000000E+00 0.  1.
         24    1    1    2    0    0  0.31792972186E+02 -0.25094212103E+02  0.60640243922E+03  0.61305109641E+03  0.80419002446E+02 0.  1.
          1    1    1    2  501    0 -0.22371314526E+02  0.42937660927E+01  0.45447959830E+03  0.45505012627E+03  0.00000000000E+00 0. -1.
         -2    1    1    2    0  503 -0.94216576598E+01  0.20800446010E+02  0.37467466685E+01  0.23140101510E+02  0.00000000000E+00 0.  1.
<mgrwt>
<rscale>  2 0.67828664E+02</rscale>
<asrwt>0</asrwt>
<pdfrwt beam="1">  1       21 0.16583609E+00 0.67828664E+02</pdfrwt>
<pdfrwt beam="2">  1       21 0.20471193E-02 0.67828664E+02</pdfrwt>
<totfact> 0.28559098E+05</totfact>
</mgrwt>
</event>
<event>
 5    1  0.1708429E+000  0.8299931E+02  0.7546771E-02  0.1320749E+00
         21   -1    0    0  501  502  0.00000000000E+00  0.00000000000E+00  0.41273846054E+03  0.41273846054E+03  0.00000000000E+00 0. -1.
         21   -1    0    0  502  503 -0.00000000000E+00 -0.00000000000E+00 -0.65114708239E+02  0.65114708239E+02  0.00000000000E+00 0. -1.
         24    1    1    2    0    0 -0.61335139467E+02 -0.16490045641E+02 -0.40338407861E+01  0.10255441855E+03  0.80419002446E+02 0. -1.
          1    1    1    2  501    0  0.24220354428E+02  0.59300483980E+01  0.33021170692E+03  0.33115187215E+03  0.00000000000E+00 0. -1.
         -2    1    1    2    0  503  0.37114785039E+02  0.10559997243E+02  0.21445886167E+02  0.44146878075E+02  0.00000000000E+00 0.  1.
<mgrwt>
<rscale>  2 0.82999313E+02</rscale>
<asrwt>0</asrwt>
<pdfrwt beam="1">  1       21 0.63498223E-01 0.82999313E+02</pdfrwt>
<pdfrwt beam="2">  1       21 0.10017648E-01 0.82999313E+02</pdfrwt>
<totfact> 0.19180192E+05</totfact>
</mgrwt>
</event>
<event>
 5    1  0.1708429E+000  0.6562583E+02  0.7546771E-02  0.1375633E+00
         21   -1    0    0  501  502  0.00000000000E+00  0.00000000000E+00  0.11171336249E+03  0.11171336249E+03  0.00000000000E+00 0.  1.
         21   -1    0    0  502  503 -0.00000000000E+00 -0.00000000000E+00 -0.41017691316E+02  0.41017691316E+02  0.00000000000E+00 0. -1.
         24    1    1    2    0    0  0.16186349385E+02  0.67692237688E+01  0.61916689708E+02  0.10299860541E+03  0.80419002446E+02 0. -1.
          1    1    1    2  501    0  0.96764056026E+01 -0.18240664063E+02  0.42109757068E+01  0.21073371046E+02  0.00000000000E+00 0. -1.
         -2    1    1    2    0  503 -0.25862754988E+02  0.11471440294E+02  0.45680057559E+01  0.28659077350E+02  0.00000000000E+00 0.  1.
<mgrwt>
<rscale>  2 0.65625825E+02</rscale>
<asrwt>0</asrwt>
<pdfrwt beam="1">  1       21 0.17186671E-01 0.65625825E+02</pdfrwt>
<pdfrwt beam="2">  1       21 0.63104141E-02 0.65625825E+02</pdfrwt>
<totfact> 0.52060929E+06</totfact>
</mgrwt>
</event>
<event>
 5    1  0.1708429E+000  0.6985197E+02  0.7546771E-02  0.1360597E+00
         21   -1    0    0  501  502  0.00000000000E+00  0.00000000000E+00  0.67497725826E+02  0.67497725826E+02  0.00000000000E+00 0.  1.
         21   -1    0    0  502  503 -0.00000000000E+00 -0.00000000000E+00 -0.19573063563E+03  0.19573063563E+03  0.00000000000E+00 0.  1.
         24    1    1    2    0    0  0.24673891076E+02 -0.17479780452E+02  0.14223707490E+02  0.87085437558E+02  0.80419002446E+02 0.  1.
          1    1    1    2  501    0 -0.28384438873E+02 -0.68316322734E+01  0.23250263355E+01  0.29287425922E+02  0.00000000000E+00 0. -1.
         -2    1    1    2    0  503  0.37105477966E+01  0.24311412725E+02 -0.14478164363E+03  0.14685549798E+03  0.00000000000E+00 0.  1.
<mgrwt>
<rscale>  2 0.69851970E+02</rscale>
<asrwt>0</asrwt>
<pdfrwt beam="1">  1       21 0.10384266E-01 0.69851970E+02</pdfrwt>
<pdfrwt beam="2">  1       21 0.30112405E-01 0.69851970E+02</pdfrwt>
<totfact> 0.80009760E+05</totfact>
</mgrwt>
</event>
<event>
 5    1  0.1708429E+000  0.1161480E+03  0.7546771E-02  0.1249590E+00
         21   -1    0    0  503  502  0.00000000000E+00  0.00000000000E+00  0.12740484814E+03  0.12740484814E+03  0.00000000000E+00 0. -1.
         21   -1    0    0  501  503 -0.00000000000E+00 -0.00000000000E+00 -0.22533625027E+03  0.22533625027E+03  0.00000000000E+00 0. -1.
         24    1    1    2    0    0  0.28357199691E+02 -0.51276226156E+02  0.23659205511E+02  0.10227588231E+03  0.80419002446E+02 0. -1.
          1    1    1    2  501    0 -0.39892931812E+02  0.86754762055E+02 -0.16658786177E+03  0.19201393292E+03  0.00000000000E+00 0. -1.
         -2    1    1    2    0  502  0.11535732121E+02 -0.35478535899E+02  0.44997254127E+02  0.58451283169E+02  0.00000000000E+00 0.  1.
<mgrwt>
<rscale>  2 0.11614797E+03</rscale>
<asrwt>0</asrwt>
<pdfrwt beam="1">  1       21 0.19600746E-01 0.11614797E+03</pdfrwt>
<pdfrwt beam="2">  1       21 0.34667115E-01 0.11614797E+03</pdfrwt>
<totfact> 0.19633519E+05</totfact>
</mgrwt>
</event>
<event>
 5    1  0.2475746E+000  0.9718769E+02  0.7546771E-02  0.1286324E+00
         21   -1    0    0  501  502  0.00000000000E+00  0.00000000000E+00  0.75362841161E+02  0.75362841161E+02  0.00000000000E+00 0.  1.
         21   -1    0    0  502  503 -0.00000000000E+00 -0.00000000000E+00 -0.59833593760E+03  0.59833593760E+03  0.00000000000E+00 0.  1.
         24    1    1    2    0    0 -0.74658455889E+01 -0.20008668586E+02  0.69324022449E+01  0.83494669436E+02  0.80419002446E+02 0.  1.
          1    1    1    2  501    0  0.32007622636E+02 -0.37106787161E+02  0.71849549576E+01  0.49528023764E+02  0.00000000000E+00 0. -1.
         -2    1    1    2    0  503 -0.24541777047E+02  0.57115455747E+02 -0.53709045365E+03  0.54067608557E+03  0.00000000000E+00 0.  1.
<mgrwt>
<rscale>  2 0.97187686E+02</rscale>
<asrwt>0</asrwt>
<pdfrwt beam="1">  1       21 0.11594284E-01 0.97187686E+02</pdfrwt>
<pdfrwt beam="2">  1       21 0.92051680E-01 0.97187686E+02</pdfrwt>
<totfact> 0.65397800E+04</totfact>
</mgrwt>
</event>
<event>
 5    1  0.1708429E+000  0.9324213E+02  0.7546771E-02  0.1295185E+00
         21   -1    0    0  501  502  0.00000000000E+00  0.00000000000E+00  0.65400390747E+02  0.65400390747E+02  0.00000000000E+00 0.  1.
         21   -1    0    0  502  503 -0.00000000000E+00 -0.00000000000E+00 -0.35257270067E+03  0.35257270067E+03  0.00000000000E+00 0.  1.
         24    1    1    2    0    0  0.62284555584E+02  0.22274675382E+02 -0.83362524148E+01  0.10446164888E+03  0.80419002446E+02 0.  1.
          1    1    1    2  501    0 -0.14606958735E+02  0.15669666056E+02  0.59873763021E+01  0.22242984350E+02  0.00000000000E+00 0. -1.
         -2    1    1    2    0  503 -0.47677596849E+02 -0.37944341439E+02 -0.28482343381E+03  0.29126845819E+03  0.00000000000E+00 0.  1.
<mgrwt>
<rscale>  2 0.93242135E+02</rscale>
<asrwt>0</asrwt>
<pdfrwt beam="1">  1       21 0.10061599E-01 0.93242135E+02</pdfrwt>
<pdfrwt beam="2">  1       21 0.54241954E-01 0.93242135E+02</pdfrwt>
<totfact> 0.26393063E+05</totfact>
</mgrwt>
</event>
<event>
 5    1  0.1708429E+000  0.9253818E+02  0.7546771E-02  0.1296819E+00
         21   -1    0    0  501  502  0.00000000000E+00  0.00000000000E+00  0.30588243778E+03  0.30588243778E+03  0.00000000000E+00 0.  1.
         21   -1    0    0  502  503 -0.00000000000E+00 -0.00000000000E+00 -0.70322838114E+02  0.70322838114E+02  0.00000000000E+00 0.  1.
         24    1    1    2    0    0  0.54137296622E+02  0.15424257207E+02  0.20134531499E+03  0.22399979111E+03  0.80419002446E+02 0.  1.
          1    1    1    2  501    0 -0.44386876041E+02  0.21073677448E+02  0.79359328428E+02  0.93339153919E+02  0.00000000000E+00 0. -1.
         -2    1    1    2    0  503 -0.97504205815E+01 -0.36497934655E+02 -0.45145043743E+02  0.58866330870E+02  0.00000000000E+00 0.  1.
<mgrwt>
<rscale>  2 0.92538177E+02</rscale>
<asrwt>0</asrwt>
<pdfrwt beam="1">  1       21 0.47058836E-01 0.92538177E+02</pdfrwt>
<pdfrwt beam="2">  1       21 0.10818898E-01 0.92538177E+02</pdfrwt>
<totfact> 0.31119427E+05</totfact>
</mgrwt>
</event>
<event>
 5    1  0.1708429E+000  0.6735237E+02  0.7546771E-02  0.1369335E+00
         21   -1    0    0  501  502  0.00000000000E+00  0.00000000000E+00  0.12752236944E+02  0.12752236944E+02  0.00000000000E+00 0.  1.
         21   -1    0    0  502  503 -0.00000000000E+00 -0.00000000000E+00 -0.36266125940E+03  0.36266125940E+03  0.00000000000E+00 0. -1.
         24    1    1    2    0    0 -0.34270639317E+01  0.30869878150E+01 -0.18325436690E+03  0.20017655508E+03  0.80419002446E+02 0.  1.
          1    1    1    2  501    0  0.13687718693E+02  0.22639931360E+02 -0.79371329747E+02  0.83664377849E+02  0.00000000000E+00 0. -1.
         -2    1    1    2    0  503 -0.10260654762E+02 -0.25726919175E+02 -0.87283325802E+02  0.91572563409E+02  0.00000000000E+00 0.  1.
<mgrwt>
<rscale>  2 0.67352370E+02</rscale>
<asrwt>0</asrwt>
<pdfrwt beam="1">  1       21 0.19618828E-02 0.67352370E+02</pdfrwt>
<pdfrwt beam="2">  1       21 0.55794033E-01 0.67352370E+02</pdfrwt>
<totfact> 0.36870366E+06</totfact>
</mgrwt>
</event>
<event>
 5    1  0.1708429E+000  0.1085480E+03  0.7546771E-02  0.1263283E+00
         21   -1    0    0  503  502  0.00000000000E+00  0.00000000000E+00  0.23346356592E+03  0.23346356592E+03  0.00000000000E+00 0.  1.
         21   -1    0    0  501  503 -0.00000000000E+00 -0.00000000000E+00 -0.61052447684E+02  0.61052447684E+02  0.00000000000E+00 0.  1.
         24    1    1    2    0    0  0.73427302520E+02 -0.12236133694E+02  0.25583672052E+02  0.11253013798E+03  0.80419002446E+02 0.  1.
          1    1    1    2  501    0 -0.11479534305E+02  0.38538861891E+02  0.53893484509E+02  0.67242332323E+02  0.00000000000E+00 0. -1.
         -2    1    1    2    0  502 -0.61947768216E+02 -0.26302728196E+02  0.92933961679E+02  0.11474354331E+03  0.00000000000E+00 0.  1.
<mgrwt>
<rscale>  2 0.10854804E+03</rscale>
<asrwt>0</asrwt>
<pdfrwt beam="1">  1       21 0.35917471E-01 0.10854804E+03</pdfrwt>
<pdfrwt beam="2">  1       21 0.93926844E-02 0.10854804E+03</pdfrwt>
<totfact> 0.68095913E+05</totfact>
</mgrwt>
</event>
<event>
 5    1  0.1708429E+000  0.9319439E+02  0.7546771E-02  0.1295295E+00
         21   -1    0    0  501  502  0.00000000000E+00  0.00000000000E+00  0.80021490214E+03  0.80021490214E+03  0.00000000000E+00 0. -1.
         21   -1    0    0  502  503 -0.00000000000E+00 -0.00000000000E+00 -0.19051248772E+02  0.19051248772E+02  0.00000000000E+00 0. -1.
         24    1    1    2    0    0  0.41110850793E+02  0.17616899991E+01  0.26245875121E+03  0.27756984283E+03  0.80419002446E+02 0. -1.
          1    1    1    2  501    0 -0.51231646275E+02 -0.34514263185E+02  0.49764319823E+03  0.50146252970E+03  0.00000000000E+00 0. -1.
         -2    1    1    2    0  503  0.10120795482E+02  0.32752573186E+02  0.21061703930E+02  0.40233778395E+02  0.00000000000E+00 0.  1.
<mgrwt>
<rscale>  2 0.93194391E+02</rscale>
<asrwt>0</asrwt>
<pdfrwt beam="1">  1       21 0.12310996E+00 0.93194391E+02</pdfrwt>
<pdfrwt beam="2">  1       21 0.29309620E-02 0.93194391E+02</pdfrwt>
<totfact> 0.33503199E+05</totfact>
</mgrwt>
</event>
<event>
 5    1  0.1708429E+000  0.1103558E+03  0.7546771E-02  0.1259912E+00
         21   -1    0    0  503  502  0.00000000000E+00  0.00000000000E+00  0.51363354004E+02  0.51363354004E+02  0.00000000000E+00 0. -1.
         21   -1    0    0  501  503 -0.00000000000E+00 -0.00000000000E+00 -0.39665056544E+03  0.39665056544E+03  0.00000000000E+00 0. -1.
         24    1    1    2    0    0  0.20584508594E+02  0.80221312428E+02 -0.16895470761E+03  0.20462670925E+03  0.80419002446E+02 0. -1.
          1    1    1    2  501    0 -0.37215049968E+02 -0.18908199079E+02 -0.17493174255E+03  0.17984324977E+03  0.00000000000E+00 0. -1.
         -2    1    1    2    0  502  0.16630541374E+02 -0.61313113349E+02 -0.14007612855E+01  0.63543960430E+02  0.00000000000E+00 0.  1.
<mgrwt>
<rscale>  2 0.11035578E+03</rscale>
<asrwt>0</asrwt>
<pdfrwt beam="1">  1       21 0.79020543E-02 0.11035578E+03</pdfrwt>
<pdfrwt beam="2">  1       21 0.61023165E-01 0.11035578E+03</pdfrwt>
<totfact> 0.31175897E+05</totfact>
</mgrwt>
</event>
<event>
 5    1  0.1708429E+000  0.7224645E+02  0.7546771E-02  0.1352616E+00
         21   -1    0    0  503  502  0.00000000000E+00  0.00000000000E+00  0.10979267085E+04  0.10979267085E+04  0.00000000000E+00 0. -1.
         21   -1    0    0  501  503 -0.00000000000E+00 -0.00000000000E+00 -0.11527958439E+02  0.11527958439E+02  0.00000000000E+00 0.  1.
         24    1    1    2    0    0 -0.43785381748E+01  0.41396144964E+02  0.18245751890E+03  0.20369284370E+03  0.80419002446E+02 0.  1.
          1    1    1    2  501    0 -0.14680190400E+02 -0.24004809049E+02  0.31451228498E+03  0.31576845354E+03  0.00000000000E+00 0. -1.
         -2    1    1    2    0  502  0.19058728575E+02 -0.17391335914E+02  0.58942894623E+03  0.58999336975E+03  0.00000000000E+00 0.  1.
<mgrwt>
<rscale>  2 0.72246452E+02</rscale>
<asrwt>0</asrwt>
<pdfrwt beam="1">  1       21 0.16891172E+00 0.72246452E+02</pdfrwt>
<pdfrwt beam="2">  1       21 0.17735329E-02 0.72246452E+02</pdfrwt>
<totfact> 0.34101956E+05</totfact>
</mgrwt>
</event>
<event>
 5    1  0.1708429E+000  0.7839566E+02  0.7546771E-02  0.1333667E+00
         21   -1    0    0  501  502  0.00000000000E+00  0.00000000000E+00  0.11215177633E+04  0.11215177633E+04  0.00000000000E+00 0.  1.
         21   -1    0    0  502  503 -0.00000000000E+00 -0.00000000000E+00 -0.66354390803E+01  0.66354390803E+01  0.00000000000E+00 0. -1.
         24    1    1    2    0    0  0.53510088484E+01  0.45976788837E+02  0.73588111351E+03  0.74170797999E+03  0.80419002446E+02 0.  0.
          1    1    1    2  501    0 -0.19799305497E+02 -0.48114822203E+01  0.23746890585E+03  0.23834144437E+03  0.00000000000E+00 0. -1.
         -2    1    1    2    0  503  0.14448296649E+02 -0.41165306617E+02  0.14153230491E+03  0.14810377807E+03  0.00000000000E+00 0.  1.
<mgrwt>
<rscale>  2 0.78395664E+02</rscale>
<asrwt>0</asrwt>
<pdfrwt beam="1">  1       21 0.17254104E+00 0.78395664E+02</pdfrwt>
<pdfrwt beam="2">  1       21 0.10208377E-02 0.78395664E+02</pdfrwt>
<totfact> 0.76613274E+05</totfact>
</mgrwt>
</event>
<event>
 5    1  0.1708429E+000  0.6958256E+02  0.7546771E-02  0.1361518E+00
         21   -1    0    0  503  502  0.00000000000E+00  0.00000000000E+00  0.49798602381E+02  0.49798602381E+02  0.00000000000E+00 0.  1.
         21   -1    0    0  501  503 -0.00000000000E+00 -0.00000000000E+00 -0.18686339887E+03  0.18686339887E+03  0.00000000000E+00 0.  1.
         24    1    1    2    0    0  0.85614690191E+01 -0.23697896140E+02 -0.14589843545E+03  0.16848874875E+03  0.80419002446E+02 0.  1.
          1    1    1    2  501    0 -0.25923979478E+02  0.51729169648E+00 -0.15618171774E+02  0.30269581964E+02  0.00000000000E+00 0. -1.
         -2    1    1    2    0  502  0.17362510459E+02  0.23180604443E+02  0.24451810739E+02  0.37903670537E+02  0.00000000000E+00 0.  1.
<mgrwt>
<rscale>  2 0.69582562E+02</rscale>
<asrwt>0</asrwt>
<pdfrwt beam="1">  1       21 0.76613235E-02 0.69582562E+02</pdfrwt>
<pdfrwt beam="2">  1       21 0.28748215E-01 0.69582562E+02</pdfrwt>
<totfact> 0.14677137E+06</totfact>
</mgrwt>
</event>
<event>
 5    1  0.1708429E+000  0.8987690E+02  0.7546771E-02  0.1303150E+00
         21   -1    0    0  503  502  0.00000000000E+00  0.00000000000E+00  0.15676118854E+03  0.15676118854E+03  0.00000000000E+00 0. -1.
         21   -1    0    0  501  503 -0.00000000000E+00 -0.00000000000E+00 -0.14292408804E+03  0.14292408804E+03  0.00000000000E+00 0. -1.
         24    1    1    2    0    0 -0.10734115576E+02  0.68421743422E+02  0.95981317179E+02  0.14309572115E+03  0.80419002446E+02 0. -1.
          1    1    1    2  501    0 -0.28662004778E+01 -0.52929095324E+02 -0.10990008768E+03  0.12201530031E+03  0.00000000000E+00 0. -1.
         -2    1    1    2    0  502  0.13600316054E+02 -0.15492648098E+02  0.27755871005E+02  0.34574255120E+02  0.00000000000E+00 0.  1.
<mgrwt>
<rscale>  2 0.89876905E+02</rscale>
<asrwt>0</asrwt>
<pdfrwt beam="1">  1       21 0.24117106E-01 0.89876905E+02</pdfrwt>
<pdfrwt beam="2">  1       21 0.21988321E-01 0.89876905E+02</pdfrwt>
<totfact> 0.31943421E+05</totfact>
</mgrwt>
</event>
<event>
 5    1  0.1708429E+000  0.7827885E+02  0.7546771E-02  0.1334008E+00
         21   -1    0    0  501  502  0.00000000000E+00  0.00000000000E+00  0.26784324984E+03  0.26784324984E+03  0.00000000000E+00 0.  1.
         21   -1    0    0  502  503 -0.00000000000E+00 -0.00000000000E+00 -0.23321540804E+02  0.23321540804E+02  0.00000000000E+00 0. -1.
         24    1    1    2    0    0 -0.22597913293E+02  0.45156859805E+02  0.13506329800E+03  0.16510335579E+03  0.80419002446E+02 0.  1.
          1    1    1    2  501    0  0.27077316154E+02 -0.14690324329E+02  0.65586783712E+02  0.72461112858E+02  0.00000000000E+00 0. -1.
         -2    1    1    2    0  503 -0.44794028607E+01 -0.30466535476E+02  0.43871627323E+02  0.53600321995E+02  0.00000000000E+00 0.  1.
<mgrwt>
<rscale>  2 0.78278854E+02</rscale>
<asrwt>0</asrwt>
<pdfrwt beam="1">  1       21 0.41206652E-01 0.78278854E+02</pdfrwt>
<pdfrwt beam="2">  1       21 0.35879295E-02 0.78278854E+02</pdfrwt>
<totfact> 0.25945488E+06</totfact>
</mgrwt>
</event>
<event>
 5    1  0.1708429E+000  0.9962723E+02  0.7546771E-02  0.1281082E+00
         21   -1    0    0  503  502  0.00000000000E+00  0.00000000000E+00  0.93366855194E+02  0.93366855194E+02  0.00000000000E+00 0.  1.
         21   -1    0    0  501  503 -0.00000000000E+00 -0.00000000000E+00 -0.24951610816E+03  0.24951610816E+03  0.00000000000E+00 0.  1.
         24    1    1    2    0    0  0.37477166024E+02 -0.64615823522E+02 -0.39743122259E+02  0.11673249052E+03  0.80419002446E+02 0.  1.
          1    1    1    2  501    0 -0.44307272719E+02  0.28369126355E+02 -0.16036059279E+03  0.16877044015E+03  0.00000000000E+00 0. -1.
         -2    1    1    2    0  502  0.68301066950E+01  0.36246697167E+02  0.43954462089E+02  0.57380032682E+02  0.00000000000E+00 0.  1.
<mgrwt>
<rscale>  2 0.99627233E+02</rscale>
<asrwt>0</asrwt>
<pdfrwt beam="1">  1       21 0.14364132E-01 0.99627233E+02</pdfrwt>
<pdfrwt beam="2">  1       21 0.38387094E-01 0.99627233E+02</pdfrwt>
<totfact> 0.28330458E+05</totfact>
</mgrwt>
</event>
<event>
 5    1  0.1708429E+000  0.8535527E+02  0.7546771E-02  0.1314506E+00
         21   -1    0    0  501  502  0.00000000000E+00  0.00000000000E+00  0.71214698728E+03  0.71214698728E+03  0.00000000000E+00 0.  1.
         21   -1    0    0  502  503 -0.00000000000E+00 -0.00000000000E+00 -0.23748283404E+02  0.23748283404E+02  0.00000000000E+00 0.  1.
         24    1    1    2    0    0 -0.27817151383E+02  0.15785757786E+02  0.58868602508E+03  0.59501381172E+03  0.80419002446E+02 0.  1.
          1    1    1    2  501    0 -0.24121464770E+02 -0.20977448671E+02  0.78095323023E+02  0.84384701774E+02  0.00000000000E+00 0. -1.
         -2    1    1    2    0  503  0.51938616153E+02  0.51916908854E+01  0.21617355770E+02  0.56496757187E+02  0.00000000000E+00 0.  1.
<mgrwt>
<rscale>  2 0.85355267E+02</rscale>
<asrwt>0</asrwt>
<pdfrwt beam="1">  1       21 0.10956106E+00 0.85355267E+02</pdfrwt>
<pdfrwt beam="2">  1       21 0.36535826E-02 0.85355267E+02</pdfrwt>
<totfact> 0.30954279E+05</totfact>
</mgrwt>
</event>
<event>
 5    1  0.1708429E+000  0.1168095E+03  0.7546771E-02  0.1248455E+00
         21   -1    0    0  501  502  0.00000000000E+00  0.00000000000E+00  0.43653159645E+02  0.43653159645E+02  0.00000000000E+00 0. -1.
         21   -1    0    0  502  503 -0.00000000000E+00 -0.00000000000E+00 -0.55020613263E+03  0.55020613263E+03  0.00000000000E+00 0.  1.
         24    1    1    2    0    0  0.58135112357E+02 -0.74925101239E+02 -0.44929321257E+03  0.46618136910E+03  0.80419002446E+02 0.  1.
          1    1    1    2  501    0 -0.35060746115E+02  0.47185600799E+01 -0.20596701710E+01  0.35436746022E+02  0.00000000000E+00 0. -1.
         -2    1    1    2    0  503 -0.23074366242E+02  0.70206541159E+02 -0.55200090248E+02  0.92241177152E+02  0.00000000000E+00 0.  1.
<mgrwt>
<rscale>  2 0.11680950E+03</rscale>
<asrwt>0</asrwt>
<pdfrwt beam="1">  1       21 0.67158708E-02 0.11680950E+03</pdfrwt>
<pdfrwt beam="2">  1       21 0.84647096E-01 0.11680950E+03</pdfrwt>
<totfact> 0.20113737E+05</totfact>
</mgrwt>
</event>
<event>
 5    1  0.1708429E+000  0.1349848E+03  0.7546771E-02  0.1220241E+00
         21   -1    0    0  503  502  0.00000000000E+00  0.00000000000E+00  0.18070228718E+03  0.18070228718E+03  0.00000000000E+00 0. -1.
         21   -1    0    0  501  503 -0.00000000000E+00 -0.00000000000E+00 -0.18244188068E+03  0.18244188068E+03  0.00000000000E+00 0.  1.
         24    1    1    2    0    0 -0.54710325014E+02 -0.22710044295E+02 -0.52144495517E+02  0.11267311189E+03  0.80419002446E+02 0.  1.
          1    1    1    2  501    0  0.87295217872E+02 -0.42574677083E+02 -0.62894365914E+02  0.11570980709E+03  0.00000000000E+00 0. -1.
         -2    1    1    2    0  502 -0.32584892858E+02  0.65284721379E+02  0.11329926793E+03  0.13476124889E+03  0.00000000000E+00 0.  1.
<mgrwt>
<rscale>  2 0.13498481E+03</rscale>
<asrwt>0</asrwt>
<pdfrwt beam="1">  1       21 0.27800352E-01 0.13498481E+03</pdfrwt>
<pdfrwt beam="2">  1       21 0.28067982E-01 0.13498481E+03</pdfrwt>
<totfact> 0.15256035E+05</totfact>
</mgrwt>
</event>
<event>
 5    1  0.1708429E+000  0.6229703E+02  0.7546771E-02  0.1388437E+00
         21   -1    0    0  503  502  0.00000000000E+00  0.00000000000E+00  0.12046590397E+03  0.12046590397E+03  0.00000000000E+00 0. -1.
         21   -1    0    0  501  503 -0.00000000000E+00 -0.00000000000E+00 -0.13807715859E+03  0.13807715859E+03  0.00000000000E+00 0. -1.
         24    1    1    2    0    0 -0.12163767599E+02  0.86593011638E+00  0.81912014625E+02  0.11543613460E+03  0.80419002446E+02 0. -1.
          1    1    1    2  501    0  0.96603385324E+01  0.20015483741E+02 -0.11491558250E+03  0.11704500344E+03  0.00000000000E+00 0. -1.
         -2    1    1    2    0  502  0.25034290663E+01 -0.20881413857E+02  0.15392313254E+02  0.26061924509E+02  0.00000000000E+00 0.  1.
<mgrwt>
<rscale>  2 0.62297034E+02</rscale>
<asrwt>0</asrwt>
<pdfrwt beam="1">  1       21 0.18533216E-01 0.62297034E+02</pdfrwt>
<pdfrwt beam="2">  1       21 0.21242640E-01 0.62297034E+02</pdfrwt>
<totfact> 0.55102943E+05</totfact>
</mgrwt>
</event>
<event>
 5    1  0.2115458E+000  0.7641783E+02  0.7546771E-02  0.1339536E+00
         21   -1    0    0  503  502  0.00000000000E+00  0.00000000000E+00  0.90485042463E+02  0.90485042463E+02  0.00000000000E+00 0.  1.
         21   -1    0    0  501  503 -0.00000000000E+00 -0.00000000000E+00 -0.86861873073E+03  0.86861873073E+03  0.00000000000E+00 0. -1.
         24    1    1    2    0    0 -0.11463043437E+02 -0.11390569176E+02 -0.80667484065E+01  0.82422295620E+02  0.80419002446E+02 0.  1.
          1    1    1    2  501    0  0.50148269203E+01 -0.29241561120E+02 -0.81512623948E+03  0.81566598781E+03  0.00000000000E+00 0. -1.
         -2    1    1    2    0  502  0.64482165168E+01  0.40632130296E+02  0.45059299619E+02  0.61015489761E+02  0.00000000000E+00 0.  1.
<mgrwt>
<rscale>  2 0.76417830E+02</rscale>
<asrwt>0</asrwt>
<pdfrwt beam="1">  1       21 0.13920776E-01 0.76417830E+02</pdfrwt>
<pdfrwt beam="2">  1       21 0.13363365E+00 0.76417830E+02</pdfrwt>
<totfact> 0.20050841E+04</totfact>
</mgrwt>
</event>
<event>
 5    1  0.1708429E+000  0.8921617E+02  0.7546771E-02  0.1304761E+00
         21   -1    0    0  503  502  0.00000000000E+00  0.00000000000E+00  0.29051404666E+02  0.29051404666E+02  0.00000000000E+00 0. -1.
         21   -1    0    0  501  503 -0.00000000000E+00 -0.00000000000E+00 -0.38075096777E+03  0.38075096777E+03  0.00000000000E+00 0.  1.
         24    1    1    2    0    0 -0.44447645931E+02 -0.18562784606E+02 -0.27983848940E+03  0.29512195158E+03  0.80419002446E+02 0.  1.
          1    1    1    2  501    0  0.55836434454E+02 -0.74150600845E+01 -0.63979287322E+02  0.85241068358E+02  0.00000000000E+00 0. -1.
         -2    1    1    2    0  502 -0.11388788522E+02  0.25977844690E+02 -0.78817863792E+01  0.29439352494E+02  0.00000000000E+00 0.  1.
<mgrwt>
<rscale>  2 0.89216171E+02</rscale>
<asrwt>0</asrwt>
<pdfrwt beam="1">  1       21 0.44694468E-02 0.89216171E+02</pdfrwt>
<pdfrwt beam="2">  1       21 0.58577073E-01 0.89216171E+02</pdfrwt>
<totfact> 0.88812959E+05</totfact>
</mgrwt>
</event>
<event>
 5    1  0.1708429E+000  0.1080558E+03  0.7546771E-02  0.1264213E+00
         21   -1    0    0  503  502  0.00000000000E+00  0.00000000000E+00  0.11838301838E+03  0.11838301838E+03  0.00000000000E+00 0. -1.
         21   -1    0    0  501  503 -0.00000000000E+00 -0.00000000000E+00 -0.24328241595E+03  0.24328241595E+03  0.00000000000E+00 0. -1.
         24    1    1    2    0    0 -0.19206322504E+02  0.90435130697E+02  0.17070512719E+02  0.12371747672E+03  0.80419002446E+02 0. -1.
          1    1    1    2  501    0  0.11948144135E+02 -0.24649946125E+02 -0.16546486352E+03  0.16771702076E+03  0.00000000000E+00 0. -1.
         -2    1    1    2    0  502  0.72581783689E+01 -0.65785184573E+02  0.23494953241E+02  0.70230936846E+02  0.00000000000E+00 0.  1.
<mgrwt>
<rscale>  2 0.10805576E+03</rscale>
<asrwt>0</asrwt>
<pdfrwt beam="1">  1       21 0.18212772E-01 0.10805576E+03</pdfrwt>
<pdfrwt beam="2">  1       21 0.37428063E-01 0.10805576E+03</pdfrwt>
<totfact> 0.19369139E+05</totfact>
</mgrwt>
</event>
<event>
 5    1  0.1708429E+000  0.9157464E+02  0.7546771E-02  0.1299083E+00
         21   -1    0    0  503  502  0.00000000000E+00  0.00000000000E+00  0.22380552998E+02  0.22380552998E+02  0.00000000000E+00 0. -1.
         21   -1    0    0  501  503 -0.00000000000E+00 -0.00000000000E+00 -0.49256661289E+03  0.49256661289E+03  0.00000000000E+00 0.  1.
         24    1    1    2    0    0  0.51535219371E+02  0.35684110250E+02 -0.34326329173E+03  0.35808677435E+03  0.80419002446E+02 0.  1.
          1    1    1    2  501    0 -0.35196206699E+02 -0.48845909467E+02 -0.12085321842E+03  0.13501924396E+03  0.00000000000E+00 0. -1.
         -2    1    1    2    0  502 -0.16339012671E+02  0.13161799217E+02 -0.60695497526E+01  0.21841147587E+02  0.00000000000E+00 0.  1.
<mgrwt>
<rscale>  2 0.91574644E+02</rscale>
<asrwt>0</asrwt>
<pdfrwt beam="1">  1       21 0.34431620E-02 0.91574644E+02</pdfrwt>
<pdfrwt beam="2">  1       21 0.75779478E-01 0.91574644E+02</pdfrwt>
<totfact> 0.78653646E+05</totfact>
</mgrwt>
</event>
<event>
 5    1  0.1708429E+000  0.1203901E+03  0.7546771E-02  0.1242455E+00
         21   -1    0    0  501  502  0.00000000000E+00  0.00000000000E+00  0.34778209412E+02  0.34778209412E+02  0.00000000000E+00 0. -1.
         21   -1    0    0  502  503 -0.00000000000E+00 -0.00000000000E+00 -0.41804373483E+03  0.41804373483E+03  0.00000000000E+00 0. -1.
         24    1    1    2    0    0 -0.71763324624E+02  0.75845430222E+02 -0.20291443406E+03  0.24195864843E+03  0.80419002446E+02 0. -1.
          1    1    1    2  501    0  0.67357897800E+02 -0.52971566228E+02 -0.13547100678E+03  0.16029805645E+03  0.00000000000E+00 0. -1.
         -2    1    1    2    0  503  0.44054268237E+01 -0.22873863994E+02 -0.44880084585E+02  0.50565239364E+02  0.00000000000E+00 0.  1.
<mgrwt>
<rscale>  2 0.12039010E+03</rscale>
<asrwt>0</asrwt>
<pdfrwt beam="1">  1       21 0.53504937E-02 0.12039010E+03</pdfrwt>
<pdfrwt beam="2">  1       21 0.64314421E-01 0.12039010E+03</pdfrwt>
<totfact> 0.53980592E+05</totfact>
</mgrwt>
</event>
<event>
 5    1  0.1708429E+000  0.8180355E+02  0.7546771E-02  0.1324010E+00
         21   -1    0    0  503  502  0.00000000000E+00  0.00000000000E+00  0.48473390347E+03  0.48473390347E+03  0.00000000000E+00 0.  1.
         21   -1    0    0  501  503 -0.00000000000E+00 -0.00000000000E+00 -0.19987944115E+02  0.19987944115E+02  0.00000000000E+00 0. -1.
         24    1    1    2    0    0  0.97111339513E+00 -0.12420361036E+02  0.97283058813E+02  0.12683224320E+03  0.80419002446E+02 0. -1.
          1    1    1    2  501    0 -0.21546137069E+02 -0.28912636535E+02  0.96407068969E+02  0.10292958526E+03  0.00000000000E+00 0. -1.
         -2    1    1    2    0  502  0.20575023674E+02  0.41332997570E+02  0.27105583157E+03  0.27496001912E+03  0.00000000000E+00 0.  1.
<mgrwt>
<rscale>  2 0.81803550E+02</rscale>
<asrwt>0</asrwt>
<pdfrwt beam="1">  1       21 0.74574438E-01 0.81803550E+02</pdfrwt>
<pdfrwt beam="2">  1       21 0.30750687E-02 0.81803550E+02</pdfrwt>
<totfact> 0.97808935E+05</totfact>
</mgrwt>
</event>
<event>
 5    1  0.1708429E+000  0.1679454E+03  0.7546771E-02  0.1180008E+00
         21   -1    0    0  501  502  0.00000000000E+00  0.00000000000E+00  0.15074180836E+03  0.15074180836E+03  0.00000000000E+00 0.  1.
         21   -1    0    0  502  503 -0.00000000000E+00 -0.00000000000E+00 -0.27572466585E+03  0.27572466585E+03  0.00000000000E+00 0.  1.
         24    1    1    2    0    0  0.10463410976E+03 -0.11860679601E+03  0.45937115903E+01  0.17749418899E+03  0.80419002446E+02 0.  1.
          1    1    1    2  501    0 -0.12724962308E+02  0.19565432117E+02  0.31196979356E+02  0.38961292594E+02  0.00000000000E+00 0. -1.
         -2    1    1    2    0  503 -0.91909147451E+02  0.99041363893E+02 -0.16077354844E+03  0.21001099263E+03  0.00000000000E+00 0.  1.
<mgrwt>
<rscale>  2 0.16794538E+03</rscale>
<asrwt>0</asrwt>
<pdfrwt beam="1">  1       21 0.23191048E-01 0.16794538E+03</pdfrwt>
<pdfrwt beam="2">  1       21 0.42419179E-01 0.16794538E+03</pdfrwt>
<totfact> 0.94343491E+04</totfact>
</mgrwt>
</event>
<event>
 5    1  0.1708429E+000  0.1390193E+03  0.7546771E-02  0.1214655E+00
         21   -1    0    0  501  502  0.00000000000E+00  0.00000000000E+00  0.51090809443E+03  0.51090809443E+03  0.00000000000E+00 0. -1.
         21   -1    0    0  502  503 -0.00000000000E+00 -0.00000000000E+00 -0.42937688441E+02  0.42937688441E+02  0.00000000000E+00 0. -1.
         24    1    1    2    0    0  0.11619508861E+03  0.34737261551E+02  0.32120680457E+03  0.35263154030E+03  0.80419002446E+02 0. -1.
          1    1    1    2  501    0 -0.85929119900E+02  0.68271728425E+00  0.11964566299E+03  0.14730704132E+03  0.00000000000E+00 0. -1.
         -2    1    1    2    0  503 -0.30265968705E+02 -0.35419978835E+02  0.27117938426E+02  0.53907201252E+02  0.00000000000E+00 0.  1.
<mgrwt>
<rscale>  2 0.13901928E+03</rscale>
<asrwt>0</asrwt>
<pdfrwt beam="1">  1       21 0.78601241E-01 0.13901928E+03</pdfrwt>
<pdfrwt beam="2">  1       21 0.66057986E-02 0.13901928E+03</pdfrwt>
<totfact> 0.24276098E+05</totfact>
</mgrwt>
</event>
<event>
 5    1  0.1708429E+000  0.8957566E+02  0.7546771E-02  0.1303883E+00
         21   -1    0    0  503  502  0.00000000000E+00  0.00000000000E+00  0.52436045838E+02  0.52436045838E+02  0.00000000000E+00 0. -1.
         21   -1    0    0  501  503 -0.00000000000E+00 -0.00000000000E+00 -0.18486488018E+03  0.18486488018E+03  0.00000000000E+00 0.  1.
         24    1    1    2    0    0  0.57039847117E+01 -0.49260948654E+02 -0.36550718287E+02  0.10130324509E+03  0.80419002446E+02 0.  0.
          1    1    1    2  501    0 -0.30016690914E+02  0.31313730643E+00 -0.68673846543E+02  0.74947961863E+02  0.00000000000E+00 0. -1.
         -2    1    1    2    0  502  0.24312706202E+02  0.48947811348E+02 -0.27204269515E+02  0.61049719070E+02  0.00000000000E+00 0.  1.
<mgrwt>
<rscale>  2 0.89575664E+02</rscale>
<asrwt>0</asrwt>
<pdfrwt beam="1">  1       21 0.80670840E-02 0.89575664E+02</pdfrwt>
<pdfrwt beam="2">  1       21 0.28440751E-01 0.89575664E+02</pdfrwt>
<totfact> 0.13839616E+06</totfact>
</mgrwt>
</event>
<event>
 5    1  0.1708429E+000  0.6612300E+02  0.7546771E-02  0.1373796E+00
         21   -1    0    0  501  502  0.00000000000E+00  0.00000000000E+00  0.39768141620E+03  0.39768141620E+03  0.00000000000E+00 0. -1.
         21   -1    0    0  502  503 -0.00000000000E+00 -0.00000000000E+00 -0.24840799711E+02  0.24840799711E+02  0.00000000000E+00 0.  1.
         24    1    1    2    0    0  0.23879125782E+02 -0.23421658485E+02  0.36035723526E+03  0.37073351574E+03  0.80419002446E+02 0. -1.
          1    1    1    2  501    0 -0.20432007254E+02 -0.10270569471E+01  0.17108441339E+02  0.26668718219E+02  0.00000000000E+00 0. -1.
         -2    1    1    2    0  503 -0.34471185277E+01  0.24448715432E+02 -0.46250601061E+01  0.25119981955E+02  0.00000000000E+00 0.  1.
<mgrwt>
<rscale>  2 0.66122999E+02</rscale>
<asrwt>0</asrwt>
<pdfrwt beam="1">  1       21 0.61181752E-01 0.66122999E+02</pdfrwt>
<pdfrwt beam="2">  1       21 0.38216618E-02 0.66122999E+02</pdfrwt>
<totfact> 0.10424341E+06</totfact>
</mgrwt>
</event>
<event>
 5    1  0.1708429E+000  0.8245135E+02  0.7546771E-02  0.1322235E+00
         21   -1    0    0  501  502  0.00000000000E+00  0.00000000000E+00  0.24198133261E+03  0.24198133261E+03  0.00000000000E+00 0. -1.
         21   -1    0    0  502  503 -0.00000000000E+00 -0.00000000000E+00 -0.69767457570E+02  0.69767457570E+02  0.00000000000E+00 0.  1.
         24    1    1    2    0    0  0.13916969250E+02  0.30287250660E+02  0.82433068745E+02  0.11988922538E+03  0.80419002446E+02 0. -1.
          1    1    1    2  501    0 -0.42678621743E+02 -0.14722337891E+02  0.13139389987E+03  0.13893368530E+03  0.00000000000E+00 0. -1.
         -2    1    1    2    0  503  0.28761652493E+02 -0.15564912769E+02 -0.41613093578E+02  0.52925879499E+02  0.00000000000E+00 0.  1.
<mgrwt>
<rscale>  2 0.82451353E+02</rscale>
<asrwt>0</asrwt>
<pdfrwt beam="1">  1       21 0.37227897E-01 0.82451353E+02</pdfrwt>
<pdfrwt beam="2">  1       21 0.10733455E-01 0.82451353E+02</pdfrwt>
<totfact> 0.50329456E+05</totfact>
</mgrwt>
</event>
<event>
 5    1  0.2178515E+000  0.1465888E+03  0.7546771E-02  0.1204728E+00
         21   -1    0    0  503  502  0.00000000000E+00  0.00000000000E+00  0.27534875733E+03  0.27534875733E+03  0.00000000000E+00 0.  1.
         21   -1    0    0  501  503 -0.00000000000E+00 -0.00000000000E+00 -0.11181254044E+03  0.11181254044E+03  0.00000000000E+00 0.  1.
         24    1    1    2    0    0  0.22197486944E+02 -0.20316818780E+02  0.23232813129E+02  0.88952128205E+02  0.80419002446E+02 0.  1.
          1    1    1    2  501    0 -0.21192436413E+02 -0.92294928983E+02 -0.25229849073E+02  0.98000094701E+02  0.00000000000E+00 0. -1.
         -2    1    1    2    0  502 -0.10050505305E+01  0.11261174776E+03  0.16553325283E+03  0.20020907486E+03  0.00000000000E+00 0.  1.
<mgrwt>
<rscale>  2 0.14658875E+03</rscale>
<asrwt>0</asrwt>
<pdfrwt beam="1">  1       21 0.42361347E-01 0.14658875E+03</pdfrwt>
<pdfrwt beam="2">  1       21 0.17201929E-01 0.14658875E+03</pdfrwt>
<totfact> 0.16602519E+05</totfact>
</mgrwt>
</event>
<event>
 5    1  0.1708429E+000  0.8252862E+02  0.7546771E-02  0.1322025E+00
         21   -1    0    0  503  502  0.00000000000E+00  0.00000000000E+00  0.38665622778E+03  0.38665622778E+03  0.00000000000E+00 0.  1.
         21   -1    0    0  501  503 -0.00000000000E+00 -0.00000000000E+00 -0.12613659227E+03  0.12613659227E+03  0.00000000000E+00 0. -1.
         24    1    1    2    0    0  0.55235617160E+02 -0.17522280795E+02 -0.37263624650E+02  0.10589521898E+03  0.80419002446E+02 0. -1.
          1    1    1    2  501    0 -0.27196607286E+02  0.24972964983E+02 -0.47631491132E+02  0.60266602487E+02  0.00000000000E+00 0. -1.
         -2    1    1    2    0  502 -0.28039009875E+02 -0.74506841873E+01  0.34541475129E+03  0.34663099858E+03  0.00000000000E+00 0.  1.
<mgrwt>
<rscale>  2 0.82528622E+02</rscale>
<asrwt>0</asrwt>
<pdfrwt beam="1">  1       21 0.59485573E-01 0.82528622E+02</pdfrwt>
<pdfrwt beam="2">  1       21 0.19405630E-01 0.82528622E+02</pdfrwt>
<totfact> 0.68206747E+04</totfact>
</mgrwt>
</event>
<event>
 5    1  0.1708429E+000  0.8776970E+02  0.7546771E-02  0.1308344E+00
         21   -1    0    0  503  502  0.00000000000E+00  0.00000000000E+00  0.12752248629E+04  0.12752248629E+04  0.00000000000E+00 0. -1.
         21   -1    0    0  501  503 -0.00000000000E+00 -0.00000000000E+00 -0.62967480203E+01  0.62967480203E+01  0.00000000000E+00 0. -1.
         24    1    1    2    0    0  0.51894440315E+02  0.17664401265E+02  0.61564377182E+03  0.62328928576E+03  0.80419002446E+02 0. -1.
          1    1    1    2  501    0 -0.19221732372E+02  0.20413987206E+02  0.16373633913E+03  0.16611982007E+03  0.00000000000E+00 0. -1.
         -2    1    1    2    0  502 -0.32672707943E+02 -0.38078388471E+02  0.48954800388E+03  0.49211250504E+03  0.00000000000E+00 0.  1.
<mgrwt>
<rscale>  2 0.87769696E+02</rscale>
<asrwt>0</asrwt>
<pdfrwt beam="1">  1       21 0.19618824E+00 0.87769696E+02</pdfrwt>
<pdfrwt beam="2">  1       21 0.96873148E-03 0.87769696E+02</pdfrwt>
<totfact> 0.58374760E+05</totfact>
</mgrwt>
</event>
<event>
 5    1  0.1708429E+000  0.7593747E+02  0.7546771E-02  0.1340992E+00
         21   -1    0    0  501  502  0.00000000000E+00  0.00000000000E+00  0.10873263371E+04  0.10873263371E+04  0.00000000000E+00 0.  1.
         21   -1    0    0  502  503 -0.00000000000E+00 -0.00000000000E+00 -0.12969430360E+02  0.12969430360E+02  0.00000000000E+00 0. -1.
         24    1    1    2    0    0 -0.29964711320E+02 -0.45578528549E+02  0.41133183222E+03  0.42265396998E+03  0.80419002446E+02 0.  1.
          1    1    1    2  501    0  0.14155855722E+02  0.17825615533E+02  0.63422986566E+03  0.63463821451E+03  0.00000000000E+00 0. -1.
         -2    1    1    2    0  503  0.15808855598E+02  0.27752913016E+02  0.28795208904E+02  0.43003583014E+02  0.00000000000E+00 0.  1.
<mgrwt>
<rscale>  2 0.75937470E+02</rscale>
<asrwt>0</asrwt>
<pdfrwt beam="1">  1       21 0.16728090E+00 0.75937470E+02</pdfrwt>
<pdfrwt beam="2">  1       21 0.19952978E-02 0.75937470E+02</pdfrwt>
<totfact> 0.28955928E+05</totfact>
</mgrwt>
</event>
<event>
 5    1  0.1708429E+000  0.7264935E+02  0.7546771E-02  0.1351309E+00
         21   -1    0    0  503  502  0.00000000000E+00  0.00000000000E+00  0.21541036853E+02  0.21541036853E+02  0.00000000000E+00 0. -1.
         21   -1    0    0  501  503 -0.00000000000E+00 -0.00000000000E+00 -0.32184402231E+03  0.32184402231E+03  0.00000000000E+00 0. -1.
         24    1    1    2    0    0 -0.28151761321E+02  0.98925473469E+01 -0.90185124558E+02  0.12446267233E+03  0.80419002446E+02 0. -1.
          1    1    1    2  501    0  0.49667907422E+01  0.20614756077E+02 -0.10292956422E+03  0.10509106702E+03  0.00000000000E+00 0. -1.
         -2    1    1    2    0  502  0.23184970579E+02 -0.30507303424E+02 -0.10718829668E+03  0.11383131980E+03  0.00000000000E+00 0.  1.
<mgrwt>
<rscale>  2 0.72649352E+02</rscale>
<asrwt>0</asrwt>
<pdfrwt beam="1">  1       21 0.33140059E-02 0.72649352E+02</pdfrwt>
<pdfrwt beam="2">  1       21 0.49514461E-01 0.72649352E+02</pdfrwt>
<totfact> 0.20372324E+06</totfact>
</mgrwt>
</event>
<event>
 5    1  0.1708429E+000  0.7460363E+02  0.7546771E-02  0.1345103E+00
         21   -1    0    0  501  502  0.00000000000E+00  0.00000000000E+00  0.14104410516E+02  0.14104410516E+02  0.00000000000E+00 0. -1.
         21   -1    0    0  502  503 -0.00000000000E+00 -0.00000000000E+00 -0.12009071811E+04  0.12009071811E+04  0.00000000000E+00 0. -1.
         24    1    1    2    0    0 -0.81150083819E+01 -0.22166901172E+02 -0.55904560857E+03  0.56529322770E+03  0.80419002446E+02 0. -1.
          1    1    1    2  501    0 -0.26573819229E+02  0.66445752976E+01 -0.76395172298E+01  0.28437307763E+02  0.00000000000E+00 0. -1.
         -2    1    1    2    0  503  0.34688827611E+02  0.15522325874E+02 -0.62011764480E+03  0.62128105616E+03  0.00000000000E+00 0.  1.
<mgrwt>
<rscale>  2 0.74603631E+02</rscale>
<asrwt>0</asrwt>
<pdfrwt beam="1">  1       21 0.21699094E-02 0.74603631E+02</pdfrwt>
<pdfrwt beam="2">  1       21 0.18475495E+00 0.74603631E+02</pdfrwt>
<totfact> 0.19453193E+05</totfact>
</mgrwt>
</event>
<event>
 5    1  0.1708429E+000  0.6941221E+02  0.7546771E-02  0.1362103E+00
         21   -1    0    0  503  502  0.00000000000E+00  0.00000000000E+00  0.22901241064E+03  0.22901241064E+03  0.00000000000E+00 0. -1.
         21   -1    0    0  501  503 -0.00000000000E+00 -0.00000000000E+00 -0.41111052297E+02  0.41111052297E+02  0.00000000000E+00 0.  1.
         24    1    1    2    0    0  0.35990209617E+02  0.25776309551E+02  0.14015857327E+03  0.16754508330E+03  0.80419002446E+02 0. -1.
          1    1    1    2  501    0 -0.10894626496E+02 -0.17475460332E+02 -0.20705992124E+02  0.29203128431E+02  0.00000000000E+00 0. -1.
         -2    1    1    2    0  502 -0.25095583120E+02 -0.83008492197E+01  0.68448777202E+02  0.73375251212E+02  0.00000000000E+00 0.  1.
<mgrwt>
<rscale>  2 0.69412206E+02</rscale>
<asrwt>0</asrwt>
<pdfrwt beam="1">  1       21 0.35232678E-01 0.69412206E+02</pdfrwt>
<pdfrwt beam="2">  1       21 0.63247774E-02 0.69412206E+02</pdfrwt>
<totfact> 0.13743990E+06</totfact>
</mgrwt>
</event>
<event>
 5    1  0.1708429E+000  0.7131706E+02  0.7546771E-02  0.1355671E+00
         21   -1    0    0  501  502  0.00000000000E+00  0.00000000000E+00  0.46577046761E+03  0.46577046761E+03  0.00000000000E+00 0. -1.
         21   -1    0    0  502  503 -0.00000000000E+00 -0.00000000000E+00 -0.11280183024E+02  0.11280183024E+02  0.00000000000E+00 0.  1.
         24    1    1    2    0    0  0.34900469026E+02  0.24017089571E+02  0.26618830515E+03  0.28127974168E+03  0.80419002446E+02 0. -1.
          1    1    1    2  501    0 -0.27039082284E+02 -0.60977850522E+00  0.12343292887E+03  0.12636127465E+03  0.00000000000E+00 0. -1.
         -2    1    1    2    0  503 -0.78613867426E+01 -0.23407311066E+02  0.64869050566E+02  0.69409634304E+02  0.00000000000E+00 0.  1.
<mgrwt>
<rscale>  2 0.71317057E+02</rscale>
<asrwt>0</asrwt>
<pdfrwt beam="1">  1       21 0.71656980E-01 0.71317057E+02</pdfrwt>
<pdfrwt beam="2">  1       21 0.17354131E-02 0.71317057E+02</pdfrwt>
<totfact> 0.26542962E+06</totfact>
</mgrwt>
</event>
<event>
 5    1  0.1708429E+000  0.8052430E+02  0.7546771E-02  0.1327570E+00
         21   -1    0    0  503  502  0.00000000000E+00  0.00000000000E+00  0.10585130660E+03  0.10585130660E+03  0.00000000000E+00 0.  1.
         21   -1    0    0  501  503 -0.00000000000E+00 -0.00000000000E+00 -0.61453566981E+02  0.61453566981E+02  0.00000000000E+00 0. -1.
         24    1    1    2    0    0 -0.18906985200E+02  0.14355583525E+02  0.20349042397E+02  0.86283580990E+02  0.80419002446E+02 0.  0.
          1    1    1    2  501    0 -0.28364932051E+02 -0.25776792916E+01  0.62877700513E+01  0.29167616513E+02  0.00000000000E+00 0. -1.
         -2    1    1    2    0  502  0.47271917251E+02 -0.11777904234E+02  0.17760927171E+02  0.51853676077E+02  0.00000000000E+00 0.  1.
<mgrwt>
<rscale>  2 0.80524296E+02</rscale>
<asrwt>0</asrwt>
<pdfrwt beam="1">  1       21 0.16284816E-01 0.80524296E+02</pdfrwt>
<pdfrwt beam="2">  1       21 0.94543949E-02 0.80524296E+02</pdfrwt>
<totfact> 0.29303677E+06</totfact>
</mgrwt>
</event>
<event>
 5    1  0.1708429E+000  0.1043007E+03  0.7546771E-02  0.1271504E+00
         21   -1    0    0  503  502  0.00000000000E+00  0.00000000000E+00  0.71343495486E+02  0.71343495486E+02  0.00000000000E+00 0. -1.
         21   -1    0    0  501  503 -0.00000000000E+00 -0.00000000000E+00 -0.29475835723E+03  0.29475835723E+03  0.00000000000E+00 0. -1.
         24    1    1    2    0    0  0.55488994875E+01 -0.85722726512E+02 -0.23038001131E+02  0.11990471874E+03  0.80419002446E+02 0. -1.
          1    1    1    2  501    0 -0.17119938396E+02  0.64778921681E+02 -0.20998253736E+03  0.22041340019E+03  0.00000000000E+00 0. -1.
         -2    1    1    2    0  502  0.11571038908E+02  0.20943804831E+02  0.96056767482E+01  0.25783733787E+02  0.00000000000E+00 0.  1.
<mgrwt>
<rscale>  2 0.10430066E+03</rscale>
<asrwt>0</asrwt>
<pdfrwt beam="1">  1       21 0.10975923E-01 0.10430066E+03</pdfrwt>
<pdfrwt beam="2">  1       21 0.45347439E-01 0.10430066E+03</pdfrwt>
<totfact> 0.32641476E+05</totfact>
</mgrwt>
</event>
<event>
 5    1  0.1708429E+000  0.7221011E+02  0.7546771E-02  0.1352735E+00
         21   -1    0    0  501  502  0.00000000000E+00  0.00000000000E+00  0.10178018173E+02  0.10178018173E+02  0.00000000000E+00 0. -1.
         21   -1    0    0  502  503 -0.00000000000E+00 -0.00000000000E+00 -0.85568194758E+03  0.85568194758E+03  0.00000000000E+00 0. -1.
         24    1    1    2    0    0  0.36711203834E+02 -0.24968884070E+02 -0.66439491396E+03  0.67071527141E+03  0.80419002446E+02 0. -1.
          1    1    1    2  501    0 -0.20324653033E+02 -0.25980857066E+01 -0.13598285774E+02  0.24591765822E+02  0.00000000000E+00 0. -1.
         -2    1    1    2    0  503 -0.16386550801E+02  0.27566969776E+02 -0.16751072968E+03  0.17055292852E+03  0.00000000000E+00 0.  1.
<mgrwt>
<rscale>  2 0.72210110E+02</rscale>
<asrwt>0</asrwt>
<pdfrwt beam="1">  1       21 0.15658487E-02 0.72210110E+02</pdfrwt>
<pdfrwt beam="2">  1       21 0.13164339E+00 0.72210110E+02</pdfrwt>
<totfact> 0.77886542E+05</totfact>
</mgrwt>
</event>
<event>
 5    1  0.1708429E+000  0.1590450E+03  0.7546771E-02  0.1189779E+00
         21   -1    0    0  503  502  0.00000000000E+00  0.00000000000E+00  0.54922799967E+02  0.54922799967E+02  0.00000000000E+00 0. -1.
         21   -1    0    0  501  503 -0.00000000000E+00 -0.00000000000E+00 -0.71312360070E+03  0.71312360070E+03  0.00000000000E+00 0. -1.
         24    1    1    2    0    0 -0.96203663959E+02  0.56386864799E+02 -0.88258578279E+02  0.16337507789E+03  0.80419002446E+02 0. -1.
          1    1    1    2  501    0  0.12370812226E+03 -0.77458921816E+02 -0.53833957124E+03  0.55777511422E+03  0.00000000000E+00 0. -1.
         -2    1    1    2    0  502 -0.27504458300E+02  0.21072057017E+02 -0.31602651215E+02  0.46896208558E+02  0.00000000000E+00 0.  1.
<mgrwt>
<rscale>  2 0.15904503E+03</rscale>
<asrwt>0</asrwt>
<pdfrwt beam="1">  1       21 0.84496621E-02 0.15904503E+03</pdfrwt>
<pdfrwt beam="2">  1       21 0.10971132E+00 0.15904503E+03</pdfrwt>
<totfact> 0.72871128E+04</totfact>
</mgrwt>
</event>
<event>
 5    1  0.1708429E+000  0.8747772E+02  0.7546771E-02  0.1309077E+00
         21   -1    0    0  501  502  0.00000000000E+00  0.00000000000E+00  0.90054946120E+02  0.90054946120E+02  0.00000000000E+00 0. -1.
         21   -1    0    0  502  503 -0.00000000000E+00 -0.00000000000E+00 -0.16856699986E+03  0.16856699986E+03  0.00000000000E+00 0.  1.
         24    1    1    2    0    0 -0.31713313190E+02  0.24273309870E+02 -0.74786749151E+02  0.11685547316E+03  0.80419002446E+02 0.  1.
          1    1    1    2  501    0 -0.21388882120E+02  0.82167966259E+01  0.52877093539E+02  0.57628005746E+02  0.00000000000E+00 0. -1.
         -2    1    1    2    0  503  0.53102195310E+02 -0.32490106496E+02 -0.56602398127E+02  0.84138467069E+02  0.00000000000E+00 0.  1.
<mgrwt>
<rscale>  2 0.87477717E+02</rscale>
<asrwt>0</asrwt>
<pdfrwt beam="1">  1       21 0.13854607E-01 0.87477717E+02</pdfrwt>
<pdfrwt beam="2">  1       21 0.25933384E-01 0.87477717E+02</pdfrwt>
<totfact> 0.64284420E+05</totfact>
</mgrwt>
</event>
<event>
 5    1  0.1708429E+000  0.8121862E+02  0.7546771E-02  0.1325628E+00
         21   -1    0    0  503  502  0.00000000000E+00  0.00000000000E+00  0.19822560192E+04  0.19822560192E+04  0.00000000000E+00 0.  1.
         21   -1    0    0  501  503 -0.00000000000E+00 -0.00000000000E+00 -0.48332684169E+01  0.48332684169E+01  0.00000000000E+00 0. -1.
         24    1    1    2    0    0  0.46292089876E+02  0.20784339424E+02  0.99107160877E+03  0.99562296880E+03  0.80419002446E+02 0. -1.
          1    1    1    2  501    0 -0.47940956974E+01 -0.25165727664E+02  0.76832512964E+02  0.80990939313E+02  0.00000000000E+00 0. -1.
         -2    1    1    2    0  502 -0.41497994179E+02  0.43813882406E+01  0.90951862902E+03  0.91047537947E+03  0.00000000000E+00 0.  1.
<mgrwt>
<rscale>  2 0.81218616E+02</rscale>
<asrwt>0</asrwt>
<pdfrwt beam="1">  1       21 0.30496182E+00 0.81218616E+02</pdfrwt>
<pdfrwt beam="2">  1       21 0.74358134E-03 0.81218616E+02</pdfrwt>
<totfact> 0.21476469E+05</totfact>
</mgrwt>
</event>
<event>
 5    1  0.1708429E+000  0.9875475E+02  0.7546771E-02  0.1282937E+00
         21   -1    0    0  503  502  0.00000000000E+00  0.00000000000E+00  0.37126911620E+02  0.37126911620E+02  0.00000000000E+00 0. -1.
         21   -1    0    0  501  503 -0.00000000000E+00 -0.00000000000E+00 -0.72356778191E+03  0.72356778191E+03  0.00000000000E+00 0. -1.
         24    1    1    2    0    0 -0.34123461853E+01 -0.35276877039E+02 -0.38183040148E+02  0.95818905595E+02  0.80419002446E+02 0. -1.
          1    1    1    2  501    0 -0.22146845432E+02 -0.31282732349E+02 -0.48764400828E+03  0.48914800513E+03  0.00000000000E+00 0. -1.
         -2    1    1    2    0  502  0.25559191617E+02  0.66559609388E+02 -0.16061382186E+03  0.17572778280E+03  0.00000000000E+00 0.  1.
<mgrwt>
<rscale>  2 0.98754746E+02</rscale>
<asrwt>0</asrwt>
<pdfrwt beam="1">  1       21 0.57118328E-02 0.98754746E+02</pdfrwt>
<pdfrwt beam="2">  1       21 0.11131811E+00 0.98754746E+02</pdfrwt>
<totfact> 0.14139499E+05</totfact>
</mgrwt>
</event>
<event>
 5    1  0.1708429E+000  0.7989434E+02  0.7546771E-02  0.1329352E+00
         21   -1    0    0  503  502  0.00000000000E+00  0.00000000000E+00  0.10107604105E+02  0.10107604105E+02  0.00000000000E+00 0. -1.
         21   -1    0    0  501  503 -0.00000000000E+00 -0.00000000000E+00 -0.71830711852E+03  0.71830711852E+03  0.00000000000E+00 0.  1.
         24    1    1    2    0    0 -0.23889356333E+02  0.42166234286E+02 -0.48166090063E+03  0.49072714599E+03  0.80419002446E+02 0. -1.
          1    1    1    2  501    0  0.23107929562E+02  0.60634728785E+00 -0.13078510924E+03  0.13281223161E+03  0.00000000000E+00 0. -1.
         -2    1    1    2    0  502  0.78142677083E+00 -0.42772581574E+02 -0.95753504543E+02  0.10487534503E+03  0.00000000000E+00 0.  1.
<mgrwt>
<rscale>  2 0.79894336E+02</rscale>
<asrwt>0</asrwt>
<pdfrwt beam="1">  1       21 0.15550152E-02 0.79894336E+02</pdfrwt>
<pdfrwt beam="2">  1       21 0.11050884E+00 0.79894336E+02</pdfrwt>
<totfact> 0.11978471E+06</totfact>
</mgrwt>
</event>
<event>
 5    1  0.1708429E+000  0.8172990E+02  0.7546771E-02  0.1324213E+00
         21   -1    0    0  503  502  0.00000000000E+00  0.00000000000E+00  0.13947293114E+03  0.13947293114E+03  0.00000000000E+00 0.  1.
         21   -1    0    0  501  503 -0.00000000000E+00 -0.00000000000E+00 -0.11662507850E+03  0.11662507850E+03  0.00000000000E+00 0. -1.
         24    1    1    2    0    0  0.19139028618E+02  0.35506007249E+01 -0.86856204664E+01  0.83195944247E+02  0.80419002446E+02 0. -1.
          1    1    1    2  501    0 -0.47522219457E+02  0.11064778230E+02 -0.59199616204E+02  0.76716264365E+02  0.00000000000E+00 0. -1.
         -2    1    1    2    0  502  0.28383190839E+02 -0.14615378955E+02  0.90733089307E+02  0.96185801028E+02  0.00000000000E+00 0.  1.
<mgrwt>
<rscale>  2 0.81729903E+02</rscale>
<asrwt>0</asrwt>
<pdfrwt beam="1">  1       21 0.21457374E-01 0.81729903E+02</pdfrwt>
<pdfrwt beam="2">  1       21 0.17942320E-01 0.81729903E+02</pdfrwt>
<totfact> 0.57509130E+05</totfact>
</mgrwt>
</event>
<event>
 5    1  0.1708429E+000  0.1033630E+03  0.7546771E-02  0.1273379E+00
         21   -1    0    0  503  502  0.00000000000E+00  0.00000000000E+00  0.13688637827E+03  0.13688637827E+03  0.00000000000E+00 0.  1.
         21   -1    0    0  501  503 -0.00000000000E+00 -0.00000000000E+00 -0.97610017943E+02  0.97610017943E+02  0.00000000000E+00 0. -1.
         24    1    1    2    0    0  0.58978172817E+02 -0.61713677894E+02  0.61392836658E+02  0.13237559917E+03  0.80419002446E+02 0.  1.
          1    1    1    2  501    0 -0.34281676714E+02  0.53269754108E+02 -0.35682236526E+02  0.72705722365E+02  0.00000000000E+00 0. -1.
         -2    1    1    2    0  502 -0.24696496103E+02  0.84439237854E+01  0.13565760193E+02  0.29415074677E+02  0.00000000000E+00 0.  1.
<mgrwt>
<rscale>  2 0.10336298E+03</rscale>
<asrwt>0</asrwt>
<pdfrwt beam="1">  1       21 0.21059443E-01 0.10336298E+03</pdfrwt>
<pdfrwt beam="2">  1       21 0.15016926E-01 0.10336298E+03</pdfrwt>
<totfact> 0.82156829E+05</totfact>
</mgrwt>
</event>
<event>
 5    1  0.1708429E+000  0.8370270E+02  0.7546771E-02  0.1318860E+00
         21   -1    0    0  503  502  0.00000000000E+00  0.00000000000E+00  0.24045834032E+03  0.24045834032E+03  0.00000000000E+00 0.  1.
         21   -1    0    0  501  503 -0.00000000000E+00 -0.00000000000E+00 -0.46103004701E+02  0.46103004701E+02  0.00000000000E+00 0. -1.
         24    1    1    2    0    0  0.47507724757E+01 -0.62088326038E+02  0.81888931115E+02  0.13057772805E+03  0.80419002446E+02 0. -1.
          1    1    1    2  501    0  0.62319996891E+01  0.44683259573E+02  0.36777882721E+01  0.45265413207E+02  0.00000000000E+00 0. -1.
         -2    1    1    2    0  502 -0.10982772165E+02  0.17405066465E+02  0.10878861623E+03  0.11071820376E+03  0.00000000000E+00 0.  1.
<mgrwt>
<rscale>  2 0.83702698E+02</rscale>
<asrwt>0</asrwt>
<pdfrwt beam="1">  1       21 0.36993590E-01 0.83702698E+02</pdfrwt>
<pdfrwt beam="2">  1       21 0.70927701E-02 0.83702698E+02</pdfrwt>
<totfact> 0.10365688E+06</totfact>
</mgrwt>
</event>
<event>
 5    1  0.1708429E+000  0.6946897E+02  0.7546771E-02  0.1361908E+00
         21   -1    0    0  501  502  0.00000000000E+00  0.00000000000E+00  0.37217388910E+03  0.37217388910E+03  0.00000000000E+00 0. -1.
         21   -1    0    0  502  503 -0.00000000000E+00 -0.00000000000E+00 -0.24357263150E+02  0.24357263150E+02  0.00000000000E+00 0.  1.
         24    1    1    2    0    0  0.31265997635E+02  0.33513712782E+02  0.15509317867E+03  0.18061517538E+03  0.80419002446E+02 0.  0.
          1    1    1    2  501    0 -0.17138061473E+02 -0.13205168084E+02  0.18977185925E+03  0.19100117324E+03  0.00000000000E+00 0. -1.
         -2    1    1    2    0  503 -0.14127936163E+02 -0.20308544698E+02  0.29515880254E+01  0.24914803628E+02  0.00000000000E+00 0.  1.
<mgrwt>
<rscale>  2 0.69468970E+02</rscale>
<asrwt>0</asrwt>
<pdfrwt beam="1">  1       21 0.57257518E-01 0.69468970E+02</pdfrwt>
<pdfrwt beam="2">  1       21 0.37472715E-02 0.69468970E+02</pdfrwt>
<totfact> 0.12370851E+06</totfact>
</mgrwt>
</event>
<event>
 5    1  0.1708429E+000  0.1022951E+03  0.7546771E-02  0.1275542E+00
         21   -1    0    0  503  502  0.00000000000E+00  0.00000000000E+00  0.67019804472E+03  0.67019804472E+03  0.00000000000E+00 0.  1.
         21   -1    0    0  501  503 -0.00000000000E+00 -0.00000000000E+00 -0.22563758171E+03  0.22563758171E+03  0.00000000000E+00 0.  1.
         24    1    1    2    0    0  0.27935314275E+02  0.60991750576E+02 -0.15388215996E+03  0.18613788043E+03  0.80419002446E+02 0.  1.
          1    1    1    2  501    0  0.20177804684E+02  0.23575979370E+01 -0.51262334562E+02  0.55140992144E+02  0.00000000000E+00 0. -1.
         -2    1    1    2    0  502 -0.48113118958E+02 -0.63349348513E+02  0.64970495753E+03  0.65455675385E+03  0.00000000000E+00 0.  1.
<mgrwt>
<rscale>  2 0.10229507E+03</rscale>
<asrwt>0</asrwt>
<pdfrwt beam="1">  1       21 0.10310739E+00 0.10229507E+03</pdfrwt>
<pdfrwt beam="2">  1       21 0.34713474E-01 0.10229507E+03</pdfrwt>
<totfact> 0.66485797E+03</totfact>
</mgrwt>
</event>
<event>
 5    1  0.1708429E+000  0.1066565E+03  0.7546771E-02  0.1266890E+00
         21   -1    0    0  503  502  0.00000000000E+00  0.00000000000E+00  0.27947133646E+02  0.27947133646E+02  0.00000000000E+00 0.  1.
         21   -1    0    0  501  503 -0.00000000000E+00 -0.00000000000E+00 -0.12910765766E+04  0.12910765766E+04  0.00000000000E+00 0.  1.
         24    1    1    2    0    0  0.32895090508E+02 -0.34503706755E+01 -0.87707996870E+03  0.88137987241E+03  0.80419002446E+02 0.  1.
          1    1    1    2  501    0  0.52497384442E+01 -0.55715108900E+02 -0.35721413920E+03  0.36157111936E+03  0.00000000000E+00 0. -1.
         -2    1    1    2    0  502 -0.38144828952E+02  0.59165479576E+02 -0.28835335063E+02  0.76072718483E+02  0.00000000000E+00 0.  1.
<mgrwt>
<rscale>  2 0.10665650E+03</rscale>
<asrwt>0</asrwt>
<pdfrwt beam="1">  1       21 0.42995589E-02 0.10665650E+03</pdfrwt>
<pdfrwt beam="2">  1       21 0.19862717E+00 0.10665650E+03</pdfrwt>
<totfact> 0.50784646E+04</totfact>
</mgrwt>
</event>
<event>
 5    1  0.1708429E+000  0.8575894E+02  0.7546771E-02  0.1313460E+00
         21   -1    0    0  503  502  0.00000000000E+00  0.00000000000E+00  0.10166669815E+03  0.10166669815E+03  0.00000000000E+00 0. -1.
         21   -1    0    0  501  503 -0.00000000000E+00 -0.00000000000E+00 -0.86133067853E+02  0.86133067853E+02  0.00000000000E+00 0. -1.
         24    1    1    2    0    0  0.11187624762E+02 -0.65200854684E+02  0.44614654475E+02  0.11328723559E+03  0.80419002446E+02 0. -1.
          1    1    1    2  501    0 -0.13569571184E+02  0.43831424008E+02 -0.26148628097E+02  0.52811719760E+02  0.00000000000E+00 0. -1.
         -2    1    1    2    0  502  0.23819464219E+01  0.21369430676E+02 -0.29323960815E+01  0.21700810652E+02  0.00000000000E+00 0.  1.
<mgrwt>
<rscale>  2 0.85758944E+02</rscale>
<asrwt>0</asrwt>
<pdfrwt beam="1">  1       21 0.15641030E-01 0.85758944E+02</pdfrwt>
<pdfrwt beam="2">  1       21 0.13251241E-01 0.85758944E+02</pdfrwt>
<totfact> 0.17542091E+06</totfact>
</mgrwt>
</event>
<event>
 5    1  0.1708429E+000  0.6570323E+02  0.7546771E-02  0.1375346E+00
         21   -1    0    0  503  502  0.00000000000E+00  0.00000000000E+00  0.80236002770E+03  0.80236002770E+03  0.00000000000E+00 0. -1.
         21   -1    0    0  501  503 -0.00000000000E+00 -0.00000000000E+00 -0.58362382289E+01  0.58362382289E+01  0.00000000000E+00 0.  1.
         24    1    1    2    0    0  0.22726418684E+02  0.14967619079E+02  0.59554177317E+03  0.60156274757E+03  0.80419002446E+02 0. -1.
          1    1    1    2  501    0 -0.24527587367E+02  0.61717161156E+01  0.83325129554E+02  0.87079101034E+02  0.00000000000E+00 0. -1.
         -2    1    1    2    0  502  0.18011686828E+01 -0.21139335195E+02  0.11765688675E+03  0.11955441732E+03  0.00000000000E+00 0.  1.
<mgrwt>
<rscale>  2 0.65703230E+02</rscale>
<asrwt>0</asrwt>
<pdfrwt beam="1">  1       21 0.12343992E+00 0.65703230E+02</pdfrwt>
<pdfrwt beam="2">  1       21 0.89788344E-03 0.65703230E+02</pdfrwt>
<totfact> 0.21639269E+06</totfact>
</mgrwt>
</event>
<event>
 5    1  0.1708429E+000  0.1370659E+03  0.7546771E-02  0.1217332E+00
         21   -1    0    0  503  502  0.00000000000E+00  0.00000000000E+00  0.10932527159E+03  0.10932527159E+03  0.00000000000E+00 0.  1.
         21   -1    0    0  501  503 -0.00000000000E+00 -0.00000000000E+00 -0.61754004979E+03  0.61754004979E+03  0.00000000000E+00 0.  1.
         24    1    1    2    0    0  0.76666807916E+00 -0.74951192848E+02 -0.27194951509E+03  0.29332920721E+03  0.80419002446E+02 0.  1.
          1    1    1    2  501    0 -0.66578085962E+02  0.72368899223E+02 -0.31551901149E+03  0.33048773913E+03  0.00000000000E+00 0. -1.
         -2    1    1    2    0  502  0.65811417883E+02  0.25822936245E+01  0.79253748389E+02  0.10304837504E+03  0.00000000000E+00 0.  1.
<mgrwt>
<rscale>  2 0.13706585E+03</rscale>
<asrwt>0</asrwt>
<pdfrwt beam="1">  1       21 0.16819272E-01 0.13706585E+03</pdfrwt>
<pdfrwt beam="2">  1       21 0.95006162E-01 0.13706585E+03</pdfrwt>
<totfact> 0.30460683E+04</totfact>
</mgrwt>
</event>
<event>
 5    1  0.1708429E+000  0.8980001E+02  0.7546771E-02  0.1303337E+00
         21   -1    0    0  503  502  0.00000000000E+00  0.00000000000E+00  0.10797863391E+03  0.10797863391E+03  0.00000000000E+00 0.  1.
         21   -1    0    0  501  503 -0.00000000000E+00 -0.00000000000E+00 -0.11244239979E+03  0.11244239979E+03  0.00000000000E+00 0. -1.
         24    1    1    2    0    0 -0.45842560096E+02 -0.34844105520E+02 -0.50055959834E+02  0.11085335843E+03  0.80419002446E+02 0. -1.
          1    1    1    2  501    0 -0.51829110918E+01  0.28853960297E+02 -0.12628593476E+02  0.31920134169E+02  0.00000000000E+00 0. -1.
         -2    1    1    2    0  502  0.51025471188E+02  0.59901452231E+01  0.58220787429E+02  0.77647541098E+02  0.00000000000E+00 0.  1.
<mgrwt>
<rscale>  2 0.89800007E+02</rscale>
<asrwt>0</asrwt>
<pdfrwt beam="1">  1       21 0.16612097E-01 0.89800007E+02</pdfrwt>
<pdfrwt beam="2">  1       21 0.17298831E-01 0.89800007E+02</pdfrwt>
<totfact> 0.97965021E+05</totfact>
</mgrwt>
</event>
<event>
 5    1  0.1708429E+000  0.8698851E+02  0.7546771E-02  0.1310313E+00
         21   -1    0    0  503  502  0.00000000000E+00  0.00000000000E+00  0.11928444436E+03  0.11928444436E+03  0.00000000000E+00 0.  1.
         21   -1    0    0  501  503 -0.00000000000E+00 -0.00000000000E+00 -0.50613042398E+03  0.50613042398E+03  0.00000000000E+00 0. -1.
         24    1    1    2    0    0  0.53484901361E+02 -0.36222717847E+01 -0.41235740378E+03  0.42353228913E+03  0.80419002446E+02 0. -1.
          1    1    1    2  501    0 -0.30793741645E+02 -0.25799400946E+02 -0.80272162421E+02  0.89763487418E+02  0.00000000000E+00 0. -1.
         -2    1    1    2    0  502 -0.22691159716E+02  0.29421672730E+02  0.10578358658E+03  0.11211909179E+03  0.00000000000E+00 0.  1.
<mgrwt>
<rscale>  2 0.86988510E+02</rscale>
<asrwt>0</asrwt>
<pdfrwt beam="1">  1       21 0.18351453E-01 0.86988510E+02</pdfrwt>
<pdfrwt beam="2">  1       21 0.77866219E-01 0.86988510E+02</pdfrwt>
<totfact> 0.42249943E+04</totfact>
</mgrwt>
</event>
<event>
 5    1  0.1708429E+000  0.1012958E+03  0.7546771E-02  0.1277594E+00
         21   -1    0    0  503  502  0.00000000000E+00  0.00000000000E+00  0.14953517899E+02  0.14953517899E+02  0.00000000000E+00 0.  1.
         21   -1    0    0  501  503 -0.00000000000E+00 -0.00000000000E+00 -0.10499111032E+04  0.10499111032E+04  0.00000000000E+00 0.  1.
         24    1    1    2    0    0 -0.40213215997E+01 -0.21974047900E+02 -0.76262202777E+03  0.76717573150E+03  0.80419002446E+02 0.  1.
          1    1    1    2  501    0  0.60544558364E+02  0.12337638134E+02 -0.12118793915E+03  0.13603079599E+03  0.00000000000E+00 0. -1.
         -2    1    1    2    0  502 -0.56523236764E+02  0.96364097656E+01 -0.15114761840E+03  0.16165809363E+03  0.00000000000E+00 0.  1.
<mgrwt>
<rscale>  2 0.10129583E+03</rscale>
<asrwt>0</asrwt>
<pdfrwt beam="1">  1       21 0.23005419E-02 0.10129583E+03</pdfrwt>
<pdfrwt beam="2">  1       21 0.16152473E+00 0.10129583E+03</pdfrwt>
<totfact> 0.24945935E+05</totfact>
</mgrwt>
</event>
<event>
 5    1  0.1708429E+000  0.9954714E+02  0.7546771E-02  0.1281251E+00
         21   -1    0    0  503  502  0.00000000000E+00  0.00000000000E+00  0.24765736602E+03  0.24765736602E+03  0.00000000000E+00 0. -1.
         21   -1    0    0  501  503 -0.00000000000E+00 -0.00000000000E+00 -0.11233679564E+03  0.11233679564E+03  0.00000000000E+00 0. -1.
         24    1    1    2    0    0  0.23804211037E+02 -0.76666882021E+02  0.82776441361E+02  0.14058309450E+03  0.80419002446E+02 0. -1.
          1    1    1    2  501    0 -0.25503673032E+01  0.55190951485E+02 -0.72282473566E+02  0.90979676214E+02  0.00000000000E+00 0. -1.
         -2    1    1    2    0  502 -0.21253843734E+02  0.21475930535E+02  0.12482660258E+03  0.12843139094E+03  0.00000000000E+00 0.  1.
<mgrwt>
<rscale>  2 0.99547142E+02</rscale>
<asrwt>0</asrwt>
<pdfrwt beam="1">  1       21 0.38101133E-01 0.99547142E+02</pdfrwt>
<pdfrwt beam="2">  1       21 0.17282584E-01 0.99547142E+02</pdfrwt>
<totfact> 0.20619553E+05</totfact>
</mgrwt>
</event>
<event>
 5    1  0.1708429E+000  0.9678604E+02  0.7546771E-02  0.1287203E+00
         21   -1    0    0  503  502  0.00000000000E+00  0.00000000000E+00  0.13298820274E+03  0.13298820274E+03  0.00000000000E+00 0.  1.
         21   -1    0    0  501  503 -0.00000000000E+00 -0.00000000000E+00 -0.11248755866E+03  0.11248755866E+03  0.00000000000E+00 0. -1.
         24    1    1    2    0    0  0.35991875099E+02  0.42658105745E+02 -0.37541982892E+02  0.10484152561E+03  0.80419002446E+02 0.  0.
          1    1    1    2  501    0  0.12106243361E+01 -0.56109809063E+02 -0.14535781850E+02  0.57974694811E+02  0.00000000000E+00 0. -1.
         -2    1    1    2    0  502 -0.37202499435E+02  0.13451703319E+02  0.72578408824E+02  0.82659540973E+02  0.00000000000E+00 0.  1.
<mgrwt>
<rscale>  2 0.96786038E+02</rscale>
<asrwt>0</asrwt>
<pdfrwt beam="1">  1       21 0.20459724E-01 0.96786038E+02</pdfrwt>
<pdfrwt beam="2">  1       21 0.17305778E-01 0.96786038E+02</pdfrwt>
<totfact> 0.67078278E+05</totfact>
</mgrwt>
</event>
<event>
 5    1  0.1708429E+000  0.1038532E+03  0.7546771E-02  0.1272396E+00
         21   -1    0    0  501  502  0.00000000000E+00  0.00000000000E+00  0.29748385823E+03  0.29748385823E+03  0.00000000000E+00 0. -1.
         21   -1    0    0  502  503 -0.00000000000E+00 -0.00000000000E+00 -0.18536181052E+03  0.18536181052E+03  0.00000000000E+00 0. -1.
         24    1    1    2    0    0 -0.31079569703E+02  0.15153189616E+02 -0.60439044832E+02  0.10637505771E+03  0.80419002446E+02 0. -1.
          1    1    1    2  501    0  0.69088253333E+02  0.16125330959E+02  0.26359786069E+03  0.27297810390E+03  0.00000000000E+00 0. -1.
         -2    1    1    2    0  503 -0.38008683630E+02 -0.31278520575E+02 -0.91036768145E+02  0.10349250714E+03  0.00000000000E+00 0.  1.
<mgrwt>
<rscale>  2 0.10385323E+03</rscale>
<asrwt>0</asrwt>
<pdfrwt beam="1">  1       21 0.45766747E-01 0.10385323E+03</pdfrwt>
<pdfrwt beam="2">  1       21 0.28517202E-01 0.10385323E+03</pdfrwt>
<totfact> 0.56315829E+04</totfact>
</mgrwt>
</event>
<event>
 5    1  0.1708429E+000  0.1250861E+03  0.7546771E-02  0.1234935E+00
         21   -1    0    0  501  502  0.00000000000E+00  0.00000000000E+00  0.34326133059E+02  0.34326133059E+02  0.00000000000E+00 0. -1.
         21   -1    0    0  502  503 -0.00000000000E+00 -0.00000000000E+00 -0.63274450826E+03  0.63274450826E+03  0.00000000000E+00 0. -1.
         24    1    1    2    0    0  0.30210716470E+02 -0.10472599006E+03 -0.45725901435E+03  0.47689961474E+03  0.80419002446E+02 0. -1.
          1    1    1    2  501    0 -0.36862225440E+02  0.67551982335E+02 -0.50726651649E+02  0.92169882116E+02  0.00000000000E+00 0. -1.
         -2    1    1    2    0  503  0.66515089700E+01  0.37174007721E+02 -0.90432709201E+02  0.98001144458E+02  0.00000000000E+00 0.  1.
<mgrwt>
<rscale>  2 0.12508612E+03</rscale>
<asrwt>0</asrwt>
<pdfrwt beam="1">  1       21 0.52809437E-02 0.12508612E+03</pdfrwt>
<pdfrwt beam="2">  1       21 0.97345306E-01 0.12508612E+03</pdfrwt>
<totfact> 0.21891154E+05</totfact>
</mgrwt>
</event>
<event>
 5    1  0.1708429E+000  0.6877875E+02  0.7546771E-02  0.1364296E+00
         21   -1    0    0  501  502  0.00000000000E+00  0.00000000000E+00  0.58821420795E+02  0.58821420795E+02  0.00000000000E+00 0. -1.
         21   -1    0    0  502  503 -0.00000000000E+00 -0.00000000000E+00 -0.86338485618E+02  0.86338485618E+02  0.00000000000E+00 0. -1.
         24    1    1    2    0    0  0.15200770891E+02  0.48540713244E+01 -0.28370390219E+02  0.86756673747E+02  0.80419002446E+02 0. -1.
          1    1    1    2  501    0 -0.41813359306E+01 -0.28857408181E+02  0.94105145873E+01  0.30639702379E+02  0.00000000000E+00 0. -1.
         -2    1    1    2    0  503 -0.11019434961E+02  0.24003336857E+02 -0.85571891920E+01  0.27763530287E+02  0.00000000000E+00 0.  1.
<mgrwt>
<rscale>  2 0.68778748E+02</rscale>
<asrwt>0</asrwt>
<pdfrwt beam="1">  1       21 0.90494493E-02 0.68778748E+02</pdfrwt>
<pdfrwt beam="2">  1       21 0.13282844E-01 0.68778748E+02</pdfrwt>
<totfact> 0.44867881E+06</totfact>
</mgrwt>
</event>
<event>
 5    1  0.1708429E+000  0.1199721E+03  0.7546771E-02  0.1243143E+00
         21   -1    0    0  503  502  0.00000000000E+00  0.00000000000E+00  0.56481049492E+02  0.56481049492E+02  0.00000000000E+00 0.  1.
         21   -1    0    0  501  503 -0.00000000000E+00 -0.00000000000E+00 -0.26694622104E+03  0.26694622104E+03  0.00000000000E+00 0. -1.
         24    1    1    2    0    0 -0.78973295754E+02  0.28743337108E+02 -0.13652482829E+03  0.17935775858E+03  0.80419002446E+02 0. -1.
          1    1    1    2  501    0  0.26197609592E+01  0.28234029189E+02 -0.18141661755E+02  0.33662196050E+02  0.00000000000E+00 0. -1.
         -2    1    1    2    0  502  0.76353534795E+02 -0.56977366297E+02 -0.55798681498E+02  0.11040731589E+03  0.00000000000E+00 0.  1.
<mgrwt>
<rscale>  2 0.11997206E+03</rscale>
<asrwt>0</asrwt>
<pdfrwt beam="1">  1       21 0.86893921E-02 0.11997206E+03</pdfrwt>
<pdfrwt beam="2">  1       21 0.41068650E-01 0.11997206E+03</pdfrwt>
<totfact> 0.59739310E+05</totfact>
</mgrwt>
</event>
<event>
 5    1  0.1708429E+000  0.9106947E+02  0.7546771E-02  0.1300282E+00
         21   -1    0    0  503  502  0.00000000000E+00  0.00000000000E+00  0.33477371784E+03  0.33477371784E+03  0.00000000000E+00 0.  1.
         21   -1    0    0  501  503 -0.00000000000E+00 -0.00000000000E+00 -0.39551272026E+02  0.39551272026E+02  0.00000000000E+00 0.  1.
         24    1    1    2    0    0  0.21551759158E+02 -0.25029264768E+02  0.47712732596E+02  0.99169870544E+02  0.80419002446E+02 0.  1.
          1    1    1    2  501    0 -0.14862376242E+02 -0.33312343459E+02  0.23070821506E+02  0.43160922827E+02  0.00000000000E+00 0. -1.
         -2    1    1    2    0  502 -0.66893829156E+01  0.58341608227E+02  0.22443889171E+03  0.23199419649E+03  0.00000000000E+00 0.  1.
<mgrwt>
<rscale>  2 0.91069474E+02</rscale>
<asrwt>0</asrwt>
<pdfrwt beam="1">  1       21 0.51503647E-01 0.91069474E+02</pdfrwt>
<pdfrwt beam="2">  1       21 0.60848113E-02 0.91069474E+02</pdfrwt>
<totfact> 0.69320263E+05</totfact>
</mgrwt>
</event>
<event>
 5    1  0.1708429E+000  0.1012416E+03  0.7546771E-02  0.1277707E+00
         21   -1    0    0  503  502  0.00000000000E+00  0.00000000000E+00  0.90830650091E+02  0.90830650091E+02  0.00000000000E+00 0.  1.
         21   -1    0    0  501  503 -0.00000000000E+00 -0.00000000000E+00 -0.16284656079E+03  0.16284656079E+03  0.00000000000E+00 0. -1.
         24    1    1    2    0    0 -0.60076893854E+02  0.16899715841E+02 -0.37290470554E+02  0.10840954164E+03  0.80419002446E+02 0.  1.
          1    1    1    2  501    0  0.32497020713E+02  0.31323841941E+02 -0.67175914211E+02  0.80931099580E+02  0.00000000000E+00 0. -1.
         -2    1    1    2    0  502  0.27579873141E+02 -0.48223557782E+02  0.32450474069E+02  0.64336569655E+02  0.00000000000E+00 0.  1.
<mgrwt>
<rscale>  2 0.10124158E+03</rscale>
<asrwt>0</asrwt>
<pdfrwt beam="1">  1       21 0.13973946E-01 0.10124158E+03</pdfrwt>
<pdfrwt beam="2">  1       21 0.25053317E-01 0.10124158E+03</pdfrwt>
<totfact> 0.67608902E+05</totfact>
</mgrwt>
</event>
<event>
 5    1  0.1708429E+000  0.1096864E+03  0.7546771E-02  0.1261152E+00
         21   -1    0    0  501  502  0.00000000000E+00  0.00000000000E+00  0.12512378969E+03  0.12512378969E+03  0.00000000000E+00 0. -1.
         21   -1    0    0  502  503 -0.00000000000E+00 -0.00000000000E+00 -0.12866261676E+03  0.12866261676E+03  0.00000000000E+00 0.  1.
         24    1    1    2    0    0 -0.24990018803E+02  0.86248439915E+02 -0.10328746631E+02  0.12098426918E+03  0.80419002446E+02 0. -1.
          1    1    1    2  501    0  0.35008493389E+02 -0.48758860567E+02  0.47510696963E+02  0.76552514126E+02  0.00000000000E+00 0. -1.
         -2    1    1    2    0  503 -0.10018474586E+02 -0.37489579349E+02 -0.40720777402E+02  0.56249623154E+02  0.00000000000E+00 0.  1.
<mgrwt>
<rscale>  2 0.10968644E+03</rscale>
<asrwt>0</asrwt>
<pdfrwt beam="1">  1       21 0.19249814E-01 0.10968644E+03</pdfrwt>
<pdfrwt beam="2">  1       21 0.19794249E-01 0.10968644E+03</pdfrwt>
<totfact> 0.58738804E+05</totfact>
</mgrwt>
</event>
<event>
 5    1  0.1708429E+000  0.8286823E+02  0.7546771E-02  0.1321103E+00
         21   -1    0    0  503  502  0.00000000000E+00  0.00000000000E+00  0.25592381857E+04  0.25592381857E+04  0.00000000000E+00 0.  1.
         21   -1    0    0  501  503 -0.00000000000E+00 -0.00000000000E+00 -0.60307684418E+01  0.60307684418E+01  0.00000000000E+00 0. -1.
         24    1    1    2    0    0  0.81541875211E+01 -0.51130423124E+02  0.13222531134E+04  0.13257078572E+04  0.80419002446E+02 0.  1.
          1    1    1    2  501    0  0.18948668290E+02  0.30991095378E+02  0.77266099153E+02  0.85378862143E+02  0.00000000000E+00 0. -1.
         -2    1    1    2    0  502 -0.27102855811E+02  0.20139327747E+02  0.11536882048E+04  0.11541822348E+04  0.00000000000E+00 0.  1.
<mgrwt>
<rscale>  2 0.82868228E+02</rscale>
<asrwt>0</asrwt>
<pdfrwt beam="1">  1       21 0.39372809E+00 0.82868228E+02</pdfrwt>
<pdfrwt beam="2">  1       21 0.92781257E-03 0.82868228E+02</pdfrwt>
<totfact> 0.48069367E+04</totfact>
</mgrwt>
</event>
<event>
 5    1  0.1708429E+000  0.1131274E+03  0.7546771E-02  0.1254886E+00
         21   -1    0    0  501  502  0.00000000000E+00  0.00000000000E+00  0.19626795006E+03  0.19626795006E+03  0.00000000000E+00 0.  1.
         21   -1    0    0  502  503 -0.00000000000E+00 -0.00000000000E+00 -0.65734986814E+02  0.65734986814E+02  0.00000000000E+00 0. -1.
         24    1    1    2    0    0  0.29700510338E+02  0.27053720581E+02  0.45323714946E+02  0.10067511710E+03  0.80419002446E+02 0.  0.
          1    1    1    2  501    0  0.15555349653E+02  0.47035702487E+02  0.38501696655E+02  0.62743181753E+02  0.00000000000E+00 0. -1.
         -2    1    1    2    0  503 -0.45255859990E+02 -0.74089423067E+02  0.46707551647E+02  0.98584638027E+02  0.00000000000E+00 0.  1.
<mgrwt>
<rscale>  2 0.11312735E+03</rscale>
<asrwt>0</asrwt>
<pdfrwt beam="1">  1       21 0.30195069E-01 0.11312735E+03</pdfrwt>
<pdfrwt beam="2">  1       21 0.10113075E-01 0.11312735E+03</pdfrwt>
<totfact> 0.83893994E+05</totfact>
</mgrwt>
</event>
<event>
 5    1  0.1708429E+000  0.9383696E+02  0.7546771E-02  0.1293817E+00
         21   -1    0    0  503  502  0.00000000000E+00  0.00000000000E+00  0.10656074978E+03  0.10656074978E+03  0.00000000000E+00 0. -1.
         21   -1    0    0  501  503 -0.00000000000E+00 -0.00000000000E+00 -0.16290209392E+03  0.16290209392E+03  0.00000000000E+00 0. -1.
         24    1    1    2    0    0 -0.57340215949E+02  0.35664592312E+02  0.12486808453E+02  0.10574970378E+03  0.80419002446E+02 0. -1.
          1    1    1    2  501    0  0.52415676204E+02 -0.61889036222E+01 -0.10456342483E+03  0.11712905469E+03  0.00000000000E+00 0. -1.
         -2    1    1    2    0  502  0.49245397450E+01 -0.29475688690E+02  0.35735272238E+02  0.46584085236E+02  0.00000000000E+00 0.  1.
<mgrwt>
<rscale>  2 0.93836959E+02</rscale>
<asrwt>0</asrwt>
<pdfrwt beam="1">  1       21 0.16393962E-01 0.93836959E+02</pdfrwt>
<pdfrwt beam="2">  1       21 0.25061861E-01 0.93836959E+02</pdfrwt>
<totfact> 0.50756605E+05</totfact>
</mgrwt>
</event>
<event>
 5    1  0.1708429E+000  0.7542984E+02  0.7546771E-02  0.1342545E+00
         21   -1    0    0  501  502  0.00000000000E+00  0.00000000000E+00  0.64277718427E+02  0.64277718427E+02  0.00000000000E+00 0. -1.
         21   -1    0    0  502  503 -0.00000000000E+00 -0.00000000000E+00 -0.15474526074E+03  0.15474526074E+03  0.00000000000E+00 0.  1.
         24    1    1    2    0    0 -0.48975253770E+02  0.37062515859E+01 -0.79032929864E+01  0.94562094822E+02  0.80419002446E+02 0. -1.
          1    1    1    2  501    0  0.25229634209E+02 -0.16013861016E+02  0.72493978982E+01  0.30749503360E+02  0.00000000000E+00 0. -1.
         -2    1    1    2    0  503  0.23745619561E+02  0.12307609430E+02 -0.89813647225E+02  0.93711380985E+02  0.00000000000E+00 0.  1.
<mgrwt>
<rscale>  2 0.75429836E+02</rscale>
<asrwt>0</asrwt>
<pdfrwt beam="1">  1       21 0.98888799E-02 0.75429836E+02</pdfrwt>
<pdfrwt beam="2">  1       21 0.23806963E-01 0.75429836E+02</pdfrwt>
<totfact> 0.13547895E+06</totfact>
</mgrwt>
</event>
<event>
 5    1  0.1708429E+000  0.9945846E+02  0.7546771E-02  0.1281439E+00
         21   -1    0    0  501  502  0.00000000000E+00  0.00000000000E+00  0.25183211183E+02  0.25183211183E+02  0.00000000000E+00 0. -1.
         21   -1    0    0  502  503 -0.00000000000E+00 -0.00000000000E+00 -0.96267374886E+03  0.96267374886E+03  0.00000000000E+00 0.  1.
         24    1    1    2    0    0 -0.56376319613E+01 -0.47925293137E+02 -0.54922925645E+03  0.55717915316E+03  0.80419002446E+02 0.  1.
          1    1    1    2  501    0 -0.35013201573E+02 -0.80743919903E+01  0.36986556525E+00  0.35934063101E+02  0.00000000000E+00 0. -1.
         -2    1    1    2    0  503  0.40650833535E+02  0.55999685127E+02 -0.38863114679E+03  0.39474374378E+03  0.00000000000E+00 0.  1.
<mgrwt>
<rscale>  2 0.99458461E+02</rscale>
<asrwt>0</asrwt>
<pdfrwt beam="1">  1       21 0.38743403E-02 0.99458461E+02</pdfrwt>
<pdfrwt beam="2">  1       21 0.14810365E+00 0.99458461E+02</pdfrwt>
<totfact> 0.13365456E+05</totfact>
</mgrwt>
</event>
<event>
 5    1  0.1708429E+000  0.1085657E+03  0.7546771E-02  0.1263249E+00
         21   -1    0    0  503  502  0.00000000000E+00  0.00000000000E+00  0.12347134524E+03  0.12347134524E+03  0.00000000000E+00 0. -1.
         21   -1    0    0  501  503 -0.00000000000E+00 -0.00000000000E+00 -0.17803625439E+03  0.17803625439E+03  0.00000000000E+00 0. -1.
         24    1    1    2    0    0 -0.91385916353E+02  0.14154877545E+01 -0.33336360561E+02  0.12622170258E+03  0.80419002446E+02 0. -1.
          1    1    1    2  501    0  0.71820363950E+02 -0.12506203921E+02 -0.82454136834E+02  0.11006023122E+03  0.00000000000E+00 0. -1.
         -2    1    1    2    0  502  0.19565552403E+02  0.11090716166E+02  0.61225588248E+02  0.65225665825E+02  0.00000000000E+00 0.  1.
<mgrwt>
<rscale>  2 0.10856567E+03</rscale>
<asrwt>0</asrwt>
<pdfrwt beam="1">  1       21 0.18995592E-01 0.10856567E+03</pdfrwt>
<pdfrwt beam="2">  1       21 0.27390193E-01 0.10856567E+03</pdfrwt>
<totfact> 0.32810767E+05</totfact>
</mgrwt>
</event>
<event>
 5    1  0.1708429E+000  0.9325189E+02  0.7546771E-02  0.1295163E+00
         21   -1    0    0  503  502  0.00000000000E+00  0.00000000000E+00  0.31358696013E+02  0.31358696013E+02  0.00000000000E+00 0.  1.
         21   -1    0    0  501  503 -0.00000000000E+00 -0.00000000000E+00 -0.74857495889E+03  0.74857495889E+03  0.00000000000E+00 0. -1.
         24    1    1    2    0    0  0.79102373624E+01  0.15669080003E+02 -0.24774344222E+03  0.26105961204E+03  0.80419002446E+02 0.  0.
          1    1    1    2  501    0  0.34099869354E+02 -0.42390116163E+02 -0.46578293246E+03  0.46894931838E+03  0.00000000000E+00 0. -1.
         -2    1    1    2    0  502 -0.42010106717E+02  0.26721036160E+02 -0.36898882031E+01  0.49924724484E+02  0.00000000000E+00 0.  1.
<mgrwt>
<rscale>  2 0.93251887E+02</rscale>
<asrwt>0</asrwt>
<pdfrwt beam="1">  1       21 0.48244145E-02 0.93251887E+02</pdfrwt>
<pdfrwt beam="2">  1       21 0.11516538E+00 0.93251887E+02</pdfrwt>
<totfact> 0.17340466E+05</totfact>
</mgrwt>
</event>
<event>
 5    1  0.1708429E+000  0.6910384E+02  0.7546771E-02  0.1363167E+00
         21   -1    0    0  503  502  0.00000000000E+00  0.00000000000E+00  0.37495585152E+02  0.37495585152E+02  0.00000000000E+00 0.  1.
         21   -1    0    0  501  503 -0.00000000000E+00 -0.00000000000E+00 -0.19898579963E+03  0.19898579963E+03  0.00000000000E+00 0.  1.
         24    1    1    2    0    0 -0.11314779229E+02 -0.10203186874E+02 -0.67919228846E+02  0.10635961100E+03  0.80419002446E+02 0.  0.
          1    1    1    2  501    0 -0.56453306806E+01 -0.20510315563E+02 -0.92611737172E+02  0.95023558474E+02  0.00000000000E+00 0. -1.
         -2    1    1    2    0  502  0.16960109910E+02  0.30713502437E+02 -0.95924846132E+00  0.35098215306E+02  0.00000000000E+00 0.  1.
<mgrwt>
<rscale>  2 0.69103843E+02</rscale>
<asrwt>0</asrwt>
<pdfrwt beam="1">  1       21 0.57685515E-02 0.69103843E+02</pdfrwt>
<pdfrwt beam="2">  1       21 0.30613200E-01 0.69103843E+02</pdfrwt>
<totfact> 0.20968914E+06</totfact>
</mgrwt>
</event>
<event>
 5    1  0.1708429E+000  0.1229244E+03  0.7546771E-02  0.1238349E+00
         21   -1    0    0  501  502  0.00000000000E+00  0.00000000000E+00  0.13458807577E+02  0.13458807577E+02  0.00000000000E+00 0.  1.
         21   -1    0    0  502  503 -0.00000000000E+00 -0.00000000000E+00 -0.19994695638E+04  0.19994695638E+04  0.00000000000E+00 0.  1.
         24    1    1    2    0    0 -0.96652839235E+02 -0.61342216839E+01 -0.16070786299E+04  0.16120013457E+04  0.80419002446E+02 0.  1.
          1    1    1    2  501    0  0.15672440562E+02 -0.27997888934E+02 -0.42767608709E+02  0.53465648156E+02  0.00000000000E+00 0. -1.
         -2    1    1    2    0  503  0.80980398673E+02  0.34132110618E+02 -0.33616451762E+03  0.34746137749E+03  0.00000000000E+00 0.  1.
<mgrwt>
<rscale>  2 0.12292444E+03</rscale>
<asrwt>0</asrwt>
<pdfrwt beam="1">  1       21 0.20705861E-02 0.12292444E+03</pdfrwt>
<pdfrwt beam="2">  1       21 0.30761065E+00 0.12292444E+03</pdfrwt>
<totfact> 0.38797148E+04</totfact>
</mgrwt>
</event>
<event>
 5    1  0.1708429E+000  0.6980044E+02  0.7546771E-02  0.1360773E+00
         21   -1    0    0  501  502  0.00000000000E+00  0.00000000000E+00  0.59113294245E+01  0.59113294245E+01  0.00000000000E+00 0. -1.
         21   -1    0    0  502  503 -0.00000000000E+00 -0.00000000000E+00 -0.22066001526E+04  0.22066001526E+04  0.00000000000E+00 0.  1.
         24    1    1    2    0    0 -0.24791016766E+01  0.51014424427E+01 -0.48640554638E+03  0.49304131892E+03  0.80419002446E+02 0.  0.
          1    1    1    2  501    0 -0.15298283190E+02  0.21863567424E+02 -0.70677547503E+02  0.75547129463E+02  0.00000000000E+00 0. -1.
         -2    1    1    2    0  503  0.17777384867E+02 -0.26965009866E+02 -0.16436057293E+04  0.16439230337E+04  0.00000000000E+00 0.  1.
<mgrwt>
<rscale>  2 0.69800442E+02</rscale>
<asrwt>0</asrwt>
<pdfrwt beam="1">  1       21 0.90943390E-03 0.69800442E+02</pdfrwt>
<pdfrwt beam="2">  1       21 0.33947747E+00 0.69800442E+02</pdfrwt>
<totfact> 0.10426893E+05</totfact>
</mgrwt>
</event>
<event>
 5    1  0.1708429E+000  0.6596423E+02  0.7546771E-02  0.1374381E+00
         21   -1    0    0  501  502  0.00000000000E+00  0.00000000000E+00  0.43761030251E+02  0.43761030251E+02  0.00000000000E+00 0. -1.
         21   -1    0    0  502  503 -0.00000000000E+00 -0.00000000000E+00 -0.41502836528E+03  0.41502836528E+03  0.00000000000E+00 0. -1.
         24    1    1    2    0    0 -0.27909043685E+02 -0.12352204883E+02 -0.19483917680E+03  0.21298124907E+03  0.80419002446E+02 0. -1.
          1    1    1    2  501    0  0.23410929013E+02 -0.82523961324E+01  0.29641246146E+02  0.38662347474E+02  0.00000000000E+00 0. -1.
         -2    1    1    2    0  503  0.44981146722E+01  0.20604601016E+02 -0.20606940438E+03  0.20714579899E+03  0.00000000000E+00 0.  1.
<mgrwt>
<rscale>  2 0.65964228E+02</rscale>
<asrwt>0</asrwt>
<pdfrwt beam="1">  1       21 0.67324664E-02 0.65964228E+02</pdfrwt>
<pdfrwt beam="2">  1       21 0.63850516E-01 0.65964228E+02</pdfrwt>
<totfact> 0.37415388E+05</totfact>
</mgrwt>
</event>
<event>
 5    1  0.1708429E+000  0.8426372E+02  0.7546771E-02  0.1317369E+00
         21   -1    0    0  501  502  0.00000000000E+00  0.00000000000E+00  0.19044042649E+03  0.19044042649E+03  0.00000000000E+00 0.  1.
         21   -1    0    0  502  503 -0.00000000000E+00 -0.00000000000E+00 -0.71703586712E+02  0.71703586712E+02  0.00000000000E+00 0. -1.
         24    1    1    2    0    0 -0.21757234541E+02 -0.55462496268E+01 -0.27073928642E+02  0.87774436519E+02  0.80419002446E+02 0. -1.
          1    1    1    2  501    0 -0.21822740988E+02 -0.23956202230E+02  0.98175808763E+02  0.10338578759E+03  0.00000000000E+00 0. -1.
         -2    1    1    2    0  503  0.43579975528E+02  0.29502451857E+02  0.47634959659E+02  0.70983789095E+02  0.00000000000E+00 0.  1.
<mgrwt>
<rscale>  2 0.84263722E+02</rscale>
<asrwt>0</asrwt>
<pdfrwt beam="1">  1       21 0.29298527E-01 0.84263722E+02</pdfrwt>
<pdfrwt beam="2">  1       21 0.11031321E-01 0.84263722E+02</pdfrwt>
<totfact> 0.76148527E+05</totfact>
</mgrwt>
</event>
<event>
 5    1  0.1708429E+000  0.8675006E+02  0.7546771E-02  0.1310918E+00
         21   -1    0    0  501  502  0.00000000000E+00  0.00000000000E+00  0.36890531714E+02  0.36890531714E+02  0.00000000000E+00 0.  1.
         21   -1    0    0  502  503 -0.00000000000E+00 -0.00000000000E+00 -0.34561433286E+03  0.34561433286E+03  0.00000000000E+00 0.  1.
         24    1    1    2    0    0 -0.18845394604E+02 -0.25148192803E+02 -0.36744814555E+02  0.93834843476E+02  0.80419002446E+02 0.  1.
          1    1    1    2  501    0 -0.31406540861E+02  0.18550107771E+02 -0.56057848704E+02  0.66880189208E+02  0.00000000000E+00 0. -1.
         -2    1    1    2    0  503  0.50251935464E+02  0.65980850325E+01 -0.21592113788E+03  0.22178983189E+03  0.00000000000E+00 0.  1.
<mgrwt>
<rscale>  2 0.86750060E+02</rscale>
<asrwt>0</asrwt>
<pdfrwt beam="1">  1       21 0.56754664E-02 0.86750060E+02</pdfrwt>
<pdfrwt beam="2">  1       21 0.53171436E-01 0.86750060E+02</pdfrwt>
<totfact> 0.72939638E+05</totfact>
</mgrwt>
</event>
<event>
 5    1  0.1708429E+000  0.7566045E+02  0.7546771E-02  0.1341838E+00
         21   -1    0    0  501  502  0.00000000000E+00  0.00000000000E+00  0.14709149410E+02  0.14709149410E+02  0.00000000000E+00 0. -1.
         21   -1    0    0  502  503 -0.00000000000E+00 -0.00000000000E+00 -0.41464131124E+03  0.41464131124E+03  0.00000000000E+00 0.  1.
         24    1    1    2    0    0 -0.31846925318E+02  0.29691040807E+01 -0.17429594528E+03  0.19460044894E+03  0.80419002446E+02 0. -1.
          1    1    1    2  501    0 -0.39034093815E+01  0.21241887996E+02 -0.75813091757E+02  0.78829431637E+02  0.00000000000E+00 0. -1.
         -2    1    1    2    0  503  0.35750334699E+02 -0.24210992077E+02 -0.14982312480E+03  0.15592058008E+03  0.00000000000E+00 0.  1.
<mgrwt>
<rscale>  2 0.75660447E+02</rscale>
<asrwt>0</asrwt>
<pdfrwt beam="1">  1       21 0.22629461E-02 0.75660447E+02</pdfrwt>
<pdfrwt beam="2">  1       21 0.63790970E-01 0.75660447E+02</pdfrwt>
<totfact> 0.22353417E+06</totfact>
</mgrwt>
</event>
<event>
 5    1  0.1708429E+000  0.7461951E+02  0.7546771E-02  0.1345053E+00
         21   -1    0    0  503  502  0.00000000000E+00  0.00000000000E+00  0.56145164776E+03  0.56145164776E+03  0.00000000000E+00 0.  1.
         21   -1    0    0  501  503 -0.00000000000E+00 -0.00000000000E+00 -0.13844235204E+03  0.13844235204E+03  0.00000000000E+00 0. -1.
         24    1    1    2    0    0 -0.46978491022E+02 -0.18693541633E+02  0.17383699579E+03  0.19809831947E+03  0.80419002446E+02 0.  0.
          1    1    1    2  501    0  0.24052846555E+02 -0.92717515923E+00 -0.12455125562E+03  0.12685588027E+03  0.00000000000E+00 0. -1.
         -2    1    1    2    0  502  0.22925644467E+02  0.19620716793E+02  0.37372355555E+03  0.37493980007E+03  0.00000000000E+00 0.  1.
<mgrwt>
<rscale>  2 0.74619508E+02</rscale>
<asrwt>0</asrwt>
<pdfrwt beam="1">  1       21 0.86377176E-01 0.74619508E+02</pdfrwt>
<pdfrwt beam="2">  1       21 0.21298824E-01 0.74619508E+02</pdfrwt>
<totfact> 0.25922643E+04</totfact>
</mgrwt>
</event>
<event>
 5    1  0.1708429E+000  0.8558557E+02  0.7546771E-02  0.1313908E+00
         21   -1    0    0  501  502  0.00000000000E+00  0.00000000000E+00  0.18175885980E+03  0.18175885980E+03  0.00000000000E+00 0. -1.
         21   -1    0    0  502  503 -0.00000000000E+00 -0.00000000000E+00 -0.81585516985E+02  0.81585516985E+02  0.00000000000E+00 0.  1.
         24    1    1    2    0    0 -0.34777722321E+02 -0.37093302581E+02  0.79990870227E+02  0.12430268839E+03  0.80419002446E+02 0.  1.
          1    1    1    2  501    0 -0.13920837011E+02  0.20095206640E+02  0.65793245801E+02  0.70188020530E+02  0.00000000000E+00 0. -1.
         -2    1    1    2    0  503  0.48698559332E+02  0.16998095941E+02 -0.45610773209E+02  0.68853667872E+02  0.00000000000E+00 0.  1.
<mgrwt>
<rscale>  2 0.85585572E+02</rscale>
<asrwt>0</asrwt>
<pdfrwt beam="1">  1       21 0.27962902E-01 0.85585572E+02</pdfrwt>
<pdfrwt beam="2">  1       21 0.12551618E-01 0.85585572E+02</pdfrwt>
<totfact> 0.66387640E+05</totfact>
</mgrwt>
</event>
<event>
 5    1  0.1708429E+000  0.6995661E+02  0.7546771E-02  0.1360241E+00
         21   -1    0    0  503  502  0.00000000000E+00  0.00000000000E+00  0.13634778756E+03  0.13634778756E+03  0.00000000000E+00 0. -1.
         21   -1    0    0  501  503 -0.00000000000E+00 -0.00000000000E+00 -0.48232204406E+02  0.48232204406E+02  0.00000000000E+00 0.  1.
         24    1    1    2    0    0  0.43713942569E+02  0.16271986813E+02  0.10613356096E+02  0.93571072516E+02  0.80419002446E+02 0.  1.
          1    1    1    2  501    0 -0.20070390978E+02 -0.46572665963E+01  0.26123964703E+02  0.33271192614E+02  0.00000000000E+00 0. -1.
         -2    1    1    2    0  502 -0.23643551591E+02 -0.11614720216E+02  0.51378262359E+02  0.57737726839E+02  0.00000000000E+00 0.  1.
<mgrwt>
<rscale>  2 0.69956608E+02</rscale>
<asrwt>0</asrwt>
<pdfrwt beam="1">  1       21 0.20976583E-01 0.69956608E+02</pdfrwt>
<pdfrwt beam="2">  1       21 0.74203392E-02 0.69956608E+02</pdfrwt>
<totfact> 0.27795215E+06</totfact>
</mgrwt>
</event>
<event>
 5    1  0.1708429E+000  0.7153342E+02  0.7546771E-02  0.1354955E+00
         21   -1    0    0  501  502  0.00000000000E+00  0.00000000000E+00  0.12325194027E+03  0.12325194027E+03  0.00000000000E+00 0.  1.
         21   -1    0    0  502  503 -0.00000000000E+00 -0.00000000000E+00 -0.42883760047E+02  0.42883760047E+02  0.00000000000E+00 0. -1.
         24    1    1    2    0    0  0.21561152912E+02  0.38713275217E+00  0.60712685695E+02  0.10304503552E+03  0.80419002446E+02 0.  0.
          1    1    1    2  501    0 -0.11398491977E+02  0.27691413102E+02  0.12027108380E+02  0.32270595205E+02  0.00000000000E+00 0. -1.
         -2    1    1    2    0  503 -0.10162660935E+02 -0.28078545854E+02  0.76283861524E+01  0.30820069595E+02  0.00000000000E+00 0.  1.
<mgrwt>
<rscale>  2 0.71533416E+02</rscale>
<asrwt>0</asrwt>
<pdfrwt beam="1">  1       21 0.18961837E-01 0.71533416E+02</pdfrwt>
<pdfrwt beam="2">  1       21 0.65975016E-02 0.71533416E+02</pdfrwt>
<totfact> 0.40757929E+06</totfact>
</mgrwt>
</event>
<event>
 5    1  0.1708429E+000  0.1247149E+03  0.7546771E-02  0.1235515E+00
         21   -1    0    0  503  502  0.00000000000E+00  0.00000000000E+00  0.27665057859E+03  0.27665057859E+03  0.00000000000E+00 0.  1.
         21   -1    0    0  501  503 -0.00000000000E+00 -0.00000000000E+00 -0.32810782578E+03  0.32810782578E+03  0.00000000000E+00 0. -1.
         24    1    1    2    0    0  0.46388579203E+02  0.87251096994E+02 -0.34293536109E+02  0.13193906465E+03  0.80419002446E+02 0.  1.
          1    1    1    2  501    0  0.18640450390E+02 -0.30346368537E+02 -0.23541011146E+03  0.23808882597E+03  0.00000000000E+00 0. -1.
         -2    1    1    2    0  502 -0.65029029593E+02 -0.56904728456E+02  0.21824640038E+03  0.23473051375E+03  0.00000000000E+00 0.  1.
<mgrwt>
<rscale>  2 0.12471494E+03</rscale>
<asrwt>0</asrwt>
<pdfrwt beam="1">  1       21 0.42561628E-01 0.12471494E+03</pdfrwt>
<pdfrwt beam="2">  1       21 0.50478127E-01 0.12471494E+03</pdfrwt>
<totfact> 0.20737228E+04</totfact>
</mgrwt>
</event>
<event>
 5    1  0.1708429E+000  0.8162983E+02  0.7546771E-02  0.1324489E+00
         21   -1    0    0  501  502  0.00000000000E+00  0.00000000000E+00  0.98922572004E+03  0.98922572004E+03  0.00000000000E+00 0.  1.
         21   -1    0    0  502  503 -0.00000000000E+00 -0.00000000000E+00 -0.74527363623E+01  0.74527363623E+01  0.00000000000E+00 0. -1.
         24    1    1    2    0    0  0.11294606102E+02  0.43067731408E+02  0.69987148043E+03  0.70588221587E+03  0.80419002446E+02 0.  1.
          1    1    1    2  501    0 -0.31263104482E+02 -0.10209640356E+02  0.12547432700E+03  0.12971285670E+03  0.00000000000E+00 0. -1.
         -2    1    1    2    0  503  0.19968498380E+02 -0.32858091053E+02  0.15642717625E+03  0.16108338382E+03  0.00000000000E+00 0.  1.
<mgrwt>
<rscale>  2 0.81629826E+02</rscale>
<asrwt>0</asrwt>
<pdfrwt beam="1">  1       21 0.15218847E+00 0.81629826E+02</pdfrwt>
<pdfrwt beam="2">  1       21 0.11465756E-02 0.81629826E+02</pdfrwt>
<totfact> 0.88508782E+05</totfact>
</mgrwt>
</event>
<event>
 5    1  0.1708429E+000  0.8523723E+02  0.7546771E-02  0.1314813E+00
         21   -1    0    0  501  502  0.00000000000E+00  0.00000000000E+00  0.42441618331E+02  0.42441618331E+02  0.00000000000E+00 0.  1.
         21   -1    0    0  502  503 -0.00000000000E+00 -0.00000000000E+00 -0.29832618051E+03  0.29832618051E+03  0.00000000000E+00 0.  1.
         24    1    1    2    0    0  0.41850968572E+02 -0.26058041217E+02 -0.25012745446E+02  0.97587798784E+02  0.80419002446E+02 0.  1.
          1    1    1    2  501    0 -0.15755833351E+02 -0.18628889747E+02 -0.65264951208E+02  0.69676363811E+02  0.00000000000E+00 0. -1.
         -2    1    1    2    0  503 -0.26095135220E+02  0.44686930963E+02 -0.16560686553E+03  0.17350363625E+03  0.00000000000E+00 0.  1.
<mgrwt>
<rscale>  2 0.85237226E+02</rscale>
<asrwt>0</asrwt>
<pdfrwt beam="1">  1       21 0.65294794E-02 0.85237226E+02</pdfrwt>
<pdfrwt beam="2">  1       21 0.45896338E-01 0.85237226E+02</pdfrwt>
<totfact> 0.77752451E+05</totfact>
</mgrwt>
</event>
<event>
 5    1  0.1708429E+000  0.7317651E+02  0.7546771E-02  0.1349613E+00
         21   -1    0    0  501  502  0.00000000000E+00  0.00000000000E+00  0.13140440552E+03  0.13140440552E+03  0.00000000000E+00 0. -1.
         21   -1    0    0  502  503 -0.00000000000E+00 -0.00000000000E+00 -0.58247038096E+02  0.58247038096E+02  0.00000000000E+00 0.  1.
         24    1    1    2    0    0 -0.45674268034E+01  0.61054728221E+01  0.86210134800E+02  0.11814203944E+03  0.80419002446E+02 0. -1.
          1    1    1    2  501    0 -0.65916588710E+00  0.29539694234E+02  0.68785866834E+01  0.30337155270E+02  0.00000000000E+00 0. -1.
         -2    1    1    2    0  503  0.52265926905E+01 -0.35645167056E+02 -0.19931354060E+02  0.41172248909E+02  0.00000000000E+00 0.  1.
<mgrwt>
<rscale>  2 0.73176512E+02</rscale>
<asrwt>0</asrwt>
<pdfrwt beam="1">  1       21 0.20216062E-01 0.73176512E+02</pdfrwt>
<pdfrwt beam="2">  1       21 0.89610828E-02 0.73176512E+02</pdfrwt>
<totfact> 0.21632871E+06</totfact>
</mgrwt>
</event>
<event>
 5    1  0.1708429E+000  0.6780433E+02  0.7546771E-02  0.1367723E+00
         21   -1    0    0  501  502  0.00000000000E+00  0.00000000000E+00  0.11687443128E+03  0.11687443128E+03  0.00000000000E+00 0.  1.
         21   -1    0    0  502  503 -0.00000000000E+00 -0.00000000000E+00 -0.53216056841E+02  0.53216056841E+02  0.00000000000E+00 0. -1.
         24    1    1    2    0    0  0.19772230686E+02 -0.15854616678E+00  0.47841517638E+02  0.95639913255E+02  0.80419002446E+02 0.  1.
          1    1    1    2  501    0 -0.12885708369E+02 -0.24234911441E+02  0.33675377797E+02  0.43444257186E+02  0.00000000000E+00 0. -1.
         -2    1    1    2    0  503 -0.68865223170E+01  0.24393457607E+02 -0.17858520998E+02  0.31006317677E+02  0.00000000000E+00 0.  1.
<mgrwt>
<rscale>  2 0.67804333E+02</rscale>
<asrwt>0</asrwt>
<pdfrwt beam="1">  1       21 0.17980682E-01 0.67804333E+02</pdfrwt>
<pdfrwt beam="2">  1       21 0.81870857E-02 0.67804333E+02</pdfrwt>
<totfact> 0.31050725E+06</totfact>
</mgrwt>
</event>
<event>
 5    1  0.1708429E+000  0.8627356E+02  0.7546771E-02  0.1312135E+00
         21   -1    0    0  503  502  0.00000000000E+00  0.00000000000E+00  0.14212303004E+03  0.14212303004E+03  0.00000000000E+00 0. -1.
         21   -1    0    0  501  503 -0.00000000000E+00 -0.00000000000E+00 -0.10889852930E+03  0.10889852930E+03  0.00000000000E+00 0. -1.
         24    1    1    2    0    0  0.22969904737E+02 -0.39092152345E+02  0.31095901420E+02  0.97416548584E+02  0.80419002446E+02 0. -1.
          1    1    1    2  501    0 -0.11553065339E+02 -0.18337482014E+02 -0.62645304681E+02  0.66288541724E+02  0.00000000000E+00 0. -1.
         -2    1    1    2    0  502 -0.11416839398E+02  0.57429634359E+02  0.64773903999E+02  0.87316469029E+02  0.00000000000E+00 0.  1.
<mgrwt>
<rscale>  2 0.86273557E+02</rscale>
<asrwt>0</asrwt>
<pdfrwt beam="1">  1       21 0.21865082E-01 0.86273557E+02</pdfrwt>
<pdfrwt beam="2">  1       21 0.16753620E-01 0.86273557E+02</pdfrwt>
<totfact> 0.62883986E+05</totfact>
</mgrwt>
</event>
<event>
 5    1  0.1708429E+000  0.6667950E+02  0.7546771E-02  0.1371763E+00
         21   -1    0    0  501  502  0.00000000000E+00  0.00000000000E+00  0.18210650419E+03  0.18210650419E+03  0.00000000000E+00 0. -1.
         21   -1    0    0  502  503 -0.00000000000E+00 -0.00000000000E+00 -0.33659222916E+02  0.33659222916E+02  0.00000000000E+00 0.  1.
         24    1    1    2    0    0 -0.38482007911E+01 -0.23896453614E+02  0.14333240163E+03  0.16612417782E+03  0.80419002446E+02 0. -1.
          1    1    1    2  501    0  0.22355283975E+02  0.49615238449E+01  0.25184020907E+01  0.23037312985E+02  0.00000000000E+00 0. -1.
         -2    1    1    2    0  503 -0.18507083184E+02  0.18934929769E+02  0.25964775486E+01  0.26604236298E+02  0.00000000000E+00 0.  1.
<mgrwt>
<rscale>  2 0.66679502E+02</rscale>
<asrwt>0</asrwt>
<pdfrwt beam="1">  1       21 0.28016385E-01 0.66679502E+02</pdfrwt>
<pdfrwt beam="2">  1       21 0.51783421E-02 0.66679502E+02</pdfrwt>
<totfact> 0.29589915E+06</totfact>
</mgrwt>
</event>
<event>
 5    1  0.3186832E+000  0.7537600E+02  0.7546771E-02  0.1342711E+00
         21   -1    0    0  501  502  0.00000000000E+00  0.00000000000E+00  0.64437502771E+02  0.64437502771E+02  0.00000000000E+00 0. -1.
         21   -1    0    0  502  503 -0.00000000000E+00 -0.00000000000E+00 -0.62573451593E+03  0.62573451593E+03  0.00000000000E+00 0.  1.
         24    1    1    2    0    0  0.41291947959E+02 -0.70264276403E+01  0.17927399634E+02  0.92428368284E+02  0.80419002446E+02 0. -1.
          1    1    1    2  501    0 -0.14759985041E+02  0.24291417220E+02 -0.14092400319E+02  0.31725791649E+02  0.00000000000E+00 0. -1.
         -2    1    1    2    0  503 -0.26531962918E+02 -0.17264989580E+02 -0.56513201247E+03  0.56601785876E+03  0.00000000000E+00 0.  1.
<mgrwt>
<rscale>  2 0.75375996E+02</rscale>
<asrwt>0</asrwt>
<pdfrwt beam="1">  1       21 0.99134623E-02 0.75375996E+02</pdfrwt>
<pdfrwt beam="2">  1       21 0.96266845E-01 0.75375996E+02</pdfrwt>
<totfact> 0.78747414E+04</totfact>
</mgrwt>
</event>
<event>
 5    1  0.1708429E+000  0.1336204E+03  0.7546771E-02  0.1222181E+00
         21   -1    0    0  503  502  0.00000000000E+00  0.00000000000E+00  0.54667655441E+02  0.54667655441E+02  0.00000000000E+00 0.  1.
         21   -1    0    0  501  503 -0.00000000000E+00 -0.00000000000E+00 -0.10665164052E+04  0.10665164052E+04  0.00000000000E+00 0. -1.
         24    1    1    2    0    0  0.50574311247E+02  0.90966058102E+02 -0.87989652973E+02  0.15824657870E+03  0.80419002446E+02 0.  1.
          1    1    1    2  501    0  0.23557254145E+02 -0.90586400507E+01 -0.78540687664E+03  0.78581229632E+03  0.00000000000E+00 0. -1.
         -2    1    1    2    0  502 -0.74131565392E+02 -0.81907418052E+02 -0.13845222018E+03  0.17712518565E+03  0.00000000000E+00 0.  1.
<mgrwt>
<rscale>  2 0.13362038E+03</rscale>
<asrwt>0</asrwt>
<pdfrwt beam="1">  1       21 0.84104085E-02 0.13362038E+03</pdfrwt>
<pdfrwt beam="2">  1       21 0.16407945E+00 0.13362038E+03</pdfrwt>
<totfact> 0.26975894E+04</totfact>
</mgrwt>
</event>
<event>
 5    1  0.1708429E+000  0.6710252E+02  0.7546771E-02  0.1370233E+00
         21   -1    0    0  501  502  0.00000000000E+00  0.00000000000E+00  0.10640596437E+03  0.10640596437E+03  0.00000000000E+00 0. -1.
         21   -1    0    0  502  503 -0.00000000000E+00 -0.00000000000E+00 -0.58586252923E+02  0.58586252923E+02  0.00000000000E+00 0.  1.
         24    1    1    2    0    0 -0.76013428715E+00  0.65234358992E+01 -0.15381977141E+02  0.82139845357E+02  0.80419002446E+02 0.  1.
          1    1    1    2  501    0 -0.25444595991E+02  0.30345003791E+01  0.28395044340E+02  0.38248061399E+02  0.00000000000E+00 0. -1.
         -2    1    1    2    0  503  0.26204730278E+02 -0.95579362783E+01  0.34806644250E+02  0.44604310541E+02  0.00000000000E+00 0.  1.
<mgrwt>
<rscale>  2 0.67102521E+02</rscale>
<asrwt>0</asrwt>
<pdfrwt beam="1">  1       21 0.16370148E-01 0.67102521E+02</pdfrwt>
<pdfrwt beam="2">  1       21 0.90132697E-02 0.67102521E+02</pdfrwt>
<totfact> 0.31166210E+06</totfact>
</mgrwt>
</event>
<event>
 5    1  0.1708429E+000  0.9587073E+02  0.7546771E-02  0.1289227E+00
         21   -1    0    0  501  502  0.00000000000E+00  0.00000000000E+00  0.25318005566E+03  0.25318005566E+03  0.00000000000E+00 0. -1.
         21   -1    0    0  502  503 -0.00000000000E+00 -0.00000000000E+00 -0.17725789011E+03  0.17725789011E+03  0.00000000000E+00 0.  1.
         24    1    1    2    0    0 -0.62989201460E+02 -0.40388189920E+02 -0.94397044269E+02  0.14483391629E+03  0.80419002446E+02 0.  1.
          1    1    1    2  501    0  0.13333845111E+02  0.27550935998E+02  0.21525212951E+03  0.21741739755E+03  0.00000000000E+00 0. -1.
         -2    1    1    2    0  503  0.49655356349E+02  0.12837253922E+02 -0.44932919689E+02  0.68186631931E+02  0.00000000000E+00 0.  1.
<mgrwt>
<rscale>  2 0.95870732E+02</rscale>
<asrwt>0</asrwt>
<pdfrwt beam="1">  1       21 0.38950778E-01 0.95870732E+02</pdfrwt>
<pdfrwt beam="2">  1       21 0.27270445E-01 0.95870732E+02</pdfrwt>
<totfact> 0.85039198E+04</totfact>
</mgrwt>
</event>
<event>
 5    1  0.1708429E+000  0.8085863E+02  0.7546771E-02  0.1326632E+00
         21   -1    0    0  501  502  0.00000000000E+00  0.00000000000E+00  0.90933425241E+01  0.90933425241E+01  0.00000000000E+00 0. -1.
         21   -1    0    0  502  503 -0.00000000000E+00 -0.00000000000E+00 -0.73412211885E+03  0.73412211885E+03  0.00000000000E+00 0.  1.
         24    1    1    2    0    0 -0.21752716047E+02  0.15944835034E+02 -0.43245157682E+03  0.44069150283E+03  0.80419002446E+02 0.  1.
          1    1    1    2  501    0 -0.15898921986E+02  0.19517458887E+02 -0.10047521060E+03  0.10358076495E+03  0.00000000000E+00 0. -1.
         -2    1    1    2    0  503  0.37651638032E+02 -0.35462293921E+02 -0.19210198890E+03  0.19894319359E+03  0.00000000000E+00 0.  1.
<mgrwt>
<rscale>  2 0.80858628E+02</rscale>
<asrwt>0</asrwt>
<pdfrwt beam="1">  1       21 0.13989758E-02 0.80858628E+02</pdfrwt>
<pdfrwt beam="2">  1       21 0.11294186E+00 0.80858628E+02</pdfrwt>
<totfact> 0.13448834E+06</totfact>
</mgrwt>
</event>
<event>
 5    1  0.1708429E+000  0.6983919E+02  0.7546771E-02  0.1360641E+00
         21   -1    0    0  503  502  0.00000000000E+00  0.00000000000E+00  0.88976165532E+02  0.88976165532E+02  0.00000000000E+00 0. -1.
         21   -1    0    0  501  503 -0.00000000000E+00 -0.00000000000E+00 -0.10288153189E+03  0.10288153189E+03  0.00000000000E+00 0.  1.
         24    1    1    2    0    0  0.38635427118E+01 -0.46502292968E+02 -0.18527051119E+02  0.94804313146E+02  0.80419002446E+02 0.  1.
          1    1    1    2  501    0 -0.31401778831E+01  0.26306161088E+02 -0.40052047114E+02  0.48021258900E+02  0.00000000000E+00 0. -1.
         -2    1    1    2    0  502 -0.72336482865E+00  0.20196131880E+02  0.44673731873E+02  0.49032125378E+02  0.00000000000E+00 0.  1.
<mgrwt>
<rscale>  2 0.69839188E+02</rscale>
<asrwt>0</asrwt>
<pdfrwt beam="1">  1       21 0.13688641E-01 0.69839188E+02</pdfrwt>
<pdfrwt beam="2">  1       21 0.15827928E-01 0.69839188E+02</pdfrwt>
<totfact> 0.16084536E+06</totfact>
</mgrwt>
</event>
<event>
 5    1  0.1708429E+000  0.1323822E+03  0.7546771E-02  0.1223963E+00
         21   -1    0    0  501  502  0.00000000000E+00  0.00000000000E+00  0.12793835591E+03  0.12793835591E+03  0.00000000000E+00 0. -1.
         21   -1    0    0  502  503 -0.00000000000E+00 -0.00000000000E+00 -0.16893839567E+03  0.16893839567E+03  0.00000000000E+00 0.  1.
         24    1    1    2    0    0  0.53845077499E+02 -0.62424400745E+02 -0.14804205066E+02  0.11611407590E+03  0.80419002446E+02 0.  1.
          1    1    1    2  501    0  0.39542010009E+02  0.47239678717E+01  0.36777640438E+02  0.54207760184E+02  0.00000000000E+00 0. -1.
         -2    1    1    2    0  503 -0.93387087508E+02  0.57700432874E+02 -0.62973475128E+02  0.12655491550E+03  0.00000000000E+00 0.  1.
<mgrwt>
<rscale>  2 0.13238218E+03</rscale>
<asrwt>0</asrwt>
<pdfrwt beam="1">  1       21 0.19682824E-01 0.13238218E+03</pdfrwt>
<pdfrwt beam="2">  1       21 0.25990522E-01 0.13238218E+03</pdfrwt>
<totfact> 0.33827662E+05</totfact>
</mgrwt>
</event>
<event>
 5    1  0.1708429E+000  0.9107107E+02  0.7546771E-02  0.1300278E+00
         21   -1    0    0  503  502  0.00000000000E+00  0.00000000000E+00  0.59714003119E+03  0.59714003119E+03  0.00000000000E+00 0. -1.
         21   -1    0    0  501  503 -0.00000000000E+00 -0.00000000000E+00 -0.35165166375E+02  0.35165166375E+02  0.00000000000E+00 0.  1.
         24    1    1    2    0    0 -0.62994070390E+01  0.26831781572E+02  0.37391182095E+03  0.38345389923E+03  0.80419002446E+02 0. -1.
          1    1    1    2  501    0  0.31613315231E+00  0.35004645642E+02 -0.13812630207E+02  0.37632617633E+02  0.00000000000E+00 0. -1.
         -2    1    1    2    0  502  0.59832738866E+01 -0.61836427214E+02  0.20187567407E+03  0.21121868070E+03  0.00000000000E+00 0.  1.
<mgrwt>
<rscale>  2 0.91071068E+02</rscale>
<asrwt>0</asrwt>
<pdfrwt beam="1">  1       21 0.91867690E-01 0.91071068E+02</pdfrwt>
<pdfrwt beam="2">  1       21 0.54100260E-02 0.91071068E+02</pdfrwt>
<totfact> 0.24267626E+05</totfact>
</mgrwt>
</event>
<event>
 5    1  0.1708429E+000  0.9032156E+02  0.7546771E-02  0.1302075E+00
         21   -1    0    0  501  502  0.00000000000E+00  0.00000000000E+00  0.23899246878E+02  0.23899246878E+02  0.00000000000E+00 0.  1.
         21   -1    0    0  502  503 -0.00000000000E+00 -0.00000000000E+00 -0.51467998313E+03  0.51467998313E+03  0.00000000000E+00 0.  1.
         24    1    1    2    0    0 -0.57390880795E+02 -0.29775862293E+02 -0.18805368298E+03  0.21450342377E+03  0.80419002446E+02 0.  1.
          1    1    1    2  501    0  0.86684157911E+01  0.27330740657E+02 -0.15224481334E+02  0.32463759010E+02  0.00000000000E+00 0. -1.
         -2    1    1    2    0  503  0.48722465004E+02  0.24451216361E+01 -0.28750257194E+03  0.29161204723E+03  0.00000000000E+00 0.  1.
<mgrwt>
<rscale>  2 0.90321565E+02</rscale>
<asrwt>0</asrwt>
<pdfrwt beam="1">  1       21 0.36768071E-02 0.90321565E+02</pdfrwt>
<pdfrwt beam="2">  1       21 0.79181538E-01 0.90321565E+02</pdfrwt>
<totfact> 0.64135200E+05</totfact>
</mgrwt>
</event>
<event>
 5    1  0.1708429E+000  0.1758003E+03  0.7546771E-02  0.1171931E+00
         21   -1    0    0  503  502  0.00000000000E+00  0.00000000000E+00  0.38775292447E+03  0.38775292447E+03  0.00000000000E+00 0.  1.
         21   -1    0    0  501  503 -0.00000000000E+00 -0.00000000000E+00 -0.16638958010E+03  0.16638958010E+03  0.00000000000E+00 0.  1.
         24    1    1    2    0    0 -0.83753694999E+02  0.60422851412E+02  0.23382277950E+03  0.26796624893E+03  0.80419002446E+02 0.  1.
          1    1    1    2  501    0 -0.48820718167E+02  0.32643559703E+02 -0.89310972383E+02  0.10689019740E+03  0.00000000000E+00 0. -1.
         -2    1    1    2    0  502  0.13257441317E+03 -0.93066411115E+02  0.76851537252E+02  0.17928605825E+03  0.00000000000E+00 0.  1.
<mgrwt>
<rscale>  2 0.17580027E+03</rscale>
<asrwt>0</asrwt>
<pdfrwt beam="1">  1       21 0.59654296E-01 0.17580027E+03</pdfrwt>
<pdfrwt beam="2">  1       21 0.25598397E-01 0.17580027E+03</pdfrwt>
<totfact> 0.38312026E+04</totfact>
</mgrwt>
</event>
<event>
 5    1  0.1708429E+000  0.7472620E+02  0.7546771E-02  0.1344721E+00
         21   -1    0    0  503  502  0.00000000000E+00  0.00000000000E+00  0.44759576890E+02  0.44759576890E+02  0.00000000000E+00 0.  1.
         21   -1    0    0  501  503 -0.00000000000E+00 -0.00000000000E+00 -0.12855451659E+03  0.12855451659E+03  0.00000000000E+00 0. -1.
         24    1    1    2    0    0  0.23065400515E+02 -0.14858795846E+02 -0.55235769914E+02  0.10134595575E+03  0.80419002446E+02 0. -1.
          1    1    1    2  501    0  0.10317348524E+02  0.27043528008E+02 -0.20665846052E+02  0.35565113254E+02  0.00000000000E+00 0. -1.
         -2    1    1    2    0  502 -0.33382749039E+02 -0.12184732162E+02 -0.78933237331E+01  0.36403024474E+02  0.00000000000E+00 0.  1.
<mgrwt>
<rscale>  2 0.74726197E+02</rscale>
<asrwt>0</asrwt>
<pdfrwt beam="1">  1       21 0.68860888E-02 0.74726197E+02</pdfrwt>
<pdfrwt beam="2">  1       21 0.19777618E-01 0.74726197E+02</pdfrwt>
<totfact> 0.35243075E+06</totfact>
</mgrwt>
</event>
<event>
 5    1  0.1708429E+000  0.8952948E+02  0.7546771E-02  0.1303995E+00
         21   -1    0    0  501  502  0.00000000000E+00  0.00000000000E+00  0.10559720442E+02  0.10559720442E+02  0.00000000000E+00 0. -1.
         21   -1    0    0  502  503 -0.00000000000E+00 -0.00000000000E+00 -0.91100719439E+03  0.91100719439E+03  0.00000000000E+00 0. -1.
         24    1    1    2    0    0  0.17086877832E+02 -0.26878389321E+02 -0.30740872849E+03  0.31934581806E+03  0.80419002446E+02 0.  0.
          1    1    1    2  501    0  0.17614976740E+02  0.48551869582E+02 -0.18308048612E+03  0.19022627538E+03  0.00000000000E+00 0. -1.
         -2    1    1    2    0  503 -0.34701854572E+02 -0.21673480261E+02 -0.40995825933E+03  0.41199482139E+03  0.00000000000E+00 0.  1.
<mgrwt>
<rscale>  2 0.89529482E+02</rscale>
<asrwt>0</asrwt>
<pdfrwt beam="1">  1       21 0.16245725E-02 0.89529482E+02</pdfrwt>
<pdfrwt beam="2">  1       21 0.14015494E+00 0.89529482E+02</pdfrwt>
<totfact> 0.62852158E+05</totfact>
</mgrwt>
</event>
<event>
 5    1  0.1708429E+000  0.9162973E+02  0.7546771E-02  0.1298952E+00
         21   -1    0    0  503  502  0.00000000000E+00  0.00000000000E+00  0.26511491809E+02  0.26511491809E+02  0.00000000000E+00 0.  1.
         21   -1    0    0  501  503 -0.00000000000E+00 -0.00000000000E+00 -0.69461300888E+03  0.69461300888E+03  0.00000000000E+00 0.  1.
         24    1    1    2    0    0 -0.34097077856E+02  0.38103452333E+02 -0.40930240578E+03  0.42025011497E+03  0.80419002446E+02 0.  1.
          1    1    1    2  501    0  0.34753904253E+02 -0.58236199305E+02 -0.26961310817E+03  0.27801172074E+03  0.00000000000E+00 0. -1.
         -2    1    1    2    0  502 -0.65682639749E+00  0.20132746972E+02  0.10813996881E+02  0.22862664983E+02  0.00000000000E+00 0.  1.
<mgrwt>
<rscale>  2 0.91629734E+02</rscale>
<asrwt>0</asrwt>
<pdfrwt beam="1">  1       21 0.40786914E-02 0.91629734E+02</pdfrwt>
<pdfrwt beam="2">  1       21 0.10686353E+00 0.91629734E+02</pdfrwt>
<totfact> 0.27344602E+05</totfact>
</mgrwt>
</event>
<event>
 5    1  0.1708429E+000  0.8796400E+02  0.7546771E-02  0.1307858E+00
         21   -1    0    0  501  502  0.00000000000E+00  0.00000000000E+00  0.18640521205E+03  0.18640521205E+03  0.00000000000E+00 0.  1.
         21   -1    0    0  502  503 -0.00000000000E+00 -0.00000000000E+00 -0.53165547854E+02  0.53165547854E+02  0.00000000000E+00 0. -1.
         24    1    1    2    0    0  0.20965931378E+02  0.68172648734E+01  0.53841019171E+02  0.99257829307E+02  0.80419002446E+02 0. -1.
          1    1    1    2  501    0  0.17894835995E+02  0.32600598082E+02  0.76291609966E+02  0.84873045791E+02  0.00000000000E+00 0. -1.
         -2    1    1    2    0  503 -0.38860767373E+02 -0.39417862956E+02  0.31070350621E+01  0.55439884810E+02  0.00000000000E+00 0.  1.
<mgrwt>
<rscale>  2 0.87964001E+02</rscale>
<asrwt>0</asrwt>
<pdfrwt beam="1">  1       21 0.28677725E-01 0.87964001E+02</pdfrwt>
<pdfrwt beam="2">  1       21 0.81793151E-02 0.87964001E+02</pdfrwt>
<totfact> 0.13298203E+06</totfact>
</mgrwt>
</event>
<event>
 5    1  0.1708429E+000  0.1258376E+03  0.7546771E-02  0.1233766E+00
         21   -1    0    0  501  502  0.00000000000E+00  0.00000000000E+00  0.69173156067E+01  0.69173156067E+01  0.00000000000E+00 0.  1.
         21   -1    0    0  502  503 -0.00000000000E+00 -0.00000000000E+00 -0.26202494631E+04  0.26202494631E+04  0.00000000000E+00 0.  1.
         24    1    1    2    0    0 -0.72958880829E+02 -0.82708583517E+02 -0.15227066298E+04  0.15288120894E+04  0.80419002446E+02 0.  1.
          1    1    1    2  501    0  0.42447412687E+02  0.23367218189E+02 -0.22484582563E+03  0.23000751082E+03  0.00000000000E+00 0. -1.
         -2    1    1    2    0  503  0.30511468142E+02  0.59341365328E+02 -0.86577969201E+03  0.86834717850E+03  0.00000000000E+00 0.  1.
<mgrwt>
<rscale>  2 0.12583763E+03</rscale>
<asrwt>0</asrwt>
<pdfrwt beam="1">  1       21 0.10642013E-02 0.12583763E+03</pdfrwt>
<pdfrwt beam="2">  1       21 0.40311573E+00 0.12583763E+03</pdfrwt>
<totfact> 0.31092818E+04</totfact>
</mgrwt>
</event>
<event>
 5    1  0.1708429E+000  0.6854938E+02  0.7546771E-02  0.1365097E+00
         21   -1    0    0  501  502  0.00000000000E+00  0.00000000000E+00  0.12730880479E+03  0.12730880479E+03  0.00000000000E+00 0. -1.
         21   -1    0    0  502  503 -0.00000000000E+00 -0.00000000000E+00 -0.28751487313E+03  0.28751487313E+03  0.00000000000E+00 0.  1.
         24    1    1    2    0    0 -0.39777229066E+02 -0.19169866313E+02 -0.14596320997E+03  0.17240123650E+03  0.80419002446E+02 0.  0.
          1    1    1    2  501    0  0.15550353603E+02  0.13214646749E+02  0.11194612618E+03  0.11379092913E+03  0.00000000000E+00 0. -1.
         -2    1    1    2    0  503  0.24226875464E+02  0.59552195639E+01 -0.12618898454E+03  0.12863151229E+03  0.00000000000E+00 0.  1.
<mgrwt>
<rscale>  2 0.68549378E+02</rscale>
<asrwt>0</asrwt>
<pdfrwt beam="1">  1       21 0.19585970E-01 0.68549378E+02</pdfrwt>
<pdfrwt beam="2">  1       21 0.44233057E-01 0.68549378E+02</pdfrwt>
<totfact> 0.12378200E+05</totfact>
</mgrwt>
</event>
<event>
 5    1  0.1708429E+000  0.1688880E+03  0.7546771E-02  0.1179012E+00
         21   -1    0    0  501  502  0.00000000000E+00  0.00000000000E+00  0.21011712151E+02  0.21011712151E+02  0.00000000000E+00 0. -1.
         21   -1    0    0  502  503 -0.00000000000E+00 -0.00000000000E+00 -0.15744546892E+04  0.15744546892E+04  0.00000000000E+00 0.  1.
         24    1    1    2    0    0 -0.60834509597E+02 -0.35148312032E+02 -0.31763275379E+03  0.33510300451E+03  0.80419002446E+02 0.  0.
          1    1    1    2  501    0  0.10833044952E+03  0.10212615775E+03 -0.55507978876E+03  0.57469888662E+03  0.00000000000E+00 0. -1.
         -2    1    1    2    0  503 -0.47495939922E+02 -0.66977845722E+02 -0.68073043449E+03  0.68566451021E+03  0.00000000000E+00 0.  1.
<mgrwt>
<rscale>  2 0.16888798E+03</rscale>
<asrwt>0</asrwt>
<pdfrwt beam="1">  1       21 0.32325719E-02 0.16888798E+03</pdfrwt>
<pdfrwt beam="2">  1       21 0.24222374E+00 0.16888798E+03</pdfrwt>
<totfact> 0.42115191E+04</totfact>
</mgrwt>
</event>
<event>
 5    1  0.1708429E+000  0.1497968E+03  0.7546771E-02  0.1200723E+00
         21   -1    0    0  503  502  0.00000000000E+00  0.00000000000E+00  0.51548014428E+02  0.51548014428E+02  0.00000000000E+00 0.  1.
         21   -1    0    0  501  503 -0.00000000000E+00 -0.00000000000E+00 -0.60892409326E+03  0.60892409326E+03  0.00000000000E+00 0.  1.
         24    1    1    2    0    0 -0.50205157284E+02  0.81205659715E+02 -0.25788719155E+03  0.28650992393E+03  0.80419002446E+02 0.  1.
          1    1    1    2  501    0  0.76413163673E+02  0.12530798289E+02 -0.25582195050E+03  0.26728423606E+03  0.00000000000E+00 0. -1.
         -2    1    1    2    0  502 -0.26208006389E+02 -0.93736458004E+02 -0.43666936779E+02  0.10667794770E+03  0.00000000000E+00 0.  1.
<mgrwt>
<rscale>  2 0.14979676E+03</rscale>
<asrwt>0</asrwt>
<pdfrwt beam="1">  1       21 0.79304637E-02 0.14979676E+03</pdfrwt>
<pdfrwt beam="2">  1       21 0.93680630E-01 0.14979676E+03</pdfrwt>
<totfact> 0.11859044E+05</totfact>
</mgrwt>
</event>
<event>
 5    1  0.1708429E+000  0.6855699E+02  0.7546771E-02  0.1365070E+00
         21   -1    0    0  503  502  0.00000000000E+00  0.00000000000E+00  0.12048608302E+04  0.12048608302E+04  0.00000000000E+00 0. -1.
         21   -1    0    0  501  503 -0.00000000000E+00 -0.00000000000E+00 -0.55221547662E+01  0.55221547662E+01  0.00000000000E+00 0. -1.
         24    1    1    2    0    0 -0.51741106352E+01  0.18506656810E+02  0.60424956779E+03  0.60988033572E+03  0.80419002446E+02 0.  0.
          1    1    1    2  501    0 -0.10938343079E+02 -0.31745547888E+02  0.11106630168E+03  0.11603081715E+03  0.00000000000E+00 0. -1.
         -2    1    1    2    0  502  0.16112453715E+02  0.13238891078E+02  0.48402280592E+03  0.48447183205E+03  0.00000000000E+00 0.  1.
<mgrwt>
<rscale>  2 0.68556988E+02</rscale>
<asrwt>0</asrwt>
<pdfrwt beam="1">  1       21 0.18536300E+00 0.68556988E+02</pdfrwt>
<pdfrwt beam="2">  1       21 0.84956323E-03 0.68556988E+02</pdfrwt>
<totfact> 0.84274890E+05</totfact>
</mgrwt>
</event>
<event>
 5    1  0.1708429E+000  0.6923505E+02  0.7546771E-02  0.1362714E+00
         21   -1    0    0  501  502  0.00000000000E+00  0.00000000000E+00  0.11002509123E+02  0.11002509123E+02  0.00000000000E+00 0. -1.
         21   -1    0    0  502  503 -0.00000000000E+00 -0.00000000000E+00 -0.47187480268E+03  0.47187480268E+03  0.00000000000E+00 0. -1.
         24    1    1    2    0    0  0.36351904878E+02 -0.15360700349E+02 -0.33246094611E+03  0.34431803430E+03  0.80419002446E+02 0. -1.
          1    1    1    2  501    0 -0.26276538378E+02 -0.44627855028E+01 -0.45635491087E+02  0.52848566398E+02  0.00000000000E+00 0. -1.
         -2    1    1    2    0  503 -0.10075366499E+02  0.19823485852E+02 -0.82775856364E+02  0.85710711106E+02  0.00000000000E+00 0.  1.
<mgrwt>
<rscale>  2 0.69235049E+02</rscale>
<asrwt>0</asrwt>
<pdfrwt beam="1">  1       21 0.16926941E-02 0.69235049E+02</pdfrwt>
<pdfrwt beam="2">  1       21 0.72596108E-01 0.69235049E+02</pdfrwt>
<totfact> 0.26808010E+06</totfact>
</mgrwt>
</event>
<event>
 5    1  0.1708429E+000  0.1190288E+03  0.7546771E-02  0.1244708E+00
         21   -1    0    0  503  502  0.00000000000E+00  0.00000000000E+00  0.29546180824E+02  0.29546180824E+02  0.00000000000E+00 0. -1.
         21   -1    0    0  501  503 -0.00000000000E+00 -0.00000000000E+00 -0.97316074110E+03  0.97316074110E+03  0.00000000000E+00 0. -1.
         24    1    1    2    0    0 -0.77932043607E+02  0.36271569001E+01 -0.26065766031E+03  0.28371850754E+03  0.80419002446E+02 0. -1.
          1    1    1    2  501    0  0.59191258445E+02  0.44704445745E+02 -0.65670756285E+03  0.66088343575E+03  0.00000000000E+00 0. -1.
         -2    1    1    2    0  502  0.18740785162E+02 -0.48331602646E+02 -0.26249337113E+02  0.58104978630E+02  0.00000000000E+00 0.  1.
<mgrwt>
<rscale>  2 0.11902878E+03</rscale>
<asrwt>0</asrwt>
<pdfrwt beam="1">  1       21 0.45455662E-02 0.11902878E+03</pdfrwt>
<pdfrwt beam="2">  1       21 0.14971704E+00 0.11902878E+03</pdfrwt>
<totfact> 0.98585756E+04</totfact>
</mgrwt>
</event>
<event>
 5    1  0.1708429E+000  0.7890888E+02  0.7546771E-02  0.1332177E+00
         21   -1    0    0  503  502  0.00000000000E+00  0.00000000000E+00  0.78217765891E+02  0.78217765891E+02  0.00000000000E+00 0. -1.
         21   -1    0    0  501  503 -0.00000000000E+00 -0.00000000000E+00 -0.80997384374E+02  0.80997384374E+02  0.00000000000E+00 0.  1.
         24    1    1    2    0    0  0.24175960347E+02  0.16294698494E+02  0.86607537620E+01  0.85978013863E+02  0.80419002446E+02 0.  0.
          1    1    1    2  501    0 -0.83652278023E+01 -0.41603170748E+02 -0.81959437941E+01  0.43220068800E+02  0.00000000000E+00 0. -1.
         -2    1    1    2    0  502 -0.15810732545E+02  0.25308472254E+02 -0.32444284503E+01  0.30017067602E+02  0.00000000000E+00 0.  1.
<mgrwt>
<rscale>  2 0.78908875E+02</rscale>
<asrwt>0</asrwt>
<pdfrwt beam="1">  1       21 0.12033503E-01 0.78908875E+02</pdfrwt>
<pdfrwt beam="2">  1       21 0.12461136E-01 0.78908875E+02</pdfrwt>
<totfact> 0.30952019E+06</totfact>
</mgrwt>
</event>
<event>
 5    1  0.1708429E+000  0.8283307E+02  0.7546771E-02  0.1321199E+00
         21   -1    0    0  501  502  0.00000000000E+00  0.00000000000E+00  0.12124421685E+03  0.12124421685E+03  0.00000000000E+00 0.  1.
         21   -1    0    0  502  503 -0.00000000000E+00 -0.00000000000E+00 -0.14662155018E+03  0.14662155018E+03  0.00000000000E+00 0.  1.
         24    1    1    2    0    0 -0.24838585206E+02  0.28597041634E+02  0.81631553493E+02  0.12068832829E+03  0.80419002446E+02 0.  1.
          1    1    1    2  501    0 -0.19686555548E+02  0.57842532038E+01  0.56259402818E+01  0.21276025440E+02  0.00000000000E+00 0. -1.
         -2    1    1    2    0  503  0.44525140754E+02 -0.34381294838E+02 -0.11263482711E+03  0.12590141330E+03  0.00000000000E+00 0.  1.
<mgrwt>
<rscale>  2 0.82833071E+02</rscale>
<asrwt>0</asrwt>
<pdfrwt beam="1">  1       21 0.18652956E-01 0.82833071E+02</pdfrwt>
<pdfrwt beam="2">  1       21 0.22557162E-01 0.82833071E+02</pdfrwt>
<totfact> 0.48890844E+05</totfact>
</mgrwt>
</event>
<event>
 5    1  0.1708429E+000  0.7274940E+02  0.7546771E-02  0.1350986E+00
         21   -1    0    0  501  502  0.00000000000E+00  0.00000000000E+00  0.28559346467E+02  0.28559346467E+02  0.00000000000E+00 0.  1.
         21   -1    0    0  502  503 -0.00000000000E+00 -0.00000000000E+00 -0.33426629884E+03  0.33426629884E+03  0.00000000000E+00 0. -1.
         24    1    1    2    0    0 -0.50564782395E+01 -0.13001228805E+02 -0.50944634766E+02  0.96214196917E+02  0.80419002446E+02 0.  1.
          1    1    1    2  501    0 -0.13294140390E+02 -0.21224363404E+02 -0.32750332300E+02  0.41228534250E+02  0.00000000000E+00 0. -1.
         -2    1    1    2    0  503  0.18350618630E+02  0.34225592209E+02 -0.22201198531E+03  0.22538291414E+03  0.00000000000E+00 0.  1.
<mgrwt>
<rscale>  2 0.72749398E+02</rscale>
<asrwt>0</asrwt>
<pdfrwt beam="1">  1       21 0.43937455E-02 0.72749398E+02</pdfrwt>
<pdfrwt beam="2">  1       21 0.51425586E-01 0.72749398E+02</pdfrwt>
<totfact> 0.11901813E+06</totfact>
</mgrwt>
</event>
<event>
 5    1  0.1708429E+000  0.1079774E+03  0.7546771E-02  0.1264362E+00
         21   -1    0    0  501  502  0.00000000000E+00  0.00000000000E+00  0.10122128422E+03  0.10122128422E+03  0.00000000000E+00 0.  1.
         21   -1    0    0  502  503 -0.00000000000E+00 -0.00000000000E+00 -0.22803386623E+03  0.22803386623E+03  0.00000000000E+00 0.  1.
         24    1    1    2    0    0 -0.33942240400E+02  0.55629661318E+02 -0.15748296225E+03  0.18845379873E+03  0.80419002446E+02 0.  1.
          1    1    1    2  501    0  0.14728928591E+02  0.25295825499E+02  0.47638807136E+02  0.55913111793E+02  0.00000000000E+00 0. -1.
         -2    1    1    2    0  503  0.19213311809E+02 -0.80925486818E+02 -0.16968426891E+02  0.84888239930E+02  0.00000000000E+00 0.  1.
<mgrwt>
<rscale>  2 0.10797737E+03</rscale>
<asrwt>0</asrwt>
<pdfrwt beam="1">  1       21 0.15572505E-01 0.10797737E+03</pdfrwt>
<pdfrwt beam="2">  1       21 0.35082133E-01 0.10797737E+03</pdfrwt>
<totfact> 0.29208905E+05</totfact>
</mgrwt>
</event>
<event>
 5    1  0.1708429E+000  0.7368250E+02  0.7546771E-02  0.1348000E+00
         21   -1    0    0  503  502  0.00000000000E+00  0.00000000000E+00  0.43842140593E+02  0.43842140593E+02  0.00000000000E+00 0.  1.
         21   -1    0    0  501  503 -0.00000000000E+00 -0.00000000000E+00 -0.17390033508E+03  0.17390033508E+03  0.00000000000E+00 0.  1.
         24    1    1    2    0    0 -0.19156133831E+02 -0.42812741797E+02 -0.10979067620E+03  0.14394824368E+03  0.80419002446E+02 0.  1.
          1    1    1    2  501    0  0.22465187643E+02  0.16817356431E+02 -0.34099967908E+02  0.44162381554E+02  0.00000000000E+00 0. -1.
         -2    1    1    2    0  502 -0.33090538119E+01  0.25995385366E+02  0.13832449627E+02  0.29631850434E+02  0.00000000000E+00 0.  1.
<mgrwt>
<rscale>  2 0.73682505E+02</rscale>
<asrwt>0</asrwt>
<pdfrwt beam="1">  1       21 0.67449449E-02 0.73682505E+02</pdfrwt>
<pdfrwt beam="2">  1       21 0.26753897E-01 0.73682505E+02</pdfrwt>
<totfact> 0.20881082E+06</totfact>
</mgrwt>
</event>
<event>
 5    1  0.1708429E+000  0.7228900E+02  0.7546771E-02  0.1352478E+00
         21   -1    0    0  503  502  0.00000000000E+00  0.00000000000E+00  0.90043367621E+01  0.90043367621E+01  0.00000000000E+00 0. -1.
         21   -1    0    0  501  503 -0.00000000000E+00 -0.00000000000E+00 -0.74804485963E+03  0.74804485963E+03  0.00000000000E+00 0. -1.
         24    1    1    2    0    0  0.29048450626E+02 -0.18795398129E+02 -0.25632158632E+03  0.27085983652E+03  0.80419002446E+02 0. -1.
          1    1    1    2  501    0 -0.68299527826E+01  0.30957964395E+02 -0.31112357549E+03  0.31273458882E+03  0.00000000000E+00 0. -1.
         -2    1    1    2    0  502 -0.22218497843E+02 -0.12162566266E+02 -0.17159536106E+03  0.17345477105E+03  0.00000000000E+00 0.  1.
<mgrwt>
<rscale>  2 0.72289004E+02</rscale>
<asrwt>0</asrwt>
<pdfrwt beam="1">  1       21 0.13852825E-02 0.72289004E+02</pdfrwt>
<pdfrwt beam="2">  1       21 0.11508383E+00 0.72289004E+02</pdfrwt>
<totfact> 0.13042089E+06</totfact>
</mgrwt>
</event>
<event>
 5    1  0.1708429E+000  0.7421385E+02  0.7546771E-02  0.1346323E+00
         21   -1    0    0  501  502  0.00000000000E+00  0.00000000000E+00  0.91691052147E+03  0.91691052147E+03  0.00000000000E+00 0.  1.
         21   -1    0    0  502  503 -0.00000000000E+00 -0.00000000000E+00 -0.75706257152E+01  0.75706257152E+01  0.00000000000E+00 0.  1.
         24    1    1    2    0    0 -0.13193692140E+02 -0.25014524438E+02  0.64381284066E+03  0.64943205164E+03  0.80419002446E+02 0.  1.
          1    1    1    2  501    0  0.18463370299E+02 -0.14400501613E+02  0.16956447092E+03  0.17117353851E+03  0.00000000000E+00 0. -1.
         -2    1    1    2    0  503 -0.52696781584E+01  0.39415026051E+02  0.95962584170E+02  0.10387555702E+03  0.00000000000E+00 0.  1.
<mgrwt>
<rscale>  2 0.74213853E+02</rscale>
<asrwt>0</asrwt>
<pdfrwt beam="1">  1       21 0.14106307E+00 0.74213853E+02</pdfrwt>
<pdfrwt beam="2">  1       21 0.11647124E-02 0.74213853E+02</pdfrwt>
<totfact> 0.10456504E+06</totfact>
</mgrwt>
</event>
<event>
 5    1  0.1708429E+000  0.8221953E+02  0.7546771E-02  0.1322868E+00
         21   -1    0    0  503  502  0.00000000000E+00  0.00000000000E+00  0.39786489600E+02  0.39786489600E+02  0.00000000000E+00 0.  1.
         21   -1    0    0  501  503 -0.00000000000E+00 -0.00000000000E+00 -0.17990785516E+03  0.17990785516E+03  0.00000000000E+00 0.  1.
         24    1    1    2    0    0 -0.36336067018E+02  0.48447432170E+02 -0.93059400018E+02  0.13709387782E+03  0.80419002446E+02 0.  1.
          1    1    1    2  501    0  0.89488907581E+01 -0.28539536217E+02 -0.36381092788E+02  0.47097470056E+02  0.00000000000E+00 0. -1.
         -2    1    1    2    0  502  0.27387176260E+02 -0.19907895953E+02 -0.10680872753E+02  0.35502996881E+02  0.00000000000E+00 0.  1.
<mgrwt>
<rscale>  2 0.82219532E+02</rscale>
<asrwt>0</asrwt>
<pdfrwt beam="1">  1       21 0.61209983E-02 0.82219532E+02</pdfrwt>
<pdfrwt beam="2">  1       21 0.27678132E-01 0.82219532E+02</pdfrwt>
<totfact> 0.23175039E+06</totfact>
</mgrwt>
</event>
<event>
 5    1  0.1708429E+000  0.1188429E+03  0.7546771E-02  0.1245018E+00
         21   -1    0    0  503  502  0.00000000000E+00  0.00000000000E+00  0.30435704026E+02  0.30435704026E+02  0.00000000000E+00 0. -1.
         21   -1    0    0  501  503 -0.00000000000E+00 -0.00000000000E+00 -0.49243800914E+03  0.49243800914E+03  0.00000000000E+00 0.  1.
         24    1    1    2    0    0  0.36428439967E+02 -0.61857646415E+02 -0.24884667114E+03  0.27119233277E+03  0.80419002446E+02 0.  0.
          1    1    1    2  501    0  0.27322095325E+02 -0.14080413731E+02 -0.79727636745E+02  0.85447358091E+02  0.00000000000E+00 0. -1.
         -2    1    1    2    0  502 -0.63750535291E+02  0.75938060146E+02 -0.13342799722E+03  0.16623402230E+03  0.00000000000E+00 0.  1.
<mgrwt>
<rscale>  2 0.11884291E+03</rscale>
<asrwt>0</asrwt>
<pdfrwt beam="1">  1       21 0.46824162E-02 0.11884291E+03</pdfrwt>
<pdfrwt beam="2">  1       21 0.75759690E-01 0.11884291E+03</pdfrwt>
<totfact> 0.47286184E+05</totfact>
</mgrwt>
</event>
<event>
 5    1  0.1708429E+000  0.8286353E+02  0.7546771E-02  0.1321116E+00
         21   -1    0    0  503  502  0.00000000000E+00  0.00000000000E+00  0.67767762732E+02  0.67767762732E+02  0.00000000000E+00 0.  1.
         21   -1    0    0  501  503 -0.00000000000E+00 -0.00000000000E+00 -0.15981326575E+03  0.15981326575E+03  0.00000000000E+00 0. -1.
         24    1    1    2    0    0  0.49551949425E+02 -0.53135556030E+01  0.18169181507E+02  0.96337763499E+02  0.80419002446E+02 0.  1.
          1    1    1    2  501    0 -0.18590803109E+01  0.20869736309E+02 -0.36289431348E+02  0.41903757597E+02  0.00000000000E+00 0. -1.
         -2    1    1    2    0  502 -0.47692869114E+02 -0.15556180706E+02 -0.73925253173E+02  0.89339507382E+02  0.00000000000E+00 0.  1.
<mgrwt>
<rscale>  2 0.82863527E+02</rscale>
<asrwt>0</asrwt>
<pdfrwt beam="1">  1       21 0.10425810E-01 0.82863527E+02</pdfrwt>
<pdfrwt beam="2">  1       21 0.24586656E-01 0.82863527E+02</pdfrwt>
<totfact> 0.11678043E+06</totfact>
</mgrwt>
</event>
<event>
 5    1  0.1708429E+000  0.7814937E+02  0.7546771E-02  0.1334387E+00
         21   -1    0    0  503  502  0.00000000000E+00  0.00000000000E+00  0.61998514049E+03  0.61998514049E+03  0.00000000000E+00 0.  1.
         21   -1    0    0  501  503 -0.00000000000E+00 -0.00000000000E+00 -0.11017389119E+02  0.11017389119E+02  0.00000000000E+00 0. -1.
         24    1    1    2    0    0  0.63261812259E+01  0.29602888302E+02  0.28685852306E+03  0.29945179874E+03  0.80419002446E+02 0.  0.
          1    1    1    2  501    0 -0.14293324662E+02  0.17502145241E+02  0.45016174787E+02  0.50369437265E+02  0.00000000000E+00 0. -1.
         -2    1    1    2    0  502  0.79671434363E+01 -0.47105033542E+02  0.27709305353E+03  0.28118129360E+03  0.00000000000E+00 0.  1.
<mgrwt>
<rscale>  2 0.78149365E+02</rscale>
<asrwt>0</asrwt>
<pdfrwt beam="1">  1       21 0.95382302E-01 0.78149365E+02</pdfrwt>
<pdfrwt beam="2">  1       21 0.16949834E-02 0.78149365E+02</pdfrwt>
<totfact> 0.14691259E+06</totfact>
</mgrwt>
</event>
<event>
 5    1  0.1708429E+000  0.6941336E+02  0.7546771E-02  0.1362099E+00
         21   -1    0    0  503  502  0.00000000000E+00  0.00000000000E+00  0.18364145556E+02  0.18364145556E+02  0.00000000000E+00 0.  1.
         21   -1    0    0  501  503 -0.00000000000E+00 -0.00000000000E+00 -0.52095209080E+03  0.52095209080E+03  0.00000000000E+00 0. -1.
         24    1    1    2    0    0  0.10061148817E+02  0.21545094035E+02 -0.26753934389E+03  0.28037463201E+03  0.80419002446E+02 0.  1.
          1    1    1    2  501    0 -0.17514887402E+02  0.11590286460E+02 -0.22131061346E+03  0.22230495642E+03  0.00000000000E+00 0. -1.
         -2    1    1    2    0  502  0.74537385847E+01 -0.33135380495E+02 -0.13737987898E+02  0.36636647922E+02  0.00000000000E+00 0.  1.
<mgrwt>
<rscale>  2 0.69413356E+02</rscale>
<asrwt>0</asrwt>
<pdfrwt beam="1">  1       21 0.28252531E-02 0.69413356E+02</pdfrwt>
<pdfrwt beam="2">  1       21 0.80146478E-01 0.69413356E+02</pdfrwt>
<totfact> 0.95567716E+05</totfact>
</mgrwt>
</event>
<event>
 5    1  0.1708429E+000  0.7700444E+02  0.7546771E-02  0.1337774E+00
         21   -1    0    0  501  502  0.00000000000E+00  0.00000000000E+00  0.17759954669E+02  0.17759954669E+02  0.00000000000E+00 0.  1.
         21   -1    0    0  502  503 -0.00000000000E+00 -0.00000000000E+00 -0.46451942162E+03  0.46451942162E+03  0.00000000000E+00 0.  1.
         24    1    1    2    0    0 -0.47103472177E+02 -0.26866970111E+02 -0.38979846867E+03  0.40168474368E+03  0.80419002446E+02 0.  1.
          1    1    1    2  501    0  0.12372508681E+02  0.16781596926E+02 -0.21144741869E+02  0.29695135547E+02  0.00000000000E+00 0. -1.
         -2    1    1    2    0  503  0.34730963496E+02  0.10085373185E+02 -0.35816256410E+02  0.50899497058E+02  0.00000000000E+00 0.  1.
<mgrwt>
<rscale>  2 0.77004443E+02</rscale>
<asrwt>0</asrwt>
<pdfrwt beam="1">  1       21 0.27323008E-02 0.77004443E+02</pdfrwt>
<pdfrwt beam="2">  1       21 0.71464524E-01 0.77004443E+02</pdfrwt>
<totfact> 0.12969783E+06</totfact>
</mgrwt>
</event>
<event>
 5    1  0.1708429E+000  0.6828327E+02  0.7546771E-02  0.1366030E+00
         21   -1    0    0  503  502  0.00000000000E+00  0.00000000000E+00  0.72895807816E+02  0.72895807816E+02  0.00000000000E+00 0. -1.
         21   -1    0    0  501  503 -0.00000000000E+00 -0.00000000000E+00 -0.72087828114E+02  0.72087828114E+02  0.00000000000E+00 0.  1.
         24    1    1    2    0    0  0.18793522143E+02  0.23307515354E+02 -0.19544753085E+02  0.88009374921E+02  0.80419002446E+02 0.  0.
          1    1    1    2  501    0 -0.24915140718E+02  0.17344793802E+01  0.14692103118E+01  0.25018617761E+02  0.00000000000E+00 0. -1.
         -2    1    1    2    0  502  0.61216185755E+01 -0.25041994735E+02  0.18883522475E+02  0.31955643247E+02  0.00000000000E+00 0.  1.
<mgrwt>
<rscale>  2 0.68283268E+02</rscale>
<asrwt>0</asrwt>
<pdfrwt beam="1">  1       21 0.11214740E-01 0.68283268E+02</pdfrwt>
<pdfrwt beam="2">  1       21 0.11090435E-01 0.68283268E+02</pdfrwt>
<totfact> 0.42456326E+06</totfact>
</mgrwt>
</event>
<event>
 5    1  0.1708429E+000  0.7531898E+02  0.7546771E-02  0.1342886E+00
         21   -1    0    0  503  502  0.00000000000E+00  0.00000000000E+00  0.24878325286E+03  0.24878325286E+03  0.00000000000E+00 0.  1.
         21   -1    0    0  501  503 -0.00000000000E+00 -0.00000000000E+00 -0.40491156432E+02  0.40491156432E+02  0.00000000000E+00 0. -1.
         24    1    1    2    0    0  0.25149886131E+02 -0.95992999696E+01  0.90646372854E+02  0.12413156004E+03  0.80419002446E+02 0.  1.
          1    1    1    2  501    0 -0.35208404189E+02 -0.15742811776E+02 -0.55509554472E+01  0.38965124850E+02  0.00000000000E+00 0. -1.
         -2    1    1    2    0  502  0.10058518058E+02  0.25342111745E+02  0.12319667902E+03  0.12617772440E+03  0.00000000000E+00 0.  1.
<mgrwt>
<rscale>  2 0.75318975E+02</rscale>
<asrwt>0</asrwt>
<pdfrwt beam="1">  1       21 0.38274346E-01 0.75318975E+02</pdfrwt>
<pdfrwt beam="2">  1       21 0.62294088E-02 0.75318975E+02</pdfrwt>
<totfact> 0.12036991E+06</totfact>
</mgrwt>
</event>
<event>
 5    1  0.1708429E+000  0.7076161E+02  0.7546771E-02  0.1357522E+00
         21   -1    0    0  501  502  0.00000000000E+00  0.00000000000E+00  0.35853105566E+02  0.35853105566E+02  0.00000000000E+00 0.  1.
         21   -1    0    0  502  503 -0.00000000000E+00 -0.00000000000E+00 -0.22509387721E+03  0.22509387721E+03  0.00000000000E+00 0. -1.
         24    1    1    2    0    0  0.25146383118E+02 -0.95996427693E+01 -0.18556999237E+03  0.20402924238E+03  0.80419002446E+02 0. -1.
          1    1    1    2  501    0 -0.85321800007E+01  0.29549831699E+02 -0.48583692140E+00  0.30760797885E+02  0.00000000000E+00 0. -1.
         -2    1    1    2    0  503 -0.16614203118E+02 -0.19950188930E+02 -0.31849423535E+01  0.26156942508E+02  0.00000000000E+00 0.  1.
<mgrwt>
<rscale>  2 0.70761612E+02</rscale>
<asrwt>0</asrwt>
<pdfrwt beam="1">  1       21 0.55158624E-02 0.70761612E+02</pdfrwt>
<pdfrwt beam="2">  1       21 0.34629827E-01 0.70761612E+02</pdfrwt>
<totfact> 0.17864134E+06</totfact>
</mgrwt>
</event>
<event>
 5    1  0.1708429E+000  0.1343849E+03  0.7546771E-02  0.1221091E+00
         21   -1    0    0  503  502  0.00000000000E+00  0.00000000000E+00  0.17526017591E+03  0.17526017591E+03  0.00000000000E+00 0.  1.
         21   -1    0    0  501  503 -0.00000000000E+00 -0.00000000000E+00 -0.13333662589E+03  0.13333662589E+03  0.00000000000E+00 0. -1.
         24    1    1    2    0    0 -0.74139932522E+02 -0.73111359291E+02 -0.47269485782E+02  0.13979850032E+03  0.80419002446E+02 0. -1.
          1    1    1    2  501    0 -0.20865523260E+02  0.16599227877E+02 -0.15303767688E+00  0.26663230253E+02  0.00000000000E+00 0. -1.
         -2    1    1    2    0  502  0.95005455782E+02  0.56512131414E+02  0.89346073480E+02  0.14213507122E+03  0.00000000000E+00 0.  1.
<mgrwt>
<rscale>  2 0.13438492E+03</rscale>
<asrwt>0</asrwt>
<pdfrwt beam="1">  1       21 0.26963104E-01 0.13438492E+03</pdfrwt>
<pdfrwt beam="2">  1       21 0.20513327E-01 0.13438492E+03</pdfrwt>
<totfact> 0.29209641E+05</totfact>
</mgrwt>
</event>
<event>
 5    1  0.1708429E+000  0.8879886E+02  0.7546771E-02  0.1305787E+00
         21   -1    0    0  501  502  0.00000000000E+00  0.00000000000E+00  0.21954961618E+04  0.21954961618E+04  0.00000000000E+00 0. -1.
         21   -1    0    0  502  503 -0.00000000000E+00 -0.00000000000E+00 -0.35047184133E+03  0.35047184133E+03  0.00000000000E+00 0.  1.
         24    1    1    2    0    0 -0.27101333241E+02 -0.33362883512E+02  0.29362883487E+03  0.30746166084E+03  0.80419002446E+02 0.  1.
          1    1    1    2  501    0  0.12225091272E+02 -0.24117018286E+02  0.18922883462E+04  0.18924815107E+04  0.00000000000E+00 0. -1.
         -2    1    1    2    0  503  0.14876241969E+02  0.57479901798E+02 -0.34089286056E+03  0.34602483157E+03  0.00000000000E+00 0.  1.
<mgrwt>
<rscale>  2 0.88798858E+02</rscale>
<asrwt>0</asrwt>
<pdfrwt beam="1">  1       21 0.33776863E+00 0.88798858E+02</pdfrwt>
<pdfrwt beam="2">  1       21 0.53918746E-01 0.88798858E+02</pdfrwt>
<totfact> 0.87664201E+01</totfact>
</mgrwt>
</event>
<event>
 5    1  0.1708429E+000  0.1050643E+03  0.7546771E-02  0.1269993E+00
         21   -1    0    0  503  502  0.00000000000E+00  0.00000000000E+00  0.12214959684E+03  0.12214959684E+03  0.00000000000E+00 0. -1.
         21   -1    0    0  501  503 -0.00000000000E+00 -0.00000000000E+00 -0.10091078540E+03  0.10091078540E+03  0.00000000000E+00 0.  1.
         24    1    1    2    0    0 -0.14126634476E+02  0.31389105451E+02 -0.25086380590E+02  0.91002088922E+02  0.80419002446E+02 0.  1.
          1    1    1    2  501    0 -0.38590505345E+02 -0.53098417229E+02  0.16348936945E+02  0.67645818453E+02  0.00000000000E+00 0. -1.
         -2    1    1    2    0  502  0.52717139821E+02  0.21709311778E+02  0.29976255089E+02  0.64412474863E+02  0.00000000000E+00 0.  1.
<mgrwt>
<rscale>  2 0.10506434E+03</rscale>
<asrwt>0</asrwt>
<pdfrwt beam="1">  1       21 0.18792246E-01 0.10506434E+03</pdfrwt>
<pdfrwt beam="2">  1       21 0.15524736E-01 0.10506434E+03</pdfrwt>
<totfact> 0.95434007E+05</totfact>
</mgrwt>
</event>
<event>
 5    1  0.1708429E+000  0.1040667E+03  0.7546771E-02  0.1271969E+00
         21   -1    0    0  501  502  0.00000000000E+00  0.00000000000E+00  0.86377175678E+03  0.86377175678E+03  0.00000000000E+00 0. -1.
         21   -1    0    0  502  503 -0.00000000000E+00 -0.00000000000E+00 -0.18052058010E+02  0.18052058010E+02  0.00000000000E+00 0.  1.
         24    1    1    2    0    0  0.44871016751E+02  0.65132784791E+02  0.54638825313E+03  0.55790951499E+03  0.80419002446E+02 0.  0.
          1    1    1    2  501    0 -0.39801588259E+02 -0.11449881161E+02  0.24078188818E+03  0.24431779280E+03  0.00000000000E+00 0. -1.
         -2    1    1    2    0  503 -0.50694284925E+01 -0.53682903629E+02  0.58549557461E+02  0.79596506998E+02  0.00000000000E+00 0.  1.
<mgrwt>
<rscale>  2 0.10406668E+03</rscale>
<asrwt>0</asrwt>
<pdfrwt beam="1">  1       21 0.13288793E+00 0.10406668E+03</pdfrwt>
<pdfrwt beam="2">  1       21 0.27772404E-02 0.10406668E+03</pdfrwt>
<totfact> 0.30215259E+05</totfact>
</mgrwt>
</event>
<event>
 5    1  0.1708429E+000  0.7264018E+02  0.7546771E-02  0.1351338E+00
         21   -1    0    0  503  502  0.00000000000E+00  0.00000000000E+00  0.70922415386E+03  0.70922415386E+03  0.00000000000E+00 0.  1.
         21   -1    0    0  501  503 -0.00000000000E+00 -0.00000000000E+00 -0.18640599906E+02  0.18640599906E+02  0.00000000000E+00 0. -1.
         24    1    1    2    0    0 -0.46713063940E+02 -0.14108004818E+02  0.47095696646E+03  0.48025912418E+03  0.80419002446E+02 0. -1.
          1    1    1    2  501    0  0.25192018889E+02  0.15618267597E+02  0.28713591392E+01  0.29779402307E+02  0.00000000000E+00 0. -1.
         -2    1    1    2    0  502  0.21521045051E+02 -0.15102627794E+01  0.21675522835E+03  0.21782622728E+03  0.00000000000E+00 0.  1.
<mgrwt>
<rscale>  2 0.72640177E+02</rscale>
<asrwt>0</asrwt>
<pdfrwt beam="1">  1       21 0.10911139E+00 0.72640177E+02</pdfrwt>
<pdfrwt beam="2">  1       21 0.28677851E-02 0.72640177E+02</pdfrwt>
<totfact> 0.46443108E+05</totfact>
</mgrwt>
</event>
<event>
 5    1  0.1708429E+000  0.7647894E+02  0.7546771E-02  0.1339351E+00
         21   -1    0    0  503  502  0.00000000000E+00  0.00000000000E+00  0.95722269498E+01  0.95722269498E+01  0.00000000000E+00 0. -1.
         21   -1    0    0  501  503 -0.00000000000E+00 -0.00000000000E+00 -0.87289498896E+03  0.87289498896E+03  0.00000000000E+00 0.  1.
         24    1    1    2    0    0 -0.26984477162E+02 -0.47793717760E+02 -0.68354661568E+03  0.69044593794E+03  0.80419002446E+02 0.  1.
          1    1    1    2  501    0  0.20791527961E+02  0.28137380024E+02 -0.15882605844E+03  0.16263368848E+03  0.00000000000E+00 0. -1.
         -2    1    1    2    0  502  0.61929492012E+01  0.19656337736E+02 -0.20950087896E+02  0.29387589487E+02  0.00000000000E+00 0.  1.
<mgrwt>
<rscale>  2 0.76478937E+02</rscale>
<asrwt>0</asrwt>
<pdfrwt beam="1">  1       21 0.14726504E-02 0.76478937E+02</pdfrwt>
<pdfrwt beam="2">  1       21 0.13429153E+00 0.76478937E+02</pdfrwt>
<totfact> 0.81721669E+05</totfact>
</mgrwt>
</event>
<event>
 5    1  0.1708429E+000  0.9992705E+02  0.7546771E-02  0.1280449E+00
         21   -1    0    0  501  502  0.00000000000E+00  0.00000000000E+00  0.24640284660E+03  0.24640284660E+03  0.00000000000E+00 0. -1.
         21   -1    0    0  502  503 -0.00000000000E+00 -0.00000000000E+00 -0.30575191042E+03  0.30575191042E+03  0.00000000000E+00 0.  1.
         24    1    1    2    0    0 -0.29062398653E+02  0.84792671001E+01 -0.11687832794E+03  0.14506646919E+03  0.80419002446E+02 0.  1.
          1    1    1    2  501    0  0.37559514185E+02  0.45660115498E+02  0.22408236214E+03  0.23175087546E+03  0.00000000000E+00 0. -1.
         -2    1    1    2    0  503 -0.84971155318E+01 -0.54139382598E+02 -0.16655309801E+03  0.17533741237E+03  0.00000000000E+00 0.  1.
<mgrwt>
<rscale>  2 0.99927047E+02</rscale>
<asrwt>0</asrwt>
<pdfrwt beam="1">  1       21 0.37908130E-01 0.99927047E+02</pdfrwt>
<pdfrwt beam="2">  1       21 0.47038756E-01 0.99927047E+02</pdfrwt>
<totfact> 0.30777792E+04</totfact>
</mgrwt>
</event>
<event>
 5    1  0.2334728E+000  0.1036328E+03  0.7546771E-02  0.1272837E+00
         21   -1    0    0  503  502  0.00000000000E+00  0.00000000000E+00  0.46691562699E+02  0.46691562699E+02  0.00000000000E+00 0. -1.
         21   -1    0    0  501  503 -0.00000000000E+00 -0.00000000000E+00 -0.10194668298E+04  0.10194668298E+04  0.00000000000E+00 0. -1.
         24    1    1    2    0    0 -0.41017054681E+02  0.15659687212E+02 -0.38973034502E+02  0.99567755579E+02  0.80419002446E+02 0. -1.
          1    1    1    2  501    0  0.29095042669E+02  0.45129314492E+02 -0.88782112285E+03  0.88944337802E+03  0.00000000000E+00 0. -1.
         -2    1    1    2    0  502  0.11922012013E+02 -0.60789001705E+02 -0.45981109709E+02  0.77147258854E+02  0.00000000000E+00 0.  1.
<mgrwt>
<rscale>  2 0.10363282E+03</rscale>
<asrwt>0</asrwt>
<pdfrwt beam="1">  1       21 0.71833176E-02 0.10363282E+03</pdfrwt>
<pdfrwt beam="2">  1       21 0.15684105E+00 0.10363282E+03</pdfrwt>
<totfact> 0.40879462E+04</totfact>
</mgrwt>
</event>
<event>
 5    1  0.1708429E+000  0.7146153E+02  0.7546771E-02  0.1355192E+00
         21   -1    0    0  503  502  0.00000000000E+00  0.00000000000E+00  0.42079439391E+03  0.42079439391E+03  0.00000000000E+00 0. -1.
         21   -1    0    0  501  503 -0.00000000000E+00 -0.00000000000E+00 -0.22318944798E+02  0.22318944798E+02  0.00000000000E+00 0.  1.
         24    1    1    2    0    0  0.89198554059E+01 -0.27536352996E+02  0.17065700636E+03  0.19086341800E+03  0.80419002446E+02 0.  0.
          1    1    1    2  501    0  0.18538888921E+02  0.23131421336E+02  0.80341578671E+01  0.30713201528E+02  0.00000000000E+00 0. -1.
         -2    1    1    2    0  502 -0.27458744326E+02  0.44049316592E+01  0.21978428488E+03  0.22153671918E+03  0.00000000000E+00 0.  1.
<mgrwt>
<rscale>  2 0.71461530E+02</rscale>
<asrwt>0</asrwt>
<pdfrwt beam="1">  1       21 0.64737593E-01 0.71461530E+02</pdfrwt>
<pdfrwt beam="2">  1       21 0.34336841E-02 0.71461530E+02</pdfrwt>
<totfact> 0.11041982E+06</totfact>
</mgrwt>
</event>
<event>
 5    1  0.1708429E+000  0.8459412E+02  0.7546771E-02  0.1316497E+00
         21   -1    0    0  501  502  0.00000000000E+00  0.00000000000E+00  0.12856722796E+02  0.12856722796E+02  0.00000000000E+00 0. -1.
         21   -1    0    0  502  503 -0.00000000000E+00 -0.00000000000E+00 -0.65013359175E+03  0.65013359175E+03  0.00000000000E+00 0.  1.
         24    1    1    2    0    0 -0.21769789952E+02  0.24571516491E+01 -0.41728963364E+03  0.42553239084E+03  0.80419002446E+02 0.  1.
          1    1    1    2  501    0  0.12739677705E+01  0.39300980134E+02 -0.68434396746E+02  0.78926907271E+02  0.00000000000E+00 0. -1.
         -2    1    1    2    0  503  0.20495822182E+02 -0.41758131783E+02 -0.15155283856E+03  0.15853101644E+03  0.00000000000E+00 0.  1.
<mgrwt>
<rscale>  2 0.84594117E+02</rscale>
<asrwt>0</asrwt>
<pdfrwt beam="1">  1       21 0.19779570E-02 0.84594117E+02</pdfrwt>
<pdfrwt beam="2">  1       21 0.10002057E+00 0.84594117E+02</pdfrwt>
<totfact> 0.10322326E+06</totfact>
</mgrwt>
</event>
<event>
 5    1  0.1708429E+000  0.9536798E+02  0.7546771E-02  0.1290349E+00
         21   -1    0    0  501  502  0.00000000000E+00  0.00000000000E+00  0.95283256657E+02  0.95283256657E+02  0.00000000000E+00 0. -1.
         21   -1    0    0  502  503 -0.00000000000E+00 -0.00000000000E+00 -0.16851048564E+03  0.16851048564E+03  0.00000000000E+00 0. -1.
         24    1    1    2    0    0 -0.14429983936E+02 -0.75969722323E+02 -0.61999074300E+02  0.12763512179E+03  0.80419002446E+02 0. -1.
          1    1    1    2  501    0 -0.36007517901E+01  0.21354539863E+02  0.48576786476E+02  0.53185392455E+02  0.00000000000E+00 0. -1.
         -2    1    1    2    0  503  0.18030735726E+02  0.54615182461E+02 -0.59804941158E+02  0.82973228049E+02  0.00000000000E+00 0.  1.
<mgrwt>
<rscale>  2 0.95367979E+02</rscale>
<asrwt>0</asrwt>
<pdfrwt beam="1">  1       21 0.14658963E-01 0.95367979E+02</pdfrwt>
<pdfrwt beam="2">  1       21 0.25924690E-01 0.95367979E+02</pdfrwt>
<totfact> 0.58205688E+05</totfact>
</mgrwt>
</event>
<event>
 5    1  0.1708429E+000  0.1762660E+03  0.7546771E-02  0.1171466E+00
         21   -1    0    0  501  502  0.00000000000E+00  0.00000000000E+00  0.12653252573E+04  0.12653252573E+04  0.00000000000E+00 0. -1.
         21   -1    0    0  502  503 -0.00000000000E+00 -0.00000000000E+00 -0.12882289332E+03  0.12882289332E+03  0.00000000000E+00 0.  1.
         24    1    1    2    0    0 -0.15565252032E+03  0.57425210536E+02  0.95070520410E+02  0.20743910358E+03  0.80419002446E+02 0.  1.
          1    1    1    2  501    0  0.42916827099E+02 -0.29316863424E+02  0.10665684382E+04  0.10678340535E+04  0.00000000000E+00 0. -1.
         -2    1    1    2    0  503  0.11273569322E+03 -0.28108347112E+02 -0.25136594588E+02  0.11887499355E+03  0.00000000000E+00 0.  1.
<mgrwt>
<rscale>  2 0.17626605E+03</rscale>
<asrwt>0</asrwt>
<pdfrwt beam="1">  1       21 0.19466542E+00 0.17626605E+03</pdfrwt>
<pdfrwt beam="2">  1       21 0.19818907E-01 0.17626605E+03</pdfrwt>
<totfact> 0.34691603E+03</totfact>
</mgrwt>
</event>
<event>
 5    1  0.1708429E+000  0.1200026E+03  0.7546771E-02  0.1243093E+00
         21   -1    0    0  501  502  0.00000000000E+00  0.00000000000E+00  0.81241075394E+02  0.81241075394E+02  0.00000000000E+00 0. -1.
         21   -1    0    0  502  503 -0.00000000000E+00 -0.00000000000E+00 -0.33924387360E+03  0.33924387360E+03  0.00000000000E+00 0.  1.
         24    1    1    2    0    0 -0.40995589152E+02 -0.14681038365E+02 -0.16904158791E+02  0.93000740622E+02  0.80419002446E+02 0. -1.
          1    1    1    2  501    0  0.10580901536E+02 -0.63650817391E+02  0.76028583193E+01  0.64970650962E+02  0.00000000000E+00 0. -1.
         -2    1    1    2    0  503  0.30414687616E+02  0.78331855756E+02 -0.24870149773E+03  0.26251355741E+03  0.00000000000E+00 0.  1.
<mgrwt>
<rscale>  2 0.12000259E+03</rscale>
<asrwt>0</asrwt>
<pdfrwt beam="1">  1       21 0.12498627E-01 0.12000259E+03</pdfrwt>
<pdfrwt beam="2">  1       21 0.52191365E-01 0.12000259E+03</pdfrwt>
<totfact> 0.19401073E+05</totfact>
</mgrwt>
</event>
<event>
 5    1  0.1708429E+000  0.6734817E+02  0.7546771E-02  0.1369350E+00
         21   -1    0    0  503  502  0.00000000000E+00  0.00000000000E+00  0.17738124904E+02  0.17738124904E+02  0.00000000000E+00 0. -1.
         21   -1    0    0  501  503 -0.00000000000E+00 -0.00000000000E+00 -0.38521102564E+03  0.38521102564E+03  0.00000000000E+00 0.  1.
         24    1    1    2    0    0  0.19905956712E+02  0.45508169360E+01 -0.11733192399E+03  0.14370439585E+03  0.80419002446E+02 0. -1.
          1    1    1    2  501    0 -0.16311032469E+02  0.20624425968E+02 -0.21057845580E+03  0.21221381382E+03  0.00000000000E+00 0. -1.
         -2    1    1    2    0  502 -0.35949242434E+01 -0.25175242904E+02 -0.39562520948E+02  0.47030940872E+02  0.00000000000E+00 0.  1.
<mgrwt>
<rscale>  2 0.67348169E+02</rscale>
<asrwt>0</asrwt>
<pdfrwt beam="1">  1       21 0.27289424E-02 0.67348169E+02</pdfrwt>
<pdfrwt beam="2">  1       21 0.59263233E-01 0.67348169E+02</pdfrwt>
<totfact> 0.19218707E+06</totfact>
</mgrwt>
</event>
<event>
 5    1  0.1708429E+000  0.6947524E+02  0.7546771E-02  0.1361887E+00
         21   -1    0    0  501  502  0.00000000000E+00  0.00000000000E+00  0.26688990349E+02  0.26688990349E+02  0.00000000000E+00 0. -1.
         21   -1    0    0  502  503 -0.00000000000E+00 -0.00000000000E+00 -0.37169263177E+03  0.37169263177E+03  0.00000000000E+00 0.  1.
         24    1    1    2    0    0  0.51457614811E+01  0.19512801539E+02 -0.69561637071E+02  0.10822784111E+03  0.80419002446E+02 0. -1.
          1    1    1    2  501    0  0.91420188891E+01 -0.34287334649E+02 -0.38641380919E+02  0.52462883508E+02  0.00000000000E+00 0. -1.
         -2    1    1    2    0  503 -0.14287780370E+02  0.14774533110E+02 -0.23680062343E+03  0.23769089750E+03  0.00000000000E+00 0.  1.
<mgrwt>
<rscale>  2 0.69475243E+02</rscale>
<asrwt>0</asrwt>
<pdfrwt beam="1">  1       21 0.41059989E-02 0.69475243E+02</pdfrwt>
<pdfrwt beam="2">  1       21 0.57183476E-01 0.69475243E+02</pdfrwt>
<totfact> 0.10683783E+06</totfact>
</mgrwt>
</event>
<event>
 5    1  0.1708429E+000  0.8380153E+02  0.7546771E-02  0.1318597E+00
         21   -1    0    0  501  502  0.00000000000E+00  0.00000000000E+00  0.32643990043E+03  0.32643990043E+03  0.00000000000E+00 0.  1.
         21   -1    0    0  502  503 -0.00000000000E+00 -0.00000000000E+00 -0.39758250861E+02  0.39758250861E+02  0.00000000000E+00 0. -1.
         24    1    1    2    0    0  0.27661386141E+02 -0.52556804446E+02  0.62958939212E+02  0.11814573187E+03  0.80419002446E+02 0. -1.
          1    1    1    2  501    0 -0.28775614916E+02  0.19974543438E+02  0.20962838174E+03  0.21253488379E+03  0.00000000000E+00 0. -1.
         -2    1    1    2    0  503  0.11142287749E+01  0.32582261009E+02  0.14094328622E+02  0.35517535634E+02  0.00000000000E+00 0.  1.
<mgrwt>
<rscale>  2 0.83801528E+02</rscale>
<asrwt>0</asrwt>
<pdfrwt beam="1">  1       21 0.50221521E-01 0.83801528E+02</pdfrwt>
<pdfrwt beam="2">  1       21 0.61166542E-02 0.83801528E+02</pdfrwt>
<totfact> 0.72295117E+05</totfact>
</mgrwt>
</event>
<event>
 5    1  0.1708429E+000  0.1031387E+03  0.7546771E-02  0.1273831E+00
         21   -1    0    0  501  502  0.00000000000E+00  0.00000000000E+00  0.20542815745E+03  0.20542815745E+03  0.00000000000E+00 0.  1.
         21   -1    0    0  502  503 -0.00000000000E+00 -0.00000000000E+00 -0.11031462547E+03  0.11031462547E+03  0.00000000000E+00 0.  1.
         24    1    1    2    0    0  0.81858965213E+02  0.28297144458E+02  0.62761363569E+02  0.13382011538E+03  0.80419002446E+02 0.  1.
          1    1    1    2  501    0 -0.43384811669E+02 -0.23428727575E+02  0.95695170307E+02  0.10765088378E+03  0.00000000000E+00 0. -1.
         -2    1    1    2    0  503 -0.38474153544E+02 -0.48684168829E+01 -0.63343001890E+02  0.74271783756E+02  0.00000000000E+00 0.  1.
<mgrwt>
<rscale>  2 0.10313872E+03</rscale>
<asrwt>0</asrwt>
<pdfrwt beam="1">  1       21 0.31604332E-01 0.10313872E+03</pdfrwt>
<pdfrwt beam="2">  1       21 0.16971481E-01 0.10313872E+03</pdfrwt>
<totfact> 0.30653599E+05</totfact>
</mgrwt>
</event>
<event>
 5    1  0.1708429E+000  0.2248555E+03  0.7546771E-02  0.1130314E+00
         21   -1    0    0  503  502  0.00000000000E+00  0.00000000000E+00  0.67615613937E+03  0.67615613937E+03  0.00000000000E+00 0.  1.
         21   -1    0    0  501  503 -0.00000000000E+00 -0.00000000000E+00 -0.83075477328E+02  0.83075477328E+02  0.00000000000E+00 0.  1.
         24    1    1    2    0    0 -0.11217982832E+02  0.17030981416E+03  0.35837314368E+03  0.40500592835E+03  0.80419002446E+02 0.  1.
          1    1    1    2  501    0  0.86381636023E+01  0.44943704208E+02  0.19230963586E+02  0.49642566199E+02  0.00000000000E+00 0. -1.
         -2    1    1    2    0  502  0.25798192296E+01 -0.21525351837E+03  0.21547655478E+03  0.30458312215E+03  0.00000000000E+00 0.  1.
<mgrwt>
<rscale>  2 0.22485545E+03</rscale>
<asrwt>0</asrwt>
<pdfrwt beam="1">  1       21 0.10402402E+00 0.22485545E+03</pdfrwt>
<pdfrwt beam="2">  1       21 0.12780843E-01 0.22485545E+03</pdfrwt>
<totfact> 0.38500973E+04</totfact>
</mgrwt>
</event>
<event>
 5    1  0.1708429E+000  0.7909085E+02  0.7546771E-02  0.1331651E+00
         21   -1    0    0  501  502  0.00000000000E+00  0.00000000000E+00  0.68823245243E+02  0.68823245243E+02  0.00000000000E+00 0.  1.
         21   -1    0    0  502  503 -0.00000000000E+00 -0.00000000000E+00 -0.10934047726E+03  0.10934047726E+03  0.00000000000E+00 0. -1.
         24    1    1    2    0    0 -0.58974824053E+01  0.48009302179E+01 -0.54944202031E+02  0.97692939975E+02  0.80419002446E+02 0. -1.
          1    1    1    2  501    0 -0.35285416056E+02  0.32736012282E+01  0.15046975974E+02  0.38499201773E+02  0.00000000000E+00 0. -1.
         -2    1    1    2    0  503  0.41182898461E+02 -0.80745314461E+01 -0.62000596066E+00  0.41971580756E+02  0.00000000000E+00 0.  1.
<mgrwt>
<rscale>  2 0.79090849E+02</rscale>
<asrwt>0</asrwt>
<pdfrwt beam="1">  1       21 0.10588192E-01 0.79090849E+02</pdfrwt>
<pdfrwt beam="2">  1       21 0.16821612E-01 0.79090849E+02</pdfrwt>
<totfact> 0.22716176E+06</totfact>
</mgrwt>
</event>
<event>
 5    1  0.1708429E+000  0.8969864E+02  0.7546771E-02  0.1303583E+00
         21   -1    0    0  501  502  0.00000000000E+00  0.00000000000E+00  0.14165495527E+03  0.14165495527E+03  0.00000000000E+00 0.  1.
         21   -1    0    0  502  503 -0.00000000000E+00 -0.00000000000E+00 -0.77330581262E+02  0.77330581262E+02  0.00000000000E+00 0.  1.
         24    1    1    2    0    0 -0.14322418813E+02  0.34417239368E+02 -0.42660489856E+01  0.88741721725E+02  0.80419002446E+02 0.  1.
          1    1    1    2  501    0 -0.59602291526E+01  0.26183477345E+02  0.60037286100E+02  0.65769100189E+02  0.00000000000E+00 0. -1.
         -2    1    1    2    0  503  0.20282647966E+02 -0.60600716713E+02  0.85531368964E+01  0.64474714621E+02  0.00000000000E+00 0.  1.
<mgrwt>
<rscale>  2 0.89698639E+02</rscale>
<asrwt>0</asrwt>
<pdfrwt beam="1">  1       21 0.21793070E-01 0.89698639E+02</pdfrwt>
<pdfrwt beam="2">  1       21 0.11897012E-01 0.89698639E+02</pdfrwt>
<totfact> 0.11627102E+06</totfact>
</mgrwt>
</event>
<event>
 5    1  0.1708429E+000  0.1187419E+03  0.7546771E-02  0.1245187E+00
         21   -1    0    0  503  502  0.00000000000E+00  0.00000000000E+00  0.69257770159E+02  0.69257770159E+02  0.00000000000E+00 0. -1.
         21   -1    0    0  501  503 -0.00000000000E+00 -0.00000000000E+00 -0.25255251557E+03  0.25255251557E+03  0.00000000000E+00 0. -1.
         24    1    1    2    0    0 -0.83218694146E+02 -0.43293623057E+02 -0.16515095224E+03  0.20625649525E+03  0.80419002446E+02 0. -1.
          1    1    1    2  501    0  0.67482618648E+02  0.60482617161E+02 -0.17146478280E+02  0.92228263106E+02  0.00000000000E+00 0. -1.
         -2    1    1    2    0  502  0.15736075499E+02 -0.17188994104E+02 -0.99731489566E+00  0.23325527377E+02  0.00000000000E+00 0.  1.
<mgrwt>
<rscale>  2 0.11874194E+03</rscale>
<asrwt>0</asrwt>
<pdfrwt beam="1">  1       21 0.10655041E-01 0.11874194E+03</pdfrwt>
<pdfrwt beam="2">  1       21 0.38854234E-01 0.11874194E+03</pdfrwt>
<totfact> 0.46781453E+05</totfact>
</mgrwt>
</event>
<event>
 5    1  0.1708429E+000  0.7085010E+02  0.7546771E-02  0.1357226E+00
         21   -1    0    0  503  502  0.00000000000E+00  0.00000000000E+00  0.22817280314E+03  0.22817280314E+03  0.00000000000E+00 0.  1.
         21   -1    0    0  501  503 -0.00000000000E+00 -0.00000000000E+00 -0.28829910308E+03  0.28829910308E+03  0.00000000000E+00 0. -1.
         24    1    1    2    0    0 -0.16831948325E+02  0.27968278877E+02  0.23221182070E+02  0.89844189344E+02  0.80419002446E+02 0.  1.
          1    1    1    2  501    0  0.25390754217E+02  0.28004095028E+00 -0.25307859003E+03  0.25434925113E+03  0.00000000000E+00 0. -1.
         -2    1    1    2    0  502 -0.85588058917E+01 -0.28248319827E+02  0.16973110801E+03  0.17227846574E+03  0.00000000000E+00 0.  1.
<mgrwt>
<rscale>  2 0.70850096E+02</rscale>
<asrwt>0</asrwt>
<pdfrwt beam="1">  1       21 0.35103508E-01 0.70850096E+02</pdfrwt>
<pdfrwt beam="2">  1       21 0.44353708E-01 0.70850096E+02</pdfrwt>
<totfact> 0.41319469E+04</totfact>
</mgrwt>
</event>
<event>
 5    1  0.1708429E+000  0.6810542E+02  0.7546771E-02  0.1366657E+00
         21   -1    0    0  501  502  0.00000000000E+00  0.00000000000E+00  0.68422369532E+01  0.68422369532E+01  0.00000000000E+00 0.  1.
         21   -1    0    0  502  503 -0.00000000000E+00 -0.00000000000E+00 -0.14357041727E+04  0.14357041727E+04  0.00000000000E+00 0. -1.
         24    1    1    2    0    0 -0.11717387742E+02 -0.81286854780E+01 -0.55817653099E+03  0.56412022514E+03  0.80419002446E+02 0.  0.
          1    1    1    2  501    0  0.24340091664E+02 -0.14711832217E+02 -0.51549493909E+02  0.58874683793E+02  0.00000000000E+00 0. -1.
         -2    1    1    2    0  503 -0.12622703922E+02  0.22840517695E+02 -0.81913591080E+03  0.81955150068E+03  0.00000000000E+00 0.  1.
<mgrwt>
<rscale>  2 0.68105425E+02</rscale>
<asrwt>0</asrwt>
<pdfrwt beam="1">  1       21 0.10526499E-02 0.68105425E+02</pdfrwt>
<pdfrwt beam="2">  1       21 0.22087796E+00 0.68105425E+02</pdfrwt>
<totfact> 0.36974236E+05</totfact>
</mgrwt>
</event>
<event>
 5    1  0.1708429E+000  0.6742887E+02  0.7546771E-02  0.1369061E+00
         21   -1    0    0  501  502  0.00000000000E+00  0.00000000000E+00  0.43554777095E+03  0.43554777095E+03  0.00000000000E+00 0. -1.
         21   -1    0    0  502  503 -0.00000000000E+00 -0.00000000000E+00 -0.53660003600E+02  0.53660003600E+02  0.00000000000E+00 0.  1.
         24    1    1    2    0    0  0.12814181160E+02  0.85740791824E+00  0.24976537930E+03  0.26270686904E+03  0.80419002446E+02 0.  0.
          1    1    1    2  501    0 -0.21142754855E+02 -0.22110897681E+02  0.17514541285E+03  0.17779714149E+03  0.00000000000E+00 0. -1.
         -2    1    1    2    0  503  0.83285736944E+01  0.21253489762E+02 -0.43023024802E+02  0.48703764023E+02  0.00000000000E+00 0.  1.
<mgrwt>
<rscale>  2 0.67428870E+02</rscale>
<asrwt>0</asrwt>
<pdfrwt beam="1">  1       21 0.67007347E-01 0.67428870E+02</pdfrwt>
<pdfrwt beam="2">  1       21 0.82553855E-02 0.67428870E+02</pdfrwt>
<totfact> 0.23952304E+05</totfact>
</mgrwt>
</event>
<event>
 5    1  0.1708429E+000  0.8997310E+02  0.7546771E-02  0.1302917E+00
         21   -1    0    0  503  502  0.00000000000E+00  0.00000000000E+00  0.77336742623E+01  0.77336742623E+01  0.00000000000E+00 0. -1.
         21   -1    0    0  501  503 -0.00000000000E+00 -0.00000000000E+00 -0.10628838630E+04  0.10628838630E+04  0.00000000000E+00 0.  1.
         24    1    1    2    0    0  0.35221702705E+00  0.15202807293E+02 -0.41753442689E+03  0.42548027333E+03  0.80419002446E+02 0. -1.
          1    1    1    2  501    0  0.30724318249E+02  0.30200495542E+02 -0.29615093578E+03  0.29926815805E+03  0.00000000000E+00 0. -1.
         -2    1    1    2    0  502 -0.31076535276E+02 -0.45403302835E+02 -0.34146482607E+03  0.34586910587E+03  0.00000000000E+00 0.  1.
<mgrwt>
<rscale>  2 0.89973095E+02</rscale>
<asrwt>0</asrwt>
<pdfrwt beam="1">  1       21 0.11897966E-02 0.89973095E+02</pdfrwt>
<pdfrwt beam="2">  1       21 0.16352052E+00 0.89973095E+02</pdfrwt>
<totfact> 0.69259753E+05</totfact>
</mgrwt>
</event>
<event>
 5    1  0.1708429E+000  0.1037279E+03  0.7546771E-02  0.1272646E+00
         21   -1    0    0  501  502  0.00000000000E+00  0.00000000000E+00  0.13552443017E+03  0.13552443017E+03  0.00000000000E+00 0. -1.
         21   -1    0    0  502  503 -0.00000000000E+00 -0.00000000000E+00 -0.99829466796E+02  0.99829466796E+02  0.00000000000E+00 0.  1.
         24    1    1    2    0    0 -0.10628654357E+02  0.54829603312E+02  0.15335068666E+02  0.99104157219E+02  0.80419002446E+02 0. -1.
          1    1    1    2  501    0  0.60592228361E+01 -0.81883908413E+02  0.49781168923E+02  0.96020067786E+02  0.00000000000E+00 0. -1.
         -2    1    1    2    0  503  0.45694315214E+01  0.27054305101E+02 -0.29421274220E+02  0.40229671956E+02  0.00000000000E+00 0.  1.
<mgrwt>
<rscale>  2 0.10372789E+03</rscale>
<asrwt>0</asrwt>
<pdfrwt beam="1">  1       21 0.20849912E-01 0.10372789E+03</pdfrwt>
<pdfrwt beam="2">  1       21 0.15358379E-01 0.10372789E+03</pdfrwt>
<totfact> 0.80382115E+05</totfact>
</mgrwt>
</event>
<event>
 5    1  0.1708429E+000  0.9915175E+02  0.7546771E-02  0.1282090E+00
         21   -1    0    0  503  502  0.00000000000E+00  0.00000000000E+00  0.98973254862E+02  0.98973254862E+02  0.00000000000E+00 0. -1.
         21   -1    0    0  501  503 -0.00000000000E+00 -0.00000000000E+00 -0.15485506290E+03  0.15485506290E+03  0.00000000000E+00 0. -1.
         24    1    1    2    0    0 -0.47487737834E+02 -0.67021825725E+02  0.38137248857E+02  0.12111430994E+03  0.80419002446E+02 0. -1.
          1    1    1    2  501    0  0.29289094242E+02  0.52299097558E+02 -0.91201921013E+02  0.10913678135E+03  0.00000000000E+00 0. -1.
         -2    1    1    2    0  502  0.18198643592E+02  0.14722728167E+02 -0.28171358777E+01  0.23577226466E+02  0.00000000000E+00 0.  1.
<mgrwt>
<rscale>  2 0.99151747E+02</rscale>
<asrwt>0</asrwt>
<pdfrwt beam="1">  1       21 0.15226655E-01 0.99151747E+02</pdfrwt>
<pdfrwt beam="2">  1       21 0.23823856E-01 0.99151747E+02</pdfrwt>
<totfact> 0.63718547E+05</totfact>
</mgrwt>
</event>
<event>
 5    1  0.1708429E+000  0.8231606E+02  0.7546771E-02  0.1322604E+00
         21   -1    0    0  501  502  0.00000000000E+00  0.00000000000E+00  0.74695060198E+02  0.74695060198E+02  0.00000000000E+00 0.  1.
         21   -1    0    0  502  503 -0.00000000000E+00 -0.00000000000E+00 -0.12335247616E+03  0.12335247616E+03  0.00000000000E+00 0. -1.
         24    1    1    2    0    0  0.33830244718E+02  0.42972740136E+02 -0.10858384899E+02  0.97858378943E+02  0.80419002446E+02 0.  0.
          1    1    1    2  501    0  0.92162482854E+00 -0.30411799509E+02  0.16421231526E+02  0.34574322648E+02  0.00000000000E+00 0. -1.
         -2    1    1    2    0  503 -0.34751869546E+02 -0.12560940627E+02 -0.54220262588E+02  0.65614834767E+02  0.00000000000E+00 0.  1.
<mgrwt>
<rscale>  2 0.82316056E+02</rscale>
<asrwt>0</asrwt>
<pdfrwt beam="1">  1       21 0.11491548E-01 0.82316056E+02</pdfrwt>
<pdfrwt beam="2">  1       21 0.18977304E-01 0.82316056E+02</pdfrwt>
<totfact> 0.15873325E+06</totfact>
</mgrwt>
</event>
<event>
 5    1  0.1708429E+000  0.7063955E+02  0.7546771E-02  0.1357932E+00
         21   -1    0    0  503  502  0.00000000000E+00  0.00000000000E+00  0.70959780296E+03  0.70959780296E+03  0.00000000000E+00 0. -1.
         21   -1    0    0  501  503 -0.00000000000E+00 -0.00000000000E+00 -0.97104543724E+01  0.97104543724E+01  0.00000000000E+00 0. -1.
         24    1    1    2    0    0 -0.61989369761E+00  0.38106262015E+01  0.55122563846E+03  0.55707434476E+03  0.80419002446E+02 0. -1.
          1    1    1    2  501    0 -0.26357318122E+01 -0.32141886245E+02  0.49710156803E+02  0.59254937541E+02  0.00000000000E+00 0. -1.
         -2    1    1    2    0  502  0.32556255098E+01  0.28331260044E+02  0.98951553332E+02  0.10297897504E+03  0.00000000000E+00 0.  1.
<mgrwt>
<rscale>  2 0.70639549E+02</rscale>
<asrwt>0</asrwt>
<pdfrwt beam="1">  1       21 0.10916885E+00 0.70639549E+02</pdfrwt>
<pdfrwt beam="2">  1       21 0.14939166E-02 0.70639549E+02</pdfrwt>
<totfact> 0.13101916E+06</totfact>
</mgrwt>
</event>
<event>
 5    1  0.1708429E+000  0.1019713E+03  0.7546771E-02  0.1276204E+00
         21   -1    0    0  503  502  0.00000000000E+00  0.00000000000E+00  0.23115269664E+02  0.23115269664E+02  0.00000000000E+00 0. -1.
         21   -1    0    0  501  503 -0.00000000000E+00 -0.00000000000E+00 -0.51232899233E+03  0.51232899233E+03  0.00000000000E+00 0.  1.
         24    1    1    2    0    0 -0.23968956586E+02  0.30558411245E+02 -0.24623993742E+03  0.26193443858E+03  0.80419002446E+02 0.  1.
          1    1    1    2  501    0 -0.16415292393E+02 -0.61568986194E+02 -0.18834425898E+03  0.19883098797E+03  0.00000000000E+00 0. -1.
         -2    1    1    2    0  502  0.40384248980E+02  0.31010574949E+02 -0.54629526268E+02  0.74678835452E+02  0.00000000000E+00 0.  1.
<mgrwt>
<rscale>  2 0.10197132E+03</rscale>
<asrwt>0</asrwt>
<pdfrwt beam="1">  1       21 0.35561955E-02 0.10197132E+03</pdfrwt>
<pdfrwt beam="2">  1       21 0.78819842E-01 0.10197132E+03</pdfrwt>
<totfact> 0.68422152E+05</totfact>
</mgrwt>
</event>
<event>
 5    1  0.1708429E+000  0.9117348E+02  0.7546771E-02  0.1300035E+00
         21   -1    0    0  503  502  0.00000000000E+00  0.00000000000E+00  0.47780248806E+03  0.47780248806E+03  0.00000000000E+00 0.  1.
         21   -1    0    0  501  503 -0.00000000000E+00 -0.00000000000E+00 -0.28737011396E+02  0.28737011396E+02  0.00000000000E+00 0. -1.
         24    1    1    2    0    0  0.73921181428E+01  0.13288584481E+02  0.24974209727E+03  0.26281088446E+03  0.80419002446E+02 0.  0.
          1    1    1    2  501    0 -0.31713736812E+02 -0.48355253878E+02  0.22865815986E+02  0.62183898406E+02  0.00000000000E+00 0. -1.
         -2    1    1    2    0  502  0.24321618670E+02  0.35066669398E+02  0.17645756341E+03  0.18154471659E+03  0.00000000000E+00 0.  1.
<mgrwt>
<rscale>  2 0.91173478E+02</rscale>
<asrwt>0</asrwt>
<pdfrwt beam="1">  1       21 0.73508070E-01 0.91173478E+02</pdfrwt>
<pdfrwt beam="2">  1       21 0.44210790E-02 0.91173478E+02</pdfrwt>
<totfact> 0.55714087E+05</totfact>
</mgrwt>
</event>
<event>
 5    1  0.1708429E+000  0.7490497E+02  0.7546771E-02  0.1344166E+00
         21   -1    0    0  503  502  0.00000000000E+00  0.00000000000E+00  0.12115870422E+02  0.12115870422E+02  0.00000000000E+00 0.  1.
         21   -1    0    0  501  503 -0.00000000000E+00 -0.00000000000E+00 -0.85322158450E+03  0.85322158450E+03  0.00000000000E+00 0. -1.
         24    1    1    2    0    0  0.21320360222E+02  0.29059467207E+01 -0.32006580714E+03  0.33071489101E+03  0.80419002446E+02 0. -1.
          1    1    1    2  501    0 -0.14927870053E+02  0.29750575838E+02 -0.48273936206E+03  0.48388555440E+03  0.00000000000E+00 0. -1.
         -2    1    1    2    0  502 -0.63924901687E+01 -0.32656522559E+02 -0.38300544876E+02  0.50737009510E+02  0.00000000000E+00 0.  1.
<mgrwt>
<rscale>  2 0.74904970E+02</rscale>
<asrwt>0</asrwt>
<pdfrwt beam="1">  1       21 0.18639799E-02 0.74904970E+02</pdfrwt>
<pdfrwt beam="2">  1       21 0.13126487E+00 0.74904970E+02</pdfrwt>
<totfact> 0.59523052E+05</totfact>
</mgrwt>
</event>
<event>
 5    1  0.1708429E+000  0.9564502E+02  0.7546771E-02  0.1289730E+00
         21   -1    0    0  503  502  0.00000000000E+00  0.00000000000E+00  0.59787795579E+02  0.59787795579E+02  0.00000000000E+00 0. -1.
         21   -1    0    0  501  503 -0.00000000000E+00 -0.00000000000E+00 -0.16057258566E+03  0.16057258566E+03  0.00000000000E+00 0.  1.
         24    1    1    2    0    0  0.30369934488E+02 -0.33138164023E+02 -0.31544302423E+02  0.97379308918E+02  0.80419002446E+02 0. -1.
          1    1    1    2  501    0  0.11365259338E+02 -0.25076601568E+02 -0.32118727056E+02  0.42303873271E+02  0.00000000000E+00 0. -1.
         -2    1    1    2    0  502 -0.41735193826E+02  0.58214765591E+02 -0.37121760602E+02  0.80677199051E+02  0.00000000000E+00 0.  1.
<mgrwt>
<rscale>  2 0.95645017E+02</rscale>
<asrwt>0</asrwt>
<pdfrwt beam="1">  1       21 0.91981223E-02 0.95645017E+02</pdfrwt>
<pdfrwt beam="2">  1       21 0.24703475E-01 0.95645017E+02</pdfrwt>
<totfact> 0.14432386E+06</totfact>
</mgrwt>
</event>
<event>
 5    1  0.1708429E+000  0.9181864E+02  0.7546771E-02  0.1298506E+00
         21   -1    0    0  503  502  0.00000000000E+00  0.00000000000E+00  0.35667760696E+02  0.35667760696E+02  0.00000000000E+00 0.  1.
         21   -1    0    0  501  503 -0.00000000000E+00 -0.00000000000E+00 -0.26733895679E+03  0.26733895679E+03  0.00000000000E+00 0. -1.
         24    1    1    2    0    0  0.14032207115E+02  0.57062774152E+02 -0.94051409588E+02  0.13698885586E+03  0.80419002446E+02 0.  1.
          1    1    1    2  501    0 -0.34567994487E+02 -0.15928773429E+02 -0.98687920404E+02  0.10577323716E+03  0.00000000000E+00 0. -1.
         -2    1    1    2    0  502  0.20535787371E+02 -0.41134000723E+02 -0.38931866099E+02  0.60244624460E+02  0.00000000000E+00 0.  1.
<mgrwt>
<rscale>  2 0.91818641E+02</rscale>
<asrwt>0</asrwt>
<pdfrwt beam="1">  1       21 0.54873479E-02 0.91818641E+02</pdfrwt>
<pdfrwt beam="2">  1       21 0.41129070E-01 0.91818641E+02</pdfrwt>
<totfact> 0.12983799E+06</totfact>
</mgrwt>
</event>
<event>
 5    1  0.1708429E+000  0.9645099E+02  0.7546771E-02  0.1287941E+00
         21   -1    0    0  503  502  0.00000000000E+00  0.00000000000E+00  0.16966510435E+02  0.16966510435E+02  0.00000000000E+00 0. -1.
         21   -1    0    0  501  503 -0.00000000000E+00 -0.00000000000E+00 -0.80835716131E+03  0.80835716131E+03  0.00000000000E+00 0.  1.
         24    1    1    2    0    0  0.13891825194E+02 -0.36623178484E+02 -0.52546268772E+03  0.53302203721E+03  0.80419002446E+02 0.  1.
          1    1    1    2  501    0 -0.55246290377E+02  0.23794373394E+02 -0.22434422292E+03  0.23226849800E+03  0.00000000000E+00 0. -1.
         -2    1    1    2    0  502  0.41354465182E+02  0.12828805090E+02 -0.41583740238E+02  0.60033136539E+02  0.00000000000E+00 0.  1.
<mgrwt>
<rscale>  2 0.96450993E+02</rscale>
<asrwt>0</asrwt>
<pdfrwt beam="1">  1       21 0.26102322E-02 0.96450993E+02</pdfrwt>
<pdfrwt beam="2">  1       21 0.12436265E+00 0.96450993E+02</pdfrwt>
<totfact> 0.39412988E+05</totfact>
</mgrwt>
</event>
<event>
 5    1  0.1708429E+000  0.2246650E+03  0.7546771E-02  0.1130452E+00
         21   -1    0    0  503  502  0.00000000000E+00  0.00000000000E+00  0.15171360781E+03  0.15171360781E+03  0.00000000000E+00 0.  1.
         21   -1    0    0  501  503 -0.00000000000E+00 -0.00000000000E+00 -0.35633016987E+03  0.35633016987E+03  0.00000000000E+00 0.  1.
         24    1    1    2    0    0 -0.17183307835E+03  0.13317386990E+03 -0.93084839934E+02  0.24978768949E+03  0.80419002446E+02 0.  1.
          1    1    1    2  501    0  0.25619884233E+02 -0.16474751935E+02 -0.54923096121E+02  0.62803999928E+02  0.00000000000E+00 0. -1.
         -2    1    1    2    0  502  0.14621319412E+03 -0.11669911797E+03 -0.56608626004E+02  0.19545208827E+03  0.00000000000E+00 0.  1.
<mgrwt>
<rscale>  2 0.22466497E+03</rscale>
<asrwt>0</asrwt>
<pdfrwt beam="1">  1       21 0.23340555E-01 0.22466497E+03</pdfrwt>
<pdfrwt beam="2">  1       21 0.54820025E-01 0.22466497E+03</pdfrwt>
<totfact> 0.53416600E+04</totfact>
</mgrwt>
</event>
<event>
 5    1  0.1708429E+000  0.1227020E+03  0.7546771E-02  0.1238705E+00
         21   -1    0    0  503  502  0.00000000000E+00  0.00000000000E+00  0.77703518984E+03  0.77703518984E+03  0.00000000000E+00 0.  1.
         21   -1    0    0  501  503 -0.00000000000E+00 -0.00000000000E+00 -0.50108957370E+02  0.50108957370E+02  0.00000000000E+00 0.  1.
         24    1    1    2    0    0 -0.95060642096E+02 -0.96064045542E+01  0.10572522100E+03  0.16362715849E+03  0.80419002446E+02 0.  1.
          1    1    1    2  501    0  0.27394369435E+02 -0.31185663155E+02  0.44740086075E+01  0.41749416956E+02  0.00000000000E+00 0. -1.
         -2    1    1    2    0  502  0.67666272662E+02  0.40792067709E+02  0.61672700286E+03  0.62176757177E+03  0.00000000000E+00 0.  1.
<mgrwt>
<rscale>  2 0.12270196E+03</rscale>
<asrwt>0</asrwt>
<pdfrwt beam="1">  1       21 0.11954387E+00 0.12270196E+03</pdfrwt>
<pdfrwt beam="2">  1       21 0.77090709E-02 0.12270196E+03</pdfrwt>
<totfact> 0.70700043E+04</totfact>
</mgrwt>
</event>
<event>
 5    1  0.1708429E+000  0.7279894E+02  0.7546771E-02  0.1350826E+00
         21   -1    0    0  501  502  0.00000000000E+00  0.00000000000E+00  0.18748340907E+03  0.18748340907E+03  0.00000000000E+00 0. -1.
         21   -1    0    0  502  503 -0.00000000000E+00 -0.00000000000E+00 -0.95807034626E+02  0.95807034626E+02  0.00000000000E+00 0.  1.
         24    1    1    2    0    0  0.49853725774E+01 -0.21854532037E+02 -0.27602384190E+02  0.87929415315E+02  0.80419002446E+02 0.  0.
          1    1    1    2  501    0  0.20316141254E+02  0.29376468524E+02  0.15038287631E+03  0.15456627053E+03  0.00000000000E+00 0. -1.
         -2    1    1    2    0  503 -0.25301513832E+02 -0.75219364874E+01 -0.31104117683E+02  0.40794757844E+02  0.00000000000E+00 0.  1.
<mgrwt>
<rscale>  2 0.72798939E+02</rscale>
<asrwt>0</asrwt>
<pdfrwt beam="1">  1       21 0.28843601E-01 0.72798939E+02</pdfrwt>
<pdfrwt beam="2">  1       21 0.14739544E-01 0.72798939E+02</pdfrwt>
<totfact> 0.47099948E+05</totfact>
</mgrwt>
</event>
<event>
 5    1  0.1708429E+000  0.8364721E+02  0.7546771E-02  0.1319009E+00
         21   -1    0    0  501  502  0.00000000000E+00  0.00000000000E+00  0.12675643685E+03  0.12675643685E+03  0.00000000000E+00 0. -1.
         21   -1    0    0  502  503 -0.00000000000E+00 -0.00000000000E+00 -0.20560490512E+04  0.20560490512E+04  0.00000000000E+00 0.  1.
         24    1    1    2    0    0  0.85208214421E+00 -0.25206144239E+02 -0.23838768145E+03  0.25284773753E+03  0.80419002446E+02 0.  0.
          1    1    1    2  501    0 -0.27921010375E+02 -0.17134603433E+02  0.11692601494E+03  0.12142845805E+03  0.00000000000E+00 0. -1.
         -2    1    1    2    0  503  0.27068928231E+02  0.42340747673E+02 -0.18078309478E+04  0.18085292924E+04  0.00000000000E+00 0.  1.
<mgrwt>
<rscale>  2 0.83647214E+02</rscale>
<asrwt>0</asrwt>
<pdfrwt beam="1">  1       21 0.19500991E-01 0.83647214E+02</pdfrwt>
<pdfrwt beam="2">  1       21 0.31631522E+00 0.83647214E+02</pdfrwt>
<totfact> 0.83631388E+02</totfact>
</mgrwt>
</event>
<event>
 5    1  0.1708429E+000  0.7908077E+02  0.7546771E-02  0.1331680E+00
         21   -1    0    0  501  502  0.00000000000E+00  0.00000000000E+00  0.54471615289E+02  0.54471615289E+02  0.00000000000E+00 0.  1.
         21   -1    0    0  502  503 -0.00000000000E+00 -0.00000000000E+00 -0.15084932229E+03  0.15084932229E+03  0.00000000000E+00 0. -1.
         24    1    1    2    0    0  0.48123551165E+02  0.15370108084E+02 -0.29111958584E+02  0.99331961051E+02  0.80419002446E+02 0.  1.
          1    1    1    2  501    0 -0.32699242185E+02 -0.28160486195E+02 -0.86090305374E+01  0.44004191039E+02  0.00000000000E+00 0. -1.
         -2    1    1    2    0  503 -0.15424308980E+02  0.12790378111E+02 -0.58656717875E+02  0.61984785485E+02  0.00000000000E+00 0.  1.
<mgrwt>
<rscale>  2 0.79080771E+02</rscale>
<asrwt>0</asrwt>
<pdfrwt beam="1">  1       21 0.83802486E-02 0.79080771E+02</pdfrwt>
<pdfrwt beam="2">  1       21 0.23207588E-01 0.79080771E+02</pdfrwt>
<totfact> 0.18895605E+06</totfact>
</mgrwt>
</event>
<event>
 5    1  0.1708429E+000  0.6960223E+02  0.7546771E-02  0.1361451E+00
         21   -1    0    0  501  502  0.00000000000E+00  0.00000000000E+00  0.51870843575E+02  0.51870843575E+02  0.00000000000E+00 0. -1.
         21   -1    0    0  502  503 -0.00000000000E+00 -0.00000000000E+00 -0.14033748441E+03  0.14033748441E+03  0.00000000000E+00 0. -1.
         24    1    1    2    0    0 -0.39938266140E+00  0.64389314931E+01 -0.97580129435E+01  0.81265331577E+02  0.80419002446E+02 0.  1.
          1    1    1    2  501    0  0.28697300460E+02  0.26146491095E+01 -0.22374720800E+01  0.28902901670E+02  0.00000000000E+00 0. -1.
         -2    1    1    2    0  503 -0.28297917798E+02 -0.90535806026E+01 -0.76471155807E+02  0.82040094734E+02  0.00000000000E+00 0.  1.
<mgrwt>
<rscale>  2 0.69602226E+02</rscale>
<asrwt>0</asrwt>
<pdfrwt beam="1">  1       21 0.79801297E-02 0.69602226E+02</pdfrwt>
<pdfrwt beam="2">  1       21 0.21590382E-01 0.69602226E+02</pdfrwt>
<totfact> 0.23308857E+06</totfact>
</mgrwt>
</event>
<event>
 5    1  0.1708429E+000  0.7631869E+02  0.7546771E-02  0.1339835E+00
         21   -1    0    0  503  502  0.00000000000E+00  0.00000000000E+00  0.77581214831E+02  0.77581214831E+02  0.00000000000E+00 0. -1.
         21   -1    0    0  501  503 -0.00000000000E+00 -0.00000000000E+00 -0.11432232062E+03  0.11432232062E+03  0.00000000000E+00 0. -1.
         24    1    1    2    0    0 -0.36926814636E+02 -0.20774440028E+02 -0.26308584133E+02  0.94628349616E+02  0.80419002446E+02 0. -1.
          1    1    1    2  501    0  0.17546210834E+02 -0.13652856776E+02 -0.41457032041E+02  0.47042061163E+02  0.00000000000E+00 0. -1.
         -2    1    1    2    0  502  0.19380603802E+02  0.34427296804E+02  0.31024510389E+02  0.50233124667E+02  0.00000000000E+00 0.  1.
<mgrwt>
<rscale>  2 0.76318693E+02</rscale>
<asrwt>0</asrwt>
<pdfrwt beam="1">  1       21 0.11935571E-01 0.76318693E+02</pdfrwt>
<pdfrwt beam="2">  1       21 0.17588049E-01 0.76318693E+02</pdfrwt>
<totfact> 0.16999123E+06</totfact>
</mgrwt>
</event>
<event>
 5    1  0.1708429E+000  0.1070985E+03  0.7546771E-02  0.1266039E+00
         21   -1    0    0  503  502  0.00000000000E+00  0.00000000000E+00  0.25947954038E+03  0.25947954038E+03  0.00000000000E+00 0.  1.
         21   -1    0    0  501  503 -0.00000000000E+00 -0.00000000000E+00 -0.93772748425E+02  0.93772748425E+02  0.00000000000E+00 0. -1.
         24    1    1    2    0    0 -0.45506853381E+02 -0.12578423216E+02 -0.26151349077E+02  0.96851429768E+02  0.80419002446E+02 0. -1.
          1    1    1    2  501    0  0.80960230123E+02 -0.54993216791E+01  0.25070782843E+02  0.84931416760E+02  0.00000000000E+00 0. -1.
         -2    1    1    2    0  502 -0.35453376742E+02  0.18077744895E+02  0.16678735819E+03  0.17146944227E+03  0.00000000000E+00 0.  1.
<mgrwt>
<rscale>  2 0.10709855E+03</rscale>
<asrwt>0</asrwt>
<pdfrwt beam="1">  1       21 0.39919929E-01 0.10709855E+03</pdfrwt>
<pdfrwt beam="2">  1       21 0.14426577E-01 0.10709855E+03</pdfrwt>
<totfact> 0.25974634E+05</totfact>
</mgrwt>
</event>
<event>
 5    1  0.1737417E+000  0.1186728E+03  0.7546771E-02  0.1245303E+00
         21   -1    0    0  503  502  0.00000000000E+00  0.00000000000E+00  0.40183768612E+03  0.40183768612E+03  0.00000000000E+00 0.  1.
         21   -1    0    0  501  503 -0.00000000000E+00 -0.00000000000E+00 -0.97892266238E+02  0.97892266238E+02  0.00000000000E+00 0.  1.
         24    1    1    2    0    0  0.12636031766E+02  0.56916122350E+02  0.94134191741E+02  0.13684873507E+03  0.80419002446E+02 0.  1.
          1    1    1    2  501    0 -0.50604537216E+02 -0.79203719916E+02 -0.45061878114E+02  0.10423349411E+03  0.00000000000E+00 0. -1.
         -2    1    1    2    0  502  0.37968505449E+02  0.22287597566E+02  0.25487310626E+03  0.25864772318E+03  0.00000000000E+00 0.  1.
<mgrwt>
<rscale>  2 0.11867283E+03</rscale>
<asrwt>0</asrwt>
<pdfrwt beam="1">  1       21 0.61821181E-01 0.11867283E+03</pdfrwt>
<pdfrwt beam="2">  1       21 0.15060349E-01 0.11867283E+03</pdfrwt>
<totfact> 0.97489006E+04</totfact>
</mgrwt>
</event>
<event>
 5    1  0.1708429E+000  0.2450518E+03  0.7546771E-02  0.1116473E+00
         21   -1    0    0  501  502  0.00000000000E+00  0.00000000000E+00  0.12492813187E+04  0.12492813187E+04  0.00000000000E+00 0.  1.
         21   -1    0    0  502  503 -0.00000000000E+00 -0.00000000000E+00 -0.11273547086E+03  0.11273547086E+03  0.00000000000E+00 0.  1.
         24    1    1    2    0    0 -0.14091080606E+03 -0.15630025552E+03  0.27436897787E+03  0.35500870005E+03  0.80419002446E+02 0.  1.
          1    1    1    2  501    0 -0.36015306853E+02  0.35621773701E+02  0.77358840965E+03  0.77524514874E+03  0.00000000000E+00 0. -1.
         -2    1    1    2    0  503  0.17692611291E+03  0.12067848182E+03  0.88588460300E+02  0.23176294075E+03  0.00000000000E+00 0.  1.
<mgrwt>
<rscale>  2 0.24505179E+03</rscale>
<asrwt>0</asrwt>
<pdfrwt beam="1">  1       21 0.19219712E+00 0.24505179E+03</pdfrwt>
<pdfrwt beam="2">  1       21 0.17343919E-01 0.24505179E+03</pdfrwt>
<totfact> 0.43409242E+03</totfact>
</mgrwt>
</event>
<event>
 5    1  0.1708429E+000  0.8991618E+02  0.7546771E-02  0.1303055E+00
         21   -1    0    0  501  502  0.00000000000E+00  0.00000000000E+00  0.11474274966E+04  0.11474274966E+04  0.00000000000E+00 0.  1.
         21   -1    0    0  502  503 -0.00000000000E+00 -0.00000000000E+00 -0.15458849629E+02  0.15458849629E+02  0.00000000000E+00 0.  1.
         24    1    1    2    0    0 -0.50150433406E+02  0.51568890270E+02  0.55281853837E+03  0.56324947292E+03  0.80419002446E+02 0.  1.
          1    1    1    2  501    0  0.14142102328E+02 -0.14935065937E+02  0.52349776254E+03  0.52390167268E+03  0.00000000000E+00 0. -1.
         -2    1    1    2    0  503  0.36008331078E+02 -0.36633824334E+02  0.55652346034E+02  0.75735200610E+02  0.00000000000E+00 0.  1.
<mgrwt>
<rscale>  2 0.89916184E+02</rscale>
<asrwt>0</asrwt>
<pdfrwt beam="1">  1       21 0.17652724E+00 0.89916184E+02</pdfrwt>
<pdfrwt beam="2">  1       21 0.23782855E-02 0.89916184E+02</pdfrwt>
<totfact> 0.18789990E+05</totfact>
</mgrwt>
</event>
<event>
 5    1  0.1708429E+000  0.7577526E+02  0.7546771E-02  0.1341487E+00
         21   -1    0    0  501  502  0.00000000000E+00  0.00000000000E+00  0.16033127035E+04  0.16033127035E+04  0.00000000000E+00 0. -1.
         21   -1    0    0  502  503 -0.00000000000E+00 -0.00000000000E+00 -0.41668754185E+01  0.41668754185E+01  0.00000000000E+00 0. -1.
         24    1    1    2    0    0  0.23402750768E+02  0.19756780206E+02  0.88016742237E+03  0.88436413680E+03  0.80419002446E+02 0. -1.
          1    1    1    2  501    0  0.17141441618E+02 -0.18085586514E+02  0.48534686908E+03  0.48598611172E+03  0.00000000000E+00 0. -1.
         -2    1    1    2    0  503 -0.40544192386E+02 -0.16711936921E+01  0.23363153667E+03  0.23712933043E+03  0.00000000000E+00 0.  1.
<mgrwt>
<rscale>  2 0.75775256E+02</rscale>
<asrwt>0</asrwt>
<pdfrwt beam="1">  1       21 0.24666300E+00 0.75775256E+02</pdfrwt>
<pdfrwt beam="2">  1       21 0.64105904E-03 0.75775256E+02</pdfrwt>
<totfact> 0.56543319E+05</totfact>
</mgrwt>
</event>
<event>
 5    1  0.1708429E+000  0.7127879E+02  0.7546771E-02  0.1355798E+00
         21   -1    0    0  503  502  0.00000000000E+00  0.00000000000E+00  0.13158626071E+02  0.13158626071E+02  0.00000000000E+00 0. -1.
         21   -1    0    0  501  503 -0.00000000000E+00 -0.00000000000E+00 -0.44586838681E+03  0.44586838681E+03  0.00000000000E+00 0.  1.
         24    1    1    2    0    0  0.47598027595E+02 -0.97927533703E+01 -0.27322671258E+03  0.28893169205E+03  0.80419002446E+02 0.  0.
          1    1    1    2  501    0 -0.24575923617E+02  0.52533819619E+01 -0.13003639772E+03  0.13244258671E+03  0.00000000000E+00 0. -1.
         -2    1    1    2    0  502 -0.23022103978E+02  0.45393714084E+01 -0.29446650440E+02  0.37652734117E+02  0.00000000000E+00 0.  1.
<mgrwt>
<rscale>  2 0.71278793E+02</rscale>
<asrwt>0</asrwt>
<pdfrwt beam="1">  1       21 0.20244041E-02 0.71278793E+02</pdfrwt>
<pdfrwt beam="2">  1       21 0.68595135E-01 0.71278793E+02</pdfrwt>
<totfact> 0.22826720E+06</totfact>
</mgrwt>
</event>
<event>
 5    1  0.1708429E+000  0.8118115E+02  0.7546771E-02  0.1325733E+00
         21   -1    0    0  501  502  0.00000000000E+00  0.00000000000E+00  0.35175821456E+02  0.35175821456E+02  0.00000000000E+00 0. -1.
         21   -1    0    0  502  503 -0.00000000000E+00 -0.00000000000E+00 -0.28498304828E+03  0.28498304828E+03  0.00000000000E+00 0.  1.
         24    1    1    2    0    0  0.11876758306E+02 -0.90262484226E+01 -0.62522030956E+02  0.10295023486E+03  0.80419002446E+02 0. -1.
          1    1    1    2  501    0  0.30003870441E+02  0.21454852382E+02 -0.15593385033E+02  0.40046180704E+02  0.00000000000E+00 0. -1.
         -2    1    1    2    0  503 -0.41880628748E+02 -0.12428603959E+02 -0.17169181083E+03  0.17716245417E+03  0.00000000000E+00 0.  1.
<mgrwt>
<rscale>  2 0.81181151E+02</rscale>
<asrwt>0</asrwt>
<pdfrwt beam="1">  1       21 0.54116648E-02 0.81181151E+02</pdfrwt>
<pdfrwt beam="2">  1       21 0.43843546E-01 0.81181151E+02</pdfrwt>
<totfact> 0.11663118E+06</totfact>
</mgrwt>
</event>
<event>
 5    1  0.1708429E+000  0.1273106E+03  0.7546771E-02  0.1231502E+00
         21   -1    0    0  501  502  0.00000000000E+00  0.00000000000E+00  0.25888149680E+02  0.25888149680E+02  0.00000000000E+00 0.  1.
         21   -1    0    0  502  503 -0.00000000000E+00 -0.00000000000E+00 -0.13124149708E+04  0.13124149708E+04  0.00000000000E+00 0.  1.
         24    1    1    2    0    0 -0.67960934550E+02 -0.59416454568E+02 -0.76492032103E+03  0.77441546806E+03  0.80419002446E+02 0.  1.
          1    1    1    2  501    0 -0.18382349576E+02 -0.11762601175E+02  0.75010763595E+01  0.23076735230E+02  0.00000000000E+00 0. -1.
         -2    1    1    2    0  503  0.86343284126E+02  0.71179055742E+02 -0.52910757646E+03  0.54081091719E+03  0.00000000000E+00 0.  1.
<mgrwt>
<rscale>  2 0.12731060E+03</rscale>
<asrwt>0</asrwt>
<pdfrwt beam="1">  1       21 0.39827916E-02 0.12731060E+03</pdfrwt>
<pdfrwt beam="2">  1       21 0.20191003E+00 0.12731060E+03</pdfrwt>
<totfact> 0.53991759E+04</totfact>
</mgrwt>
</event>
<event>
 5    1  0.1708429E+000  0.1430875E+03  0.7546771E-02  0.1209234E+00
         21   -1    0    0  501  502  0.00000000000E+00  0.00000000000E+00  0.16337742239E+03  0.16337742239E+03  0.00000000000E+00 0. -1.
         21   -1    0    0  502  503 -0.00000000000E+00 -0.00000000000E+00 -0.12905497322E+03  0.12905497322E+03  0.00000000000E+00 0. -1.
         24    1    1    2    0    0  0.31065200158E+02 -0.92221132601E+02  0.17121999186E+02  0.12739765606E+03  0.80419002446E+02 0. -1.
          1    1    1    2  501    0 -0.18257846609E+02  0.12417404478E+03  0.28685158101E+02  0.12874541023E+03  0.00000000000E+00 0. -1.
         -2    1    1    2    0  503 -0.12807353549E+02 -0.31952912178E+02 -0.11484708115E+02  0.36289329314E+02  0.00000000000E+00 0.  1.
<mgrwt>
<rscale>  2 0.14308752E+03</rscale>
<asrwt>0</asrwt>
<pdfrwt beam="1">  1       21 0.25134988E-01 0.14308752E+03</pdfrwt>
<pdfrwt beam="2">  1       21 0.19854611E-01 0.14308752E+03</pdfrwt>
<totfact> 0.35411019E+05</totfact>
</mgrwt>
</event>
<event>
 5    1  0.1708429E+000  0.1158229E+03  0.7546771E-02  0.1250152E+00
         21   -1    0    0  501  502  0.00000000000E+00  0.00000000000E+00  0.50150780526E+03  0.50150780526E+03  0.00000000000E+00 0. -1.
         21   -1    0    0  502  503 -0.00000000000E+00 -0.00000000000E+00 -0.26955336168E+02  0.26955336168E+02  0.00000000000E+00 0.  1.
         24    1    1    2    0    0  0.85366423066E+02  0.46447303542E+02  0.28125336650E+03  0.30824576285E+03  0.80419002446E+02 0. -1.
          1    1    1    2  501    0 -0.90376073490E+01 -0.24451177188E+02  0.47286773639E+02  0.53996086651E+02  0.00000000000E+00 0. -1.
         -2    1    1    2    0  503 -0.76328815717E+02 -0.21996126355E+02  0.14601232895E+03  0.16622129192E+03  0.00000000000E+00 0.  1.
<mgrwt>
<rscale>  2 0.11582285E+03</rscale>
<asrwt>0</asrwt>
<pdfrwt beam="1">  1       21 0.77155040E-01 0.11582285E+03</pdfrwt>
<pdfrwt beam="2">  1       21 0.41469752E-02 0.11582285E+03</pdfrwt>
<totfact> 0.55614539E+05</totfact>
</mgrwt>
</event>
<event>
 5    1  0.1708429E+000  0.7526650E+02  0.7546771E-02  0.1343048E+00
         21   -1    0    0  503  502  0.00000000000E+00  0.00000000000E+00  0.67227587984E+02  0.67227587984E+02  0.00000000000E+00 0.  1.
         21   -1    0    0  501  503 -0.00000000000E+00 -0.00000000000E+00 -0.16278773464E+03  0.16278773464E+03  0.00000000000E+00 0.  1.
         24    1    1    2    0    0  0.40846433872E+02  0.34681251318E+02 -0.12731201123E+03  0.15983361509E+03  0.80419002446E+02 0.  1.
          1    1    1    2  501    0 -0.13323165407E+02 -0.14992398887E+02 -0.45358366942E+01  0.20563379473E+02  0.00000000000E+00 0. -1.
         -2    1    1    2    0  502 -0.27523268465E+02 -0.19688852431E+02  0.36287701267E+02  0.49618328068E+02  0.00000000000E+00 0.  1.
<mgrwt>
<rscale>  2 0.75266500E+02</rscale>
<asrwt>0</asrwt>
<pdfrwt beam="1">  1       21 0.10342706E-01 0.75266500E+02</pdfrwt>
<pdfrwt beam="2">  1       21 0.25044267E-01 0.75266500E+02</pdfrwt>
<totfact> 0.11412106E+06</totfact>
</mgrwt>
</event>
<event>
 5    1  0.1708429E+000  0.1284503E+03  0.7546771E-02  0.1229774E+00
         21   -1    0    0  503  502  0.00000000000E+00  0.00000000000E+00  0.31782408968E+03  0.31782408968E+03  0.00000000000E+00 0.  1.
         21   -1    0    0  501  503 -0.00000000000E+00 -0.00000000000E+00 -0.25945482819E+03  0.25945482819E+03  0.00000000000E+00 0. -1.
         24    1    1    2    0    0  0.63759453424E+01  0.63357794293E+02 -0.70432479066E+02  0.12442995153E+03  0.80419002446E+02 0. -1.
          1    1    1    2  501    0 -0.63386520114E+02 -0.72808638025E+02 -0.14434819426E+03  0.17365295819E+03  0.00000000000E+00 0. -1.
         -2    1    1    2    0  502  0.57010574772E+02  0.94508437320E+01  0.27314993480E+03  0.27919600815E+03  0.00000000000E+00 0.  1.
<mgrwt>
<rscale>  2 0.12845025E+03</rscale>
<asrwt>0</asrwt>
<pdfrwt beam="1">  1       21 0.48896014E-01 0.12845025E+03</pdfrwt>
<pdfrwt beam="2">  1       21 0.39916127E-01 0.12845025E+03</pdfrwt>
<totfact> 0.25117454E+04</totfact>
</mgrwt>
</event>
<event>
 5    1  0.1708429E+000  0.9596055E+02  0.7546771E-02  0.1289027E+00
         21   -1    0    0  501  502  0.00000000000E+00  0.00000000000E+00  0.11550744756E+04  0.11550744756E+04  0.00000000000E+00 0.  1.
         21   -1    0    0  502  503 -0.00000000000E+00 -0.00000000000E+00 -0.13260297004E+02  0.13260297004E+02  0.00000000000E+00 0.  1.
         24    1    1    2    0    0 -0.16993941732E+02  0.32313832726E+02  0.54362864015E+03  0.55075610953E+03  0.80419002446E+02 0.  0.
          1    1    1    2  501    0  0.40445717631E+02 -0.56779519712E+02  0.56779312125E+03  0.57205663922E+03  0.00000000000E+00 0. -1.
         -2    1    1    2    0  503 -0.23451775898E+02  0.24465686986E+02  0.30392417182E+02  0.45522023842E+02  0.00000000000E+00 0.  1.
<mgrwt>
<rscale>  2 0.95960552E+02</rscale>
<asrwt>0</asrwt>
<pdfrwt beam="1">  1       21 0.17770369E+00 0.95960552E+02</pdfrwt>
<pdfrwt beam="2">  1       21 0.20400466E-02 0.95960552E+02</pdfrwt>
<totfact> 0.23527454E+05</totfact>
</mgrwt>
</event>
<event>
 5    1  0.1708429E+000  0.1391235E+03  0.7546771E-02  0.1214513E+00
         21   -1    0    0  503  502  0.00000000000E+00  0.00000000000E+00  0.99500823101E+02  0.99500823101E+02  0.00000000000E+00 0.  1.
         21   -1    0    0  501  503 -0.00000000000E+00 -0.00000000000E+00 -0.23537803573E+03  0.23537803573E+03  0.00000000000E+00 0.  1.
         24    1    1    2    0    0  0.18688142059E+02 -0.98839664944E+02 -0.27535242119E+02  0.13169636112E+03  0.80419002446E+02 0.  1.
          1    1    1    2  501    0 -0.63302353050E+01 -0.24601631851E+02 -0.68222153947E+02  0.72798176199E+02  0.00000000000E+00 0. -1.
         -2    1    1    2    0  502 -0.12357906754E+02  0.12344129680E+03 -0.40119816561E+02  0.13038432151E+03  0.00000000000E+00 0.  1.
<mgrwt>
<rscale>  2 0.13912349E+03</rscale>
<asrwt>0</asrwt>
<pdfrwt beam="1">  1       21 0.15307819E-01 0.13912349E+03</pdfrwt>
<pdfrwt beam="2">  1       21 0.36212006E-01 0.13912349E+03</pdfrwt>
<totfact> 0.28136480E+05</totfact>
</mgrwt>
</event>
<event>
 5    1  0.1708429E+000  0.8218410E+02  0.7546771E-02  0.1322965E+00
         21   -1    0    0  503  502  0.00000000000E+00  0.00000000000E+00  0.13048204344E+03  0.13048204344E+03  0.00000000000E+00 0. -1.
         21   -1    0    0  501  503 -0.00000000000E+00 -0.00000000000E+00 -0.68182933117E+02  0.68182933117E+02  0.00000000000E+00 0. -1.
         24    1    1    2    0    0  0.27187121121E+02 -0.33139036970E+02 -0.56762861139E+01  0.91305922615E+02  0.80419002446E+02 0.  0.
          1    1    1    2  501    0 -0.96026155389E+01  0.48773074624E+02  0.19355211953E+02  0.53344608568E+02  0.00000000000E+00 0. -1.
         -2    1    1    2    0  502 -0.17584505583E+02 -0.15634037655E+02  0.48620184487E+02  0.54014445379E+02  0.00000000000E+00 0.  1.
<mgrwt>
<rscale>  2 0.82184105E+02</rscale>
<asrwt>0</asrwt>
<pdfrwt beam="1">  1       21 0.20074161E-01 0.82184105E+02</pdfrwt>
<pdfrwt beam="2">  1       21 0.10489682E-01 0.82184105E+02</pdfrwt>
<totfact> 0.16791258E+06</totfact>
</mgrwt>
</event>
<event>
 5    1  0.1708429E+000  0.8048743E+02  0.7546771E-02  0.1327674E+00
         21   -1    0    0  503  502  0.00000000000E+00  0.00000000000E+00  0.92437551589E+02  0.92437551589E+02  0.00000000000E+00 0. -1.
         21   -1    0    0  501  503 -0.00000000000E+00 -0.00000000000E+00 -0.11545499362E+03  0.11545499362E+03  0.00000000000E+00 0.  1.
         24    1    1    2    0    0  0.24311713599E+02 -0.26340311064E+02  0.50021629283E+02  0.10126327447E+03  0.80419002446E+02 0. -1.
          1    1    1    2  501    0 -0.18536948696E+02 -0.19395973606E+02 -0.45811231429E+02  0.53089463965E+02  0.00000000000E+00 0. -1.
         -2    1    1    2    0  502 -0.57747649038E+01  0.45736284670E+02 -0.27227839888E+02  0.53539806780E+02  0.00000000000E+00 0.  1.
<mgrwt>
<rscale>  2 0.80487426E+02</rscale>
<asrwt>0</asrwt>
<pdfrwt beam="1">  1       21 0.14221162E-01 0.80487426E+02</pdfrwt>
<pdfrwt beam="2">  1       21 0.17762307E-01 0.80487426E+02</pdfrwt>
<totfact> 0.12293253E+06</totfact>
</mgrwt>
</event>
<event>
 5    1  0.1708429E+000  0.7601926E+02  0.7546771E-02  0.1340743E+00
         21   -1    0    0  503  502  0.00000000000E+00  0.00000000000E+00  0.26726165995E+03  0.26726165995E+03  0.00000000000E+00 0. -1.
         21   -1    0    0  501  503 -0.00000000000E+00 -0.00000000000E+00 -0.21664072228E+02  0.21664072228E+02  0.00000000000E+00 0.  1.
         24    1    1    2    0    0  0.17461287545E+02 -0.52116689940E+01  0.12690172241E+03  0.15133843253E+03  0.80419002446E+02 0.  1.
          1    1    1    2  501    0  0.21562229167E+02 -0.14377957515E+02  0.43962407771E+02  0.51032819695E+02  0.00000000000E+00 0. -1.
         -2    1    1    2    0  502 -0.39023516712E+02  0.19589626509E+02  0.74733457540E+02  0.86554479949E+02  0.00000000000E+00 0.  1.
<mgrwt>
<rscale>  2 0.76019261E+02</rscale>
<asrwt>0</asrwt>
<pdfrwt beam="1">  1       21 0.41117176E-01 0.76019261E+02</pdfrwt>
<pdfrwt beam="2">  1       21 0.33329344E-02 0.76019261E+02</pdfrwt>
<totfact> 0.29339811E+06</totfact>
</mgrwt>
</event>
<event>
 5    1  0.1708429E+000  0.1201079E+03  0.7546771E-02  0.1242919E+00
         21   -1    0    0  501  502  0.00000000000E+00  0.00000000000E+00  0.38125300555E+03  0.38125300555E+03  0.00000000000E+00 0. -1.
         21   -1    0    0  502  503 -0.00000000000E+00 -0.00000000000E+00 -0.59175051591E+02  0.59175051591E+02  0.00000000000E+00 0. -1.
         24    1    1    2    0    0  0.10424140048E+03  0.16323660766E+01  0.86446352621E+02  0.15750911729E+03  0.80419002446E+02 0. -1.
          1    1    1    2  501    0 -0.86499017436E+02  0.10384328066E+02  0.24462805257E+03  0.25967825937E+03  0.00000000000E+00 0. -1.
         -2    1    1    2    0  503 -0.17742383047E+02 -0.12016694143E+02 -0.89964512319E+01  0.23240680478E+02  0.00000000000E+00 0.  1.
<mgrwt>
<rscale>  2 0.12010786E+03</rscale>
<asrwt>0</asrwt>
<pdfrwt beam="1">  1       21 0.58654307E-01 0.12010786E+03</pdfrwt>
<pdfrwt beam="2">  1       21 0.91038543E-02 0.12010786E+03</pdfrwt>
<totfact> 0.26497110E+05</totfact>
</mgrwt>
</event>
<event>
 5    1  0.1708429E+000  0.1124371E+03  0.7546771E-02  0.1256122E+00
         21   -1    0    0  503  502  0.00000000000E+00  0.00000000000E+00  0.19505375015E+02  0.19505375015E+02  0.00000000000E+00 0.  1.
         21   -1    0    0  501  503 -0.00000000000E+00 -0.00000000000E+00 -0.10610415004E+04  0.10610415004E+04  0.00000000000E+00 0.  1.
         24    1    1    2    0    0 -0.61021129749E+02 -0.71450588539E+02 -0.21672350326E+03  0.24952967298E+03  0.80419002446E+02 0.  1.
          1    1    1    2  501    0  0.55976555547E+02  0.38679874820E+02 -0.57617510656E+03  0.58017864568E+03  0.00000000000E+00 0. -1.
         -2    1    1    2    0  502  0.50445742020E+01  0.32770713719E+02 -0.24863751556E+03  0.25083855675E+03  0.00000000000E+00 0.  1.
<mgrwt>
<rscale>  2 0.11243706E+03</rscale>
<asrwt>0</asrwt>
<pdfrwt beam="1">  1       21 0.30008273E-02 0.11243706E+03</pdfrwt>
<pdfrwt beam="2">  1       21 0.16323714E+00 0.11243706E+03</pdfrwt>
<totfact> 0.15668062E+05</totfact>
</mgrwt>
</event>
<event>
 5    1  0.1708429E+000  0.1080871E+03  0.7546771E-02  0.1264154E+00
         21   -1    0    0  501  502  0.00000000000E+00  0.00000000000E+00  0.20375264203E+03  0.20375264203E+03  0.00000000000E+00 0. -1.
         21   -1    0    0  502  503 -0.00000000000E+00 -0.00000000000E+00 -0.90450734038E+02  0.90450734038E+02  0.00000000000E+00 0. -1.
         24    1    1    2    0    0  0.54221706617E+02 -0.11158232977E+02 -0.33372783846E+02  0.10317683019E+03  0.80419002446E+02 0. -1.
          1    1    1    2  501    0 -0.55996138040E+02  0.52740963188E+02  0.11655643478E+03  0.13965163501E+03  0.00000000000E+00 0. -1.
         -2    1    1    2    0  503  0.17744314222E+01 -0.41582730211E+02  0.30118257066E+02  0.51374910875E+02  0.00000000000E+00 0.  1.
<mgrwt>
<rscale>  2 0.10808713E+03</rscale>
<asrwt>0</asrwt>
<pdfrwt beam="1">  1       21 0.31346560E-01 0.10808713E+03</pdfrwt>
<pdfrwt beam="2">  1       21 0.13915498E-01 0.10808713E+03</pdfrwt>
<totfact> 0.44464285E+05</totfact>
</mgrwt>
</event>
<event>
 5    1  0.1708429E+000  0.7713276E+02  0.7546771E-02  0.1337391E+00
         21   -1    0    0  503  502  0.00000000000E+00  0.00000000000E+00  0.28097011359E+03  0.28097011359E+03  0.00000000000E+00 0.  1.
         21   -1    0    0  501  503 -0.00000000000E+00 -0.00000000000E+00 -0.50550984779E+02  0.50550984779E+02  0.00000000000E+00 0. -1.
         24    1    1    2    0    0  0.23028124785E+02 -0.10555448960E+02  0.83525021565E+02  0.11868174761E+03  0.80419002446E+02 0. -1.
          1    1    1    2  501    0 -0.45652044616E+02  0.12240211050E+02 -0.14826360921E+02  0.49535370417E+02  0.00000000000E+00 0. -1.
         -2    1    1    2    0  502  0.22623919831E+02 -0.16847620897E+01  0.16172046817E+03  0.16330398035E+03  0.00000000000E+00 0.  1.
<mgrwt>
<rscale>  2 0.77132756E+02</rscale>
<asrwt>0</asrwt>
<pdfrwt beam="1">  1       21 0.43226170E-01 0.77132756E+02</pdfrwt>
<pdfrwt beam="2">  1       21 0.77770747E-02 0.77132756E+02</pdfrwt>
<totfact> 0.65150423E+05</totfact>
</mgrwt>
</event>
<event>
 5    1  0.1708429E+000  0.7570558E+02  0.7546771E-02  0.1341700E+00
         21   -1    0    0  503  502  0.00000000000E+00  0.00000000000E+00  0.40228248284E+02  0.40228248284E+02  0.00000000000E+00 0. -1.
         21   -1    0    0  501  503 -0.00000000000E+00 -0.00000000000E+00 -0.15658075631E+03  0.15658075631E+03  0.00000000000E+00 0.  1.
         24    1    1    2    0    0 -0.87281556840E+01 -0.19236609864E+01 -0.53616219664E+02  0.97065937067E+02  0.80419002446E+02 0. -1.
          1    1    1    2  501    0 -0.21223970525E+02  0.24921390068E+02 -0.50246047880E+02  0.59968307758E+02  0.00000000000E+00 0. -1.
         -2    1    1    2    0  502  0.29952126209E+02 -0.22997729082E+02 -0.12490240480E+02  0.39774759768E+02  0.00000000000E+00 0.  1.
<mgrwt>
<rscale>  2 0.75705579E+02</rscale>
<asrwt>0</asrwt>
<pdfrwt beam="1">  1       21 0.61889613E-02 0.75705579E+02</pdfrwt>
<pdfrwt beam="2">  1       21 0.24089347E-01 0.75705579E+02</pdfrwt>
<totfact> 0.29377010E+06</totfact>
</mgrwt>
</event>
<event>
 5    1  0.1708429E+000  0.7617357E+02  0.7546771E-02  0.1340275E+00
         21   -1    0    0  501  502  0.00000000000E+00  0.00000000000E+00  0.88078258299E+03  0.88078258299E+03  0.00000000000E+00 0.  1.
         21   -1    0    0  502  503 -0.00000000000E+00 -0.00000000000E+00 -0.73477024357E+01  0.73477024357E+01  0.00000000000E+00 0. -1.
         24    1    1    2    0    0 -0.19896111475E+02  0.57537801528E+01  0.52051069857E+03  0.52709350643E+03  0.80419002446E+02 0.  0.
          1    1    1    2  501    0  0.33684301162E+02  0.20654677644E+02  0.27097230736E+03  0.27383797985E+03  0.00000000000E+00 0. -1.
         -2    1    1    2    0  503 -0.13788189687E+02 -0.26408457797E+02  0.81951874618E+02  0.87198799140E+02  0.00000000000E+00 0.  1.
<mgrwt>
<rscale>  2 0.76173571E+02</rscale>
<asrwt>0</asrwt>
<pdfrwt beam="1">  1       21 0.13550493E+00 0.76173571E+02</pdfrwt>
<pdfrwt beam="2">  1       21 0.11304165E-02 0.76173571E+02</pdfrwt>
<totfact> 0.12104868E+06</totfact>
</mgrwt>
</event>
<event>
 5    1  0.1708429E+000  0.7689148E+02  0.7546771E-02  0.1338112E+00
         21   -1    0    0  503  502  0.00000000000E+00  0.00000000000E+00  0.25920179229E+03  0.25920179229E+03  0.00000000000E+00 0.  1.
         21   -1    0    0  501  503 -0.00000000000E+00 -0.00000000000E+00 -0.35330343266E+02  0.35330343266E+02  0.00000000000E+00 0.  1.
         24    1    1    2    0    0 -0.36389781772E+02  0.23196624324E+02  0.61357776608E+02  0.10997405286E+03  0.80419002446E+02 0.  1.
          1    1    1    2  501    0 -0.26310162201E+01 -0.23347911797E+02  0.74327749338E+01  0.24643323129E+02  0.00000000000E+00 0. -1.
         -2    1    1    2    0  502  0.39020797992E+02  0.15128747308E+00  0.15508089748E+03  0.15991475957E+03  0.00000000000E+00 0.  1.
<mgrwt>
<rscale>  2 0.76891478E+02</rscale>
<asrwt>0</asrwt>
<pdfrwt beam="1">  1       21 0.39877198E-01 0.76891478E+02</pdfrwt>
<pdfrwt beam="2">  1       21 0.54354376E-02 0.76891478E+02</pdfrwt>
<totfact> 0.13953002E+06</totfact>
</mgrwt>
</event>
<event>
 5    1  0.1708429E+000  0.8630662E+02  0.7546771E-02  0.1312051E+00
         21   -1    0    0  501  502  0.00000000000E+00  0.00000000000E+00  0.17682112626E+03  0.17682112626E+03  0.00000000000E+00 0. -1.
         21   -1    0    0  502  503 -0.00000000000E+00 -0.00000000000E+00 -0.14774090968E+03  0.14774090968E+03  0.00000000000E+00 0.  1.
         24    1    1    2    0    0  0.68441241680E+01  0.21366183960E+02  0.63374590049E+02  0.10481846436E+03  0.80419002446E+02 0.  1.
          1    1    1    2  501    0  0.24756395252E+02  0.23574033801E+02  0.83249338263E+02  0.89994813722E+02  0.00000000000E+00 0. -1.
         -2    1    1    2    0  503 -0.31600519420E+02 -0.44940217762E+02 -0.11754371173E+03  0.12974875787E+03  0.00000000000E+00 0.  1.
<mgrwt>
<rscale>  2 0.86306621E+02</rscale>
<asrwt>0</asrwt>
<pdfrwt beam="1">  1       21 0.27203250E-01 0.86306621E+02</pdfrwt>
<pdfrwt beam="2">  1       21 0.22729371E-01 0.86306621E+02</pdfrwt>
<totfact> 0.23988740E+05</totfact>
</mgrwt>
</event>
<event>
 5    1  0.1708429E+000  0.1467101E+03  0.7546771E-02  0.1204575E+00
         21   -1    0    0  501  502  0.00000000000E+00  0.00000000000E+00  0.39134553617E+03  0.39134553617E+03  0.00000000000E+00 0. -1.
         21   -1    0    0  502  503 -0.00000000000E+00 -0.00000000000E+00 -0.17231840913E+03  0.17231840913E+03  0.00000000000E+00 0.  1.
         24    1    1    2    0    0 -0.79763554316E+02  0.67843892943E+02  0.51737281775E+02  0.14180613769E+03  0.80419002446E+02 0. -1.
          1    1    1    2  501    0  0.27125146612E+02 -0.97340759394E+02  0.27798711046E+03  0.29578341840E+03  0.00000000000E+00 0. -1.
         -2    1    1    2    0  503  0.52638407705E+02  0.29496866451E+02 -0.11069726519E+03  0.12607438922E+03  0.00000000000E+00 0.  1.
<mgrwt>
<rscale>  2 0.14671013E+03</rscale>
<asrwt>0</asrwt>
<pdfrwt beam="1">  1       21 0.60207005E-01 0.14671013E+03</pdfrwt>
<pdfrwt beam="2">  1       21 0.26510525E-01 0.14671013E+03</pdfrwt>
<totfact> 0.35699957E+04</totfact>
</mgrwt>
</event>
<event>
 5    1  0.1708429E+000  0.9378429E+02  0.7546771E-02  0.1293938E+00
         21   -1    0    0  503  502  0.00000000000E+00  0.00000000000E+00  0.28771414911E+03  0.28771414911E+03  0.00000000000E+00 0.  1.
         21   -1    0    0  501  503 -0.00000000000E+00 -0.00000000000E+00 -0.54536718386E+02  0.54536718386E+02  0.00000000000E+00 0. -1.
         24    1    1    2    0    0  0.37755727778E+02 -0.62983123825E+02  0.50737138452E+02  0.12014092575E+03  0.80419002446E+02 0. -1.
          1    1    1    2  501    0 -0.31288791688E+02  0.24759816038E+02  0.46826436226E+01  0.40174172385E+02  0.00000000000E+00 0. -1.
         -2    1    1    2    0  502 -0.64669360896E+01  0.38223307787E+02  0.17775764865E+03  0.18193576937E+03  0.00000000000E+00 0.  1.
<mgrwt>
<rscale>  2 0.93784286E+02</rscale>
<asrwt>0</asrwt>
<pdfrwt beam="1">  1       21 0.44263714E-01 0.93784286E+02</pdfrwt>
<pdfrwt beam="2">  1       21 0.83902645E-02 0.93784286E+02</pdfrwt>
<totfact> 0.54637646E+05</totfact>
</mgrwt>
</event>
<event>
 5    1  0.1708429E+000  0.9465504E+02  0.7546771E-02  0.1291955E+00
         21   -1    0    0  501  502  0.00000000000E+00  0.00000000000E+00  0.19677109911E+03  0.19677109911E+03  0.00000000000E+00 0. -1.
         21   -1    0    0  502  503 -0.00000000000E+00 -0.00000000000E+00 -0.12057365351E+03  0.12057365351E+03  0.00000000000E+00 0.  1.
         24    1    1    2    0    0  0.58768159509E+02 -0.20044368056E+02  0.45367957431E+02  0.11126967592E+03  0.80419002446E+02 0.  0.
          1    1    1    2  501    0 -0.13570596779E+02 -0.22085443686E+02  0.10579706307E+03  0.10892633508E+03  0.00000000000E+00 0. -1.
         -2    1    1    2    0  503 -0.45197562730E+02  0.42129811742E+02 -0.74967574891E+02  0.97148741624E+02  0.00000000000E+00 0.  1.
<mgrwt>
<rscale>  2 0.94655039E+02</rscale>
<asrwt>0</asrwt>
<pdfrwt beam="1">  1       21 0.30272477E-01 0.94655039E+02</pdfrwt>
<pdfrwt beam="2">  1       21 0.18549793E-01 0.94655039E+02</pdfrwt>
<totfact> 0.28379109E+05</totfact>
</mgrwt>
</event>
<event>
 5    1  0.1708429E+000  0.1412656E+03  0.7546771E-02  0.1211636E+00
         21   -1    0    0  503  502  0.00000000000E+00  0.00000000000E+00  0.20764445768E+03  0.20764445768E+03  0.00000000000E+00 0.  1.
         21   -1    0    0  501  503 -0.00000000000E+00 -0.00000000000E+00 -0.12487543041E+03  0.12487543041E+03  0.00000000000E+00 0. -1.
         24    1    1    2    0    0 -0.56400051588E+02 -0.50457187382E+02 -0.40612710774E+01  0.11050159933E+03  0.80419002446E+02 0.  1.
          1    1    1    2  501    0 -0.43279221006E+02  0.57739722226E+02 -0.20842118431E+02  0.75108990103E+02  0.00000000000E+00 0. -1.
         -2    1    1    2    0  502  0.99679272593E+02 -0.72825348438E+01  0.10767241677E+03  0.14690929866E+03  0.00000000000E+00 0.  1.
<mgrwt>
<rscale>  2 0.14126560E+03</rscale>
<asrwt>0</asrwt>
<pdfrwt beam="1">  1       21 0.31945301E-01 0.14126560E+03</pdfrwt>
<pdfrwt beam="2">  1       21 0.19211605E-01 0.14126560E+03</pdfrwt>
<totfact> 0.23749830E+05</totfact>
</mgrwt>
</event>
