<event>
 5    1  0.1721815E-001  0.9734844E+02  0.7546771E-02  0.1285973E+00
         21   -1    0    0  503  502  0.00000000000E+00  0.00000000000E+00  0.15254572991E+02  0.15254572991E+02  0.00000000000E+00 0. -1.
         21   -1    0    0  501  503 -0.00000000000E+00 -0.00000000000E+00 -0.62939818747E+03  0.62939818747E+03  0.00000000000E+00 0.  1.
         24    1    1    2    0    0 -0.35912191750E+02 -0.27302600900E+02 -0.28270806144E+03  0.29736540063E+03  0.80419002446E+02 0.  1.
          1    1    1    2  501    0 -0.10624419971E+02  0.49714141490E+02 -0.19116443524E+03  0.19780853234E+03  0.00000000000E+00 0. -1.
         -2    1    1    2    0  502  0.46536611721E+02 -0.22411540590E+02 -0.14027111780E+03  0.14947882750E+03  0.00000000000E+00 0.  1.
<mgrwt>
<rscale>  2 0.97348440E+02</rscale>
<asrwt>0</asrwt>
<pdfrwt beam="1">  1       21 0.23468573E-02 0.97348440E+02</pdfrwt>
<pdfrwt beam="2">  1       21 0.96830493E-01 0.97348440E+02</pdfrwt>
<totfact> 0.84602926E+05</totfact>
</mgrwt>
</event>
<event>
 5    1  0.1721815E-001  0.1336190E+03  0.7546771E-02  0.1222183E+00
         21   -1    0    0  503  502  0.00000000000E+00  0.00000000000E+00  0.16240251997E+04  0.16240251997E+04  0.00000000000E+00 0. -1.
         21   -1    0    0  501  503 -0.00000000000E+00 -0.00000000000E+00 -0.11216853382E+02  0.11216853382E+02  0.00000000000E+00 0.  1.
         24    1    1    2    0    0 -0.11046010871E+02  0.12946665953E+01  0.44884998714E+03  0.45613289448E+03  0.80419002446E+02 0.  1.
          1    1    1    2  501    0  0.87409794827E+02  0.43379514802E+02  0.51687363960E+03  0.52600438577E+03  0.00000000000E+00 0. -1.
         -2    1    1    2    0  502 -0.76363783956E+02 -0.44674181397E+02  0.64708471959E+03  0.65310477285E+03  0.00000000000E+00 0.  1.
<mgrwt>
<rscale>  2 0.13361898E+03</rscale>
<asrwt>0</asrwt>
<pdfrwt beam="1">  1       21 0.24984984E+00 0.13361898E+03</pdfrwt>
<pdfrwt beam="2">  1       21 0.17256710E-02 0.13361898E+03</pdfrwt>
<totfact> 0.10890322E+05</totfact>
</mgrwt>
</event>
<event>
 5    1  0.1721815E-001  0.6357771E+02  0.7546771E-02  0.1383403E+00
         21   -1    0    0  501  502  0.00000000000E+00  0.00000000000E+00  0.41185119974E+02  0.41185119974E+02  0.00000000000E+00 0. -1.
         21   -1    0    0  502  503 -0.00000000000E+00 -0.00000000000E+00 -0.40636670300E+03  0.40636670300E+03  0.00000000000E+00 0.  1.
         24    1    1    2    0    0  0.70118910547E+00  0.40233797191E+01 -0.38178967819E+03  0.39018874096E+03  0.80419002446E+02 0.  1.
          1    1    1    2  501    0  0.35900009564E+01 -0.24982374584E+02  0.23901313107E+02  0.34760320985E+02  0.00000000000E+00 0. -1.
         -2    1    1    2    0  503 -0.42911900619E+01  0.20958994865E+02 -0.72932179460E+01  0.22602761024E+02  0.00000000000E+00 0.  1.
<mgrwt>
<rscale>  2 0.63577709E+02</rscale>
<asrwt>0</asrwt>
<pdfrwt beam="1">  1       21 0.63361724E-02 0.63577709E+02</pdfrwt>
<pdfrwt beam="2">  1       21 0.62517954E-01 0.63577709E+02</pdfrwt>
<totfact> 0.43285680E+05</totfact>
</mgrwt>
</event>
<event>
 5    1  0.1721815E-001  0.7313817E+02  0.7546771E-02  0.1349735E+00
         21   -1    0    0  503  502  0.00000000000E+00  0.00000000000E+00  0.33066585155E+02  0.33066585155E+02  0.00000000000E+00 0. -1.
         21   -1    0    0  501  503 -0.00000000000E+00 -0.00000000000E+00 -0.27192396430E+03  0.27192396430E+03  0.00000000000E+00 0. -1.
         24    1    1    2    0    0  0.19769520432E+02  0.23651332683E+02 -0.20903326889E+03  0.22608039042E+03  0.80419002446E+02 0. -1.
          1    1    1    2  501    0 -0.34850433561E+02 -0.35622806042E+01 -0.38762718433E+02  0.52247400919E+02  0.00000000000E+00 0. -1.
         -2    1    1    2    0  502  0.15080913129E+02 -0.20089052078E+02  0.89386081766E+01  0.26662758116E+02  0.00000000000E+00 0.  1.
<mgrwt>
<rscale>  2 0.73138174E+02</rscale>
<asrwt>0</asrwt>
<pdfrwt beam="1">  1       21 0.50871668E-02 0.73138174E+02</pdfrwt>
<pdfrwt beam="2">  1       21 0.41834457E-01 0.73138174E+02</pdfrwt>
<totfact> 0.14144683E+06</totfact>
</mgrwt>
</event>
<event>
 5    1  0.1721815E-001  0.9811320E+02  0.7546771E-02  0.1284314E+00
         21   -1    0    0  503  502  0.00000000000E+00  0.00000000000E+00  0.69374142638E+02  0.69374142638E+02  0.00000000000E+00 0. -1.
         21   -1    0    0  501  503 -0.00000000000E+00 -0.00000000000E+00 -0.28111139279E+03  0.28111139279E+03  0.00000000000E+00 0.  1.
         24    1    1    2    0    0 -0.84451888761E+01  0.84623533063E+01 -0.22032970592E+03  0.23485171471E+03  0.80419002446E+02 0.  1.
          1    1    1    2  501    0  0.51983944194E+02  0.27175996333E+02  0.91385945725E+01  0.59366481632E+02  0.00000000000E+00 0. -1.
         -2    1    1    2    0  502 -0.43538755318E+02 -0.35638349639E+02 -0.54613880334E+00  0.56267339081E+02  0.00000000000E+00 0.  1.
<mgrwt>
<rscale>  2 0.98113199E+02</rscale>
<asrwt>0</asrwt>
<pdfrwt beam="1">  1       21 0.10672945E-01 0.98113199E+02</pdfrwt>
<pdfrwt beam="2">  1       21 0.43247906E-01 0.98113199E+02</pdfrwt>
<totfact> 0.37744113E+05</totfact>
</mgrwt>
</event>
<event>
 5    1  0.1721815E-001  0.2197822E+03  0.7546771E-02  0.1134046E+00
         21   -1    0    0  501  502  0.00000000000E+00  0.00000000000E+00  0.26403975194E+03  0.26403975194E+03  0.00000000000E+00 0. -1.
         21   -1    0    0  502  503 -0.00000000000E+00 -0.00000000000E+00 -0.18970074954E+03  0.18970074954E+03  0.00000000000E+00 0.  1.
         24    1    1    2    0    0 -0.11622350805E+03  0.40440259428E+02  0.18435356937E+02  0.14815666284E+03  0.80419002446E+02 0.  0.
          1    1    1    2  501    0  0.15980475511E+03 -0.12135085575E+03  0.70187529199E+02  0.21257911281E+03  0.00000000000E+00 0. -1.
         -2    1    1    2    0  503 -0.43581247059E+02  0.80910596326E+02 -0.14283883738E+02  0.93004725835E+02  0.00000000000E+00 0.  1.
<mgrwt>
<rscale>  2 0.21978221E+03</rscale>
<asrwt>0</asrwt>
<pdfrwt beam="1">  1       21 0.40621500E-01 0.21978221E+03</pdfrwt>
<pdfrwt beam="2">  1       21 0.29184731E-01 0.21978221E+03</pdfrwt>
<totfact> 0.64859863E+04</totfact>
</mgrwt>
</event>
<event>
 5    1  0.1721815E-001  0.1258421E+03  0.7546771E-02  0.1233759E+00
         21   -1    0    0  503  502  0.00000000000E+00  0.00000000000E+00  0.11913973887E+04  0.11913973887E+04  0.00000000000E+00 0.  1.
         21   -1    0    0  501  503 -0.00000000000E+00 -0.00000000000E+00 -0.13839905652E+02  0.13839905652E+02  0.00000000000E+00 0. -1.
         24    1    1    2    0    0  0.18313280303E+02 -0.85614700006E+02  0.44116019946E+03  0.45689691467E+03  0.80419002446E+02 0.  1.
          1    1    1    2  501    0  0.33709779709E+02  0.13038905018E+01  0.21194973599E+03  0.21461765996E+03  0.00000000000E+00 0. -1.
         -2    1    1    2    0  502 -0.52023060012E+02  0.84310809504E+02  0.52444754758E+03  0.53372271971E+03  0.00000000000E+00 0.  1.
<mgrwt>
<rscale>  2 0.12584214E+03</rscale>
<asrwt>0</asrwt>
<pdfrwt beam="1">  1       21 0.18329182E+00 0.12584214E+03</pdfrwt>
<pdfrwt beam="2">  1       21 0.21292172E-02 0.12584214E+03</pdfrwt>
<totfact> 0.19839618E+05</totfact>
</mgrwt>
</event>
<event>
 5    1  0.1721815E-001  0.1542838E+03  0.7546771E-02  0.1195306E+00
         21   -1    0    0  503  502  0.00000000000E+00  0.00000000000E+00  0.15983548424E+03  0.15983548424E+03  0.00000000000E+00 0. -1.
         21   -1    0    0  501  503 -0.00000000000E+00 -0.00000000000E+00 -0.31441523460E+03  0.31441523460E+03  0.00000000000E+00 0. -1.
         24    1    1    2    0    0 -0.61258298115E+02  0.79012340312E+02 -0.19379202828E+03  0.23241793216E+03  0.80419002446E+02 0. -1.
          1    1    1    2  501    0  0.10649031837E+03 -0.82767467979E+02 -0.48292079025E+02  0.14325769285E+03  0.00000000000E+00 0. -1.
         -2    1    1    2    0  502 -0.45232020259E+02  0.37551276666E+01  0.87504356945E+02  0.98575093837E+02  0.00000000000E+00 0.  1.
<mgrwt>
<rscale>  2 0.15428377E+03</rscale>
<asrwt>0</asrwt>
<pdfrwt beam="1">  1       21 0.24590075E-01 0.15428377E+03</pdfrwt>
<pdfrwt beam="2">  1       21 0.48371573E-01 0.15428377E+03</pdfrwt>
<totfact> 0.64929797E+04</totfact>
</mgrwt>
</event>
<event>
 5    1  0.1721815E-001  0.5123833E+03  0.7546771E-02  0.1010596E+00
         21   -1    0    0  501  502  0.00000000000E+00  0.00000000000E+00  0.50425944072E+03  0.50425944072E+03  0.00000000000E+00 0.  1.
         21   -1    0    0  502  503 -0.00000000000E+00 -0.00000000000E+00 -0.55066141986E+03  0.55066141986E+03  0.00000000000E+00 0. -1.
         24    1    1    2    0    0  0.24539685650E+03  0.81598161852E+02 -0.10126971157E+03  0.28913776584E+03  0.80419002446E+02 0.  0.
          1    1    1    2  501    0 -0.44601782841E+03 -0.23243067686E+03  0.94290561565E+02  0.51170951994E+03  0.00000000000E+00 0. -1.
         -2    1    1    2    0  503  0.20062097191E+03  0.15083251501E+03 -0.39422829145E+02  0.25407357480E+03  0.00000000000E+00 0.  1.
<mgrwt>
<rscale>  2 0.51238334E+03</rscale>
<asrwt>0</asrwt>
<pdfrwt beam="1">  1       21 0.77578375E-01 0.51238334E+03</pdfrwt>
<pdfrwt beam="2">  1       21 0.84717142E-01 0.51238334E+03</pdfrwt>
<totfact> 0.14935369E+03</totfact>
</mgrwt>
</event>
<event>
 5    1  0.1721815E-001  0.1103016E+03  0.7546771E-02  0.1260012E+00
         21   -1    0    0  503  502  0.00000000000E+00  0.00000000000E+00  0.35568075617E+03  0.35568075617E+03  0.00000000000E+00 0.  1.
         21   -1    0    0  501  503 -0.00000000000E+00 -0.00000000000E+00 -0.19408233676E+03  0.19408233676E+03  0.00000000000E+00 0. -1.
         24    1    1    2    0    0  0.21439087924E+02  0.30344119044E+02 -0.99926685420E+02  0.13354010059E+03  0.80419002446E+02 0. -1.
          1    1    1    2  501    0 -0.74691499008E+02 -0.11743706207E+02 -0.55770437835E+02  0.93952522030E+02  0.00000000000E+00 0. -1.
         -2    1    1    2    0  502  0.53252411084E+02 -0.18600412838E+02  0.31729554267E+03  0.32227047032E+03  0.00000000000E+00 0.  1.
<mgrwt>
<rscale>  2 0.11030163E+03</rscale>
<asrwt>0</asrwt>
<pdfrwt beam="1">  1       21 0.54720117E-01 0.11030163E+03</pdfrwt>
<pdfrwt beam="2">  1       21 0.29858821E-01 0.11030163E+03</pdfrwt>
<totfact> 0.35584455E+04</totfact>
</mgrwt>
</event>
<event>
 5    1  0.1721815E-001  0.2294036E+03  0.7546771E-02  0.1127060E+00
         21   -1    0    0  501  502  0.00000000000E+00  0.00000000000E+00  0.62659426194E+02  0.62659426194E+02  0.00000000000E+00 0. -1.
         21   -1    0    0  502  503 -0.00000000000E+00 -0.00000000000E+00 -0.84024811633E+03  0.84024811633E+03  0.00000000000E+00 0.  1.
         24    1    1    2    0    0 -0.48407015760E+02  0.99442269215E+02 -0.23756659107E+03  0.27411148321E+03  0.80419002446E+02 0.  1.
          1    1    1    2  501    0 -0.29674833622E+01 -0.20481296607E+03 -0.33775013754E+03  0.39500925614E+03  0.00000000000E+00 0. -1.
         -2    1    1    2    0  503  0.51374499122E+02  0.10537069686E+03 -0.20227196153E+03  0.23378680317E+03  0.00000000000E+00 0.  1.
<mgrwt>
<rscale>  2 0.22940360E+03</rscale>
<asrwt>0</asrwt>
<pdfrwt beam="1">  1       21 0.96399118E-02 0.22940360E+03</pdfrwt>
<pdfrwt beam="2">  1       21 0.12926894E+00 0.22940360E+03</pdfrwt>
<totfact> 0.37198336E+04</totfact>
</mgrwt>
</event>
<event>
 5    1  0.1721815E-001  0.7323601E+02  0.7546771E-02  0.1349422E+00
         21   -1    0    0  501  502  0.00000000000E+00  0.00000000000E+00  0.22707034829E+02  0.22707034829E+02  0.00000000000E+00 0. -1.
         21   -1    0    0  502  503 -0.00000000000E+00 -0.00000000000E+00 -0.41540724183E+03  0.41540724183E+03  0.00000000000E+00 0.  1.
         24    1    1    2    0    0 -0.59014449551E+01  0.43424470142E+02 -0.36560817095E+03  0.37690457981E+03  0.80419002446E+02 0.  1.
          1    1    1    2  501    0  0.19046815696E+02 -0.17711656373E+02 -0.12777008295E+02  0.28978196987E+02  0.00000000000E+00 0. -1.
         -2    1    1    2    0  503 -0.13145370741E+02 -0.25712813769E+02 -0.14315027753E+02  0.32231499862E+02  0.00000000000E+00 0.  1.
<mgrwt>
<rscale>  2 0.73236014E+02</rscale>
<asrwt>0</asrwt>
<pdfrwt beam="1">  1       21 0.34933901E-02 0.73236014E+02</pdfrwt>
<pdfrwt beam="2">  1       21 0.63908804E-01 0.73236014E+02</pdfrwt>
<totfact> 0.11039916E+06</totfact>
</mgrwt>
</event>
<event>
 5    1  0.1721815E-001  0.7740610E+02  0.7546771E-02  0.1336578E+00
         21   -1    0    0  501  502  0.00000000000E+00  0.00000000000E+00  0.35355704799E+02  0.35355704799E+02  0.00000000000E+00 0. -1.
         21   -1    0    0  502  503 -0.00000000000E+00 -0.00000000000E+00 -0.64749046492E+03  0.64749046492E+03  0.00000000000E+00 0.  1.
         24    1    1    2    0    0  0.33846030405E+02 -0.24469742465E+00 -0.59509537232E+03  0.60145767246E+03  0.80419002446E+02 0.  1.
          1    1    1    2  501    0 -0.38731236584E+02  0.22488575924E+02  0.10148937359E+02  0.45922169635E+02  0.00000000000E+00 0. -1.
         -2    1    1    2    0  503  0.48852061789E+01 -0.22243878500E+02 -0.27188325160E+02  0.35466327624E+02  0.00000000000E+00 0.  1.
<mgrwt>
<rscale>  2 0.77406098E+02</rscale>
<asrwt>0</asrwt>
<pdfrwt beam="1">  1       21 0.54393391E-02 0.77406098E+02</pdfrwt>
<pdfrwt beam="2">  1       21 0.99613920E-01 0.77406098E+02</pdfrwt>
<totfact> 0.20087044E+05</totfact>
</mgrwt>
</event>
<event>
 5    1  0.1721815E-001  0.8740886E+02  0.7546771E-02  0.1309251E+00
         21   -1    0    0  501  502  0.00000000000E+00  0.00000000000E+00  0.37799836361E+02  0.37799836361E+02  0.00000000000E+00 0.  1.
         21   -1    0    0  502  503 -0.00000000000E+00 -0.00000000000E+00 -0.24286719422E+03  0.24286719422E+03  0.00000000000E+00 0.  1.
         24    1    1    2    0    0 -0.30704470827E+02  0.28628181901E+02 -0.53059316968E+02  0.10509445465E+03  0.80419002446E+02 0.  1.
          1    1    1    2  501    0  0.83907379918E+01  0.24810322030E+02 -0.26049934502E+02  0.36939892404E+02  0.00000000000E+00 0. -1.
         -2    1    1    2    0  503  0.22313732835E+02 -0.53438503931E+02 -0.12595810639E+03  0.13863268352E+03  0.00000000000E+00 0.  1.
<mgrwt>
<rscale>  2 0.87408865E+02</rscale>
<asrwt>0</asrwt>
<pdfrwt beam="1">  1       21 0.58153596E-02 0.87408865E+02</pdfrwt>
<pdfrwt beam="2">  1       21 0.37364182E-01 0.87408865E+02</pdfrwt>
<totfact> 0.14218556E+06</totfact>
</mgrwt>
</event>
<event>
 5    1  0.1811908E-001  0.2007442E+03  0.7546771E-02  0.1149113E+00
         21   -1    0    0  503  502  0.00000000000E+00  0.00000000000E+00  0.10261522126E+03  0.10261522126E+03  0.00000000000E+00 0.  1.
         21   -1    0    0  501  503 -0.00000000000E+00 -0.00000000000E+00 -0.12822832499E+04  0.12822832499E+04  0.00000000000E+00 0. -1.
         24    1    1    2    0    0 -0.58691783615E+01 -0.85233859614E+00 -0.27869831212E+03  0.29012952085E+03  0.80419002446E+02 0.  0.
          1    1    1    2  501    0 -0.68612159601E+02  0.14398613223E+03 -0.91870199011E+03  0.93244462643E+03  0.00000000000E+00 0. -1.
         -2    1    1    2    0  502  0.74481337963E+02 -0.14313379363E+03  0.17732273623E+02  0.16232432384E+03  0.00000000000E+00 0.  1.
<mgrwt>
<rscale>  2 0.20074417E+03</rscale>
<asrwt>0</asrwt>
<pdfrwt beam="1">  1       21 0.15786957E-01 0.20074417E+03</pdfrwt>
<pdfrwt beam="2">  1       21 0.19727435E+00 0.20074417E+03</pdfrwt>
<totfact> 0.49590083E+03</totfact>
</mgrwt>
</event>
<event>
 5    1  0.1721815E-001  0.3117100E+03  0.7546771E-02  0.1079529E+00
         21   -1    0    0  501  502  0.00000000000E+00  0.00000000000E+00  0.12201628676E+03  0.12201628676E+03  0.00000000000E+00 0. -1.
         21   -1    0    0  502  503 -0.00000000000E+00 -0.00000000000E+00 -0.11418952048E+04  0.11418952048E+04  0.00000000000E+00 0.  1.
         24    1    1    2    0    0 -0.10894379151E+03  0.66560369328E+02 -0.29338638612E+03  0.32991183669E+03  0.80419002446E+02 0. -1.
          1    1    1    2  501    0  0.28645704414E+03 -0.70397475418E+02 -0.15028743822E+03  0.33105853979E+03  0.00000000000E+00 0. -1.
         -2    1    1    2    0  503 -0.17751325263E+03  0.38371060905E+01 -0.57620509369E+03  0.60294111506E+03  0.00000000000E+00 0.  1.
<mgrwt>
<rscale>  2 0.31171001E+03</rscale>
<asrwt>0</asrwt>
<pdfrwt beam="1">  1       21 0.18771737E-01 0.31171001E+03</pdfrwt>
<pdfrwt beam="2">  1       21 0.17567618E+00 0.31171001E+03</pdfrwt>
<totfact> 0.46536028E+03</totfact>
</mgrwt>
</event>
<event>
 5    1  0.1883749E-001  0.1316162E+03  0.7546771E-02  0.1225077E+00
         21   -1    0    0  501  502  0.00000000000E+00  0.00000000000E+00  0.11963044814E+03  0.11963044814E+03  0.00000000000E+00 0. -1.
         21   -1    0    0  502  503 -0.00000000000E+00 -0.00000000000E+00 -0.14560616129E+03  0.14560616129E+03  0.00000000000E+00 0.  1.
         24    1    1    2    0    0  0.32779839666E+02  0.12379308197E+01 -0.20415816064E+01  0.86875971195E+02  0.80419002446E+02 0. -1.
          1    1    1    2  501    0 -0.54846225017E+02 -0.78649826814E+02 -0.72836402278E+01  0.96161089176E+02  0.00000000000E+00 0. -1.
         -2    1    1    2    0  503  0.22066385351E+02  0.77411895995E+02 -0.16650491319E+02  0.82199549056E+02  0.00000000000E+00 0.  1.
<mgrwt>
<rscale>  2 0.13161617E+03</rscale>
<asrwt>0</asrwt>
<pdfrwt beam="1">  1       21 0.18404684E-01 0.13161617E+03</pdfrwt>
<pdfrwt beam="2">  1       21 0.22400948E-01 0.13161617E+03</pdfrwt>
<totfact> 0.50654764E+05</totfact>
</mgrwt>
</event>
<event>
 5    1  0.1721815E-001  0.9084381E+02  0.7546771E-02  0.1300821E+00
         21   -1    0    0  503  502  0.00000000000E+00  0.00000000000E+00  0.58499226825E+03  0.58499226825E+03  0.00000000000E+00 0.  1.
         21   -1    0    0  501  503 -0.00000000000E+00 -0.00000000000E+00 -0.17901582342E+02  0.17901582342E+02  0.00000000000E+00 0. -1.
         24    1    1    2    0    0 -0.83358330111E+01 -0.86543831459E+01  0.18798951743E+03  0.20482104159E+03  0.80419002446E+02 0. -1.
          1    1    1    2  501    0  0.48318973709E+02 -0.18828930751E+02  0.81899898604E+02  0.96937326376E+02  0.00000000000E+00 0. -1.
         -2    1    1    2    0  502 -0.39983140698E+02  0.27483313897E+02  0.29720126987E+03  0.30113548262E+03  0.00000000000E+00 0.  1.
<mgrwt>
<rscale>  2 0.90843810E+02</rscale>
<asrwt>0</asrwt>
<pdfrwt beam="1">  1       21 0.89998796E-01 0.90843810E+02</pdfrwt>
<pdfrwt beam="2">  1       21 0.27540900E-02 0.90843810E+02</pdfrwt>
<totfact> 0.77176592E+05</totfact>
</mgrwt>
</event>
<event>
 5    1  0.1721815E-001  0.1414215E+03  0.7546771E-02  0.1211429E+00
         21   -1    0    0  503  502  0.00000000000E+00  0.00000000000E+00  0.88904644682E+02  0.88904644682E+02  0.00000000000E+00 0.  1.
         21   -1    0    0  501  503 -0.00000000000E+00 -0.00000000000E+00 -0.67182068648E+03  0.67182068648E+03  0.00000000000E+00 0. -1.
         24    1    1    2    0    0 -0.55270538252E+01 -0.34018546342E+02 -0.28811191077E+03  0.30110380088E+03  0.80419002446E+02 0. -1.
          1    1    1    2  501    0 -0.89900788983E+02  0.42703838553E+02 -0.33957208722E+03  0.35385727646E+03  0.00000000000E+00 0. -1.
         -2    1    1    2    0  502  0.95427842808E+02 -0.86852922109E+01  0.44767956198E+02  0.10576425382E+03  0.00000000000E+00 0.  1.
<mgrwt>
<rscale>  2 0.14142150E+03</rscale>
<asrwt>0</asrwt>
<pdfrwt beam="1">  1       21 0.13677637E-01 0.14142150E+03</pdfrwt>
<pdfrwt beam="2">  1       21 0.10335704E+00 0.14142150E+03</pdfrwt>
<totfact> 0.36239773E+04</totfact>
</mgrwt>
</event>
<event>
 5    1  0.1721815E-001  0.6574889E+02  0.7546771E-02  0.1375176E+00
         21   -1    0    0  501  502  0.00000000000E+00  0.00000000000E+00  0.19778144468E+03  0.19778144468E+03  0.00000000000E+00 0. -1.
         21   -1    0    0  502  503 -0.00000000000E+00 -0.00000000000E+00 -0.89332057366E+03  0.89332057366E+03  0.00000000000E+00 0. -1.
         24    1    1    2    0    0  0.22922364594E+02 -0.47716541285E+01 -0.77057863872E+03  0.77511731879E+03  0.80419002446E+02 0. -1.
          1    1    1    2  501    0 -0.21838935683E+02 -0.15916240262E+02  0.19367644108E+03  0.19555262628E+03  0.00000000000E+00 0. -1.
         -2    1    1    2    0  503 -0.10834289108E+01  0.20687894391E+02 -0.11863693135E+03  0.12043207327E+03  0.00000000000E+00 0.  1.
<mgrwt>
<rscale>  2 0.65748888E+02</rscale>
<asrwt>0</asrwt>
<pdfrwt beam="1">  1       21 0.30427915E-01 0.65748888E+02</pdfrwt>
<pdfrwt beam="2">  1       21 0.13743393E+00 0.65748888E+02</pdfrwt>
<totfact> 0.45792554E+03</totfact>
</mgrwt>
</event>
<event>
 5    1  0.1721815E-001  0.8810361E+02  0.7546771E-02  0.1307510E+00
         21   -1    0    0  503  502  0.00000000000E+00  0.00000000000E+00  0.28245516989E+03  0.28245516989E+03  0.00000000000E+00 0. -1.
         21   -1    0    0  501  503 -0.00000000000E+00 -0.00000000000E+00 -0.53839246108E+02  0.53839246108E+02  0.00000000000E+00 0.  1.
         24    1    1    2    0    0  0.11992560584E+02 -0.59852818239E+02  0.58531204165E+01  0.10113187595E+03  0.80419002446E+02 0.  1.
          1    1    1    2  501    0  0.11193294494E+02  0.47839584578E+02  0.13934568607E+03  0.14775363252E+03  0.00000000000E+00 0. -1.
         -2    1    1    2    0  502 -0.23185855077E+02  0.12013233661E+02  0.83417117291E+02  0.87408907531E+02  0.00000000000E+00 0.  1.
<mgrwt>
<rscale>  2 0.88103609E+02</rscale>
<asrwt>0</asrwt>
<pdfrwt beam="1">  1       21 0.43454641E-01 0.88103609E+02</pdfrwt>
<pdfrwt beam="2">  1       21 0.82829611E-02 0.88103609E+02</pdfrwt>
<totfact> 0.57954742E+05</totfact>
</mgrwt>
</event>
<event>
 5    1  0.1721815E-001  0.8340287E+02  0.7546771E-02  0.1319663E+00
         21   -1    0    0  501  502  0.00000000000E+00  0.00000000000E+00  0.14832317490E+04  0.14832317490E+04  0.00000000000E+00 0.  1.
         21   -1    0    0  502  503 -0.00000000000E+00 -0.00000000000E+00 -0.49501564500E+01  0.49501564500E+01  0.00000000000E+00 0.  1.
         24    1    1    2    0    0 -0.54034290967E+02  0.25164942209E+02  0.89983575090E+03  0.90538642218E+03  0.80419002446E+02 0.  1.
          1    1    1    2  501    0  0.28142286805E+02  0.31716623016E+01  0.35032377572E+03  0.35146663509E+03  0.00000000000E+00 0. -1.
         -2    1    1    2    0  503  0.25892004162E+02 -0.28336604511E+02  0.22812206592E+03  0.23132884816E+03  0.00000000000E+00 0.  1.
<mgrwt>
<rscale>  2 0.83402865E+02</rscale>
<asrwt>0</asrwt>
<pdfrwt beam="1">  1       21 0.22818915E+00 0.83402865E+02</pdfrwt>
<pdfrwt beam="2">  1       21 0.76156371E-03 0.83402865E+02</pdfrwt>
<totfact> 0.54814331E+05</totfact>
</mgrwt>
</event>
<event>
 5    1  0.1721815E-001  0.8937819E+02  0.7546771E-02  0.1304365E+00
         21   -1    0    0  501  502  0.00000000000E+00  0.00000000000E+00  0.90991624212E+02  0.90991624212E+02  0.00000000000E+00 0. -1.
         21   -1    0    0  502  503 -0.00000000000E+00 -0.00000000000E+00 -0.26374094180E+03  0.26374094180E+03  0.00000000000E+00 0.  1.
         24    1    1    2    0    0 -0.56768776932E+02 -0.25647673339E+02 -0.20845541405E+03  0.23195122932E+03  0.80419002446E+02 0.  0.
          1    1    1    2  501    0  0.45295504858E+01  0.24360046972E+02  0.60178332026E+02  0.65079646292E+02  0.00000000000E+00 0. -1.
         -2    1    1    2    0  503  0.52239226446E+02  0.12876263671E+01 -0.24472235561E+02  0.57701690397E+02  0.00000000000E+00 0.  1.
<mgrwt>
<rscale>  2 0.89378194E+02</rscale>
<asrwt>0</asrwt>
<pdfrwt beam="1">  1       21 0.13998711E-01 0.89378194E+02</pdfrwt>
<pdfrwt beam="2">  1       21 0.40575530E-01 0.89378194E+02</pdfrwt>
<totfact> 0.26637167E+05</totfact>
</mgrwt>
</event>
<event>
 5    1  0.2077421E-001  0.4217370E+03  0.7546771E-02  0.1036502E+00
         21   -1    0    0  503  502  0.00000000000E+00  0.00000000000E+00  0.82670865439E+03  0.82670865439E+03  0.00000000000E+00 0.  1.
         21   -1    0    0  501  503 -0.00000000000E+00 -0.00000000000E+00 -0.30868346461E+03  0.30868346461E+03  0.00000000000E+00 0. -1.
         24    1    1    2    0    0 -0.11376781161E+03 -0.54811887024E+02  0.63622388820E+02  0.16267293024E+03  0.80419002446E+02 0. -1.
          1    1    1    2  501    0 -0.14665077456E+03  0.30135792573E+03 -0.65150661230E+02  0.34142006054E+03  0.00000000000E+00 0. -1.
         -2    1    1    2    0  502  0.26041858617E+03 -0.24654603870E+03  0.51955346219E+03  0.63129912823E+03  0.00000000000E+00 0.  1.
<mgrwt>
<rscale>  2 0.42173696E+03</rscale>
<asrwt>0</asrwt>
<pdfrwt beam="1">  1       21 0.12718595E+00 0.42173696E+03</pdfrwt>
<pdfrwt beam="2">  1       21 0.47489764E-01 0.42173696E+03</pdfrwt>
<totfact> 0.16781745E+03</totfact>
</mgrwt>
</event>
<event>
 5    1  0.1721815E-001  0.8541873E+02  0.7546771E-02  0.1314341E+00
         21   -1    0    0  501  502  0.00000000000E+00  0.00000000000E+00  0.20940775547E+02  0.20940775547E+02  0.00000000000E+00 0.  1.
         21   -1    0    0  502  503 -0.00000000000E+00 -0.00000000000E+00 -0.53762579430E+03  0.53762579430E+03  0.00000000000E+00 0.  1.
         24    1    1    2    0    0  0.11552477229E+02 -0.41991919530E+02 -0.43482070371E+03  0.44433438013E+03  0.80419002446E+02 0.  1.
          1    1    1    2  501    0  0.27576614758E+02  0.22895061769E+02 -0.32170818721E+02  0.48162382749E+02  0.00000000000E+00 0. -1.
         -2    1    1    2    0  503 -0.39129091987E+02  0.19096857761E+02 -0.49693496322E+02  0.66069806968E+02  0.00000000000E+00 0.  1.
<mgrwt>
<rscale>  2 0.85418731E+02</rscale>
<asrwt>0</asrwt>
<pdfrwt beam="1">  1       21 0.32216582E-02 0.85418731E+02</pdfrwt>
<pdfrwt beam="2">  1       21 0.82711650E-01 0.85418731E+02</pdfrwt>
<totfact> 0.72258957E+05</totfact>
</mgrwt>
</event>
<event>
 5    1  0.1721815E-001  0.1044307E+03  0.7546771E-02  0.1271245E+00
         21   -1    0    0  501  502  0.00000000000E+00  0.00000000000E+00  0.70427357616E+02  0.70427357616E+02  0.00000000000E+00 0.  1.
         21   -1    0    0  502  503 -0.00000000000E+00 -0.00000000000E+00 -0.37752338050E+03  0.37752338050E+03  0.00000000000E+00 0.  1.
         24    1    1    2    0    0 -0.24331230203E+02  0.42827794996E+02 -0.31871068789E+03  0.33237019619E+03  0.80419002446E+02 0.  1.
          1    1    1    2  501    0  0.41336791247E+02  0.22491555671E+02  0.97449875227E+01  0.48057935546E+02  0.00000000000E+00 0. -1.
         -2    1    1    2    0  503 -0.17005561044E+02 -0.65319350668E+02  0.18696774829E+01  0.67522606377E+02  0.00000000000E+00 0.  1.
<mgrwt>
<rscale>  2 0.10443066E+03</rscale>
<asrwt>0</asrwt>
<pdfrwt beam="1">  1       21 0.10834978E-01 0.10443066E+03</pdfrwt>
<pdfrwt beam="2">  1       21 0.58080518E-01 0.10443066E+03</pdfrwt>
<totfact> 0.20056822E+05</totfact>
</mgrwt>
</event>
<event>
 5    1  0.1721815E-001  0.6798424E+02  0.7546771E-02  0.1367085E+00
         21   -1    0    0  503  502  0.00000000000E+00  0.00000000000E+00  0.81498068324E+02  0.81498068324E+02  0.00000000000E+00 0.  1.
         21   -1    0    0  501  503 -0.00000000000E+00 -0.00000000000E+00 -0.10582160219E+03  0.10582160219E+03  0.00000000000E+00 0. -1.
         24    1    1    2    0    0  0.79542703051E+01  0.26505790085E+02 -0.75852957981E+02  0.11395926690E+03  0.80419002446E+02 0. -1.
          1    1    1    2  501    0 -0.25698264601E+02 -0.14648828860E+02  0.21714514098E+02  0.36694810437E+02  0.00000000000E+00 0. -1.
         -2    1    1    2    0  502  0.17743994296E+02 -0.11856961224E+02  0.29814910021E+02  0.36665593171E+02  0.00000000000E+00 0.  1.
<mgrwt>
<rscale>  2 0.67984240E+02</rscale>
<asrwt>0</asrwt>
<pdfrwt beam="1">  1       21 0.12538164E-01 0.67984240E+02</pdfrwt>
<pdfrwt beam="2">  1       21 0.16280246E-01 0.67984240E+02</pdfrwt>
<totfact> 0.17819703E+06</totfact>
</mgrwt>
</event>
<event>
 5    1  0.1721815E-001  0.1474963E+03  0.7546771E-02  0.1203584E+00
         21   -1    0    0  503  502  0.00000000000E+00  0.00000000000E+00  0.71525867382E+03  0.71525867382E+03  0.00000000000E+00 0. -1.
         21   -1    0    0  501  503 -0.00000000000E+00 -0.00000000000E+00 -0.38846525164E+02  0.38846525164E+02  0.00000000000E+00 0. -1.
         24    1    1    2    0    0  0.79006460186E+02  0.35661885459E+02  0.11347567958E+03  0.16388330188E+03  0.80419002446E+02 0. -1.
          1    1    1    2  501    0 -0.12583118133E+03 -0.31678508137E+02  0.39033718126E+03  0.41133943301E+03  0.00000000000E+00 0. -1.
         -2    1    1    2    0  502  0.46824721145E+02 -0.39833773219E+01  0.17259928782E+03  0.17888246409E+03  0.00000000000E+00 0.  1.
<mgrwt>
<rscale>  2 0.14749634E+03</rscale>
<asrwt>0</asrwt>
<pdfrwt beam="1">  1       21 0.11003979E+00 0.14749634E+03</pdfrwt>
<pdfrwt beam="2">  1       21 0.59763890E-02 0.14749634E+03</pdfrwt>
<totfact> 0.13186253E+05</totfact>
</mgrwt>
</event>
<event>
 5    1  0.1721815E-001  0.7050196E+02  0.7546771E-02  0.1358394E+00
         21   -1    0    0  501  502  0.00000000000E+00  0.00000000000E+00  0.16807185126E+04  0.16807185126E+04  0.00000000000E+00 0. -1.
         21   -1    0    0  502  503 -0.00000000000E+00 -0.00000000000E+00 -0.51354155929E+01  0.51354155929E+01  0.00000000000E+00 0.  1.
         24    1    1    2    0    0  0.38707359455E+02 -0.10960501574E+01  0.42901207209E+03  0.43819862500E+03  0.80419002446E+02 0.  1.
          1    1    1    2  501    0 -0.22448132132E+02 -0.16447139882E+02  0.60820177324E+03  0.60883809343E+03  0.00000000000E+00 0. -1.
         -2    1    1    2    0  503 -0.16259227323E+02  0.17543190039E+02  0.63836925170E+03  0.63881720978E+03  0.00000000000E+00 0.  1.
<mgrwt>
<rscale>  2 0.70501964E+02</rscale>
<asrwt>0</asrwt>
<pdfrwt beam="1">  1       21 0.25857164E+00 0.70501964E+02</pdfrwt>
<pdfrwt beam="2">  1       21 0.79006528E-03 0.70501964E+02</pdfrwt>
<totfact> 0.35438878E+05</totfact>
</mgrwt>
</event>
<event>
 5    1  0.1721815E-001  0.1150382E+03  0.7546771E-02  0.1251514E+00
         21   -1    0    0  503  502  0.00000000000E+00  0.00000000000E+00  0.41453514862E+02  0.41453514862E+02  0.00000000000E+00 0. -1.
         21   -1    0    0  501  503 -0.00000000000E+00 -0.00000000000E+00 -0.42029951365E+03  0.42029951365E+03  0.00000000000E+00 0.  1.
         24    1    1    2    0    0 -0.53268875589E+02 -0.53831164126E+02 -0.24620634603E+03  0.26985208562E+03  0.80419002446E+02 0.  1.
          1    1    1    2  501    0  0.64232058556E+02  0.73180863714E+02 -0.13812368784E+03  0.16899511621E+03  0.00000000000E+00 0. -1.
         -2    1    1    2    0  502 -0.10963182967E+02 -0.19349699588E+02  0.54840350817E+01  0.22905826675E+02  0.00000000000E+00 0.  1.
<mgrwt>
<rscale>  2 0.11503820E+03</rscale>
<asrwt>0</asrwt>
<pdfrwt beam="1">  1       21 0.63774641E-02 0.11503820E+03</pdfrwt>
<pdfrwt beam="2">  1       21 0.64661461E-01 0.11503820E+03</pdfrwt>
<totfact> 0.39689625E+05</totfact>
</mgrwt>
</event>
<event>
 5    1  0.1721815E-001  0.1958235E+03  0.7546771E-02  0.1153311E+00
         21   -1    0    0  501  502  0.00000000000E+00  0.00000000000E+00  0.67081724019E+02  0.67081724019E+02  0.00000000000E+00 0. -1.
         21   -1    0    0  502  503 -0.00000000000E+00 -0.00000000000E+00 -0.93612006796E+03  0.93612006796E+03  0.00000000000E+00 0. -1.
         24    1    1    2    0    0 -0.68724956977E+02  0.13365538137E+03 -0.71091180527E+03  0.73106066199E+03  0.80419002446E+02 0. -1.
          1    1    1    2  501    0  0.97302229504E+02 -0.15672098822E+03 -0.13694806811E+03  0.22974761233E+03  0.00000000000E+00 0. -1.
         -2    1    1    2    0  503 -0.28577272527E+02  0.23065606844E+02 -0.21178470566E+02  0.42393517661E+02  0.00000000000E+00 0.  1.
<mgrwt>
<rscale>  2 0.19582353E+03</rscale>
<asrwt>0</asrwt>
<pdfrwt beam="1">  1       21 0.10320266E-01 0.19582353E+03</pdfrwt>
<pdfrwt beam="2">  1       21 0.14401846E+00 0.19582353E+03</pdfrwt>
<totfact> 0.25466555E+04</totfact>
</mgrwt>
</event>
<event>
 5    1  0.1721815E-001  0.1505271E+03  0.7546771E-02  0.1199827E+00
         21   -1    0    0  501  502  0.00000000000E+00  0.00000000000E+00  0.76518528483E+02  0.76518528483E+02  0.00000000000E+00 0. -1.
         21   -1    0    0  502  503 -0.00000000000E+00 -0.00000000000E+00 -0.31289473610E+03  0.31289473610E+03  0.00000000000E+00 0.  1.
         24    1    1    2    0    0 -0.76865895724E+01 -0.48694501245E+02 -0.11587185151E+03  0.14941131161E+03  0.80419002446E+02 0.  1.
          1    1    1    2  501    0  0.47552395874E+02  0.11775105503E+03 -0.84343973104E+02  0.15244817845E+03  0.00000000000E+00 0. -1.
         -2    1    1    2    0  503 -0.39865806302E+02 -0.69056553790E+02 -0.36160383006E+02  0.87553774519E+02  0.00000000000E+00 0.  1.
<mgrwt>
<rscale>  2 0.15052713E+03</rscale>
<asrwt>0</asrwt>
<pdfrwt beam="1">  1       21 0.11772082E-01 0.15052713E+03</pdfrwt>
<pdfrwt beam="2">  1       21 0.48137650E-01 0.15052713E+03</pdfrwt>
<totfact> 0.25309412E+05</totfact>
</mgrwt>
</event>
<event>
 5    1  0.1721815E-001  0.1103784E+03  0.7546771E-02  0.1259871E+00
         21   -1    0    0  503  502  0.00000000000E+00  0.00000000000E+00  0.31629953893E+03  0.31629953893E+03  0.00000000000E+00 0.  1.
         21   -1    0    0  501  503 -0.00000000000E+00 -0.00000000000E+00 -0.41471472517E+02  0.41471472517E+02  0.00000000000E+00 0. -1.
         24    1    1    2    0    0  0.11536376356E+02 -0.29751251769E+02  0.10383890124E+03  0.13515901127E+03  0.80419002446E+02 0.  0.
          1    1    1    2  501    0 -0.29296949990E+02  0.77735309650E+02  0.67027383623E+02  0.10674155611E+03  0.00000000000E+00 0. -1.
         -2    1    1    2    0  502  0.17760573634E+02 -0.47984057881E+02  0.10396178155E+03  0.11587044407E+03  0.00000000000E+00 0.  1.
<mgrwt>
<rscale>  2 0.11037837E+03</rscale>
<asrwt>0</asrwt>
<pdfrwt beam="1">  1       21 0.48661466E-01 0.11037837E+03</pdfrwt>
<pdfrwt beam="2">  1       21 0.63802267E-02 0.11037837E+03</pdfrwt>
<totfact> 0.71929563E+05</totfact>
</mgrwt>
</event>
<event>
 5    1  0.1721815E-001  0.8958123E+02  0.7546771E-02  0.1303869E+00
         21   -1    0    0  501  502  0.00000000000E+00  0.00000000000E+00  0.70972161995E+02  0.70972161995E+02  0.00000000000E+00 0.  1.
         21   -1    0    0  502  503 -0.00000000000E+00 -0.00000000000E+00 -0.22253469212E+03  0.22253469212E+03  0.00000000000E+00 0. -1.
         24    1    1    2    0    0  0.19600707306E+02  0.19076086300E+02 -0.17628455473E+03  0.19568225517E+03  0.80419002446E+02 0. -1.
          1    1    1    2  501    0  0.22014247749E+02  0.25196508964E+02  0.13269091158E+02  0.35993887649E+02  0.00000000000E+00 0. -1.
         -2    1    1    2    0  503 -0.41614955055E+02 -0.44272595264E+02  0.11452933447E+02  0.61830711302E+02  0.00000000000E+00 0.  1.
<mgrwt>
<rscale>  2 0.89581231E+02</rscale>
<asrwt>0</asrwt>
<pdfrwt beam="1">  1       21 0.10918794E-01 0.89581231E+02</pdfrwt>
<pdfrwt beam="2">  1       21 0.34236106E-01 0.89581231E+02</pdfrwt>
<totfact> 0.57522238E+05</totfact>
</mgrwt>
</event>
<event>
 5    1  0.1721815E-001  0.1191651E+03  0.7546771E-02  0.1244481E+00
         21   -1    0    0  503  502  0.00000000000E+00  0.00000000000E+00  0.52939988926E+02  0.52939988926E+02  0.00000000000E+00 0. -1.
         21   -1    0    0  501  503 -0.00000000000E+00 -0.00000000000E+00 -0.29623873843E+03  0.29623873843E+03  0.00000000000E+00 0.  1.
         24    1    1    2    0    0 -0.16463165285E+02 -0.13807426771E+02 -0.13980221416E+03  0.16270696323E+03  0.80419002446E+02 0.  1.
          1    1    1    2  501    0 -0.67237940208E+02  0.22585844855E+02 -0.48945577409E+02  0.86178480719E+02  0.00000000000E+00 0. -1.
         -2    1    1    2    0  502  0.83701105493E+02 -0.87784180835E+01 -0.54550957934E+02  0.10029328341E+03  0.00000000000E+00 0.  1.
<mgrwt>
<rscale>  2 0.11916507E+03</rscale>
<asrwt>0</asrwt>
<pdfrwt beam="1">  1       21 0.81446136E-02 0.11916507E+03</pdfrwt>
<pdfrwt beam="2">  1       21 0.45575191E-01 0.11916507E+03</pdfrwt>
<totfact> 0.54152730E+05</totfact>
</mgrwt>
</event>
<event>
 5    1  0.1721815E-001  0.1092110E+03  0.7546771E-02  0.1262038E+00
         21   -1    0    0  501  502  0.00000000000E+00  0.00000000000E+00  0.10601615845E+03  0.10601615845E+03  0.00000000000E+00 0.  1.
         21   -1    0    0  502  503 -0.00000000000E+00 -0.00000000000E+00 -0.19715501015E+03  0.19715501015E+03  0.00000000000E+00 0. -1.
         24    1    1    2    0    0  0.21467136882E+02  0.87197023135E+02 -0.14719952899E+03  0.19026054793E+03  0.80419002446E+02 0. -1.
          1    1    1    2  501    0 -0.23470897559E+02 -0.20541936969E+02  0.20648333899E+02  0.37405987482E+02  0.00000000000E+00 0. -1.
         -2    1    1    2    0  503  0.20037606774E+01 -0.66655086165E+02  0.35412343395E+02  0.75504633191E+02  0.00000000000E+00 0.  1.
<mgrwt>
<rscale>  2 0.10921098E+03</rscale>
<asrwt>0</asrwt>
<pdfrwt beam="1">  1       21 0.16310178E-01 0.10921098E+03</pdfrwt>
<pdfrwt beam="2">  1       21 0.30331540E-01 0.10921098E+03</pdfrwt>
<totfact> 0.35620380E+05</totfact>
</mgrwt>
</event>
<event>
 5    1  0.1721815E-001  0.1095647E+03  0.7546771E-02  0.1261378E+00
         21   -1    0    0  501  502  0.00000000000E+00  0.00000000000E+00  0.51485411246E+02  0.51485411246E+02  0.00000000000E+00 0. -1.
         21   -1    0    0  502  503 -0.00000000000E+00 -0.00000000000E+00 -0.77287564587E+03  0.77287564587E+03  0.00000000000E+00 0. -1.
         24    1    1    2    0    0  0.50771323365E+02  0.48746526150E+02 -0.65184938069E+03  0.66055187696E+03  0.80419002446E+02 0. -1.
          1    1    1    2  501    0 -0.62920534538E+00 -0.60707409503E+02  0.17029119917E+02  0.63053757961E+02  0.00000000000E+00 0. -1.
         -2    1    1    2    0  503 -0.50142118019E+02  0.11960883352E+02 -0.86569973844E+02  0.10075542219E+03  0.00000000000E+00 0.  1.
<mgrwt>
<rscale>  2 0.10956474E+03</rscale>
<asrwt>0</asrwt>
<pdfrwt beam="1">  1       21 0.79208329E-02 0.10956474E+03</pdfrwt>
<pdfrwt beam="2">  1       21 0.11890394E+00 0.10956474E+03</pdfrwt>
<totfact> 0.68919250E+04</totfact>
</mgrwt>
</event>
<event>
 5    1  0.1721815E-001  0.9379350E+02  0.7546771E-02  0.1293917E+00
         21   -1    0    0  503  502  0.00000000000E+00  0.00000000000E+00  0.17738079354E+03  0.17738079354E+03  0.00000000000E+00 0. -1.
         21   -1    0    0  501  503 -0.00000000000E+00 -0.00000000000E+00 -0.54546128428E+02  0.54546128428E+02  0.00000000000E+00 0. -1.
         24    1    1    2    0    0  0.47747656156E+02 -0.12384421680E+01  0.95070153598E+02  0.13336762151E+03  0.80419002446E+02 0. -1.
          1    1    1    2  501    0 -0.66466388594E+02 -0.16263046870E+02  0.15552745346E+02  0.70172326411E+02  0.00000000000E+00 0. -1.
         -2    1    1    2    0  502  0.18718732437E+02  0.17501489038E+02  0.12211766167E+02  0.28386974046E+02  0.00000000000E+00 0.  1.
<mgrwt>
<rscale>  2 0.93793504E+02</rscale>
<asrwt>0</asrwt>
<pdfrwt beam="1">  1       21 0.27289353E-01 0.93793504E+02</pdfrwt>
<pdfrwt beam="2">  1       21 0.83917121E-02 0.93793504E+02</pdfrwt>
<totfact> 0.14006899E+06</totfact>
</mgrwt>
</event>
<event>
 5    1  0.1721815E-001  0.7630898E+02  0.7546771E-02  0.1339865E+00
         21   -1    0    0  501  502  0.00000000000E+00  0.00000000000E+00  0.96781842931E+02  0.96781842931E+02  0.00000000000E+00 0. -1.
         21   -1    0    0  502  503 -0.00000000000E+00 -0.00000000000E+00 -0.10660633628E+04  0.10660633628E+04  0.00000000000E+00 0. -1.
         24    1    1    2    0    0  0.42972845853E+02  0.16138233748E+02 -0.10034035480E+04  0.10076671098E+04  0.80419002446E+02 0. -1.
          1    1    1    2  501    0 -0.18006453228E+02  0.12581008368E+02  0.87168585971E+02  0.89893695606E+02  0.00000000000E+00 0. -1.
         -2    1    1    2    0  503 -0.24966392624E+02 -0.28719242116E+02 -0.53046557862E+02  0.65284400352E+02  0.00000000000E+00 0.  1.
<mgrwt>
<rscale>  2 0.76308982E+02</rscale>
<asrwt>0</asrwt>
<pdfrwt beam="1">  1       21 0.14889515E-01 0.76308982E+02</pdfrwt>
<pdfrwt beam="2">  1       21 0.16400974E+00 0.76308982E+02</pdfrwt>
<totfact> 0.10614448E+04</totfact>
</mgrwt>
</event>
<event>
 5    1  0.1721815E-001  0.1268877E+03  0.7546771E-02  0.1232148E+00
         21   -1    0    0  501  502  0.00000000000E+00  0.00000000000E+00  0.15814076420E+02  0.15814076420E+02  0.00000000000E+00 0.  1.
         21   -1    0    0  502  503 -0.00000000000E+00 -0.00000000000E+00 -0.13688823544E+04  0.13688823544E+04  0.00000000000E+00 0. -1.
         24    1    1    2    0    0 -0.36415397986E+01  0.33964363544E+02 -0.81213478714E+03  0.81682125782E+03  0.80419002446E+02 0. -1.
          1    1    1    2  501    0 -0.59380106076E+02 -0.71583648772E+02 -0.22374439760E+03  0.24230512010E+03  0.00000000000E+00 0. -1.
         -2    1    1    2    0  503  0.63021645874E+02  0.37619285229E+02 -0.31718909327E+03  0.32557005292E+03  0.00000000000E+00 0.  1.
<mgrwt>
<rscale>  2 0.12688769E+03</rscale>
<asrwt>0</asrwt>
<pdfrwt beam="1">  1       21 0.24329348E-02 0.12688769E+03</pdfrwt>
<pdfrwt beam="2">  1       21 0.21059729E+00 0.12688769E+03</pdfrwt>
<totfact> 0.10723354E+05</totfact>
</mgrwt>
</event>
<event>
 5    1  0.1721815E-001  0.1225376E+03  0.7546771E-02  0.1238969E+00
         21   -1    0    0  501  502  0.00000000000E+00  0.00000000000E+00  0.30838261477E+03  0.30838261477E+03  0.00000000000E+00 0.  1.
         21   -1    0    0  502  503 -0.00000000000E+00 -0.00000000000E+00 -0.52188155843E+02  0.52188155843E+02  0.00000000000E+00 0. -1.
         24    1    1    2    0    0 -0.22934378320E+02  0.51459900412E+02  0.13638022418E+03  0.16805025606E+03  0.80419002446E+02 0.  0.
          1    1    1    2  501    0 -0.56908115355E+02 -0.29385328994E+02  0.73964149970E+02  0.97840311907E+02  0.00000000000E+00 0. -1.
         -2    1    1    2    0  503  0.79842493675E+02 -0.22074571419E+02  0.45850084777E+02  0.94680202649E+02  0.00000000000E+00 0.  1.
<mgrwt>
<rscale>  2 0.12253760E+03</rscale>
<asrwt>0</asrwt>
<pdfrwt beam="1">  1       21 0.47443478E-01 0.12253760E+03</pdfrwt>
<pdfrwt beam="2">  1       21 0.80289472E-02 0.12253760E+03</pdfrwt>
<totfact> 0.51128522E+05</totfact>
</mgrwt>
</event>
<event>
 5    1  0.1721815E-001  0.9358903E+02  0.7546771E-02  0.1294386E+00
         21   -1    0    0  501  502  0.00000000000E+00  0.00000000000E+00  0.70175293286E+02  0.70175293286E+02  0.00000000000E+00 0.  1.
         21   -1    0    0  502  503 -0.00000000000E+00 -0.00000000000E+00 -0.12540191015E+03  0.12540191015E+03  0.00000000000E+00 0.  1.
         24    1    1    2    0    0  0.41284351754E+02  0.56961066088E+01 -0.32850019356E+02  0.96349276366E+02  0.80419002446E+02 0.  1.
          1    1    1    2  501    0  0.26541883368E+02  0.73313562469E+01 -0.46786750268E+01  0.27930455728E+02  0.00000000000E+00 0. -1.
         -2    1    1    2    0  503 -0.67826235122E+02 -0.13027462856E+02 -0.17697922479E+02  0.71297471339E+02  0.00000000000E+00 0.  1.
<mgrwt>
<rscale>  2 0.93589034E+02</rscale>
<asrwt>0</asrwt>
<pdfrwt beam="1">  1       21 0.10796199E-01 0.93589034E+02</pdfrwt>
<pdfrwt beam="2">  1       21 0.19292602E-01 0.93589034E+02</pdfrwt>
<totfact> 0.17253600E+06</totfact>
</mgrwt>
</event>
<event>
 5    1  0.1721815E-001  0.1355580E+03  0.7546771E-02  0.1219434E+00
         21   -1    0    0  503  502  0.00000000000E+00  0.00000000000E+00  0.12069586659E+03  0.12069586659E+03  0.00000000000E+00 0. -1.
         21   -1    0    0  501  503 -0.00000000000E+00 -0.00000000000E+00 -0.16836433070E+03  0.16836433070E+03  0.00000000000E+00 0.  1.
         24    1    1    2    0    0 -0.35577390616E+02  0.85179539613E+02 -0.60612958028E+02  0.13661058278E+03  0.80419002446E+02 0.  1.
          1    1    1    2  501    0  0.46130210461E+02  0.14574436904E+02 -0.10343585500E+02  0.49471206669E+02  0.00000000000E+00 0. -1.
         -2    1    1    2    0  502 -0.10552819845E+02 -0.99753976517E+02  0.23288079418E+02  0.10297840784E+03  0.00000000000E+00 0.  1.
<mgrwt>
<rscale>  2 0.13555801E+03</rscale>
<asrwt>0</asrwt>
<pdfrwt beam="1">  1       21 0.18568595E-01 0.13555801E+03</pdfrwt>
<pdfrwt beam="2">  1       21 0.25902205E-01 0.13555801E+03</pdfrwt>
<totfact> 0.37888807E+05</totfact>
</mgrwt>
</event>
<event>
 5    1  0.1721815E-001  0.1024471E+03  0.7546771E-02  0.1275233E+00
         21   -1    0    0  501  502  0.00000000000E+00  0.00000000000E+00  0.17717475971E+02  0.17717475971E+02  0.00000000000E+00 0.  1.
         21   -1    0    0  502  503 -0.00000000000E+00 -0.00000000000E+00 -0.77120584377E+03  0.77120584377E+03  0.00000000000E+00 0.  1.
         24    1    1    2    0    0  0.81574234421E+02 -0.13840612603E+02 -0.54383870079E+03  0.55594394206E+03  0.80419002446E+02 0.  1.
          1    1    1    2  501    0 -0.20237429174E+02  0.19257985018E+02 -0.22223176212E+02  0.35697242015E+02  0.00000000000E+00 0. -1.
         -2    1    1    2    0  503 -0.61336805246E+02 -0.54173724152E+01 -0.18742649080E+03  0.19728213567E+03  0.00000000000E+00 0.  1.
<mgrwt>
<rscale>  2 0.10244710E+03</rscale>
<asrwt>0</asrwt>
<pdfrwt beam="1">  1       21 0.27257658E-02 0.10244710E+03</pdfrwt>
<pdfrwt beam="2">  1       21 0.11864704E+00 0.10244710E+03</pdfrwt>
<totfact> 0.41128952E+05</totfact>
</mgrwt>
</event>
<event>
 5    1  0.1721815E-001  0.1813774E+03  0.7546771E-02  0.1166477E+00
         21   -1    0    0  503  502  0.00000000000E+00  0.00000000000E+00  0.69063153005E+03  0.69063153005E+03  0.00000000000E+00 0.  1.
         21   -1    0    0  501  503 -0.00000000000E+00 -0.00000000000E+00 -0.53351189639E+02  0.53351189639E+02  0.00000000000E+00 0. -1.
         24    1    1    2    0    0  0.74905172545E+02 -0.76696737571E+01  0.18141890153E+03  0.21224901073E+03  0.80419002446E+02 0.  1.
          1    1    1    2  501    0  0.60411444130E+02  0.79134996773E+02  0.86351976437E+02  0.13178981042E+03  0.00000000000E+00 0. -1.
         -2    1    1    2    0  502 -0.13531661668E+03 -0.71465323016E+02  0.36950946244E+03  0.39994389854E+03  0.00000000000E+00 0.  1.
<mgrwt>
<rscale>  2 0.18137737E+03</rscale>
<asrwt>0</asrwt>
<pdfrwt beam="1">  1       21 0.10625100E+00 0.18137737E+03</pdfrwt>
<pdfrwt beam="2">  1       21 0.82078758E-02 0.18137737E+03</pdfrwt>
<totfact> 0.81897002E+04</totfact>
</mgrwt>
</event>
<event>
 5    1  0.1721815E-001  0.1137978E+03  0.7546771E-02  0.1253694E+00
         21   -1    0    0  503  502  0.00000000000E+00  0.00000000000E+00  0.11551347199E+03  0.11551347199E+03  0.00000000000E+00 0.  1.
         21   -1    0    0  501  503 -0.00000000000E+00 -0.00000000000E+00 -0.11243430562E+03  0.11243430562E+03  0.00000000000E+00 0. -1.
         24    1    1    2    0    0 -0.87972885310E+02 -0.21477966401E+02  0.27865415366E+00  0.12111079718E+03  0.80419002446E+02 0.  0.
          1    1    1    2  501    0  0.42952212204E+02 -0.18034207578E+02 -0.28424676308E+01  0.46671241663E+02  0.00000000000E+00 0. -1.
         -2    1    1    2    0  502  0.45020673106E+02  0.39512173978E+02  0.56429798502E+01  0.60165738764E+02  0.00000000000E+00 0.  1.
<mgrwt>
<rscale>  2 0.11379780E+03</rscale>
<asrwt>0</asrwt>
<pdfrwt beam="1">  1       21 0.17771303E-01 0.11379780E+03</pdfrwt>
<pdfrwt beam="2">  1       21 0.17297586E-01 0.11379780E+03</pdfrwt>
<totfact> 0.86987954E+05</totfact>
</mgrwt>
</event>
<event>
 5    1  0.1721815E-001  0.1452788E+03  0.7546771E-02  0.1206397E+00
         21   -1    0    0  501  502  0.00000000000E+00  0.00000000000E+00  0.28346890272E+03  0.28346890272E+03  0.00000000000E+00 0. -1.
         21   -1    0    0  502  503 -0.00000000000E+00 -0.00000000000E+00 -0.21856127558E+03  0.21856127558E+03  0.00000000000E+00 0.  1.
         24    1    1    2    0    0 -0.28217175407E+02 -0.37954147722E+02 -0.10295373927E+03  0.13893672913E+03  0.80419002446E+02 0.  1.
          1    1    1    2  501    0  0.35613783523E+02 -0.75547126101E+02  0.22195089948E+03  0.23714533860E+03  0.00000000000E+00 0. -1.
         -2    1    1    2    0  503 -0.73966081158E+01  0.11350127382E+03 -0.54089533059E+02  0.12594811058E+03  0.00000000000E+00 0.  1.
<mgrwt>
<rscale>  2 0.14527883E+03</rscale>
<asrwt>0</asrwt>
<pdfrwt beam="1">  1       21 0.43610600E-01 0.14527883E+03</pdfrwt>
<pdfrwt beam="2">  1       21 0.33624812E-01 0.14527883E+03</pdfrwt>
<totfact> 0.44099594E+04</totfact>
</mgrwt>
</event>
<event>
 5    1  0.1721815E-001  0.1409394E+03  0.7546771E-02  0.1212071E+00
         21   -1    0    0  501  502  0.00000000000E+00  0.00000000000E+00  0.81921778609E+03  0.81921778609E+03  0.00000000000E+00 0.  1.
         21   -1    0    0  502  503 -0.00000000000E+00 -0.00000000000E+00 -0.29853706709E+02  0.29853706709E+02  0.00000000000E+00 0. -1.
         24    1    1    2    0    0  0.10173774615E+02  0.80901970941E+02  0.21824829606E+03  0.24647143704E+03  0.80419002446E+02 0.  0.
          1    1    1    2  501    0 -0.43889628902E+02 -0.11273991107E+03  0.51867107481E+03  0.53259390808E+03  0.00000000000E+00 0. -1.
         -2    1    1    2    0  503  0.33715854287E+02  0.31837940128E+02  0.52444708507E+02  0.70006147675E+02  0.00000000000E+00 0.  1.
<mgrwt>
<rscale>  2 0.14093938E+03</rscale>
<asrwt>0</asrwt>
<pdfrwt beam="1">  1       21 0.12603349E+00 0.14093938E+03</pdfrwt>
<pdfrwt beam="2">  1       21 0.45928786E-02 0.14093938E+03</pdfrwt>
<totfact> 0.14813882E+05</totfact>
</mgrwt>
</event>
<event>
 5    1  0.1721815E-001  0.1332800E+03  0.7546771E-02  0.1222668E+00
         21   -1    0    0  503  502  0.00000000000E+00  0.00000000000E+00  0.20950800392E+02  0.20950800392E+02  0.00000000000E+00 0.  1.
         21   -1    0    0  501  503 -0.00000000000E+00 -0.00000000000E+00 -0.88581118167E+03  0.88581118167E+03  0.00000000000E+00 0.  1.
         24    1    1    2    0    0  0.82299255681E+02  0.48429558931E+01 -0.46626872239E+03  0.48028154154E+03  0.80419002446E+02 0.  1.
          1    1    1    2  501    0  0.12601675116E+02 -0.46187116544E+02 -0.11386617149E+03  0.12352148380E+03  0.00000000000E+00 0. -1.
         -2    1    1    2    0  502 -0.94900930797E+02  0.41344160651E+02 -0.28472548740E+03  0.30295895673E+03  0.00000000000E+00 0.  1.
<mgrwt>
<rscale>  2 0.13327997E+03</rscale>
<asrwt>0</asrwt>
<pdfrwt beam="1">  1       21 0.32232000E-02 0.13327997E+03</pdfrwt>
<pdfrwt beam="2">  1       21 0.13627865E+00 0.13327997E+03</pdfrwt>
<totfact> 0.22009756E+05</totfact>
</mgrwt>
</event>
<event>
 5    1  0.1721815E-001  0.7542416E+02  0.7546771E-02  0.1342563E+00
         21   -1    0    0  501  502  0.00000000000E+00  0.00000000000E+00  0.10385213987E+04  0.10385213987E+04  0.00000000000E+00 0. -1.
         21   -1    0    0  502  503 -0.00000000000E+00 -0.00000000000E+00 -0.56502151606E+01  0.56502151606E+01  0.00000000000E+00 0.  1.
         24    1    1    2    0    0 -0.35796109855E+02 -0.12034195017E+02  0.51585976667E+03  0.52345458080E+03  0.80419002446E+02 0.  0.
          1    1    1    2  501    0  0.62972283434E+01  0.27835638072E+02  0.24213603166E+03  0.24381209088E+03  0.00000000000E+00 0. -1.
         -2    1    1    2    0  503  0.29498881512E+02 -0.15801443055E+02  0.27487538519E+03  0.27690494217E+03  0.00000000000E+00 0.  1.
<mgrwt>
<rscale>  2 0.75424158E+02</rscale>
<asrwt>0</asrwt>
<pdfrwt beam="1">  1       21 0.15977237E+00 0.75424158E+02</pdfrwt>
<pdfrwt beam="2">  1       21 0.86926469E-03 0.75424158E+02</pdfrwt>
<totfact> 0.12028932E+06</totfact>
</mgrwt>
</event>
<event>
 5    1  0.1721815E-001  0.8012334E+02  0.7546771E-02  0.1328702E+00
         21   -1    0    0  501  502  0.00000000000E+00  0.00000000000E+00  0.91116126787E+02  0.91116126787E+02  0.00000000000E+00 0.  1.
         21   -1    0    0  502  503 -0.00000000000E+00 -0.00000000000E+00 -0.88550185569E+02  0.88550185569E+02  0.00000000000E+00 0. -1.
         24    1    1    2    0    0 -0.43491719746E+02  0.27744103408E+02 -0.36601346281E+02  0.10231392605E+03  0.80419002446E+02 0.  0.
          1    1    1    2  501    0  0.50298940023E+01 -0.25699890066E+02  0.25309505661E+02  0.36419160615E+02  0.00000000000E+00 0. -1.
         -2    1    1    2    0  503  0.38461825744E+02 -0.20442133414E+01  0.13857781838E+02  0.40933225688E+02  0.00000000000E+00 0.  1.
<mgrwt>
<rscale>  2 0.80123339E+02</rscale>
<asrwt>0</asrwt>
<pdfrwt beam="1">  1       21 0.14017866E-01 0.80123339E+02</pdfrwt>
<pdfrwt beam="2">  1       21 0.13623105E-01 0.80123339E+02</pdfrwt>
<totfact> 0.20244510E+06</totfact>
</mgrwt>
</event>
<event>
 5    1  0.1721815E-001  0.9259062E+02  0.7546771E-02  0.1296697E+00
         21   -1    0    0  503  502  0.00000000000E+00  0.00000000000E+00  0.34015123508E+02  0.34015123508E+02  0.00000000000E+00 0.  1.
         21   -1    0    0  501  503 -0.00000000000E+00 -0.00000000000E+00 -0.49610529584E+03  0.49610529584E+03  0.00000000000E+00 0. -1.
         24    1    1    2    0    0 -0.29336491813E+01  0.18933112877E+02 -0.15812209493E+03  0.17842892680E+03  0.80419002446E+02 0. -1.
          1    1    1    2  501    0  0.14343374885E+02 -0.59068915146E+02 -0.30394686058E+03  0.30996542258E+03  0.00000000000E+00 0. -1.
         -2    1    1    2    0  502 -0.11409725704E+02  0.40135802269E+02 -0.21216821811E-01  0.41726069963E+02  0.00000000000E+00 0.  1.
<mgrwt>
<rscale>  2 0.92590617E+02</rscale>
<asrwt>0</asrwt>
<pdfrwt beam="1">  1       21 0.52330960E-02 0.92590617E+02</pdfrwt>
<pdfrwt beam="2">  1       21 0.76323891E-01 0.92590617E+02</pdfrwt>
<totfact> 0.38773563E+05</totfact>
</mgrwt>
</event>
<event>
 5    1  0.1721815E-001  0.6985959E+02  0.7546771E-02  0.1360571E+00
         21   -1    0    0  501  502  0.00000000000E+00  0.00000000000E+00  0.31474145957E+03  0.31474145957E+03  0.00000000000E+00 0. -1.
         21   -1    0    0  502  503 -0.00000000000E+00 -0.00000000000E+00 -0.25576406049E+02  0.25576406049E+02  0.00000000000E+00 0.  1.
         24    1    1    2    0    0  0.32460219467E+02  0.61811885598E+01  0.61351995264E+02  0.10641032007E+03  0.80419002446E+02 0.  1.
          1    1    1    2  501    0 -0.24150431158E+02  0.16080411834E+02  0.13686536888E+03  0.13990694110E+03  0.00000000000E+00 0. -1.
         -2    1    1    2    0  503 -0.83097883091E+01 -0.22261600394E+02  0.90947689377E+02  0.94000604449E+02  0.00000000000E+00 0.  1.
<mgrwt>
<rscale>  2 0.69859591E+02</rscale>
<asrwt>0</asrwt>
<pdfrwt beam="1">  1       21 0.48421760E-01 0.69859591E+02</pdfrwt>
<pdfrwt beam="2">  1       21 0.39348319E-02 0.69859591E+02</pdfrwt>
<totfact> 0.16086973E+06</totfact>
</mgrwt>
</event>
<event>
 5    1  0.1721815E-001  0.1168099E+03  0.7546771E-02  0.1248454E+00
         21   -1    0    0  501  502  0.00000000000E+00  0.00000000000E+00  0.36268488054E+03  0.36268488054E+03  0.00000000000E+00 0. -1.
         21   -1    0    0  502  503 -0.00000000000E+00 -0.00000000000E+00 -0.68988889722E+03  0.68988889722E+03  0.00000000000E+00 0.  1.
         24    1    1    2    0    0 -0.21072311781E+02 -0.46173045979E+02 -0.59323959755E+03  0.60081313946E+03  0.80419002446E+02 0.  0.
          1    1    1    2  501    0  0.32392350358E+01  0.90596691570E+02  0.34648414371E+03  0.35814733701E+03  0.00000000000E+00 0. -1.
         -2    1    1    2    0  503  0.17833076745E+02 -0.44423645592E+02 -0.80448562842E+02  0.93613301284E+02  0.00000000000E+00 0.  1.
<mgrwt>
<rscale>  2 0.11680988E+03</rscale>
<asrwt>0</asrwt>
<pdfrwt beam="1">  1       21 0.55797675E-01 0.11680988E+03</pdfrwt>
<pdfrwt beam="2">  1       21 0.10613675E+00 0.11680988E+03</pdfrwt>
<totfact> 0.23380871E+03</totfact>
</mgrwt>
</event>
<event>
 5    1  0.1721815E-001  0.7886050E+02  0.7546771E-02  0.1332317E+00
         21   -1    0    0  501  502  0.00000000000E+00  0.00000000000E+00  0.28794313513E+03  0.28794313513E+03  0.00000000000E+00 0.  1.
         21   -1    0    0  502  503 -0.00000000000E+00 -0.00000000000E+00 -0.24047553386E+02  0.24047553386E+02  0.00000000000E+00 0. -1.
         24    1    1    2    0    0 -0.23035667547E+02 -0.24758109511E+02  0.95222243138E+02  0.12914370875E+03  0.80419002446E+02 0. -1.
          1    1    1    2  501    0  0.43976155430E+01 -0.20798967244E+02  0.55543120762E+02  0.59472466947E+02  0.00000000000E+00 0. -1.
         -2    1    1    2    0  503  0.18638052004E+02  0.45557076755E+02  0.11313021784E+03  0.12337451282E+03  0.00000000000E+00 0.  1.
<mgrwt>
<rscale>  2 0.78860503E+02</rscale>
<asrwt>0</asrwt>
<pdfrwt beam="1">  1       21 0.44298941E-01 0.78860503E+02</pdfrwt>
<pdfrwt beam="2">  1       21 0.36996238E-02 0.78860503E+02</pdfrwt>
<totfact> 0.21377980E+06</totfact>
</mgrwt>
</event>
<event>
 5    1  0.1721815E-001  0.1358732E+03  0.7546771E-02  0.1218992E+00
         21   -1    0    0  501  502  0.00000000000E+00  0.00000000000E+00  0.31100005941E+03  0.31100005941E+03  0.00000000000E+00 0. -1.
         21   -1    0    0  502  503 -0.00000000000E+00 -0.00000000000E+00 -0.20389171553E+03  0.20389171553E+03  0.00000000000E+00 0. -1.
         24    1    1    2    0    0  0.56377165812E+01  0.96327675830E+02 -0.15101190960E+03  0.19642458546E+03  0.80419002446E+02 0. -1.
          1    1    1    2  501    0 -0.31486921623E+02  0.12799394085E+02  0.17655193096E+03  0.17979386821E+03  0.00000000000E+00 0. -1.
         -2    1    1    2    0  503  0.25849205041E+02 -0.10912706992E+03  0.81568322529E+02  0.13867332126E+03  0.00000000000E+00 0.  1.
<mgrwt>
<rscale>  2 0.13587317E+03</rscale>
<asrwt>0</asrwt>
<pdfrwt beam="1">  1       21 0.47846163E-01 0.13587317E+03</pdfrwt>
<pdfrwt beam="2">  1       21 0.31367956E-01 0.13587317E+03</pdfrwt>
<totfact> 0.42010936E+04</totfact>
</mgrwt>
</event>
<event>
 5    1  0.1721815E-001  0.1152945E+03  0.7546771E-02  0.1251068E+00
         21   -1    0    0  503  502  0.00000000000E+00  0.00000000000E+00  0.37321741873E+03  0.37321741873E+03  0.00000000000E+00 0. -1.
         21   -1    0    0  501  503 -0.00000000000E+00 -0.00000000000E+00 -0.36380964809E+02  0.36380964809E+02  0.00000000000E+00 0. -1.
         24    1    1    2    0    0  0.81446836552E+02 -0.32006567733E+02  0.15343476641E+03  0.19408104251E+03  0.80419002446E+02 0. -1.
          1    1    1    2  501    0 -0.69942555878E+02  0.53030606614E+02  0.12853944101E+03  0.15564894556E+03  0.00000000000E+00 0. -1.
         -2    1    1    2    0  502 -0.11504280674E+02 -0.21024038882E+02  0.54862246500E+02  0.59868395467E+02  0.00000000000E+00 0.  1.
<mgrwt>
<rscale>  2 0.11529449E+03</rscale>
<asrwt>0</asrwt>
<pdfrwt beam="1">  1       21 0.57418062E-01 0.11529449E+03</pdfrwt>
<pdfrwt beam="2">  1       21 0.55970718E-02 0.11529449E+03</pdfrwt>
<totfact> 0.63680640E+05</totfact>
</mgrwt>
</event>
<event>
 5    1  0.1721815E-001  0.1030250E+03  0.7546771E-02  0.1274060E+00
         21   -1    0    0  503  502  0.00000000000E+00  0.00000000000E+00  0.10582887592E+02  0.10582887592E+02  0.00000000000E+00 0. -1.
         21   -1    0    0  501  503 -0.00000000000E+00 -0.00000000000E+00 -0.11845548201E+04  0.11845548201E+04  0.00000000000E+00 0. -1.
         24    1    1    2    0    0  0.59990837357E+02 -0.37948300106E+02 -0.59777159769E+03  0.60731958062E+03  0.80419002446E+02 0. -1.
          1    1    1    2  501    0 -0.74504684982E+02  0.23061699655E+02 -0.54350372642E+03  0.54907111626E+03  0.00000000000E+00 0. -1.
         -2    1    1    2    0  502  0.14513847625E+02  0.14886600451E+02 -0.32696608369E+02  0.38747010784E+02  0.00000000000E+00 0.  1.
<mgrwt>
<rscale>  2 0.10302504E+03</rscale>
<asrwt>0</asrwt>
<pdfrwt beam="1">  1       21 0.16281374E-02 0.10302504E+03</pdfrwt>
<pdfrwt beam="2">  1       21 0.18223910E+00 0.10302504E+03</pdfrwt>
<totfact> 0.31374315E+05</totfact>
</mgrwt>
</event>
<event>
 5    1  0.1721815E-001  0.2522589E+03  0.7546771E-02  0.1111885E+00
         21   -1    0    0  501  502  0.00000000000E+00  0.00000000000E+00  0.17543137752E+03  0.17543137752E+03  0.00000000000E+00 0. -1.
         21   -1    0    0  502  503 -0.00000000000E+00 -0.00000000000E+00 -0.37341310201E+03  0.37341310201E+03  0.00000000000E+00 0.  1.
         24    1    1    2    0    0 -0.11708492395E+03 -0.89971026816E+02 -0.10647381397E+03  0.19901646690E+03  0.80419002446E+02 0.  1.
          1    1    1    2  501    0  0.21961011233E+03  0.78477909397E+02 -0.49326409657E+02  0.23837046459E+03  0.00000000000E+00 0. -1.
         -2    1    1    2    0  503 -0.10252518838E+03  0.11493117419E+02 -0.42181500861E+02  0.11145754804E+03  0.00000000000E+00 0.  1.
<mgrwt>
<rscale>  2 0.25225893E+03</rscale>
<asrwt>0</asrwt>
<pdfrwt beam="1">  1       21 0.26989443E-01 0.25225893E+03</pdfrwt>
<pdfrwt beam="2">  1       21 0.57448170E-01 0.25225893E+03</pdfrwt>
<totfact> 0.36146163E+04</totfact>
</mgrwt>
</event>
<event>
 5    1  0.1721815E-001  0.9244675E+02  0.7546771E-02  0.1297032E+00
         21   -1    0    0  503  502  0.00000000000E+00  0.00000000000E+00  0.43088844399E+03  0.43088844399E+03  0.00000000000E+00 0. -1.
         21   -1    0    0  501  503 -0.00000000000E+00 -0.00000000000E+00 -0.30736259432E+02  0.30736259432E+02  0.00000000000E+00 0.  1.
         24    1    1    2    0    0 -0.46583756661E+02 -0.94114076710E+01  0.14493798531E+03  0.17243217948E+03  0.80419002446E+02 0.  1.
          1    1    1    2  501    0  0.29818138884E+02  0.43937321453E+02  0.30524581601E+02  0.61248344508E+02  0.00000000000E+00 0. -1.
         -2    1    1    2    0  502  0.16765617777E+02 -0.34525913782E+02  0.22468961764E+03  0.22794417943E+03  0.00000000000E+00 0.  1.
<mgrwt>
<rscale>  2 0.92446745E+02</rscale>
<asrwt>0</asrwt>
<pdfrwt beam="1">  1       21 0.66290525E-01 0.92446745E+02</pdfrwt>
<pdfrwt beam="2">  1       21 0.47286556E-02 0.92446745E+02</pdfrwt>
<totfact> 0.62279917E+05</totfact>
</mgrwt>
</event>
<event>
 5    1  0.1721815E-001  0.1360090E+03  0.7546771E-02  0.1218802E+00
         21   -1    0    0  503  502  0.00000000000E+00  0.00000000000E+00  0.99250104719E+03  0.99250104719E+03  0.00000000000E+00 0. -1.
         21   -1    0    0  501  503 -0.00000000000E+00 -0.00000000000E+00 -0.18696018012E+02  0.18696018012E+02  0.00000000000E+00 0.  1.
         24    1    1    2    0    0  0.27029267770E+02  0.25821100276E+02  0.29497293480E+03  0.30801551707E+03  0.80419002446E+02 0.  0.
          1    1    1    2  501    0 -0.87501237025E+02 -0.66972839308E+02  0.39615917747E+03  0.41119815367E+03  0.00000000000E+00 0. -1.
         -2    1    1    2    0  502  0.60471969254E+02  0.41151739032E+02  0.28267291691E+03  0.29198339447E+03  0.00000000000E+00 0.  1.
<mgrwt>
<rscale>  2 0.13600902E+03</rscale>
<asrwt>0</asrwt>
<pdfrwt beam="1">  1       21 0.15269243E+00 0.13600902E+03</pdfrwt>
<pdfrwt beam="2">  1       21 0.28763112E-02 0.13600902E+03</pdfrwt>
<totfact> 0.19795843E+05</totfact>
</mgrwt>
</event>
<event>
 5    1  0.1721815E-001  0.2005590E+03  0.7546771E-02  0.1149268E+00
         21   -1    0    0  501  502  0.00000000000E+00  0.00000000000E+00  0.22917951201E+03  0.22917951201E+03  0.00000000000E+00 0.  1.
         21   -1    0    0  502  503 -0.00000000000E+00 -0.00000000000E+00 -0.22539507784E+03  0.22539507784E+03  0.00000000000E+00 0. -1.
         24    1    1    2    0    0  0.31572306807E+02  0.61742239754E+02 -0.96069616324E+02  0.14319742268E+03  0.80419002446E+02 0. -1.
          1    1    1    2  501    0  0.10404687710E+02 -0.17439725028E+03  0.58443627434E+02  0.18422354904E+03  0.00000000000E+00 0. -1.
         -2    1    1    2    0  503 -0.41976994516E+02  0.11265501053E+03  0.41410423064E+02  0.12715361813E+03  0.00000000000E+00 0.  1.
<mgrwt>
<rscale>  2 0.20055901E+03</rscale>
<asrwt>0</asrwt>
<pdfrwt beam="1">  1       21 0.35258387E-01 0.20055901E+03</pdfrwt>
<pdfrwt beam="2">  1       21 0.34676166E-01 0.20055901E+03</pdfrwt>
<totfact> 0.61938865E+04</totfact>
</mgrwt>
</event>
<event>
 5    1  0.1721815E-001  0.1173982E+03  0.7546771E-02  0.1247452E+00
         21   -1    0    0  501  502  0.00000000000E+00  0.00000000000E+00  0.12138186311E+02  0.12138186311E+02  0.00000000000E+00 0.  1.
         21   -1    0    0  502  503 -0.00000000000E+00 -0.00000000000E+00 -0.13522431799E+04  0.13522431799E+04  0.00000000000E+00 0. -1.
         24    1    1    2    0    0 -0.34145885316E+02  0.75401345920E+01 -0.57798630463E+03  0.58460087189E+03  0.80419002446E+02 0. -1.
          1    1    1    2  501    0 -0.44314118435E+02 -0.42324343359E+02 -0.15580326697E+03  0.16742087424E+03  0.00000000000E+00 0. -1.
         -2    1    1    2    0  503  0.78460003751E+02  0.34784208767E+02 -0.60631542197E+03  0.61235962006E+03  0.00000000000E+00 0.  1.
<mgrwt>
<rscale>  2 0.11739820E+03</rscale>
<asrwt>0</asrwt>
<pdfrwt beam="1">  1       21 0.18674127E-02 0.11739820E+03</pdfrwt>
<pdfrwt beam="2">  1       21 0.20803747E+00 0.11739820E+03</pdfrwt>
<totfact> 0.17160074E+05</totfact>
</mgrwt>
</event>
<event>
 5    1  0.1721815E-001  0.9511731E+02  0.7546771E-02  0.1290912E+00
         21   -1    0    0  503  502  0.00000000000E+00  0.00000000000E+00  0.34055372662E+02  0.34055372662E+02  0.00000000000E+00 0.  1.
         21   -1    0    0  501  503 -0.00000000000E+00 -0.00000000000E+00 -0.66054698648E+03  0.66054698648E+03  0.00000000000E+00 0. -1.
         24    1    1    2    0    0 -0.87486419419E+00  0.28559875953E+02 -0.48398710899E+03  0.49145413776E+03  0.80419002446E+02 0. -1.
          1    1    1    2  501    0 -0.48134231304E+01 -0.66425585378E+02 -0.15000943629E+03  0.16412909069E+03  0.00000000000E+00 0. -1.
         -2    1    1    2    0  502  0.56882873246E+01  0.37865709426E+02  0.75049314656E+01  0.39019130683E+02  0.00000000000E+00 0.  1.
<mgrwt>
<rscale>  2 0.95117313E+02</rscale>
<asrwt>0</asrwt>
<pdfrwt beam="1">  1       21 0.52392886E-02 0.95117313E+02</pdfrwt>
<pdfrwt beam="2">  1       21 0.10162260E+00 0.95117313E+02</pdfrwt>
<totfact> 0.20276754E+05</totfact>
</mgrwt>
</event>
<event>
 5    1  0.1721815E-001  0.8100756E+02  0.7546771E-02  0.1326216E+00
         21   -1    0    0  503  502  0.00000000000E+00  0.00000000000E+00  0.28631042406E+03  0.28631042406E+03  0.00000000000E+00 0. -1.
         21   -1    0    0  501  503 -0.00000000000E+00 -0.00000000000E+00 -0.43700364870E+02  0.43700364870E+02  0.00000000000E+00 0.  1.
         24    1    1    2    0    0 -0.27629509681E+02  0.50507835864E+02  0.23136999884E+02  0.10157247662E+03  0.80419002446E+02 0.  1.
          1    1    1    2  501    0  0.29539582626E+02 -0.28581057329E+02  0.13288384462E+03  0.13909557844E+03  0.00000000000E+00 0. -1.
         -2    1    1    2    0  502 -0.19100729448E+01 -0.21926778535E+02  0.86589214684E+02  0.89342733869E+02  0.00000000000E+00 0.  1.
<mgrwt>
<rscale>  2 0.81007557E+02</rscale>
<asrwt>0</asrwt>
<pdfrwt beam="1">  1       21 0.44047756E-01 0.81007557E+02</pdfrwt>
<pdfrwt beam="2">  1       21 0.67231332E-02 0.81007557E+02</pdfrwt>
<totfact> 0.80322630E+05</totfact>
</mgrwt>
</event>
<event>
 5    1  0.1721815E-001  0.8401957E+02  0.7546771E-02  0.1318017E+00
         21   -1    0    0  501  502  0.00000000000E+00  0.00000000000E+00  0.41842993771E+02  0.41842993771E+02  0.00000000000E+00 0. -1.
         21   -1    0    0  502  503 -0.00000000000E+00 -0.00000000000E+00 -0.17716690464E+03  0.17716690464E+03  0.00000000000E+00 0.  1.
         24    1    1    2    0    0  0.34843945999E+02 -0.17625363732E+02 -0.56959422466E+02  0.10600163103E+03  0.80419002446E+02 0.  0.
          1    1    1    2  501    0  0.10056022127E+02  0.30350420187E+02 -0.17947099794E+02  0.36665651195E+02  0.00000000000E+00 0. -1.
         -2    1    1    2    0  503 -0.44899968126E+02 -0.12725056455E+02 -0.60417388611E+02  0.76342616185E+02  0.00000000000E+00 0.  1.
<mgrwt>
<rscale>  2 0.84019572E+02</rscale>
<asrwt>0</asrwt>
<pdfrwt beam="1">  1       21 0.64373837E-02 0.84019572E+02</pdfrwt>
<pdfrwt beam="2">  1       21 0.27256447E-01 0.84019572E+02</pdfrwt>
<totfact> 0.21939735E+06</totfact>
</mgrwt>
</event>
<event>
 5    1  0.1721815E-001  0.9632023E+02  0.7546771E-02  0.1288230E+00
         21   -1    0    0  503  502  0.00000000000E+00  0.00000000000E+00  0.36750516608E+03  0.36750516608E+03  0.00000000000E+00 0.  1.
         21   -1    0    0  501  503 -0.00000000000E+00 -0.00000000000E+00 -0.83446671530E+02  0.83446671530E+02  0.00000000000E+00 0. -1.
         24    1    1    2    0    0 -0.10686103813E+02 -0.21965415654E+02 -0.42807067522E+02  0.94320375761E+02  0.80419002446E+02 0. -1.
          1    1    1    2  501    0 -0.47796541274E+02  0.11834661801E+02  0.39288709036E+02  0.62993422160E+02  0.00000000000E+00 0. -1.
         -2    1    1    2    0  502  0.58482645087E+02  0.10130753853E+02  0.28757685304E+03  0.29363803969E+03  0.00000000000E+00 0.  1.
<mgrwt>
<rscale>  2 0.96320233E+02</rscale>
<asrwt>0</asrwt>
<pdfrwt beam="1">  1       21 0.56539255E-01 0.96320233E+02</pdfrwt>
<pdfrwt beam="2">  1       21 0.12837950E-01 0.96320233E+02</pdfrwt>
<totfact> 0.15791203E+05</totfact>
</mgrwt>
</event>
<event>
 5    1  0.1721815E-001  0.6406412E+02  0.7546771E-02  0.1381527E+00
         21   -1    0    0  501  502  0.00000000000E+00  0.00000000000E+00  0.44427621853E+02  0.44427621853E+02  0.00000000000E+00 0. -1.
         21   -1    0    0  502  503 -0.00000000000E+00 -0.00000000000E+00 -0.56437437945E+03  0.56437437945E+03  0.00000000000E+00 0.  1.
         24    1    1    2    0    0  0.54756452006E+01  0.93062645908E+01 -0.51973438652E+03  0.52603007304E+03  0.80419002446E+02 0.  1.
          1    1    1    2  501    0  0.20075039594E+02 -0.72891451212E+01  0.33922543668E+02  0.40085880559E+02  0.00000000000E+00 0. -1.
         -2    1    1    2    0  503 -0.25550684795E+02 -0.20171194697E+01 -0.34134914741E+02  0.42686047707E+02  0.00000000000E+00 0.  1.
<mgrwt>
<rscale>  2 0.64064120E+02</rscale>
<asrwt>0</asrwt>
<pdfrwt beam="1">  1       21 0.68350187E-02 0.64064120E+02</pdfrwt>
<pdfrwt beam="2">  1       21 0.86826828E-01 0.64064120E+02</pdfrwt>
<totfact> 0.18799379E+05</totfact>
</mgrwt>
</event>
<event>
 5    1  0.1721815E-001  0.1344937E+03  0.7546771E-02  0.1220936E+00
         21   -1    0    0  501  502  0.00000000000E+00  0.00000000000E+00  0.24114936833E+03  0.24114936833E+03  0.00000000000E+00 0. -1.
         21   -1    0    0  502  503 -0.00000000000E+00 -0.00000000000E+00 -0.15503252590E+03  0.15503252590E+03  0.00000000000E+00 0. -1.
         24    1    1    2    0    0 -0.54629200739E+02  0.48994138578E+02 -0.99166572430E+02  0.14726167265E+03  0.80419002446E+02 0. -1.
          1    1    1    2  501    0  0.13451803827E+02 -0.96396553894E+02  0.14387923827E+03  0.17370803618E+03  0.00000000000E+00 0. -1.
         -2    1    1    2    0  503  0.41177396912E+02  0.47402415316E+02  0.41404176586E+02  0.75212185402E+02  0.00000000000E+00 0.  1.
<mgrwt>
<rscale>  2 0.13449366E+03</rscale>
<asrwt>0</asrwt>
<pdfrwt beam="1">  1       21 0.37099903E-01 0.13449366E+03</pdfrwt>
<pdfrwt beam="2">  1       21 0.23851158E-01 0.13449366E+03</pdfrwt>
<totfact> 0.11851927E+05</totfact>
</mgrwt>
</event>
<event>
 5    1  0.1721815E-001  0.1852270E+03  0.7546771E-02  0.1162838E+00
         21   -1    0    0  501  502  0.00000000000E+00  0.00000000000E+00  0.10999530458E+03  0.10999530458E+03  0.00000000000E+00 0. -1.
         21   -1    0    0  502  503 -0.00000000000E+00 -0.00000000000E+00 -0.37355934691E+03  0.37355934691E+03  0.00000000000E+00 0.  1.
         24    1    1    2    0    0  0.96720121371E+01  0.26450086638E+02  0.37127091136E+01  0.85288657307E+02  0.80419002446E+02 0. -1.
          1    1    1    2  501    0 -0.33386209923E+02  0.12631438856E+03 -0.71915772198E+02  0.14913699092E+03  0.00000000000E+00 0. -1.
         -2    1    1    2    0  503  0.23714197786E+02 -0.15276447519E+03 -0.19536097924E+03  0.24912900327E+03  0.00000000000E+00 0.  1.
<mgrwt>
<rscale>  2 0.18522701E+03</rscale>
<asrwt>0</asrwt>
<pdfrwt beam="1">  1       21 0.16922355E-01 0.18522701E+03</pdfrwt>
<pdfrwt beam="2">  1       21 0.57470668E-01 0.18522701E+03</pdfrwt>
<totfact> 0.89652850E+04</totfact>
</mgrwt>
</event>
<event>
 5    1  0.1721815E-001  0.1748975E+03  0.7546771E-02  0.1172835E+00
         21   -1    0    0  503  502  0.00000000000E+00  0.00000000000E+00  0.27707422261E+03  0.27707422261E+03  0.00000000000E+00 0.  1.
         21   -1    0    0  501  503 -0.00000000000E+00 -0.00000000000E+00 -0.13971223842E+03  0.13971223842E+03  0.00000000000E+00 0.  1.
         24    1    1    2    0    0  0.38221817527E+02 -0.13432167361E+03 -0.19824072320E+02  0.16236819003E+03  0.80419002446E+02 0.  1.
          1    1    1    2  501    0  0.45026819191E+02  0.70888076732E+02  0.28808432644E+02  0.88783217223E+02  0.00000000000E+00 0. -1.
         -2    1    1    2    0  502 -0.83248636717E+02  0.63433596877E+02  0.12837762386E+03  0.16563505377E+03  0.00000000000E+00 0.  1.
<mgrwt>
<rscale>  2 0.17489746E+03</rscale>
<asrwt>0</asrwt>
<pdfrwt beam="1">  1       21 0.42626803E-01 0.17489746E+03</pdfrwt>
<pdfrwt beam="2">  1       21 0.21494191E-01 0.17489746E+03</pdfrwt>
<totfact> 0.10747320E+05</totfact>
</mgrwt>
</event>
<event>
 5    1  0.1721815E-001  0.7602866E+02  0.7546771E-02  0.1340715E+00
         21   -1    0    0  501  502  0.00000000000E+00  0.00000000000E+00  0.58556099017E+03  0.58556099017E+03  0.00000000000E+00 0.  1.
         21   -1    0    0  502  503 -0.00000000000E+00 -0.00000000000E+00 -0.20494254622E+02  0.20494254622E+02  0.00000000000E+00 0. -1.
         24    1    1    2    0    0 -0.11132128600E+02  0.34830543498E+01  0.76215282800E+02  0.11140934091E+03  0.80419002446E+02 0. -1.
          1    1    1    2  501    0 -0.24819538385E+02  0.16365988566E+02  0.29487508802E+03  0.29636999275E+03  0.00000000000E+00 0. -1.
         -2    1    1    2    0  503  0.35951666985E+02 -0.19849042916E+02  0.19397636472E+03  0.19827591113E+03  0.00000000000E+00 0.  1.
<mgrwt>
<rscale>  2 0.76028660E+02</rscale>
<asrwt>0</asrwt>
<pdfrwt beam="1">  1       21 0.90086294E-01 0.76028660E+02</pdfrwt>
<pdfrwt beam="2">  1       21 0.31529627E-02 0.76028660E+02</pdfrwt>
<totfact> 0.61818025E+05</totfact>
</mgrwt>
</event>
<event>
 5    1  0.1721815E-001  0.7772431E+02  0.7546771E-02  0.1335636E+00
         21   -1    0    0  503  502  0.00000000000E+00  0.00000000000E+00  0.93272464279E+02  0.93272464279E+02  0.00000000000E+00 0. -1.
         21   -1    0    0  501  503 -0.00000000000E+00 -0.00000000000E+00 -0.89024705192E+02  0.89024705192E+02  0.00000000000E+00 0.  1.
         24    1    1    2    0    0 -0.79142279183E+00  0.10046938149E+02 -0.45080616143E+02  0.92741820245E+02  0.80419002446E+02 0.  1.
          1    1    1    2  501    0 -0.12501331016E+02 -0.39851388071E+02  0.31927371791E+02  0.52571603341E+02  0.00000000000E+00 0. -1.
         -2    1    1    2    0  502  0.13292753808E+02  0.29804449922E+02  0.17401003440E+02  0.36983745885E+02  0.00000000000E+00 0.  1.
<mgrwt>
<rscale>  2 0.77724309E+02</rscale>
<asrwt>0</asrwt>
<pdfrwt beam="1">  1       21 0.14349610E-01 0.77724309E+02</pdfrwt>
<pdfrwt beam="2">  1       21 0.13696108E-01 0.77724309E+02</pdfrwt>
<totfact> 0.19216085E+06</totfact>
</mgrwt>
</event>
<event>
 5    1  0.1721815E-001  0.9576989E+02  0.7546771E-02  0.1289451E+00
         21   -1    0    0  503  502  0.00000000000E+00  0.00000000000E+00  0.17826534305E+03  0.17826534305E+03  0.00000000000E+00 0.  1.
         21   -1    0    0  501  503 -0.00000000000E+00 -0.00000000000E+00 -0.92806378809E+02  0.92806378809E+02  0.00000000000E+00 0. -1.
         24    1    1    2    0    0  0.19577613786E+02 -0.15927446218E+02 -0.47760944025E+02  0.96877707617E+02  0.80419002446E+02 0. -1.
          1    1    1    2  501    0 -0.18361061564E+02 -0.43810821083E+02  0.34163475266E+02  0.58512047204E+02  0.00000000000E+00 0. -1.
         -2    1    1    2    0  502 -0.12165522214E+01  0.59738267301E+02  0.99056433003E+02  0.11568196704E+03  0.00000000000E+00 0.  1.
<mgrwt>
<rscale>  2 0.95769886E+02</rscale>
<asrwt>0</asrwt>
<pdfrwt beam="1">  1       21 0.27425437E-01 0.95769886E+02</pdfrwt>
<pdfrwt beam="2">  1       21 0.14277904E-01 0.95769886E+02</pdfrwt>
<totfact> 0.54858331E+05</totfact>
</mgrwt>
</event>
<event>
 5    1  0.1721815E-001  0.1443667E+03  0.7546771E-02  0.1207571E+00
         21   -1    0    0  501  502  0.00000000000E+00  0.00000000000E+00  0.72240061054E+02  0.72240061054E+02  0.00000000000E+00 0. -1.
         21   -1    0    0  502  503 -0.00000000000E+00 -0.00000000000E+00 -0.50741862224E+03  0.50741862224E+03  0.00000000000E+00 0.  1.
         24    1    1    2    0    0  0.62823236482E+02 -0.87188819070E+02 -0.39834470654E+03  0.42035029487E+03  0.80419002446E+02 0.  1.
          1    1    1    2  501    0 -0.62377991876E+02  0.11279818776E+03 -0.25974032211E+02  0.13148800470E+03  0.00000000000E+00 0. -1.
         -2    1    1    2    0  503 -0.44524460580E+00 -0.25609368685E+02 -0.10859822435E+02  0.27820383724E+02  0.00000000000E+00 0.  1.
<mgrwt>
<rscale>  2 0.14436673E+03</rscale>
<asrwt>0</asrwt>
<pdfrwt beam="1">  1       21 0.11113855E-01 0.14436673E+03</pdfrwt>
<pdfrwt beam="2">  1       21 0.78064404E-01 0.14436673E+03</pdfrwt>
<totfact> 0.99716330E+04</totfact>
</mgrwt>
</event>
<event>
 5    1  0.1721815E-001  0.1364924E+03  0.7546771E-02  0.1218128E+00
         21   -1    0    0  503  502  0.00000000000E+00  0.00000000000E+00  0.62518240093E+03  0.62518240093E+03  0.00000000000E+00 0. -1.
         21   -1    0    0  501  503 -0.00000000000E+00 -0.00000000000E+00 -0.35300019829E+02  0.35300019829E+02  0.00000000000E+00 0.  1.
         24    1    1    2    0    0 -0.20091395524E+02 -0.34395362350E+02  0.12331798512E+03  0.15251638120E+03  0.80419002446E+02 0.  1.
          1    1    1    2  501    0 -0.77265773673E+02 -0.67214234037E+01  0.10047130288E+03  0.12692383549E+03  0.00000000000E+00 0. -1.
         -2    1    1    2    0  502  0.97357169197E+02  0.41116785754E+02  0.36609309310E+03  0.38104220406E+03  0.00000000000E+00 0.  1.
<mgrwt>
<rscale>  2 0.13649237E+03</rscale>
<asrwt>0</asrwt>
<pdfrwt beam="1">  1       21 0.96181900E-01 0.13649237E+03</pdfrwt>
<pdfrwt beam="2">  1       21 0.54307727E-02 0.13649237E+03</pdfrwt>
<totfact> 0.21400860E+05</totfact>
</mgrwt>
</event>
<event>
 5    1  0.1721815E-001  0.1153820E+03  0.7546771E-02  0.1250916E+00
         21   -1    0    0  501  502  0.00000000000E+00  0.00000000000E+00  0.10872179723E+03  0.10872179723E+03  0.00000000000E+00 0.  1.
         21   -1    0    0  502  503 -0.00000000000E+00 -0.00000000000E+00 -0.49552367365E+03  0.49552367365E+03  0.00000000000E+00 0.  1.
         24    1    1    2    0    0  0.71306567835E+02 -0.11544585899E+02 -0.40954929779E+03  0.42357496073E+03  0.80419002446E+02 0.  1.
          1    1    1    2  501    0  0.17568515207E+02  0.27241926610E+02  0.71202996360E+02  0.78234531907E+02  0.00000000000E+00 0. -1.
         -2    1    1    2    0  503 -0.88875083042E+02 -0.15697340711E+02 -0.48455574993E+02  0.10243597825E+03  0.00000000000E+00 0.  1.
<mgrwt>
<rscale>  2 0.11538204E+03</rscale>
<asrwt>0</asrwt>
<pdfrwt beam="1">  1       21 0.16726431E-01 0.11538204E+03</pdfrwt>
<pdfrwt beam="2">  1       21 0.76234410E-01 0.11538204E+03</pdfrwt>
<totfact> 0.51306479E+04</totfact>
</mgrwt>
</event>
<event>
 5    1  0.1721815E-001  0.1125333E+03  0.7546771E-02  0.1255949E+00
         21   -1    0    0  503  502  0.00000000000E+00  0.00000000000E+00  0.27570941688E+03  0.27570941688E+03  0.00000000000E+00 0.  1.
         21   -1    0    0  501  503 -0.00000000000E+00 -0.00000000000E+00 -0.23280529600E+03  0.23280529600E+03  0.00000000000E+00 0. -1.
         24    1    1    2    0    0 -0.57604304393E+02 -0.24446285762E+02 -0.16558792043E+03  0.19442852702E+03  0.80419002446E+02 0.  0.
          1    1    1    2  501    0 -0.26806242039E+02  0.27896085616E+02 -0.37568256262E+02  0.53927173888E+02  0.00000000000E+00 0. -1.
         -2    1    1    2    0  502  0.84410546432E+02 -0.34497998549E+01  0.24606029757E+03  0.26015901197E+03  0.00000000000E+00 0.  1.
<mgrwt>
<rscale>  2 0.11253327E+03</rscale>
<asrwt>0</asrwt>
<pdfrwt beam="1">  1       21 0.42416834E-01 0.11253327E+03</pdfrwt>
<pdfrwt beam="2">  1       21 0.35816199E-01 0.11253327E+03</pdfrwt>
<totfact> 0.42007766E+04</totfact>
</mgrwt>
</event>
<event>
 5    1  0.1721815E-001  0.9892711E+02  0.7546771E-02  0.1282568E+00
         21   -1    0    0  503  502  0.00000000000E+00  0.00000000000E+00  0.15438422757E+03  0.15438422757E+03  0.00000000000E+00 0.  1.
         21   -1    0    0  501  503 -0.00000000000E+00 -0.00000000000E+00 -0.20801961306E+03  0.20801961306E+03  0.00000000000E+00 0. -1.
         24    1    1    2    0    0  0.72415231002E+02  0.23481658130E+02 -0.14252630600E+03  0.18048910717E+03  0.80419002446E+02 0. -1.
          1    1    1    2  501    0 -0.47567551363E+02 -0.35656201573E+02 -0.25161838021E+02  0.64553502971E+02  0.00000000000E+00 0. -1.
         -2    1    1    2    0  502 -0.24847679639E+02  0.12174543443E+02  0.11405275854E+03  0.11736123049E+03  0.00000000000E+00 0.  1.
<mgrwt>
<rscale>  2 0.98927106E+02</rscale>
<asrwt>0</asrwt>
<pdfrwt beam="1">  1       21 0.23751419E-01 0.98927106E+02</pdfrwt>
<pdfrwt beam="2">  1       21 0.32003018E-01 0.98927106E+02</pdfrwt>
<totfact> 0.16152373E+05</totfact>
</mgrwt>
</event>
<event>
 5    1  0.1721815E-001  0.2544725E+03  0.7546771E-02  0.1110510E+00
         21   -1    0    0  503  502  0.00000000000E+00  0.00000000000E+00  0.28292594269E+03  0.28292594269E+03  0.00000000000E+00 0.  1.
         21   -1    0    0  501  503 -0.00000000000E+00 -0.00000000000E+00 -0.67287294948E+03  0.67287294948E+03  0.00000000000E+00 0. -1.
         24    1    1    2    0    0 -0.52345657414E+02  0.16237164779E+02 -0.23132536374E+03  0.25096285229E+03  0.80419002446E+02 0.  0.
          1    1    1    2  501    0 -0.16747987810E+03  0.61567615001E+02 -0.35672166877E+03  0.39886141673E+03  0.00000000000E+00 0. -1.
         -2    1    1    2    0  502  0.21982553552E+03 -0.77804779779E+02  0.19810002572E+03  0.30597462315E+03  0.00000000000E+00 0.  1.
<mgrwt>
<rscale>  2 0.25447252E+03</rscale>
<asrwt>0</asrwt>
<pdfrwt beam="1">  1       21 0.43527069E-01 0.25447252E+03</pdfrwt>
<pdfrwt beam="2">  1       21 0.10351891E+00 0.25447252E+03</pdfrwt>
<totfact> 0.36628358E+03</totfact>
</mgrwt>
</event>
<event>
 5    1  0.1721815E-001  0.1141250E+03  0.7546771E-02  0.1253116E+00
         21   -1    0    0  503  502  0.00000000000E+00  0.00000000000E+00  0.80062524316E+02  0.80062524316E+02  0.00000000000E+00 0.  1.
         21   -1    0    0  501  503 -0.00000000000E+00 -0.00000000000E+00 -0.28721419706E+03  0.28721419706E+03  0.00000000000E+00 0.  1.
         24    1    1    2    0    0  0.81531453752E+02 -0.28697985550E+02 -0.21665474982E+03  0.24673355852E+03  0.80419002446E+02 0.  1.
          1    1    1    2  501    0 -0.86921486380E+02  0.62966256243E+01 -0.13262531362E+02  0.88152634827E+02  0.00000000000E+00 0. -1.
         -2    1    1    2    0  502  0.53900326287E+01  0.22401359926E+02  0.22765608440E+02  0.32390528028E+02  0.00000000000E+00 0.  1.
<mgrwt>
<rscale>  2 0.11412498E+03</rscale>
<asrwt>0</asrwt>
<pdfrwt beam="1">  1       21 0.12317311E-01 0.11412498E+03</pdfrwt>
<pdfrwt beam="2">  1       21 0.44186800E-01 0.11412498E+03</pdfrwt>
<totfact> 0.28029441E+05</totfact>
</mgrwt>
</event>
<event>
 5    1  0.1721815E-001  0.1308571E+03  0.7546771E-02  0.1226190E+00
         21   -1    0    0  503  502  0.00000000000E+00  0.00000000000E+00  0.58010086494E+02  0.58010086494E+02  0.00000000000E+00 0.  1.
         21   -1    0    0  501  503 -0.00000000000E+00 -0.00000000000E+00 -0.30282474766E+03  0.30282474766E+03  0.00000000000E+00 0. -1.
         24    1    1    2    0    0  0.44804708434E+02 -0.26499371200E+02 -0.98596820811E+02  0.13747082454E+03  0.80419002446E+02 0.  0.
          1    1    1    2  501    0 -0.95217229326E+02  0.52990057576E+02 -0.11496921012E+03  0.15840513325E+03  0.00000000000E+00 0. -1.
         -2    1    1    2    0  502  0.50412520891E+02 -0.26490686376E+02 -0.31248630231E+02  0.64958876365E+02  0.00000000000E+00 0.  1.
<mgrwt>
<rscale>  2 0.13085707E+03</rscale>
<asrwt>0</asrwt>
<pdfrwt beam="1">  1       21 0.89246286E-02 0.13085707E+03</pdfrwt>
<pdfrwt beam="2">  1       21 0.46588423E-01 0.13085707E+03</pdfrwt>
<totfact> 0.44162968E+05</totfact>
</mgrwt>
</event>
<event>
 5    1  0.1721815E-001  0.3296820E+03  0.7546771E-02  0.1071278E+00
         21   -1    0    0  501  502  0.00000000000E+00  0.00000000000E+00  0.42437420722E+03  0.42437420722E+03  0.00000000000E+00 0.  1.
         21   -1    0    0  502  503 -0.00000000000E+00 -0.00000000000E+00 -0.30009645464E+03  0.30009645464E+03  0.00000000000E+00 0. -1.
         24    1    1    2    0    0 -0.15003275734E+03 -0.69350017200E+02 -0.43164006414E+02  0.18881101812E+03  0.80419002446E+02 0.  1.
          1    1    1    2  501    0  0.31025027016E+03  0.45172951010E+02  0.19794736411E+03  0.37078158611E+03  0.00000000000E+00 0. -1.
         -2    1    1    2    0  503 -0.16021751282E+03  0.24177066190E+02 -0.30505605124E+02  0.16487805763E+03  0.00000000000E+00 0.  1.
<mgrwt>
<rscale>  2 0.32968202E+03</rscale>
<asrwt>0</asrwt>
<pdfrwt beam="1">  1       21 0.65288340E-01 0.32968202E+03</pdfrwt>
<pdfrwt beam="2">  1       21 0.46168685E-01 0.32968202E+03</pdfrwt>
<totfact> 0.90074778E+03</totfact>
</mgrwt>
</event>
<event>
 5    1  0.1721815E-001  0.1207493E+03  0.7546771E-02  0.1241866E+00
         21   -1    0    0  501  502  0.00000000000E+00  0.00000000000E+00  0.93062228648E+03  0.93062228648E+03  0.00000000000E+00 0.  1.
         21   -1    0    0  502  503 -0.00000000000E+00 -0.00000000000E+00 -0.43233206966E+02  0.43233206966E+02  0.00000000000E+00 0. -1.
         24    1    1    2    0    0  0.67487013772E+02  0.52532292247E+02  0.51525246711E+02  0.12820376656E+03  0.80419002446E+02 0. -1.
          1    1    1    2  501    0 -0.14926606411E+02  0.25779827641E+02  0.30717684084E+03  0.30861791043E+03  0.00000000000E+00 0. -1.
         -2    1    1    2    0  503 -0.52560407362E+02 -0.78312119889E+02  0.52868699196E+03  0.53703381645E+03  0.00000000000E+00 0.  1.
<mgrwt>
<rscale>  2 0.12074934E+03</rscale>
<asrwt>0</asrwt>
<pdfrwt beam="1">  1       21 0.14317264E+00 0.12074934E+03</pdfrwt>
<pdfrwt beam="2">  1       21 0.66512633E-02 0.12074934E+03</pdfrwt>
<totfact> 0.58154211E+04</totfact>
</mgrwt>
</event>
<event>
 5    1  0.1721815E-001  0.1305012E+03  0.7546771E-02  0.1226714E+00
         21   -1    0    0  501  502  0.00000000000E+00  0.00000000000E+00  0.33488131746E+02  0.33488131746E+02  0.00000000000E+00 0.  1.
         21   -1    0    0  502  503 -0.00000000000E+00 -0.00000000000E+00 -0.53701466399E+03  0.53701466399E+03  0.00000000000E+00 0. -1.
         24    1    1    2    0    0  0.16852803424E+02 -0.33134117152E+02 -0.11454445925E+03  0.14480861784E+03  0.80419002446E+02 0.  1.
          1    1    1    2  501    0 -0.89444212773E+02  0.42832260184E+02 -0.20705210916E+03  0.22957666610E+03  0.00000000000E+00 0. -1.
         -2    1    1    2    0  503  0.72591409350E+02 -0.96981430321E+01 -0.18192996383E+03  0.19611751179E+03  0.00000000000E+00 0.  1.
<mgrwt>
<rscale>  2 0.13050122E+03</rscale>
<asrwt>0</asrwt>
<pdfrwt beam="1">  1       21 0.51520204E-02 0.13050122E+03</pdfrwt>
<pdfrwt beam="2">  1       21 0.82617638E-01 0.13050122E+03</pdfrwt>
<totfact> 0.33151943E+05</totfact>
</mgrwt>
</event>
<event>
 5    1  0.1721815E-001  0.6174962E+02  0.7546771E-02  0.1390633E+00
         21   -1    0    0  501  502  0.00000000000E+00  0.00000000000E+00  0.27833928690E+02  0.27833928690E+02  0.00000000000E+00 0. -1.
         21   -1    0    0  502  503 -0.00000000000E+00 -0.00000000000E+00 -0.33596310518E+03  0.33596310518E+03  0.00000000000E+00 0.  1.
         24    1    1    2    0    0 -0.30363897752E+01  0.94104289486E+00 -0.29933808085E+03  0.30996872072E+03  0.80419002446E+02 0.  1.
          1    1    1    2  501    0  0.29738614438E+01  0.20933059222E+02  0.11433895173E+02  0.24036862921E+02  0.00000000000E+00 0. -1.
         -2    1    1    2    0  503  0.62528331389E-01 -0.21874102117E+02 -0.20224990811E+02  0.29791450225E+02  0.00000000000E+00 0.  1.
<mgrwt>
<rscale>  2 0.61749622E+02</rscale>
<asrwt>0</asrwt>
<pdfrwt beam="1">  1       21 0.42821427E-02 0.61749622E+02</pdfrwt>
<pdfrwt beam="2">  1       21 0.51686633E-01 0.61749622E+02</pdfrwt>
<totfact> 0.12223059E+06</totfact>
</mgrwt>
</event>
<event>
 5    1  0.1721815E-001  0.2124966E+03  0.7546771E-02  0.1139604E+00
         21   -1    0    0  501  502  0.00000000000E+00  0.00000000000E+00  0.32689881875E+03  0.32689881875E+03  0.00000000000E+00 0. -1.
         21   -1    0    0  502  503 -0.00000000000E+00 -0.00000000000E+00 -0.19664319517E+03  0.19664319517E+03  0.00000000000E+00 0.  1.
         24    1    1    2    0    0  0.60753335581E+02  0.68497526731E+02  0.59757911653E+01  0.12200739726E+03  0.80419002446E+02 0.  0.
          1    1    1    2  501    0 -0.16059182563E+03 -0.11037670814E+03  0.19221922001E+03  0.27371697189E+03  0.00000000000E+00 0. -1.
         -2    1    1    2    0  503  0.99838490048E+02  0.41879181408E+02 -0.67939387591E+02  0.12781764478E+03  0.00000000000E+00 0.  1.
<mgrwt>
<rscale>  2 0.21249662E+03</rscale>
<asrwt>0</asrwt>
<pdfrwt beam="1">  1       21 0.50292126E-01 0.21249662E+03</pdfrwt>
<pdfrwt beam="2">  1       21 0.30252799E-01 0.21249662E+03</pdfrwt>
<totfact> 0.39064966E+04</totfact>
</mgrwt>
</event>
<event>
 5    1  0.1721815E-001  0.7883054E+02  0.7546771E-02  0.1332403E+00
         21   -1    0    0  501  502  0.00000000000E+00  0.00000000000E+00  0.86270198501E+02  0.86270198501E+02  0.00000000000E+00 0. -1.
         21   -1    0    0  502  503 -0.00000000000E+00 -0.00000000000E+00 -0.72040429380E+02  0.72040429380E+02  0.00000000000E+00 0.  1.
         24    1    1    2    0    0 -0.27317245008E+02 -0.21547441055E+01  0.68513073661E+01  0.85235152161E+02  0.80419002446E+02 0. -1.
          1    1    1    2  501    0  0.21598807421E+02 -0.31704753955E+02  0.39961937917E+01  0.38570318513E+02  0.00000000000E+00 0. -1.
         -2    1    1    2    0  503  0.57184375866E+01  0.33859498060E+02  0.33822679629E+01  0.34505157207E+02  0.00000000000E+00 0.  1.
<mgrwt>
<rscale>  2 0.78830539E+02</rscale>
<asrwt>0</asrwt>
<pdfrwt beam="1">  1       21 0.13272338E-01 0.78830539E+02</pdfrwt>
<pdfrwt beam="2">  1       21 0.11083143E-01 0.78830539E+02</pdfrwt>
<totfact> 0.31975795E+06</totfact>
</mgrwt>
</event>
<event>
 5    1  0.1721815E-001  0.1133798E+03  0.7546771E-02  0.1254436E+00
         21   -1    0    0  501  502  0.00000000000E+00  0.00000000000E+00  0.28582999964E+02  0.28582999964E+02  0.00000000000E+00 0. -1.
         21   -1    0    0  502  503 -0.00000000000E+00 -0.00000000000E+00 -0.84229107586E+03  0.84229107586E+03  0.00000000000E+00 0. -1.
         24    1    1    2    0    0 -0.66122628038E+02 -0.67662953229E+00 -0.67081083594E+03  0.67884243631E+03  0.80419002446E+02 0. -1.
          1    1    1    2  501    0  0.66839241648E+02  0.43543774102E+02 -0.64134032513E+02  0.10235584308E+03  0.00000000000E+00 0. -1.
         -2    1    1    2    0  503 -0.71661360997E+00 -0.42867144570E+02 -0.78763207452E+02  0.89675796438E+02  0.00000000000E+00 0.  1.
<mgrwt>
<rscale>  2 0.11337984E+03</rscale>
<asrwt>0</asrwt>
<pdfrwt beam="1">  1       21 0.43973842E-02 0.11337984E+03</pdfrwt>
<pdfrwt beam="2">  1       21 0.12958325E+00 0.11337984E+03</pdfrwt>
<totfact> 0.15048393E+05</totfact>
</mgrwt>
</event>
<event>
 5    1  0.3062462E-001  0.1639484E+03  0.7546771E-02  0.1184310E+00
         21   -1    0    0  501  502  0.00000000000E+00  0.00000000000E+00  0.13648895366E+03  0.13648895366E+03  0.00000000000E+00 0.  1.
         21   -1    0    0  502  503 -0.00000000000E+00 -0.00000000000E+00 -0.20569099925E+03  0.20569099925E+03  0.00000000000E+00 0. -1.
         24    1    1    2    0    0  0.29948098568E+02  0.10545762374E+02 -0.25137851993E+02  0.90040153649E+02  0.80419002446E+02 0.  0.
          1    1    1    2  501    0 -0.10805695806E+03 -0.81943317947E+02  0.45372646036E+01  0.13568935224E+03  0.00000000000E+00 0. -1.
         -2    1    1    2    0  503  0.78108859490E+02  0.71397555573E+02 -0.48601458195E+02  0.11645044702E+03  0.00000000000E+00 0.  1.
<mgrwt>
<rscale>  2 0.16394843E+03</rscale>
<asrwt>0</asrwt>
<pdfrwt beam="1">  1       21 0.20998301E-01 0.16394843E+03</pdfrwt>
<pdfrwt beam="2">  1       21 0.31644769E-01 0.16394843E+03</pdfrwt>
<totfact> 0.20398069E+05</totfact>
</mgrwt>
</event>
<event>
 5    1  0.1721815E-001  0.1321482E+03  0.7546771E-02  0.1224303E+00
         21   -1    0    0  501  502  0.00000000000E+00  0.00000000000E+00  0.47920086345E+02  0.47920086345E+02  0.00000000000E+00 0.  1.
         21   -1    0    0  502  503 -0.00000000000E+00 -0.00000000000E+00 -0.40015273485E+03  0.40015273485E+03  0.00000000000E+00 0. -1.
         24    1    1    2    0    0  0.23342900762E+02  0.27367309028E+02 -0.17795199903E+03  0.19856482703E+03  0.80419002446E+02 0. -1.
          1    1    1    2  501    0 -0.22934193727E+02 -0.10049093030E+03 -0.81669998253E+02  0.13150814777E+03  0.00000000000E+00 0. -1.
         -2    1    1    2    0  503 -0.40870703531E+00  0.73123621276E+02 -0.92610651219E+02  0.11799984639E+03  0.00000000000E+00 0.  1.
<mgrwt>
<rscale>  2 0.13214824E+03</rscale>
<asrwt>0</asrwt>
<pdfrwt beam="1">  1       21 0.73723208E-02 0.13214824E+03</pdfrwt>
<pdfrwt beam="2">  1       21 0.61561960E-01 0.13214824E+03</pdfrwt>
<totfact> 0.34331077E+05</totfact>
</mgrwt>
</event>
<event>
 5    1  0.1721815E-001  0.3961276E+03  0.7546771E-02  0.1045129E+00
         21   -1    0    0  501  502  0.00000000000E+00  0.00000000000E+00  0.18823335020E+04  0.18823335020E+04  0.00000000000E+00 0. -1.
         21   -1    0    0  502  503 -0.00000000000E+00 -0.00000000000E+00 -0.15993463682E+03  0.15993463682E+03  0.00000000000E+00 0.  1.
         24    1    1    2    0    0 -0.13354349311E+03 -0.11351328452E+03  0.38109082503E+03  0.42710252070E+03  0.80419002446E+02 0. -1.
          1    1    1    2  501    0  0.30688969825E+03  0.23601961972E+03  0.13483021008E+04  0.14027847671E+04  0.00000000000E+00 0. -1.
         -2    1    1    2    0  503 -0.17334620514E+03 -0.12250633520E+03 -0.69940606310E+01  0.21238085103E+03  0.00000000000E+00 0.  1.
<mgrwt>
<rscale>  2 0.39612756E+03</rscale>
<asrwt>0</asrwt>
<pdfrwt beam="1">  1       21 0.28958975E+00 0.39612756E+03</pdfrwt>
<pdfrwt beam="2">  1       21 0.24605330E-01 0.39612756E+03</pdfrwt>
<totfact> 0.50531820E+02</totfact>
</mgrwt>
</event>
<event>
 5    1  0.1721815E-001  0.1114824E+03  0.7546771E-02  0.1257849E+00
         21   -1    0    0  501  502  0.00000000000E+00  0.00000000000E+00  0.20653190623E+02  0.20653190623E+02  0.00000000000E+00 0. -1.
         21   -1    0    0  502  503 -0.00000000000E+00 -0.00000000000E+00 -0.10165919967E+04  0.10165919967E+04  0.00000000000E+00 0. -1.
         24    1    1    2    0    0 -0.39824118576E+02  0.42683045201E+02 -0.71577198782E+03  0.72263722384E+03  0.80419002446E+02 0. -1.
          1    1    1    2  501    0 -0.37721345993E+02 -0.20518663908E+02 -0.31685220453E+02  0.53365426142E+02  0.00000000000E+00 0. -1.
         -2    1    1    2    0  503  0.77545464569E+02 -0.22164381293E+02 -0.24848159782E+03  0.26124253737E+03  0.00000000000E+00 0.  1.
<mgrwt>
<rscale>  2 0.11148241E+03</rscale>
<asrwt>0</asrwt>
<pdfrwt beam="1">  1       21 0.31774145E-02 0.11148241E+03</pdfrwt>
<pdfrwt beam="2">  1       21 0.15639874E+00 0.11148241E+03</pdfrwt>
<totfact> 0.15978153E+05</totfact>
</mgrwt>
</event>
<event>
 5    1  0.1721815E-001  0.1150365E+03  0.7546771E-02  0.1251517E+00
         21   -1    0    0  501  502  0.00000000000E+00  0.00000000000E+00  0.24438153050E+02  0.24438153050E+02  0.00000000000E+00 0. -1.
         21   -1    0    0  502  503 -0.00000000000E+00 -0.00000000000E+00 -0.59346577220E+03  0.59346577220E+03  0.00000000000E+00 0.  1.
         24    1    1    2    0    0 -0.56334102263E+01 -0.48857418289E+02 -0.30685730153E+03  0.32100997194E+03  0.80419002446E+02 0.  1.
          1    1    1    2  501    0 -0.74430754045E+01  0.91194119342E+02 -0.20556467682E+03  0.22500800681E+03  0.00000000000E+00 0. -1.
         -2    1    1    2    0  503  0.13076485631E+02 -0.42336701053E+02 -0.56605640805E+02  0.71885946495E+02  0.00000000000E+00 0.  1.
<mgrwt>
<rscale>  2 0.11503655E+03</rscale>
<asrwt>0</asrwt>
<pdfrwt beam="1">  1       21 0.37597158E-02 0.11503655E+03</pdfrwt>
<pdfrwt beam="2">  1       21 0.91302427E-01 0.11503655E+03</pdfrwt>
<totfact> 0.44810508E+05</totfact>
</mgrwt>
</event>
<event>
 5    1  0.1721815E-001  0.9077505E+02  0.7546771E-02  0.1300986E+00
         21   -1    0    0  503  502  0.00000000000E+00  0.00000000000E+00  0.10607751518E+03  0.10607751518E+03  0.00000000000E+00 0. -1.
         21   -1    0    0  501  503 -0.00000000000E+00 -0.00000000000E+00 -0.89475681375E+02  0.89475681375E+02  0.00000000000E+00 0. -1.
         24    1    1    2    0    0 -0.50511949576E+01 -0.72564934646E+01 -0.22782190126E+02  0.84050076795E+02  0.80419002446E+02 0.  0.
          1    1    1    2  501    0  0.15034248326E+02  0.52347487281E+02  0.65893026540E+01  0.54860796174E+02  0.00000000000E+00 0. -1.
         -2    1    1    2    0  502 -0.99830533688E+01 -0.45090993816E+02  0.32794721282E+02  0.56642323591E+02  0.00000000000E+00 0.  1.
<mgrwt>
<rscale>  2 0.90775047E+02</rscale>
<asrwt>0</asrwt>
<pdfrwt beam="1">  1       21 0.16319618E-01 0.90775047E+02</pdfrwt>
<pdfrwt beam="2">  1       21 0.13765489E-01 0.90775047E+02</pdfrwt>
<totfact> 0.15228227E+06</totfact>
</mgrwt>
</event>
<event>
 5    1  0.1721815E-001  0.1062929E+03  0.7546771E-02  0.1267593E+00
         21   -1    0    0  503  502  0.00000000000E+00  0.00000000000E+00  0.88371394842E+03  0.88371394842E+03  0.00000000000E+00 0. -1.
         21   -1    0    0  501  503 -0.00000000000E+00 -0.00000000000E+00 -0.36192314162E+02  0.36192314162E+02  0.00000000000E+00 0.  1.
         24    1    1    2    0    0 -0.42417715342E+02 -0.40467831944E+02  0.44901606168E+02  0.10918002651E+03  0.80419002446E+02 0.  1.
          1    1    1    2  501    0  0.67643414180E+02  0.52008667070E+02  0.54858405037E+03  0.55518014486E+03  0.00000000000E+00 0. -1.
         -2    1    1    2    0  502 -0.25225698837E+02 -0.11540835125E+02  0.25403597773E+03  0.25554609122E+03  0.00000000000E+00 0.  1.
<mgrwt>
<rscale>  2 0.10629292E+03</rscale>
<asrwt>0</asrwt>
<pdfrwt beam="1">  1       21 0.13595598E+00 0.10629292E+03</pdfrwt>
<pdfrwt beam="2">  1       21 0.55680490E-02 0.10629292E+03</pdfrwt>
<totfact> 0.90371017E+04</totfact>
</mgrwt>
</event>
<event>
 5    1  0.1721815E-001  0.7886737E+02  0.7546771E-02  0.1332297E+00
         21   -1    0    0  501  502  0.00000000000E+00  0.00000000000E+00  0.39964558699E+03  0.39964558699E+03  0.00000000000E+00 0.  1.
         21   -1    0    0  502  503 -0.00000000000E+00 -0.00000000000E+00 -0.18493920445E+02  0.18493920445E+02  0.00000000000E+00 0. -1.
         24    1    1    2    0    0 -0.34800865436E+02  0.12207021754E+02  0.12974908849E+03  0.15704188465E+03  0.80419002446E+02 0.  0.
          1    1    1    2  501    0 -0.60232763866E+01 -0.25598915030E+02  0.12005760780E+03  0.12290408252E+03  0.00000000000E+00 0. -1.
         -2    1    1    2    0  503  0.40824141822E+02  0.13391893276E+02  0.13134497025E+03  0.13819354026E+03  0.00000000000E+00 0.  1.
<mgrwt>
<rscale>  2 0.78867368E+02</rscale>
<asrwt>0</asrwt>
<pdfrwt beam="1">  1       21 0.61483930E-01 0.78867368E+02</pdfrwt>
<pdfrwt beam="2">  1       21 0.28452188E-02 0.78867368E+02</pdfrwt>
<totfact> 0.16741609E+06</totfact>
</mgrwt>
</event>
<event>
 5    1  0.1721815E-001  0.2227543E+03  0.7546771E-02  0.1131846E+00
         21   -1    0    0  503  502  0.00000000000E+00  0.00000000000E+00  0.72855011344E+03  0.72855011344E+03  0.00000000000E+00 0.  1.
         21   -1    0    0  501  503 -0.00000000000E+00 -0.00000000000E+00 -0.73918876785E+02  0.73918876785E+02  0.00000000000E+00 0.  1.
         24    1    1    2    0    0 -0.78341038267E+02  0.11321488543E+03  0.13823493098E+03  0.21102379169E+03  0.80419002446E+02 0.  1.
          1    1    1    2  501    0  0.65680211791E+02  0.73701430147E+02  0.21477499348E+03  0.23637700576E+03  0.00000000000E+00 0. -1.
         -2    1    1    2    0  502  0.12660826476E+02 -0.18691631558E+03  0.30162131219E+03  0.35506819278E+03  0.00000000000E+00 0.  1.
<mgrwt>
<rscale>  2 0.22275431E+03</rscale>
<asrwt>0</asrwt>
<pdfrwt beam="1">  1       21 0.11208463E+00 0.22275431E+03</pdfrwt>
<pdfrwt beam="2">  1       21 0.11372135E-01 0.22275431E+03</pdfrwt>
<totfact> 0.39668814E+04</totfact>
</mgrwt>
</event>
<event>
 5    1  0.1721815E-001  0.8908717E+02  0.7546771E-02  0.1305077E+00
         21   -1    0    0  503  502  0.00000000000E+00  0.00000000000E+00  0.40892653158E+03  0.40892653158E+03  0.00000000000E+00 0.  1.
         21   -1    0    0  501  503 -0.00000000000E+00 -0.00000000000E+00 -0.69337545396E+02  0.69337545396E+02  0.00000000000E+00 0.  1.
         24    1    1    2    0    0  0.64027393148E+02  0.21858753435E+02 -0.23321416440E+02  0.10764950810E+03  0.80419002446E+02 0.  1.
          1    1    1    2  501    0 -0.37460332487E+02  0.18046669187E+01  0.14256638318E+03  0.14741677973E+03  0.00000000000E+00 0. -1.
         -2    1    1    2    0  502 -0.26567060661E+02 -0.23663420353E+02  0.22034401945E+03  0.22319778915E+03  0.00000000000E+00 0.  1.
<mgrwt>
<rscale>  2 0.89087168E+02</rscale>
<asrwt>0</asrwt>
<pdfrwt beam="1">  1       21 0.62911773E-01 0.89087168E+02</pdfrwt>
<pdfrwt beam="2">  1       21 0.10667315E-01 0.89087168E+02</pdfrwt>
<totfact> 0.17503991E+05</totfact>
</mgrwt>
</event>
<event>
 5    1  0.1721815E-001  0.8020341E+02  0.7546771E-02  0.1328475E+00
         21   -1    0    0  503  502  0.00000000000E+00  0.00000000000E+00  0.35000251656E+02  0.35000251656E+02  0.00000000000E+00 0.  1.
         21   -1    0    0  501  503 -0.00000000000E+00 -0.00000000000E+00 -0.33540588260E+03  0.33540588260E+03  0.00000000000E+00 0. -1.
         24    1    1    2    0    0  0.17914153100E+02 -0.25438862404E+02 -0.28057509824E+03  0.29352624126E+03  0.80419002446E+02 0. -1.
          1    1    1    2  501    0  0.34763159543E+01 -0.21930194867E+02 -0.77688009731E+01  0.23523870602E+02  0.00000000000E+00 0. -1.
         -2    1    1    2    0  502 -0.21390469055E+02  0.47369057271E+02 -0.12061731728E+02  0.53356022391E+02  0.00000000000E+00 0.  1.
<mgrwt>
<rscale>  2 0.80203408E+02</rscale>
<asrwt>0</asrwt>
<pdfrwt beam="1">  1       21 0.53846541E-02 0.80203408E+02</pdfrwt>
<pdfrwt beam="2">  1       21 0.51600905E-01 0.80203408E+02</pdfrwt>
<totfact> 0.84602834E+05</totfact>
</mgrwt>
</event>
<event>
 5    1  0.1721815E-001  0.1106956E+03  0.7546771E-02  0.1259287E+00
         21   -1    0    0  501  502  0.00000000000E+00  0.00000000000E+00  0.47401903243E+02  0.47401903243E+02  0.00000000000E+00 0. -1.
         21   -1    0    0  502  503 -0.00000000000E+00 -0.00000000000E+00 -0.14152966518E+04  0.14152966518E+04  0.00000000000E+00 0. -1.
         24    1    1    2    0    0 -0.13581170495E+02  0.27392958322E+02 -0.52532993719E+03  0.53232845239E+03  0.80419002446E+02 0. -1.
          1    1    1    2  501    0 -0.54747079926E+02  0.12608013902E+02  0.23352680239E+02  0.60840385019E+02  0.00000000000E+00 0. -1.
         -2    1    1    2    0  503  0.68328250422E+02 -0.40000972224E+02 -0.86591749159E+03  0.86952971762E+03  0.00000000000E+00 0.  1.
<mgrwt>
<rscale>  2 0.11069557E+03</rscale>
<asrwt>0</asrwt>
<pdfrwt beam="1">  1       21 0.72926002E-02 0.11069557E+03</pdfrwt>
<pdfrwt beam="2">  1       21 0.21773796E+00 0.11069557E+03</pdfrwt>
<totfact> 0.15886015E+04</totfact>
</mgrwt>
</event>
<event>
 5    1  0.1721815E-001  0.1459450E+03  0.7546771E-02  0.1205546E+00
         21   -1    0    0  501  502  0.00000000000E+00  0.00000000000E+00  0.98922988430E+02  0.98922988430E+02  0.00000000000E+00 0. -1.
         21   -1    0    0  502  503 -0.00000000000E+00 -0.00000000000E+00 -0.31439737075E+03  0.31439737075E+03  0.00000000000E+00 0.  1.
         24    1    1    2    0    0  0.16471535267E+02 -0.12009052336E+03 -0.48590761254E+02  0.15336663036E+03  0.80419002446E+02 0.  0.
          1    1    1    2  501    0  0.22332239514E+02  0.23513788290E+01  0.23667862684E+02  0.32625536442E+02  0.00000000000E+00 0. -1.
         -2    1    1    2    0  503 -0.38803774781E+02  0.11773914453E+03 -0.19055148375E+03  0.22732819238E+03  0.00000000000E+00 0.  1.
<mgrwt>
<rscale>  2 0.14594503E+03</rscale>
<asrwt>0</asrwt>
<pdfrwt beam="1">  1       21 0.15218921E-01 0.14594503E+03</pdfrwt>
<pdfrwt beam="2">  1       21 0.48368827E-01 0.14594503E+03</pdfrwt>
<totfact> 0.15831368E+05</totfact>
</mgrwt>
</event>
<event>
 5    1  0.1721815E-001  0.1869322E+03  0.7546771E-02  0.1161258E+00
         21   -1    0    0  503  502  0.00000000000E+00  0.00000000000E+00  0.36047405590E+02  0.36047405590E+02  0.00000000000E+00 0.  1.
         21   -1    0    0  501  503 -0.00000000000E+00 -0.00000000000E+00 -0.11466574283E+04  0.11466574283E+04  0.00000000000E+00 0. -1.
         24    1    1    2    0    0  0.64570206998E+02  0.68430346278E+01 -0.23124159491E+03  0.25329040630E+03  0.80419002446E+02 0. -1.
          1    1    1    2  501    0 -0.12974895581E+03  0.87021305486E+02 -0.69626592957E+03  0.71357812734E+03  0.00000000000E+00 0. -1.
         -2    1    1    2    0  502  0.65178748812E+02 -0.93864340114E+02 -0.18310249818E+03  0.21583630020E+03  0.00000000000E+00 0.  1.
<mgrwt>
<rscale>  2 0.18693217E+03</rscale>
<asrwt>0</asrwt>
<pdfrwt beam="1">  1       21 0.55457562E-02 0.18693217E+03</pdfrwt>
<pdfrwt beam="2">  1       21 0.17640879E+00 0.18693217E+03</pdfrwt>
<totfact> 0.43587883E+04</totfact>
</mgrwt>
</event>
<event>
 5    1  0.1721815E-001  0.7525310E+02  0.7546771E-02  0.1343089E+00
         21   -1    0    0  503  502  0.00000000000E+00  0.00000000000E+00  0.17905622144E+04  0.17905622144E+04  0.00000000000E+00 0. -1.
         21   -1    0    0  501  503 -0.00000000000E+00 -0.00000000000E+00 -0.58100903356E+01  0.58100903356E+01  0.00000000000E+00 0.  1.
         24    1    1    2    0    0 -0.24531996235E+02  0.42593146715E+01  0.39525191015E+03  0.40411786527E+03  0.80419002446E+02 0.  0.
          1    1    1    2  501    0  0.22846721994E+02 -0.31563633975E+02  0.31427061017E+03  0.31667688913E+03  0.00000000000E+00 0. -1.
         -2    1    1    2    0  502  0.16852742407E+01  0.27304319303E+02  0.10752296038E+04  0.10755775503E+04  0.00000000000E+00 0.  1.
<mgrwt>
<rscale>  2 0.75253097E+02</rscale>
<asrwt>0</asrwt>
<pdfrwt beam="1">  1       21 0.27547067E+00 0.75253097E+02</pdfrwt>
<pdfrwt beam="2">  1       21 0.89386148E-03 0.75253097E+02</pdfrwt>
<totfact> 0.23545941E+05</totfact>
</mgrwt>
</event>
<event>
 5    1  0.3227779E-001  0.3161300E+03  0.7546771E-02  0.1077444E+00
         21   -1    0    0  501  502  0.00000000000E+00  0.00000000000E+00  0.45358190582E+03  0.45358190582E+03  0.00000000000E+00 0. -1.
         21   -1    0    0  502  503 -0.00000000000E+00 -0.00000000000E+00 -0.32466126178E+03  0.32466126178E+03  0.00000000000E+00 0.  1.
         24    1    1    2    0    0  0.52466444344E+02  0.60684531416E+01 -0.33440422959E+02  0.10185789978E+03  0.80419002446E+02 0. -1.
          1    1    1    2  501    0  0.24118872263E+03  0.14873765200E+02  0.27053207452E+03  0.36274072305E+03  0.00000000000E+00 0. -1.
         -2    1    1    2    0  503 -0.29365516698E+03 -0.20942218342E+02 -0.10817100751E+03  0.31364454477E+03  0.00000000000E+00 0.  1.
<mgrwt>
<rscale>  2 0.31613000E+03</rscale>
<asrwt>0</asrwt>
<pdfrwt beam="1">  1       21 0.69781831E-01 0.31613000E+03</pdfrwt>
<pdfrwt beam="2">  1       21 0.49947887E-01 0.31613000E+03</pdfrwt>
<totfact> 0.66268348E+03</totfact>
</mgrwt>
</event>
<event>
 5    1  0.1721815E-001  0.1276326E+03  0.7546771E-02  0.1231011E+00
         21   -1    0    0  503  502  0.00000000000E+00  0.00000000000E+00  0.25039641362E+03  0.25039641362E+03  0.00000000000E+00 0.  1.
         21   -1    0    0  501  503 -0.00000000000E+00 -0.00000000000E+00 -0.94793230176E+02  0.94793230176E+02  0.00000000000E+00 0. -1.
         24    1    1    2    0    0 -0.78187816884E+01  0.11464154793E+03  0.91728306068E+00  0.14025646231E+03  0.80419002446E+02 0. -1.
          1    1    1    2  501    0  0.28572040804E+01 -0.75902965846E+02  0.44503871693E+02  0.88034189012E+02  0.00000000000E+00 0. -1.
         -2    1    1    2    0  502  0.49615776080E+01 -0.38738582083E+02  0.11018202869E+03  0.11689899247E+03  0.00000000000E+00 0.  1.
<mgrwt>
<rscale>  2 0.12763261E+03</rscale>
<asrwt>0</asrwt>
<pdfrwt beam="1">  1       21 0.38522525E-01 0.12763261E+03</pdfrwt>
<pdfrwt beam="2">  1       21 0.14583574E-01 0.12763261E+03</pdfrwt>
<totfact> 0.27225760E+05</totfact>
</mgrwt>
</event>
<event>
 5    1  0.1721815E-001  0.8023943E+02  0.7546771E-02  0.1328373E+00
         21   -1    0    0  503  502  0.00000000000E+00  0.00000000000E+00  0.58995247522E+03  0.58995247522E+03  0.00000000000E+00 0. -1.
         21   -1    0    0  501  503 -0.00000000000E+00 -0.00000000000E+00 -0.55172987395E+02  0.55172987395E+02  0.00000000000E+00 0. -1.
         24    1    1    2    0    0  0.53220042714E+01 -0.27141138479E+02 -0.18106047345E+02  0.86948318168E+02  0.80419002446E+02 0. -1.
          1    1    1    2  501    0  0.15198766329E+02  0.45457106161E+02  0.30070608302E+03  0.30450205150E+03  0.00000000000E+00 0. -1.
         -2    1    1    2    0  502 -0.20520770600E+02 -0.18315967681E+02  0.25217945215E+03  0.25367509295E+03  0.00000000000E+00 0.  1.
<mgrwt>
<rscale>  2 0.80239430E+02</rscale>
<asrwt>0</asrwt>
<pdfrwt beam="1">  1       21 0.90761915E-01 0.80239430E+02</pdfrwt>
<pdfrwt beam="2">  1       21 0.84881523E-02 0.80239430E+02</pdfrwt>
<totfact> 0.11707158E+05</totfact>
</mgrwt>
</event>
<event>
 5    1  0.1721815E-001  0.6445978E+02  0.7546771E-02  0.1380015E+00
         21   -1    0    0  503  502  0.00000000000E+00  0.00000000000E+00  0.23846038789E+03  0.23846038789E+03  0.00000000000E+00 0.  1.
         21   -1    0    0  501  503 -0.00000000000E+00 -0.00000000000E+00 -0.28778334562E+02  0.28778334562E+02  0.00000000000E+00 0.  1.
         24    1    1    2    0    0 -0.10543450624E+02 -0.27446397637E+02  0.49999188834E+02  0.99154444846E+02  0.80419002446E+02 0.  1.
          1    1    1    2  501    0 -0.86876584389E+01  0.21461839849E+02  0.36210836095E+02  0.42980351669E+02  0.00000000000E+00 0. -1.
         -2    1    1    2    0  502  0.19231109063E+02  0.59845577880E+01  0.12347202840E+03  0.12510392593E+03  0.00000000000E+00 0.  1.
<mgrwt>
<rscale>  2 0.64459778E+02</rscale>
<asrwt>0</asrwt>
<pdfrwt beam="1">  1       21 0.36686212E-01 0.64459778E+02</pdfrwt>
<pdfrwt beam="2">  1       21 0.44274362E-02 0.64459778E+02</pdfrwt>
<totfact> 0.22862939E+06</totfact>
</mgrwt>
</event>
<event>
 5    1  0.1721815E-001  0.7885861E+02  0.7546771E-02  0.1332322E+00
         21   -1    0    0  503  502  0.00000000000E+00  0.00000000000E+00  0.44512073651E+02  0.44512073651E+02  0.00000000000E+00 0. -1.
         21   -1    0    0  501  503 -0.00000000000E+00 -0.00000000000E+00 -0.25300139823E+03  0.25300139823E+03  0.00000000000E+00 0.  1.
         24    1    1    2    0    0  0.18973653785E+02 -0.82500458972E+00 -0.18039468674E+03  0.19841909971E+03  0.80419002446E+02 0.  1.
          1    1    1    2  501    0 -0.71100563285E+01  0.36657554288E+02 -0.44368256686E+02  0.57990269776E+02  0.00000000000E+00 0. -1.
         -2    1    1    2    0  502 -0.11863597457E+02 -0.35832549698E+02  0.16273618855E+02  0.41104102388E+02  0.00000000000E+00 0.  1.
<mgrwt>
<rscale>  2 0.78858610E+02</rscale>
<asrwt>0</asrwt>
<pdfrwt beam="1">  1       21 0.68480113E-02 0.78858610E+02</pdfrwt>
<pdfrwt beam="2">  1       21 0.38923292E-01 0.78858610E+02</pdfrwt>
<totfact> 0.99442064E+05</totfact>
</mgrwt>
</event>
<event>
 5    1  0.1721815E-001  0.9834480E+02  0.7546771E-02  0.1283816E+00
         21   -1    0    0  503  502  0.00000000000E+00  0.00000000000E+00  0.42191556475E+02  0.42191556475E+02  0.00000000000E+00 0.  1.
         21   -1    0    0  501  503 -0.00000000000E+00 -0.00000000000E+00 -0.43390378736E+03  0.43390378736E+03  0.00000000000E+00 0. -1.
         24    1    1    2    0    0  0.12852693113E+02 -0.37097037770E+02 -0.25148863368E+03  0.26693656692E+03  0.80419002446E+02 0. -1.
          1    1    1    2  501    0  0.43831683861E+02  0.18004621426E+02 -0.14161164715E+03  0.14932930560E+03  0.00000000000E+00 0. -1.
         -2    1    1    2    0  502 -0.56684376974E+02  0.19092416344E+02  0.13880499517E+01  0.59829471312E+02  0.00000000000E+00 0.  1.
<mgrwt>
<rscale>  2 0.98344804E+02</rscale>
<asrwt>0</asrwt>
<pdfrwt beam="1">  1       21 0.64910086E-02 0.98344804E+02</pdfrwt>
<pdfrwt beam="2">  1       21 0.66754430E-01 0.98344804E+02</pdfrwt>
<totfact> 0.36067276E+05</totfact>
</mgrwt>
</event>
<event>
 5    1  0.1721815E-001  0.8866636E+02  0.7546771E-02  0.1306114E+00
         21   -1    0    0  501  502  0.00000000000E+00  0.00000000000E+00  0.12931605227E+03  0.12931605227E+03  0.00000000000E+00 0.  1.
         21   -1    0    0  502  503 -0.00000000000E+00 -0.00000000000E+00 -0.10444901693E+03  0.10444901693E+03  0.00000000000E+00 0. -1.
         24    1    1    2    0    0  0.30732108426E+02 -0.34878031351E+02 -0.60112252056E+02  0.11064193762E+03  0.80419002446E+02 0. -1.
          1    1    1    2  501    0 -0.74231277804E+01 -0.21870446875E+02  0.42924952929E+02  0.48743931484E+02  0.00000000000E+00 0. -1.
         -2    1    1    2    0  503 -0.23308980646E+02  0.56748478226E+02  0.42054334458E+02  0.74379200093E+02  0.00000000000E+00 0.  1.
<mgrwt>
<rscale>  2 0.88666362E+02</rscale>
<asrwt>0</asrwt>
<pdfrwt beam="1">  1       21 0.19894777E-01 0.88666362E+02</pdfrwt>
<pdfrwt beam="2">  1       21 0.16069080E-01 0.88666362E+02</pdfrwt>
<totfact> 0.80640649E+05</totfact>
</mgrwt>
</event>
<event>
 5    1  0.1721815E-001  0.1767283E+03  0.7546771E-02  0.1171008E+00
         21   -1    0    0  501  502  0.00000000000E+00  0.00000000000E+00  0.13991236416E+03  0.13991236416E+03  0.00000000000E+00 0. -1.
         21   -1    0    0  502  503 -0.00000000000E+00 -0.00000000000E+00 -0.56566377839E+03  0.56566377839E+03  0.00000000000E+00 0.  1.
         24    1    1    2    0    0  0.55881361204E+02 -0.60355059368E+02 -0.10869880096E+03  0.15826593129E+03  0.80419002446E+02 0.  1.
          1    1    1    2  501    0  0.23706135245E+02 -0.76510857463E+02  0.84041912154E+02  0.11609881634E+03  0.00000000000E+00 0. -1.
         -2    1    1    2    0  503 -0.79587496450E+02  0.13686591683E+03 -0.40109452542E+03  0.43121139492E+03  0.00000000000E+00 0.  1.
<mgrwt>
<rscale>  2 0.17672825E+03</rscale>
<asrwt>0</asrwt>
<pdfrwt beam="1">  1       21 0.21524979E-01 0.17672825E+03</pdfrwt>
<pdfrwt beam="2">  1       21 0.87025196E-01 0.17672825E+03</pdfrwt>
<totfact> 0.23051107E+04</totfact>
</mgrwt>
</event>
<event>
 5    1  0.1721815E-001  0.9490920E+02  0.7546771E-02  0.1291381E+00
         21   -1    0    0  503  502  0.00000000000E+00  0.00000000000E+00  0.19835653430E+02  0.19835653430E+02  0.00000000000E+00 0.  1.
         21   -1    0    0  501  503 -0.00000000000E+00 -0.00000000000E+00 -0.68617670706E+03  0.68617670706E+03  0.00000000000E+00 0.  1.
         24    1    1    2    0    0 -0.42242423091E+01  0.10924116905E+02 -0.48931610365E+03  0.49601879582E+03  0.80419002446E+02 0.  1.
          1    1    1    2  501    0 -0.51734775885E+02 -0.93292593584E+01 -0.11497102746E+03  0.12641937854E+03  0.00000000000E+00 0. -1.
         -2    1    1    2    0  502  0.55959018194E+02 -0.15948575464E+01 -0.62053922519E+02  0.83574186133E+02  0.00000000000E+00 0.  1.
<mgrwt>
<rscale>  2 0.94909196E+02</rscale>
<asrwt>0</asrwt>
<pdfrwt beam="1">  1       21 0.30516380E-02 0.94909196E+02</pdfrwt>
<pdfrwt beam="2">  1       21 0.10556568E+00 0.94909196E+02</pdfrwt>
<totfact> 0.45229142E+05</totfact>
</mgrwt>
</event>
<event>
 5    1  0.1721815E-001  0.1053896E+03  0.7546771E-02  0.1269354E+00
         21   -1    0    0  501  502  0.00000000000E+00  0.00000000000E+00  0.39418823717E+03  0.39418823717E+03  0.00000000000E+00 0. -1.
         21   -1    0    0  502  503 -0.00000000000E+00 -0.00000000000E+00 -0.44402340513E+02  0.44402340513E+02  0.00000000000E+00 0.  1.
         24    1    1    2    0    0  0.15139315327E+02 -0.17570627496E+02  0.48512502522E+02  0.96739881510E+02  0.80419002446E+02 0.  0.
          1    1    1    2  501    0  0.37864433914E+02 -0.35624334958E+02  0.23812561416E+03  0.24373472612E+03  0.00000000000E+00 0. -1.
         -2    1    1    2    0  503 -0.53003749241E+02  0.53194962454E+02  0.63147779975E+02  0.98115970056E+02  0.00000000000E+00 0.  1.
<mgrwt>
<rscale>  2 0.10538961E+03</rscale>
<asrwt>0</asrwt>
<pdfrwt beam="1">  1       21 0.60644342E-01 0.10538961E+03</pdfrwt>
<pdfrwt beam="2">  1       21 0.68311296E-02 0.10538961E+03</pdfrwt>
<totfact> 0.40539414E+05</totfact>
</mgrwt>
</event>
<event>
 5    1  0.1721815E-001  0.1031582E+03  0.7546771E-02  0.1273791E+00
         21   -1    0    0  501  502  0.00000000000E+00  0.00000000000E+00  0.10262388326E+02  0.10262388326E+02  0.00000000000E+00 0.  1.
         21   -1    0    0  502  503 -0.00000000000E+00 -0.00000000000E+00 -0.27217629763E+04  0.27217629763E+04  0.00000000000E+00 0.  1.
         24    1    1    2    0    0  0.69038692203E+02  0.15368720186E+02 -0.19871633533E+04  0.19900472224E+04  0.80419002446E+02 0.  1.
          1    1    1    2  501    0  0.55420596476E+01 -0.23548223007E+02 -0.14536511070E+02  0.28223100220E+02  0.00000000000E+00 0. -1.
         -2    1    1    2    0  503 -0.74580751851E+02  0.81795028206E+01 -0.70980072356E+03  0.71375504200E+03  0.00000000000E+00 0.  1.
<mgrwt>
<rscale>  2 0.10315824E+03</rscale>
<asrwt>0</asrwt>
<pdfrwt beam="1">  1       21 0.15788253E-02 0.10315824E+03</pdfrwt>
<pdfrwt beam="2">  1       21 0.41873373E+00 0.10315824E+03</pdfrwt>
<totfact> 0.13966174E+04</totfact>
</mgrwt>
</event>
<event>
 5    1  0.1721815E-001  0.2056885E+03  0.7546771E-02  0.1145026E+00
         21   -1    0    0  501  502  0.00000000000E+00  0.00000000000E+00  0.30674002551E+03  0.30674002551E+03  0.00000000000E+00 0. -1.
         21   -1    0    0  502  503 -0.00000000000E+00 -0.00000000000E+00 -0.15309790846E+03  0.15309790846E+03  0.00000000000E+00 0.  1.
         24    1    1    2    0    0 -0.80436001826E+00 -0.11023529920E+03  0.55431900376E+01  0.13656650796E+03  0.80419002446E+02 0. -1.
          1    1    1    2  501    0 -0.20407709654E+02  0.19065943282E+03  0.14435594143E+03  0.24001277416E+03  0.00000000000E+00 0. -1.
         -2    1    1    2    0  503  0.21212069672E+02 -0.80424133616E+02  0.37429855938E+01  0.83258651855E+02  0.00000000000E+00 0.  1.
<mgrwt>
<rscale>  2 0.20568848E+03</rscale>
<asrwt>0</asrwt>
<pdfrwt beam="1">  1       21 0.47190773E-01 0.20568848E+03</pdfrwt>
<pdfrwt beam="2">  1       21 0.23553524E-01 0.20568848E+03</pdfrwt>
<totfact> 0.72476397E+04</totfact>
</mgrwt>
</event>
<event>
 5    1  0.1721815E-001  0.9349711E+02  0.7546771E-02  0.1294597E+00
         21   -1    0    0  501  502  0.00000000000E+00  0.00000000000E+00  0.80689962448E+01  0.80689962448E+01  0.00000000000E+00 0.  1.
         21   -1    0    0  502  503 -0.00000000000E+00 -0.00000000000E+00 -0.23196750879E+04  0.23196750879E+04  0.00000000000E+00 0. -1.
         24    1    1    2    0    0 -0.35820273436E+02  0.56966795824E+02 -0.20552861935E+04  0.20579593925E+04  0.80419002446E+02 0. -1.
          1    1    1    2  501    0  0.26872031307E+02 -0.25563591181E+01 -0.58573495770E+02  0.64494150473E+02  0.00000000000E+00 0. -1.
         -2    1    1    2    0  503  0.89482421288E+01 -0.54410436706E+02 -0.19774640237E+03  0.20529054121E+03  0.00000000000E+00 0.  1.
<mgrwt>
<rscale>  2 0.93497114E+02</rscale>
<asrwt>0</asrwt>
<pdfrwt beam="1">  1       21 0.12413843E-02 0.93497114E+02</pdfrwt>
<pdfrwt beam="2">  1       21 0.35687301E+00 0.93497114E+02</pdfrwt>
<totfact> 0.48628195E+04</totfact>
</mgrwt>
</event>
<event>
 5    1  0.1721815E-001  0.1111933E+03  0.7546771E-02  0.1258376E+00
         21   -1    0    0  501  502  0.00000000000E+00  0.00000000000E+00  0.72938559141E+03  0.72938559141E+03  0.00000000000E+00 0.  1.
         21   -1    0    0  502  503 -0.00000000000E+00 -0.00000000000E+00 -0.40652469898E+02  0.40652469898E+02  0.00000000000E+00 0.  1.
         24    1    1    2    0    0  0.71379778902E+02  0.65152322801E+02  0.12467082230E+03  0.17705910846E+03  0.80419002446E+02 0.  1.
          1    1    1    2  501    0 -0.23181799218E+02 -0.20012874675E+02  0.50012805461E+03  0.50106484807E+03  0.00000000000E+00 0. -1.
         -2    1    1    2    0  503 -0.48197979684E+02 -0.45139448126E+02  0.63934244600E+02  0.91914104768E+02  0.00000000000E+00 0.  1.
<mgrwt>
<rscale>  2 0.11119332E+03</rscale>
<asrwt>0</asrwt>
<pdfrwt beam="1">  1       21 0.11221316E+00 0.11119332E+03</pdfrwt>
<pdfrwt beam="2">  1       21 0.62542267E-02 0.11119332E+03</pdfrwt>
<totfact> 0.11832941E+05</totfact>
</mgrwt>
</event>
<event>
 5    1  0.1721815E-001  0.1335371E+03  0.7546771E-02  0.1222300E+00
         21   -1    0    0  501  502  0.00000000000E+00  0.00000000000E+00  0.18968417543E+02  0.18968417543E+02  0.00000000000E+00 0. -1.
         21   -1    0    0  502  503 -0.00000000000E+00 -0.00000000000E+00 -0.10468780951E+04  0.10468780951E+04  0.00000000000E+00 0.  1.
         24    1    1    2    0    0 -0.13724998494E+02  0.50572816444E+02 -0.31783753976E+03  0.33201491380E+03  0.80419002446E+02 0. -1.
          1    1    1    2  501    0  0.28795498987E+02 -0.10797111555E+03 -0.31299453046E+03  0.33234397640E+03  0.00000000000E+00 0. -1.
         -2    1    1    2    0  503 -0.15070500493E+02  0.57398299108E+02 -0.39707760737E+03  0.40148762248E+03  0.00000000000E+00 0.  1.
<mgrwt>
<rscale>  2 0.13353710E+03</rscale>
<asrwt>0</asrwt>
<pdfrwt beam="1">  1       21 0.29182167E-02 0.13353710E+03</pdfrwt>
<pdfrwt beam="2">  1       21 0.16105825E+00 0.13353710E+03</pdfrwt>
<totfact> 0.16814361E+05</totfact>
</mgrwt>
</event>
<event>
 5    1  0.1721815E-001  0.1290162E+03  0.7546771E-02  0.1228923E+00
         21   -1    0    0  503  502  0.00000000000E+00  0.00000000000E+00  0.57745022271E+02  0.57745022271E+02  0.00000000000E+00 0. -1.
         21   -1    0    0  501  503 -0.00000000000E+00 -0.00000000000E+00 -0.28889022883E+03  0.28889022883E+03  0.00000000000E+00 0. -1.
         24    1    1    2    0    0 -0.29788035023E+02  0.67778104972E+02 -0.10350264568E+03  0.15053641474E+03  0.80419002446E+02 0. -1.
          1    1    1    2  501    0 -0.24005602442E+01 -0.10183448413E+03 -0.91409917075E+02  0.13686415815E+03  0.00000000000E+00 0. -1.
         -2    1    1    2    0  502  0.32188595267E+02  0.34056379154E+02 -0.36232643804E+02  0.59234678216E+02  0.00000000000E+00 0.  1.
<mgrwt>
<rscale>  2 0.12901623E+03</rscale>
<asrwt>0</asrwt>
<pdfrwt beam="1">  1       21 0.88838496E-02 0.12901623E+03</pdfrwt>
<pdfrwt beam="2">  1       21 0.44444650E-01 0.12901623E+03</pdfrwt>
<totfact> 0.49003681E+05</totfact>
</mgrwt>
</event>
<event>
 5    1  0.1721815E-001  0.9318177E+02  0.7546771E-02  0.1295324E+00
         21   -1    0    0  503  502  0.00000000000E+00  0.00000000000E+00  0.15522893818E+02  0.15522893818E+02  0.00000000000E+00 0. -1.
         21   -1    0    0  501  503 -0.00000000000E+00 -0.00000000000E+00 -0.80993236949E+03  0.80993236949E+03  0.00000000000E+00 0.  1.
         24    1    1    2    0    0  0.82579367884E+01 -0.69900337413E+01 -0.54230624287E+03  0.54834326029E+03  0.80419002446E+02 0.  1.
          1    1    1    2  501    0  0.35701522986E+02 -0.30875654430E+02 -0.17098493681E+03  0.17738025086E+03  0.00000000000E+00 0. -1.
         -2    1    1    2    0  502 -0.43959459774E+02  0.37865688172E+02 -0.81118295995E+02  0.99731752163E+02  0.00000000000E+00 0.  1.
<mgrwt>
<rscale>  2 0.93181773E+02</rscale>
<asrwt>0</asrwt>
<pdfrwt beam="1">  1       21 0.23881372E-02 0.93181773E+02</pdfrwt>
<pdfrwt beam="2">  1       21 0.12460500E+00 0.93181773E+02</pdfrwt>
<totfact> 0.45320364E+05</totfact>
</mgrwt>
</event>
<event>
 5    1  0.1721815E-001  0.1368724E+03  0.7546771E-02  0.1217600E+00
         21   -1    0    0  501  502  0.00000000000E+00  0.00000000000E+00  0.62620940989E+02  0.62620940989E+02  0.00000000000E+00 0. -1.
         21   -1    0    0  502  503 -0.00000000000E+00 -0.00000000000E+00 -0.42615100614E+03  0.42615100614E+03  0.00000000000E+00 0.  1.
         24    1    1    2    0    0 -0.73794611663E+02  0.11013006257E+02 -0.15628522100E+03  0.19094296865E+03  0.80419002446E+02 0.  1.
          1    1    1    2  501    0  0.15301682289E+02  0.65766052149E+02  0.18319154752E+01  0.67547546294E+02  0.00000000000E+00 0. -1.
         -2    1    1    2    0  503  0.58492929374E+02 -0.76779058405E+02 -0.20907675963E+03  0.23028143219E+03  0.00000000000E+00 0.  1.
<mgrwt>
<rscale>  2 0.13687235E+03</rscale>
<asrwt>0</asrwt>
<pdfrwt beam="1">  1       21 0.96339908E-02 0.13687235E+03</pdfrwt>
<pdfrwt beam="2">  1       21 0.65561694E-01 0.13687235E+03</pdfrwt>
<totfact> 0.18848841E+05</totfact>
</mgrwt>
</event>
<event>
 5    1  0.1721815E-001  0.1422661E+03  0.7546771E-02  0.1210312E+00
         21   -1    0    0  503  502  0.00000000000E+00  0.00000000000E+00  0.14986028783E+02  0.14986028783E+02  0.00000000000E+00 0.  1.
         21   -1    0    0  501  503 -0.00000000000E+00 -0.00000000000E+00 -0.13887937324E+04  0.13887937324E+04  0.00000000000E+00 0. -1.
         24    1    1    2    0    0 -0.27479737058E+02 -0.15481573939E+02 -0.38457423436E+03  0.39415653333E+03  0.80419002446E+02 0.  0.
          1    1    1    2  501    0  0.56120576636E+02 -0.80417921329E+02 -0.39313805043E+03  0.40518401732E+03  0.00000000000E+00 0. -1.
         -2    1    1    2    0  502 -0.28640839578E+02  0.95899495268E+02 -0.59609541882E+03  0.60443921053E+03  0.00000000000E+00 0.  1.
<mgrwt>
<rscale>  2 0.14226607E+03</rscale>
<asrwt>0</asrwt>
<pdfrwt beam="1">  1       21 0.23055424E-02 0.14226607E+03</pdfrwt>
<pdfrwt beam="2">  1       21 0.21366062E+00 0.14226607E+03</pdfrwt>
<totfact> 0.11089326E+05</totfact>
</mgrwt>
</event>
<event>
 5    1  0.1721815E-001  0.1543323E+03  0.7546771E-02  0.1195248E+00
         21   -1    0    0  501  502  0.00000000000E+00  0.00000000000E+00  0.11188119271E+03  0.11188119271E+03  0.00000000000E+00 0. -1.
         21   -1    0    0  502  503 -0.00000000000E+00 -0.00000000000E+00 -0.21689272887E+03  0.21689272887E+03  0.00000000000E+00 0.  1.
         24    1    1    2    0    0 -0.41861713982E+02 -0.12771953627E+02 -0.48486590157E+02  0.10360352927E+03  0.80419002446E+02 0.  1.
          1    1    1    2  501    0  0.90398342134E+02 -0.74569539291E+02 -0.40410933501E+02  0.12395773472E+03  0.00000000000E+00 0. -1.
         -2    1    1    2    0  503 -0.48536628152E+02  0.87341492918E+02 -0.16114012502E+02  0.10121265759E+03  0.00000000000E+00 0.  1.
<mgrwt>
<rscale>  2 0.15433232E+03</rscale>
<asrwt>0</asrwt>
<pdfrwt beam="1">  1       21 0.17212491E-01 0.15433232E+03</pdfrwt>
<pdfrwt beam="2">  1       21 0.33368112E-01 0.15433232E+03</pdfrwt>
<totfact> 0.26622528E+05</totfact>
</mgrwt>
</event>
<event>
 5    1  0.1721815E-001  0.1008490E+03  0.7546771E-02  0.1278521E+00
         21   -1    0    0  501  502  0.00000000000E+00  0.00000000000E+00  0.17798177401E+03  0.17798177401E+03  0.00000000000E+00 0.  1.
         21   -1    0    0  502  503 -0.00000000000E+00 -0.00000000000E+00 -0.10837398860E+03  0.10837398860E+03  0.00000000000E+00 0.  1.
         24    1    1    2    0    0 -0.23113055282E+02  0.58401729902E+02 -0.62837483131E+02  0.11983630761E+03  0.80419002446E+02 0.  1.
          1    1    1    2  501    0  0.14468965298E+02  0.17816095430E+02  0.42553458901E+02  0.48348330660E+02  0.00000000000E+00 0. -1.
         -2    1    1    2    0  503  0.86440899839E+01 -0.76217825332E+02  0.89891809634E+02  0.11817112435E+03  0.00000000000E+00 0.  1.
<mgrwt>
<rscale>  2 0.10084896E+03</rscale>
<asrwt>0</asrwt>
<pdfrwt beam="1">  1       21 0.27381811E-01 0.10084896E+03</pdfrwt>
<pdfrwt beam="2">  1       21 0.16672921E-01 0.10084896E+03</pdfrwt>
<totfact> 0.41653161E+05</totfact>
</mgrwt>
</event>
<event>
 5    1  0.1721815E-001  0.7267107E+02  0.7546771E-02  0.1351238E+00
         21   -1    0    0  503  502  0.00000000000E+00  0.00000000000E+00  0.51171244120E+03  0.51171244120E+03  0.00000000000E+00 0. -1.
         21   -1    0    0  501  503 -0.00000000000E+00 -0.00000000000E+00 -0.15605869443E+02  0.15605869443E+02  0.00000000000E+00 0.  1.
         24    1    1    2    0    0 -0.20891641980E+02 -0.43381056152E+02  0.14678187018E+03  0.17415656779E+03  0.80419002446E+02 0.  1.
          1    1    1    2  501    0  0.18813310623E+02  0.17652493810E+02  0.19379802437E+03  0.19550760969E+03  0.00000000000E+00 0. -1.
         -2    1    1    2    0  502  0.20783313569E+01  0.25728562343E+02  0.15552667720E+03  0.15765413316E+03  0.00000000000E+00 0.  1.
<mgrwt>
<rscale>  2 0.72671070E+02</rscale>
<asrwt>0</asrwt>
<pdfrwt beam="1">  1       21 0.78724978E-01 0.72671070E+02</pdfrwt>
<pdfrwt beam="2">  1       21 0.24009034E-02 0.72671070E+02</pdfrwt>
<totfact> 0.12921238E+06</totfact>
</mgrwt>
</event>
<event>
 5    1  0.1721815E-001  0.1266223E+03  0.7546771E-02  0.1232555E+00
         21   -1    0    0  501  502  0.00000000000E+00  0.00000000000E+00  0.86284893157E+02  0.86284893157E+02  0.00000000000E+00 0. -1.
         21   -1    0    0  502  503 -0.00000000000E+00 -0.00000000000E+00 -0.19995692311E+03  0.19995692311E+03  0.00000000000E+00 0.  1.
         24    1    1    2    0    0 -0.24722951813E+02 -0.44229816157E+02 -0.78581753840E+02  0.12332805429E+03  0.80419002446E+02 0.  0.
          1    1    1    2  501    0  0.10231088257E+02  0.10002504537E+03 -0.30564585873E+02  0.10508986049E+03  0.00000000000E+00 0. -1.
         -2    1    1    2    0  503  0.14491863555E+02 -0.55795229211E+02 -0.45256902435E+01  0.57823901496E+02  0.00000000000E+00 0.  1.
<mgrwt>
<rscale>  2 0.12662229E+03</rscale>
<asrwt>0</asrwt>
<pdfrwt beam="1">  1       21 0.13274599E-01 0.12662229E+03</pdfrwt>
<pdfrwt beam="2">  1       21 0.30762604E-01 0.12662229E+03</pdfrwt>
<totfact> 0.50080962E+05</totfact>
</mgrwt>
</event>
<event>
 5    1  0.1721815E-001  0.1128784E+03  0.7546771E-02  0.1255331E+00
         21   -1    0    0  501  502  0.00000000000E+00  0.00000000000E+00  0.60169016417E+03  0.60169016417E+03  0.00000000000E+00 0. -1.
         21   -1    0    0  502  503 -0.00000000000E+00 -0.00000000000E+00 -0.43208639053E+02  0.43208639053E+02  0.00000000000E+00 0.  1.
         24    1    1    2    0    0  0.11818778383E+02 -0.34659589257E+02  0.22995078668E+02  0.91306956182E+02  0.80419002446E+02 0.  1.
          1    1    1    2  501    0 -0.45657965247E+02  0.73095365959E+02  0.38836688985E+03  0.39781455912E+03  0.00000000000E+00 0. -1.
         -2    1    1    2    0  503  0.33839186864E+02 -0.38435776703E+02  0.14711955660E+03  0.15577728792E+03  0.00000000000E+00 0.  1.
<mgrwt>
<rscale>  2 0.11287837E+03</rscale>
<asrwt>0</asrwt>
<pdfrwt beam="1">  1       21 0.92567711E-01 0.11287837E+03</pdfrwt>
<pdfrwt beam="2">  1       21 0.66474834E-02 0.11287837E+03</pdfrwt>
<totfact> 0.16727934E+05</totfact>
</mgrwt>
</event>
<event>
 5    1  0.1721815E-001  0.8354928E+02  0.7546771E-02  0.1319271E+00
         21   -1    0    0  501  502  0.00000000000E+00  0.00000000000E+00  0.91135181916E+02  0.91135181916E+02  0.00000000000E+00 0. -1.
         21   -1    0    0  502  503 -0.00000000000E+00 -0.00000000000E+00 -0.36357894262E+03  0.36357894262E+03  0.00000000000E+00 0.  1.
         24    1    1    2    0    0  0.13176384345E+02  0.31892690312E+02 -0.19346423842E+03  0.21233555590E+03  0.80419002446E+02 0.  1.
          1    1    1    2  501    0  0.15447952514E+02  0.16976769488E+02  0.74936667362E+02  0.78373171777E+02  0.00000000000E+00 0. -1.
         -2    1    1    2    0  503 -0.28624336859E+02 -0.48869459800E+02 -0.15391618964E+03  0.16400539685E+03  0.00000000000E+00 0.  1.
<mgrwt>
<rscale>  2 0.83549276E+02</rscale>
<asrwt>0</asrwt>
<pdfrwt beam="1">  1       21 0.14020797E-01 0.83549276E+02</pdfrwt>
<pdfrwt beam="2">  1       21 0.55935221E-01 0.83549276E+02</pdfrwt>
<totfact> 0.13888181E+05</totfact>
</mgrwt>
</event>
<event>
 5    1  0.1721815E-001  0.1808158E+03  0.7546771E-02  0.1167016E+00
         21   -1    0    0  501  502  0.00000000000E+00  0.00000000000E+00  0.27570598925E+03  0.27570598925E+03  0.00000000000E+00 0.  1.
         21   -1    0    0  502  503 -0.00000000000E+00 -0.00000000000E+00 -0.28494214646E+03  0.28494214646E+03  0.00000000000E+00 0. -1.
         24    1    1    2    0    0 -0.12451955292E+00  0.16758438223E+02 -0.18550326351E+03  0.20287813456E+03  0.80419002446E+02 0. -1.
          1    1    1    2  501    0  0.76350519211E+02  0.10861042893E+03  0.16332447516E+03  0.21047686629E+03  0.00000000000E+00 0. -1.
         -2    1    1    2    0  503 -0.76225999658E+02 -0.12536886716E+03  0.12942631137E+02  0.14729313486E+03  0.00000000000E+00 0.  1.
<mgrwt>
<rscale>  2 0.18081581E+03</rscale>
<asrwt>0</asrwt>
<pdfrwt beam="1">  1       21 0.42416306E-01 0.18081581E+03</pdfrwt>
<pdfrwt beam="2">  1       21 0.43837253E-01 0.18081581E+03</pdfrwt>
<totfact> 0.26914210E+04</totfact>
</mgrwt>
</event>
<event>
 5    1  0.1721815E-001  0.2970158E+03  0.7546771E-02  0.1086742E+00
         21   -1    0    0  503  502  0.00000000000E+00  0.00000000000E+00  0.93360186255E+02  0.93360186255E+02  0.00000000000E+00 0.  1.
         21   -1    0    0  501  503 -0.00000000000E+00 -0.00000000000E+00 -0.11479042755E+04  0.11479042755E+04  0.00000000000E+00 0. -1.
         24    1    1    2    0    0  0.24868914321E+02  0.14717685364E+03 -0.37252956034E+03  0.40929815346E+03  0.80419002446E+02 0.  0.
          1    1    1    2  501    0  0.13046815944E+03  0.77188966895E+02 -0.44638771333E+03  0.47142556978E+03  0.00000000000E+00 0. -1.
         -2    1    1    2    0  502 -0.15533707376E+03 -0.22436582053E+03 -0.23562681559E+03  0.36054073852E+03  0.00000000000E+00 0.  1.
<mgrwt>
<rscale>  2 0.29701579E+03</rscale>
<asrwt>0</asrwt>
<pdfrwt beam="1">  1       21 0.14363106E-01 0.29701579E+03</pdfrwt>
<pdfrwt beam="2">  1       21 0.17660065E+00 0.29701579E+03</pdfrwt>
<totfact> 0.75913360E+03</totfact>
</mgrwt>
</event>
<event>
 5    1  0.1721815E-001  0.3130102E+03  0.7546771E-02  0.1078912E+00
         21   -1    0    0  503  502  0.00000000000E+00  0.00000000000E+00  0.22462751349E+03  0.22462751349E+03  0.00000000000E+00 0.  1.
         21   -1    0    0  501  503 -0.00000000000E+00 -0.00000000000E+00 -0.52406097043E+03  0.52406097043E+03  0.00000000000E+00 0. -1.
         24    1    1    2    0    0 -0.54593593624E+02 -0.72452424958E+02 -0.19796849157E+03  0.23213908321E+03  0.80419002446E+02 0. -1.
          1    1    1    2  501    0 -0.10269687150E+03 -0.18006409410E+03 -0.20940438029E+02  0.20834641189E+03  0.00000000000E+00 0. -1.
         -2    1    1    2    0  502  0.15729046513E+03  0.25251651906E+03 -0.80524527345E+02  0.30820298883E+03  0.00000000000E+00 0.  1.
<mgrwt>
<rscale>  2 0.31301021E+03</rscale>
<asrwt>0</asrwt>
<pdfrwt beam="1">  1       21 0.34558079E-01 0.31301021E+03</pdfrwt>
<pdfrwt beam="2">  1       21 0.80624764E-01 0.31301021E+03</pdfrwt>
<totfact> 0.10205775E+04</totfact>
</mgrwt>
</event>
<event>
 5    1  0.1721815E-001  0.6550809E+02  0.7546771E-02  0.1376070E+00
         21   -1    0    0  503  502  0.00000000000E+00  0.00000000000E+00  0.82749193709E+02  0.82749193709E+02  0.00000000000E+00 0.  1.
         21   -1    0    0  501  503 -0.00000000000E+00 -0.00000000000E+00 -0.10527857133E+03  0.10527857133E+03  0.00000000000E+00 0. -1.
         24    1    1    2    0    0  0.23500831886E+02 -0.13410819432E+01 -0.78468567024E+02  0.11479816882E+03  0.80419002446E+02 0. -1.
          1    1    1    2  501    0 -0.65903563786E+01  0.20579435500E+02  0.24183226775E+02  0.32431071828E+02  0.00000000000E+00 0. -1.
         -2    1    1    2    0  502 -0.16910475508E+02 -0.19238353557E+02  0.31755962630E+02  0.40798524385E+02  0.00000000000E+00 0.  1.
<mgrwt>
<rscale>  2 0.65508090E+02</rscale>
<asrwt>0</asrwt>
<pdfrwt beam="1">  1       21 0.12730645E-01 0.65508090E+02</pdfrwt>
<pdfrwt beam="2">  1       21 0.16196703E-01 0.65508090E+02</pdfrwt>
<totfact> 0.17481234E+06</totfact>
</mgrwt>
</event>
<event>
 5    1  0.1721815E-001  0.1016701E+03  0.7546771E-02  0.1276823E+00
         21   -1    0    0  503  502  0.00000000000E+00  0.00000000000E+00  0.14134281646E+02  0.14134281646E+02  0.00000000000E+00 0. -1.
         21   -1    0    0  501  503 -0.00000000000E+00 -0.00000000000E+00 -0.12645957408E+04  0.12645957408E+04  0.00000000000E+00 0.  1.
         24    1    1    2    0    0 -0.59051133114E+02  0.10741003601E+02 -0.92839417271E+03  0.93380156423E+03  0.80419002446E+02 0.  1.
          1    1    1    2  501    0  0.42622556364E+02 -0.46840805853E+02 -0.28015787673E+03  0.28722670366E+03  0.00000000000E+00 0. -1.
         -2    1    1    2    0  502  0.16428576750E+02  0.36099802252E+02 -0.41909409740E+02  0.57701754578E+02  0.00000000000E+00 0.  1.
<mgrwt>
<rscale>  2 0.10167009E+03</rscale>
<asrwt>0</asrwt>
<pdfrwt beam="1">  1       21 0.21745049E-02 0.10167009E+03</pdfrwt>
<pdfrwt beam="2">  1       21 0.19455319E+00 0.10167009E+03</pdfrwt>
<totfact> 0.16470062E+05</totfact>
</mgrwt>
</event>
<event>
 5    1  0.1721815E-001  0.7931226E+02  0.7546771E-02  0.1331015E+00
         21   -1    0    0  501  502  0.00000000000E+00  0.00000000000E+00  0.28077175929E+02  0.28077175929E+02  0.00000000000E+00 0.  1.
         21   -1    0    0  502  503 -0.00000000000E+00 -0.00000000000E+00 -0.26856427839E+03  0.26856427839E+03  0.00000000000E+00 0. -1.
         24    1    1    2    0    0 -0.13463371475E+01  0.19910798394E+02 -0.18413914813E+03  0.20192249588E+03  0.80419002446E+02 0. -1.
          1    1    1    2  501    0 -0.26896160668E+02  0.15052046241E+02 -0.27548880169E+02  0.41338944752E+02  0.00000000000E+00 0. -1.
         -2    1    1    2    0  503  0.28242497815E+02 -0.34962844635E+02 -0.28799074160E+02  0.53380013678E+02  0.00000000000E+00 0.  1.
<mgrwt>
<rscale>  2 0.79312256E+02</rscale>
<asrwt>0</asrwt>
<pdfrwt beam="1">  1       21 0.43195654E-02 0.79312256E+02</pdfrwt>
<pdfrwt beam="2">  1       21 0.41317582E-01 0.79312256E+02</pdfrwt>
<totfact> 0.19049709E+06</totfact>
</mgrwt>
</event>
<event>
 5    1  0.1721815E-001  0.7404285E+02  0.7546771E-02  0.1346861E+00
         21   -1    0    0  503  502  0.00000000000E+00  0.00000000000E+00  0.23236386899E+03  0.23236386899E+03  0.00000000000E+00 0.  1.
         21   -1    0    0  501  503 -0.00000000000E+00 -0.00000000000E+00 -0.19426348281E+03  0.19426348281E+03  0.00000000000E+00 0. -1.
         24    1    1    2    0    0 -0.37675939777E+01 -0.94945258446E+01 -0.18045153437E+03  0.19782394445E+03  0.80419002446E+02 0. -1.
          1    1    1    2  501    0 -0.22012328900E+01  0.37915616841E+02  0.10728877039E+03  0.11381265166E+03  0.00000000000E+00 0. -1.
         -2    1    1    2    0  502  0.59688268677E+01 -0.28421090996E+02  0.11126315017E+03  0.11499075569E+03  0.00000000000E+00 0.  1.
<mgrwt>
<rscale>  2 0.74042848E+02</rscale>
<asrwt>0</asrwt>
<pdfrwt beam="1">  1       21 0.35748288E-01 0.74042848E+02</pdfrwt>
<pdfrwt beam="2">  1       21 0.29886690E-01 0.74042848E+02</pdfrwt>
<totfact> 0.85666653E+04</totfact>
</mgrwt>
</event>
<event>
 5    1  0.1721815E-001  0.1131774E+03  0.7546771E-02  0.1254796E+00
         21   -1    0    0  503  502  0.00000000000E+00  0.00000000000E+00  0.20738715800E+03  0.20738715800E+03  0.00000000000E+00 0. -1.
         21   -1    0    0  501  503 -0.00000000000E+00 -0.00000000000E+00 -0.64122398096E+02  0.64122398096E+02  0.00000000000E+00 0.  1.
         24    1    1    2    0    0  0.49742802742E+02 -0.14805163715E+02  0.86159010025E+02  0.12877938601E+03  0.80419002446E+02 0. -1.
          1    1    1    2  501    0 -0.50820170362E+02 -0.46765393215E+02  0.33766565856E+02  0.76875696341E+02  0.00000000000E+00 0. -1.
         -2    1    1    2    0  502  0.10773676194E+01  0.61570556930E+02  0.23339184022E+02  0.65854473747E+02  0.00000000000E+00 0.  1.
<mgrwt>
<rscale>  2 0.11317739E+03</rscale>
<asrwt>0</asrwt>
<pdfrwt beam="1">  1       21 0.31905716E-01 0.11317739E+03</pdfrwt>
<pdfrwt beam="2">  1       21 0.98649844E-02 0.11317739E+03</pdfrwt>
<totfact> 0.78769371E+05</totfact>
</mgrwt>
</event>
<event>
 5    1  0.1721815E-001  0.7090752E+02  0.7546771E-02  0.1357034E+00
         21   -1    0    0  503  502  0.00000000000E+00  0.00000000000E+00  0.37672952081E+03  0.37672952081E+03  0.00000000000E+00 0. -1.
         21   -1    0    0  501  503 -0.00000000000E+00 -0.00000000000E+00 -0.39879692604E+02  0.39879692604E+02  0.00000000000E+00 0.  1.
         24    1    1    2    0    0  0.29629582126E+02  0.21313809609E+02  0.14164948875E+02  0.89443011734E+02  0.80419002446E+02 0.  1.
          1    1    1    2  501    0 -0.33278785700E+02 -0.14561662615E+01  0.17947078211E+03  0.18253591326E+03  0.00000000000E+00 0. -1.
         -2    1    1    2    0  502  0.36492035740E+01 -0.19857643348E+02  0.14321409722E+03  0.14463028842E+03  0.00000000000E+00 0.  1.
<mgrwt>
<rscale>  2 0.70907520E+02</rscale>
<asrwt>0</asrwt>
<pdfrwt beam="1">  1       21 0.57958386E-01 0.70907520E+02</pdfrwt>
<pdfrwt beam="2">  1       21 0.61353376E-02 0.70907520E+02</pdfrwt>
<totfact> 0.53506334E+05</totfact>
</mgrwt>
</event>
<event>
 5    1  0.1721815E-001  0.1028851E+03  0.7546771E-02  0.1274343E+00
         21   -1    0    0  501  502  0.00000000000E+00  0.00000000000E+00  0.54840881392E+02  0.54840881392E+02  0.00000000000E+00 0.  1.
         21   -1    0    0  502  503 -0.00000000000E+00 -0.00000000000E+00 -0.22156992268E+03  0.22156992268E+03  0.00000000000E+00 0. -1.
         24    1    1    2    0    0 -0.50243577221E+02  0.17161681867E+02 -0.11627709356E+03  0.15101827312E+03  0.80419002446E+02 0. -1.
          1    1    1    2  501    0 -0.26154481943E+02  0.10458360572E+02  0.27229609215E+01  0.28299271152E+02  0.00000000000E+00 0. -1.
         -2    1    1    2    0  503  0.76398059164E+02 -0.27620042439E+02 -0.53174908655E+02  0.97093259801E+02  0.00000000000E+00 0.  1.
<mgrwt>
<rscale>  2 0.10288508E+03</rscale>
<asrwt>0</asrwt>
<pdfrwt beam="1">  1       21 0.84370588E-02 0.10288508E+03</pdfrwt>
<pdfrwt beam="2">  1       21 0.34087680E-01 0.10288508E+03</pdfrwt>
<totfact> 0.90732243E+05</totfact>
</mgrwt>
</event>
<event>
 5    1  0.1721815E-001  0.2216150E+03  0.7546771E-02  0.1132685E+00
         21   -1    0    0  501  502  0.00000000000E+00  0.00000000000E+00  0.36029295182E+03  0.36029295182E+03  0.00000000000E+00 0.  1.
         21   -1    0    0  502  503 -0.00000000000E+00 -0.00000000000E+00 -0.13830547230E+03  0.13830547230E+03  0.00000000000E+00 0. -1.
         24    1    1    2    0    0 -0.32934325607E+02  0.70180281872E+01  0.24224802388E+02  0.90487455086E+02  0.80419002446E+02 0.  1.
          1    1    1    2  501    0 -0.12825567972E+03 -0.10643103463E+03  0.10743758879E+03  0.19829251120E+03  0.00000000000E+00 0. -1.
         -2    1    1    2    0  503  0.16119000532E+03  0.99413006443E+02  0.90325088346E+02  0.20981845784E+03  0.00000000000E+00 0.  1.
<mgrwt>
<rscale>  2 0.22161505E+03</rscale>
<asrwt>0</asrwt>
<pdfrwt beam="1">  1       21 0.55429685E-01 0.22161505E+03</pdfrwt>
<pdfrwt beam="2">  1       21 0.21277765E-01 0.22161505E+03</pdfrwt>
<totfact> 0.62251230E+04</totfact>
</mgrwt>
</event>
<event>
 5    1  0.1721815E-001  0.9591871E+02  0.7546771E-02  0.1289120E+00
         21   -1    0    0  501  502  0.00000000000E+00  0.00000000000E+00  0.17124442643E+02  0.17124442643E+02  0.00000000000E+00 0.  1.
         21   -1    0    0  502  503 -0.00000000000E+00 -0.00000000000E+00 -0.73306271559E+03  0.73306271559E+03  0.00000000000E+00 0.  1.
         24    1    1    2    0    0 -0.46745915614E+02 -0.52290525809E+02 -0.53867547798E+03  0.54914293790E+03  0.80419002446E+02 0.  1.
          1    1    1    2  501    0 -0.31058942466E+01  0.30609328089E+02 -0.25905232519E+02  0.40220127014E+02  0.00000000000E+00 0. -1.
         -2    1    1    2    0  503  0.49851809861E+02  0.21681197720E+02 -0.15135756245E+03  0.16082409332E+03  0.00000000000E+00 0.  1.
<mgrwt>
<rscale>  2 0.95918712E+02</rscale>
<asrwt>0</asrwt>
<pdfrwt beam="1">  1       21 0.26345301E-02 0.95918712E+02</pdfrwt>
<pdfrwt beam="2">  1       21 0.11277886E+00 0.95918712E+02</pdfrwt>
<totfact> 0.49119382E+05</totfact>
</mgrwt>
</event>
<event>
 5    1  0.1721815E-001  0.2108639E+03  0.7546771E-02  0.1140884E+00
         21   -1    0    0  501  502  0.00000000000E+00  0.00000000000E+00  0.47554401350E+03  0.47554401350E+03  0.00000000000E+00 0.  1.
         21   -1    0    0  502  503 -0.00000000000E+00 -0.00000000000E+00 -0.11634897151E+03  0.11634897151E+03  0.00000000000E+00 0.  1.
         24    1    1    2    0    0 -0.17211940059E+03 -0.34780127226E+02  0.83830228930E+02  0.21054564480E+03  0.80419002446E+02 0.  1.
          1    1    1    2  501    0 -0.20521478071E+02  0.29426389031E+02  0.14330151282E+03  0.14772395544E+03  0.00000000000E+00 0. -1.
         -2    1    1    2    0  503  0.19264087866E+03  0.53537381960E+01  0.13206330024E+03  0.23362338477E+03  0.00000000000E+00 0.  1.
<mgrwt>
<rscale>  2 0.21086390E+03</rscale>
<asrwt>0</asrwt>
<pdfrwt beam="1">  1       21 0.73160616E-01 0.21086390E+03</pdfrwt>
<pdfrwt beam="2">  1       21 0.17899842E-01 0.21086390E+03</pdfrwt>
<totfact> 0.47236189E+04</totfact>
</mgrwt>
</event>
<event>
 5    1  0.1721815E-001  0.8976708E+02  0.7546771E-02  0.1303417E+00
         21   -1    0    0  501  502  0.00000000000E+00  0.00000000000E+00  0.14235134394E+02  0.14235134394E+02  0.00000000000E+00 0.  1.
         21   -1    0    0  502  503 -0.00000000000E+00 -0.00000000000E+00 -0.60660591566E+03  0.60660591566E+03  0.00000000000E+00 0.  1.
         24    1    1    2    0    0 -0.27193853978E+02  0.45755544118E+02 -0.39049917202E+03  0.40223114600E+03  0.80419002446E+02 0.  1.
          1    1    1    2  501    0 -0.11874746366E+02 -0.42231153757E+02 -0.12147987650E+03  0.12915819890E+03  0.00000000000E+00 0. -1.
         -2    1    1    2    0  503  0.39068600344E+02 -0.35243903618E+01 -0.80391732745E+02  0.89451705149E+02  0.00000000000E+00 0.  1.
<mgrwt>
<rscale>  2 0.89767080E+02</rscale>
<asrwt>0</asrwt>
<pdfrwt beam="1">  1       21 0.21900209E-02 0.89767080E+02</pdfrwt>
<pdfrwt beam="2">  1       21 0.93323977E-01 0.89767080E+02</pdfrwt>
<totfact> 0.10284495E+06</totfact>
</mgrwt>
</event>
<event>
 5    1  0.1721815E-001  0.1902631E+03  0.7546771E-02  0.1158224E+00
         21   -1    0    0  501  502  0.00000000000E+00  0.00000000000E+00  0.75631212444E+03  0.75631212444E+03  0.00000000000E+00 0.  1.
         21   -1    0    0  502  503 -0.00000000000E+00 -0.00000000000E+00 -0.47987263515E+02  0.47987263515E+02  0.00000000000E+00 0. -1.
         24    1    1    2    0    0  0.54317454033E+01 -0.10899919227E+03  0.23690273099E+03  0.27294770137E+03  0.80419002446E+02 0.  1.
          1    1    1    2  501    0 -0.88187105085E+02  0.13229238614E+03  0.29609709004E+03  0.33608291784E+03  0.00000000000E+00 0. -1.
         -2    1    1    2    0  503  0.82755359682E+02 -0.23293193870E+02  0.17532503989E+03  0.19526876875E+03  0.00000000000E+00 0.  1.
<mgrwt>
<rscale>  2 0.19026309E+03</rscale>
<asrwt>0</asrwt>
<pdfrwt beam="1">  1       21 0.11635570E+00 0.19026309E+03</pdfrwt>
<pdfrwt beam="2">  1       21 0.73826565E-02 0.19026309E+03</pdfrwt>
<totfact> 0.78687871E+04</totfact>
</mgrwt>
</event>
<event>
 5    1  0.1721815E-001  0.7476426E+02  0.7546771E-02  0.1344603E+00
         21   -1    0    0  503  502  0.00000000000E+00  0.00000000000E+00  0.67190639771E+03  0.67190639771E+03  0.00000000000E+00 0.  1.
         21   -1    0    0  501  503 -0.00000000000E+00 -0.00000000000E+00 -0.87444297363E+01  0.87444297363E+01  0.00000000000E+00 0.  1.
         24    1    1    2    0    0 -0.24983551298E+02  0.45122294440E+01  0.32086728734E+03  0.33176432914E+03  0.80419002446E+02 0.  1.
          1    1    1    2  501    0 -0.19737393394E+02 -0.54168255584E+01  0.69576912421E+02  0.72524847046E+02  0.00000000000E+00 0. -1.
         -2    1    1    2    0  502  0.44720944692E+02  0.90459611435E+00  0.27271776822E+03  0.27636165126E+03  0.00000000000E+00 0.  1.
<mgrwt>
<rscale>  2 0.74764260E+02</rscale>
<asrwt>0</asrwt>
<pdfrwt beam="1">  1       21 0.10337017E+00 0.74764260E+02</pdfrwt>
<pdfrwt beam="2">  1       21 0.13452974E-02 0.74764260E+02</pdfrwt>
<totfact> 0.17564605E+06</totfact>
</mgrwt>
</event>
<event>
 5    1  0.1721815E-001  0.9923937E+02  0.7546771E-02  0.1281904E+00
         21   -1    0    0  501  502  0.00000000000E+00  0.00000000000E+00  0.56019550236E+03  0.56019550236E+03  0.00000000000E+00 0. -1.
         21   -1    0    0  502  503 -0.00000000000E+00 -0.00000000000E+00 -0.22997054125E+02  0.22997054125E+02  0.00000000000E+00 0.  1.
         24    1    1    2    0    0  0.50793626103E+02 -0.25035784911E+01  0.13005673507E+03  0.16114661228E+03  0.80419002446E+02 0.  1.
          1    1    1    2  501    0 -0.49216944040E+02  0.41452825872E+02  0.32253253531E+03  0.32888885765E+03  0.00000000000E+00 0. -1.
         -2    1    1    2    0  503 -0.15766820631E+01 -0.38949247381E+02  0.84609177852E+02  0.93157086551E+02  0.00000000000E+00 0.  1.
<mgrwt>
<rscale>  2 0.99239371E+02</rscale>
<asrwt>0</asrwt>
<pdfrwt beam="1">  1       21 0.86183913E-01 0.99239371E+02</pdfrwt>
<pdfrwt beam="2">  1       21 0.35380087E-02 0.99239371E+02</pdfrwt>
<totfact> 0.56547269E+05</totfact>
</mgrwt>
</event>
<event>
 5    1  0.1721815E-001  0.9599852E+02  0.7546771E-02  0.1288943E+00
         21   -1    0    0  503  502  0.00000000000E+00  0.00000000000E+00  0.18355036061E+03  0.18355036061E+03  0.00000000000E+00 0. -1.
         21   -1    0    0  501  503 -0.00000000000E+00 -0.00000000000E+00 -0.66201509829E+02  0.66201509829E+02  0.00000000000E+00 0.  1.
         24    1    1    2    0    0 -0.39002448767E+02 -0.40656415676E+01  0.29104928345E+01  0.89517637224E+02  0.80419002446E+02 0.  1.
          1    1    1    2  501    0  0.16989879669E+02  0.49340781172E+02  0.25604249310E+02  0.58126984100E+02  0.00000000000E+00 0. -1.
         -2    1    1    2    0  502  0.22012569098E+02 -0.45275139605E+02  0.88834108634E+02  0.10210724911E+03  0.00000000000E+00 0.  1.
<mgrwt>
<rscale>  2 0.95998520E+02</rscale>
<asrwt>0</asrwt>
<pdfrwt beam="1">  1       21 0.28238517E-01 0.95998520E+02</pdfrwt>
<pdfrwt beam="2">  1       21 0.10184848E-01 0.95998520E+02</pdfrwt>
<totfact> 0.94016407E+05</totfact>
</mgrwt>
</event>
<event>
 5    1  0.1721815E-001  0.1364817E+03  0.7546771E-02  0.1218143E+00
         21   -1    0    0  503  502  0.00000000000E+00  0.00000000000E+00  0.13972779438E+03  0.13972779438E+03  0.00000000000E+00 0. -1.
         21   -1    0    0  501  503 -0.00000000000E+00 -0.00000000000E+00 -0.16030997806E+03  0.16030997806E+03  0.00000000000E+00 0.  1.
         24    1    1    2    0    0  0.66332629182E+02  0.77301665724E+02 -0.66983846693E+02  0.14604662574E+03  0.80419002446E+02 0.  1.
          1    1    1    2  501    0 -0.72274617928E+02 -0.69794688839E+01  0.64553781413E+01  0.72897224155E+02  0.00000000000E+00 0. -1.
         -2    1    1    2    0  502  0.59419887462E+01 -0.70322196840E+02  0.39946284872E+02  0.81093922545E+02  0.00000000000E+00 0.  1.
<mgrwt>
<rscale>  2 0.13648168E+03</rscale>
<asrwt>0</asrwt>
<pdfrwt beam="1">  1       21 0.21496584E-01 0.13648168E+03</pdfrwt>
<pdfrwt beam="2">  1       21 0.24663074E-01 0.13648168E+03</pdfrwt>
<totfact> 0.31699178E+05</totfact>
</mgrwt>
</event>
<event>
 5    1  0.1721815E-001  0.2304956E+03  0.7546771E-02  0.1126291E+00
         21   -1    0    0  503  502  0.00000000000E+00  0.00000000000E+00  0.32781353567E+03  0.32781353567E+03  0.00000000000E+00 0. -1.
         21   -1    0    0  501  503 -0.00000000000E+00 -0.00000000000E+00 -0.16356290416E+03  0.16356290416E+03  0.00000000000E+00 0.  1.
         24    1    1    2    0    0  0.70333871787E+02 -0.24889168742E+02  0.19858634727E+02  0.11148051654E+03  0.80419002446E+02 0.  0.
          1    1    1    2  501    0  0.12943211075E+03 -0.48862750042E+02  0.61117260663E+02  0.15124668323E+03  0.00000000000E+00 0. -1.
         -2    1    1    2    0  502 -0.19976598254E+03  0.73751918784E+02  0.83274736122E+02  0.22864924006E+03  0.00000000000E+00 0.  1.
<mgrwt>
<rscale>  2 0.23049563E+03</rscale>
<asrwt>0</asrwt>
<pdfrwt beam="1">  1       21 0.50432851E-01 0.23049563E+03</pdfrwt>
<pdfrwt beam="2">  1       21 0.25163524E-01 0.23049563E+03</pdfrwt>
<totfact> 0.55033033E+04</totfact>
</mgrwt>
</event>
<event>
 5    1  0.1721815E-001  0.9789854E+02  0.7546771E-02  0.1284778E+00
         21   -1    0    0  501  502  0.00000000000E+00  0.00000000000E+00  0.18084024026E+02  0.18084024026E+02  0.00000000000E+00 0. -1.
         21   -1    0    0  502  503 -0.00000000000E+00 -0.00000000000E+00 -0.94638657507E+03  0.94638657507E+03  0.00000000000E+00 0. -1.
         24    1    1    2    0    0  0.32648888927E+02  0.74029327090E+02 -0.81039743042E+03  0.81838713480E+03  0.80419002446E+02 0. -1.
          1    1    1    2  501    0 -0.20920388647E+02 -0.33215225655E+02 -0.33533704696E+02  0.51627736994E+02  0.00000000000E+00 0. -1.
         -2    1    1    2    0  503 -0.11728500281E+02 -0.40814101435E+02 -0.84371415931E+02  0.94455727306E+02  0.00000000000E+00 0.  1.
<mgrwt>
<rscale>  2 0.97898544E+02</rscale>
<asrwt>0</asrwt>
<pdfrwt beam="1">  1       21 0.27821568E-02 0.97898544E+02</pdfrwt>
<pdfrwt beam="2">  1       21 0.14559797E+00 0.97898544E+02</pdfrwt>
<totfact> 0.24012429E+05</totfact>
</mgrwt>
</event>
<event>
 5    1  0.1721815E-001  0.1258667E+03  0.7546771E-02  0.1233721E+00
         21   -1    0    0  503  502  0.00000000000E+00  0.00000000000E+00  0.24406995464E+02  0.24406995464E+02  0.00000000000E+00 0.  1.
         21   -1    0    0  501  503 -0.00000000000E+00 -0.00000000000E+00 -0.71648988018E+03  0.71648988018E+03  0.00000000000E+00 0. -1.
         24    1    1    2    0    0  0.31819728440E+02 -0.67052156059E+02 -0.41529247512E+03  0.42946890760E+03  0.80419002446E+02 0. -1.
          1    1    1    2  501    0 -0.27421081506E+02 -0.32572640193E+02 -0.94345472784E+02  0.10350826457E+03  0.00000000000E+00 0. -1.
         -2    1    1    2    0  502 -0.43986469336E+01  0.99624796251E+02 -0.18244493681E+03  0.20791970347E+03  0.00000000000E+00 0.  1.
<mgrwt>
<rscale>  2 0.12586674E+03</rscale>
<asrwt>0</asrwt>
<pdfrwt beam="1">  1       21 0.37549222E-02 0.12586674E+03</pdfrwt>
<pdfrwt beam="2">  1       21 0.11022922E+00 0.12586674E+03</pdfrwt>
<totfact> 0.28840494E+05</totfact>
</mgrwt>
</event>
<event>
 5    1  0.1721815E-001  0.1257569E+03  0.7546771E-02  0.1233891E+00
         21   -1    0    0  503  502  0.00000000000E+00  0.00000000000E+00  0.31692571723E+02  0.31692571723E+02  0.00000000000E+00 0. -1.
         21   -1    0    0  501  503 -0.00000000000E+00 -0.00000000000E+00 -0.61378905645E+03  0.61378905645E+03  0.00000000000E+00 0.  1.
         24    1    1    2    0    0  0.31556692053E+02 -0.24680937504E+02 -0.32905230342E+03  0.34109765146E+03  0.80419002446E+02 0.  1.
          1    1    1    2  501    0 -0.74145304557E+02  0.68226199480E+02 -0.19855886230E+03  0.22266109287E+03  0.00000000000E+00 0. -1.
         -2    1    1    2    0  502  0.42588612504E+02 -0.43545261976E+02 -0.54485319011E+02  0.81722883841E+02  0.00000000000E+00 0.  1.
<mgrwt>
<rscale>  2 0.12575690E+03</rscale>
<asrwt>0</asrwt>
<pdfrwt beam="1">  1       21 0.48757806E-02 0.12575690E+03</pdfrwt>
<pdfrwt beam="2">  1       21 0.94429079E-01 0.12575690E+03</pdfrwt>
<totfact> 0.26852877E+05</totfact>
</mgrwt>
</event>
<event>
 5    1  0.1721815E-001  0.1093063E+03  0.7546771E-02  0.1261860E+00
         21   -1    0    0  503  502  0.00000000000E+00  0.00000000000E+00  0.40178150307E+03  0.40178150307E+03  0.00000000000E+00 0. -1.
         21   -1    0    0  501  503 -0.00000000000E+00 -0.00000000000E+00 -0.53486752073E+02  0.53486752073E+02  0.00000000000E+00 0.  1.
         24    1    1    2    0    0  0.73757123979E+02 -0.83333253085E+00  0.25967534517E+02  0.11217101490E+03  0.80419002446E+02 0.  1.
          1    1    1    2  501    0 -0.59027322993E+02  0.37528682053E+02  0.13963350070E+03  0.15617343357E+03  0.00000000000E+00 0. -1.
         -2    1    1    2    0  502 -0.14729800986E+02 -0.36695349522E+02  0.18269371578E+03  0.18692380667E+03  0.00000000000E+00 0.  1.
<mgrwt>
<rscale>  2 0.10930626E+03</rscale>
<asrwt>0</asrwt>
<pdfrwt beam="1">  1       21 0.61812537E-01 0.10930626E+03</pdfrwt>
<pdfrwt beam="2">  1       21 0.82287314E-02 0.10930626E+03</pdfrwt>
<totfact> 0.28303855E+05</totfact>
</mgrwt>
</event>
<event>
 5    1  0.1721815E-001  0.1215538E+03  0.7546771E-02  0.1240556E+00
         21   -1    0    0  503  502  0.00000000000E+00  0.00000000000E+00  0.23152475176E+04  0.23152475176E+04  0.00000000000E+00 0.  1.
         21   -1    0    0  501  503 -0.00000000000E+00 -0.00000000000E+00 -0.83128924208E+01  0.83128924208E+01  0.00000000000E+00 0. -1.
         24    1    1    2    0    0 -0.31557663842E+02  0.15719499219E+02  0.59069429937E+03  0.59718503001E+03  0.80419002446E+02 0.  0.
          1    1    1    2  501    0 -0.27897923427E+02 -0.69649439245E+02  0.35864482375E+03  0.36640885377E+03  0.00000000000E+00 0. -1.
         -2    1    1    2    0  502  0.59455587269E+02  0.53929940026E+02  0.13575955021E+04  0.13599665262E+04  0.00000000000E+00 0.  1.
<mgrwt>
<rscale>  2 0.12155376E+03</rscale>
<asrwt>0</asrwt>
<pdfrwt beam="1">  1       21 0.35619141E+00 0.12155376E+03</pdfrwt>
<pdfrwt beam="2">  1       21 0.12789084E-02 0.12155376E+03</pdfrwt>
<totfact> 0.44525849E+04</totfact>
</mgrwt>
</event>
<event>
 5    1  0.1721815E-001  0.1561586E+03  0.7546771E-02  0.1193103E+00
         21   -1    0    0  503  502  0.00000000000E+00  0.00000000000E+00  0.28884622130E+03  0.28884622130E+03  0.00000000000E+00 0. -1.
         21   -1    0    0  501  503 -0.00000000000E+00 -0.00000000000E+00 -0.12638516007E+03  0.12638516007E+03  0.00000000000E+00 0.  1.
         24    1    1    2    0    0  0.72037920824E+01  0.26805079418E+02 -0.46831025392E+02  0.97112140315E+02  0.80419002446E+02 0.  1.
          1    1    1    2  501    0  0.82925756822E+02  0.59807233078E+02  0.45068772865E+02  0.11173531474E+03  0.00000000000E+00 0. -1.
         -2    1    1    2    0  502 -0.90129548904E+02 -0.86612312496E+02  0.16422331375E+03  0.20638392632E+03  0.00000000000E+00 0.  1.
<mgrwt>
<rscale>  2 0.15615856E+03</rscale>
<asrwt>0</asrwt>
<pdfrwt beam="1">  1       21 0.44437880E-01 0.15615856E+03</pdfrwt>
<pdfrwt beam="2">  1       21 0.19443871E-01 0.15615856E+03</pdfrwt>
<totfact> 0.11988968E+05</totfact>
</mgrwt>
</event>
<event>
 5    1  0.1721815E-001  0.1122575E+03  0.7546771E-02  0.1256446E+00
         21   -1    0    0  503  502  0.00000000000E+00  0.00000000000E+00  0.25515831153E+02  0.25515831153E+02  0.00000000000E+00 0.  1.
         21   -1    0    0  501  503 -0.00000000000E+00 -0.00000000000E+00 -0.53242473616E+03  0.53242473616E+03  0.00000000000E+00 0. -1.
         24    1    1    2    0    0  0.13964505809E+02 -0.35953283623E+02 -0.15419700699E+03  0.17813359859E+03  0.80419002446E+02 0. -1.
          1    1    1    2  501    0  0.29036122211E+02 -0.39174172333E+02 -0.18177445659E+03  0.18820112975E+03  0.00000000000E+00 0. -1.
         -2    1    1    2    0  502 -0.43000628020E+02  0.75127455956E+02 -0.17093744143E+03  0.19160583898E+03  0.00000000000E+00 0.  1.
<mgrwt>
<rscale>  2 0.11225751E+03</rscale>
<asrwt>0</asrwt>
<pdfrwt beam="1">  1       21 0.39255124E-02 0.11225751E+03</pdfrwt>
<pdfrwt beam="2">  1       21 0.81911500E-01 0.11225751E+03</pdfrwt>
<totfact> 0.53341821E+05</totfact>
</mgrwt>
</event>
<event>
 5    1  0.1721815E-001  0.1016766E+03  0.7546771E-02  0.1276809E+00
         21   -1    0    0  503  502  0.00000000000E+00  0.00000000000E+00  0.23975525627E+03  0.23975525627E+03  0.00000000000E+00 0.  1.
         21   -1    0    0  501  503 -0.00000000000E+00 -0.00000000000E+00 -0.19809304572E+03  0.19809304572E+03  0.00000000000E+00 0. -1.
         24    1    1    2    0    0  0.53421806015E+02  0.20680770597E+02 -0.10205058295E+03  0.14199690513E+03  0.80419002446E+02 0. -1.
          1    1    1    2  501    0 -0.63214049398E+02 -0.45532910157E+02 -0.54991997910E+02  0.95359224948E+02  0.00000000000E+00 0. -1.
         -2    1    1    2    0  502  0.97922433825E+01  0.24852139559E+02  0.19870479140E+03  0.20049217191E+03  0.00000000000E+00 0.  1.
<mgrwt>
<rscale>  2 0.10167661E+03</rscale>
<asrwt>0</asrwt>
<pdfrwt beam="1">  1       21 0.36885424E-01 0.10167661E+03</pdfrwt>
<pdfrwt beam="2">  1       21 0.30475853E-01 0.10167661E+03</pdfrwt>
<totfact> 0.76350730E+04</totfact>
</mgrwt>
</event>
<event>
 5    1  0.1721815E-001  0.1610169E+03  0.7546771E-02  0.1187553E+00
         21   -1    0    0  503  502  0.00000000000E+00  0.00000000000E+00  0.76943434916E+03  0.76943434916E+03  0.00000000000E+00 0.  1.
         21   -1    0    0  501  503 -0.00000000000E+00 -0.00000000000E+00 -0.51177989287E+02  0.51177989287E+02  0.00000000000E+00 0.  1.
         24    1    1    2    0    0  0.13513175130E+03 -0.56028874390E+02  0.12853626485E+03  0.21068605154E+03  0.80419002446E+02 0.  1.
          1    1    1    2  501    0 -0.64433271492E+02 -0.72815486980E+00  0.21916456730E+03  0.22844098635E+03  0.00000000000E+00 0. -1.
         -2    1    1    2    0  502 -0.70698479813E+02  0.56757029259E+02  0.37055552772E+03  0.38148530056E+03  0.00000000000E+00 0.  1.
<mgrwt>
<rscale>  2 0.16101692E+03</rscale>
<asrwt>0</asrwt>
<pdfrwt beam="1">  1       21 0.11837451E+00 0.16101692E+03</pdfrwt>
<pdfrwt beam="2">  1       21 0.78735374E-02 0.16101692E+03</pdfrwt>
<totfact> 0.68466131E+04</totfact>
</mgrwt>
</event>
<event>
 5    1  0.1721815E-001  0.1134291E+03  0.7546771E-02  0.1254348E+00
         21   -1    0    0  501  502  0.00000000000E+00  0.00000000000E+00  0.15048688235E+04  0.15048688235E+04  0.00000000000E+00 0. -1.
         21   -1    0    0  502  503 -0.00000000000E+00 -0.00000000000E+00 -0.10361616240E+02  0.10361616240E+02  0.00000000000E+00 0.  1.
         24    1    1    2    0    0  0.52384665623E+01 -0.24509669310E+02  0.34447019843E+03  0.35461965397E+03  0.80419002446E+02 0.  1.
          1    1    1    2  501    0 -0.45735279621E+02  0.68797438428E+02  0.88583641075E+03  0.88968025152E+03  0.00000000000E+00 0. -1.
         -2    1    1    2    0  503  0.40496813058E+02 -0.44287769118E+02  0.26420059804E+03  0.27093053421E+03  0.00000000000E+00 0.  1.
<mgrwt>
<rscale>  2 0.11342905E+03</rscale>
<asrwt>0</asrwt>
<pdfrwt beam="1">  1       21 0.23151811E+00 0.11342905E+03</pdfrwt>
<pdfrwt beam="2">  1       21 0.15940960E-02 0.11342905E+03</pdfrwt>
<totfact> 0.16056082E+05</totfact>
</mgrwt>
</event>
<event>
 5    1  0.1721815E-001  0.1236492E+03  0.7546771E-02  0.1237196E+00
         21   -1    0    0  503  502  0.00000000000E+00  0.00000000000E+00  0.24222861081E+03  0.24222861081E+03  0.00000000000E+00 0.  1.
         21   -1    0    0  501  503 -0.00000000000E+00 -0.00000000000E+00 -0.80133210473E+02  0.80133210473E+02  0.00000000000E+00 0. -1.
         24    1    1    2    0    0 -0.53639569538E+02  0.36702925250E+02  0.10120552376E+02  0.10389393475E+03  0.80419002446E+02 0. -1.
          1    1    1    2  501    0 -0.41196273670E+02  0.25164854277E+01  0.86172701101E+01  0.42163052633E+02  0.00000000000E+00 0. -1.
         -2    1    1    2    0  502  0.94835843208E+02 -0.39219410678E+02  0.14335757785E+03  0.17630483390E+03  0.00000000000E+00 0.  1.
<mgrwt>
<rscale>  2 0.12364921E+03</rscale>
<asrwt>0</asrwt>
<pdfrwt beam="1">  1       21 0.37265940E-01 0.12364921E+03</pdfrwt>
<pdfrwt beam="2">  1       21 0.12328186E-01 0.12364921E+03</pdfrwt>
<totfact> 0.39273261E+05</totfact>
</mgrwt>
</event>
<event>
 5    1  0.1721815E-001  0.1013959E+03  0.7546771E-02  0.1277388E+00
         21   -1    0    0  501  502  0.00000000000E+00  0.00000000000E+00  0.33295271806E+03  0.33295271806E+03  0.00000000000E+00 0. -1.
         21   -1    0    0  502  503 -0.00000000000E+00 -0.00000000000E+00 -0.54701390705E+02  0.54701390705E+02  0.00000000000E+00 0.  1.
         24    1    1    2    0    0 -0.18636404739E+02 -0.64585756569E+01 -0.17745628428E+01  0.82821457417E+02  0.80419002446E+02 0.  1.
          1    1    1    2  501    0  0.42230735954E+02  0.53024772449E+02  0.17127777585E+03  0.18420406633E+03  0.00000000000E+00 0. -1.
         -2    1    1    2    0  503 -0.23594331215E+02 -0.46566196792E+02  0.10874811435E+03  0.12062858502E+03  0.00000000000E+00 0.  1.
<mgrwt>
<rscale>  2 0.10139592E+03</rscale>
<asrwt>0</asrwt>
<pdfrwt beam="1">  1       21 0.51223494E-01 0.10139592E+03</pdfrwt>
<pdfrwt beam="2">  1       21 0.84155988E-02 0.10139592E+03</pdfrwt>
<totfact> 0.40376661E+05</totfact>
</mgrwt>
</event>
<event>
 5    1  0.1721815E-001  0.7957436E+02  0.7546771E-02  0.1330264E+00
         21   -1    0    0  501  502  0.00000000000E+00  0.00000000000E+00  0.68504687717E+01  0.68504687717E+01  0.00000000000E+00 0.  1.
         21   -1    0    0  502  503 -0.00000000000E+00 -0.00000000000E+00 -0.93694604945E+03  0.93694604945E+03  0.00000000000E+00 0. -1.
         24    1    1    2    0    0  0.28334201489E+02  0.71380346295E+01 -0.55389823875E+03  0.56046788789E+03  0.80419002446E+02 0.  0.
          1    1    1    2  501    0 -0.48639885697E+01 -0.36033095692E+02 -0.18908878079E+03  0.19255287428E+03  0.00000000000E+00 0. -1.
         -2    1    1    2    0  503 -0.23470212919E+02  0.28895061063E+02 -0.18710856114E+03  0.19077575606E+03  0.00000000000E+00 0.  1.
<mgrwt>
<rscale>  2 0.79574358E+02</rscale>
<asrwt>0</asrwt>
<pdfrwt beam="1">  1       21 0.10539189E-02 0.79574358E+02</pdfrwt>
<pdfrwt beam="2">  1       21 0.14414546E+00 0.79574358E+02</pdfrwt>
<totfact> 0.11582879E+06</totfact>
</mgrwt>
</event>
<event>
 5    1  0.1721815E-001  0.1459072E+03  0.7546771E-02  0.1205594E+00
         21   -1    0    0  501  502  0.00000000000E+00  0.00000000000E+00  0.32833170508E+03  0.32833170508E+03  0.00000000000E+00 0. -1.
         21   -1    0    0  502  503 -0.00000000000E+00 -0.00000000000E+00 -0.15090449131E+03  0.15090449131E+03  0.00000000000E+00 0. -1.
         24    1    1    2    0    0 -0.70867485481E+02 -0.26557856054E+02 -0.54581684986E+02  0.12318237093E+03  0.80419002446E+02 0. -1.
          1    1    1    2  501    0  0.12434217072E+03  0.29622918971E+02  0.26424648527E+03  0.29353823895E+03  0.00000000000E+00 0. -1.
         -2    1    1    2    0  503 -0.53474685242E+02 -0.30650629172E+01 -0.32237586514E+02  0.62515586510E+02  0.00000000000E+00 0.  1.
<mgrwt>
<rscale>  2 0.14590717E+03</rscale>
<asrwt>0</asrwt>
<pdfrwt beam="1">  1       21 0.50512570E-01 0.14590717E+03</pdfrwt>
<pdfrwt beam="2">  1       21 0.23216076E-01 0.14590717E+03</pdfrwt>
<totfact> 0.66418473E+04</totfact>
</mgrwt>
</event>
<event>
 5    1  0.1721815E-001  0.8910281E+02  0.7546771E-02  0.1305039E+00
         21   -1    0    0  501  502  0.00000000000E+00  0.00000000000E+00  0.10057746931E+02  0.10057746931E+02  0.00000000000E+00 0. -1.
         21   -1    0    0  502  503 -0.00000000000E+00 -0.00000000000E+00 -0.10335159155E+04  0.10335159155E+04  0.00000000000E+00 0. -1.
         24    1    1    2    0    0  0.28226384814E+02 -0.26947542363E+02 -0.75856775951E+03  0.76381618244E+03  0.80419002446E+02 0. -1.
          1    1    1    2  501    0  0.27920382467E+02  0.13836989667E+02 -0.72494061432E+02  0.78907534387E+02  0.00000000000E+00 0. -1.
         -2    1    1    2    0  503 -0.56146767281E+02  0.13110552696E+02 -0.19239634765E+03  0.20084994563E+03  0.00000000000E+00 0.  1.
<mgrwt>
<rscale>  2 0.89102809E+02</rscale>
<asrwt>0</asrwt>
<pdfrwt beam="1">  1       21 0.15473464E-02 0.89102809E+02</pdfrwt>
<pdfrwt beam="2">  1       21 0.15900238E+00 0.89102809E+02</pdfrwt>
<totfact> 0.49239437E+05</totfact>
</mgrwt>
</event>
<event>
 5    1  0.1721815E-001  0.9815220E+02  0.7546771E-02  0.1284230E+00
         21   -1    0    0  503  502  0.00000000000E+00  0.00000000000E+00  0.25325733384E+03  0.25325733384E+03  0.00000000000E+00 0. -1.
         21   -1    0    0  501  503 -0.00000000000E+00 -0.00000000000E+00 -0.42626803624E+03  0.42626803624E+03  0.00000000000E+00 0. -1.
         24    1    1    2    0    0  0.30186599548E+02  0.55145861854E+02 -0.20113337983E+03  0.22555298558E+03  0.80419002446E+02 0.  1.
          1    1    1    2  501    0 -0.52188694923E+02 -0.27803512343E+02 -0.20749437404E+03  0.21575590475E+03  0.00000000000E+00 0. -1.
         -2    1    1    2    0  502  0.22002095375E+02 -0.27342349511E+02  0.23561705147E+03  0.23821647974E+03  0.00000000000E+00 0.  1.
<mgrwt>
<rscale>  2 0.98152203E+02</rscale>
<asrwt>0</asrwt>
<pdfrwt beam="1">  1       21 0.38962668E-01 0.98152203E+02</pdfrwt>
<pdfrwt beam="2">  1       21 0.65579696E-01 0.98152203E+02</pdfrwt>
<totfact> 0.14621757E+04</totfact>
</mgrwt>
</event>
<event>
 5    1  0.1721815E-001  0.1254037E+03  0.7546771E-02  0.1234440E+00
         21   -1    0    0  501  502  0.00000000000E+00  0.00000000000E+00  0.93805259380E+01  0.93805259380E+01  0.00000000000E+00 0. -1.
         21   -1    0    0  502  503 -0.00000000000E+00 -0.00000000000E+00 -0.17174737942E+04  0.17174737942E+04  0.00000000000E+00 0. -1.
         24    1    1    2    0    0 -0.43079502592E+01  0.86688929473E+02 -0.72936490644E+03  0.73890047478E+03  0.80419002446E+02 0. -1.
          1    1    1    2  501    0 -0.34177006370E+02 -0.87553820052E+02 -0.60635690488E+03  0.61359794269E+03  0.00000000000E+00 0. -1.
         -2    1    1    2    0  503  0.38484956629E+02  0.86489057961E+00 -0.37237145695E+03  0.37435590268E+03  0.00000000000E+00 0.  1.
<mgrwt>
<rscale>  2 0.12540370E+03</rscale>
<asrwt>0</asrwt>
<pdfrwt beam="1">  1       21 0.14431566E-02 0.12540370E+03</pdfrwt>
<pdfrwt beam="2">  1       21 0.26422697E+00 0.12540370E+03</pdfrwt>
<totfact> 0.12092375E+05</totfact>
</mgrwt>
</event>
<event>
 5    1  0.1721815E-001  0.1356187E+03  0.7546771E-02  0.1219349E+00
         21   -1    0    0  501  502  0.00000000000E+00  0.00000000000E+00  0.62101599690E+02  0.62101599690E+02  0.00000000000E+00 0. -1.
         21   -1    0    0  502  503 -0.00000000000E+00 -0.00000000000E+00 -0.40669717225E+03  0.40669717225E+03  0.00000000000E+00 0.  1.
         24    1    1    2    0    0  0.74871495283E+02  0.35984131155E+02 -0.26676968655E+03  0.29074710681E+03  0.80419002446E+02 0.  1.
          1    1    1    2  501    0 -0.48225381412E+01 -0.75189620799E+02 -0.16747594716E+02  0.77183015481E+02  0.00000000000E+00 0. -1.
         -2    1    1    2    0  503 -0.70048957142E+02  0.39205489644E+02 -0.61078291294E+02  0.10086864965E+03  0.00000000000E+00 0.  1.
<mgrwt>
<rscale>  2 0.13561873E+03</rscale>
<asrwt>0</asrwt>
<pdfrwt beam="1">  1       21 0.95540920E-02 0.13561873E+03</pdfrwt>
<pdfrwt beam="2">  1       21 0.62568797E-01 0.13561873E+03</pdfrwt>
<totfact> 0.21154052E+05</totfact>
</mgrwt>
</event>
<event>
 5    1  0.1721815E-001  0.9242277E+02  0.7546771E-02  0.1297088E+00
         21   -1    0    0  503  502  0.00000000000E+00  0.00000000000E+00  0.14862034782E+03  0.14862034782E+03  0.00000000000E+00 0. -1.
         21   -1    0    0  501  503 -0.00000000000E+00 -0.00000000000E+00 -0.73632432963E+02  0.73632432963E+02  0.00000000000E+00 0.  1.
         24    1    1    2    0    0 -0.47963776438E+02 -0.35427307842E+02  0.19577368021E+02  0.10201032930E+03  0.80419002446E+02 0.  1.
          1    1    1    2  501    0  0.11351409786E+02  0.45389917241E+02 -0.68943378473E+01  0.47293033162E+02  0.00000000000E+00 0. -1.
         -2    1    1    2    0  502  0.36612366652E+02 -0.99626093994E+01  0.62304884685E+02  0.72949418322E+02  0.00000000000E+00 0.  1.
<mgrwt>
<rscale>  2 0.92422771E+02</rscale>
<asrwt>0</asrwt>
<pdfrwt beam="1">  1       21 0.22864669E-01 0.92422771E+02</pdfrwt>
<pdfrwt beam="2">  1       21 0.11328067E-01 0.92422771E+02</pdfrwt>
<totfact> 0.11600060E+06</totfact>
</mgrwt>
</event>
<event>
 5    1  0.1721815E-001  0.9191009E+02  0.7546771E-02  0.1298291E+00
         21   -1    0    0  503  502  0.00000000000E+00  0.00000000000E+00  0.11115934747E+03  0.11115934747E+03  0.00000000000E+00 0. -1.
         21   -1    0    0  501  503 -0.00000000000E+00 -0.00000000000E+00 -0.17957703412E+03  0.17957703412E+03  0.00000000000E+00 0. -1.
         24    1    1    2    0    0 -0.13687635887E+02 -0.49057630363E+02 -0.14082121087E+03  0.16997597435E+03  0.80419002446E+02 0. -1.
          1    1    1    2  501    0  0.89537332666E-01  0.66507312314E+02  0.30057791854E+02  0.72984254873E+02  0.00000000000E+00 0. -1.
         -2    1    1    2    0  502  0.13598098554E+02 -0.17449681951E+02  0.42345732367E+02  0.47776152358E+02  0.00000000000E+00 0.  1.
<mgrwt>
<rscale>  2 0.91910092E+02</rscale>
<asrwt>0</asrwt>
<pdfrwt beam="1">  1       21 0.17101438E-01 0.91910092E+02</pdfrwt>
<pdfrwt beam="2">  1       21 0.27627236E-01 0.91910092E+02</pdfrwt>
<totfact> 0.39154345E+05</totfact>
</mgrwt>
</event>
<event>
 5    1  0.1721815E-001  0.1241385E+03  0.7546771E-02  0.1236422E+00
         21   -1    0    0  503  502  0.00000000000E+00  0.00000000000E+00  0.38942966801E+03  0.38942966801E+03  0.00000000000E+00 0. -1.
         21   -1    0    0  501  503 -0.00000000000E+00 -0.00000000000E+00 -0.48022752306E+02  0.48022752306E+02  0.00000000000E+00 0.  1.
         24    1    1    2    0    0 -0.11835126964E+02  0.30185654838E+02  0.84265204502E+02  0.12090940672E+03  0.80419002446E+02 0. -1.
          1    1    1    2  501    0  0.27291550034E+02  0.62186503136E+02  0.37067739563E+02  0.77369291013E+02  0.00000000000E+00 0. -1.
         -2    1    1    2    0  502 -0.15456423071E+02 -0.92372157973E+02  0.22007397164E+03  0.23917372258E+03  0.00000000000E+00 0.  1.
<mgrwt>
<rscale>  2 0.12413853E+03</rscale>
<asrwt>0</asrwt>
<pdfrwt beam="1">  1       21 0.59912254E-01 0.12413853E+03</pdfrwt>
<pdfrwt beam="2">  1       21 0.73881160E-02 0.12413853E+03</pdfrwt>
<totfact> 0.36286820E+05</totfact>
</mgrwt>
</event>
<event>
 5    1  0.1721815E-001  0.8290468E+02  0.7546771E-02  0.1321005E+00
         21   -1    0    0  503  502  0.00000000000E+00  0.00000000000E+00  0.27826884810E+03  0.27826884810E+03  0.00000000000E+00 0.  1.
         21   -1    0    0  501  503 -0.00000000000E+00 -0.00000000000E+00 -0.55636127564E+02  0.55636127564E+02  0.00000000000E+00 0.  1.
         24    1    1    2    0    0  0.25809483868E+02  0.55455545282E+02  0.47830580203E+01  0.10115107789E+03  0.80419002446E+02 0.  1.
          1    1    1    2  501    0 -0.24823874584E+02 -0.28488954391E+02  0.49599210786E+02  0.62353243558E+02  0.00000000000E+00 0. -1.
         -2    1    1    2    0  502 -0.98560928485E+00 -0.26966590891E+02  0.16825045173E+03  0.17040065422E+03  0.00000000000E+00 0.  1.
<mgrwt>
<rscale>  2 0.82904682E+02</rscale>
<asrwt>0</asrwt>
<pdfrwt beam="1">  1       21 0.42810591E-01 0.82904682E+02</pdfrwt>
<pdfrwt beam="2">  1       21 0.85594044E-02 0.82904682E+02</pdfrwt>
<totfact> 0.56432387E+05</totfact>
</mgrwt>
</event>
<event>
 5    1  0.1721815E-001  0.1476681E+03  0.7546771E-02  0.1203368E+00
         21   -1    0    0  501  502  0.00000000000E+00  0.00000000000E+00  0.78814119631E+02  0.78814119631E+02  0.00000000000E+00 0.  1.
         21   -1    0    0  502  503 -0.00000000000E+00 -0.00000000000E+00 -0.33454916332E+03  0.33454916332E+03  0.00000000000E+00 0.  1.
         24    1    1    2    0    0  0.93481406015E+01  0.67451598412E+02 -0.13198762226E+03  0.16889361813E+03  0.80419002446E+02 0.  1.
          1    1    1    2  501    0 -0.18570126189E+02  0.59675431617E+02  0.57560374788E+01  0.62762558048E+02  0.00000000000E+00 0. -1.
         -2    1    1    2    0  503  0.92219855876E+01 -0.12712703003E+03 -0.12950345891E+03  0.18170710677E+03  0.00000000000E+00 0.  1.
<mgrwt>
<rscale>  2 0.14766809E+03</rscale>
<asrwt>0</asrwt>
<pdfrwt beam="1">  1       21 0.12125249E-01 0.14766809E+03</pdfrwt>
<pdfrwt beam="2">  1       21 0.51469102E-01 0.14766809E+03</pdfrwt>
<totfact> 0.20921448E+05</totfact>
</mgrwt>
</event>
<event>
 5    1  0.1721815E-001  0.1030177E+03  0.7546771E-02  0.1274075E+00
         21   -1    0    0  501  502  0.00000000000E+00  0.00000000000E+00  0.42785358877E+02  0.42785358877E+02  0.00000000000E+00 0.  1.
         21   -1    0    0  502  503 -0.00000000000E+00 -0.00000000000E+00 -0.50170237972E+03  0.50170237972E+03  0.00000000000E+00 0.  1.
         24    1    1    2    0    0  0.36162098116E+02 -0.18095969343E+02 -0.39637082057E+03  0.40646304235E+03  0.80419002446E+02 0.  1.
          1    1    1    2  501    0 -0.23400331696E+01 -0.44665942843E+02 -0.24738955517E+01  0.44795561884E+02  0.00000000000E+00 0. -1.
         -2    1    1    2    0  503 -0.33822064947E+02  0.62761912186E+02 -0.60072304721E+02  0.93229134357E+02  0.00000000000E+00 0.  1.
<mgrwt>
<rscale>  2 0.10301775E+03</rscale>
<asrwt>0</asrwt>
<pdfrwt beam="1">  1       21 0.65823625E-02 0.10301775E+03</pdfrwt>
<pdfrwt beam="2">  1       21 0.77184987E-01 0.10301775E+03</pdfrwt>
<totfact> 0.25664330E+05</totfact>
</mgrwt>
</event>
<event>
 5    1  0.1721815E-001  0.1142432E+03  0.7546771E-02  0.1252908E+00
         21   -1    0    0  501  502  0.00000000000E+00  0.00000000000E+00  0.36059890451E+03  0.36059890451E+03  0.00000000000E+00 0. -1.
         21   -1    0    0  502  503 -0.00000000000E+00 -0.00000000000E+00 -0.52516115411E+02  0.52516115411E+02  0.00000000000E+00 0.  1.
         24    1    1    2    0    0  0.87253250098E+01  0.62135906947E+02  0.28001338970E+02  0.10577472840E+03  0.80419002446E+02 0.  1.
          1    1    1    2  501    0 -0.58390342797E+02 -0.45777370861E+02  0.16872870222E+03  0.18432138989E+03  0.00000000000E+00 0. -1.
         -2    1    1    2    0  503  0.49665017787E+02 -0.16358536086E+02  0.11135274791E+03  0.12301890164E+03  0.00000000000E+00 0.  1.
<mgrwt>
<rscale>  2 0.11424324E+03</rscale>
<asrwt>0</asrwt>
<pdfrwt beam="1">  1       21 0.55476753E-01 0.11424324E+03</pdfrwt>
<pdfrwt beam="2">  1       21 0.80794026E-02 0.11424324E+03</pdfrwt>
<totfact> 0.36647453E+05</totfact>
</mgrwt>
</event>
<event>
 5    1  0.2444074E-001  0.1719276E+03  0.7546771E-02  0.1175852E+00
         21   -1    0    0  501  502  0.00000000000E+00  0.00000000000E+00  0.14475456064E+03  0.14475456064E+03  0.00000000000E+00 0.  1.
         21   -1    0    0  502  503 -0.00000000000E+00 -0.00000000000E+00 -0.30125306536E+03  0.30125306536E+03  0.00000000000E+00 0. -1.
         24    1    1    2    0    0  0.20569823537E+02 -0.55420024831E+02 -0.60241159864E+02  0.11657920093E+03  0.80419002446E+02 0.  0.
          1    1    1    2  501    0 -0.37920335296E+02  0.14650044646E+03  0.47286013502E+02  0.15854431467E+03  0.00000000000E+00 0. -1.
         -2    1    1    2    0  503  0.17350511759E+02 -0.91080421627E+02 -0.14354335835E+03  0.17088411041E+03  0.00000000000E+00 0.  1.
<mgrwt>
<rscale>  2 0.17192762E+03</rscale>
<asrwt>0</asrwt>
<pdfrwt beam="1">  1       21 0.22269932E-01 0.17192762E+03</pdfrwt>
<pdfrwt beam="2">  1       21 0.46346625E-01 0.17192762E+03</pdfrwt>
<totfact> 0.84840198E+04</totfact>
</mgrwt>
</event>
<event>
 5    1  0.1721815E-001  0.6668693E+02  0.7546771E-02  0.1371736E+00
         21   -1    0    0  501  502  0.00000000000E+00  0.00000000000E+00  0.13126043791E+03  0.13126043791E+03  0.00000000000E+00 0. -1.
         21   -1    0    0  502  503 -0.00000000000E+00 -0.00000000000E+00 -0.40771486145E+02  0.40771486145E+02  0.00000000000E+00 0.  1.
         24    1    1    2    0    0 -0.10226040385E+02  0.71162780650E+01  0.18891842861E+02  0.83542390416E+02  0.80419002446E+02 0.  1.
          1    1    1    2  501    0  0.96678685975E+00  0.21703428163E+02  0.30625780315E+02  0.37548793467E+02  0.00000000000E+00 0. -1.
         -2    1    1    2    0  503  0.92592535250E+01 -0.28819706228E+02  0.40971328592E+02  0.50940740175E+02  0.00000000000E+00 0.  1.
<mgrwt>
<rscale>  2 0.66686930E+02</rscale>
<asrwt>0</asrwt>
<pdfrwt beam="1">  1       21 0.20193913E-01 0.66686930E+02</pdfrwt>
<pdfrwt beam="2">  1       21 0.62725364E-02 0.66686930E+02</pdfrwt>
<totfact> 0.39375032E+06</totfact>
</mgrwt>
</event>
<event>
 5    1  0.1721815E-001  0.2435761E+03  0.7546771E-02  0.1117433E+00
         21   -1    0    0  501  502  0.00000000000E+00  0.00000000000E+00  0.83416308499E+03  0.83416308499E+03  0.00000000000E+00 0. -1.
         21   -1    0    0  502  503 -0.00000000000E+00 -0.00000000000E+00 -0.12734131665E+03  0.12734131665E+03  0.00000000000E+00 0.  1.
         24    1    1    2    0    0  0.60874047623E+02  0.72538942030E+01  0.26272364179E+01  0.10115526175E+03  0.80419002446E+02 0.  1.
          1    1    1    2  501    0 -0.56753602501E+01  0.18547069318E+03  0.61233380276E+03  0.63983144166E+03  0.00000000000E+00 0. -1.
         -2    1    1    2    0  503 -0.55198687373E+02 -0.19272458738E+03  0.91860729164E+02  0.22051769823E+03  0.00000000000E+00 0.  1.
<mgrwt>
<rscale>  2 0.24357612E+03</rscale>
<asrwt>0</asrwt>
<pdfrwt beam="1">  1       21 0.12833278E+00 0.24357612E+03</pdfrwt>
<pdfrwt beam="2">  1       21 0.19590972E-01 0.24357612E+03</pdfrwt>
<totfact> 0.10355594E+04</totfact>
</mgrwt>
</event>
<event>
 5    1  0.1721815E-001  0.1845623E+03  0.7546771E-02  0.1163459E+00
         21   -1    0    0  501  502  0.00000000000E+00  0.00000000000E+00  0.21920805025E+03  0.21920805025E+03  0.00000000000E+00 0. -1.
         21   -1    0    0  502  503 -0.00000000000E+00 -0.00000000000E+00 -0.16154160447E+03  0.16154160447E+03  0.00000000000E+00 0. -1.
         24    1    1    2    0    0 -0.72507735200E+02  0.80832770274E+02  0.44390242872E+02  0.14222875248E+03  0.80419002446E+02 0. -1.
          1    1    1    2  501    0  0.75237825026E+02 -0.14839739541E+03 -0.10829990161E+02  0.16673273814E+03  0.00000000000E+00 0. -1.
         -2    1    1    2    0  503 -0.27300898262E+01  0.67564625140E+02  0.24106193066E+02  0.71788164101E+02  0.00000000000E+00 0.  1.
<mgrwt>
<rscale>  2 0.18456225E+03</rscale>
<asrwt>0</asrwt>
<pdfrwt beam="1">  1       21 0.33724315E-01 0.18456225E+03</pdfrwt>
<pdfrwt beam="2">  1       21 0.24852555E-01 0.18456225E+03</pdfrwt>
<totfact> 0.13010291E+05</totfact>
</mgrwt>
</event>
<event>
 5    1  0.1721815E-001  0.8759809E+02  0.7546771E-02  0.1308775E+00
         21   -1    0    0  503  502  0.00000000000E+00  0.00000000000E+00  0.11644085310E+02  0.11644085310E+02  0.00000000000E+00 0.  1.
         21   -1    0    0  501  503 -0.00000000000E+00 -0.00000000000E+00 -0.99518642794E+03  0.99518642794E+03  0.00000000000E+00 0. -1.
         24    1    1    2    0    0 -0.55240465318E+02  0.24700178418E+01 -0.76060410275E+03  0.76683989663E+03  0.80419002446E+02 0. -1.
          1    1    1    2  501    0  0.43441255251E+02  0.23273064146E+02 -0.19122758714E+03  0.19747599413E+03  0.00000000000E+00 0. -1.
         -2    1    1    2    0  502  0.11799210067E+02 -0.25743081988E+02 -0.31710652747E+02  0.42514622497E+02  0.00000000000E+00 0.  1.
<mgrwt>
<rscale>  2 0.87598089E+02</rscale>
<asrwt>0</asrwt>
<pdfrwt beam="1">  1       21 0.17913977E-02 0.87598089E+02</pdfrwt>
<pdfrwt beam="2">  1       21 0.15310560E+00 0.87598089E+02</pdfrwt>
<totfact> 0.43038323E+05</totfact>
</mgrwt>
</event>
<event>
 5    1  0.1721815E-001  0.9239354E+02  0.7546771E-02  0.1297157E+00
         21   -1    0    0  501  502  0.00000000000E+00  0.00000000000E+00  0.54803671899E+02  0.54803671899E+02  0.00000000000E+00 0. -1.
         21   -1    0    0  502  503 -0.00000000000E+00 -0.00000000000E+00 -0.32932208193E+03  0.32932208193E+03  0.00000000000E+00 0. -1.
         24    1    1    2    0    0  0.59090104612E+02 -0.71230258836E+01 -0.15955923758E+03  0.18833147430E+03  0.80419002446E+02 0. -1.
          1    1    1    2  501    0 -0.30124858590E+01 -0.21547727951E+02  0.30396201431E+02  0.37380592724E+02  0.00000000000E+00 0. -1.
         -2    1    1    2    0  503 -0.56077618753E+02  0.28670753835E+02 -0.14535537389E+03  0.15841368681E+03  0.00000000000E+00 0.  1.
<mgrwt>
<rscale>  2 0.92393541E+02</rscale>
<asrwt>0</asrwt>
<pdfrwt beam="1">  1       21 0.84313342E-02 0.92393541E+02</pdfrwt>
<pdfrwt beam="2">  1       21 0.50664936E-01 0.92393541E+02</pdfrwt>
<totfact> 0.41204333E+05</totfact>
</mgrwt>
</event>
<event>
 5    1  0.1721815E-001  0.1174674E+03  0.7546771E-02  0.1247334E+00
         21   -1    0    0  503  502  0.00000000000E+00  0.00000000000E+00  0.37154957754E+03  0.37154957754E+03  0.00000000000E+00 0. -1.
         21   -1    0    0  501  503 -0.00000000000E+00 -0.00000000000E+00 -0.42917201281E+02  0.42917201281E+02  0.00000000000E+00 0. -1.
         24    1    1    2    0    0 -0.60469608943E+02 -0.38226846368E+02  0.82016515566E+02  0.13532106329E+03  0.80419002446E+02 0. -1.
          1    1    1    2  501    0  0.82348285836E+02 -0.10347504404E+01  0.12700597372E+03  0.15136983930E+03  0.00000000000E+00 0. -1.
         -2    1    1    2    0  502 -0.21878676893E+02  0.39261596809E+02  0.11960988697E+03  0.12777587623E+03  0.00000000000E+00 0.  1.
<mgrwt>
<rscale>  2 0.11746744E+03</rscale>
<asrwt>0</asrwt>
<pdfrwt beam="1">  1       21 0.57161471E-01 0.11746744E+03</pdfrwt>
<pdfrwt beam="2">  1       21 0.66026466E-02 0.11746744E+03</pdfrwt>
<totfact> 0.48593057E+05</totfact>
</mgrwt>
</event>
<event>
 5    1  0.1721815E-001  0.7527636E+02  0.7546771E-02  0.1343017E+00
         21   -1    0    0  501  502  0.00000000000E+00  0.00000000000E+00  0.10257133784E+03  0.10257133784E+03  0.00000000000E+00 0. -1.
         21   -1    0    0  502  503 -0.00000000000E+00 -0.00000000000E+00 -0.58016621206E+02  0.58016621206E+02  0.00000000000E+00 0. -1.
         24    1    1    2    0    0 -0.34455978790E+02 -0.47142412172E+01  0.40597804369E+02  0.96565191547E+02  0.80419002446E+02 0. -1.
          1    1    1    2  501    0  0.39649464974E+02 -0.15119019020E+02 -0.25560714304E+01  0.42511155124E+02  0.00000000000E+00 0. -1.
         -2    1    1    2    0  503 -0.51934861837E+01  0.19833260237E+02  0.65129836977E+01  0.21511612376E+02  0.00000000000E+00 0.  1.
<mgrwt>
<rscale>  2 0.75276362E+02</rscale>
<asrwt>0</asrwt>
<pdfrwt beam="1">  1       21 0.15780206E-01 0.75276362E+02</pdfrwt>
<pdfrwt beam="2">  1       21 0.89256340E-02 0.75276362E+02</pdfrwt>
<totfact> 0.34088270E+06</totfact>
</mgrwt>
</event>
<event>
 5    1  0.1721815E-001  0.8345915E+02  0.7546771E-02  0.1319512E+00
         21   -1    0    0  501  502  0.00000000000E+00  0.00000000000E+00  0.93162273964E+02  0.93162273964E+02  0.00000000000E+00 0. -1.
         21   -1    0    0  502  503 -0.00000000000E+00 -0.00000000000E+00 -0.11237195999E+03  0.11237195999E+03  0.00000000000E+00 0. -1.
         24    1    1    2    0    0  0.15872012058E+02 -0.48437308037E+01 -0.51480436340E+02  0.96916633119E+02  0.80419002446E+02 0. -1.
          1    1    1    2  501    0 -0.35940717225E+02  0.33956898424E+02  0.48900936002E+02  0.69542128578E+02  0.00000000000E+00 0. -1.
         -2    1    1    2    0  503  0.20068705167E+02 -0.29113167620E+02 -0.16630185684E+02  0.39075472254E+02  0.00000000000E+00 0.  1.
<mgrwt>
<rscale>  2 0.83459153E+02</rscale>
<asrwt>0</asrwt>
<pdfrwt beam="1">  1       21 0.14332657E-01 0.83459153E+02</pdfrwt>
<pdfrwt beam="2">  1       21 0.17287994E-01 0.83459153E+02</pdfrwt>
<totfact> 0.12744009E+06</totfact>
</mgrwt>
</event>
<event>
 5    1  0.1721815E-001  0.8622531E+02  0.7546771E-02  0.1312259E+00
         21   -1    0    0  501  502  0.00000000000E+00  0.00000000000E+00  0.30874888656E+02  0.30874888656E+02  0.00000000000E+00 0. -1.
         21   -1    0    0  502  503 -0.00000000000E+00 -0.00000000000E+00 -0.53630168989E+03  0.53630168989E+03  0.00000000000E+00 0. -1.
         24    1    1    2    0    0 -0.20396051373E+02 -0.30164672113E+02 -0.46045351181E+03  0.46883958755E+03  0.80419002446E+02 0. -1.
          1    1    1    2  501    0  0.48347121524E+02  0.28609134582E+02 -0.16836918912E+02  0.58646471161E+02  0.00000000000E+00 0. -1.
         -2    1    1    2    0  503 -0.27951070151E+02  0.15555375305E+01 -0.28136370506E+02  0.39690519836E+02  0.00000000000E+00 0.  1.
<mgrwt>
<rscale>  2 0.86225310E+02</rscale>
<asrwt>0</asrwt>
<pdfrwt beam="1">  1       21 0.47499832E-02 0.86225310E+02</pdfrwt>
<pdfrwt beam="2">  1       21 0.82507947E-01 0.86225310E+02</pdfrwt>
<totfact> 0.38395568E+05</totfact>
</mgrwt>
</event>
<event>
 5    1  0.1721815E-001  0.1099553E+03  0.7546771E-02  0.1260653E+00
         21   -1    0    0  503  502  0.00000000000E+00  0.00000000000E+00  0.65038080593E+03  0.65038080593E+03  0.00000000000E+00 0.  1.
         21   -1    0    0  501  503 -0.00000000000E+00 -0.00000000000E+00 -0.19455184000E+02  0.19455184000E+02  0.00000000000E+00 0.  1.
         24    1    1    2    0    0 -0.47435586676E+02  0.12458603074E+02  0.29539867240E+03  0.31005312978E+03  0.80419002446E+02 0.  1.
          1    1    1    2  501    0 -0.38642596028E+02  0.63589433185E+00  0.65349813923E+02  0.75922676251E+02  0.00000000000E+00 0. -1.
         -2    1    1    2    0  502  0.86078182704E+02 -0.13094497406E+02  0.27017713560E+03  0.28386018390E+03  0.00000000000E+00 0.  1.
<mgrwt>
<rscale>  2 0.10995531E+03</rscale>
<asrwt>0</asrwt>
<pdfrwt beam="1">  1       21 0.10005857E+00 0.10995531E+03</pdfrwt>
<pdfrwt beam="2">  1       21 0.29931057E-02 0.10995531E+03</pdfrwt>
<totfact> 0.52807388E+05</totfact>
</mgrwt>
</event>
<event>
 5    1  0.1721815E-001  0.7604544E+02  0.7546771E-02  0.1340664E+00
         21   -1    0    0  501  502  0.00000000000E+00  0.00000000000E+00  0.13452713663E+03  0.13452713663E+03  0.00000000000E+00 0. -1.
         21   -1    0    0  502  503 -0.00000000000E+00 -0.00000000000E+00 -0.45810784689E+02  0.45810784689E+02  0.00000000000E+00 0.  1.
         24    1    1    2    0    0  0.26638647820E+01  0.30945472108E+02  0.28055196187E+02  0.90658857300E+02  0.80419002446E+02 0.  1.
          1    1    1    2  501    0 -0.25569020182E+02 -0.34248299697E+02  0.36260155949E+02  0.56049261678E+02  0.00000000000E+00 0. -1.
         -2    1    1    2    0  503  0.22905155401E+02  0.33028275892E+01  0.24400999809E+02  0.33629802344E+02  0.00000000000E+00 0.  1.
<mgrwt>
<rscale>  2 0.76045440E+02</rscale>
<asrwt>0</asrwt>
<pdfrwt beam="1">  1       21 0.20696482E-01 0.76045440E+02</pdfrwt>
<pdfrwt beam="2">  1       21 0.70478131E-02 0.76045440E+02</pdfrwt>
<totfact> 0.31230989E+06</totfact>
</mgrwt>
</event>
<event>
 5    1  0.1721815E-001  0.2385845E+03  0.7546771E-02  0.1120739E+00
         21   -1    0    0  501  502  0.00000000000E+00  0.00000000000E+00  0.85234094606E+02  0.85234094606E+02  0.00000000000E+00 0.  1.
         21   -1    0    0  502  503 -0.00000000000E+00 -0.00000000000E+00 -0.75378000159E+03  0.75378000159E+03  0.00000000000E+00 0.  1.
         24    1    1    2    0    0  0.20866015513E+03 -0.85551428384E+02 -0.45446354396E+03  0.51367541889E+03  0.80419002446E+02 0.  1.
          1    1    1    2  501    0 -0.95572561590E+02 -0.60412109884E+00 -0.48757091556E+02  0.10729274658E+03  0.00000000000E+00 0. -1.
         -2    1    1    2    0  503 -0.11308759354E+03  0.86155549483E+02 -0.16532527147E+03  0.21804593073E+03  0.00000000000E+00 0.  1.
<mgrwt>
<rscale>  2 0.23858449E+03</rscale>
<asrwt>0</asrwt>
<pdfrwt beam="1">  1       21 0.13112937E-01 0.23858449E+03</pdfrwt>
<pdfrwt beam="2">  1       21 0.11596616E+00 0.23858449E+03</pdfrwt>
<totfact> 0.28023764E+04</totfact>
</mgrwt>
</event>
<event>
 5    1  0.1721815E-001  0.1236554E+03  0.7546771E-02  0.1237186E+00
         21   -1    0    0  501  502  0.00000000000E+00  0.00000000000E+00  0.10620069976E+03  0.10620069976E+03  0.00000000000E+00 0. -1.
         21   -1    0    0  502  503 -0.00000000000E+00 -0.00000000000E+00 -0.18810042318E+03  0.18810042318E+03  0.00000000000E+00 0. -1.
         24    1    1    2    0    0 -0.34855413326E+02  0.54788569650E+02 -0.99838431248E+02  0.14370669960E+03  0.80419002446E+02 0. -1.
          1    1    1    2  501    0 -0.40601681465E+02 -0.55157594061E+02  0.28913001536E+02  0.74342574466E+02  0.00000000000E+00 0. -1.
         -2    1    1    2    0  503  0.75457094792E+02  0.36902441161E+00 -0.10974293714E+02  0.76251848869E+02  0.00000000000E+00 0.  1.
<mgrwt>
<rscale>  2 0.12365540E+03</rscale>
<asrwt>0</asrwt>
<pdfrwt beam="1">  1       21 0.16338569E-01 0.12365540E+03</pdfrwt>
<pdfrwt beam="2">  1       21 0.28938526E-01 0.12365540E+03</pdfrwt>
<totfact> 0.38787109E+05</totfact>
</mgrwt>
</event>
<event>
 5    1  0.1721815E-001  0.1338250E+03  0.7546771E-02  0.1221888E+00
         21   -1    0    0  501  502  0.00000000000E+00  0.00000000000E+00  0.31528710829E+03  0.31528710829E+03  0.00000000000E+00 0. -1.
         21   -1    0    0  502  503 -0.00000000000E+00 -0.00000000000E+00 -0.68626672848E+02  0.68626672848E+02  0.00000000000E+00 0. -1.
         24    1    1    2    0    0  0.67322472045E+02 -0.71079890693E+02  0.49009902043E+02  0.13584495779E+03  0.80419002446E+02 0. -1.
          1    1    1    2  501    0 -0.92870575265E+02  0.41082349519E+02  0.17577438385E+03  0.20300083057E+03  0.00000000000E+00 0. -1.
         -2    1    1    2    0  503  0.25548103219E+02  0.29997541174E+02  0.21876149542E+02  0.45067992781E+02  0.00000000000E+00 0.  1.
<mgrwt>
<rscale>  2 0.13382501E+03</rscale>
<asrwt>0</asrwt>
<pdfrwt beam="1">  1       21 0.48505708E-01 0.13382501E+03</pdfrwt>
<pdfrwt beam="2">  1       21 0.10557950E-01 0.13382501E+03</pdfrwt>
<totfact> 0.30300556E+05</totfact>
</mgrwt>
</event>
<event>
 5    1  0.1721815E-001  0.1093011E+03  0.7546771E-02  0.1261870E+00
         21   -1    0    0  503  502  0.00000000000E+00  0.00000000000E+00  0.31230265067E+03  0.31230265067E+03  0.00000000000E+00 0.  1.
         21   -1    0    0  501  503 -0.00000000000E+00 -0.00000000000E+00 -0.10466157583E+03  0.10466157583E+03  0.00000000000E+00 0. -1.
         24    1    1    2    0    0  0.22721108888E+02 -0.30978591470E+02 -0.40434132066E+02  0.97867547782E+02  0.80419002446E+02 0.  1.
          1    1    1    2  501    0  0.26448358356E+02 -0.37061455600E+02 -0.10932120110E+02  0.46824976252E+02  0.00000000000E+00 0. -1.
         -2    1    1    2    0  502 -0.49169467244E+02  0.68040047070E+02  0.25900732702E+03  0.27227170247E+03  0.00000000000E+00 0.  1.
<mgrwt>
<rscale>  2 0.10930107E+03</rscale>
<asrwt>0</asrwt>
<pdfrwt beam="1">  1       21 0.48046561E-01 0.10930107E+03</pdfrwt>
<pdfrwt beam="2">  1       21 0.16101781E-01 0.10930107E+03</pdfrwt>
<totfact> 0.14670338E+05</totfact>
</mgrwt>
</event>
<event>
 5    1  0.1721815E-001  0.1427862E+03  0.7546771E-02  0.1209628E+00
         21   -1    0    0  501  502  0.00000000000E+00  0.00000000000E+00  0.28733385746E+03  0.28733385746E+03  0.00000000000E+00 0. -1.
         21   -1    0    0  502  503 -0.00000000000E+00 -0.00000000000E+00 -0.33627056363E+03  0.33627056363E+03  0.00000000000E+00 0.  1.
         24    1    1    2    0    0 -0.10259744152E+03  0.33735548317E+01 -0.29949284253E+03  0.32665087564E+03  0.80419002446E+02 0.  1.
          1    1    1    2  501    0  0.89855067661E+02 -0.52737267537E+02  0.19796213902E+03  0.22370552308E+03  0.00000000000E+00 0. -1.
         -2    1    1    2    0  503  0.12742373855E+02  0.49363712705E+02  0.52593997348E+02  0.73248022366E+02  0.00000000000E+00 0.  1.
<mgrwt>
<rscale>  2 0.14278622E+03</rscale>
<asrwt>0</asrwt>
<pdfrwt beam="1">  1       21 0.44205209E-01 0.14278622E+03</pdfrwt>
<pdfrwt beam="2">  1       21 0.51733933E-01 0.14278622E+03</pdfrwt>
<totfact> 0.18014673E+04</totfact>
</mgrwt>
</event>
<event>
 5    1  0.1721815E-001  0.2256371E+03  0.7546771E-02  0.1129749E+00
         21   -1    0    0  501  502  0.00000000000E+00  0.00000000000E+00  0.30528280606E+02  0.30528280606E+02  0.00000000000E+00 0.  1.
         21   -1    0    0  502  503 -0.00000000000E+00 -0.00000000000E+00 -0.17804254713E+04  0.17804254713E+04  0.00000000000E+00 0. -1.
         24    1    1    2    0    0 -0.83292303603E+02 -0.74494811006E+02 -0.39536440826E+03  0.41864939506E+03  0.80419002446E+02 0.  1.
          1    1    1    2  501    0  0.19341018694E+03  0.60171680272E+02 -0.71220895221E+03  0.74045237735E+03  0.00000000000E+00 0. -1.
         -2    1    1    2    0  503 -0.11011788333E+03  0.14323130734E+02 -0.64232383020E+03  0.65185197948E+03  0.00000000000E+00 0.  1.
<mgrwt>
<rscale>  2 0.22563706E+03</rscale>
<asrwt>0</asrwt>
<pdfrwt beam="1">  1       21 0.46966593E-02 0.22563706E+03</pdfrwt>
<pdfrwt beam="2">  1       21 0.27391157E+00 0.22563706E+03</pdfrwt>
<totfact> 0.13999418E+04</totfact>
</mgrwt>
</event>
<event>
 5    1  0.1721815E-001  0.7053856E+02  0.7546771E-02  0.1358271E+00
         21   -1    0    0  503  502  0.00000000000E+00  0.00000000000E+00  0.53613374217E+02  0.53613374217E+02  0.00000000000E+00 0.  1.
         21   -1    0    0  501  503 -0.00000000000E+00 -0.00000000000E+00 -0.20445214385E+03  0.20445214385E+03  0.00000000000E+00 0.  1.
         24    1    1    2    0    0  0.14211922374E+02  0.68000172579E+01 -0.17454149856E+03  0.19282160057E+03  0.80419002446E+02 0.  1.
          1    1    1    2  501    0 -0.11310711565E+02  0.24872897372E+02  0.34576858590E+01  0.27541764854E+02  0.00000000000E+00 0. -1.
         -2    1    1    2    0  502 -0.29012108089E+01 -0.31672914629E+02  0.20245043067E+02  0.37702152645E+02  0.00000000000E+00 0.  1.
<mgrwt>
<rscale>  2 0.70538563E+02</rscale>
<asrwt>0</asrwt>
<pdfrwt beam="1">  1       21 0.82482116E-02 0.70538563E+02</pdfrwt>
<pdfrwt beam="2">  1       21 0.31454175E-01 0.70538563E+02</pdfrwt>
<totfact> 0.10925929E+06</totfact>
</mgrwt>
</event>
<event>
 5    1  0.1721815E-001  0.1115229E+03  0.7546771E-02  0.1257775E+00
         21   -1    0    0  503  502  0.00000000000E+00  0.00000000000E+00  0.29221496139E+02  0.29221496139E+02  0.00000000000E+00 0. -1.
         21   -1    0    0  501  503 -0.00000000000E+00 -0.00000000000E+00 -0.58740623406E+03  0.58740623406E+03  0.00000000000E+00 0.  1.
         24    1    1    2    0    0 -0.79985448165E+02 -0.14834237679E+02 -0.44590670089E+03  0.46034522739E+03  0.80419002446E+02 0.  1.
          1    1    1    2  501    0  0.18040278416E+02  0.38363107136E+02 -0.41423833178E+02  0.59271524272E+02  0.00000000000E+00 0. -1.
         -2    1    1    2    0  502  0.61945169749E+02 -0.23528869456E+02 -0.70854203849E+02  0.97010978534E+02  0.00000000000E+00 0.  1.
<mgrwt>
<rscale>  2 0.11152289E+03</rscale>
<asrwt>0</asrwt>
<pdfrwt beam="1">  1       21 0.44956149E-02 0.11152289E+03</pdfrwt>
<pdfrwt beam="2">  1       21 0.90370188E-01 0.11152289E+03</pdfrwt>
<totfact> 0.34128047E+05</totfact>
</mgrwt>
</event>
<event>
 5    1  0.2228198E-001  0.4202731E+03  0.7546771E-02  0.1036977E+00
         21   -1    0    0  503  502  0.00000000000E+00  0.00000000000E+00  0.57943345884E+03  0.57943345884E+03  0.00000000000E+00 0.  1.
         21   -1    0    0  501  503 -0.00000000000E+00 -0.00000000000E+00 -0.34492068067E+03  0.34492068067E+03  0.00000000000E+00 0. -1.
         24    1    1    2    0    0  0.28543439870E+02  0.44971897454E+02 -0.14771636824E+02  0.97583895849E+02  0.80419002446E+02 0. -1.
          1    1    1    2  501    0  0.11482611039E+03 -0.37076727881E+03 -0.69263893611E+01  0.38820276342E+03  0.00000000000E+00 0. -1.
         -2    1    1    2    0  502 -0.14336955026E+03  0.32579538135E+03  0.25621080436E+03  0.43856748024E+03  0.00000000000E+00 0.  1.
<mgrwt>
<rscale>  2 0.42027312E+03</rscale>
<asrwt>0</asrwt>
<pdfrwt beam="1">  1       21 0.89143609E-01 0.42027312E+03</pdfrwt>
<pdfrwt beam="2">  1       21 0.53064720E-01 0.42027312E+03</pdfrwt>
<totfact> 0.31818231E+03</totfact>
</mgrwt>
</event>
<event>
 5    1  0.1721815E-001  0.8777487E+02  0.7546771E-02  0.1308331E+00
         21   -1    0    0  503  502  0.00000000000E+00  0.00000000000E+00  0.10275951793E+03  0.10275951793E+03  0.00000000000E+00 0. -1.
         21   -1    0    0  501  503 -0.00000000000E+00 -0.00000000000E+00 -0.87102108074E+02  0.87102108074E+02  0.00000000000E+00 0. -1.
         24    1    1    2    0    0  0.53630227915E+02 -0.33345318499E+02 -0.25605778341E+02  0.10540864979E+03  0.80419002446E+02 0. -1.
          1    1    1    2  501    0 -0.29914323535E+02  0.38770849794E+02  0.23417476930E+02  0.54280970626E+02  0.00000000000E+00 0. -1.
         -2    1    1    2    0  502 -0.23715904380E+02 -0.54255312952E+01  0.17845711262E+02  0.30172005582E+02  0.00000000000E+00 0.  1.
<mgrwt>
<rscale>  2 0.87774867E+02</rscale>
<asrwt>0</asrwt>
<pdfrwt beam="1">  1       21 0.15809157E-01 0.87774867E+02</pdfrwt>
<pdfrwt beam="2">  1       21 0.13400324E-01 0.87774867E+02</pdfrwt>
<totfact> 0.16887663E+06</totfact>
</mgrwt>
</event>
<event>
 5    1  0.1721815E-001  0.1248142E+03  0.7546771E-02  0.1235360E+00
         21   -1    0    0  503  502  0.00000000000E+00  0.00000000000E+00  0.39097888536E+03  0.39097888536E+03  0.00000000000E+00 0. -1.
         21   -1    0    0  501  503 -0.00000000000E+00 -0.00000000000E+00 -0.42350520656E+02  0.42350520656E+02  0.00000000000E+00 0.  1.
         24    1    1    2    0    0 -0.44906501537E+02 -0.70050209114E+02  0.11013043303E+03  0.15974840816E+03  0.80419002446E+02 0.  0.
          1    1    1    2  501    0 -0.12458401020E+02 -0.22095973372E+02  0.40681558296E+02  0.47941975143E+02  0.00000000000E+00 0. -1.
         -2    1    1    2    0  502  0.57364902557E+02  0.92146182486E+02  0.19781637338E+03  0.22563902271E+03  0.00000000000E+00 0.  1.
<mgrwt>
<rscale>  2 0.12481416E+03</rscale>
<asrwt>0</asrwt>
<pdfrwt beam="1">  1       21 0.60150595E-01 0.12481416E+03</pdfrwt>
<pdfrwt beam="2">  1       21 0.65154650E-02 0.12481416E+03</pdfrwt>
<totfact> 0.44596738E+05</totfact>
</mgrwt>
</event>
<event>
 5    1  0.1721815E-001  0.8558136E+02  0.7546771E-02  0.1313919E+00
         21   -1    0    0  503  502  0.00000000000E+00  0.00000000000E+00  0.10724839616E+03  0.10724839616E+03  0.00000000000E+00 0.  1.
         21   -1    0    0  501  503 -0.00000000000E+00 -0.00000000000E+00 -0.24128225549E+03  0.24128225549E+03  0.00000000000E+00 0. -1.
         24    1    1    2    0    0 -0.29077028631E+02 -0.29884342361E+02 -0.21390750207E+03  0.23229761710E+03  0.80419002446E+02 0. -1.
          1    1    1    2  501    0  0.42619225795E+02 -0.52327704628E+01  0.24984138946E+02  0.49678843514E+02  0.00000000000E+00 0. -1.
         -2    1    1    2    0  502 -0.13542197163E+02  0.35117112824E+02  0.54889503801E+02  0.66554191037E+02  0.00000000000E+00 0.  1.
<mgrwt>
<rscale>  2 0.85581358E+02</rscale>
<asrwt>0</asrwt>
<pdfrwt beam="1">  1       21 0.16499753E-01 0.85581358E+02</pdfrwt>
<pdfrwt beam="2">  1       21 0.37120347E-01 0.85581358E+02</pdfrwt>
<totfact> 0.23684458E+05</totfact>
</mgrwt>
</event>
<event>
 5    1  0.1721815E-001  0.9522502E+02  0.7546771E-02  0.1290670E+00
         21   -1    0    0  501  502  0.00000000000E+00  0.00000000000E+00  0.62197868970E+02  0.62197868970E+02  0.00000000000E+00 0.  1.
         21   -1    0    0  502  503 -0.00000000000E+00 -0.00000000000E+00 -0.37955726924E+03  0.37955726924E+03  0.00000000000E+00 0. -1.
         24    1    1    2    0    0 -0.21628577427E+02  0.47669785997E+02 -0.31772361188E+03  0.33189714274E+03  0.80419002446E+02 0. -1.
          1    1    1    2  501    0 -0.22558769996E+02  0.75345509209E+01  0.25445890876E+02  0.34830459712E+02  0.00000000000E+00 0. -1.
         -2    1    1    2    0  503  0.44187347422E+02 -0.55204336918E+02 -0.25081679263E+02  0.75027535755E+02  0.00000000000E+00 0.  1.
<mgrwt>
<rscale>  2 0.95225016E+02</rscale>
<asrwt>0</asrwt>
<pdfrwt beam="1">  1       21 0.95689030E-02 0.95225016E+02</pdfrwt>
<pdfrwt beam="2">  1       21 0.58393425E-01 0.95225016E+02</pdfrwt>
<totfact> 0.24681409E+05</totfact>
</mgrwt>
</event>
<event>
 5    1  0.1721815E-001  0.1316736E+03  0.7546771E-02  0.1224993E+00
         21   -1    0    0  501  502  0.00000000000E+00  0.00000000000E+00  0.10863142377E+03  0.10863142377E+03  0.00000000000E+00 0. -1.
         21   -1    0    0  502  503 -0.00000000000E+00 -0.00000000000E+00 -0.24659791652E+03  0.24659791652E+03  0.00000000000E+00 0.  1.
         24    1    1    2    0    0  0.29280776404E+02  0.54228973961E+02 -0.40118591014E+02  0.10897184399E+03  0.80419002446E+02 0.  0.
          1    1    1    2  501    0  0.60834193917E+02 -0.33928529233E+02  0.39997883593E+02  0.80322941539E+02  0.00000000000E+00 0. -1.
         -2    1    1    2    0  503 -0.90114970321E+02 -0.20300444727E+02 -0.13784578533E+03  0.16593455476E+03  0.00000000000E+00 0.  1.
<mgrwt>
<rscale>  2 0.13167363E+03</rscale>
<asrwt>0</asrwt>
<pdfrwt beam="1">  1       21 0.16712527E-01 0.13167363E+03</pdfrwt>
<pdfrwt beam="2">  1       21 0.37938141E-01 0.13167363E+03</pdfrwt>
<totfact> 0.21915255E+05</totfact>
</mgrwt>
</event>
<event>
 5    1  0.1721815E-001  0.7125130E+02  0.7546771E-02  0.1355889E+00
         21   -1    0    0  501  502  0.00000000000E+00  0.00000000000E+00  0.54099941763E+03  0.54099941763E+03  0.00000000000E+00 0. -1.
         21   -1    0    0  502  503 -0.00000000000E+00 -0.00000000000E+00 -0.16196297374E+02  0.16196297374E+02  0.00000000000E+00 0. -1.
         24    1    1    2    0    0 -0.42199632225E+02  0.22862851970E+02  0.14802966923E+03  0.17516711417E+03  0.80419002446E+02 0. -1.
          1    1    1    2  501    0  0.20378175052E+02 -0.16204689941E+02  0.31670599337E+03  0.31777436686E+03  0.00000000000E+00 0. -1.
         -2    1    1    2    0  503  0.21821457173E+02 -0.66581620290E+01  0.60067457649E+02  0.64254233970E+02  0.00000000000E+00 0.  1.
<mgrwt>
<rscale>  2 0.71251305E+02</rscale>
<asrwt>0</asrwt>
<pdfrwt beam="1">  1       21 0.83230666E-01 0.71251305E+02</pdfrwt>
<pdfrwt beam="2">  1       21 0.24917385E-02 0.71251305E+02</pdfrwt>
<totfact> 0.10767721E+06</totfact>
</mgrwt>
</event>
<event>
 5    1  0.1721815E-001  0.1342452E+03  0.7546771E-02  0.1221289E+00
         21   -1    0    0  503  502  0.00000000000E+00  0.00000000000E+00  0.39391384860E+02  0.39391384860E+02  0.00000000000E+00 0.  1.
         21   -1    0    0  501  503 -0.00000000000E+00 -0.00000000000E+00 -0.13965344954E+04  0.13965344954E+04  0.00000000000E+00 0.  1.
         24    1    1    2    0    0  0.72976673170E+02  0.73040316700E+02 -0.12567525703E+04  0.12635484643E+04  0.80419002446E+02 0.  1.
          1    1    1    2  501    0 -0.53277515469E+02  0.83050647843E+01 -0.55589190498E+02  0.77444340373E+02  0.00000000000E+00 0. -1.
         -2    1    1    2    0  502 -0.19699157701E+02 -0.81345381484E+02 -0.44801349730E+02  0.94933075588E+02  0.00000000000E+00 0.  1.
<mgrwt>
<rscale>  2 0.13424521E+03</rscale>
<asrwt>0</asrwt>
<pdfrwt beam="1">  1       21 0.60602133E-02 0.13424521E+03</pdfrwt>
<pdfrwt beam="2">  1       21 0.21485145E+00 0.13424521E+03</pdfrwt>
<totfact> 0.22069446E+04</totfact>
</mgrwt>
</event>
<event>
 5    1  0.1721815E-001  0.9755179E+02  0.7546771E-02  0.1285530E+00
         21   -1    0    0  503  502  0.00000000000E+00  0.00000000000E+00  0.37878052638E+03  0.37878052638E+03  0.00000000000E+00 0.  1.
         21   -1    0    0  501  503 -0.00000000000E+00 -0.00000000000E+00 -0.27940252228E+02  0.27940252228E+02  0.00000000000E+00 0. -1.
         24    1    1    2    0    0 -0.28100143527E+00 -0.23002699706E+02  0.21675538902E+03  0.23233449546E+03  0.80419002446E+02 0.  1.
          1    1    1    2  501    0  0.51661315655E+02  0.29785686109E+02  0.74038013538E+02  0.95066850588E+02  0.00000000000E+00 0. -1.
         -2    1    1    2    0  502 -0.51380314219E+02 -0.67829864030E+01  0.60046871595E+02  0.79319432563E+02  0.00000000000E+00 0.  1.
<mgrwt>
<rscale>  2 0.97551787E+02</rscale>
<asrwt>0</asrwt>
<pdfrwt beam="1">  1       21 0.58273923E-01 0.97551787E+02</pdfrwt>
<pdfrwt beam="2">  1       21 0.42985006E-02 0.97551787E+02</pdfrwt>
<totfact> 0.95866604E+05</totfact>
</mgrwt>
</event>
<event>
 5    1  0.1721815E-001  0.1342495E+03  0.7546771E-02  0.1221283E+00
         21   -1    0    0  503  502  0.00000000000E+00  0.00000000000E+00  0.12521079034E+02  0.12521079034E+02  0.00000000000E+00 0. -1.
         21   -1    0    0  501  503 -0.00000000000E+00 -0.00000000000E+00 -0.15217040196E+04  0.15217040196E+04  0.00000000000E+00 0.  1.
         24    1    1    2    0    0 -0.98662080993E+02 -0.50410652389E+02 -0.88531348108E+03  0.89583626620E+03  0.80419002446E+02 0.  0.
          1    1    1    2  501    0  0.57848287400E+02 -0.99833026965E+01 -0.35467298237E+03  0.35949828248E+03  0.00000000000E+00 0. -1.
         -2    1    1    2    0  502  0.40813793593E+02  0.60393955085E+02 -0.26919647709E+03  0.27889054992E+03  0.00000000000E+00 0.  1.
<mgrwt>
<rscale>  2 0.13424945E+03</rscale>
<asrwt>0</asrwt>
<pdfrwt beam="1">  1       21 0.19263190E-02 0.13424945E+03</pdfrwt>
<pdfrwt beam="2">  1       21 0.23410841E+00 0.13424945E+03</pdfrwt>
<totfact> 0.11255603E+05</totfact>
</mgrwt>
</event>
<event>
 5    1  0.1721815E-001  0.1098806E+03  0.7546771E-02  0.1260791E+00
         21   -1    0    0  501  502  0.00000000000E+00  0.00000000000E+00  0.14770695258E+03  0.14770695258E+03  0.00000000000E+00 0.  1.
         21   -1    0    0  502  503 -0.00000000000E+00 -0.00000000000E+00 -0.13589403896E+03  0.13589403896E+03  0.00000000000E+00 0. -1.
         24    1    1    2    0    0 -0.79261183139E+02  0.35084753519E+02 -0.82915667064E+02  0.14441433059E+03  0.80419002446E+02 0. -1.
          1    1    1    2  501    0  0.20046322433E+02 -0.37212964279E+02  0.45990161340E+02  0.62464027196E+02  0.00000000000E+00 0. -1.
         -2    1    1    2    0  503  0.59214860705E+02  0.21282107598E+01  0.48738419345E+02  0.76722633750E+02  0.00000000000E+00 0.  1.
<mgrwt>
<rscale>  2 0.10988056E+03</rscale>
<asrwt>0</asrwt>
<pdfrwt beam="1">  1       21 0.22724147E-01 0.10988056E+03</pdfrwt>
<pdfrwt beam="2">  1       21 0.20906775E-01 0.10988056E+03</pdfrwt>
<totfact> 0.39075362E+05</totfact>
</mgrwt>
</event>
<event>
 5    1  0.1721815E-001  0.1061643E+03  0.7546771E-02  0.1267843E+00
         21   -1    0    0  501  502  0.00000000000E+00  0.00000000000E+00  0.48675569721E+02  0.48675569721E+02  0.00000000000E+00 0.  1.
         21   -1    0    0  502  503 -0.00000000000E+00 -0.00000000000E+00 -0.26714139383E+03  0.26714139383E+03  0.00000000000E+00 0.  1.
         24    1    1    2    0    0 -0.84279359173E+02  0.13769998688E+02 -0.17649663049E+03  0.21192191905E+03  0.80419002446E+02 0.  1.
          1    1    1    2  501    0  0.41454166131E+02 -0.27855908541E+02 -0.21147055941E+02  0.54236496064E+02  0.00000000000E+00 0. -1.
         -2    1    1    2    0  503  0.42825193042E+02  0.14085909853E+02 -0.20822137685E+02  0.49658548441E+02  0.00000000000E+00 0.  1.
<mgrwt>
<rscale>  2 0.10616428E+03</rscale>
<asrwt>0</asrwt>
<pdfrwt beam="1">  1       21 0.74885493E-02 0.10616428E+03</pdfrwt>
<pdfrwt beam="2">  1       21 0.41098675E-01 0.10616428E+03</pdfrwt>
<totfact> 0.77029207E+05</totfact>
</mgrwt>
</event>
<event>
 5    1  0.1721815E-001  0.1440173E+03  0.7546771E-02  0.1208023E+00
         21   -1    0    0  503  502  0.00000000000E+00  0.00000000000E+00  0.25787570764E+03  0.25787570764E+03  0.00000000000E+00 0. -1.
         21   -1    0    0  501  503 -0.00000000000E+00 -0.00000000000E+00 -0.24485965300E+03  0.24485965300E+03  0.00000000000E+00 0.  1.
         24    1    1    2    0    0  0.27650433974E+02  0.22940219587E+02 -0.19501313166E+03  0.21398162923E+03  0.80419002446E+02 0.  1.
          1    1    1    2  501    0 -0.18287962112E+02  0.87362282157E+02  0.85023111558E+02  0.12327022106E+03  0.00000000000E+00 0. -1.
         -2    1    1    2    0  502 -0.93624718621E+01 -0.11030250174E+03  0.12300607475E+03  0.16548351034E+03  0.00000000000E+00 0.  1.
<mgrwt>
<rscale>  2 0.14401732E+03</rscale>
<asrwt>0</asrwt>
<pdfrwt beam="1">  1       21 0.39673186E-01 0.14401732E+03</pdfrwt>
<pdfrwt beam="2">  1       21 0.37670716E-01 0.14401732E+03</pdfrwt>
<totfact> 0.42673056E+04</totfact>
</mgrwt>
</event>
<event>
 5    1  0.1721815E-001  0.1378419E+03  0.7546771E-02  0.1216263E+00
         21   -1    0    0  501  502  0.00000000000E+00  0.00000000000E+00  0.13375382300E+03  0.13375382300E+03  0.00000000000E+00 0.  1.
         21   -1    0    0  502  503 -0.00000000000E+00 -0.00000000000E+00 -0.18299159586E+03  0.18299159586E+03  0.00000000000E+00 0. -1.
         24    1    1    2    0    0 -0.29917367350E+02  0.69327529817E+02 -0.44298090083E+02  0.11887342848E+03  0.80419002446E+02 0. -1.
          1    1    1    2  501    0 -0.33809580875E+02  0.31424368545E+02  0.48741405647E+02  0.67129005071E+02  0.00000000000E+00 0. -1.
         -2    1    1    2    0  503  0.63726948225E+02 -0.10075189836E+03 -0.53681088415E+02  0.13074298531E+03  0.00000000000E+00 0.  1.
<mgrwt>
<rscale>  2 0.13784191E+03</rscale>
<asrwt>0</asrwt>
<pdfrwt beam="1">  1       21 0.20577511E-01 0.13784191E+03</pdfrwt>
<pdfrwt beam="2">  1       21 0.28152553E-01 0.13784191E+03</pdfrwt>
<totfact> 0.26720227E+05</totfact>
</mgrwt>
</event>
<event>
 5    1  0.1721815E-001  0.7782804E+02  0.7546771E-02  0.1335331E+00
         21   -1    0    0  503  502  0.00000000000E+00  0.00000000000E+00  0.13900486888E+03  0.13900486888E+03  0.00000000000E+00 0.  1.
         21   -1    0    0  501  503 -0.00000000000E+00 -0.00000000000E+00 -0.49507852332E+02  0.49507852332E+02  0.00000000000E+00 0. -1.
         24    1    1    2    0    0  0.31764470808E+02  0.16863257671E+02  0.18391437554E+02  0.89993399728E+02  0.80419002446E+02 0.  0.
          1    1    1    2  501    0 -0.63399858817E+01 -0.35485262167E+02  0.44556048600E+02  0.57311785166E+02  0.00000000000E+00 0. -1.
         -2    1    1    2    0  502 -0.25424484926E+02  0.18622004496E+02  0.26549530391E+02  0.41207536315E+02  0.00000000000E+00 0.  1.
<mgrwt>
<rscale>  2 0.77828038E+02</rscale>
<asrwt>0</asrwt>
<pdfrwt beam="1">  1       21 0.21385364E-01 0.77828038E+02</pdfrwt>
<pdfrwt beam="2">  1       21 0.76165927E-02 0.77828038E+02</pdfrwt>
<totfact> 0.25825995E+06</totfact>
</mgrwt>
</event>
<event>
 5    1  0.1721815E-001  0.9989094E+02  0.7546771E-02  0.1280525E+00
         21   -1    0    0  501  502  0.00000000000E+00  0.00000000000E+00  0.73906386748E+02  0.73906386748E+02  0.00000000000E+00 0.  1.
         21   -1    0    0  502  503 -0.00000000000E+00 -0.00000000000E+00 -0.55695150778E+03  0.55695150778E+03  0.00000000000E+00 0. -1.
         24    1    1    2    0    0 -0.19470442468E+02 -0.47746934853E+02 -0.44914233891E+03  0.45918942112E+03  0.80419002446E+02 0.  1.
          1    1    1    2  501    0  0.25064197548E+02  0.73625637785E+02  0.44021462791E+02  0.89369109452E+02  0.00000000000E+00 0. -1.
         -2    1    1    2    0  503 -0.55937550803E+01 -0.25878702933E+02 -0.77924244914E+02  0.82299363951E+02  0.00000000000E+00 0.  1.
<mgrwt>
<rscale>  2 0.99890940E+02</rscale>
<asrwt>0</asrwt>
<pdfrwt beam="1">  1       21 0.11370213E-01 0.99890940E+02</pdfrwt>
<pdfrwt beam="2">  1       21 0.85684850E-01 0.99890940E+02</pdfrwt>
<totfact> 0.79443235E+04</totfact>
</mgrwt>
</event>
<event>
 5    1  0.1721815E-001  0.7455072E+02  0.7546771E-02  0.1345268E+00
         21   -1    0    0  503  502  0.00000000000E+00  0.00000000000E+00  0.19058234861E+02  0.19058234861E+02  0.00000000000E+00 0.  1.
         21   -1    0    0  501  503 -0.00000000000E+00 -0.00000000000E+00 -0.87560854181E+03  0.87560854181E+03  0.00000000000E+00 0.  1.
         24    1    1    2    0    0  0.45411966649E+01  0.85046003636E+01 -0.78199719375E+03  0.78618049943E+03  0.80419002446E+02 0.  1.
          1    1    1    2  501    0  0.21401925292E+02 -0.28294504469E+02 -0.65716798428E+02  0.74681450073E+02  0.00000000000E+00 0. -1.
         -2    1    1    2    0  502 -0.25943121957E+02  0.19789904105E+02 -0.88363147739E+01  0.33804827172E+02  0.00000000000E+00 0.  1.
<mgrwt>
<rscale>  2 0.74550717E+02</rscale>
<asrwt>0</asrwt>
<pdfrwt beam="1">  1       21 0.29320355E-02 0.74550717E+02</pdfrwt>
<pdfrwt beam="2">  1       21 0.13470904E+00 0.74550717E+02</pdfrwt>
<totfact> 0.27050940E+05</totfact>
</mgrwt>
</event>
<event>
 5    1  0.1721815E-001  0.1159850E+03  0.7546771E-02  0.1249871E+00
         21   -1    0    0  501  502  0.00000000000E+00  0.00000000000E+00  0.21016027923E+02  0.21016027923E+02  0.00000000000E+00 0. -1.
         21   -1    0    0  502  503 -0.00000000000E+00 -0.00000000000E+00 -0.16653601503E+04  0.16653601503E+04  0.00000000000E+00 0.  1.
         24    1    1    2    0    0 -0.76645048859E+02 -0.78161109835E+01 -0.13599669426E+04  0.13645192765E+04  0.80419002446E+02 0.  1.
          1    1    1    2  501    0 -0.40788803513E+01  0.35142605375E+02 -0.13462079855E+02  0.37853237266E+02  0.00000000000E+00 0. -1.
         -2    1    1    2    0  503  0.80723929211E+02 -0.27326494392E+02 -0.27091509996E+03  0.28400366447E+03  0.00000000000E+00 0.  1.
<mgrwt>
<rscale>  2 0.11598501E+03</rscale>
<asrwt>0</asrwt>
<pdfrwt beam="1">  1       21 0.32332347E-02 0.11598501E+03</pdfrwt>
<pdfrwt beam="2">  1       21 0.25620928E+00 0.11598501E+03</pdfrwt>
<totfact> 0.36817643E+04</totfact>
</mgrwt>
</event>
<event>
 5    1  0.1721815E-001  0.9536357E+02  0.7546771E-02  0.1290359E+00
         21   -1    0    0  501  502  0.00000000000E+00  0.00000000000E+00  0.80967278746E+03  0.80967278746E+03  0.00000000000E+00 0. -1.
         21   -1    0    0  502  503 -0.00000000000E+00 -0.00000000000E+00 -0.20442988590E+02  0.20442988590E+02  0.00000000000E+00 0.  1.
         24    1    1    2    0    0 -0.56963306130E+02  0.40882888169E+02  0.15564844412E+03  0.18870581046E+03  0.80419002446E+02 0.  1.
          1    1    1    2  501    0  0.24148499933E+02  0.77535132966E+01  0.39148289997E+03  0.39230361710E+03  0.00000000000E+00 0. -1.
         -2    1    1    2    0  503  0.32814806197E+02 -0.48636401465E+02  0.24209845478E+03  0.24910634850E+03  0.00000000000E+00 0.  1.
<mgrwt>
<rscale>  2 0.95363574E+02</rscale>
<asrwt>0</asrwt>
<pdfrwt beam="1">  1       21 0.12456502E+00 0.95363574E+02</pdfrwt>
<pdfrwt beam="2">  1       21 0.31450758E-02 0.95363574E+02</pdfrwt>
<totfact> 0.29007759E+05</totfact>
</mgrwt>
</event>
<event>
 5    1  0.1721815E-001  0.9811677E+02  0.7546771E-02  0.1284307E+00
         21   -1    0    0  501  502  0.00000000000E+00  0.00000000000E+00  0.26334762400E+03  0.26334762400E+03  0.00000000000E+00 0. -1.
         21   -1    0    0  502  503 -0.00000000000E+00 -0.00000000000E+00 -0.58188417025E+02  0.58188417025E+02  0.00000000000E+00 0. -1.
         24    1    1    2    0    0  0.83092386613E+01 -0.45310445130E+02  0.54560669151E+01  0.92838916978E+02  0.80419002446E+02 0. -1.
          1    1    1    2  501    0 -0.39538261125E+02  0.57709459647E+02  0.17007415522E+03  0.18389908673E+03  0.00000000000E+00 0. -1.
         -2    1    1    2    0  503  0.31229022464E+02 -0.12399014517E+02  0.29628984840E+02  0.44798037319E+02  0.00000000000E+00 0.  1.
<mgrwt>
<rscale>  2 0.98116766E+02</rscale>
<asrwt>0</asrwt>
<pdfrwt beam="1">  1       21 0.40515019E-01 0.98116766E+02</pdfrwt>
<pdfrwt beam="2">  1       21 0.89520643E-02 0.98116766E+02</pdfrwt>
<totfact> 0.58326962E+05</totfact>
</mgrwt>
</event>
<event>
 5    1  0.1721815E-001  0.1122926E+03  0.7546771E-02  0.1256382E+00
         21   -1    0    0  503  502  0.00000000000E+00  0.00000000000E+00  0.31874721649E+03  0.31874721649E+03  0.00000000000E+00 0.  1.
         21   -1    0    0  501  503 -0.00000000000E+00 -0.00000000000E+00 -0.82780313291E+02  0.82780313291E+02  0.00000000000E+00 0.  1.
         24    1    1    2    0    0 -0.66845305006E+02 -0.63450187179E+02 -0.20022042182E+02  0.12394482313E+03  0.80419002446E+02 0.  1.
          1    1    1    2  501    0  0.42324130639E+01  0.31855502270E+02  0.45398376103E+02  0.55621029279E+02  0.00000000000E+00 0. -1.
         -2    1    1    2    0  502  0.62612891942E+02  0.31594684909E+02  0.21059056928E+03  0.22196167737E+03  0.00000000000E+00 0.  1.
<mgrwt>
<rscale>  2 0.11229256E+03</rscale>
<asrwt>0</asrwt>
<pdfrwt beam="1">  1       21 0.49038033E-01 0.11229256E+03</pdfrwt>
<pdfrwt beam="2">  1       21 0.12735433E-01 0.11229256E+03</pdfrwt>
<totfact> 0.21384653E+05</totfact>
</mgrwt>
</event>
<event>
 5    1  0.1721815E-001  0.1090307E+03  0.7546771E-02  0.1262375E+00
         21   -1    0    0  501  502  0.00000000000E+00  0.00000000000E+00  0.91261252543E+02  0.91261252543E+02  0.00000000000E+00 0. -1.
         21   -1    0    0  502  503 -0.00000000000E+00 -0.00000000000E+00 -0.19563774122E+03  0.19563774122E+03  0.00000000000E+00 0.  1.
         24    1    1    2    0    0 -0.97587967199E+01 -0.36810801494E+00 -0.11898466542E+03  0.14394421203E+03  0.80419002446E+02 0.  1.
          1    1    1    2  501    0  0.12128488231E+02 -0.67782909852E+02  0.26407217387E+02  0.73749333725E+02  0.00000000000E+00 0. -1.
         -2    1    1    2    0  503 -0.23696915114E+01  0.68151017867E+02 -0.11799040644E+02  0.69205448010E+02  0.00000000000E+00 0.  1.
<mgrwt>
<rscale>  2 0.10903072E+03</rscale>
<asrwt>0</asrwt>
<pdfrwt beam="1">  1       21 0.14040193E-01 0.10903072E+03</pdfrwt>
<pdfrwt beam="2">  1       21 0.30098114E-01 0.10903072E+03</pdfrwt>
<totfact> 0.47320797E+05</totfact>
</mgrwt>
</event>
<event>
 5    1  0.1721815E-001  0.1735484E+03  0.7546771E-02  0.1174197E+00
         21   -1    0    0  503  502  0.00000000000E+00  0.00000000000E+00  0.98510757392E+02  0.98510757392E+02  0.00000000000E+00 0.  1.
         21   -1    0    0  501  503 -0.00000000000E+00 -0.00000000000E+00 -0.44694539271E+03  0.44694539271E+03  0.00000000000E+00 0.  1.
         24    1    1    2    0    0  0.10064456871E+03  0.41535271261E+02 -0.24095933363E+03  0.27637497062E+03  0.80419002446E+02 0.  1.
          1    1    1    2  501    0  0.53213103151E+02 -0.17490399878E+02 -0.98234403856E+02  0.11308203454E+03  0.00000000000E+00 0. -1.
         -2    1    1    2    0  502 -0.15385767186E+03 -0.24044871383E+02 -0.92408978335E+01  0.15599914494E+03  0.00000000000E+00 0.  1.
<mgrwt>
<rscale>  2 0.17354839E+03</rscale>
<asrwt>0</asrwt>
<pdfrwt beam="1">  1       21 0.15155501E-01 0.17354839E+03</pdfrwt>
<pdfrwt beam="2">  1       21 0.68760830E-01 0.17354839E+03</pdfrwt>
<totfact> 0.74807473E+04</totfact>
</mgrwt>
</event>
<event>
 5    1  0.1721815E-001  0.2802373E+03  0.7546771E-02  0.1095559E+00
         21   -1    0    0  501  502  0.00000000000E+00  0.00000000000E+00  0.32825054222E+03  0.32825054222E+03  0.00000000000E+00 0. -1.
         21   -1    0    0  502  503 -0.00000000000E+00 -0.00000000000E+00 -0.31567655139E+03  0.31567655139E+03  0.00000000000E+00 0.  1.
         24    1    1    2    0    0 -0.99248038240E+02 -0.12392007064E+03 -0.67022628905E+02  0.19017256832E+03  0.80419002446E+02 0. -1.
          1    1    1    2  501    0  0.21532264544E+03  0.15139864429E+03  0.16172328020E+03  0.30893334312E+03  0.00000000000E+00 0. -1.
         -2    1    1    2    0  503 -0.11607460720E+03 -0.27478573649E+02 -0.82126660462E+02  0.14482118217E+03  0.00000000000E+00 0.  1.
<mgrwt>
<rscale>  2 0.28023735E+03</rscale>
<asrwt>0</asrwt>
<pdfrwt beam="1">  1       21 0.50500083E-01 0.28023735E+03</pdfrwt>
<pdfrwt beam="2">  1       21 0.48565623E-01 0.28023735E+03</pdfrwt>
<totfact> 0.14402792E+04</totfact>
</mgrwt>
</event>
<event>
 5    1  0.1721815E-001  0.1143865E+03  0.7546771E-02  0.1252656E+00
         21   -1    0    0  503  502  0.00000000000E+00  0.00000000000E+00  0.26038742614E+03  0.26038742614E+03  0.00000000000E+00 0.  1.
         21   -1    0    0  501  503 -0.00000000000E+00 -0.00000000000E+00 -0.82104841925E+02  0.82104841925E+02  0.00000000000E+00 0. -1.
         24    1    1    2    0    0 -0.51928237828E+02  0.15371967828E+02 -0.25006565548E+02  0.10012683733E+03  0.80419002446E+02 0.  0.
          1    1    1    2  501    0 -0.20061418080E+02  0.37480141941E+02  0.70950283080E+02  0.82711330569E+02  0.00000000000E+00 0. -1.
         -2    1    1    2    0  502  0.71989655908E+02 -0.52852109769E+02  0.13233886668E+03  0.15965410016E+03  0.00000000000E+00 0.  1.
<mgrwt>
<rscale>  2 0.11438648E+03</rscale>
<asrwt>0</asrwt>
<pdfrwt beam="1">  1       21 0.40059604E-01 0.11438648E+03</pdfrwt>
<pdfrwt beam="2">  1       21 0.12631514E-01 0.11438648E+03</pdfrwt>
<totfact> 0.32633705E+05</totfact>
</mgrwt>
</event>
<event>
 5    1  0.1721815E-001  0.1135220E+03  0.7546771E-02  0.1254183E+00
         21   -1    0    0  501  502  0.00000000000E+00  0.00000000000E+00  0.71665286939E+02  0.71665286939E+02  0.00000000000E+00 0.  1.
         21   -1    0    0  502  503 -0.00000000000E+00 -0.00000000000E+00 -0.21332469508E+03  0.21332469508E+03  0.00000000000E+00 0.  1.
         24    1    1    2    0    0 -0.54965421473E+02 -0.55949130764E+02 -0.14297581753E+02  0.11323930232E+03  0.80419002446E+02 0.  1.
          1    1    1    2  501    0  0.41391592717E+02 -0.13816770765E+02 -0.56470742215E+02  0.71366041142E+02  0.00000000000E+00 0. -1.
         -2    1    1    2    0  503  0.13573828755E+02  0.69765901529E+02 -0.70891084171E+02  0.10038463856E+03  0.00000000000E+00 0.  1.
<mgrwt>
<rscale>  2 0.11352197E+03</rscale>
<asrwt>0</asrwt>
<pdfrwt beam="1">  1       21 0.11025429E-01 0.11352197E+03</pdfrwt>
<pdfrwt beam="2">  1       21 0.32819184E-01 0.11352197E+03</pdfrwt>
<totfact> 0.61395740E+05</totfact>
</mgrwt>
</event>
<event>
 5    1  0.1721815E-001  0.9618207E+02  0.7546771E-02  0.1288536E+00
         21   -1    0    0  501  502  0.00000000000E+00  0.00000000000E+00  0.22873303704E+02  0.22873303704E+02  0.00000000000E+00 0.  1.
         21   -1    0    0  502  503 -0.00000000000E+00 -0.00000000000E+00 -0.11460949817E+04  0.11460949817E+04  0.00000000000E+00 0. -1.
         24    1    1    2    0    0 -0.13350008700E+02 -0.77990011153E+02 -0.10469859348E+04  0.10530467360E+04  0.80419002446E+02 0. -1.
          1    1    1    2  501    0 -0.71979665469E-01  0.20883147279E+02 -0.15348213917E+01  0.20939596416E+02  0.00000000000E+00 0. -1.
         -2    1    1    2    0  503  0.13421988366E+02  0.57106863873E+02 -0.74700921744E+02  0.94981952931E+02  0.00000000000E+00 0.  1.
<mgrwt>
<rscale>  2 0.96182073E+02</rscale>
<asrwt>0</asrwt>
<pdfrwt beam="1">  1       21 0.35189692E-02 0.96182073E+02</pdfrwt>
<pdfrwt beam="2">  1       21 0.17632233E+00 0.96182073E+02</pdfrwt>
<totfact> 0.99291857E+04</totfact>
</mgrwt>
</event>
<event>
 5    1  0.1721815E-001  0.1006225E+03  0.7546771E-02  0.1278992E+00
         21   -1    0    0  503  502  0.00000000000E+00  0.00000000000E+00  0.28680756873E+03  0.28680756873E+03  0.00000000000E+00 0.  1.
         21   -1    0    0  501  503 -0.00000000000E+00 -0.00000000000E+00 -0.41338930950E+02  0.41338930950E+02  0.00000000000E+00 0.  1.
         24    1    1    2    0    0 -0.30718917023E+02  0.11271723513E+02  0.46274775519E+02  0.98383303552E+02  0.80419002446E+02 0.  1.
          1    1    1    2  501    0 -0.64280140714E+01 -0.55951201747E+02  0.10254316377E+03  0.11699126795E+03  0.00000000000E+00 0. -1.
         -2    1    1    2    0  502  0.37146931095E+02  0.44679478234E+02  0.96650698487E+02  0.11277192817E+03  0.00000000000E+00 0.  1.
<mgrwt>
<rscale>  2 0.10062254E+03</rscale>
<asrwt>0</asrwt>
<pdfrwt beam="1">  1       21 0.44124240E-01 0.10062254E+03</pdfrwt>
<pdfrwt beam="2">  1       21 0.63598357E-02 0.10062254E+03</pdfrwt>
<totfact> 0.88150620E+05</totfact>
</mgrwt>
</event>
<event>
 5    1  0.1721815E-001  0.1252577E+03  0.7546771E-02  0.1234667E+00
         21   -1    0    0  501  502  0.00000000000E+00  0.00000000000E+00  0.15699432872E+03  0.15699432872E+03  0.00000000000E+00 0. -1.
         21   -1    0    0  502  503 -0.00000000000E+00 -0.00000000000E+00 -0.10436760156E+03  0.10436760156E+03  0.00000000000E+00 0.  1.
         24    1    1    2    0    0  0.43701770035E+02  0.52215172347E+02  0.34841365714E+00  0.10537365076E+03  0.80419002446E+02 0.  1.
          1    1    1    2  501    0 -0.75771361079E+02 -0.74365023090E+02  0.48837842782E+02  0.11686141667E+03  0.00000000000E+00 0. -1.
         -2    1    1    2    0  503  0.32069591043E+02  0.22149850742E+02  0.34404707233E+01  0.39126862849E+02  0.00000000000E+00 0.  1.
<mgrwt>
<rscale>  2 0.12525775E+03</rscale>
<asrwt>0</asrwt>
<pdfrwt beam="1">  1       21 0.24152974E-01 0.12525775E+03</pdfrwt>
<pdfrwt beam="2">  1       21 0.16056554E-01 0.12525775E+03</pdfrwt>
<totfact> 0.56424446E+05</totfact>
</mgrwt>
</event>
<event>
 5    1  0.1721815E-001  0.2508720E+03  0.7546771E-02  0.1112755E+00
         21   -1    0    0  503  502  0.00000000000E+00  0.00000000000E+00  0.31742417617E+03  0.31742417617E+03  0.00000000000E+00 0.  1.
         21   -1    0    0  501  503 -0.00000000000E+00 -0.00000000000E+00 -0.23750638796E+03  0.23750638796E+03  0.00000000000E+00 0.  1.
         24    1    1    2    0    0  0.40375323523E+02 -0.13307361366E+03 -0.58352171392E+02  0.17091209806E+03  0.80419002446E+02 0.  1.
          1    1    1    2  501    0  0.14405458795E+02 -0.10032828528E+03 -0.10447010785E+02  0.10189417110E+03  0.00000000000E+00 0. -1.
         -2    1    1    2    0  502 -0.54780782318E+02  0.23340189893E+03  0.14871697039E+03  0.28212429498E+03  0.00000000000E+00 0.  1.
<mgrwt>
<rscale>  2 0.25087199E+03</rscale>
<asrwt>0</asrwt>
<pdfrwt beam="1">  1       21 0.48834489E-01 0.25087199E+03</pdfrwt>
<pdfrwt beam="2">  1       21 0.36539444E-01 0.25087199E+03</pdfrwt>
<totfact> 0.28068841E+04</totfact>
</mgrwt>
</event>
<event>
 5    1  0.1721815E-001  0.8323898E+02  0.7546771E-02  0.1320103E+00
         21   -1    0    0  501  502  0.00000000000E+00  0.00000000000E+00  0.66326854968E+02  0.66326854968E+02  0.00000000000E+00 0. -1.
         21   -1    0    0  502  503 -0.00000000000E+00 -0.00000000000E+00 -0.20143181631E+03  0.20143181631E+03  0.00000000000E+00 0. -1.
         24    1    1    2    0    0  0.37457713220E+02 -0.36808267669E+02 -0.16404720480E+03  0.19009637084E+03  0.80419002446E+02 0. -1.
          1    1    1    2  501    0 -0.10204276999E+02  0.41534943266E+02  0.25483989877E+02  0.49786670116E+02  0.00000000000E+00 0. -1.
         -2    1    1    2    0  503 -0.27253436221E+02 -0.47266755969E+01  0.34582535814E+01  0.27875630323E+02  0.00000000000E+00 0.  1.
<mgrwt>
<rscale>  2 0.83238984E+02</rscale>
<asrwt>0</asrwt>
<pdfrwt beam="1">  1       21 0.10204132E-01 0.83238984E+02</pdfrwt>
<pdfrwt beam="2">  1       21 0.30989510E-01 0.83238984E+02</pdfrwt>
<totfact> 0.78324011E+05</totfact>
</mgrwt>
</event>
<event>
 5    1  0.1721815E-001  0.9099563E+02  0.7546771E-02  0.1300458E+00
         21   -1    0    0  501  502  0.00000000000E+00  0.00000000000E+00  0.39984486199E+02  0.39984486199E+02  0.00000000000E+00 0.  1.
         21   -1    0    0  502  503 -0.00000000000E+00 -0.00000000000E+00 -0.30961266029E+03  0.30961266029E+03  0.00000000000E+00 0. -1.
         24    1    1    2    0    0 -0.13302687409E+02  0.57024014122E+02 -0.24007954994E+03  0.25987324974E+03  0.80419002446E+02 0. -1.
          1    1    1    2  501    0  0.33451433278E+02 -0.16595378146E+02 -0.33178241266E+01  0.37488837286E+02  0.00000000000E+00 0. -1.
         -2    1    1    2    0  503 -0.20148745868E+02 -0.40428635975E+02 -0.26230800027E+02  0.52235059461E+02  0.00000000000E+00 0.  1.
<mgrwt>
<rscale>  2 0.90995626E+02</rscale>
<asrwt>0</asrwt>
<pdfrwt beam="1">  1       21 0.61514596E-02 0.90995626E+02</pdfrwt>
<pdfrwt beam="2">  1       21 0.47632716E-01 0.90995626E+02</pdfrwt>
<totfact> 0.79819708E+05</totfact>
</mgrwt>
</event>
<event>
 5    1  0.1721815E-001  0.1592886E+03  0.7546771E-02  0.1189502E+00
         21   -1    0    0  503  502  0.00000000000E+00  0.00000000000E+00  0.14764078462E+03  0.14764078462E+03  0.00000000000E+00 0.  1.
         21   -1    0    0  501  503 -0.00000000000E+00 -0.00000000000E+00 -0.24386146884E+03  0.24386146884E+03  0.00000000000E+00 0. -1.
         24    1    1    2    0    0  0.91832616640E+02 -0.50391096974E+02 -0.10812799684E+03  0.17067914866E+03  0.80419002446E+02 0.  0.
          1    1    1    2  501    0  0.43854264271E+02  0.10609501133E+02 -0.49225717824E+02  0.66775214745E+02  0.00000000000E+00 0. -1.
         -2    1    1    2    0  502 -0.13568688091E+03  0.39781595841E+02  0.61133030441E+02  0.15404789005E+03  0.00000000000E+00 0.  1.
<mgrwt>
<rscale>  2 0.15928863E+03</rscale>
<asrwt>0</asrwt>
<pdfrwt beam="1">  1       21 0.22713967E-01 0.15928863E+03</pdfrwt>
<pdfrwt beam="2">  1       21 0.37517149E-01 0.15928863E+03</pdfrwt>
<totfact> 0.12603364E+05</totfact>
</mgrwt>
</event>
<event>
 5    1  0.1721815E-001  0.9136148E+02  0.7546771E-02  0.1299588E+00
         21   -1    0    0  501  502  0.00000000000E+00  0.00000000000E+00  0.57277886213E+02  0.57277886213E+02  0.00000000000E+00 0. -1.
         21   -1    0    0  502  503 -0.00000000000E+00 -0.00000000000E+00 -0.18862589764E+03  0.18862589764E+03  0.00000000000E+00 0.  1.
         24    1    1    2    0    0  0.60316840575E+02 -0.39186819762E+01 -0.12919896554E+03  0.16374695715E+03  0.80419002446E+02 0.  1.
          1    1    1    2  501    0 -0.26256905920E+02  0.29523618066E+02 -0.15853983448E+01  0.39542162562E+02  0.00000000000E+00 0. -1.
         -2    1    1    2    0  503 -0.34059934656E+02 -0.25604936090E+02 -0.56364753749E+00  0.42614664136E+02  0.00000000000E+00 0.  1.
<mgrwt>
<rscale>  2 0.91361480E+02</rscale>
<asrwt>0</asrwt>
<pdfrwt beam="1">  1       21 0.88119825E-02 0.91361480E+02</pdfrwt>
<pdfrwt beam="2">  1       21 0.29019369E-01 0.91361480E+02</pdfrwt>
<totfact> 0.11455277E+06</totfact>
</mgrwt>
</event>
<event>
 5    1  0.1721815E-001  0.1393291E+03  0.7546771E-02  0.1214235E+00
         21   -1    0    0  503  502  0.00000000000E+00  0.00000000000E+00  0.21857226554E+03  0.21857226554E+03  0.00000000000E+00 0. -1.
         21   -1    0    0  501  503 -0.00000000000E+00 -0.00000000000E+00 -0.10243157441E+03  0.10243157441E+03  0.00000000000E+00 0.  1.
         24    1    1    2    0    0  0.39791225532E+02  0.64021170239E+02  0.65574137703E+01  0.11041860123E+03  0.80419002446E+02 0. -1.
          1    1    1    2  501    0 -0.21261745753E+02  0.49257429912E+02  0.26604021311E+01  0.53716235660E+02  0.00000000000E+00 0. -1.
         -2    1    1    2    0  502 -0.18529479779E+02 -0.11327860015E+03  0.10692287523E+03  0.15686900306E+03  0.00000000000E+00 0.  1.
<mgrwt>
<rscale>  2 0.13932905E+03</rscale>
<asrwt>0</asrwt>
<pdfrwt beam="1">  1       21 0.33626502E-01 0.13932905E+03</pdfrwt>
<pdfrwt beam="2">  1       21 0.15758704E-01 0.13932905E+03</pdfrwt>
<totfact> 0.30882934E+05</totfact>
</mgrwt>
</event>
<event>
 5    1  0.1721815E-001  0.1274733E+03  0.7546771E-02  0.1231254E+00
         21   -1    0    0  501  502  0.00000000000E+00  0.00000000000E+00  0.46663391597E+03  0.46663391597E+03  0.00000000000E+00 0. -1.
         21   -1    0    0  502  503 -0.00000000000E+00 -0.00000000000E+00 -0.37684482332E+02  0.37684482332E+02  0.00000000000E+00 0. -1.
         24    1    1    2    0    0 -0.93203081482E+02 -0.50872437815E+02  0.15404086942E+03  0.20364337635E+03  0.80419002446E+02 0. -1.
          1    1    1    2  501    0  0.69746376524E+02  0.64177206943E+02  0.21693093479E+03  0.23673255247E+03  0.00000000000E+00 0. -1.
         -2    1    1    2    0  503  0.23456704959E+02 -0.13304769128E+02  0.57977629434E+02  0.63942469485E+02  0.00000000000E+00 0.  1.
<mgrwt>
<rscale>  2 0.12747331E+03</rscale>
<asrwt>0</asrwt>
<pdfrwt beam="1">  1       21 0.71789829E-01 0.12747331E+03</pdfrwt>
<pdfrwt beam="2">  1       21 0.57976130E-02 0.12747331E+03</pdfrwt>
<totfact> 0.37118674E+05</totfact>
</mgrwt>
</event>
<event>
 5    1  0.1721815E-001  0.1791852E+03  0.7546771E-02  0.1168594E+00
         21   -1    0    0  501  502  0.00000000000E+00  0.00000000000E+00  0.23710765068E+03  0.23710765068E+03  0.00000000000E+00 0. -1.
         21   -1    0    0  502  503 -0.00000000000E+00 -0.00000000000E+00 -0.29738132648E+03  0.29738132648E+03  0.00000000000E+00 0.  1.
         24    1    1    2    0    0  0.91104435710E+02  0.65820115642E+01 -0.14954940144E+03  0.19280970024E+03  0.80419002446E+02 0.  0.
          1    1    1    2  501    0 -0.15767905799E+03 -0.39283890640E+02  0.16785233581E+03  0.23362430530E+03  0.00000000000E+00 0. -1.
         -2    1    1    2    0  503  0.66574622278E+02  0.32701879076E+02 -0.78576610160E+02  0.10805497162E+03  0.00000000000E+00 0.  1.
<mgrwt>
<rscale>  2 0.17918515E+03</rscale>
<asrwt>0</asrwt>
<pdfrwt beam="1">  1       21 0.36478100E-01 0.17918515E+03</pdfrwt>
<pdfrwt beam="2">  1       21 0.45750973E-01 0.17918515E+03</pdfrwt>
<totfact> 0.33430746E+04</totfact>
</mgrwt>
</event>
<event>
 5    1  0.1721815E-001  0.1562972E+03  0.7546771E-02  0.1192942E+00
         21   -1    0    0  501  502  0.00000000000E+00  0.00000000000E+00  0.16320301667E+03  0.16320301667E+03  0.00000000000E+00 0. -1.
         21   -1    0    0  502  503 -0.00000000000E+00 -0.00000000000E+00 -0.43344054908E+03  0.43344054908E+03  0.00000000000E+00 0. -1.
         24    1    1    2    0    0 -0.25027502865E+02 -0.11279685444E+03 -0.36067995107E+03  0.38717792980E+03  0.80419002446E+02 0. -1.
          1    1    1    2  501    0  0.49167317264E+02  0.13207471463E+03  0.10457762502E+03  0.17549254966E+03  0.00000000000E+00 0. -1.
         -2    1    1    2    0  503 -0.24139814399E+02 -0.19277860187E+02 -0.14135206369E+02  0.33973086285E+02  0.00000000000E+00 0.  1.
<mgrwt>
<rscale>  2 0.15629716E+03</rscale>
<asrwt>0</asrwt>
<pdfrwt beam="1">  1       21 0.25108157E-01 0.15629716E+03</pdfrwt>
<pdfrwt beam="2">  1       21 0.66683160E-01 0.15629716E+03</pdfrwt>
<totfact> 0.31606885E+04</totfact>
</mgrwt>
</event>
<event>
 5    1  0.1721815E-001  0.1029454E+03  0.7546771E-02  0.1274221E+00
         21   -1    0    0  503  502  0.00000000000E+00  0.00000000000E+00  0.17512493809E+03  0.17512493809E+03  0.00000000000E+00 0.  1.
         21   -1    0    0  501  503 -0.00000000000E+00 -0.00000000000E+00 -0.62656573818E+02  0.62656573818E+02  0.00000000000E+00 0. -1.
         24    1    1    2    0    0  0.27491275322E+02  0.83790244675E+01  0.39486572279E+02  0.94087106527E+02  0.80419002446E+02 0.  0.
          1    1    1    2  501    0 -0.42710544469E+02  0.46736391929E+02  0.21815907376E+02  0.66965773004E+02  0.00000000000E+00 0. -1.
         -2    1    1    2    0  502  0.15219269147E+02 -0.55115416396E+02  0.51165884617E+02  0.76728632377E+02  0.00000000000E+00 0.  1.
<mgrwt>
<rscale>  2 0.10294543E+03</rscale>
<asrwt>0</asrwt>
<pdfrwt beam="1">  1       21 0.26942298E-01 0.10294543E+03</pdfrwt>
<pdfrwt beam="2">  1       21 0.96394730E-02 0.10294543E+03</pdfrwt>
<totfact> 0.11321727E+06</totfact>
</mgrwt>
</event>
<event>
 5    1  0.1721815E-001  0.1203470E+03  0.7546771E-02  0.1242526E+00
         21   -1    0    0  503  502  0.00000000000E+00  0.00000000000E+00  0.22980262729E+03  0.22980262729E+03  0.00000000000E+00 0.  1.
         21   -1    0    0  501  503 -0.00000000000E+00 -0.00000000000E+00 -0.13748227609E+03  0.13748227609E+03  0.00000000000E+00 0. -1.
         24    1    1    2    0    0 -0.87512730920E+01  0.23430267416E+02 -0.81669855707E+02  0.11731471987E+03  0.80419002446E+02 0. -1.
          1    1    1    2  501    0  0.36173541804E+02  0.59220304862E+02  0.18600919501E+02  0.71844024393E+02  0.00000000000E+00 0. -1.
         -2    1    1    2    0  502 -0.27422268712E+02 -0.82650572278E+02  0.15538928741E+03  0.17812615911E+03  0.00000000000E+00 0.  1.
<mgrwt>
<rscale>  2 0.12034696E+03</rscale>
<asrwt>0</asrwt>
<pdfrwt beam="1">  1       21 0.35354250E-01 0.12034696E+03</pdfrwt>
<pdfrwt beam="2">  1       21 0.21151119E-01 0.12034696E+03</pdfrwt>
<totfact> 0.16392746E+05</totfact>
</mgrwt>
</event>
<event>
 5    1  0.1721815E-001  0.1238924E+03  0.7546771E-02  0.1236810E+00
         21   -1    0    0  503  502  0.00000000000E+00  0.00000000000E+00  0.60149637971E+03  0.60149637971E+03  0.00000000000E+00 0.  1.
         21   -1    0    0  501  503 -0.00000000000E+00 -0.00000000000E+00 -0.32922694269E+02  0.32922694269E+02  0.00000000000E+00 0. -1.
         24    1    1    2    0    0 -0.87903296778E+00 -0.28073437396E+01  0.77502271498E+02  0.11172498342E+03  0.80419002446E+02 0. -1.
          1    1    1    2  501    0 -0.58954883170E+02  0.60301313573E+02  0.15421186936E+03  0.17576469304E+03  0.00000000000E+00 0. -1.
         -2    1    1    2    0  502  0.59833916137E+02 -0.57493969834E+02  0.33685954458E+03  0.34692939752E+03  0.00000000000E+00 0.  1.
<mgrwt>
<rscale>  2 0.12389244E+03</rscale>
<asrwt>0</asrwt>
<pdfrwt beam="1">  1       21 0.92537896E-01 0.12389244E+03</pdfrwt>
<pdfrwt beam="2">  1       21 0.50650303E-02 0.12389244E+03</pdfrwt>
<totfact> 0.26404717E+05</totfact>
</mgrwt>
</event>
<event>
 5    1  0.1721815E-001  0.9814659E+02  0.7546771E-02  0.1284242E+00
         21   -1    0    0  503  502  0.00000000000E+00  0.00000000000E+00  0.66840474901E+02  0.66840474901E+02  0.00000000000E+00 0. -1.
         21   -1    0    0  501  503 -0.00000000000E+00 -0.00000000000E+00 -0.31221260240E+03  0.31221260240E+03  0.00000000000E+00 0.  1.
         24    1    1    2    0    0 -0.93622184712E+01  0.31552873709E+02 -0.25473962315E+03  0.26915186519E+03  0.80419002446E+02 0.  1.
          1    1    1    2  501    0 -0.18878605661E+02  0.33515762338E+02  0.10381505684E+01  0.38480980152E+02  0.00000000000E+00 0. -1.
         -2    1    1    2    0  502  0.28240824132E+02 -0.65068636048E+02  0.83293450824E+01  0.71420231967E+02  0.00000000000E+00 0.  1.
<mgrwt>
<rscale>  2 0.98146586E+02</rscale>
<asrwt>0</asrwt>
<pdfrwt beam="1">  1       21 0.10283150E-01 0.98146586E+02</pdfrwt>
<pdfrwt beam="2">  1       21 0.48032709E-01 0.98146586E+02</pdfrwt>
<totfact> 0.32579617E+05</totfact>
</mgrwt>
</event>
<event>
 5    1  0.1721815E-001  0.2334471E+03  0.7546771E-02  0.1124237E+00
         21   -1    0    0  501  502  0.00000000000E+00  0.00000000000E+00  0.11049494620E+03  0.11049494620E+03  0.00000000000E+00 0.  1.
         21   -1    0    0  502  503 -0.00000000000E+00 -0.00000000000E+00 -0.56017195280E+03  0.56017195280E+03  0.00000000000E+00 0. -1.
         24    1    1    2    0    0  0.14650226453E+03  0.12690042306E+02 -0.28012554892E+03  0.32643757413E+03  0.80419002446E+02 0.  1.
          1    1    1    2  501    0 -0.21621141729E+03 -0.47507717651E+02 -0.13193850731E+03  0.25770551006E+03  0.00000000000E+00 0. -1.
         -2    1    1    2    0  503  0.69709152759E+02  0.34817675345E+02 -0.37612950373E+02  0.86523814818E+02  0.00000000000E+00 0.  1.
<mgrwt>
<rscale>  2 0.23344709E+03</rscale>
<asrwt>0</asrwt>
<pdfrwt beam="1">  1       21 0.16999223E-01 0.23344709E+03</pdfrwt>
<pdfrwt beam="2">  1       21 0.86180300E-01 0.23344709E+03</pdfrwt>
<totfact> 0.35471764E+04</totfact>
</mgrwt>
</event>
<event>
 5    1  0.1721815E-001  0.8098834E+02  0.7546771E-02  0.1326270E+00
         21   -1    0    0  501  502  0.00000000000E+00  0.00000000000E+00  0.14736885642E+02  0.14736885642E+02  0.00000000000E+00 0. -1.
         21   -1    0    0  502  503 -0.00000000000E+00 -0.00000000000E+00 -0.74823516239E+03  0.74823516239E+03  0.00000000000E+00 0.  1.
         24    1    1    2    0    0  0.16311414316E+02  0.13358891719E+02 -0.60524670042E+03  0.61092987040E+03  0.80419002446E+02 0.  1.
          1    1    1    2  501    0  0.74312582056E+01 -0.41420351435E+02 -0.48397846086E+02  0.64134394963E+02  0.00000000000E+00 0. -1.
         -2    1    1    2    0  503 -0.23742672522E+02  0.28061459716E+02 -0.79853730242E+02  0.87907782667E+02  0.00000000000E+00 0.  1.
<mgrwt>
<rscale>  2 0.80988344E+02</rscale>
<asrwt>0</asrwt>
<pdfrwt beam="1">  1       21 0.22672127E-02 0.80988344E+02</pdfrwt>
<pdfrwt beam="2">  1       21 0.11511313E+00 0.80988344E+02</pdfrwt>
<totfact> 0.59704970E+05</totfact>
</mgrwt>
</event>
<event>
 5    1  0.1721815E-001  0.1212550E+03  0.7546771E-02  0.1241041E+00
         21   -1    0    0  503  502  0.00000000000E+00  0.00000000000E+00  0.19404332462E+03  0.19404332462E+03  0.00000000000E+00 0.  1.
         21   -1    0    0  501  503 -0.00000000000E+00 -0.00000000000E+00 -0.31327269128E+03  0.31327269128E+03  0.00000000000E+00 0. -1.
         24    1    1    2    0    0 -0.95318328742E+01 -0.29972219503E+02 -0.17387335131E+03  0.19413487072E+03  0.80419002446E+02 0.  0.
          1    1    1    2  501    0 -0.41749695233E+02 -0.47507891077E+02 -0.10841136401E+03  0.12551119716E+03  0.00000000000E+00 0. -1.
         -2    1    1    2    0  502  0.51281528107E+02  0.77480110580E+02  0.16305534866E+03  0.18766994801E+03  0.00000000000E+00 0.  1.
<mgrwt>
<rscale>  2 0.12125503E+03</rscale>
<asrwt>0</asrwt>
<pdfrwt beam="1">  1       21 0.29852819E-01 0.12125503E+03</pdfrwt>
<pdfrwt beam="2">  1       21 0.48195798E-01 0.12125503E+03</pdfrwt>
<totfact> 0.45933921E+04</totfact>
</mgrwt>
</event>
<event>
 5    1  0.1721815E-001  0.1133819E+03  0.7546771E-02  0.1254432E+00
         21   -1    0    0  501  502  0.00000000000E+00  0.00000000000E+00  0.68578252670E+02  0.68578252670E+02  0.00000000000E+00 0. -1.
         21   -1    0    0  502  503 -0.00000000000E+00 -0.00000000000E+00 -0.25211174530E+03  0.25211174530E+03  0.00000000000E+00 0.  1.
         24    1    1    2    0    0  0.69664751208E+02 -0.61675021178E+02 -0.17043196702E+03  0.21016959137E+03  0.80419002446E+02 0.  1.
          1    1    1    2  501    0 -0.68382703590E+02  0.34526559021E+02  0.66943279721E+01  0.76896628373E+02  0.00000000000E+00 0. -1.
         -2    1    1    2    0  503 -0.12820476178E+01  0.27148462157E+02 -0.19795853583E+02  0.33623778233E+02  0.00000000000E+00 0.  1.
<mgrwt>
<rscale>  2 0.11338195E+03</rscale>
<asrwt>0</asrwt>
<pdfrwt beam="1">  1       21 0.10550500E-01 0.11338195E+03</pdfrwt>
<pdfrwt beam="2">  1       21 0.38786422E-01 0.11338195E+03</pdfrwt>
<totfact> 0.47784471E+05</totfact>
</mgrwt>
</event>
<event>
 5    1  0.1721815E-001  0.1390441E+03  0.7546771E-02  0.1214621E+00
         21   -1    0    0  501  502  0.00000000000E+00  0.00000000000E+00  0.33615955990E+02  0.33615955990E+02  0.00000000000E+00 0.  1.
         21   -1    0    0  502  503 -0.00000000000E+00 -0.00000000000E+00 -0.66826632296E+03  0.66826632296E+03  0.00000000000E+00 0.  1.
         24    1    1    2    0    0  0.88502469879E+02  0.41782903896E+02 -0.41806107816E+03  0.43683037813E+03  0.80419002446E+02 0.  1.
          1    1    1    2  501    0 -0.91688538037E+01 -0.67422060484E+02 -0.11509880735E+03  0.13370690922E+03  0.00000000000E+00 0. -1.
         -2    1    1    2    0  503 -0.79333616075E+02  0.25639156588E+02 -0.10149048145E+03  0.13134499159E+03  0.00000000000E+00 0.  1.
<mgrwt>
<rscale>  2 0.13904406E+03</rscale>
<asrwt>0</asrwt>
<pdfrwt beam="1">  1       21 0.51716858E-02 0.13904406E+03</pdfrwt>
<pdfrwt beam="2">  1       21 0.10281020E+00 0.13904406E+03</pdfrwt>
<totfact> 0.19863899E+05</totfact>
</mgrwt>
</event>
<event>
 5    1  0.1721815E-001  0.1528987E+03  0.7546771E-02  0.1196956E+00
         21   -1    0    0  503  502  0.00000000000E+00  0.00000000000E+00  0.19687091908E+03  0.19687091908E+03  0.00000000000E+00 0.  1.
         21   -1    0    0  501  503 -0.00000000000E+00 -0.00000000000E+00 -0.39476077155E+03  0.39476077155E+03  0.00000000000E+00 0. -1.
         24    1    1    2    0    0  0.48523998051E+02  0.10710414968E+02 -0.27162321429E+03  0.28760333425E+03  0.80419002446E+02 0. -1.
          1    1    1    2  501    0  0.39160675175E+02 -0.86763950843E+02 -0.70816045368E+02  0.11864423259E+03  0.00000000000E+00 0. -1.
         -2    1    1    2    0  502 -0.87684673226E+02  0.76053535875E+02  0.14454940718E+03  0.18538412379E+03  0.00000000000E+00 0.  1.
<mgrwt>
<rscale>  2 0.15289869E+03</rscale>
<asrwt>0</asrwt>
<pdfrwt beam="1">  1       21 0.30287834E-01 0.15289869E+03</pdfrwt>
<pdfrwt beam="2">  1       21 0.60732425E-01 0.15289869E+03</pdfrwt>
<totfact> 0.27025611E+04</totfact>
</mgrwt>
</event>
<event>
 5    1  0.1721815E-001  0.1290084E+03  0.7546771E-02  0.1228935E+00
         21   -1    0    0  501  502  0.00000000000E+00  0.00000000000E+00  0.22623500147E+03  0.22623500147E+03  0.00000000000E+00 0. -1.
         21   -1    0    0  502  503 -0.00000000000E+00 -0.00000000000E+00 -0.79107840699E+02  0.79107840699E+02  0.00000000000E+00 0. -1.
         24    1    1    2    0    0 -0.11661187352E+02 -0.82468495953E+02  0.51845390842E+02  0.12685502206E+03  0.80419002446E+02 0. -1.
          1    1    1    2  501    0  0.46364090834E+02  0.94703302734E+02  0.94638762385E+02  0.14168570786E+03  0.00000000000E+00 0. -1.
         -2    1    1    2    0  503 -0.34702903482E+02 -0.12234806780E+02  0.64300754226E+00  0.36802112245E+02  0.00000000000E+00 0.  1.
<mgrwt>
<rscale>  2 0.12900839E+03</rscale>
<asrwt>0</asrwt>
<pdfrwt beam="1">  1       21 0.34805385E-01 0.12900839E+03</pdfrwt>
<pdfrwt beam="2">  1       21 0.12170437E-01 0.12900839E+03</pdfrwt>
<totfact> 0.45943081E+05</totfact>
</mgrwt>
</event>
<event>
 5    1  0.1721815E-001  0.6593184E+02  0.7546771E-02  0.1374500E+00
         21   -1    0    0  503  502  0.00000000000E+00  0.00000000000E+00  0.28092901020E+03  0.28092901020E+03  0.00000000000E+00 0.  1.
         21   -1    0    0  501  503 -0.00000000000E+00 -0.00000000000E+00 -0.34227612864E+02  0.34227612864E+02  0.00000000000E+00 0.  1.
         24    1    1    2    0    0 -0.32808455729E+01  0.79701842477E+01  0.20809050080E+02  0.83513593530E+02  0.80419002446E+02 0.  0.
          1    1    1    2  501    0 -0.10703864860E+01  0.21332901275E+02  0.82299596209E+02  0.85026242656E+02  0.00000000000E+00 0. -1.
         -2    1    1    2    0  502  0.43512320589E+01 -0.29303085523E+02  0.14359275105E+03  0.14661678688E+03  0.00000000000E+00 0.  1.
<mgrwt>
<rscale>  2 0.65931842E+02</rscale>
<asrwt>0</asrwt>
<pdfrwt beam="1">  1       21 0.43219846E-01 0.65931842E+02</pdfrwt>
<pdfrwt beam="2">  1       21 0.52657868E-02 0.65931842E+02</pdfrwt>
<totfact> 0.12479229E+06</totfact>
</mgrwt>
</event>
<event>
 5    1  0.1721815E-001  0.6989342E+02  0.7546771E-02  0.1360456E+00
         21   -1    0    0  503  502  0.00000000000E+00  0.00000000000E+00  0.23746926651E+02  0.23746926651E+02  0.00000000000E+00 0.  1.
         21   -1    0    0  501  503 -0.00000000000E+00 -0.00000000000E+00 -0.35040535964E+03  0.35040535964E+03  0.00000000000E+00 0.  1.
         24    1    1    2    0    0 -0.87964970493E+01  0.90513696107E+01 -0.29640341124E+03  0.30737843744E+03  0.80419002446E+02 0.  1.
          1    1    1    2  501    0  0.63347290888E+01 -0.33357121155E+02 -0.23928316103E+02  0.41537821751E+02  0.00000000000E+00 0. -1.
         -2    1    1    2    0  502  0.24617679606E+01  0.24305751544E+02 -0.63267056465E+01  0.25236027103E+02  0.00000000000E+00 0.  1.
<mgrwt>
<rscale>  2 0.69893424E+02</rscale>
<asrwt>0</asrwt>
<pdfrwt beam="1">  1       21 0.36533736E-02 0.69893424E+02</pdfrwt>
<pdfrwt beam="2">  1       21 0.53908513E-01 0.69893424E+02</pdfrwt>
<totfact> 0.14598551E+06</totfact>
</mgrwt>
</event>
<event>
 5    1  0.1721815E-001  0.9948489E+02  0.7546771E-02  0.1281383E+00
         21   -1    0    0  503  502  0.00000000000E+00  0.00000000000E+00  0.20394153324E+03  0.20394153324E+03  0.00000000000E+00 0.  1.
         21   -1    0    0  501  503 -0.00000000000E+00 -0.00000000000E+00 -0.99874555568E+02  0.99874555568E+02  0.00000000000E+00 0. -1.
         24    1    1    2    0    0 -0.21235281576E+02 -0.16465073956E+02 -0.49663072998E+02  0.98263282145E+02  0.80419002446E+02 0. -1.
          1    1    1    2  501    0  0.48004354752E+02 -0.32780759206E+02  0.21577363505E+02  0.62004668091E+02  0.00000000000E+00 0. -1.
         -2    1    1    2    0  502 -0.26769073175E+02  0.49245833161E+02  0.13215268717E+03  0.14354813858E+03  0.00000000000E+00 0.  1.
<mgrwt>
<rscale>  2 0.99484888E+02</rscale>
<asrwt>0</asrwt>
<pdfrwt beam="1">  1       21 0.31375620E-01 0.99484888E+02</pdfrwt>
<pdfrwt beam="2">  1       21 0.15365316E-01 0.99484888E+02</pdfrwt>
<totfact> 0.37203756E+05</totfact>
</mgrwt>
</event>
<event>
 5    1  0.1721815E-001  0.1340001E+03  0.7546771E-02  0.1221638E+00
         21   -1    0    0  501  502  0.00000000000E+00  0.00000000000E+00  0.33411796684E+02  0.33411796684E+02  0.00000000000E+00 0. -1.
         21   -1    0    0  502  503 -0.00000000000E+00 -0.00000000000E+00 -0.56307059140E+03  0.56307059140E+03  0.00000000000E+00 0. -1.
         24    1    1    2    0    0  0.93999033567E+02  0.30755616110E+01 -0.30886151192E+03  0.33272800737E+03  0.80419002446E+02 0. -1.
          1    1    1    2  501    0 -0.98496910596E+02  0.36039853208E+02 -0.16234147968E+03  0.19327511076E+03  0.00000000000E+00 0. -1.
         -2    1    1    2    0  503  0.44978770289E+01 -0.39115414819E+02 -0.58455803119E+02  0.70479269949E+02  0.00000000000E+00 0.  1.
<mgrwt>
<rscale>  2 0.13400008E+03</rscale>
<asrwt>0</asrwt>
<pdfrwt beam="1">  1       21 0.51402763E-02 0.13400008E+03</pdfrwt>
<pdfrwt beam="2">  1       21 0.86626247E-01 0.13400008E+03</pdfrwt>
<totfact> 0.29877734E+05</totfact>
</mgrwt>
</event>
<event>
 5    1  0.1721815E-001  0.6765610E+02  0.7546771E-02  0.1368250E+00
         21   -1    0    0  503  502  0.00000000000E+00  0.00000000000E+00  0.26731248516E+03  0.26731248516E+03  0.00000000000E+00 0.  1.
         21   -1    0    0  501  503 -0.00000000000E+00 -0.00000000000E+00 -0.22683618521E+02  0.22683618521E+02  0.00000000000E+00 0.  1.
         24    1    1    2    0    0 -0.21544596939E+02 -0.18204477184E+01  0.75492736365E+02  0.11240041319E+03  0.80419002446E+02 0.  1.
          1    1    1    2  501    0  0.16854519379E+01  0.22966367989E+02  0.51134445595E+02  0.56080534351E+02  0.00000000000E+00 0. -1.
         -2    1    1    2    0  502  0.19859145001E+02 -0.21145920270E+02  0.11800168468E+03  0.12151515614E+03  0.00000000000E+00 0.  1.
<mgrwt>
<rscale>  2 0.67656104E+02</rscale>
<asrwt>0</asrwt>
<pdfrwt beam="1">  1       21 0.41124996E-01 0.67656104E+02</pdfrwt>
<pdfrwt beam="2">  1       21 0.34897876E-02 0.67656104E+02</pdfrwt>
<totfact> 0.27040482E+06</totfact>
</mgrwt>
</event>
<event>
 5    1  0.1721815E-001  0.7815225E+02  0.7546771E-02  0.1334378E+00
         21   -1    0    0  501  502  0.00000000000E+00  0.00000000000E+00  0.12480471592E+03  0.12480471592E+03  0.00000000000E+00 0. -1.
         21   -1    0    0  502  503 -0.00000000000E+00 -0.00000000000E+00 -0.11627630074E+03  0.11627630074E+03  0.00000000000E+00 0. -1.
         24    1    1    2    0    0  0.85978797249E+01  0.12185105853E+02 -0.69918474999E+02  0.10760208846E+03  0.80419002446E+02 0. -1.
          1    1    1    2  501    0  0.32003961459E+02  0.40126247345E+00  0.84670305518E+02  0.90517817015E+02  0.00000000000E+00 0. -1.
         -2    1    1    2    0  503 -0.40601841183E+02 -0.12586368326E+02 -0.62234153402E+01  0.42961111178E+02  0.00000000000E+00 0.  1.
<mgrwt>
<rscale>  2 0.78152253E+02</rscale>
<asrwt>0</asrwt>
<pdfrwt beam="1">  1       21 0.19200725E-01 0.78152253E+02</pdfrwt>
<pdfrwt beam="2">  1       21 0.17888662E-01 0.78152253E+02</pdfrwt>
<totfact> 0.70805407E+05</totfact>
</mgrwt>
</event>
<event>
 5    1  0.1721815E-001  0.7585565E+02  0.7546771E-02  0.1341242E+00
         21   -1    0    0  503  502  0.00000000000E+00  0.00000000000E+00  0.11765044694E+04  0.11765044694E+04  0.00000000000E+00 0.  1.
         21   -1    0    0  501  503 -0.00000000000E+00 -0.00000000000E+00 -0.70632443696E+01  0.70632443696E+01  0.00000000000E+00 0. -1.
         24    1    1    2    0    0  0.54204686773E+02 -0.25073706893E+01  0.38941065742E+03  0.40131323308E+03  0.80419002446E+02 0. -1.
          1    1    1    2  501    0 -0.25189445526E+02  0.46039915163E+01  0.22311243277E+03  0.22457707488E+03  0.00000000000E+00 0. -1.
         -2    1    1    2    0  502 -0.29015241247E+02 -0.20966208270E+01  0.55691813487E+03  0.55767740584E+03  0.00000000000E+00 0.  1.
<mgrwt>
<rscale>  2 0.75855646E+02</rscale>
<asrwt>0</asrwt>
<pdfrwt beam="1">  1       21 0.18100053E+00 0.75855646E+02</pdfrwt>
<pdfrwt beam="2">  1       21 0.10866539E-02 0.75855646E+02</pdfrwt>
<totfact> 0.61190314E+05</totfact>
</mgrwt>
</event>
<event>
 5    1  0.1982769E-001  0.1442959E+03  0.7546771E-02  0.1207663E+00
         21   -1    0    0  501  502  0.00000000000E+00  0.00000000000E+00  0.11486933494E+03  0.11486933494E+03  0.00000000000E+00 0. -1.
         21   -1    0    0  502  503 -0.00000000000E+00 -0.00000000000E+00 -0.19256147147E+03  0.19256147147E+03  0.00000000000E+00 0.  1.
         24    1    1    2    0    0  0.13386897481E+02  0.10166174343E+02 -0.23730207605E+02  0.85515488844E+02  0.80419002446E+02 0.  0.
          1    1    1    2  501    0 -0.10714308120E+03  0.17766401994E+02  0.31202453108E+01  0.10865091265E+03  0.00000000000E+00 0. -1.
         -2    1    1    2    0  503  0.93756183715E+02 -0.27932576338E+02 -0.57082174233E+02  0.11326440492E+03  0.00000000000E+00 0.  1.
<mgrwt>
<rscale>  2 0.14429590E+03</rscale>
<asrwt>0</asrwt>
<pdfrwt beam="1">  1       21 0.17672206E-01 0.14429590E+03</pdfrwt>
<pdfrwt beam="2">  1       21 0.29624841E-01 0.14429590E+03</pdfrwt>
<totfact> 0.32036962E+05</totfact>
</mgrwt>
</event>
<event>
 5    1  0.1721815E-001  0.6227085E+02  0.7546771E-02  0.1388542E+00
         21   -1    0    0  501  502  0.00000000000E+00  0.00000000000E+00  0.17627128986E+02  0.17627128986E+02  0.00000000000E+00 0. -1.
         21   -1    0    0  502  503 -0.00000000000E+00 -0.00000000000E+00 -0.24048262476E+03  0.24048262476E+03  0.00000000000E+00 0. -1.
         24    1    1    2    0    0  0.79230498799E+01  0.15182481530E+02 -0.17994140169E+03  0.19783681776E+03  0.80419002446E+02 0. -1.
          1    1    1    2  501    0 -0.20501043356E+02  0.24645407042E+01 -0.21310140919E+02  0.29673032295E+02  0.00000000000E+00 0. -1.
         -2    1    1    2    0  503  0.12577993476E+02 -0.17647022234E+02 -0.21603953172E+02  0.30599903697E+02  0.00000000000E+00 0.  1.
<mgrwt>
<rscale>  2 0.62270847E+02</rscale>
<asrwt>0</asrwt>
<pdfrwt beam="1">  1       21 0.27118662E-02 0.62270847E+02</pdfrwt>
<pdfrwt beam="2">  1       21 0.36997324E-01 0.62270847E+02</pdfrwt>
<totfact> 0.49657231E+06</totfact>
</mgrwt>
</event>
<event>
 5    1  0.1721815E-001  0.7653233E+02  0.7546771E-02  0.1339191E+00
         21   -1    0    0  501  502  0.00000000000E+00  0.00000000000E+00  0.11358341178E+03  0.11358341178E+03  0.00000000000E+00 0. -1.
         21   -1    0    0  502  503 -0.00000000000E+00 -0.00000000000E+00 -0.67161447054E+03  0.67161447054E+03  0.00000000000E+00 0. -1.
         24    1    1    2    0    0 -0.28686945737E+02 -0.30136470118E+01 -0.54225233757E+03  0.54894156017E+03  0.80419002446E+02 0. -1.
          1    1    1    2  501    0  0.22569421446E+02 -0.28030829843E+02  0.10521202116E+03  0.11119656291E+03  0.00000000000E+00 0. -1.
         -2    1    1    2    0  503  0.61175242910E+01  0.31044476855E+02 -0.12099074235E+03  0.12505975924E+03  0.00000000000E+00 0.  1.
<mgrwt>
<rscale>  2 0.76532327E+02</rscale>
<asrwt>0</asrwt>
<pdfrwt beam="1">  1       21 0.17474371E-01 0.76532327E+02</pdfrwt>
<pdfrwt beam="2">  1       21 0.10332530E+00 0.76532327E+02</pdfrwt>
<totfact> 0.24662830E+04</totfact>
</mgrwt>
</event>
<event>
 5    1  0.1721815E-001  0.1578158E+03  0.7546771E-02  0.1191185E+00
         21   -1    0    0  503  502  0.00000000000E+00  0.00000000000E+00  0.39974002499E+03  0.39974002499E+03  0.00000000000E+00 0.  1.
         21   -1    0    0  501  503 -0.00000000000E+00 -0.00000000000E+00 -0.82608316598E+02  0.82608316598E+02  0.00000000000E+00 0. -1.
         24    1    1    2    0    0 -0.22587033382E+02 -0.32173513975E+02  0.28267571939E+02  0.93870020007E+02  0.80419002446E+02 0.  0.
          1    1    1    2  501    0  0.10273140309E+03 -0.47436775679E+02  0.48928275641E+02  0.12328002687E+03  0.00000000000E+00 0. -1.
         -2    1    1    2    0  502 -0.80144369707E+02  0.79610289654E+02  0.23993586081E+03  0.26519829471E+03  0.00000000000E+00 0.  1.
<mgrwt>
<rscale>  2 0.15781583E+03</rscale>
<asrwt>0</asrwt>
<pdfrwt beam="1">  1       21 0.61498464E-01 0.15781583E+03</pdfrwt>
<pdfrwt beam="2">  1       21 0.12708972E-01 0.15781583E+03</pdfrwt>
<totfact> 0.13174137E+05</totfact>
</mgrwt>
</event>
<event>
 5    1  0.1721815E-001  0.1305588E+03  0.7546771E-02  0.1226629E+00
         21   -1    0    0  501  502  0.00000000000E+00  0.00000000000E+00  0.26661374424E+03  0.26661374424E+03  0.00000000000E+00 0. -1.
         21   -1    0    0  502  503 -0.00000000000E+00 -0.00000000000E+00 -0.66110908645E+02  0.66110908645E+02  0.00000000000E+00 0.  1.
         24    1    1    2    0    0 -0.54623205773E+02  0.33889879258E+02  0.54440959431E+02  0.11646137790E+03  0.80419002446E+02 0.  0.
          1    1    1    2  501    0  0.10455190019E+03 -0.23778932654E+02  0.11158742097E+03  0.15475235052E+03  0.00000000000E+00 0. -1.
         -2    1    1    2    0  503 -0.49928694418E+02 -0.10110946604E+02  0.34474455193E+02  0.61510924464E+02  0.00000000000E+00 0.  1.
<mgrwt>
<rscale>  2 0.13055882E+03</rscale>
<asrwt>0</asrwt>
<pdfrwt beam="1">  1       21 0.41017499E-01 0.13055882E+03</pdfrwt>
<pdfrwt beam="2">  1       21 0.10170909E-01 0.13055882E+03</pdfrwt>
<totfact> 0.45500909E+05</totfact>
</mgrwt>
</event>
<event>
 5    1  0.1721815E-001  0.8428140E+02  0.7546771E-02  0.1317323E+00
         21   -1    0    0  503  502  0.00000000000E+00  0.00000000000E+00  0.56374052128E+03  0.56374052128E+03  0.00000000000E+00 0.  1.
         21   -1    0    0  501  503 -0.00000000000E+00 -0.00000000000E+00 -0.30370302280E+02  0.30370302280E+02  0.00000000000E+00 0. -1.
         24    1    1    2    0    0 -0.47672748678E+02  0.40950653273E+01  0.53135153885E+02  0.10761050627E+03  0.80419002446E+02 0. -1.
          1    1    1    2  501    0  0.20857512863E+02  0.26875450688E+02  0.15461360962E+03  0.15831201462E+03  0.00000000000E+00 0. -1.
         -2    1    1    2    0  502  0.26815235814E+02 -0.30970516015E+02  0.32562145549E+03  0.32818830267E+03  0.00000000000E+00 0.  1.
<mgrwt>
<rscale>  2 0.84281404E+02</rscale>
<asrwt>0</asrwt>
<pdfrwt beam="1">  1       21 0.86729303E-01 0.84281404E+02</pdfrwt>
<pdfrwt beam="2">  1       21 0.46723546E-02 0.84281404E+02</pdfrwt>
<totfact> 0.35316412E+05</totfact>
</mgrwt>
</event>
<event>
 5    1  0.1721815E-001  0.1648232E+03  0.7546771E-02  0.1183357E+00
         21   -1    0    0  501  502  0.00000000000E+00  0.00000000000E+00  0.79859494033E+03  0.79859494033E+03  0.00000000000E+00 0. -1.
         21   -1    0    0  502  503 -0.00000000000E+00 -0.00000000000E+00 -0.47819096794E+02  0.47819096794E+02  0.00000000000E+00 0.  1.
         24    1    1    2    0    0 -0.97133223349E+02  0.23169838522E+02  0.11277783895E+03  0.17075643885E+03  0.80419002446E+02 0.  1.
          1    1    1    2  501    0  0.81986016816E+02  0.69532070628E+02  0.47962087330E+03  0.49152069937E+03  0.00000000000E+00 0. -1.
         -2    1    1    2    0  503  0.15147206533E+02 -0.92701909150E+02  0.15837713128E+03  0.18413689891E+03  0.00000000000E+00 0.  1.
<mgrwt>
<rscale>  2 0.16482319E+03</rscale>
<asrwt>0</asrwt>
<pdfrwt beam="1">  1       21 0.12286075E+00 0.16482319E+03</pdfrwt>
<pdfrwt beam="2">  1       21 0.73567847E-02 0.16482319E+03</pdfrwt>
<totfact> 0.70093299E+04</totfact>
</mgrwt>
</event>
<event>
 5    1  0.1721815E-001  0.1227207E+03  0.7546771E-02  0.1238675E+00
         21   -1    0    0  501  502  0.00000000000E+00  0.00000000000E+00  0.39295592898E+03  0.39295592898E+03  0.00000000000E+00 0.  1.
         21   -1    0    0  502  503 -0.00000000000E+00 -0.00000000000E+00 -0.59119808783E+02  0.59119808783E+02  0.00000000000E+00 0.  1.
         24    1    1    2    0    0 -0.10198590139E+02  0.67111662945E+02  0.36328537788E+02  0.11133267785E+03  0.80419002446E+02 0.  1.
          1    1    1    2  501    0 -0.31627274895E+02  0.24162973221E+02  0.18803472799E+03  0.19220091759E+03  0.00000000000E+00 0. -1.
         -2    1    1    2    0  503  0.41825865033E+02 -0.91274636166E+02  0.10947285442E+03  0.14854214233E+03  0.00000000000E+00 0.  1.
<mgrwt>
<rscale>  2 0.12272074E+03</rscale>
<asrwt>0</asrwt>
<pdfrwt beam="1">  1       21 0.60454757E-01 0.12272074E+03</pdfrwt>
<pdfrwt beam="2">  1       21 0.90953555E-02 0.12272074E+03</pdfrwt>
<totfact> 0.24879064E+05</totfact>
</mgrwt>
</event>
<event>
 5    1  0.1721815E-001  0.9914586E+02  0.7546771E-02  0.1282102E+00
         21   -1    0    0  503  502  0.00000000000E+00  0.00000000000E+00  0.90531471432E+02  0.90531471432E+02  0.00000000000E+00 0. -1.
         21   -1    0    0  501  503 -0.00000000000E+00 -0.00000000000E+00 -0.12195552699E+03  0.12195552699E+03  0.00000000000E+00 0. -1.
         24    1    1    2    0    0  0.51094905672E+02 -0.18936497450E+01 -0.12239966039E+02  0.96079696180E+02  0.80419002446E+02 0. -1.
          1    1    1    2  501    0 -0.67697078732E+02  0.27010726794E+02 -0.36668304347E+02  0.81590675781E+02  0.00000000000E+00 0. -1.
         -2    1    1    2    0  502  0.16602173060E+02 -0.25117077048E+02  0.17484214829E+02  0.34816626459E+02  0.00000000000E+00 0.  1.
<mgrwt>
<rscale>  2 0.99145856E+02</rscale>
<asrwt>0</asrwt>
<pdfrwt beam="1">  1       21 0.13927919E-01 0.99145856E+02</pdfrwt>
<pdfrwt beam="2">  1       21 0.18762389E-01 0.99145856E+02</pdfrwt>
<totfact> 0.11610107E+06</totfact>
</mgrwt>
</event>
<event>
 5    1  0.1721815E-001  0.1180328E+03  0.7546771E-02  0.1246378E+00
         21   -1    0    0  503  502  0.00000000000E+00  0.00000000000E+00  0.89105660568E+03  0.89105660568E+03  0.00000000000E+00 0. -1.
         21   -1    0    0  501  503 -0.00000000000E+00 -0.00000000000E+00 -0.16976994629E+02  0.16976994629E+02  0.00000000000E+00 0.  1.
         24    1    1    2    0    0 -0.89365320399E+01  0.70678988187E+02  0.28192271663E+03  0.30170020729E+03  0.80419002446E+02 0. -1.
          1    1    1    2  501    0 -0.28094866746E+02 -0.84541858782E+02  0.36175893642E+03  0.37256700808E+03  0.00000000000E+00 0. -1.
         -2    1    1    2    0  502  0.37031398786E+02  0.13862870595E+02  0.23039795800E+03  0.23376638494E+03  0.00000000000E+00 0.  1.
<mgrwt>
<rscale>  2 0.11803275E+03</rscale>
<asrwt>0</asrwt>
<pdfrwt beam="1">  1       21 0.13708560E+00 0.11803275E+03</pdfrwt>
<pdfrwt beam="2">  1       21 0.26118460E-02 0.11803275E+03</pdfrwt>
<totfact> 0.30756325E+05</totfact>
</mgrwt>
</event>
<event>
 5    1  0.1721815E-001  0.8666313E+02  0.7546771E-02  0.1311140E+00
         21   -1    0    0  501  502  0.00000000000E+00  0.00000000000E+00  0.75532815692E+03  0.75532815692E+03  0.00000000000E+00 0. -1.
         21   -1    0    0  502  503 -0.00000000000E+00 -0.00000000000E+00 -0.58006210360E+02  0.58006210360E+02  0.00000000000E+00 0. -1.
         24    1    1    2    0    0 -0.60102675897E+02  0.30778456469E+02 -0.64381019683E+01  0.10520603663E+03  0.80419002446E+02 0. -1.
          1    1    1    2  501    0  0.35992777263E+02 -0.12645042752E+02  0.55671176002E+03  0.55801734817E+03  0.00000000000E+00 0. -1.
         -2    1    1    2    0  503  0.24109898634E+02 -0.18133413717E+02  0.14704828852E+03  0.15011098248E+03  0.00000000000E+00 0.  1.
<mgrwt>
<rscale>  2 0.86663131E+02</rscale>
<asrwt>0</asrwt>
<pdfrwt beam="1">  1       21 0.11620432E+00 0.86663131E+02</pdfrwt>
<pdfrwt beam="2">  1       21 0.89240329E-02 0.86663131E+02</pdfrwt>
<totfact> 0.60314998E+04</totfact>
</mgrwt>
</event>
<event>
 5    1  0.1721815E-001  0.9975109E+02  0.7546771E-02  0.1280820E+00
         21   -1    0    0  501  502  0.00000000000E+00  0.00000000000E+00  0.90642675757E+02  0.90642675757E+02  0.00000000000E+00 0. -1.
         21   -1    0    0  502  503 -0.00000000000E+00 -0.00000000000E+00 -0.11337199573E+03  0.11337199573E+03  0.00000000000E+00 0. -1.
         24    1    1    2    0    0 -0.30837606292E+02 -0.42398944630E+02 -0.27450075682E+02  0.99846637785E+02  0.80419002446E+02 0. -1.
          1    1    1    2  501    0  0.30563294649E+02  0.69749074794E+02  0.82189473913E+01  0.76593730231E+02  0.00000000000E+00 0. -1.
         -2    1    1    2    0  503  0.27431164349E+00 -0.27350130164E+02 -0.34981916817E+01  0.27574303471E+02  0.00000000000E+00 0.  1.
<mgrwt>
<rscale>  2 0.99751089E+02</rscale>
<asrwt>0</asrwt>
<pdfrwt beam="1">  1       21 0.13945027E-01 0.99751089E+02</pdfrwt>
<pdfrwt beam="2">  1       21 0.17441846E-01 0.99751089E+02</pdfrwt>
<totfact> 0.13230598E+06</totfact>
</mgrwt>
</event>
<event>
 5    1  0.1721815E-001  0.1220144E+03  0.7546771E-02  0.1239810E+00
         21   -1    0    0  503  502  0.00000000000E+00  0.00000000000E+00  0.16141584704E+03  0.16141584704E+03  0.00000000000E+00 0.  1.
         21   -1    0    0  501  503 -0.00000000000E+00 -0.00000000000E+00 -0.12587160959E+03  0.12587160959E+03  0.00000000000E+00 0. -1.
         24    1    1    2    0    0 -0.23632783436E+02  0.53779426475E+02 -0.48544149753E+02  0.11079027753E+03  0.80419002446E+02 0. -1.
          1    1    1    2  501    0 -0.78152274004E+01  0.42470075984E+02 -0.25151708673E+01  0.43256343095E+02  0.00000000000E+00 0. -1.
         -2    1    1    2    0  502  0.31448010836E+02 -0.96249502459E+02  0.86603558075E+02  0.13324083601E+03  0.00000000000E+00 0.  1.
<mgrwt>
<rscale>  2 0.12201445E+03</rscale>
<asrwt>0</asrwt>
<pdfrwt beam="1">  1       21 0.24833207E-01 0.12201445E+03</pdfrwt>
<pdfrwt beam="2">  1       21 0.19364863E-01 0.12201445E+03</pdfrwt>
<totfact> 0.38049228E+05</totfact>
</mgrwt>
</event>
<event>
 5    1  0.1721815E-001  0.8390170E+02  0.7546771E-02  0.1318330E+00
         21   -1    0    0  503  502  0.00000000000E+00  0.00000000000E+00  0.20593346394E+03  0.20593346394E+03  0.00000000000E+00 0.  1.
         21   -1    0    0  501  503 -0.00000000000E+00 -0.00000000000E+00 -0.62434309272E+02  0.62434309272E+02  0.00000000000E+00 0.  1.
         24    1    1    2    0    0 -0.41052052566E+02 -0.42439562441E+02 -0.22029235916E+01  0.99792065350E+02  0.80419002446E+02 0.  1.
          1    1    1    2  501    0  0.27685014126E+02  0.48065254397E+01  0.14884597251E+02  0.31798017694E+02  0.00000000000E+00 0. -1.
         -2    1    1    2    0  502  0.13367038440E+02  0.37633037001E+02  0.13081748101E+03  0.13677769017E+03  0.00000000000E+00 0.  1.
<mgrwt>
<rscale>  2 0.83901698E+02</rscale>
<asrwt>0</asrwt>
<pdfrwt beam="1">  1       21 0.31682071E-01 0.83901698E+02</pdfrwt>
<pdfrwt beam="2">  1       21 0.96052785E-02 0.83901698E+02</pdfrwt>
<totfact> 0.83359125E+05</totfact>
</mgrwt>
</event>
<event>
 5    1  0.1721815E-001  0.8299150E+02  0.7546771E-02  0.1320770E+00
         21   -1    0    0  501  502  0.00000000000E+00  0.00000000000E+00  0.13437634261E+02  0.13437634261E+02  0.00000000000E+00 0. -1.
         21   -1    0    0  502  503 -0.00000000000E+00 -0.00000000000E+00 -0.14335940472E+04  0.14335940472E+04  0.00000000000E+00 0.  1.
         24    1    1    2    0    0 -0.34660731390E+02  0.31163510711E+02 -0.13186659971E+04  0.13219378800E+04  0.80419002446E+02 0.  1.
          1    1    1    2  501    0  0.47551118526E+02 -0.10529030863E+02 -0.64577940116E+02  0.80884360129E+02  0.00000000000E+00 0. -1.
         -2    1    1    2    0  503 -0.12890387136E+02 -0.20634479847E+02 -0.36912475706E+02  0.44209441320E+02  0.00000000000E+00 0.  1.
<mgrwt>
<rscale>  2 0.82991501E+02</rscale>
<asrwt>0</asrwt>
<pdfrwt beam="1">  1       21 0.20673299E-02 0.82991501E+02</pdfrwt>
<pdfrwt beam="2">  1       21 0.22055276E+00 0.82991501E+02</pdfrwt>
<totfact> 0.12637088E+05</totfact>
</mgrwt>
</event>
<event>
 5    1  0.1721815E-001  0.1347027E+03  0.7546771E-02  0.1220640E+00
         21   -1    0    0  501  502  0.00000000000E+00  0.00000000000E+00  0.10124879873E+04  0.10124879873E+04  0.00000000000E+00 0.  1.
         21   -1    0    0  502  503 -0.00000000000E+00 -0.00000000000E+00 -0.18101762917E+02  0.18101762917E+02  0.00000000000E+00 0.  1.
         24    1    1    2    0    0  0.16668493200E+02  0.70670045633E+02  0.40841003967E+03  0.42253765569E+03  0.80419002446E+02 0.  1.
          1    1    1    2  501    0 -0.80049597034E+02 -0.28695408931E+02  0.34743842703E+03  0.35769375876E+03  0.00000000000E+00 0. -1.
         -2    1    1    2    0  503  0.63381103834E+02 -0.41974636702E+02  0.23853775768E+03  0.25035833577E+03  0.00000000000E+00 0.  1.
<mgrwt>
<rscale>  2 0.13470274E+03</rscale>
<asrwt>0</asrwt>
<pdfrwt beam="1">  1       21 0.15576734E+00 0.13470274E+03</pdfrwt>
<pdfrwt beam="2">  1       21 0.27848874E-02 0.13470274E+03</pdfrwt>
<totfact> 0.19820735E+05</totfact>
</mgrwt>
</event>
<event>
 5    1  0.1721815E-001  0.1763081E+03  0.7546771E-02  0.1171425E+00
         21   -1    0    0  501  502  0.00000000000E+00  0.00000000000E+00  0.49184674490E+02  0.49184674490E+02  0.00000000000E+00 0.  1.
         21   -1    0    0  502  503 -0.00000000000E+00 -0.00000000000E+00 -0.86811326087E+03  0.86811326087E+03  0.00000000000E+00 0.  1.
         24    1    1    2    0    0  0.12851352557E+03 -0.60177829389E+02 -0.61225456674E+03  0.63360868669E+03  0.80419002446E+02 0.  1.
          1    1    1    2  501    0  0.16604554424E-01 -0.31583414149E+02 -0.13954615761E+02  0.34528881043E+02  0.00000000000E+00 0. -1.
         -2    1    1    2    0  503 -0.12853013012E+03  0.91761243538E+02 -0.19271940388E+03  0.24916036763E+03  0.00000000000E+00 0.  1.
<mgrwt>
<rscale>  2 0.17630806E+03</rscale>
<asrwt>0</asrwt>
<pdfrwt beam="1">  1       21 0.75668735E-02 0.17630806E+03</pdfrwt>
<pdfrwt beam="2">  1       21 0.13355588E+00 0.17630806E+03</pdfrwt>
<totfact> 0.53833930E+04</totfact>
</mgrwt>
</event>
<event>
 5    1  0.1721815E-001  0.1042649E+03  0.7546771E-02  0.1271575E+00
         21   -1    0    0  501  502  0.00000000000E+00  0.00000000000E+00  0.72906874855E+03  0.72906874855E+03  0.00000000000E+00 0. -1.
         21   -1    0    0  502  503 -0.00000000000E+00 -0.00000000000E+00 -0.16872017902E+02  0.16872017902E+02  0.00000000000E+00 0.  1.
         24    1    1    2    0    0 -0.13639411626E+02 -0.48219177297E+02  0.31721354179E+03  0.33106309014E+03  0.80419002446E+02 0. -1.
          1    1    1    2  501    0 -0.44668465446E+02  0.18753130686E+02  0.26509324057E+03  0.26948353922E+03  0.00000000000E+00 0. -1.
         -2    1    1    2    0  503  0.58307877073E+02  0.29466046612E+02  0.12988994829E+03  0.14539413709E+03  0.00000000000E+00 0.  1.
<mgrwt>
<rscale>  2 0.10426490E+03</rscale>
<asrwt>0</asrwt>
<pdfrwt beam="1">  1       21 0.11216440E+00 0.10426490E+03</pdfrwt>
<pdfrwt beam="2">  1       21 0.25956956E-02 0.10426490E+03</pdfrwt>
<totfact> 0.50905256E+05</totfact>
</mgrwt>
</event>
<event>
 5    1  0.1721815E-001  0.1054761E+03  0.7546771E-02  0.1269184E+00
         21   -1    0    0  503  502  0.00000000000E+00  0.00000000000E+00  0.46630791134E+03  0.46630791134E+03  0.00000000000E+00 0.  1.
         21   -1    0    0  501  503 -0.00000000000E+00 -0.00000000000E+00 -0.34898352717E+02  0.34898352717E+02  0.00000000000E+00 0. -1.
         24    1    1    2    0    0  0.33257952462E+02  0.21394464447E+02  0.56465191333E+02  0.10592142511E+03  0.80419002446E+02 0. -1.
          1    1    1    2  501    0 -0.50735594771E+01 -0.67288150154E+02  0.15901517961E+03  0.17274045126E+03  0.00000000000E+00 0. -1.
         -2    1    1    2    0  502 -0.28184392985E+02  0.45893685707E+02  0.21592918769E+03  0.22254438769E+03  0.00000000000E+00 0.  1.
<mgrwt>
<rscale>  2 0.10547615E+03</rscale>
<asrwt>0</asrwt>
<pdfrwt beam="1">  1       21 0.71739674E-01 0.10547615E+03</pdfrwt>
<pdfrwt beam="2">  1       21 0.53689777E-02 0.10547615E+03</pdfrwt>
<totfact> 0.42451562E+05</totfact>
</mgrwt>
</event>
<event>
 5    1  0.1721815E-001  0.1164881E+03  0.7546771E-02  0.1249006E+00
         21   -1    0    0  501  502  0.00000000000E+00  0.00000000000E+00  0.73271986042E+03  0.73271986042E+03  0.00000000000E+00 0.  1.
         21   -1    0    0  502  503 -0.00000000000E+00 -0.00000000000E+00 -0.31048159783E+02  0.31048159783E+02  0.00000000000E+00 0. -1.
         24    1    1    2    0    0 -0.22000531803E+02 -0.64929915472E+01  0.59669275045E+02  0.10273179001E+03  0.80419002446E+02 0. -1.
          1    1    1    2  501    0 -0.34461600300E+02 -0.55606443884E+02  0.38935417809E+03  0.39481179629E+03  0.00000000000E+00 0. -1.
         -2    1    1    2    0  503  0.56462132102E+02  0.62099435432E+02  0.25264824751E+03  0.26622443391E+03  0.00000000000E+00 0.  1.
<mgrwt>
<rscale>  2 0.11648810E+03</rscale>
<asrwt>0</asrwt>
<pdfrwt beam="1">  1       21 0.11272612E+00 0.11648810E+03</pdfrwt>
<pdfrwt beam="2">  1       21 0.47766405E-02 0.11648810E+03</pdfrwt>
<totfact> 0.18375757E+05</totfact>
</mgrwt>
</event>
<event>
 5    1  0.1721815E-001  0.8457735E+02  0.7546771E-02  0.1316542E+00
         21   -1    0    0  501  502  0.00000000000E+00  0.00000000000E+00  0.33146014543E+03  0.33146014543E+03  0.00000000000E+00 0. -1.
         21   -1    0    0  502  503 -0.00000000000E+00 -0.00000000000E+00 -0.28476561870E+02  0.28476561870E+02  0.00000000000E+00 0. -1.
         24    1    1    2    0    0 -0.29471803007E+02  0.31971818945E+02  0.72678405664E+02  0.11679105695E+03  0.80419002446E+02 0. -1.
          1    1    1    2  501    0  0.27626020109E+02  0.14516409297E+02  0.10189642044E+03  0.10656830497E+03  0.00000000000E+00 0. -1.
         -2    1    1    2    0  503  0.18457828982E+01 -0.46488228242E+02  0.12840875746E+03  0.13657734538E+03  0.00000000000E+00 0.  1.
<mgrwt>
<rscale>  2 0.84577349E+02</rscale>
<asrwt>0</asrwt>
<pdfrwt beam="1">  1       21 0.50993866E-01 0.84577349E+02</pdfrwt>
<pdfrwt beam="2">  1       21 0.43810098E-02 0.84577349E+02</pdfrwt>
<totfact> 0.12213916E+06</totfact>
</mgrwt>
</event>
<event>
 5    1  0.1721815E-001  0.1196744E+03  0.7546771E-02  0.1243635E+00
         21   -1    0    0  503  502  0.00000000000E+00  0.00000000000E+00  0.55895674408E+03  0.55895674408E+03  0.00000000000E+00 0. -1.
         21   -1    0    0  501  503 -0.00000000000E+00 -0.00000000000E+00 -0.59349722955E+02  0.59349722955E+02  0.00000000000E+00 0.  1.
         24    1    1    2    0    0 -0.96319494862E+02  0.26643548509E+02  0.24923502861E+02  0.13067410117E+03  0.80419002446E+02 0.  0.
          1    1    1    2  501    0  0.51536679292E+02  0.10851255883E+02  0.24944359769E+03  0.25494291026E+03  0.00000000000E+00 0. -1.
         -2    1    1    2    0  502  0.44782815569E+02 -0.37494804391E+02  0.22523992058E+03  0.23268945560E+03  0.00000000000E+00 0.  1.
<mgrwt>
<rscale>  2 0.11967439E+03</rscale>
<asrwt>0</asrwt>
<pdfrwt beam="1">  1       21 0.85993342E-01 0.11967439E+03</pdfrwt>
<pdfrwt beam="2">  1       21 0.91307270E-02 0.11967439E+03</pdfrwt>
<totfact> 0.11437636E+05</totfact>
</mgrwt>
</event>
<event>
 5    1  0.1721815E-001  0.7704118E+02  0.7546771E-02  0.1337664E+00
         21   -1    0    0  503  502  0.00000000000E+00  0.00000000000E+00  0.19285809254E+03  0.19285809254E+03  0.00000000000E+00 0.  1.
         21   -1    0    0  501  503 -0.00000000000E+00 -0.00000000000E+00 -0.38548105146E+02  0.38548105146E+02  0.00000000000E+00 0. -1.
         24    1    1    2    0    0  0.53028377729E+01 -0.19838200822E+01  0.28486611304E+02  0.85502974267E+02  0.80419002446E+02 0. -1.
          1    1    1    2  501    0  0.17852380267E+02  0.31344300800E+02  0.54193725218E+02  0.65100941060E+02  0.00000000000E+00 0. -1.
         -2    1    1    2    0  502 -0.23155218040E+02 -0.29360480718E+02  0.71629650868E+02  0.80802282356E+02  0.00000000000E+00 0.  1.
<mgrwt>
<rscale>  2 0.77041185E+02</rscale>
<asrwt>0</asrwt>
<pdfrwt beam="1">  1       21 0.29670475E-01 0.77041185E+02</pdfrwt>
<pdfrwt beam="2">  1       21 0.59304778E-02 0.77041185E+02</pdfrwt>
<totfact> 0.21361118E+06</totfact>
</mgrwt>
</event>
<event>
 5    1  0.1721815E-001  0.1338452E+03  0.7546771E-02  0.1221859E+00
         21   -1    0    0  503  502  0.00000000000E+00  0.00000000000E+00  0.14046686132E+04  0.14046686132E+04  0.00000000000E+00 0. -1.
         21   -1    0    0  501  503 -0.00000000000E+00 -0.00000000000E+00 -0.17464310249E+02  0.17464310249E+02  0.00000000000E+00 0. -1.
         24    1    1    2    0    0  0.10208559249E+03 -0.47275726199E+01  0.31359692837E+03  0.33949089468E+03  0.80419002446E+02 0. -1.
          1    1    1    2  501    0 -0.11496860524E+03  0.21023147806E+02  0.83631609832E+03  0.84444323032E+03  0.00000000000E+00 0. -1.
         -2    1    1    2    0  502  0.12883012751E+02 -0.16295575187E+02  0.23729127631E+03  0.23819879848E+03  0.00000000000E+00 0.  1.
<mgrwt>
<rscale>  2 0.13384519E+03</rscale>
<asrwt>0</asrwt>
<pdfrwt beam="1">  1       21 0.21610278E+00 0.13384519E+03</pdfrwt>
<pdfrwt beam="2">  1       21 0.26868181E-02 0.13384519E+03</pdfrwt>
<totfact> 0.83995834E+04</totfact>
</mgrwt>
</event>
<event>
 5    1  0.1721815E-001  0.3984982E+03  0.7546771E-02  0.1044301E+00
         21   -1    0    0  501  502  0.00000000000E+00  0.00000000000E+00  0.17081142077E+03  0.17081142077E+03  0.00000000000E+00 0. -1.
         21   -1    0    0  502  503 -0.00000000000E+00 -0.00000000000E+00 -0.22509277950E+04  0.22509277950E+04  0.00000000000E+00 0.  1.
         24    1    1    2    0    0 -0.39060727555E+02  0.13769147535E+03 -0.50854813596E+03  0.53439040538E+03  0.80419002446E+02 0. -1.
          1    1    1    2  501    0 -0.23974955632E+02 -0.38086318692E+03 -0.10001210585E+03  0.39450473630E+03  0.00000000000E+00 0. -1.
         -2    1    1    2    0  503  0.63035683187E+02  0.24317171157E+03 -0.14715561324E+04  0.14928440740E+04  0.00000000000E+00 0.  1.
<mgrwt>
<rscale>  2 0.39849820E+03</rscale>
<asrwt>0</asrwt>
<pdfrwt beam="1">  1       21 0.26278683E-01 0.39849820E+03</pdfrwt>
<pdfrwt beam="2">  1       21 0.34629655E+00 0.39849820E+03</pdfrwt>
<totfact> 0.20250085E+02</totfact>
</mgrwt>
</event>
<event>
 5    1  0.1721815E-001  0.1294369E+03  0.7546771E-02  0.1228294E+00
         21   -1    0    0  501  502  0.00000000000E+00  0.00000000000E+00  0.15637378647E+03  0.15637378647E+03  0.00000000000E+00 0.  1.
         21   -1    0    0  502  503 -0.00000000000E+00 -0.00000000000E+00 -0.17359374118E+03  0.17359374118E+03  0.00000000000E+00 0. -1.
         24    1    1    2    0    0  0.79898523439E+02 -0.43130612959E+02 -0.99399414854E+02  0.15681671929E+03  0.80419002446E+02 0. -1.
          1    1    1    2  501    0  0.24155488423E+02 -0.18450839117E+01  0.49606101134E+02  0.55205590526E+02  0.00000000000E+00 0. -1.
         -2    1    1    2    0  503 -0.10405401186E+03  0.44975696870E+02  0.32573359014E+02  0.11794521784E+03  0.00000000000E+00 0.  1.
<mgrwt>
<rscale>  2 0.12943691E+03</rscale>
<asrwt>0</asrwt>
<pdfrwt beam="1">  1       21 0.24057505E-01 0.12943691E+03</pdfrwt>
<pdfrwt beam="2">  1       21 0.26706730E-01 0.12943691E+03</pdfrwt>
<totfact> 0.22107232E+05</totfact>
</mgrwt>
</event>
<event>
 5    1  0.1855520E-001  0.1448861E+03  0.7546771E-02  0.1206901E+00
         21   -1    0    0  503  502  0.00000000000E+00  0.00000000000E+00  0.36856909825E+03  0.36856909825E+03  0.00000000000E+00 0.  1.
         21   -1    0    0  501  503 -0.00000000000E+00 -0.00000000000E+00 -0.59780025685E+02  0.59780025685E+02  0.00000000000E+00 0. -1.
         24    1    1    2    0    0  0.21151964848E+02 -0.42923715916E+02  0.71850033756E+02  0.11798090655E+03  0.80419002446E+02 0.  0.
          1    1    1    2  501    0  0.25448452575E+02 -0.69758281744E+02  0.59922314858E+02  0.95417636882E+02  0.00000000000E+00 0. -1.
         -2    1    1    2    0  502 -0.46600417423E+02  0.11268199766E+03  0.17701672395E+03  0.21495058051E+03  0.00000000000E+00 0.  1.
<mgrwt>
<rscale>  2 0.14488613E+03</rscale>
<asrwt>0</asrwt>
<pdfrwt beam="1">  1       21 0.56702937E-01 0.14488613E+03</pdfrwt>
<pdfrwt beam="2">  1       21 0.91969273E-02 0.14488613E+03</pdfrwt>
<totfact> 0.27812247E+05</totfact>
</mgrwt>
</event>
<event>
 5    1  0.1721815E-001  0.1224788E+03  0.7546771E-02  0.1239063E+00
         21   -1    0    0  503  502  0.00000000000E+00  0.00000000000E+00  0.98063993001E+01  0.98063993001E+01  0.00000000000E+00 0. -1.
         21   -1    0    0  501  503 -0.00000000000E+00 -0.00000000000E+00 -0.17584757808E+04  0.17584757808E+04  0.00000000000E+00 0.  1.
         24    1    1    2    0    0  0.33716710988E+02 -0.34439062119E+01 -0.51123824558E+03  0.51863323918E+03  0.80419002446E+02 0.  1.
          1    1    1    2  501    0 -0.50366442526E+02  0.71593173366E+02 -0.93952801283E+03  0.94359697323E+03  0.00000000000E+00 0. -1.
         -2    1    1    2    0  502  0.16649731539E+02 -0.68149267154E+02 -0.29790312308E+03  0.30605196767E+03  0.00000000000E+00 0.  1.
<mgrwt>
<rscale>  2 0.12247883E+03</rscale>
<asrwt>0</asrwt>
<pdfrwt beam="1">  1       21 0.15086760E-02 0.12247883E+03</pdfrwt>
<pdfrwt beam="2">  1       21 0.27053489E+00 0.12247883E+03</pdfrwt>
<totfact> 0.10409096E+05</totfact>
</mgrwt>
</event>
<event>
 5    1  0.1721815E-001  0.1392857E+03  0.7546771E-02  0.1214293E+00
         21   -1    0    0  501  502  0.00000000000E+00  0.00000000000E+00  0.10510328405E+04  0.10510328405E+04  0.00000000000E+00 0.  1.
         21   -1    0    0  502  503 -0.00000000000E+00 -0.00000000000E+00 -0.22275390190E+02  0.22275390190E+02  0.00000000000E+00 0. -1.
         24    1    1    2    0    0  0.57976406873E+02  0.65465414923E+02  0.29157965715E+03  0.31485377038E+03  0.80419002446E+02 0.  0.
          1    1    1    2  501    0  0.35349521292E+02  0.13177161149E+02  0.36120690583E+03  0.36317166058E+03  0.00000000000E+00 0. -1.
         -2    1    1    2    0  503 -0.93325928165E+02 -0.78642576071E+02  0.37597088731E+03  0.39528279971E+03  0.00000000000E+00 0.  1.
<mgrwt>
<rscale>  2 0.13928571E+03</rscale>
<asrwt>0</asrwt>
<pdfrwt beam="1">  1       21 0.16169732E+00 0.13928571E+03</pdfrwt>
<pdfrwt beam="2">  1       21 0.34269839E-02 0.13928571E+03</pdfrwt>
<totfact> 0.12735360E+05</totfact>
</mgrwt>
</event>
<event>
 5    1  0.1721815E-001  0.1535308E+03  0.7546771E-02  0.1196200E+00
         21   -1    0    0  501  502  0.00000000000E+00  0.00000000000E+00  0.48612970374E+03  0.48612970374E+03  0.00000000000E+00 0. -1.
         21   -1    0    0  502  503 -0.00000000000E+00 -0.00000000000E+00 -0.30769130168E+03  0.30769130168E+03  0.00000000000E+00 0. -1.
         24    1    1    2    0    0  0.10456414613E+03  0.89954817660E+02 -0.24109266308E+03  0.28916849417E+03  0.80419002446E+02 0. -1.
          1    1    1    2  501    0 -0.22805198659E+02  0.36698513662E+01  0.37020444851E+03  0.37092435696E+03  0.00000000000E+00 0. -1.
         -2    1    1    2    0  503 -0.81758947475E+02 -0.93624669027E+02  0.49326616625E+02  0.13372815429E+03  0.00000000000E+00 0.  1.
<mgrwt>
<rscale>  2 0.15353076E+03</rscale>
<asrwt>0</asrwt>
<pdfrwt beam="1">  1       21 0.74789185E-01 0.15353076E+03</pdfrwt>
<pdfrwt beam="2">  1       21 0.47337124E-01 0.15353076E+03</pdfrwt>
<totfact> 0.70444651E+03</totfact>
</mgrwt>
</event>
<event>
 5    1  0.1721815E-001  0.1221838E+03  0.7546771E-02  0.1239537E+00
         21   -1    0    0  501  502  0.00000000000E+00  0.00000000000E+00  0.22460561503E+04  0.22460561503E+04  0.00000000000E+00 0. -1.
         21   -1    0    0  502  503 -0.00000000000E+00 -0.00000000000E+00 -0.78853092774E+02  0.78853092774E+02  0.00000000000E+00 0.  1.
         24    1    1    2    0    0  0.37773411012E+02  0.59148009371E+02 -0.23712008296E+02  0.10933797549E+03  0.80419002446E+02 0.  1.
          1    1    1    2  501    0 -0.63127085294E+02 -0.82010190969E+02  0.21757589748E+04  0.21782189552E+04  0.00000000000E+00 0. -1.
         -2    1    1    2    0  503  0.25353674282E+02  0.22862181598E+02  0.15156091037E+02  0.37352312412E+02  0.00000000000E+00 0.  1.
<mgrwt>
<rscale>  2 0.12218379E+03</rscale>
<asrwt>0</asrwt>
<pdfrwt beam="1">  1       21 0.34554705E+00 0.12218379E+03</pdfrwt>
<pdfrwt beam="2">  1       21 0.12131247E-01 0.12218379E+03</pdfrwt>
<totfact> 0.12107595E+03</totfact>
</mgrwt>
</event>
<event>
 5    1  0.1721815E-001  0.1043035E+03  0.7546771E-02  0.1271498E+00
         21   -1    0    0  501  502  0.00000000000E+00  0.00000000000E+00  0.88898459957E+02  0.88898459957E+02  0.00000000000E+00 0. -1.
         21   -1    0    0  502  503 -0.00000000000E+00 -0.00000000000E+00 -0.12506366472E+03  0.12506366472E+03  0.00000000000E+00 0.  1.
         24    1    1    2    0    0 -0.79346973938E+02 -0.23122460355E+02 -0.25315040078E+02  0.11806209237E+03  0.80419002446E+02 0.  0.
          1    1    1    2  501    0  0.49888697408E+02  0.35611155783E+02  0.22257386951E+01  0.61335067115E+02  0.00000000000E+00 0. -1.
         -2    1    1    2    0  503  0.29458276530E+02 -0.12488695428E+02 -0.13075903381E+02  0.34564965194E+02  0.00000000000E+00 0.  1.
<mgrwt>
<rscale>  2 0.10430350E+03</rscale>
<asrwt>0</asrwt>
<pdfrwt beam="1">  1       21 0.13676686E-01 0.10430350E+03</pdfrwt>
<pdfrwt beam="2">  1       21 0.19240564E-01 0.10430350E+03</pdfrwt>
<totfact> 0.11464700E+06</totfact>
</mgrwt>
</event>
<event>
 5    1  0.1721815E-001  0.8454025E+02  0.7546771E-02  0.1316639E+00
         21   -1    0    0  501  502  0.00000000000E+00  0.00000000000E+00  0.10288951968E+03  0.10288951968E+03  0.00000000000E+00 0. -1.
         21   -1    0    0  502  503 -0.00000000000E+00 -0.00000000000E+00 -0.27482663822E+03  0.27482663822E+03  0.00000000000E+00 0.  1.
         24    1    1    2    0    0  0.55277510956E+02 -0.34467364064E+02 -0.23101467434E+03  0.25313750832E+03  0.80419002446E+02 0.  1.
          1    1    1    2  501    0 -0.25889359843E+02  0.20634264960E+02  0.79563823065E+02  0.86176758956E+02  0.00000000000E+00 0. -1.
         -2    1    1    2    0  503 -0.29388151114E+02  0.13833099104E+02 -0.20486267270E+02  0.38401890622E+02  0.00000000000E+00 0.  1.
<mgrwt>
<rscale>  2 0.84540248E+02</rscale>
<asrwt>0</asrwt>
<pdfrwt beam="1">  1       21 0.15829157E-01 0.84540248E+02</pdfrwt>
<pdfrwt beam="2">  1       21 0.42281020E-01 0.84540248E+02</pdfrwt>
<totfact> 0.19741031E+05</totfact>
</mgrwt>
</event>
<event>
 5    1  0.1721815E-001  0.1532125E+03  0.7546771E-02  0.1196580E+00
         21   -1    0    0  503  502  0.00000000000E+00  0.00000000000E+00  0.16368792103E+03  0.16368792103E+03  0.00000000000E+00 0.  1.
         21   -1    0    0  501  503 -0.00000000000E+00 -0.00000000000E+00 -0.23174135890E+03  0.23174135890E+03  0.00000000000E+00 0.  1.
         24    1    1    2    0    0  0.61773287406E+02  0.82908570977E+02 -0.15057415682E+03  0.19957345223E+03  0.80419002446E+02 0.  1.
          1    1    1    2  501    0 -0.10241824035E+03 -0.26281732479E+02  0.64513370211E+02  0.12386363613E+03  0.00000000000E+00 0. -1.
         -2    1    1    2    0  502  0.40644952949E+02 -0.56626838498E+02  0.18007348739E+02  0.71992191570E+02  0.00000000000E+00 0.  1.
<mgrwt>
<rscale>  2 0.15321250E+03</rscale>
<asrwt>0</asrwt>
<pdfrwt beam="1">  1       21 0.25182757E-01 0.15321250E+03</pdfrwt>
<pdfrwt beam="2">  1       21 0.35652517E-01 0.15321250E+03</pdfrwt>
<totfact> 0.11496034E+05</totfact>
</mgrwt>
</event>
<event>
 5    1  0.1721815E-001  0.1275657E+03  0.7546771E-02  0.1231113E+00
         21   -1    0    0  501  502  0.00000000000E+00  0.00000000000E+00  0.75687138249E+03  0.75687138249E+03  0.00000000000E+00 0.  1.
         21   -1    0    0  502  503 -0.00000000000E+00 -0.00000000000E+00 -0.23984468494E+02  0.23984468494E+02  0.00000000000E+00 0. -1.
         24    1    1    2    0    0 -0.15270825116E+01 -0.21498434346E+02  0.13374338840E+03  0.15754054892E+03  0.80419002446E+02 0. -1.
          1    1    1    2  501    0 -0.61117151556E+02 -0.48437744595E+02  0.27703272211E+03  0.28779967067E+03  0.00000000000E+00 0. -1.
         -2    1    1    2    0  503  0.62644234067E+02  0.69936178941E+02  0.32211080348E+03  0.33551563139E+03  0.00000000000E+00 0.  1.
<mgrwt>
<rscale>  2 0.12756566E+03</rscale>
<asrwt>0</asrwt>
<pdfrwt beam="1">  1       21 0.11644173E+00 0.12756566E+03</pdfrwt>
<pdfrwt beam="2">  1       21 0.36899188E-02 0.12756566E+03</pdfrwt>
<totfact> 0.26015553E+05</totfact>
</mgrwt>
</event>
<event>
 5    1  0.1721815E-001  0.1126885E+03  0.7546771E-02  0.1255671E+00
         21   -1    0    0  503  502  0.00000000000E+00  0.00000000000E+00  0.22045830757E+03  0.22045830757E+03  0.00000000000E+00 0. -1.
         21   -1    0    0  501  503 -0.00000000000E+00 -0.00000000000E+00 -0.17829602763E+03  0.17829602763E+03  0.00000000000E+00 0. -1.
         24    1    1    2    0    0 -0.59609738671E+02  0.76929630097E+02 -0.13639401863E+03  0.18585487135E+03  0.80419002446E+02 0. -1.
          1    1    1    2  501    0  0.41087508134E+02 -0.37773582852E+02  0.42608077992E+02  0.70217342561E+02  0.00000000000E+00 0. -1.
         -2    1    1    2    0  502  0.18522230538E+02 -0.39156047245E+02  0.13594822057E+03  0.14268212129E+03  0.00000000000E+00 0.  1.
<mgrwt>
<rscale>  2 0.11268847E+03</rscale>
<asrwt>0</asrwt>
<pdfrwt beam="1">  1       21 0.33916663E-01 0.11268847E+03</pdfrwt>
<pdfrwt beam="2">  1       21 0.27430158E-01 0.11268847E+03</pdfrwt>
<totfact> 0.10944181E+05</totfact>
</mgrwt>
</event>
<event>
 5    1  0.1721815E-001  0.1341459E+03  0.7546771E-02  0.1221430E+00
         21   -1    0    0  503  502  0.00000000000E+00  0.00000000000E+00  0.32534868647E+02  0.32534868647E+02  0.00000000000E+00 0.  1.
         21   -1    0    0  501  503 -0.00000000000E+00 -0.00000000000E+00 -0.65098696285E+03  0.65098696285E+03  0.00000000000E+00 0.  1.
         24    1    1    2    0    0 -0.55005713105E+02 -0.10716176197E+01 -0.36089463517E+03  0.37381670708E+03  0.80419002446E+02 0.  1.
          1    1    1    2  501    0 -0.57610418337E+02  0.72740893047E+01 -0.10493814022E+03  0.11993283933E+03  0.00000000000E+00 0. -1.
         -2    1    1    2    0  502  0.11261613144E+03 -0.62024716851E+01 -0.15261931881E+03  0.18977228510E+03  0.00000000000E+00 0.  1.
<mgrwt>
<rscale>  2 0.13414588E+03</rscale>
<asrwt>0</asrwt>
<pdfrwt beam="1">  1       21 0.50053646E-02 0.13414588E+03</pdfrwt>
<pdfrwt beam="2">  1       21 0.10015184E+00 0.13414588E+03</pdfrwt>
<totfact> 0.22359260E+05</totfact>
</mgrwt>
</event>
<event>
 5    1  0.1721815E-001  0.9940169E+02  0.7546771E-02  0.1281559E+00
         21   -1    0    0  503  502  0.00000000000E+00  0.00000000000E+00  0.40324756819E+03  0.40324756819E+03  0.00000000000E+00 0.  1.
         21   -1    0    0  501  503 -0.00000000000E+00 -0.00000000000E+00 -0.30053140357E+02  0.30053140357E+02  0.00000000000E+00 0. -1.
         24    1    1    2    0    0  0.22690380170E+01  0.20195318988E+02  0.78010106996E+02  0.11386743253E+03  0.80419002446E+02 0. -1.
          1    1    1    2  501    0 -0.42026938866E+02 -0.50620268466E+02  0.11570791685E+03  0.13310521098E+03  0.00000000000E+00 0. -1.
         -2    1    1    2    0  502  0.39757900849E+02  0.30424949477E+02  0.17947640399E+03  0.18632806503E+03  0.00000000000E+00 0.  1.
<mgrwt>
<rscale>  2 0.99401687E+02</rscale>
<asrwt>0</asrwt>
<pdfrwt beam="1">  1       21 0.62038083E-01 0.99401687E+02</pdfrwt>
<pdfrwt beam="2">  1       21 0.46235603E-02 0.99401687E+02</pdfrwt>
<totfact> 0.74457057E+05</totfact>
</mgrwt>
</event>
<event>
 5    1  0.1721815E-001  0.8070463E+02  0.7546771E-02  0.1327064E+00
         21   -1    0    0  503  502  0.00000000000E+00  0.00000000000E+00  0.26814800404E+02  0.26814800404E+02  0.00000000000E+00 0. -1.
         21   -1    0    0  501  503 -0.00000000000E+00 -0.00000000000E+00 -0.47253382544E+03  0.47253382544E+03  0.00000000000E+00 0.  1.
         24    1    1    2    0    0  0.46970453857E+02 -0.36725354021E+02 -0.41651566622E+03  0.42837774373E+03  0.80419002446E+02 0.  1.
          1    1    1    2  501    0 -0.28694759049E+02  0.13409084101E+02 -0.26364201606E+02  0.41209997084E+02  0.00000000000E+00 0. -1.
         -2    1    1    2    0  502 -0.18275694808E+02  0.23316269920E+02 -0.28391572033E+01  0.29760885023E+02  0.00000000000E+00 0.  1.
<mgrwt>
<rscale>  2 0.80704631E+02</rscale>
<asrwt>0</asrwt>
<pdfrwt beam="1">  1       21 0.41253539E-02 0.80704631E+02</pdfrwt>
<pdfrwt beam="2">  1       21 0.72697512E-01 0.80704631E+02</pdfrwt>
<totfact> 0.63962799E+05</totfact>
</mgrwt>
</event>
<event>
 5    1  0.1721815E-001  0.1123210E+03  0.7546771E-02  0.1256331E+00
         21   -1    0    0  501  502  0.00000000000E+00  0.00000000000E+00  0.11068576836E+04  0.11068576836E+04  0.00000000000E+00 0.  1.
         21   -1    0    0  502  503 -0.00000000000E+00 -0.00000000000E+00 -0.12611892613E+02  0.12611892613E+02  0.00000000000E+00 0. -1.
         24    1    1    2    0    0  0.74573090165E+02 -0.23030161823E+01  0.42690105805E+03  0.44076998421E+03  0.80419002446E+02 0.  0.
          1    1    1    2  501    0  0.65912692898E+01 -0.27653125846E+02  0.29820391534E+03  0.29955586344E+03  0.00000000000E+00 0. -1.
         -2    1    1    2    0  503 -0.81164359455E+02  0.29956142028E+02  0.36914081760E+03  0.37914372856E+03  0.00000000000E+00 0.  1.
<mgrwt>
<rscale>  2 0.11232095E+03</rscale>
<asrwt>0</asrwt>
<pdfrwt beam="1">  1       21 0.17028572E+00 0.11232095E+03</pdfrwt>
<pdfrwt beam="2">  1       21 0.19402920E-02 0.11232095E+03</pdfrwt>
<totfact> 0.28371296E+05</totfact>
</mgrwt>
</event>
<event>
 5    1  0.1721815E-001  0.7263453E+02  0.7546771E-02  0.1351357E+00
         21   -1    0    0  503  502  0.00000000000E+00  0.00000000000E+00  0.14328975149E+03  0.14328975149E+03  0.00000000000E+00 0. -1.
         21   -1    0    0  501  503 -0.00000000000E+00 -0.00000000000E+00 -0.46548779259E+02  0.46548779259E+02  0.00000000000E+00 0.  1.
         24    1    1    2    0    0 -0.47030725445E+01  0.30492500957E+02  0.12838133020E+02  0.87085849136E+02  0.80419002446E+02 0.  1.
          1    1    1    2  501    0  0.27511643691E+02 -0.20089070259E+02  0.44323559627E+02  0.55902050235E+02  0.00000000000E+00 0. -1.
         -2    1    1    2    0  502 -0.22808571147E+02 -0.10403430697E+02  0.39579279587E+02  0.46850631379E+02  0.00000000000E+00 0.  1.
<mgrwt>
<rscale>  2 0.72634526E+02</rscale>
<asrwt>0</asrwt>
<pdfrwt beam="1">  1       21 0.22044577E-01 0.72634526E+02</pdfrwt>
<pdfrwt beam="2">  1       21 0.71613508E-02 0.72634526E+02</pdfrwt>
<totfact> 0.27008232E+06</totfact>
</mgrwt>
</event>
<event>
 5    1  0.1721815E-001  0.1194290E+03  0.7546771E-02  0.1244042E+00
         21   -1    0    0  503  502  0.00000000000E+00  0.00000000000E+00  0.55135039689E+03  0.55135039689E+03  0.00000000000E+00 0.  1.
         21   -1    0    0  501  503 -0.00000000000E+00 -0.00000000000E+00 -0.71321594169E+02  0.71321594169E+02  0.00000000000E+00 0. -1.
         24    1    1    2    0    0 -0.45629150869E+02  0.23203397013E+02 -0.17709487353E+02  0.96960089411E+02  0.80419002446E+02 0. -1.
          1    1    1    2  501    0  0.90441503495E+02  0.50008466572E+01  0.16010419801E+03  0.18395115722E+03  0.00000000000E+00 0. -1.
         -2    1    1    2    0  502 -0.44812352626E+02 -0.28204243670E+02  0.33763409206E+03  0.34176074443E+03  0.00000000000E+00 0.  1.
<mgrwt>
<rscale>  2 0.11942901E+03</rscale>
<asrwt>0</asrwt>
<pdfrwt beam="1">  1       21 0.84823135E-01 0.11942901E+03</pdfrwt>
<pdfrwt beam="2">  1       21 0.10972553E-01 0.11942901E+03</pdfrwt>
<totfact> 0.85599981E+04</totfact>
</mgrwt>
</event>
<event>
 5    1  0.1721815E-001  0.2093983E+03  0.7546771E-02  0.1142043E+00
         21   -1    0    0  501  502  0.00000000000E+00  0.00000000000E+00  0.41439817999E+02  0.41439817999E+02  0.00000000000E+00 0. -1.
         21   -1    0    0  502  503 -0.00000000000E+00 -0.00000000000E+00 -0.10838698086E+04  0.10838698086E+04  0.00000000000E+00 0.  1.
         24    1    1    2    0    0  0.96360918295E+02 -0.10525927871E+03 -0.49396714742E+03  0.52041877465E+03  0.80419002446E+02 0.  0.
          1    1    1    2  501    0 -0.11549214264E+03  0.15981515450E+03 -0.43171665156E+03  0.47461414418E+03  0.00000000000E+00 0. -1.
         -2    1    1    2    0  503  0.19131224342E+02 -0.54555875789E+02 -0.11674619158E+03  0.13027670773E+03  0.00000000000E+00 0.  1.
<mgrwt>
<rscale>  2 0.20939834E+03</rscale>
<asrwt>0</asrwt>
<pdfrwt beam="1">  1       21 0.63753559E-02 0.20939834E+03</pdfrwt>
<pdfrwt beam="2">  1       21 0.16674922E+00 0.20939834E+03</pdfrwt>
<totfact> 0.39568643E+04</totfact>
</mgrwt>
</event>
<event>
 5    1  0.1721815E-001  0.1008964E+03  0.7546771E-02  0.1278422E+00
         21   -1    0    0  501  502  0.00000000000E+00  0.00000000000E+00  0.64993593471E+02  0.64993593471E+02  0.00000000000E+00 0. -1.
         21   -1    0    0  502  503 -0.00000000000E+00 -0.00000000000E+00 -0.16543334993E+03  0.16543334993E+03  0.00000000000E+00 0. -1.
         24    1    1    2    0    0  0.83524799008E+01 -0.28510230283E+02 -0.19012772992E+02  0.87814000265E+02  0.80419002446E+02 0. -1.
          1    1    1    2  501    0 -0.46060415045E+02  0.53674355962E+02 -0.58634663400E+02  0.91872313970E+02  0.00000000000E+00 0. -1.
         -2    1    1    2    0  503  0.37707935144E+02 -0.25164125679E+02 -0.22792320064E+02  0.50740629164E+02  0.00000000000E+00 0.  1.
<mgrwt>
<rscale>  2 0.10089642E+03</rscale>
<asrwt>0</asrwt>
<pdfrwt beam="1">  1       21 0.99990144E-02 0.10089642E+03</pdfrwt>
<pdfrwt beam="2">  1       21 0.25451285E-01 0.10089642E+03</pdfrwt>
<totfact> 0.11824210E+06</totfact>
</mgrwt>
</event>
<event>
 5    1  0.1901063E-001  0.5735956E+03  0.7546771E-02  0.9961754E-01
         21   -1    0    0  503  502  0.00000000000E+00  0.00000000000E+00  0.46541908553E+03  0.46541908553E+03  0.00000000000E+00 0.  1.
         21   -1    0    0  501  503 -0.00000000000E+00 -0.00000000000E+00 -0.10909489441E+04  0.10909489441E+04  0.00000000000E+00 0. -1.
         24    1    1    2    0    0  0.13047967087E+03 -0.85800937023E+01 -0.13676455733E+03  0.20559747716E+03  0.80419002446E+02 0.  1.
          1    1    1    2  501    0  0.42801428914E+03 -0.55185550035E+02 -0.63700850106E+03  0.76942933858E+03  0.00000000000E+00 0. -1.
         -2    1    1    2    0  502 -0.55849396001E+03  0.63765643737E+02  0.14824319982E+03  0.58134121390E+03  0.00000000000E+00 0.  1.
<mgrwt>
<rscale>  2 0.57359557E+03</rscale>
<asrwt>0</asrwt>
<pdfrwt beam="1">  1       21 0.71602937E-01 0.57359557E+03</pdfrwt>
<pdfrwt beam="2">  1       21 0.16783830E+00 0.57359557E+03</pdfrwt>
<totfact> 0.30361093E+02</totfact>
</mgrwt>
</event>
<event>
 5    1  0.1721815E-001  0.1242995E+03  0.7546771E-02  0.1236168E+00
         21   -1    0    0  503  502  0.00000000000E+00  0.00000000000E+00  0.94113458104E+02  0.94113458104E+02  0.00000000000E+00 0. -1.
         21   -1    0    0  501  503 -0.00000000000E+00 -0.00000000000E+00 -0.17010655703E+03  0.17010655703E+03  0.00000000000E+00 0.  1.
         24    1    1    2    0    0  0.76747380112E+02 -0.75915357503E+02 -0.59377647359E+02  0.14712655375E+03  0.80419002446E+02 0.  0.
          1    1    1    2  501    0 -0.45987605714E+02  0.19957120053E+02 -0.17883627493E+02  0.53225657839E+02  0.00000000000E+00 0. -1.
         -2    1    1    2    0  502 -0.30759774398E+02  0.55958237449E+02  0.12681759241E+01  0.63867803545E+02  0.00000000000E+00 0.  1.
<mgrwt>
<rscale>  2 0.12429949E+03</rscale>
<asrwt>0</asrwt>
<pdfrwt beam="1">  1       21 0.14478994E-01 0.12429949E+03</pdfrwt>
<pdfrwt beam="2">  1       21 0.26170240E-01 0.12429949E+03</pdfrwt>
<totfact> 0.58435237E+05</totfact>
</mgrwt>
</event>
<event>
 5    1  0.1721815E-001  0.1035661E+03  0.7546771E-02  0.1272971E+00
         21   -1    0    0  501  502  0.00000000000E+00  0.00000000000E+00  0.57866509999E+03  0.57866509999E+03  0.00000000000E+00 0. -1.
         21   -1    0    0  502  503 -0.00000000000E+00 -0.00000000000E+00 -0.90145977604E+02  0.90145977604E+02  0.00000000000E+00 0. -1.
         24    1    1    2    0    0  0.44338882861E+02  0.57684658176E+01 -0.41026926323E+02  0.10074540371E+03  0.80419002446E+02 0. -1.
          1    1    1    2  501    0  0.20245614889E+02 -0.37910916961E+02  0.47671541902E+03  0.47864884130E+03  0.00000000000E+00 0. -1.
         -2    1    1    2    0  503 -0.64584497750E+02  0.32142451144E+02  0.52830629682E+02  0.89416832575E+02  0.00000000000E+00 0.  1.
<mgrwt>
<rscale>  2 0.10356608E+03</rscale>
<asrwt>0</asrwt>
<pdfrwt beam="1">  1       21 0.89025398E-01 0.10356608E+03</pdfrwt>
<pdfrwt beam="2">  1       21 0.13868612E-01 0.10356608E+03</pdfrwt>
<totfact> 0.51188336E+04</totfact>
</mgrwt>
</event>
<event>
 5    1  0.1721815E-001  0.1039196E+03  0.7546771E-02  0.1272263E+00
         21   -1    0    0  501  502  0.00000000000E+00  0.00000000000E+00  0.28868131798E+03  0.28868131798E+03  0.00000000000E+00 0. -1.
         21   -1    0    0  502  503 -0.00000000000E+00 -0.00000000000E+00 -0.39184812303E+02  0.39184812303E+02  0.00000000000E+00 0. -1.
         24    1    1    2    0    0  0.45141225066E+02 -0.29235767811E+02  0.82720536187E+02  0.12728850451E+03  0.80419002446E+02 0. -1.
          1    1    1    2  501    0 -0.72430495225E+02  0.18816247739E+01  0.11606078144E+03  0.13682040103E+03  0.00000000000E+00 0. -1.
         -2    1    1    2    0  503  0.27289270159E+02  0.27354143037E+02  0.50715188049E+02  0.63757224735E+02  0.00000000000E+00 0.  1.
<mgrwt>
<rscale>  2 0.10391955E+03</rscale>
<asrwt>0</asrwt>
<pdfrwt beam="1">  1       21 0.44412509E-01 0.10391955E+03</pdfrwt>
<pdfrwt beam="2">  1       21 0.60284328E-02 0.10391955E+03</pdfrwt>
<totfact> 0.95265512E+05</totfact>
</mgrwt>
</event>
<event>
 5    1  0.1721815E-001  0.9028971E+02  0.7546771E-02  0.1302152E+00
         21   -1    0    0  503  502  0.00000000000E+00  0.00000000000E+00  0.13781883317E+03  0.13781883317E+03  0.00000000000E+00 0.  1.
         21   -1    0    0  501  503 -0.00000000000E+00 -0.00000000000E+00 -0.13178762791E+03  0.13178762791E+03  0.00000000000E+00 0. -1.
         24    1    1    2    0    0  0.26870002973E+02  0.17327160900E+02 -0.64492556679E+02  0.10792929809E+03  0.80419002446E+02 0.  0.
          1    1    1    2  501    0 -0.32949256961E+02 -0.50507749418E+02 -0.21219148834E+02  0.63929168325E+02  0.00000000000E+00 0. -1.
         -2    1    1    2    0  502  0.60792539882E+01  0.33180588518E+02  0.91742910770E+02  0.97747994660E+02  0.00000000000E+00 0.  1.
<mgrwt>
<rscale>  2 0.90289709E+02</rscale>
<asrwt>0</asrwt>
<pdfrwt beam="1">  1       21 0.21202897E-01 0.90289709E+02</pdfrwt>
<pdfrwt beam="2">  1       21 0.20275020E-01 0.90289709E+02</pdfrwt>
<totfact> 0.47075915E+05</totfact>
</mgrwt>
</event>
<event>
 5    1  0.1721815E-001  0.1669827E+03  0.7546771E-02  0.1181031E+00
         21   -1    0    0  501  502  0.00000000000E+00  0.00000000000E+00  0.12435543648E+03  0.12435543648E+03  0.00000000000E+00 0.  1.
         21   -1    0    0  502  503 -0.00000000000E+00 -0.00000000000E+00 -0.27463613335E+03  0.27463613335E+03  0.00000000000E+00 0.  1.
         24    1    1    2    0    0  0.13325880904E+03  0.28036385358E+02 -0.11165807318E+03  0.19359413821E+03  0.80419002446E+02 0.  1.
          1    1    1    2  501    0  0.16267361376E+02  0.12929661054E+02  0.29475940504E+02  0.36064307143E+02  0.00000000000E+00 0. -1.
         -2    1    1    2    0  503 -0.14952617041E+03 -0.40966046412E+02 -0.68098564190E+02  0.16933312447E+03  0.00000000000E+00 0.  1.
<mgrwt>
<rscale>  2 0.16698274E+03</rscale>
<asrwt>0</asrwt>
<pdfrwt beam="1">  1       21 0.19131606E-01 0.16698274E+03</pdfrwt>
<pdfrwt beam="2">  1       21 0.42251712E-01 0.16698274E+03</pdfrwt>
<totfact> 0.13636168E+05</totfact>
</mgrwt>
</event>
<event>
 5    1  0.1721815E-001  0.1158308E+03  0.7546771E-02  0.1250138E+00
         21   -1    0    0  503  502  0.00000000000E+00  0.00000000000E+00  0.24970750536E+04  0.24970750536E+04  0.00000000000E+00 0.  1.
         21   -1    0    0  501  503 -0.00000000000E+00 -0.00000000000E+00 -0.74135669009E+01  0.74135669009E+01  0.00000000000E+00 0. -1.
         24    1    1    2    0    0 -0.17407737473E+02 -0.51114423463E+02  0.54778624028E+03  0.55628472440E+03  0.80419002446E+02 0.  0.
          1    1    1    2  501    0  0.28020185762E+02 -0.36794478432E+02  0.26597383976E+03  0.26996490122E+03  0.00000000000E+00 0. -1.
         -2    1    1    2    0  502 -0.10612448289E+02  0.87908901896E+02  0.16759014067E+04  0.16782389949E+04  0.00000000000E+00 0.  1.
<mgrwt>
<rscale>  2 0.11583081E+03</rscale>
<asrwt>0</asrwt>
<pdfrwt beam="1">  1       21 0.38416472E+00 0.11583081E+03</pdfrwt>
<pdfrwt beam="2">  1       21 0.11405507E-02 0.11583081E+03</pdfrwt>
<totfact> 0.36924573E+04</totfact>
</mgrwt>
</event>
<event>
 5    1  0.1721815E-001  0.1429400E+03  0.7546771E-02  0.1209427E+00
         21   -1    0    0  503  502  0.00000000000E+00  0.00000000000E+00  0.12429108755E+03  0.12429108755E+03  0.00000000000E+00 0. -1.
         21   -1    0    0  501  503 -0.00000000000E+00 -0.00000000000E+00 -0.16507501600E+03  0.16507501600E+03  0.00000000000E+00 0. -1.
         24    1    1    2    0    0 -0.88239314057E+02 -0.96126054135E+02 -0.29171971093E+02  0.15602760871E+03  0.80419002446E+02 0. -1.
          1    1    1    2  501    0  0.51460361260E+02  0.72438988082E+02 -0.41000782085E+01  0.88951595920E+02  0.00000000000E+00 0. -1.
         -2    1    1    2    0  502  0.36778952797E+02  0.23687066053E+02 -0.75118791464E+01  0.44386898916E+02  0.00000000000E+00 0.  1.
<mgrwt>
<rscale>  2 0.14293997E+03</rscale>
<asrwt>0</asrwt>
<pdfrwt beam="1">  1       21 0.19121706E-01 0.14293997E+03</pdfrwt>
<pdfrwt beam="2">  1       21 0.25396157E-01 0.14293997E+03</pdfrwt>
<totfact> 0.37225741E+05</totfact>
</mgrwt>
</event>
<event>
 5    1  0.1721815E-001  0.2898797E+03  0.7546771E-02  0.1090412E+00
         21   -1    0    0  501  502  0.00000000000E+00  0.00000000000E+00  0.58698457612E+03  0.58698457612E+03  0.00000000000E+00 0. -1.
         21   -1    0    0  502  503 -0.00000000000E+00 -0.00000000000E+00 -0.15220705441E+03  0.15220705441E+03  0.00000000000E+00 0. -1.
         24    1    1    2    0    0  0.10746253059E+03  0.36385886818E+02  0.65341214295E+02  0.15365161399E+03  0.80419002446E+02 0. -1.
          1    1    1    2  501    0 -0.20396795994E+03 -0.17706033470E+03  0.29331736658E+03  0.39873345526E+03  0.00000000000E+00 0. -1.
         -2    1    1    2    0  503  0.96505429349E+02  0.14067444788E+03  0.76118940838E+02  0.18680656128E+03  0.00000000000E+00 0.  1.
<mgrwt>
<rscale>  2 0.28987974E+03</rscale>
<asrwt>0</asrwt>
<pdfrwt beam="1">  1       21 0.90305318E-01 0.28987974E+03</pdfrwt>
<pdfrwt beam="2">  1       21 0.23416470E-01 0.28987974E+03</pdfrwt>
<totfact> 0.16983249E+04</totfact>
</mgrwt>
</event>
<event>
 5    1  0.2194294E-001  0.1826940E+03  0.7546771E-02  0.1165221E+00
         21   -1    0    0  501  502  0.00000000000E+00  0.00000000000E+00  0.13508153558E+03  0.13508153558E+03  0.00000000000E+00 0. -1.
         21   -1    0    0  502  503 -0.00000000000E+00 -0.00000000000E+00 -0.27339809715E+03  0.27339809715E+03  0.00000000000E+00 0.  1.
         24    1    1    2    0    0  0.85355010089E+02  0.18105137114E+02 -0.45952549143E+02  0.12724828668E+03  0.80419002446E+02 0. -1.
          1    1    1    2  501    0 -0.16532900265E+03 -0.21261197937E+02 -0.10927048679E+02  0.16704825066E+03  0.00000000000E+00 0. -1.
         -2    1    1    2    0  503  0.79973992561E+02  0.31560608235E+01 -0.81436963750E+02  0.11418309538E+03  0.00000000000E+00 0.  1.
<mgrwt>
<rscale>  2 0.18269398E+03</rscale>
<asrwt>0</asrwt>
<pdfrwt beam="1">  1       21 0.20781775E-01 0.18269398E+03</pdfrwt>
<pdfrwt beam="2">  1       21 0.42061245E-01 0.18269398E+03</pdfrwt>
<totfact> 0.11729232E+05</totfact>
</mgrwt>
</event>
<event>
 5    1  0.1721815E-001  0.1023123E+03  0.7546771E-02  0.1275507E+00
         21   -1    0    0  503  502  0.00000000000E+00  0.00000000000E+00  0.31528278593E+03  0.31528278593E+03  0.00000000000E+00 0.  1.
         21   -1    0    0  501  503 -0.00000000000E+00 -0.00000000000E+00 -0.36428597966E+02  0.36428597966E+02  0.00000000000E+00 0. -1.
         24    1    1    2    0    0 -0.25798722652E+02 -0.27609862320E+02  0.77818222308E+02  0.11811337886E+03  0.80419002446E+02 0.  1.
          1    1    1    2  501    0 -0.33819998083E+02 -0.20161224879E+02  0.95624821755E+02  0.10341360546E+03  0.00000000000E+00 0. -1.
         -2    1    1    2    0  502  0.59618720735E+02  0.47771087199E+02  0.10541114390E+03  0.13018439957E+03  0.00000000000E+00 0.  1.
<mgrwt>
<rscale>  2 0.10231228E+03</rscale>
<asrwt>0</asrwt>
<pdfrwt beam="1">  1       21 0.48505042E-01 0.10231228E+03</pdfrwt>
<pdfrwt beam="2">  1       21 0.56043999E-02 0.10231228E+03</pdfrwt>
<totfact> 0.90060269E+05</totfact>
</mgrwt>
</event>
<event>
 5    1  0.1721815E-001  0.1462804E+03  0.7546771E-02  0.1205120E+00
         21   -1    0    0  501  502  0.00000000000E+00  0.00000000000E+00  0.89061608237E+03  0.89061608237E+03  0.00000000000E+00 0. -1.
         21   -1    0    0  502  503 -0.00000000000E+00 -0.00000000000E+00 -0.27282185458E+02  0.27282185458E+02  0.00000000000E+00 0.  1.
         24    1    1    2    0    0 -0.61877621510E+01  0.49962444715E+02  0.34779374689E+03  0.36050276089E+03  0.80419002446E+02 0. -1.
          1    1    1    2  501    0 -0.76297259614E+01 -0.12305745933E+03  0.21556005316E+03  0.24832939321E+03  0.00000000000E+00 0. -1.
         -2    1    1    2    0  503  0.13817488112E+02  0.73095014611E+02  0.29998009687E+03  0.30906611373E+03  0.00000000000E+00 0.  1.
<mgrwt>
<rscale>  2 0.14628043E+03</rscale>
<asrwt>0</asrwt>
<pdfrwt beam="1">  1       21 0.13701784E+00 0.14628043E+03</pdfrwt>
<pdfrwt beam="2">  1       21 0.41972600E-02 0.14628043E+03</pdfrwt>
<totfact> 0.13942941E+05</totfact>
</mgrwt>
</event>
<event>
 5    1  0.1721815E-001  0.1875825E+03  0.7546771E-02  0.1160660E+00
         21   -1    0    0  501  502  0.00000000000E+00  0.00000000000E+00  0.13408440924E+04  0.13408440924E+04  0.00000000000E+00 0.  1.
         21   -1    0    0  502  503 -0.00000000000E+00 -0.00000000000E+00 -0.49514097450E+02  0.49514097450E+02  0.00000000000E+00 0. -1.
         24    1    1    2    0    0  0.10370711948E+03  0.11892641579E+03  0.15592959180E+03  0.23596591397E+03  0.80419002446E+02 0. -1.
          1    1    1    2  501    0  0.13020577603E+02  0.15358179862E+02  0.27782520547E+03  0.27855386180E+03  0.00000000000E+00 0. -1.
         -2    1    1    2    0  503 -0.11672769708E+03 -0.13428459566E+03  0.85757519764E+03  0.87583841404E+03  0.00000000000E+00 0.  1.
<mgrwt>
<rscale>  2 0.18758252E+03</rscale>
<asrwt>0</asrwt>
<pdfrwt beam="1">  1       21 0.20628368E+00 0.18758252E+03</pdfrwt>
<pdfrwt beam="2">  1       21 0.76175545E-02 0.18758252E+03</pdfrwt>
<totfact> 0.16066105E+04</totfact>
</mgrwt>
</event>
<event>
 5    1  0.1721815E-001  0.6836536E+02  0.7546771E-02  0.1365742E+00
         21   -1    0    0  501  502  0.00000000000E+00  0.00000000000E+00  0.57747217614E+02  0.57747217614E+02  0.00000000000E+00 0. -1.
         21   -1    0    0  502  503 -0.00000000000E+00 -0.00000000000E+00 -0.28299465469E+03  0.28299465469E+03  0.00000000000E+00 0. -1.
         24    1    1    2    0    0  0.10890835888E+02  0.26026590086E+02 -0.23652189013E+03  0.25140766528E+03  0.80419002446E+02 0. -1.
          1    1    1    2  501    0  0.15579526086E+02 -0.18085003052E+02  0.41813372673E+02  0.48147140131E+02  0.00000000000E+00 0. -1.
         -2    1    1    2    0  503 -0.26470361974E+02 -0.79415870344E+01 -0.30538919624E+02  0.41187066896E+02  0.00000000000E+00 0.  1.
<mgrwt>
<rscale>  2 0.68365363E+02</rscale>
<asrwt>0</asrwt>
<pdfrwt beam="1">  1       21 0.88841874E-02 0.68365363E+02</pdfrwt>
<pdfrwt beam="2">  1       21 0.43537639E-01 0.68365363E+02</pdfrwt>
<totfact> 0.51152159E+05</totfact>
</mgrwt>
</event>
<event>
 5    1  0.1721815E-001  0.1105494E+03  0.7546771E-02  0.1259556E+00
         21   -1    0    0  501  502  0.00000000000E+00  0.00000000000E+00  0.29101720172E+02  0.29101720172E+02  0.00000000000E+00 0. -1.
         21   -1    0    0  502  503 -0.00000000000E+00 -0.00000000000E+00 -0.72728997887E+03  0.72728997887E+03  0.00000000000E+00 0.  1.
         24    1    1    2    0    0  0.37691696817E+01  0.71557792504E+02 -0.49797631270E+03  0.50949224555E+03  0.80419002446E+02 0.  1.
          1    1    1    2  501    0  0.40822459269E+02 -0.47804682575E+02 -0.30585752324E+02  0.69908862830E+02  0.00000000000E+00 0. -1.
         -2    1    1    2    0  503 -0.44591628951E+02 -0.23753109929E+02 -0.16962619367E+03  0.17699059066E+03  0.00000000000E+00 0.  1.
<mgrwt>
<rscale>  2 0.11054942E+03</rscale>
<asrwt>0</asrwt>
<pdfrwt beam="1">  1       21 0.44771878E-02 0.11054942E+03</pdfrwt>
<pdfrwt beam="2">  1       21 0.11189076E+00 0.11054942E+03</pdfrwt>
<totfact> 0.20883907E+05</totfact>
</mgrwt>
</event>
<event>
 5    1  0.1721815E-001  0.1404252E+03  0.7546771E-02  0.1212758E+00
         21   -1    0    0  501  502  0.00000000000E+00  0.00000000000E+00  0.11177824077E+04  0.11177824077E+04  0.00000000000E+00 0. -1.
         21   -1    0    0  502  503 -0.00000000000E+00 -0.00000000000E+00 -0.90373440601E+02  0.90373440601E+02  0.00000000000E+00 0.  1.
         24    1    1    2    0    0  0.57784424236E+02  0.22683058790E+02 -0.30573773478E+02  0.10609209405E+03  0.80419002446E+02 0.  0.
          1    1    1    2  501    0 -0.11221562386E+03 -0.44366617047E+02  0.10301581046E+04  0.10372012646E+04  0.00000000000E+00 0. -1.
         -2    1    1    2    0  503  0.54431199621E+02  0.21683558257E+02  0.27824636008E+02  0.64862489621E+02  0.00000000000E+00 0.  1.
<mgrwt>
<rscale>  2 0.14042518E+03</rscale>
<asrwt>0</asrwt>
<pdfrwt beam="1">  1       21 0.17196651E+00 0.14042518E+03</pdfrwt>
<pdfrwt beam="2">  1       21 0.13903607E-01 0.14042518E+03</pdfrwt>
<totfact> 0.97423679E+03</totfact>
</mgrwt>
</event>
<event>
 5    1  0.1721815E-001  0.1371344E+03  0.7546771E-02  0.1217238E+00
         21   -1    0    0  501  502  0.00000000000E+00  0.00000000000E+00  0.10462481972E+03  0.10462481972E+03  0.00000000000E+00 0.  1.
         21   -1    0    0  502  503 -0.00000000000E+00 -0.00000000000E+00 -0.22657536228E+03  0.22657536228E+03  0.00000000000E+00 0.  1.
         24    1    1    2    0    0 -0.69895738659E+02 -0.76475233103E+02 -0.13397908310E+03  0.18748729617E+03  0.80419002446E+02 0.  1.
          1    1    1    2  501    0 -0.21319502126E+02 -0.37422951815E+01  0.36781650791E+01  0.21955747368E+02  0.00000000000E+00 0. -1.
         -2    1    1    2    0  503  0.91215240785E+02  0.80217528285E+02  0.83503754589E+01  0.12175713846E+03  0.00000000000E+00 0.  1.
<mgrwt>
<rscale>  2 0.13713442E+03</rscale>
<asrwt>0</asrwt>
<pdfrwt beam="1">  1       21 0.16096126E-01 0.13713442E+03</pdfrwt>
<pdfrwt beam="2">  1       21 0.34857748E-01 0.13713442E+03</pdfrwt>
<totfact> 0.27704466E+05</totfact>
</mgrwt>
</event>
<event>
 5    1  0.1721815E-001  0.8851060E+02  0.7546771E-02  0.1306499E+00
         21   -1    0    0  501  502  0.00000000000E+00  0.00000000000E+00  0.60011113148E+03  0.60011113148E+03  0.00000000000E+00 0. -1.
         21   -1    0    0  502  503 -0.00000000000E+00 -0.00000000000E+00 -0.81018049551E+02  0.81018049551E+02  0.00000000000E+00 0. -1.
         24    1    1    2    0    0  0.64568610884E+02 -0.18212212084E+02 -0.38409886934E+02  0.11154965508E+03  0.80419002446E+02 0. -1.
          1    1    1    2  501    0 -0.38433564774E+02  0.24282985877E+02  0.52699202332E+03  0.52894933117E+03  0.00000000000E+00 0. -1.
         -2    1    1    2    0  503 -0.26135046110E+02 -0.60707737935E+01  0.30510945544E+02  0.40630194777E+02  0.00000000000E+00 0.  1.
<mgrwt>
<rscale>  2 0.88510602E+02</rscale>
<asrwt>0</asrwt>
<pdfrwt beam="1">  1       21 0.92324787E-01 0.88510602E+02</pdfrwt>
<pdfrwt beam="2">  1       21 0.12464316E-01 0.88510602E+02</pdfrwt>
<totfact> 0.57562249E+04</totfact>
</mgrwt>
</event>
<event>
 5    1  0.1721815E-001  0.1286630E+03  0.7546771E-02  0.1229453E+00
         21   -1    0    0  501  502  0.00000000000E+00  0.00000000000E+00  0.52060384749E+02  0.52060384749E+02  0.00000000000E+00 0. -1.
         21   -1    0    0  502  503 -0.00000000000E+00 -0.00000000000E+00 -0.69540896970E+03  0.69540896970E+03  0.00000000000E+00 0. -1.
         24    1    1    2    0    0  0.47675816879E+02 -0.45206419466E+02 -0.56420141662E+03  0.57367853223E+03  0.80419002446E+02 0. -1.
          1    1    1    2  501    0 -0.74252317341E+02  0.80359394125E+02 -0.46194830839E+02  0.11876447807E+03  0.00000000000E+00 0. -1.
         -2    1    1    2    0  503  0.26576500462E+02 -0.35152974659E+02 -0.32952337499E+02  0.55026344153E+02  0.00000000000E+00 0.  1.
<mgrwt>
<rscale>  2 0.12866301E+03</rscale>
<asrwt>0</asrwt>
<pdfrwt beam="1">  1       21 0.80092900E-02 0.12866301E+03</pdfrwt>
<pdfrwt beam="2">  1       21 0.10698600E+00 0.12866301E+03</pdfrwt>
<totfact> 0.86122731E+04</totfact>
</mgrwt>
</event>
<event>
 5    1  0.1721815E-001  0.6451838E+02  0.7546771E-02  0.1379792E+00
         21   -1    0    0  503  502  0.00000000000E+00  0.00000000000E+00  0.19922981036E+02  0.19922981036E+02  0.00000000000E+00 0. -1.
         21   -1    0    0  501  503 -0.00000000000E+00 -0.00000000000E+00 -0.62012979943E+03  0.62012979943E+03  0.00000000000E+00 0.  1.
         24    1    1    2    0    0 -0.11803268559E+01 -0.16974020355E+01 -0.54164840541E+03  0.54758970533E+03  0.80419002446E+02 0.  1.
          1    1    1    2  501    0  0.21661860298E+02  0.12934372113E+02 -0.63724444080E+02  0.68537135531E+02  0.00000000000E+00 0. -1.
         -2    1    1    2    0  502 -0.20481533442E+02 -0.11236970077E+02  0.51660310973E+01  0.23925939604E+02  0.00000000000E+00 0.  1.
<mgrwt>
<rscale>  2 0.64518384E+02</rscale>
<asrwt>0</asrwt>
<pdfrwt beam="1">  1       21 0.30650740E-02 0.64518384E+02</pdfrwt>
<pdfrwt beam="2">  1       21 0.95404586E-01 0.64518384E+02</pdfrwt>
<totfact> 0.56825575E+05</totfact>
</mgrwt>
</event>
<event>
 5    1  0.1721815E-001  0.1049272E+03  0.7546771E-02  0.1270263E+00
         21   -1    0    0  501  502  0.00000000000E+00  0.00000000000E+00  0.17096176369E+03  0.17096176369E+03  0.00000000000E+00 0.  1.
         21   -1    0    0  502  503 -0.00000000000E+00 -0.00000000000E+00 -0.68149740985E+02  0.68149740985E+02  0.00000000000E+00 0. -1.
         24    1    1    2    0    0  0.34940402774E+02 -0.34327371599E+02  0.35488231242E+02  0.10062718667E+03  0.80419002446E+02 0.  1.
          1    1    1    2  501    0 -0.46951266128E+02  0.66469699954E+02  0.64892881841E+02  0.10408519836E+03  0.00000000000E+00 0. -1.
         -2    1    1    2    0  503  0.12010863354E+02 -0.32142328355E+02  0.24309096190E+01  0.34399119642E+02  0.00000000000E+00 0.  1.
<mgrwt>
<rscale>  2 0.10492719E+03</rscale>
<asrwt>0</asrwt>
<pdfrwt beam="1">  1       21 0.26301810E-01 0.10492719E+03</pdfrwt>
<pdfrwt beam="2">  1       21 0.10484576E-01 0.10492719E+03</pdfrwt>
<totfact> 0.10240169E+06</totfact>
</mgrwt>
</event>
<event>
 5    1  0.1721815E-001  0.7896542E+02  0.7546771E-02  0.1332013E+00
         21   -1    0    0  501  502  0.00000000000E+00  0.00000000000E+00  0.46205083961E+03  0.46205083961E+03  0.00000000000E+00 0.  1.
         21   -1    0    0  502  503 -0.00000000000E+00 -0.00000000000E+00 -0.15745440154E+02  0.15745440154E+02  0.00000000000E+00 0.  1.
         24    1    1    2    0    0 -0.10628314359E+02 -0.26703464700E+01  0.14397652803E+03  0.16527718655E+03  0.80419002446E+02 0.  1.
          1    1    1    2  501    0 -0.12910389365E+02 -0.32203038645E+02  0.17540674472E+03  0.17880503333E+03  0.00000000000E+00 0. -1.
         -2    1    1    2    0  503  0.23538703725E+02  0.34873385115E+02  0.12692212670E+03  0.13371405988E+03  0.00000000000E+00 0.  1.
<mgrwt>
<rscale>  2 0.78965418E+02</rscale>
<asrwt>0</asrwt>
<pdfrwt beam="1">  1       21 0.71084734E-01 0.78965418E+02</pdfrwt>
<pdfrwt beam="2">  1       21 0.24223758E-02 0.78965418E+02</pdfrwt>
<totfact> 0.15934575E+06</totfact>
</mgrwt>
</event>
<event>
 5    1  0.1721815E-001  0.8456545E+02  0.7546771E-02  0.1316573E+00
         21   -1    0    0  501  502  0.00000000000E+00  0.00000000000E+00  0.77872889997E+03  0.77872889997E+03  0.00000000000E+00 0.  1.
         21   -1    0    0  502  503 -0.00000000000E+00 -0.00000000000E+00 -0.35452125555E+02  0.35452125555E+02  0.00000000000E+00 0. -1.
         24    1    1    2    0    0  0.18672924690E+02  0.39916087862E+02  0.30369033611E+02  0.96599515234E+02  0.80419002446E+02 0. -1.
          1    1    1    2  501    0 -0.33951125654E+02  0.77970037695E+00  0.43171985000E+03  0.43305347909E+03  0.00000000000E+00 0. -1.
         -2    1    1    2    0  503  0.15278200964E+02 -0.40695788239E+02  0.28118789080E+03  0.28452803120E+03  0.00000000000E+00 0.  1.
<mgrwt>
<rscale>  2 0.84565447E+02</rscale>
<asrwt>0</asrwt>
<pdfrwt beam="1">  1       21 0.11980443E+00 0.84565447E+02</pdfrwt>
<pdfrwt beam="2">  1       21 0.54541738E-02 0.84565447E+02</pdfrwt>
<totfact> 0.12920148E+05</totfact>
</mgrwt>
</event>
<event>
 5    1  0.1721815E-001  0.1469394E+03  0.7546771E-02  0.1204285E+00
         21   -1    0    0  501  502  0.00000000000E+00  0.00000000000E+00  0.10016433529E+03  0.10016433529E+03  0.00000000000E+00 0. -1.
         21   -1    0    0  502  503 -0.00000000000E+00 -0.00000000000E+00 -0.31831685545E+03  0.31831685545E+03  0.00000000000E+00 0.  1.
         24    1    1    2    0    0  0.12349784959E+02  0.69551351454E+02 -0.15861655075E+03  0.19135394902E+03  0.80419002446E+02 0.  1.
          1    1    1    2  501    0  0.79927167554E+02 -0.43300701937E+02  0.30174515037E+02  0.95779978384E+02  0.00000000000E+00 0. -1.
         -2    1    1    2    0  503 -0.92276952514E+02 -0.26250649517E+02 -0.89710484447E+02  0.13134726333E+03  0.00000000000E+00 0.  1.
<mgrwt>
<rscale>  2 0.14693942E+03</rscale>
<asrwt>0</asrwt>
<pdfrwt beam="1">  1       21 0.15409898E-01 0.14693942E+03</pdfrwt>
<pdfrwt beam="2">  1       21 0.48971823E-01 0.14693942E+03</pdfrwt>
<totfact> 0.15082870E+05</totfact>
</mgrwt>
</event>
<event>
 5    1  0.1721815E-001  0.1069544E+03  0.7546771E-02  0.1266316E+00
         21   -1    0    0  501  502  0.00000000000E+00  0.00000000000E+00  0.10795069533E+03  0.10795069533E+03  0.00000000000E+00 0. -1.
         21   -1    0    0  502  503 -0.00000000000E+00 -0.00000000000E+00 -0.18096954370E+03  0.18096954370E+03  0.00000000000E+00 0.  1.
         24    1    1    2    0    0  0.25720764246E+02  0.93188705257E+01 -0.12166156526E+03  0.14838177610E+03  0.80419002446E+02 0.  1.
          1    1    1    2  501    0 -0.17161177508E+02  0.58316549557E+02  0.37592232270E+02  0.71473784653E+02  0.00000000000E+00 0. -1.
         -2    1    1    2    0  503 -0.85595867375E+01 -0.67635420082E+02  0.11050484619E+02  0.69064678275E+02  0.00000000000E+00 0.  1.
<mgrwt>
<rscale>  2 0.10695443E+03</rscale>
<asrwt>0</asrwt>
<pdfrwt beam="1">  1       21 0.16607799E-01 0.10695443E+03</pdfrwt>
<pdfrwt beam="2">  1       21 0.27841468E-01 0.10695443E+03</pdfrwt>
<totfact> 0.40621773E+05</totfact>
</mgrwt>
</event>
<event>
 5    1  0.1721815E-001  0.2216316E+03  0.7546771E-02  0.1132672E+00
         21   -1    0    0  503  502  0.00000000000E+00  0.00000000000E+00  0.42122017240E+03  0.42122017240E+03  0.00000000000E+00 0.  1.
         21   -1    0    0  501  503 -0.00000000000E+00 -0.00000000000E+00 -0.11863065156E+03  0.11863065156E+03  0.00000000000E+00 0. -1.
         24    1    1    2    0    0 -0.20483922893E+02 -0.16516607444E+03  0.15651842950E+03  0.24220788173E+03  0.80419002446E+02 0. -1.
          1    1    1    2  501    0 -0.86808411761E+02  0.10190732454E+03  0.63175949940E+02  0.14802703739E+03  0.00000000000E+00 0. -1.
         -2    1    1    2    0  502  0.10729233465E+03  0.63258749900E+02  0.82895141391E+02  0.14961590484E+03  0.00000000000E+00 0.  1.
<mgrwt>
<rscale>  2 0.22163163E+03</rscale>
<asrwt>0</asrwt>
<pdfrwt beam="1">  1       21 0.64803103E-01 0.22163163E+03</pdfrwt>
<pdfrwt beam="2">  1       21 0.18250870E-01 0.22163163E+03</pdfrwt>
<totfact> 0.59247924E+04</totfact>
</mgrwt>
</event>
<event>
 5    1  0.1721815E-001  0.1172496E+03  0.7546771E-02  0.1247704E+00
         21   -1    0    0  503  502  0.00000000000E+00  0.00000000000E+00  0.59416991280E+02  0.59416991280E+02  0.00000000000E+00 0.  1.
         21   -1    0    0  501  503 -0.00000000000E+00 -0.00000000000E+00 -0.26336327716E+03  0.26336327716E+03  0.00000000000E+00 0.  1.
         24    1    1    2    0    0  0.38108592422E+02 -0.96281064657E+01 -0.13546459457E+03  0.16236636840E+03  0.80419002446E+02 0.  1.
          1    1    1    2  501    0  0.12292747755E+02 -0.58761205460E+02 -0.30869993983E+02  0.67505166047E+02  0.00000000000E+00 0. -1.
         -2    1    1    2    0  502 -0.50401340177E+02  0.68389311926E+02 -0.37611697332E+02  0.92908734000E+02  0.00000000000E+00 0.  1.
<mgrwt>
<rscale>  2 0.11724964E+03</rscale>
<asrwt>0</asrwt>
<pdfrwt beam="1">  1       21 0.91410757E-02 0.11724964E+03</pdfrwt>
<pdfrwt beam="2">  1       21 0.40517427E-01 0.11724964E+03</pdfrwt>
<totfact> 0.56224809E+05</totfact>
</mgrwt>
</event>
<event>
 5    1  0.1721815E-001  0.1453958E+03  0.7546771E-02  0.1206247E+00
         21   -1    0    0  501  502  0.00000000000E+00  0.00000000000E+00  0.15653146134E+03  0.15653146134E+03  0.00000000000E+00 0. -1.
         21   -1    0    0  502  503 -0.00000000000E+00 -0.00000000000E+00 -0.15102273379E+03  0.15102273379E+03  0.00000000000E+00 0. -1.
         24    1    1    2    0    0  0.96512098617E+02 -0.54325247272E+02 -0.47122344249E+02  0.14475340739E+03  0.80419002446E+02 0. -1.
          1    1    1    2  501    0 -0.11759516842E+03  0.60100494935E+02  0.42736764450E+02  0.13880606674E+03  0.00000000000E+00 0. -1.
         -2    1    1    2    0  503  0.21083069804E+02 -0.57752476638E+01  0.98943073464E+01  0.23994720998E+02  0.00000000000E+00 0.  1.
<mgrwt>
<rscale>  2 0.14539583E+03</rscale>
<asrwt>0</asrwt>
<pdfrwt beam="1">  1       21 0.24081763E-01 0.14539583E+03</pdfrwt>
<pdfrwt beam="2">  1       21 0.23234267E-01 0.14539583E+03</pdfrwt>
<totfact> 0.28621523E+05</totfact>
</mgrwt>
</event>
<event>
 5    1  0.1721815E-001  0.1024942E+03  0.7546771E-02  0.1275137E+00
         21   -1    0    0  503  502  0.00000000000E+00  0.00000000000E+00  0.99458507544E+02  0.99458507544E+02  0.00000000000E+00 0. -1.
         21   -1    0    0  501  503 -0.00000000000E+00 -0.00000000000E+00 -0.15087530462E+03  0.15087530462E+03  0.00000000000E+00 0. -1.
         24    1    1    2    0    0 -0.26272103200E+02  0.77833657443E+02 -0.95824431495E+02  0.14965907678E+03  0.80419002446E+02 0. -1.
          1    1    1    2  501    0  0.34447887097E+02 -0.47907402239E+02  0.25020342343E+02  0.64092071629E+02  0.00000000000E+00 0. -1.
         -2    1    1    2    0  502 -0.81757838975E+01 -0.29926255204E+02  0.19387292079E+02  0.36582663750E+02  0.00000000000E+00 0.  1.
<mgrwt>
<rscale>  2 0.10249415E+03</rscale>
<asrwt>0</asrwt>
<pdfrwt beam="1">  1       21 0.15301309E-01 0.10249415E+03</pdfrwt>
<pdfrwt beam="2">  1       21 0.23211585E-01 0.10249415E+03</pdfrwt>
<totfact> 0.66314173E+05</totfact>
</mgrwt>
</event>
<event>
 5    1  0.1721815E-001  0.9880009E+02  0.7546771E-02  0.1282840E+00
         21   -1    0    0  503  502  0.00000000000E+00  0.00000000000E+00  0.28794975511E+02  0.28794975511E+02  0.00000000000E+00 0.  1.
         21   -1    0    0  501  503 -0.00000000000E+00 -0.00000000000E+00 -0.37403449871E+03  0.37403449871E+03  0.00000000000E+00 0. -1.
         24    1    1    2    0    0 -0.52287197849E+01  0.24578634997E+02 -0.20735795348E+03  0.22382132524E+03  0.80419002446E+02 0. -1.
          1    1    1    2  501    0 -0.54168430396E+01  0.43805336013E+02 -0.64317282772E+02  0.78006169723E+02  0.00000000000E+00 0. -1.
         -2    1    1    2    0  502  0.10645562824E+02 -0.68383971010E+02 -0.73564286952E+02  0.10100197926E+03  0.00000000000E+00 0.  1.
<mgrwt>
<rscale>  2 0.98800091E+02</rscale>
<asrwt>0</asrwt>
<pdfrwt beam="1">  1       21 0.44299964E-02 0.98800091E+02</pdfrwt>
<pdfrwt beam="2">  1       21 0.57543766E-01 0.98800091E+02</pdfrwt>
<totfact> 0.93651251E+05</totfact>
</mgrwt>
</event>
<event>
 5    1  0.1721815E-001  0.7782934E+02  0.7546771E-02  0.1335327E+00
         21   -1    0    0  503  502  0.00000000000E+00  0.00000000000E+00  0.11821543826E+03  0.11821543826E+03  0.00000000000E+00 0. -1.
         21   -1    0    0  501  503 -0.00000000000E+00 -0.00000000000E+00 -0.53821611675E+02  0.53821611675E+02  0.00000000000E+00 0.  1.
         24    1    1    2    0    0  0.31113565607E+02  0.17850498526E+02  0.18866974500E+02  0.90054832983E+02  0.80419002446E+02 0.  0.
          1    1    1    2  501    0 -0.67434133803E+01 -0.36372568597E+02  0.19579363247E+02  0.41854376540E+02  0.00000000000E+00 0. -1.
         -2    1    1    2    0  502 -0.24370152226E+02  0.18522070071E+02  0.25947488843E+02  0.40127840417E+02  0.00000000000E+00 0.  1.
<mgrwt>
<rscale>  2 0.77829337E+02</rscale>
<asrwt>0</asrwt>
<pdfrwt beam="1">  1       21 0.18186990E-01 0.77829337E+02</pdfrwt>
<pdfrwt beam="2">  1       21 0.82802480E-02 0.77829337E+02</pdfrwt>
<totfact> 0.30091966E+06</totfact>
</mgrwt>
</event>
<event>
 5    1  0.1721815E-001  0.8625600E+02  0.7546771E-02  0.1312180E+00
         21   -1    0    0  501  502  0.00000000000E+00  0.00000000000E+00  0.75408919744E+01  0.75408919744E+01  0.00000000000E+00 0. -1.
         21   -1    0    0  502  503 -0.00000000000E+00 -0.00000000000E+00 -0.15043171370E+04  0.15043171370E+04  0.00000000000E+00 0.  1.
         24    1    1    2    0    0 -0.81352513840E+00  0.26129469670E+02 -0.11315573908E+04  0.11347126313E+04  0.80419002446E+02 0.  1.
          1    1    1    2  501    0 -0.28223855336E+02 -0.45144627572E+02 -0.15051332109E+03  0.15965238249E+03  0.00000000000E+00 0. -1.
         -2    1    1    2    0  503  0.29037380475E+02  0.19015157903E+02 -0.21470553320E+03  0.21749301524E+03  0.00000000000E+00 0.  1.
<mgrwt>
<rscale>  2 0.86256004E+02</rscale>
<asrwt>0</asrwt>
<pdfrwt beam="1">  1       21 0.11601357E-02 0.86256004E+02</pdfrwt>
<pdfrwt beam="2">  1       21 0.23143372E+00 0.86256004E+02</pdfrwt>
<totfact> 0.27198010E+05</totfact>
</mgrwt>
</event>
<event>
 5    1  0.1721815E-001  0.1110910E+03  0.7546771E-02  0.1258563E+00
         21   -1    0    0  501  502  0.00000000000E+00  0.00000000000E+00  0.87140299090E+02  0.87140299090E+02  0.00000000000E+00 0. -1.
         21   -1    0    0  502  503 -0.00000000000E+00 -0.00000000000E+00 -0.26202138686E+03  0.26202138686E+03  0.00000000000E+00 0.  1.
         24    1    1    2    0    0 -0.20710585101E+01  0.16611781048E+02 -0.15959886683E+03  0.17949722784E+03  0.80419002446E+02 0.  1.
          1    1    1    2  501    0  0.51960840829E+02 -0.56060301026E+02  0.39213441443E+02  0.85909139913E+02  0.00000000000E+00 0. -1.
         -2    1    1    2    0  503 -0.49889782319E+02  0.39448519978E+02 -0.54495662380E+02  0.83755318198E+02  0.00000000000E+00 0.  1.
<mgrwt>
<rscale>  2 0.11109103E+03</rscale>
<asrwt>0</asrwt>
<pdfrwt beam="1">  1       21 0.13406200E-01 0.11109103E+03</pdfrwt>
<pdfrwt beam="2">  1       21 0.40310983E-01 0.11109103E+03</pdfrwt>
<totfact> 0.29014017E+05</totfact>
</mgrwt>
</event>
<event>
 5    1  0.1721815E-001  0.1075386E+03  0.7546771E-02  0.1265197E+00
         21   -1    0    0  501  502  0.00000000000E+00  0.00000000000E+00  0.51762880460E+02  0.51762880460E+02  0.00000000000E+00 0.  1.
         21   -1    0    0  502  503 -0.00000000000E+00 -0.00000000000E+00 -0.23230985463E+03  0.23230985463E+03  0.00000000000E+00 0. -1.
         24    1    1    2    0    0  0.71598131582E+02 -0.46225847962E+02 -0.11763198414E+03  0.16603499966E+03  0.80419002446E+02 0.  1.
          1    1    1    2  501    0 -0.64786075683E+02  0.15750415412E+02 -0.31490097240E+02  0.73735591217E+02  0.00000000000E+00 0. -1.
         -2    1    1    2    0  503 -0.68120558993E+01  0.30475432550E+02 -0.31424892786E+02  0.44302144207E+02  0.00000000000E+00 0.  1.
<mgrwt>
<rscale>  2 0.10753859E+03</rscale>
<asrwt>0</asrwt>
<pdfrwt beam="1">  1       21 0.79635202E-02 0.10753859E+03</pdfrwt>
<pdfrwt beam="2">  1       21 0.35739977E-01 0.10753859E+03</pdfrwt>
<totfact> 0.91398807E+05</totfact>
</mgrwt>
</event>
<event>
 5    1  0.1721815E-001  0.9431783E+02  0.7546771E-02  0.1292720E+00
         21   -1    0    0  501  502  0.00000000000E+00  0.00000000000E+00  0.49872145989E+02  0.49872145989E+02  0.00000000000E+00 0.  1.
         21   -1    0    0  502  503 -0.00000000000E+00 -0.00000000000E+00 -0.55427454786E+03  0.55427454786E+03  0.00000000000E+00 0. -1.
         24    1    1    2    0    0  0.74907405744E+02 -0.10625242241E+02 -0.48773494917E+03  0.50007660594E+03  0.80419002446E+02 0. -1.
          1    1    1    2  501    0 -0.19503186957E+02  0.11818595219E+02  0.25666016013E+02  0.34333625973E+02  0.00000000000E+00 0. -1.
         -2    1    1    2    0  503 -0.55404218787E+02 -0.11933529780E+01 -0.42333468713E+02  0.69736461941E+02  0.00000000000E+00 0.  1.
<mgrwt>
<rscale>  2 0.94317829E+02</rscale>
<asrwt>0</asrwt>
<pdfrwt beam="1">  1       21 0.76726382E-02 0.94317829E+02</pdfrwt>
<pdfrwt beam="2">  1       21 0.85273004E-01 0.94317829E+02</pdfrwt>
<totfact> 0.15895496E+05</totfact>
</mgrwt>
</event>
<event>
 5    1  0.1721815E-001  0.2105619E+03  0.7546771E-02  0.1141122E+00
         21   -1    0    0  503  502  0.00000000000E+00  0.00000000000E+00  0.96050558950E+03  0.96050558950E+03  0.00000000000E+00 0.  1.
         21   -1    0    0  501  503 -0.00000000000E+00 -0.00000000000E+00 -0.73750063637E+02  0.73750063637E+02  0.00000000000E+00 0. -1.
         24    1    1    2    0    0  0.26976900749E+02  0.74049153257E+01 -0.88302259355E+00  0.85150347200E+02  0.80419002446E+02 0. -1.
          1    1    1    2  501    0  0.16046886434E+02 -0.16848687988E+03  0.44124224218E+03  0.47258866633E+03  0.00000000000E+00 0. -1.
         -2    1    1    2    0  502 -0.43023787183E+02  0.16108196455E+03  0.44639630627E+03  0.47651663961E+03  0.00000000000E+00 0.  1.
<mgrwt>
<rscale>  2 0.21056187E+03</rscale>
<asrwt>0</asrwt>
<pdfrwt beam="1">  1       21 0.14777008E+00 0.21056187E+03</pdfrwt>
<pdfrwt beam="2">  1       21 0.11346164E-01 0.21056187E+03</pdfrwt>
<totfact> 0.19925553E+04</totfact>
</mgrwt>
</event>
<event>
 5    1  0.1774009E-001  0.1589010E+03  0.7546771E-02  0.1189943E+00
         21   -1    0    0  501  502  0.00000000000E+00  0.00000000000E+00  0.71626107826E+02  0.71626107826E+02  0.00000000000E+00 0. -1.
         21   -1    0    0  502  503 -0.00000000000E+00 -0.00000000000E+00 -0.37107688748E+03  0.37107688748E+03  0.00000000000E+00 0.  1.
         24    1    1    2    0    0 -0.16473110440E+02  0.13994294315E+02 -0.45927749450E+02  0.95098778987E+02  0.80419002446E+02 0. -1.
          1    1    1    2  501    0  0.12522673664E+03 -0.35814610039E+01 -0.10647001161E+03  0.16440932396E+03  0.00000000000E+00 0. -1.
         -2    1    1    2    0  503 -0.10875362620E+03 -0.10412833311E+02 -0.14705301860E+03  0.18319489236E+03  0.00000000000E+00 0.  1.
<mgrwt>
<rscale>  2 0.15890105E+03</rscale>
<asrwt>0</asrwt>
<pdfrwt beam="1">  1       21 0.11019401E-01 0.15890105E+03</pdfrwt>
<pdfrwt beam="2">  1       21 0.57088752E-01 0.15890105E+03</pdfrwt>
<totfact> 0.19892234E+05</totfact>
</mgrwt>
</event>
<event>
 5    1  0.1721815E-001  0.8323196E+02  0.7546771E-02  0.1320122E+00
         21   -1    0    0  503  502  0.00000000000E+00  0.00000000000E+00  0.14824904122E+03  0.14824904122E+03  0.00000000000E+00 0.  1.
         21   -1    0    0  501  503 -0.00000000000E+00 -0.00000000000E+00 -0.12189930280E+03  0.12189930280E+03  0.00000000000E+00 0.  1.
         24    1    1    2    0    0  0.39727189559E+02  0.28069052757E+01 -0.73469413330E+02  0.11597887289E+03  0.80419002446E+02 0.  1.
          1    1    1    2  501    0  0.54299381447E+01  0.23731990940E+02 -0.14560555171E+02  0.28367259105E+02  0.00000000000E+00 0. -1.
         -2    1    1    2    0  502 -0.45157127704E+02 -0.26538896216E+02  0.11437970692E+03  0.12580221202E+03  0.00000000000E+00 0.  1.
<mgrwt>
<rscale>  2 0.83231959E+02</rscale>
<asrwt>0</asrwt>
<pdfrwt beam="1">  1       21 0.22807545E-01 0.83231959E+02</pdfrwt>
<pdfrwt beam="2">  1       21 0.18753739E-01 0.83231959E+02</pdfrwt>
<totfact> 0.47437572E+05</totfact>
</mgrwt>
</event>
<event>
 5    1  0.1721815E-001  0.3332743E+03  0.7546771E-02  0.1069697E+00
         21   -1    0    0  503  502  0.00000000000E+00  0.00000000000E+00  0.10055480872E+04  0.10055480872E+04  0.00000000000E+00 0. -1.
         21   -1    0    0  501  503 -0.00000000000E+00 -0.00000000000E+00 -0.13530117764E+03  0.13530117764E+03  0.00000000000E+00 0. -1.
         24    1    1    2    0    0  0.96073732047E+02 -0.23366340431E+03  0.14933700870E+03  0.30429838419E+03  0.80419002446E+02 0. -1.
          1    1    1    2  501    0 -0.17772341697E+03  0.26060305723E+03  0.43059045059E+03  0.53376746109E+03  0.00000000000E+00 0. -1.
         -2    1    1    2    0  502  0.81649684922E+02 -0.26939652928E+02  0.29031945025E+03  0.30278341953E+03  0.00000000000E+00 0.  1.
<mgrwt>
<rscale>  2 0.33327427E+03</rscale>
<asrwt>0</asrwt>
<pdfrwt beam="1">  1       21 0.15469970E+00 0.33327427E+03</pdfrwt>
<pdfrwt beam="2">  1       21 0.20815566E-01 0.33327427E+03</pdfrwt>
<totfact> 0.53925858E+03</totfact>
</mgrwt>
</event>
<event>
 5    1  0.1721815E-001  0.6479886E+02  0.7546771E-02  0.1378730E+00
         21   -1    0    0  501  502  0.00000000000E+00  0.00000000000E+00  0.31869775224E+03  0.31869775224E+03  0.00000000000E+00 0.  1.
         21   -1    0    0  502  503 -0.00000000000E+00 -0.00000000000E+00 -0.22379136912E+02  0.22379136912E+02  0.00000000000E+00 0. -1.
         24    1    1    2    0    0  0.14363686805E+02  0.13502793396E+01  0.65749773418E+02  0.10487319682E+03  0.80419002446E+02 0. -1.
          1    1    1    2  501    0  0.16886844014E+01  0.20617817483E+02  0.14348080186E+03  0.14496443204E+03  0.00000000000E+00 0. -1.
         -2    1    1    2    0  503 -0.16052371206E+02 -0.21968096822E+02  0.87088040051E+02  0.91239260296E+02  0.00000000000E+00 0.  1.
<mgrwt>
<rscale>  2 0.64798856E+02</rscale>
<asrwt>0</asrwt>
<pdfrwt beam="1">  1       21 0.49030420E-01 0.64798856E+02</pdfrwt>
<pdfrwt beam="2">  1       21 0.34429444E-02 0.64798856E+02</pdfrwt>
<totfact> 0.19431216E+06</totfact>
</mgrwt>
</event>
<event>
 5    1  0.1721815E-001  0.1592913E+03  0.7546771E-02  0.1189499E+00
         21   -1    0    0  501  502  0.00000000000E+00  0.00000000000E+00  0.22331541078E+02  0.22331541078E+02  0.00000000000E+00 0. -1.
         21   -1    0    0  502  503 -0.00000000000E+00 -0.00000000000E+00 -0.11700456234E+04  0.11700456234E+04  0.00000000000E+00 0.  1.
         24    1    1    2    0    0 -0.39461563177E+02  0.70171468623E+02 -0.32973892167E+03  0.34882118972E+03  0.80419002446E+02 0.  1.
          1    1    1    2  501    0 -0.48733673319E+02 -0.10036484001E+03 -0.39676286134E+03  0.41215147721E+03  0.00000000000E+00 0. -1.
         -2    1    1    2    0  503  0.88195236495E+02  0.30193371390E+02 -0.42121229929E+03  0.43140449753E+03  0.00000000000E+00 0.  1.
<mgrwt>
<rscale>  2 0.15929132E+03</rscale>
<asrwt>0</asrwt>
<pdfrwt beam="1">  1       21 0.34356222E-02 0.15929132E+03</pdfrwt>
<pdfrwt beam="2">  1       21 0.18000699E+00 0.15929132E+03</pdfrwt>
<totfact> 0.93663356E+04</totfact>
</mgrwt>
</event>
<event>
 5    1  0.1721815E-001  0.1308527E+03  0.7546771E-02  0.1226196E+00
         21   -1    0    0  503  502  0.00000000000E+00  0.00000000000E+00  0.30057594393E+03  0.30057594393E+03  0.00000000000E+00 0.  1.
         21   -1    0    0  501  503 -0.00000000000E+00 -0.00000000000E+00 -0.59712645273E+02  0.59712645273E+02  0.00000000000E+00 0.  1.
         24    1    1    2    0    0 -0.13747056192E+02  0.10491012158E+03  0.83786837916E+02  0.15710685958E+03  0.80419002446E+02 0.  1.
          1    1    1    2  501    0 -0.28559507721E+02 -0.23209530669E+02  0.41821019580E+02  0.55707499260E+02  0.00000000000E+00 0. -1.
         -2    1    1    2    0  502  0.42306563914E+02 -0.81700590910E+02  0.11525544116E+03  0.14747423037E+03  0.00000000000E+00 0.  1.
<mgrwt>
<rscale>  2 0.13085271E+03</rscale>
<asrwt>0</asrwt>
<pdfrwt beam="1">  1       21 0.46242452E-01 0.13085271E+03</pdfrwt>
<pdfrwt beam="2">  1       21 0.91865610E-02 0.13085271E+03</pdfrwt>
<totfact> 0.42640722E+05</totfact>
</mgrwt>
</event>
<event>
 5    1  0.1721815E-001  0.1208869E+03  0.7546771E-02  0.1241641E+00
         21   -1    0    0  503  502  0.00000000000E+00  0.00000000000E+00  0.13550926812E+03  0.13550926812E+03  0.00000000000E+00 0.  1.
         21   -1    0    0  501  503 -0.00000000000E+00 -0.00000000000E+00 -0.14353346097E+03  0.14353346097E+03  0.00000000000E+00 0. -1.
         24    1    1    2    0    0  0.14747992573E+02 -0.45384873045E+02 -0.59587742521E+02  0.11088374542E+03  0.80419002446E+02 0. -1.
          1    1    1    2  501    0  0.63186817593E+02  0.18995948112E+02 -0.81660128919E+01  0.66483860664E+02  0.00000000000E+00 0. -1.
         -2    1    1    2    0  502 -0.77934810166E+02  0.26388924932E+02  0.59729562561E+02  0.10167512301E+03  0.00000000000E+00 0.  1.
<mgrwt>
<rscale>  2 0.12088690E+03</rscale>
<asrwt>0</asrwt>
<pdfrwt beam="1">  1       21 0.20847580E-01 0.12088690E+03</pdfrwt>
<pdfrwt beam="2">  1       21 0.22082071E-01 0.12088690E+03</pdfrwt>
<totfact> 0.41381089E+05</totfact>
</mgrwt>
</event>
<event>
 5    1  0.1721815E-001  0.1089491E+03  0.7546771E-02  0.1262528E+00
         21   -1    0    0  501  502  0.00000000000E+00  0.00000000000E+00  0.10519018476E+03  0.10519018476E+03  0.00000000000E+00 0. -1.
         21   -1    0    0  502  503 -0.00000000000E+00 -0.00000000000E+00 -0.25071440522E+03  0.25071440522E+03  0.00000000000E+00 0. -1.
         24    1    1    2    0    0 -0.86571700167E+02 -0.35090047062E+02 -0.18639449428E+03  0.22346385418E+03  0.80419002446E+02 0. -1.
          1    1    1    2  501    0  0.69575045733E+02  0.21336123944E+02  0.66619120582E+02  0.98661159535E+02  0.00000000000E+00 0. -1.
         -2    1    1    2    0  503  0.16996654434E+02  0.13753923117E+02 -0.25748846764E+02  0.33779576266E+02  0.00000000000E+00 0.  1.
<mgrwt>
<rscale>  2 0.10894910E+03</rscale>
<asrwt>0</asrwt>
<pdfrwt beam="1">  1       21 0.16183105E-01 0.10894910E+03</pdfrwt>
<pdfrwt beam="2">  1       21 0.38571447E-01 0.10894910E+03</pdfrwt>
<totfact> 0.22610428E+05</totfact>
</mgrwt>
</event>
<event>
 5    1  0.1721815E-001  0.1800553E+03  0.7546771E-02  0.1167749E+00
         21   -1    0    0  501  502  0.00000000000E+00  0.00000000000E+00  0.39307458471E+03  0.39307458471E+03  0.00000000000E+00 0. -1.
         21   -1    0    0  502  503 -0.00000000000E+00 -0.00000000000E+00 -0.20157072633E+03  0.20157072633E+03  0.00000000000E+00 0. -1.
         24    1    1    2    0    0 -0.30139775989E+02  0.52058312565E+02 -0.12119731885E+03  0.15739911071E+03  0.80419002446E+02 0. -1.
          1    1    1    2  501    0 -0.27097012408E+01 -0.15325981122E+03  0.29063946910E+03  0.32858364721E+03  0.00000000000E+00 0. -1.
         -2    1    1    2    0  503  0.32849477230E+02  0.10120149865E+03  0.22061708131E+02  0.10866255311E+03  0.00000000000E+00 0.  1.
<mgrwt>
<rscale>  2 0.18005535E+03</rscale>
<asrwt>0</asrwt>
<pdfrwt beam="1">  1       21 0.60473013E-01 0.18005535E+03</pdfrwt>
<pdfrwt beam="2">  1       21 0.31010881E-01 0.18005535E+03</pdfrwt>
<totfact> 0.25630525E+04</totfact>
</mgrwt>
</event>
<event>
 5    1  0.1721815E-001  0.9678774E+02  0.7546771E-02  0.1287200E+00
         21   -1    0    0  501  502  0.00000000000E+00  0.00000000000E+00  0.44539352156E+02  0.44539352156E+02  0.00000000000E+00 0. -1.
         21   -1    0    0  502  503 -0.00000000000E+00 -0.00000000000E+00 -0.66965523618E+03  0.66965523618E+03  0.00000000000E+00 0.  1.
         24    1    1    2    0    0  0.57272172296E+02  0.58659474329E+01 -0.52532898671E+03  0.53455801489E+03  0.80419002446E+02 0.  1.
          1    1    1    2  501    0  0.12793831097E+02  0.16722923491E+02  0.26264459650E+02  0.33662443835E+02  0.00000000000E+00 0. -1.
         -2    1    1    2    0  503 -0.70066003393E+02 -0.22588870924E+02 -0.12605135697E+03  0.14597412961E+03  0.00000000000E+00 0.  1.
<mgrwt>
<rscale>  2 0.96787740E+02</rscale>
<asrwt>0</asrwt>
<pdfrwt beam="1">  1       21 0.68522084E-02 0.96787740E+02</pdfrwt>
<pdfrwt beam="2">  1       21 0.10302388E+00 0.96787740E+02</pdfrwt>
<totfact> 0.12492036E+05</totfact>
</mgrwt>
</event>
<event>
 5    1  0.1721815E-001  0.8093765E+02  0.7546771E-02  0.1326411E+00
         21   -1    0    0  501  502  0.00000000000E+00  0.00000000000E+00  0.22096782683E+03  0.22096782683E+03  0.00000000000E+00 0. -1.
         21   -1    0    0  502  503 -0.00000000000E+00 -0.00000000000E+00 -0.42875716734E+02  0.42875716734E+02  0.00000000000E+00 0.  1.
         24    1    1    2    0    0  0.10495239480E+01  0.10518376997E-01  0.22383868772E+02  0.83482663749E+02  0.80419002446E+02 0.  1.
          1    1    1    2  501    0  0.34504866406E+02  0.20763934951E+02  0.11741363119E+03  0.12412770677E+03  0.00000000000E+00 0. -1.
         -2    1    1    2    0  503 -0.35554390354E+02 -0.20774453328E+02  0.38294610135E+02  0.56233173038E+02  0.00000000000E+00 0.  1.
<mgrwt>
<rscale>  2 0.80937654E+02</rscale>
<asrwt>0</asrwt>
<pdfrwt beam="1">  1       21 0.33995050E-01 0.80937654E+02</pdfrwt>
<pdfrwt beam="2">  1       21 0.65962642E-02 0.80937654E+02</pdfrwt>
<totfact> 0.13795576E+06</totfact>
</mgrwt>
</event>
<event>
 5    1  0.1721815E-001  0.9449576E+02  0.7546771E-02  0.1292316E+00
         21   -1    0    0  501  502  0.00000000000E+00  0.00000000000E+00  0.86495452713E+02  0.86495452713E+02  0.00000000000E+00 0. -1.
         21   -1    0    0  502  503 -0.00000000000E+00 -0.00000000000E+00 -0.26807262402E+03  0.26807262402E+03  0.00000000000E+00 0. -1.
         24    1    1    2    0    0  0.18112755237E+02  0.19547916005E+02 -0.16316086530E+03  0.18384470849E+03  0.80419002446E+02 0. -1.
          1    1    1    2  501    0 -0.35601767167E+02  0.33212538419E+02  0.58319280628E+02  0.75971685690E+02  0.00000000000E+00 0. -1.
         -2    1    1    2    0  503  0.17489011930E+02 -0.52760454424E+02 -0.76735586634E+02  0.94751682547E+02  0.00000000000E+00 0.  1.
<mgrwt>
<rscale>  2 0.94495761E+02</rscale>
<asrwt>0</asrwt>
<pdfrwt beam="1">  1       21 0.13306993E-01 0.94495761E+02</pdfrwt>
<pdfrwt beam="2">  1       21 0.41241941E-01 0.94495761E+02</pdfrwt>
<totfact> 0.28183205E+05</totfact>
</mgrwt>
</event>
<event>
 5    1  0.1721815E-001  0.1145184E+03  0.7546771E-02  0.1252424E+00
         21   -1    0    0  503  502  0.00000000000E+00  0.00000000000E+00  0.85381536012E+02  0.85381536012E+02  0.00000000000E+00 0.  1.
         21   -1    0    0  501  503 -0.00000000000E+00 -0.00000000000E+00 -0.20842693456E+03  0.20842693456E+03  0.00000000000E+00 0.  1.
         24    1    1    2    0    0  0.31004370161E+01 -0.21525420536E+02 -0.10417752670E+03  0.13339088973E+03  0.80419002446E+02 0.  1.
          1    1    1    2  501    0  0.49400189479E+02 -0.40919642581E+02 -0.40694205614E+02  0.75965875497E+02  0.00000000000E+00 0. -1.
         -2    1    1    2    0  502 -0.52500626495E+02  0.62445063117E+02  0.21826333768E+02  0.84451705346E+02  0.00000000000E+00 0.  1.
<mgrwt>
<rscale>  2 0.11451843E+03</rscale>
<asrwt>0</asrwt>
<pdfrwt beam="1">  1       21 0.13135621E-01 0.11451843E+03</pdfrwt>
<pdfrwt beam="2">  1       21 0.32065682E-01 0.11451843E+03</pdfrwt>
<totfact> 0.47135087E+05</totfact>
</mgrwt>
</event>
<event>
 5    1  0.1721815E-001  0.1501826E+03  0.7546771E-02  0.1200249E+00
         21   -1    0    0  503  502  0.00000000000E+00  0.00000000000E+00  0.78665866693E+03  0.78665866693E+03  0.00000000000E+00 0. -1.
         21   -1    0    0  501  503 -0.00000000000E+00 -0.00000000000E+00 -0.38508104208E+02  0.38508104208E+02  0.00000000000E+00 0. -1.
         24    1    1    2    0    0  0.77308849995E+02 -0.85788654416E+02  0.21725762734E+03  0.25885216651E+03  0.80419002446E+02 0. -1.
          1    1    1    2  501    0 -0.10543653125E+03  0.59124113740E+02  0.20395099956E+03  0.23708338864E+03  0.00000000000E+00 0. -1.
         -2    1    1    2    0  502  0.28127681258E+02  0.26664540677E+02  0.32694193582E+03  0.32923121598E+03  0.00000000000E+00 0.  1.
<mgrwt>
<rscale>  2 0.15018259E+03</rscale>
<asrwt>0</asrwt>
<pdfrwt beam="1">  1       21 0.12102440E+00 0.15018259E+03</pdfrwt>
<pdfrwt beam="2">  1       21 0.59243243E-02 0.15018259E+03</pdfrwt>
<totfact> 0.10615223E+05</totfact>
</mgrwt>
</event>
<event>
 5    1  0.1721815E-001  0.1158290E+03  0.7546771E-02  0.1250141E+00
         21   -1    0    0  503  502  0.00000000000E+00  0.00000000000E+00  0.12311558124E+03  0.12311558124E+03  0.00000000000E+00 0.  1.
         21   -1    0    0  501  503 -0.00000000000E+00 -0.00000000000E+00 -0.13060037708E+03  0.13060037708E+03  0.00000000000E+00 0. -1.
         24    1    1    2    0    0  0.28579645834E+02  0.56066073596E+02 -0.42099241901E+02  0.11045253681E+03  0.80419002446E+02 0.  0.
          1    1    1    2  501    0 -0.72666396623E+02 -0.36291489503E+02 -0.41296081395E+01  0.81329767440E+02  0.00000000000E+00 0. -1.
         -2    1    1    2    0  502  0.44086750788E+02 -0.19774584093E+02  0.38744054197E+02  0.61933654073E+02  0.00000000000E+00 0.  1.
<mgrwt>
<rscale>  2 0.11582903E+03</rscale>
<asrwt>0</asrwt>
<pdfrwt beam="1">  1       21 0.18940859E-01 0.11582903E+03</pdfrwt>
<pdfrwt beam="2">  1       21 0.20092366E-01 0.11582903E+03</pdfrwt>
<totfact> 0.58853972E+05</totfact>
</mgrwt>
</event>
<event>
 5    1  0.1721815E-001  0.1432846E+03  0.7546771E-02  0.1208976E+00
         21   -1    0    0  503  502  0.00000000000E+00  0.00000000000E+00  0.87437330299E+02  0.87437330299E+02  0.00000000000E+00 0.  1.
         21   -1    0    0  501  503 -0.00000000000E+00 -0.00000000000E+00 -0.41537302682E+03  0.41537302682E+03  0.00000000000E+00 0. -1.
         24    1    1    2    0    0 -0.12213004137E+03 -0.49994728341E+02 -0.33405688835E+03  0.36807124375E+03  0.80419002446E+02 0. -1.
          1    1    1    2  501    0  0.20275701394E+02  0.66783736095E+01 -0.87326899525E+01  0.23064358107E+02  0.00000000000E+00 0. -1.
         -2    1    1    2    0  502  0.10185433998E+03  0.43316354732E+02  0.14853881780E+02  0.11167475526E+03  0.00000000000E+00 0.  1.
<mgrwt>
<rscale>  2 0.14328458E+03</rscale>
<asrwt>0</asrwt>
<pdfrwt beam="1">  1       21 0.13451897E-01 0.14328458E+03</pdfrwt>
<pdfrwt beam="2">  1       21 0.63903543E-01 0.14328458E+03</pdfrwt>
<totfact> 0.11012513E+05</totfact>
</mgrwt>
</event>
<event>
 5    1  0.1721815E-001  0.1157049E+03  0.7546771E-02  0.1250356E+00
         21   -1    0    0  501  502  0.00000000000E+00  0.00000000000E+00  0.21288723418E+02  0.21288723418E+02  0.00000000000E+00 0. -1.
         21   -1    0    0  502  503 -0.00000000000E+00 -0.00000000000E+00 -0.64588298380E+03  0.64588298380E+03  0.00000000000E+00 0.  1.
         24    1    1    2    0    0 -0.92880995438E+01 -0.44146563131E+02 -0.19753401895E+03  0.21799562478E+03  0.80419002446E+02 0.  1.
          1    1    1    2  501    0  0.69546043447E+02  0.36255096027E+02 -0.24269358971E+03  0.25505149016E+03  0.00000000000E+00 0. -1.
         -2    1    1    2    0  503 -0.60257943904E+02  0.78914671036E+01 -0.18436665172E+03  0.19412459227E+03  0.00000000000E+00 0.  1.
<mgrwt>
<rscale>  2 0.11570491E+03</rscale>
<asrwt>0</asrwt>
<pdfrwt beam="1">  1       21 0.32751889E-02 0.11570491E+03</pdfrwt>
<pdfrwt beam="2">  1       21 0.99366592E-01 0.11570491E+03</pdfrwt>
<totfact> 0.46266705E+05</totfact>
</mgrwt>
</event>
<event>
 5    1  0.1721815E-001  0.8516350E+02  0.7546771E-02  0.1315006E+00
         21   -1    0    0  503  502  0.00000000000E+00  0.00000000000E+00  0.11215091121E+02  0.11215091121E+02  0.00000000000E+00 0.  1.
         21   -1    0    0  501  503 -0.00000000000E+00 -0.00000000000E+00 -0.80550789206E+03  0.80550789206E+03  0.00000000000E+00 0. -1.
         24    1    1    2    0    0  0.15531158263E+02 -0.40780978092E+02 -0.55386665091E+03  0.56137312725E+03  0.80419002446E+02 0. -1.
          1    1    1    2  501    0  0.69187940162E+01  0.52878357788E+02 -0.20419212177E+03  0.21104125907E+03  0.00000000000E+00 0. -1.
         -2    1    1    2    0  502 -0.22449952279E+02 -0.12097379696E+02 -0.36234028257E+02  0.44308596870E+02  0.00000000000E+00 0.  1.
<mgrwt>
<rscale>  2 0.85163497E+02</rscale>
<asrwt>0</asrwt>
<pdfrwt beam="1">  1       21 0.17253978E-02 0.85163497E+02</pdfrwt>
<pdfrwt beam="2">  1       21 0.12392435E+00 0.85163497E+02</pdfrwt>
<totfact> 0.77341031E+05</totfact>
</mgrwt>
</event>
<event>
 5    1  0.1721815E-001  0.9981742E+02  0.7546771E-02  0.1280680E+00
         21   -1    0    0  501  502  0.00000000000E+00  0.00000000000E+00  0.44909122985E+02  0.44909122985E+02  0.00000000000E+00 0. -1.
         21   -1    0    0  502  503 -0.00000000000E+00 -0.00000000000E+00 -0.26246342714E+03  0.26246342714E+03  0.00000000000E+00 0.  1.
         24    1    1    2    0    0 -0.30863806682E+01  0.33031472391E+02 -0.92272030857E+02  0.12681461882E+03  0.80419002446E+02 0. -1.
          1    1    1    2  501    0 -0.48442201859E+02  0.48537127571E+01 -0.11487611216E+02  0.50021701890E+02  0.00000000000E+00 0. -1.
         -2    1    1    2    0  503  0.51528582527E+02 -0.37885185148E+02 -0.11379466208E+03  0.13053622941E+03  0.00000000000E+00 0.  1.
<mgrwt>
<rscale>  2 0.99817425E+02</rscale>
<asrwt>0</asrwt>
<pdfrwt beam="1">  1       21 0.69090958E-02 0.99817425E+02</pdfrwt>
<pdfrwt beam="2">  1       21 0.40378989E-01 0.99817425E+02</pdfrwt>
<totfact> 0.91467224E+05</totfact>
</mgrwt>
</event>
<event>
 5    1  0.1721815E-001  0.1388927E+03  0.7546771E-02  0.1214827E+00
         21   -1    0    0  503  502  0.00000000000E+00  0.00000000000E+00  0.18922660410E+03  0.18922660410E+03  0.00000000000E+00 0.  1.
         21   -1    0    0  501  503 -0.00000000000E+00 -0.00000000000E+00 -0.32627239604E+03  0.32627239604E+03  0.00000000000E+00 0. -1.
         24    1    1    2    0    0  0.53469523368E+01  0.38018574262E+02 -0.81489812036E+02  0.12075515438E+03  0.80419002446E+02 0. -1.
          1    1    1    2  501    0 -0.15704724392E+02 -0.11244082859E+03 -0.20110772517E+03  0.23094132463E+03  0.00000000000E+00 0. -1.
         -2    1    1    2    0  502  0.10357772055E+02  0.74422254327E+02  0.14555174526E+03  0.16380252113E+03  0.00000000000E+00 0.  1.
<mgrwt>
<rscale>  2 0.13889268E+03</rscale>
<asrwt>0</asrwt>
<pdfrwt beam="1">  1       21 0.29111785E-01 0.13889268E+03</pdfrwt>
<pdfrwt beam="2">  1       21 0.50195753E-01 0.13889268E+03</pdfrwt>
<totfact> 0.43895769E+04</totfact>
</mgrwt>
</event>
<event>
 5    1  0.1721815E-001  0.1685066E+03  0.7546771E-02  0.1179414E+00
         21   -1    0    0  503  502  0.00000000000E+00  0.00000000000E+00  0.95320789233E+02  0.95320789233E+02  0.00000000000E+00 0.  1.
         21   -1    0    0  501  503 -0.00000000000E+00 -0.00000000000E+00 -0.45438311289E+03  0.45438311289E+03  0.00000000000E+00 0. -1.
         24    1    1    2    0    0 -0.51183892876E+02  0.51660976353E+02 -0.25687893678E+03  0.27882369247E+03  0.80419002446E+02 0.  0.
          1    1    1    2  501    0 -0.31679538864E+02  0.72612637968E+02 -0.91648290073E+02  0.12114288030E+03  0.00000000000E+00 0. -1.
         -2    1    1    2    0  502  0.82863431740E+02 -0.12427361432E+03 -0.10535096806E+02  0.14973732935E+03  0.00000000000E+00 0.  1.
<mgrwt>
<rscale>  2 0.16850656E+03</rscale>
<asrwt>0</asrwt>
<pdfrwt beam="1">  1       21 0.14664737E-01 0.16850656E+03</pdfrwt>
<pdfrwt beam="2">  1       21 0.69905095E-01 0.16850656E+03</pdfrwt>
<totfact> 0.76763773E+04</totfact>
</mgrwt>
</event>
<event>
 5    1  0.1721815E-001  0.1316434E+03  0.7546771E-02  0.1225037E+00
         21   -1    0    0  501  502  0.00000000000E+00  0.00000000000E+00  0.29543730309E+03  0.29543730309E+03  0.00000000000E+00 0. -1.
         21   -1    0    0  502  503 -0.00000000000E+00 -0.00000000000E+00 -0.69596423143E+02  0.69596423143E+02  0.00000000000E+00 0.  1.
         24    1    1    2    0    0  0.44651344642E+02  0.32117497020E+02  0.22235960526E+02  0.99934629074E+02  0.80419002446E+02 0.  1.
          1    1    1    2  501    0 -0.10365686358E+03 -0.22547193610E+02  0.15615572165E+03  0.18877958235E+03  0.00000000000E+00 0. -1.
         -2    1    1    2    0  503  0.59005518935E+02 -0.95703034092E+01  0.47449197766E+02  0.76319514809E+02  0.00000000000E+00 0.  1.
<mgrwt>
<rscale>  2 0.13164338E+03</rscale>
<asrwt>0</asrwt>
<pdfrwt beam="1">  1       21 0.45451892E-01 0.13164338E+03</pdfrwt>
<pdfrwt beam="2">  1       21 0.10707142E-01 0.13164338E+03</pdfrwt>
<totfact> 0.33781861E+05</totfact>
</mgrwt>
</event>
<event>
 5    1  0.1721815E-001  0.1612334E+03  0.7546771E-02  0.1187311E+00
         21   -1    0    0  501  502  0.00000000000E+00  0.00000000000E+00  0.11505831749E+04  0.11505831749E+04  0.00000000000E+00 0. -1.
         21   -1    0    0  502  503 -0.00000000000E+00 -0.00000000000E+00 -0.24900277442E+02  0.24900277442E+02  0.00000000000E+00 0.  1.
         24    1    1    2    0    0  0.51066487069E+02  0.50751474463E+02  0.44668153301E+03  0.45953792678E+03  0.80419002446E+02 0. -1.
          1    1    1    2  501    0 -0.36227581002E+01  0.77602265300E+02  0.14286446232E+03  0.16262069533E+03  0.00000000000E+00 0. -1.
         -2    1    1    2    0  503 -0.47443728969E+02 -0.12835373976E+03  0.53613690217E+03  0.55332483027E+03  0.00000000000E+00 0.  1.
<mgrwt>
<rscale>  2 0.16123337E+03</rscale>
<asrwt>0</asrwt>
<pdfrwt beam="1">  1       21 0.17701275E+00 0.16123337E+03</pdfrwt>
<pdfrwt beam="2">  1       21 0.38308128E-02 0.16123337E+03</pdfrwt>
<totfact> 0.81806672E+04</totfact>
</mgrwt>
</event>
<event>
 5    1  0.1721815E-001  0.2219669E+03  0.7546771E-02  0.1132425E+00
         21   -1    0    0  503  502  0.00000000000E+00  0.00000000000E+00  0.24686458430E+03  0.24686458430E+03  0.00000000000E+00 0.  1.
         21   -1    0    0  501  503 -0.00000000000E+00 -0.00000000000E+00 -0.20189513541E+03  0.20189513541E+03  0.00000000000E+00 0. -1.
         24    1    1    2    0    0 -0.44052986959E+02  0.47049127710E+00 -0.30807652119E+01  0.91747447325E+02  0.80419002446E+02 0.  0.
          1    1    1    2  501    0 -0.95889715193E+02 -0.13000763830E+03  0.55491700121E+01  0.16164039341E+03  0.00000000000E+00 0. -1.
         -2    1    1    2    0  502  0.13994270215E+03  0.12953714702E+03  0.42501044094E+02  0.19537187897E+03  0.00000000000E+00 0.  1.
<mgrwt>
<rscale>  2 0.22196693E+03</rscale>
<asrwt>0</asrwt>
<pdfrwt beam="1">  1       21 0.37979167E-01 0.22196693E+03</pdfrwt>
<pdfrwt beam="2">  1       21 0.31060790E-01 0.22196693E+03</pdfrwt>
<totfact> 0.65721078E+04</totfact>
</mgrwt>
</event>
<event>
 5    1  0.1721815E-001  0.7871041E+02  0.7546771E-02  0.1332751E+00
         21   -1    0    0  503  502  0.00000000000E+00  0.00000000000E+00  0.17141727353E+02  0.17141727353E+02  0.00000000000E+00 0. -1.
         21   -1    0    0  501  503 -0.00000000000E+00 -0.00000000000E+00 -0.38699253931E+03  0.38699253931E+03  0.00000000000E+00 0.  1.
         24    1    1    2    0    0  0.33899957557E+02 -0.84469662071E+01 -0.23867205224E+03  0.25426781715E+03  0.80419002446E+02 0. -1.
          1    1    1    2  501    0  0.76069077163E+01 -0.18670629370E+02 -0.58587276508E+02  0.61959070480E+02  0.00000000000E+00 0. -1.
         -2    1    1    2    0  502 -0.41506865274E+02  0.27117595577E+02 -0.72591483203E+02  0.87907379032E+02  0.00000000000E+00 0.  1.
<mgrwt>
<rscale>  2 0.78710409E+02</rscale>
<asrwt>0</asrwt>
<pdfrwt beam="1">  1       21 0.26371889E-02 0.78710409E+02</pdfrwt>
<pdfrwt beam="2">  1       21 0.59537311E-01 0.78710409E+02</pdfrwt>
<totfact> 0.20241967E+06</totfact>
</mgrwt>
</event>
<event>
 5    1  0.1721815E-001  0.1377348E+03  0.7546771E-02  0.1216410E+00
         21   -1    0    0  503  502  0.00000000000E+00  0.00000000000E+00  0.49404662561E+03  0.49404662561E+03  0.00000000000E+00 0.  1.
         21   -1    0    0  501  503 -0.00000000000E+00 -0.00000000000E+00 -0.36147936198E+03  0.36147936198E+03  0.00000000000E+00 0. -1.
         24    1    1    2    0    0  0.46282726141E+02  0.69157501602E+02 -0.31342426304E+03  0.33410602417E+03  0.80419002446E+02 0. -1.
          1    1    1    2  501    0  0.48227812785E+02 -0.33550255201E+02 -0.52784768830E+01  0.58986471909E+02  0.00000000000E+00 0. -1.
         -2    1    1    2    0  502 -0.94510538926E+02 -0.35607246401E+02  0.45127000355E+03  0.46243349151E+03  0.00000000000E+00 0.  1.
<mgrwt>
<rscale>  2 0.13773478E+03</rscale>
<asrwt>0</asrwt>
<pdfrwt beam="1">  1       21 0.76007173E-01 0.13773478E+03</pdfrwt>
<pdfrwt beam="2">  1       21 0.55612210E-01 0.13773478E+03</pdfrwt>
<totfact> 0.49322073E+03</totfact>
</mgrwt>
</event>
<event>
 5    1  0.1721815E-001  0.8308570E+02  0.7546771E-02  0.1320516E+00
         21   -1    0    0  503  502  0.00000000000E+00  0.00000000000E+00  0.13891320846E+03  0.13891320846E+03  0.00000000000E+00 0.  1.
         21   -1    0    0  501  503 -0.00000000000E+00 -0.00000000000E+00 -0.19813542865E+03  0.19813542865E+03  0.00000000000E+00 0. -1.
         24    1    1    2    0    0  0.21441195423E+02 -0.16562665201E+02 -0.15858377973E+03  0.17986127400E+03  0.80419002446E+02 0. -1.
          1    1    1    2  501    0  0.49631000999E+01  0.43388000601E+02 -0.71211802084E+01  0.44247736285E+02  0.00000000000E+00 0. -1.
         -2    1    1    2    0  502 -0.26404295523E+02 -0.26825335400E+02  0.10648273975E+03  0.11293962682E+03  0.00000000000E+00 0.  1.
<mgrwt>
<rscale>  2 0.83085702E+02</rscale>
<asrwt>0</asrwt>
<pdfrwt beam="1">  1       21 0.21371263E-01 0.83085702E+02</pdfrwt>
<pdfrwt beam="2">  1       21 0.30482374E-01 0.83085702E+02</pdfrwt>
<totfact> 0.21673204E+05</totfact>
</mgrwt>
</event>
<event>
 5    1  0.1721815E-001  0.1803202E+03  0.7546771E-02  0.1167494E+00
         21   -1    0    0  503  502  0.00000000000E+00  0.00000000000E+00  0.59266418407E+02  0.59266418407E+02  0.00000000000E+00 0. -1.
         21   -1    0    0  501  503 -0.00000000000E+00 -0.00000000000E+00 -0.55457620014E+03  0.55457620014E+03  0.00000000000E+00 0.  1.
         24    1    1    2    0    0 -0.12817268582E+03  0.43200840261E+02 -0.24764714503E+03  0.29341246461E+03  0.80419002446E+02 0.  0.
          1    1    1    2  501    0 -0.35207278629E+02 -0.94247875702E+01 -0.42071714164E+02  0.55663347204E+02  0.00000000000E+00 0. -1.
         -2    1    1    2    0  502  0.16337996445E+03 -0.33776052691E+02 -0.20559092253E+03  0.26476680673E+03  0.00000000000E+00 0.  1.
<mgrwt>
<rscale>  2 0.18032020E+03</rscale>
<asrwt>0</asrwt>
<pdfrwt beam="1">  1       21 0.91179103E-02 0.18032020E+03</pdfrwt>
<pdfrwt beam="2">  1       21 0.85319418E-01 0.18032020E+03</pdfrwt>
<totfact> 0.11396170E+05</totfact>
</mgrwt>
</event>
<event>
 5    1  0.1721815E-001  0.1687409E+03  0.7546771E-02  0.1179167E+00
         21   -1    0    0  501  502  0.00000000000E+00  0.00000000000E+00  0.69878792841E+02  0.69878792841E+02  0.00000000000E+00 0. -1.
         21   -1    0    0  502  503 -0.00000000000E+00 -0.00000000000E+00 -0.62117373959E+03  0.62117373959E+03  0.00000000000E+00 0.  1.
         24    1    1    2    0    0 -0.21133059803E+02  0.69614792456E+02 -0.24213792681E+03  0.26531267798E+03  0.80419002446E+02 0.  0.
          1    1    1    2  501    0  0.10705964318E+03 -0.90979075052E+02 -0.45604655176E+02  0.14771169171E+03  0.00000000000E+00 0. -1.
         -2    1    1    2    0  503 -0.85926583375E+02  0.21364282595E+02 -0.26355236477E+03  0.27802816274E+03  0.00000000000E+00 0.  1.
<mgrwt>
<rscale>  2 0.16874092E+03</rscale>
<asrwt>0</asrwt>
<pdfrwt beam="1">  1       21 0.10750583E-01 0.16874092E+03</pdfrwt>
<pdfrwt beam="2">  1       21 0.95565193E-01 0.16874092E+03</pdfrwt>
<totfact> 0.65952948E+04</totfact>
</mgrwt>
</event>
<event>
 5    1  0.1721815E-001  0.1404632E+03  0.7546771E-02  0.1212707E+00
         21   -1    0    0  503  502  0.00000000000E+00  0.00000000000E+00  0.17232728100E+03  0.17232728100E+03  0.00000000000E+00 0. -1.
         21   -1    0    0  501  503 -0.00000000000E+00 -0.00000000000E+00 -0.17741879831E+03  0.17741879831E+03  0.00000000000E+00 0.  1.
         24    1    1    2    0    0 -0.60164072433E+01  0.47329911657E+02 -0.76275583865E+02  0.12067103357E+03  0.80419002446E+02 0.  1.
          1    1    1    2  501    0 -0.67841434386E+02 -0.81499409042E+02 -0.18861253766E+02  0.10770497104E+03  0.00000000000E+00 0. -1.
         -2    1    1    2    0  502  0.73857841629E+02  0.34169497385E+02  0.90045320324E+02  0.12137007471E+03  0.00000000000E+00 0.  1.
<mgrwt>
<rscale>  2 0.14046322E+03</rscale>
<asrwt>0</asrwt>
<pdfrwt beam="1">  1       21 0.26511890E-01 0.14046322E+03</pdfrwt>
<pdfrwt beam="2">  1       21 0.27295200E-01 0.14046322E+03</pdfrwt>
<totfact> 0.17592127E+05</totfact>
</mgrwt>
</event>
<event>
 5    1  0.1721815E-001  0.1120829E+03  0.7546771E-02  0.1256761E+00
         21   -1    0    0  503  502  0.00000000000E+00  0.00000000000E+00  0.55871034582E+03  0.55871034582E+03  0.00000000000E+00 0. -1.
         21   -1    0    0  501  503 -0.00000000000E+00 -0.00000000000E+00 -0.23910901420E+02  0.23910901420E+02  0.00000000000E+00 0. -1.
         24    1    1    2    0    0 -0.25996138208E+02  0.70094422021E+02  0.32421702875E+03  0.34230530946E+03  0.80419002446E+02 0. -1.
          1    1    1    2  501    0  0.57570457823E+01 -0.87488803052E+02  0.14410879154E+03  0.16868544109E+03  0.00000000000E+00 0. -1.
         -2    1    1    2    0  502  0.20239092425E+02  0.17394381031E+02  0.66473624109E+02  0.71630496688E+02  0.00000000000E+00 0.  1.
<mgrwt>
<rscale>  2 0.11208287E+03</rscale>
<asrwt>0</asrwt>
<pdfrwt beam="1">  1       21 0.85955428E-01 0.11208287E+03</pdfrwt>
<pdfrwt beam="2">  1       21 0.36786006E-02 0.11208287E+03</pdfrwt>
<totfact> 0.53294706E+05</totfact>
</mgrwt>
</event>
<event>
 5    1  0.1721815E-001  0.1638098E+03  0.7546771E-02  0.1184461E+00
         21   -1    0    0  503  502  0.00000000000E+00  0.00000000000E+00  0.24489187101E+03  0.24489187101E+03  0.00000000000E+00 0. -1.
         21   -1    0    0  501  503 -0.00000000000E+00 -0.00000000000E+00 -0.13386108716E+03  0.13386108716E+03  0.00000000000E+00 0. -1.
         24    1    1    2    0    0 -0.10280095677E+03 -0.28450530371E+02 -0.40979006701E+01  0.13364684110E+03  0.80419002446E+02 0. -1.
          1    1    1    2  501    0  0.10494034710E+03  0.86470243928E+02  0.25547257938E+02  0.13835549112E+03  0.00000000000E+00 0. -1.
         -2    1    1    2    0  502 -0.21393903249E+01 -0.58019713557E+02  0.89581426583E+02  0.10675062595E+03  0.00000000000E+00 0.  1.
<mgrwt>
<rscale>  2 0.16380977E+03</rscale>
<asrwt>0</asrwt>
<pdfrwt beam="1">  1       21 0.37675672E-01 0.16380977E+03</pdfrwt>
<pdfrwt beam="2">  1       21 0.20594013E-01 0.16380977E+03</pdfrwt>
<totfact> 0.14991654E+05</totfact>
</mgrwt>
</event>
<event>
 5    1  0.1721815E-001  0.1202686E+03  0.7546771E-02  0.1242655E+00
         21   -1    0    0  501  502  0.00000000000E+00  0.00000000000E+00  0.37205444766E+02  0.37205444766E+02  0.00000000000E+00 0. -1.
         21   -1    0    0  502  503 -0.00000000000E+00 -0.00000000000E+00 -0.13868044205E+04  0.13868044205E+04  0.00000000000E+00 0. -1.
         24    1    1    2    0    0  0.22257702683E+01 -0.58628917494E+02 -0.10311677277E+04  0.10359615835E+04  0.80419002446E+02 0. -1.
          1    1    1    2  501    0  0.13406224134E+02  0.97852635759E+02 -0.40205054327E+02  0.10663635198E+03  0.00000000000E+00 0. -1.
         -2    1    1    2    0  503 -0.15631994402E+02 -0.39223718265E+02 -0.27822619371E+03  0.28141192972E+03  0.00000000000E+00 0.  1.
<mgrwt>
<rscale>  2 0.12026861E+03</rscale>
<asrwt>0</asrwt>
<pdfrwt beam="1">  1       21 0.57239151E-02 0.12026861E+03</pdfrwt>
<pdfrwt beam="2">  1       21 0.21335451E+00 0.12026861E+03</pdfrwt>
<totfact> 0.25186929E+04</totfact>
</mgrwt>
</event>
<event>
 5    1  0.1721815E-001  0.6726161E+02  0.7546771E-02  0.1369661E+00
         21   -1    0    0  501  502  0.00000000000E+00  0.00000000000E+00  0.52690546260E+03  0.52690546260E+03  0.00000000000E+00 0. -1.
         21   -1    0    0  502  503 -0.00000000000E+00 -0.00000000000E+00 -0.55396927623E+02  0.55396927623E+02  0.00000000000E+00 0.  1.
         24    1    1    2    0    0  0.10890908485E+02  0.56262732695E+01 -0.20285851755E+02  0.83839123173E+02  0.80419002446E+02 0.  1.
          1    1    1    2  501    0  0.18973887939E+02 -0.12250056095E+02  0.41759625473E+03  0.41820653302E+03  0.00000000000E+00 0. -1.
         -2    1    1    2    0  503 -0.29864796424E+02  0.66237828255E+01  0.74198132005E+02  0.80256734032E+02  0.00000000000E+00 0.  1.
<mgrwt>
<rscale>  2 0.67261611E+02</rscale>
<asrwt>0</asrwt>
<pdfrwt beam="1">  1       21 0.81062376E-01 0.67261611E+02</pdfrwt>
<pdfrwt beam="2">  1       21 0.85226046E-02 0.67261611E+02</pdfrwt>
<totfact> 0.15050751E+05</totfact>
</mgrwt>
</event>
<event>
 5    1  0.1721815E-001  0.8320364E+02  0.7546771E-02  0.1320198E+00
         21   -1    0    0  501  502  0.00000000000E+00  0.00000000000E+00  0.52936585573E+02  0.52936585573E+02  0.00000000000E+00 0. -1.
         21   -1    0    0  502  503 -0.00000000000E+00 -0.00000000000E+00 -0.45575588632E+03  0.45575588632E+03  0.00000000000E+00 0. -1.
         24    1    1    2    0    0  0.86436986955E+01  0.56153301176E+01 -0.41025626562E+03  0.41819094310E+03  0.80419002446E+02 0. -1.
          1    1    1    2  501    0  0.37241281387E+02  0.66593292615E+01  0.17917742100E+02  0.41860544520E+02  0.00000000000E+00 0. -1.
         -2    1    1    2    0  503 -0.45884980082E+02 -0.12274659379E+02 -0.10480777235E+02  0.48640984277E+02  0.00000000000E+00 0.  1.
<mgrwt>
<rscale>  2 0.83203643E+02</rscale>
<asrwt>0</asrwt>
<pdfrwt beam="1">  1       21 0.81440901E-02 0.83203643E+02</pdfrwt>
<pdfrwt beam="2">  1       21 0.70116290E-01 0.83203643E+02</pdfrwt>
<totfact> 0.22149920E+05</totfact>
</mgrwt>
</event>
<event>
 5    1  0.1721815E-001  0.1986408E+03  0.7546771E-02  0.1150891E+00
         21   -1    0    0  501  502  0.00000000000E+00  0.00000000000E+00  0.20541517719E+04  0.20541517719E+04  0.00000000000E+00 0. -1.
         21   -1    0    0  502  503 -0.00000000000E+00 -0.00000000000E+00 -0.35582644750E+02  0.35582644750E+02  0.00000000000E+00 0.  1.
         24    1    1    2    0    0 -0.47540531543E+01  0.55220703457E+02  0.92448836119E+02  0.13448394092E+03  0.80419002446E+02 0.  1.
          1    1    1    2  501    0  0.14607396762E+03 -0.60707678490E+02  0.14490520722E+04  0.14576607747E+04  0.00000000000E+00 0. -1.
         -2    1    1    2    0  503 -0.14131991447E+03  0.54869750328E+01  0.47706821883E+03  0.49758970099E+03  0.00000000000E+00 0.  1.
<mgrwt>
<rscale>  2 0.19864081E+03</rscale>
<asrwt>0</asrwt>
<pdfrwt beam="1">  1       21 0.31602326E+00 0.19864081E+03</pdfrwt>
<pdfrwt beam="2">  1       21 0.54742546E-02 0.19864081E+03</pdfrwt>
<totfact> 0.63196740E+03</totfact>
</mgrwt>
</event>
<event>
 5    1  0.1721815E-001  0.8608848E+02  0.7546771E-02  0.1312610E+00
         21   -1    0    0  503  502  0.00000000000E+00  0.00000000000E+00  0.37152723878E+03  0.37152723878E+03  0.00000000000E+00 0.  1.
         21   -1    0    0  501  503 -0.00000000000E+00 -0.00000000000E+00 -0.38981972229E+02  0.38981972229E+02  0.00000000000E+00 0.  1.
         24    1    1    2    0    0  0.72302008885E+01  0.37474328161E+02  0.42268317936E+02  0.98541502584E+02  0.80419002446E+02 0.  1.
          1    1    1    2  501    0  0.27532137498E+02 -0.39716936624E+02  0.51348580166E+02  0.70513334449E+02  0.00000000000E+00 0. -1.
         -2    1    1    2    0  502 -0.34762338387E+02  0.22426084634E+01  0.23892836845E+03  0.24145437398E+03  0.00000000000E+00 0.  1.
<mgrwt>
<rscale>  2 0.86088479E+02</rscale>
<asrwt>0</asrwt>
<pdfrwt beam="1">  1       21 0.57158034E-01 0.86088479E+02</pdfrwt>
<pdfrwt beam="2">  1       21 0.59972267E-02 0.86088479E+02</pdfrwt>
<totfact> 0.57258450E+05</totfact>
</mgrwt>
</event>
<event>
 5    1  0.1721815E-001  0.9159321E+02  0.7546771E-02  0.1299039E+00
         21   -1    0    0  503  502  0.00000000000E+00  0.00000000000E+00  0.11593562526E+02  0.11593562526E+02  0.00000000000E+00 0. -1.
         21   -1    0    0  501  503 -0.00000000000E+00 -0.00000000000E+00 -0.76965676494E+03  0.76965676494E+03  0.00000000000E+00 0. -1.
         24    1    1    2    0    0 -0.37702554003E+00 -0.50204604830E+02 -0.48580307835E+03  0.49496716192E+03  0.80419002446E+02 0. -1.
          1    1    1    2  501    0 -0.26293074935E+02  0.55297371570E+02 -0.19533109837E+03  0.20470310961E+03  0.00000000000E+00 0. -1.
         -2    1    1    2    0  502  0.26670100475E+02 -0.50927667395E+01 -0.76929025698E+02  0.81580055941E+02  0.00000000000E+00 0.  1.
<mgrwt>
<rscale>  2 0.91593208E+02</rscale>
<asrwt>0</asrwt>
<pdfrwt beam="1">  1       21 0.17836257E-02 0.91593208E+02</pdfrwt>
<pdfrwt beam="2">  1       21 0.11840869E+00 0.91593208E+02</pdfrwt>
<totfact> 0.81877436E+05</totfact>
</mgrwt>
</event>
<event>
 5    1  0.1721815E-001  0.1240835E+03  0.7546771E-02  0.1236509E+00
         21   -1    0    0  501  502  0.00000000000E+00  0.00000000000E+00  0.90241653741E+03  0.90241653741E+03  0.00000000000E+00 0. -1.
         21   -1    0    0  502  503 -0.00000000000E+00 -0.00000000000E+00 -0.33536961680E+02  0.33536961680E+02  0.00000000000E+00 0. -1.
         24    1    1    2    0    0  0.18238745652E+02 -0.62847716333E+02  0.88602561857E+02  0.13638224669E+03  0.80419002446E+02 0. -1.
          1    1    1    2  501    0  0.17848157844E+01  0.10120298476E+03  0.70900756698E+03  0.71619617405E+03  0.00000000000E+00 0. -1.
         -2    1    1    2    0  503 -0.20023561436E+02 -0.38355268427E+02  0.71269446896E+02  0.83375078348E+02  0.00000000000E+00 0.  1.
<mgrwt>
<rscale>  2 0.12408346E+03</rscale>
<asrwt>0</asrwt>
<pdfrwt beam="1">  1       21 0.13883330E+00 0.12408346E+03</pdfrwt>
<pdfrwt beam="2">  1       21 0.51595333E-02 0.12408346E+03</pdfrwt>
<totfact> 0.96436352E+04</totfact>
</mgrwt>
</event>
<event>
 5    1  0.1721815E-001  0.8385772E+02  0.7546771E-02  0.1318447E+00
         21   -1    0    0  501  502  0.00000000000E+00  0.00000000000E+00  0.79962219942E+02  0.79962219942E+02  0.00000000000E+00 0.  1.
         21   -1    0    0  502  503 -0.00000000000E+00 -0.00000000000E+00 -0.15430253035E+03  0.15430253035E+03  0.00000000000E+00 0. -1.
         24    1    1    2    0    0 -0.43851730151E+02 -0.25518784238E+02 -0.11495308316E+03  0.14918314204E+03  0.80419002446E+02 0. -1.
          1    1    1    2  501    0  0.29142123539E+02  0.41627757727E+02  0.37258959793E+02  0.63010821789E+02  0.00000000000E+00 0. -1.
         -2    1    1    2    0  503  0.14709606612E+02 -0.16108973489E+02  0.33538129626E+01  0.22070786460E+02  0.00000000000E+00 0.  1.
<mgrwt>
<rscale>  2 0.83857724E+02</rscale>
<asrwt>0</asrwt>
<pdfrwt beam="1">  1       21 0.12301880E-01 0.83857724E+02</pdfrwt>
<pdfrwt beam="2">  1       21 0.23738851E-01 0.83857724E+02</pdfrwt>
<totfact> 0.93442474E+05</totfact>
</mgrwt>
</event>
<event>
 5    1  0.1721815E-001  0.1061236E+03  0.7546771E-02  0.1267922E+00
         21   -1    0    0  501  502  0.00000000000E+00  0.00000000000E+00  0.10832217837E+03  0.10832217837E+03  0.00000000000E+00 0. -1.
         21   -1    0    0  502  503 -0.00000000000E+00 -0.00000000000E+00 -0.10692065684E+03  0.10692065684E+03  0.00000000000E+00 0.  1.
         24    1    1    2    0    0  0.29009358994E+02 -0.23349276449E+02 -0.17025843037E+02  0.90243154341E+02  0.80419002446E+02 0.  1.
          1    1    1    2  501    0 -0.31657500201E+02  0.70038289005E+02  0.10715098202E+02  0.77603946905E+02  0.00000000000E+00 0. -1.
         -2    1    1    2    0  503  0.26481412067E+01 -0.46689012556E+02  0.77122663734E+01  0.47395733963E+02  0.00000000000E+00 0.  1.
<mgrwt>
<rscale>  2 0.10612360E+03</rscale>
<asrwt>0</asrwt>
<pdfrwt beam="1">  1       21 0.16664951E-01 0.10612360E+03</pdfrwt>
<pdfrwt beam="2">  1       21 0.16449332E-01 0.10612360E+03</pdfrwt>
<totfact> 0.10699010E+06</totfact>
</mgrwt>
</event>
<event>
 5    1  0.1721815E-001  0.9016986E+02  0.7546771E-02  0.1302441E+00
         21   -1    0    0  501  502  0.00000000000E+00  0.00000000000E+00  0.73437772599E+02  0.73437772599E+02  0.00000000000E+00 0. -1.
         21   -1    0    0  502  503 -0.00000000000E+00 -0.00000000000E+00 -0.16492094651E+03  0.16492094651E+03  0.00000000000E+00 0. -1.
         24    1    1    2    0    0  0.20798584917E+02 -0.59157081974E+02 -0.11763950045E+03  0.15568689573E+03  0.80419002446E+02 0. -1.
          1    1    1    2  501    0 -0.33188326101E+02  0.23641487440E+02  0.11951751639E+02  0.42464447306E+02  0.00000000000E+00 0. -1.
         -2    1    1    2    0  503  0.12389741185E+02  0.35515594534E+02  0.14204574908E+02  0.40207376065E+02  0.00000000000E+00 0.  1.
<mgrwt>
<rscale>  2 0.90169864E+02</rscale>
<asrwt>0</asrwt>
<pdfrwt beam="1">  1       21 0.11298119E-01 0.90169864E+02</pdfrwt>
<pdfrwt beam="2">  1       21 0.25372453E-01 0.90169864E+02</pdfrwt>
<totfact> 0.95935774E+05</totfact>
</mgrwt>
</event>
<event>
 5    1  0.1721815E-001  0.1800330E+03  0.7546771E-02  0.1167771E+00
         21   -1    0    0  501  502  0.00000000000E+00  0.00000000000E+00  0.10473607912E+03  0.10473607912E+03  0.00000000000E+00 0.  1.
         21   -1    0    0  502  503 -0.00000000000E+00 -0.00000000000E+00 -0.36375903591E+03  0.36375903591E+03  0.00000000000E+00 0.  1.
         24    1    1    2    0    0 -0.13451242059E+03  0.10273767261E+03 -0.21861362982E+03  0.28793706911E+03  0.80419002446E+02 0.  1.
          1    1    1    2  501    0  0.66078484035E+02 -0.29269877923E+02  0.15342637361E+00  0.72271123871E+02  0.00000000000E+00 0. -1.
         -2    1    1    2    0  503  0.68433936559E+02 -0.73467794689E+02 -0.40562753334E+02  0.10828692205E+03  0.00000000000E+00 0.  1.
<mgrwt>
<rscale>  2 0.18003298E+03</rscale>
<asrwt>0</asrwt>
<pdfrwt beam="1">  1       21 0.16113243E-01 0.18003298E+03</pdfrwt>
<pdfrwt beam="2">  1       21 0.55962929E-01 0.18003298E+03</pdfrwt>
<totfact> 0.10398069E+05</totfact>
</mgrwt>
</event>
<event>
 5    1  0.1721815E-001  0.1068635E+03  0.7546771E-02  0.1266491E+00
         21   -1    0    0  501  502  0.00000000000E+00  0.00000000000E+00  0.38587044520E+02  0.38587044520E+02  0.00000000000E+00 0. -1.
         21   -1    0    0  502  503 -0.00000000000E+00 -0.00000000000E+00 -0.31511208359E+03  0.31511208359E+03  0.00000000000E+00 0.  1.
         24    1    1    2    0    0  0.41795846553E+02  0.15289290096E+02 -0.12871452704E+03  0.15816226037E+03  0.80419002446E+02 0.  1.
          1    1    1    2  501    0  0.11946421283E+02 -0.54177013977E+02 -0.37999805371E+02  0.67244710076E+02  0.00000000000E+00 0. -1.
         -2    1    1    2    0  503 -0.53742267835E+02  0.38887723882E+02 -0.10981070666E+03  0.12829215767E+03  0.00000000000E+00 0.  1.
<mgrwt>
<rscale>  2 0.10686349E+03</rscale>
<asrwt>0</asrwt>
<pdfrwt beam="1">  1       21 0.59364682E-02 0.10686349E+03</pdfrwt>
<pdfrwt beam="2">  1       21 0.48478783E-01 0.10686349E+03</pdfrwt>
<totfact> 0.81867128E+05</totfact>
</mgrwt>
</event>
<event>
 5    1  0.1721815E-001  0.1156525E+03  0.7546771E-02  0.1250446E+00
         21   -1    0    0  503  502  0.00000000000E+00  0.00000000000E+00  0.23410768125E+02  0.23410768125E+02  0.00000000000E+00 0. -1.
         21   -1    0    0  501  503 -0.00000000000E+00 -0.00000000000E+00 -0.60762871052E+03  0.60762871052E+03  0.00000000000E+00 0. -1.
         24    1    1    2    0    0  0.94063597640E+02 -0.49686380515E+01 -0.38828500016E+03  0.40755994046E+03  0.80419002446E+02 0. -1.
          1    1    1    2  501    0 -0.71616601524E+02  0.26484956176E+02 -0.14182840434E+03  0.16107664882E+03  0.00000000000E+00 0. -1.
         -2    1    1    2    0  502 -0.22446996115E+02 -0.21516318125E+02 -0.54104537896E+02  0.62402889366E+02  0.00000000000E+00 0.  1.
<mgrwt>
<rscale>  2 0.11565246E+03</rscale>
<asrwt>0</asrwt>
<pdfrwt beam="1">  1       21 0.36016569E-02 0.11565246E+03</pdfrwt>
<pdfrwt beam="2">  1       21 0.93481332E-01 0.11565246E+03</pdfrwt>
<totfact> 0.45567737E+05</totfact>
</mgrwt>
</event>
<event>
 5    1  0.1721815E-001  0.1695925E+03  0.7546771E-02  0.1178273E+00
         21   -1    0    0  503  502  0.00000000000E+00  0.00000000000E+00  0.43257039376E+03  0.43257039376E+03  0.00000000000E+00 0.  1.
         21   -1    0    0  501  503 -0.00000000000E+00 -0.00000000000E+00 -0.81572108377E+02  0.81572108377E+02  0.00000000000E+00 0. -1.
         24    1    1    2    0    0 -0.69042569506E+02  0.81266280605E+01  0.18188462766E+02  0.10784690362E+03  0.80419002446E+02 0. -1.
          1    1    1    2  501    0 -0.11608433956E+02 -0.10567556797E+03  0.15968189565E+03  0.19183427536E+03  0.00000000000E+00 0. -1.
         -2    1    1    2    0  502  0.80651003462E+02  0.97548939906E+02  0.17312792696E+03  0.21446132316E+03  0.00000000000E+00 0.  1.
<mgrwt>
<rscale>  2 0.16959249E+03</rscale>
<asrwt>0</asrwt>
<pdfrwt beam="1">  1       21 0.66549290E-01 0.16959249E+03</pdfrwt>
<pdfrwt beam="2">  1       21 0.12549555E-01 0.16959249E+03</pdfrwt>
<totfact> 0.11310739E+05</totfact>
</mgrwt>
</event>
<event>
 5    1  0.1721815E-001  0.1022669E+03  0.7546771E-02  0.1275600E+00
         21   -1    0    0  503  502  0.00000000000E+00  0.00000000000E+00  0.74635685889E+03  0.74635685889E+03  0.00000000000E+00 0.  1.
         21   -1    0    0  501  503 -0.00000000000E+00 -0.00000000000E+00 -0.78494118764E+02  0.78494118764E+02  0.00000000000E+00 0.  1.
         24    1    1    2    0    0 -0.39262211733E+02  0.53394476427E+01  0.33688239025E+02  0.95771312898E+02  0.80419002446E+02 0.  1.
          1    1    1    2  501    0 -0.15064434311E+02 -0.45107380798E+02 -0.33403358684E+02  0.58115379676E+02  0.00000000000E+00 0. -1.
         -2    1    1    2    0  502  0.54326646044E+02  0.39767933155E+02  0.66757785978E+03  0.67096428508E+03  0.00000000000E+00 0.  1.
<mgrwt>
<rscale>  2 0.10226686E+03</rscale>
<asrwt>0</asrwt>
<pdfrwt beam="1">  1       21 0.11482413E+00 0.10226686E+03</pdfrwt>
<pdfrwt beam="2">  1       21 0.12076019E-01 0.10226686E+03</pdfrwt>
<totfact> 0.36200250E+04</totfact>
</mgrwt>
</event>
<event>
 5    1  0.1721815E-001  0.7583436E+02  0.7546771E-02  0.1341307E+00
         21   -1    0    0  503  502  0.00000000000E+00  0.00000000000E+00  0.22963476911E+03  0.22963476911E+03  0.00000000000E+00 0.  1.
         21   -1    0    0  501  503 -0.00000000000E+00 -0.00000000000E+00 -0.31492525561E+02  0.31492525561E+02  0.00000000000E+00 0. -1.
         24    1    1    2    0    0  0.89883387620E+01  0.84945650977E+01  0.47365149067E+02  0.94146806480E+02  0.80419002446E+02 0. -1.
          1    1    1    2  501    0 -0.33618356690E+02 -0.23904661890E+02  0.71485291677E+02  0.82533470137E+02  0.00000000000E+00 0. -1.
         -2    1    1    2    0  502  0.24630017928E+02  0.15410096793E+02  0.79291802800E+02  0.84447018050E+02  0.00000000000E+00 0.  1.
<mgrwt>
<rscale>  2 0.75834360E+02</rscale>
<asrwt>0</asrwt>
<pdfrwt beam="1">  1       21 0.35328425E-01 0.75834360E+02</pdfrwt>
<pdfrwt beam="2">  1       21 0.48450041E-02 0.75834360E+02</pdfrwt>
<totfact> 0.21378331E+06</totfact>
</mgrwt>
</event>
<event>
 5    1  0.1721815E-001  0.1086168E+03  0.7546771E-02  0.1263153E+00
         21   -1    0    0  503  502  0.00000000000E+00  0.00000000000E+00  0.26374847818E+02  0.26374847818E+02  0.00000000000E+00 0. -1.
         21   -1    0    0  501  503 -0.00000000000E+00 -0.00000000000E+00 -0.59742194103E+03  0.59742194103E+03  0.00000000000E+00 0. -1.
         24    1    1    2    0    0  0.11112473160E+02  0.59380732932E+02 -0.42503296684E+03  0.43677201989E+03  0.80419002446E+02 0. -1.
          1    1    1    2  501    0 -0.41064723597E+01 -0.87538669463E+02 -0.11448185121E+03  0.14417342343E+03  0.00000000000E+00 0. -1.
         -2    1    1    2    0  502 -0.70060007999E+01  0.28157936530E+02 -0.31532275163E+02  0.42851345531E+02  0.00000000000E+00 0.  1.
<mgrwt>
<rscale>  2 0.10861677E+03</rscale>
<asrwt>0</asrwt>
<pdfrwt beam="1">  1       21 0.40576689E-02 0.10861677E+03</pdfrwt>
<pdfrwt beam="2">  1       21 0.91911068E-01 0.10861677E+03</pdfrwt>
<totfact> 0.38949632E+05</totfact>
</mgrwt>
</event>
<event>
 5    1  0.1721815E-001  0.1464009E+03  0.7546771E-02  0.1204967E+00
         21   -1    0    0  501  502  0.00000000000E+00  0.00000000000E+00  0.26919442492E+03  0.26919442492E+03  0.00000000000E+00 0.  1.
         21   -1    0    0  502  503 -0.00000000000E+00 -0.00000000000E+00 -0.80892338874E+02  0.80892338874E+02  0.00000000000E+00 0. -1.
         24    1    1    2    0    0 -0.55648021369E+02 -0.46383126374E+02  0.49661535270E+02  0.11908644228E+03  0.80419002446E+02 0.  0.
          1    1    1    2  501    0  0.10227893192E+03  0.77655069999E+02  0.10141704651E+03  0.16363589807E+03  0.00000000000E+00 0. -1.
         -2    1    1    2    0  503 -0.46630910555E+02 -0.31271943624E+02  0.37223504261E+02  0.67364423449E+02  0.00000000000E+00 0.  1.
<mgrwt>
<rscale>  2 0.14640087E+03</rscale>
<asrwt>0</asrwt>
<pdfrwt beam="1">  1       21 0.41414527E-01 0.14640087E+03</pdfrwt>
<pdfrwt beam="2">  1       21 0.12444975E-01 0.14640087E+03</pdfrwt>
<totfact> 0.31174545E+05</totfact>
</mgrwt>
</event>
<event>
 5    1  0.1721815E-001  0.1422599E+03  0.7546771E-02  0.1210320E+00
         21   -1    0    0  501  502  0.00000000000E+00  0.00000000000E+00  0.72749692830E+03  0.72749692830E+03  0.00000000000E+00 0.  1.
         21   -1    0    0  502  503 -0.00000000000E+00 -0.00000000000E+00 -0.28331281931E+02  0.28331281931E+02  0.00000000000E+00 0. -1.
         24    1    1    2    0    0  0.29667929419E+02 -0.25229662644E+02  0.17991250293E+03  0.20087918404E+03  0.80419002446E+02 0. -1.
          1    1    1    2  501    0 -0.51660787947E+02  0.10252426119E+03  0.28288960799E+03  0.30529754577E+03  0.00000000000E+00 0. -1.
         -2    1    1    2    0  503  0.21992858528E+02 -0.77294598546E+02  0.23636353544E+03  0.24965148042E+03  0.00000000000E+00 0.  1.
<mgrwt>
<rscale>  2 0.14225994E+03</rscale>
<asrwt>0</asrwt>
<pdfrwt beam="1">  1       21 0.11192259E+00 0.14225994E+03</pdfrwt>
<pdfrwt beam="2">  1       21 0.43586593E-02 0.14225994E+03</pdfrwt>
<totfact> 0.21595100E+05</totfact>
</mgrwt>
</event>
<event>
 5    1  0.1721815E-001  0.1234563E+03  0.7546771E-02  0.1237502E+00
         21   -1    0    0  501  502  0.00000000000E+00  0.00000000000E+00  0.15740685803E+03  0.15740685803E+03  0.00000000000E+00 0. -1.
         21   -1    0    0  502  503 -0.00000000000E+00 -0.00000000000E+00 -0.97435812464E+02  0.97435812464E+02  0.00000000000E+00 0.  1.
         24    1    1    2    0    0 -0.25099434682E+02  0.15498431122E+02  0.12519908262E+02  0.86568741737E+02  0.80419002446E+02 0.  1.
          1    1    1    2  501    0  0.50969941014E+02  0.61587077970E+02  0.19432961729E+02  0.82271155707E+02  0.00000000000E+00 0. -1.
         -2    1    1    2    0  503 -0.25870506332E+02 -0.77085509092E+02  0.28018175576E+02  0.86002773051E+02  0.00000000000E+00 0.  1.
<mgrwt>
<rscale>  2 0.12345631E+03</rscale>
<asrwt>0</asrwt>
<pdfrwt beam="1">  1       21 0.24216440E-01 0.12345631E+03</pdfrwt>
<pdfrwt beam="2">  1       21 0.14990125E-01 0.12345631E+03</pdfrwt>
<totfact> 0.63568891E+05</totfact>
</mgrwt>
</event>
<event>
 5    1  0.1721815E-001  0.8097166E+02  0.7546771E-02  0.1326316E+00
         21   -1    0    0  501  502  0.00000000000E+00  0.00000000000E+00  0.55835765315E+01  0.55835765315E+01  0.00000000000E+00 0.  1.
         21   -1    0    0  502  503 -0.00000000000E+00 -0.00000000000E+00 -0.12184760176E+04  0.12184760176E+04  0.00000000000E+00 0. -1.
         24    1    1    2    0    0  0.76968000123E+01 -0.24728993679E+02 -0.74682163650E+03  0.75158534882E+03  0.80419002446E+02 0. -1.
          1    1    1    2  501    0 -0.34805211520E+02 -0.72310067349E+01 -0.20415396577E+03  0.20722579943E+03  0.00000000000E+00 0. -1.
         -2    1    1    2    0  503  0.27108411508E+02  0.31960000414E+02 -0.26191683884E+03  0.26524844593E+03  0.00000000000E+00 0.  1.
<mgrwt>
<rscale>  2 0.80971655E+02</rscale>
<asrwt>0</asrwt>
<pdfrwt beam="1">  1       21 0.85901184E-03 0.80971655E+02</pdfrwt>
<pdfrwt beam="2">  1       21 0.18745783E+00 0.80971655E+02</pdfrwt>
<totfact> 0.80063461E+05</totfact>
</mgrwt>
</event>
<event>
 5    1  0.1721815E-001  0.1219889E+03  0.7546771E-02  0.1239852E+00
         21   -1    0    0  501  502  0.00000000000E+00  0.00000000000E+00  0.11784003091E+04  0.11784003091E+04  0.00000000000E+00 0. -1.
         21   -1    0    0  502  503 -0.00000000000E+00 -0.00000000000E+00 -0.12933989025E+02  0.12933989025E+02  0.00000000000E+00 0.  1.
         24    1    1    2    0    0 -0.50118188682E+02 -0.21402464146E+02  0.37808399010E+03  0.39036472412E+03  0.80419002446E+02 0.  1.
          1    1    1    2  501    0  0.93953652359E+02  0.36024332756E+02  0.55114736135E+03  0.56025749015E+03  0.00000000000E+00 0. -1.
         -2    1    1    2    0  503 -0.43835463677E+02 -0.14621868610E+02  0.23623496865E+03  0.24071208388E+03  0.00000000000E+00 0.  1.
<mgrwt>
<rscale>  2 0.12198894E+03</rscale>
<asrwt>0</asrwt>
<pdfrwt beam="1">  1       21 0.18129227E+00 0.12198894E+03</pdfrwt>
<pdfrwt beam="2">  1       21 0.19898454E-02 0.12198894E+03</pdfrwt>
<totfact> 0.22859849E+05</totfact>
</mgrwt>
</event>
<event>
 5    1  0.1721815E-001  0.1105806E+03  0.7546771E-02  0.1259498E+00
         21   -1    0    0  503  502  0.00000000000E+00  0.00000000000E+00  0.22589292901E+03  0.22589292901E+03  0.00000000000E+00 0.  1.
         21   -1    0    0  501  503 -0.00000000000E+00 -0.00000000000E+00 -0.86920899281E+02  0.86920899281E+02  0.00000000000E+00 0.  1.
         24    1    1    2    0    0 -0.15129781777E+02  0.49854075550E+02 -0.25747571971E+02  0.99219416257E+02  0.80419002446E+02 0.  1.
          1    1    1    2  501    0  0.64830459334E+02 -0.22592079612E+02  0.47793290469E+02  0.83651593724E+02  0.00000000000E+00 0. -1.
         -2    1    1    2    0  502 -0.49700677557E+02 -0.27261995939E+02  0.11692631123E+03  0.12994281831E+03  0.00000000000E+00 0.  1.
<mgrwt>
<rscale>  2 0.11058060E+03</rscale>
<asrwt>0</asrwt>
<pdfrwt beam="1">  1       21 0.34752758E-01 0.11058060E+03</pdfrwt>
<pdfrwt beam="2">  1       21 0.13372446E-01 0.11058060E+03</pdfrwt>
<totfact> 0.39059186E+05</totfact>
</mgrwt>
</event>
<event>
 5    1  0.1721815E-001  0.8337762E+02  0.7546771E-02  0.1319731E+00
         21   -1    0    0  503  502  0.00000000000E+00  0.00000000000E+00  0.16114088733E+03  0.16114088733E+03  0.00000000000E+00 0.  1.
         21   -1    0    0  501  503 -0.00000000000E+00 -0.00000000000E+00 -0.18252491665E+03  0.18252491665E+03  0.00000000000E+00 0.  1.
         24    1    1    2    0    0 -0.10233162819E+02  0.36769405595E+02 -0.14481295680E+03  0.16998445582E+03  0.80419002446E+02 0.  1.
          1    1    1    2  501    0  0.31955422599E+02  0.33354227233E+01 -0.92072562140E+01  0.33422262718E+02  0.00000000000E+00 0. -1.
         -2    1    1    2    0  502 -0.21722259779E+02 -0.40104828318E+02  0.13263618369E+03  0.14025908544E+03  0.00000000000E+00 0.  1.
<mgrwt>
<rscale>  2 0.83377620E+02</rscale>
<asrwt>0</asrwt>
<pdfrwt beam="1">  1       21 0.24790906E-01 0.83377620E+02</pdfrwt>
<pdfrwt beam="2">  1       21 0.28080756E-01 0.83377620E+02</pdfrwt>
<totfact> 0.19242291E+05</totfact>
</mgrwt>
</event>
<event>
 5    1  0.1721815E-001  0.1294960E+03  0.7546771E-02  0.1228206E+00
         21   -1    0    0  503  502  0.00000000000E+00  0.00000000000E+00  0.13539778491E+04  0.13539778491E+04  0.00000000000E+00 0. -1.
         21   -1    0    0  501  503 -0.00000000000E+00 -0.00000000000E+00 -0.15550346603E+02  0.15550346603E+02  0.00000000000E+00 0.  1.
         24    1    1    2    0    0 -0.67220891622E+02 -0.66534287482E+02  0.43666457182E+03  0.45396984913E+03  0.80419002446E+02 0.  1.
          1    1    1    2  501    0  0.74430855567E+02  0.86206372378E+02  0.48201136515E+03  0.49528420834E+03  0.00000000000E+00 0. -1.
         -2    1    1    2    0  502 -0.72099639453E+01 -0.19672084896E+02  0.41975156550E+03  0.42027413820E+03  0.00000000000E+00 0.  1.
<mgrwt>
<rscale>  2 0.12949598E+03</rscale>
<asrwt>0</asrwt>
<pdfrwt beam="1">  1       21 0.20830419E+00 0.12949598E+03</pdfrwt>
<pdfrwt beam="2">  1       21 0.23923621E-02 0.12949598E+03</pdfrwt>
<totfact> 0.11361495E+05</totfact>
</mgrwt>
</event>
<event>
 5    1  0.1721815E-001  0.1512751E+03  0.7546771E-02  0.1198915E+00
         21   -1    0    0  501  502  0.00000000000E+00  0.00000000000E+00  0.69815491893E+02  0.69815491893E+02  0.00000000000E+00 0. -1.
         21   -1    0    0  502  503 -0.00000000000E+00 -0.00000000000E+00 -0.48007017051E+03  0.48007017051E+03  0.00000000000E+00 0.  1.
         24    1    1    2    0    0 -0.24330955553E+02  0.65736589388E+01 -0.23375199994E+03  0.24848022420E+03  0.80419002446E+02 0.  1.
          1    1    1    2  501    0  0.10141701909E+03  0.58774178172E+02 -0.25908491687E+02  0.12004609832E+03  0.00000000000E+00 0. -1.
         -2    1    1    2    0  503 -0.77086063535E+02 -0.65347837110E+02 -0.15059418699E+03  0.18135933988E+03  0.00000000000E+00 0.  1.
<mgrwt>
<rscale>  2 0.15127513E+03</rscale>
<asrwt>0</asrwt>
<pdfrwt beam="1">  1       21 0.10740845E-01 0.15127513E+03</pdfrwt>
<pdfrwt beam="2">  1       21 0.73856952E-01 0.15127513E+03</pdfrwt>
<totfact> 0.11947731E+05</totfact>
</mgrwt>
</event>
<event>
 5    1  0.1721815E-001  0.7991255E+02  0.7546771E-02  0.1329300E+00
         21   -1    0    0  503  502  0.00000000000E+00  0.00000000000E+00  0.75511438144E+01  0.75511438144E+01  0.00000000000E+00 0. -1.
         21   -1    0    0  501  503 -0.00000000000E+00 -0.00000000000E+00 -0.10024180486E+04  0.10024180486E+04  0.00000000000E+00 0.  1.
         24    1    1    2    0    0 -0.66982138874E+01 -0.26594397151E+01 -0.70141113101E+03  0.70604300814E+03  0.80419002446E+02 0.  0.
          1    1    1    2  501    0 -0.27464603683E+02  0.25911680487E+02 -0.14157933997E+03  0.14652791252E+03  0.00000000000E+00 0. -1.
         -2    1    1    2    0  502  0.34162817570E+02 -0.23252240772E+02 -0.15187643386E+03  0.15739827180E+03  0.00000000000E+00 0.  1.
<mgrwt>
<rscale>  2 0.79912548E+02</rscale>
<asrwt>0</asrwt>
<pdfrwt beam="1">  1       21 0.11617146E-02 0.79912548E+02</pdfrwt>
<pdfrwt beam="2">  1       21 0.15421814E+00 0.79912548E+02</pdfrwt>
<totfact> 0.83845296E+05</totfact>
</mgrwt>
</event>
<event>
 5    1  0.1721815E-001  0.1095990E+03  0.7546771E-02  0.1261314E+00
         21   -1    0    0  503  502  0.00000000000E+00  0.00000000000E+00  0.29953275194E+03  0.29953275194E+03  0.00000000000E+00 0.  1.
         21   -1    0    0  501  503 -0.00000000000E+00 -0.00000000000E+00 -0.12741971899E+03  0.12741971899E+03  0.00000000000E+00 0.  1.
         24    1    1    2    0    0 -0.74913097176E+02 -0.49095028109E+01 -0.82148384019E+02  0.13730130479E+03  0.80419002446E+02 0.  1.
          1    1    1    2  501    0 -0.77877634838E+01 -0.21097799267E+02  0.16181614075E+01  0.22547390987E+02  0.00000000000E+00 0. -1.
         -2    1    1    2    0  502  0.82700860660E+02  0.26007302078E+02  0.25264325556E+03  0.26710377515E+03  0.00000000000E+00 0.  1.
<mgrwt>
<rscale>  2 0.10959900E+03</rscale>
<asrwt>0</asrwt>
<pdfrwt beam="1">  1       21 0.46081962E-01 0.10959900E+03</pdfrwt>
<pdfrwt beam="2">  1       21 0.19603034E-01 0.10959900E+03</pdfrwt>
<totfact> 0.11161376E+05</totfact>
</mgrwt>
</event>
<event>
 5    1  0.1721815E-001  0.1004387E+03  0.7546771E-02  0.1279376E+00
         21   -1    0    0  503  502  0.00000000000E+00  0.00000000000E+00  0.31496698865E+03  0.31496698865E+03  0.00000000000E+00 0. -1.
         21   -1    0    0  501  503 -0.00000000000E+00 -0.00000000000E+00 -0.12923338997E+03  0.12923338997E+03  0.00000000000E+00 0.  1.
         24    1    1    2    0    0  0.17793944939E+02  0.54648324747E+02 -0.99825688886E+02  0.14048290996E+03  0.80419002446E+02 0.  1.
          1    1    1    2  501    0 -0.19221901627E+02 -0.77138474730E+02  0.19948209587E+03  0.21473921942E+03  0.00000000000E+00 0. -1.
         -2    1    1    2    0  502  0.14279566881E+01  0.22490149983E+02  0.86077191700E+02  0.88978249238E+02  0.00000000000E+00 0.  1.
<mgrwt>
<rscale>  2 0.10043875E+03</rscale>
<asrwt>0</asrwt>
<pdfrwt beam="1">  1       21 0.48456460E-01 0.10043875E+03</pdfrwt>
<pdfrwt beam="2">  1       21 0.19882060E-01 0.10043875E+03</pdfrwt>
<totfact> 0.98600157E+04</totfact>
</mgrwt>
</event>
<event>
 5    1  0.1721815E-001  0.1212486E+03  0.7546771E-02  0.1241051E+00
         21   -1    0    0  503  502  0.00000000000E+00  0.00000000000E+00  0.26371176352E+02  0.26371176352E+02  0.00000000000E+00 0.  1.
         21   -1    0    0  501  503 -0.00000000000E+00 -0.00000000000E+00 -0.58623711923E+03  0.58623711923E+03  0.00000000000E+00 0. -1.
         24    1    1    2    0    0 -0.30370799843E+02 -0.87123188389E+02 -0.33934222672E+03  0.36073979296E+03  0.80419002446E+02 0. -1.
          1    1    1    2  501    0 -0.22191867236E+02  0.52399063093E+01 -0.59624919177E+02  0.63836248138E+02  0.00000000000E+00 0. -1.
         -2    1    1    2    0  502  0.52562667078E+02  0.81883282080E+02 -0.16089879698E+03  0.18803225448E+03  0.00000000000E+00 0.  1.
<mgrwt>
<rscale>  2 0.12124863E+03</rscale>
<asrwt>0</asrwt>
<pdfrwt beam="1">  1       21 0.40571042E-02 0.12124863E+03</pdfrwt>
<pdfrwt beam="2">  1       21 0.90190324E-01 0.12124863E+03</pdfrwt>
<totfact> 0.40583663E+05</totfact>
</mgrwt>
</event>
<event>
 5    1  0.1721815E-001  0.7719557E+02  0.7546771E-02  0.1337204E+00
         21   -1    0    0  503  502  0.00000000000E+00  0.00000000000E+00  0.66999814222E+03  0.66999814222E+03  0.00000000000E+00 0.  1.
         21   -1    0    0  501  503 -0.00000000000E+00 -0.00000000000E+00 -0.44181164446E+02  0.44181164446E+02  0.00000000000E+00 0.  1.
         24    1    1    2    0    0  0.33696463248E+01  0.19386906556E+02 -0.14842204051E+01  0.82804743383E+02  0.80419002446E+02 0.  1.
          1    1    1    2  501    0 -0.34553223632E+02  0.60395516526E+00  0.29956964040E+03  0.30155639518E+03  0.00000000000E+00 0. -1.
         -2    1    1    2    0  502  0.31183577307E+02 -0.19990861721E+02  0.32773155778E+03  0.32981816810E+03  0.00000000000E+00 0.  1.
<mgrwt>
<rscale>  2 0.77195568E+02</rscale>
<asrwt>0</asrwt>
<pdfrwt beam="1">  1       21 0.10307663E+00 0.77195568E+02</pdfrwt>
<pdfrwt beam="2">  1       21 0.67971027E-02 0.77195568E+02</pdfrwt>
<totfact> 0.12782695E+05</totfact>
</mgrwt>
</event>
<event>
 5    1  0.1721815E-001  0.2077334E+03  0.7546771E-02  0.1143374E+00
         21   -1    0    0  501  502  0.00000000000E+00  0.00000000000E+00  0.10955758473E+03  0.10955758473E+03  0.00000000000E+00 0. -1.
         21   -1    0    0  502  503 -0.00000000000E+00 -0.00000000000E+00 -0.46741151969E+03  0.46741151969E+03  0.00000000000E+00 0.  1.
         24    1    1    2    0    0  0.15148081087E+03  0.13558566847E+02 -0.23925232734E+03  0.29468485352E+03  0.80419002446E+02 0.  0.
          1    1    1    2  501    0 -0.19651421771E+03 -0.21544232769E+02 -0.57351901836E+02  0.20584273699E+03  0.00000000000E+00 0. -1.
         -2    1    1    2    0  503  0.45033406836E+02  0.79856659223E+01 -0.61249705780E+02  0.76441513915E+02  0.00000000000E+00 0.  1.
<mgrwt>
<rscale>  2 0.20773341E+03</rscale>
<asrwt>0</asrwt>
<pdfrwt beam="1">  1       21 0.16855013E-01 0.20773341E+03</pdfrwt>
<pdfrwt beam="2">  1       21 0.71909464E-01 0.20773341E+03</pdfrwt>
<totfact> 0.54931333E+04</totfact>
</mgrwt>
</event>
<event>
 5    1  0.1721815E-001  0.1449906E+03  0.7546771E-02  0.1206767E+00
         21   -1    0    0  501  502  0.00000000000E+00  0.00000000000E+00  0.19264733793E+04  0.19264733793E+04  0.00000000000E+00 0.  1.
         21   -1    0    0  502  503 -0.00000000000E+00 -0.00000000000E+00 -0.11367146281E+02  0.11367146281E+02  0.00000000000E+00 0. -1.
         24    1    1    2    0    0 -0.20081558220E+02  0.38560593553E+02  0.46708751333E+03  0.47594973413E+03  0.80419002446E+02 0.  1.
          1    1    1    2  501    0 -0.87333729856E+02 -0.15473717564E+02  0.75949032884E+03  0.76465166966E+03  0.00000000000E+00 0. -1.
         -2    1    1    2    0  503  0.10741528808E+03 -0.23086875989E+02  0.68852839080E+03  0.69723912175E+03  0.00000000000E+00 0.  1.
<mgrwt>
<rscale>  2 0.14499055E+03</rscale>
<asrwt>0</asrwt>
<pdfrwt beam="1">  1       21 0.29638026E+00 0.14499055E+03</pdfrwt>
<pdfrwt beam="2">  1       21 0.17487933E-02 0.14499055E+03</pdfrwt>
<totfact> 0.57382491E+04</totfact>
</mgrwt>
</event>
<event>
 5    1  0.1721815E-001  0.7622493E+02  0.7546771E-02  0.1340119E+00
         21   -1    0    0  503  502  0.00000000000E+00  0.00000000000E+00  0.22198318113E+02  0.22198318113E+02  0.00000000000E+00 0.  1.
         21   -1    0    0  501  503 -0.00000000000E+00 -0.00000000000E+00 -0.68963087247E+03  0.68963087247E+03  0.00000000000E+00 0. -1.
         24    1    1    2    0    0 -0.14056780344E+02 -0.12679191952E+02 -0.60499133981E+03  0.61060633159E+03  0.80419002446E+02 0. -1.
          1    1    1    2  501    0 -0.26184794607E+02 -0.35845257876E+01 -0.49191525712E+02  0.55841727191E+02  0.00000000000E+00 0. -1.
         -2    1    1    2    0  502  0.40241574952E+02  0.16263717739E+02 -0.13249688837E+02  0.45381131801E+02  0.00000000000E+00 0.  1.
<mgrwt>
<rscale>  2 0.76224927E+02</rscale>
<asrwt>0</asrwt>
<pdfrwt beam="1">  1       21 0.34151265E-02 0.76224927E+02</pdfrwt>
<pdfrwt beam="2">  1       21 0.10609704E+00 0.76224927E+02</pdfrwt>
<totfact> 0.37340462E+05</totfact>
</mgrwt>
</event>
<event>
 5    1  0.1721815E-001  0.9545437E+02  0.7546771E-02  0.1290156E+00
         21   -1    0    0  501  502  0.00000000000E+00  0.00000000000E+00  0.16530779119E+03  0.16530779119E+03  0.00000000000E+00 0.  1.
         21   -1    0    0  502  503 -0.00000000000E+00 -0.00000000000E+00 -0.13901787942E+03  0.13901787942E+03  0.00000000000E+00 0. -1.
         24    1    1    2    0    0 -0.18623469726E+00 -0.30048566100E+02 -0.94938022990E+02  0.12799763737E+03  0.80419002446E+02 0. -1.
          1    1    1    2  501    0 -0.33164116111E+02 -0.24424552937E+02  0.10140620631E+03  0.10945152380E+03  0.00000000000E+00 0. -1.
         -2    1    1    2    0  503  0.33350350808E+02  0.54473119037E+02  0.19821728440E+02  0.66876509441E+02  0.00000000000E+00 0.  1.
<mgrwt>
<rscale>  2 0.95454375E+02</rscale>
<asrwt>0</asrwt>
<pdfrwt beam="1">  1       21 0.25431968E-01 0.95454375E+02</pdfrwt>
<pdfrwt beam="2">  1       21 0.21387366E-01 0.95454375E+02</pdfrwt>
<totfact> 0.30413418E+05</totfact>
</mgrwt>
</event>
<event>
 5    1  0.1721815E-001  0.1185478E+03  0.7546771E-02  0.1245512E+00
         21   -1    0    0  501  502  0.00000000000E+00  0.00000000000E+00  0.73536979490E+03  0.73536979490E+03  0.00000000000E+00 0. -1.
         21   -1    0    0  502  503 -0.00000000000E+00 -0.00000000000E+00 -0.83652555476E+02  0.83652555476E+02  0.00000000000E+00 0.  1.
         24    1    1    2    0    0  0.51118482059E+02  0.11092493192E+02 -0.27733243765E+02  0.99862362166E+02  0.80419002446E+02 0.  1.
          1    1    1    2  501    0 -0.71244959747E+02  0.43158399110E+02  0.64794057211E+03  0.65327289603E+03  0.00000000000E+00 0. -1.
         -2    1    1    2    0  503  0.20126477688E+02 -0.54250892302E+02  0.31509911080E+02  0.65887092180E+02  0.00000000000E+00 0.  1.
<mgrwt>
<rscale>  2 0.11854784E+03</rscale>
<asrwt>0</asrwt>
<pdfrwt beam="1">  1       21 0.11313381E+00 0.11854784E+03</pdfrwt>
<pdfrwt beam="2">  1       21 0.12869624E-01 0.11854784E+03</pdfrwt>
<totfact> 0.33083133E+04</totfact>
</mgrwt>
</event>
<event>
 5    1  0.1721815E-001  0.1976007E+03  0.7546771E-02  0.1151779E+00
         21   -1    0    0  503  502  0.00000000000E+00  0.00000000000E+00  0.76248963194E+03  0.76248963194E+03  0.00000000000E+00 0. -1.
         21   -1    0    0  501  503 -0.00000000000E+00 -0.00000000000E+00 -0.62348368224E+02  0.62348368224E+02  0.00000000000E+00 0.  1.
         24    1    1    2    0    0 -0.11855310906E+03  0.14058803658E+03  0.18030558931E+03  0.26980948313E+03  0.80419002446E+02 0.  1.
          1    1    1    2  501    0  0.11461919014E+03 -0.95400907311E+02  0.39647873019E+03  0.42359683115E+03  0.00000000000E+00 0. -1.
         -2    1    1    2    0  502  0.39339189203E+01 -0.45187129266E+02  0.12335694422E+03  0.13143168589E+03  0.00000000000E+00 0.  1.
<mgrwt>
<rscale>  2 0.19760075E+03</rscale>
<asrwt>0</asrwt>
<pdfrwt beam="1">  1       21 0.11730609E+00 0.19760075E+03</pdfrwt>
<pdfrwt beam="2">  1       21 0.95920572E-02 0.19760075E+03</pdfrwt>
<totfact> 0.48647574E+04</totfact>
</mgrwt>
</event>
<event>
 5    1  0.1721815E-001  0.1138369E+03  0.7546771E-02  0.1253625E+00
         21   -1    0    0  503  502  0.00000000000E+00  0.00000000000E+00  0.86092893687E+02  0.86092893687E+02  0.00000000000E+00 0.  1.
         21   -1    0    0  501  503 -0.00000000000E+00 -0.00000000000E+00 -0.28363997540E+03  0.28363997540E+03  0.00000000000E+00 0. -1.
         24    1    1    2    0    0  0.28478900165E+02 -0.10171196992E+02 -0.17820577843E+03  0.19783583200E+03  0.80419002446E+02 0. -1.
          1    1    1    2  501    0 -0.80171625266E+02 -0.19012249962E+02 -0.58262713292E+02  0.10091332373E+03  0.00000000000E+00 0. -1.
         -2    1    1    2    0  502  0.51692725101E+02  0.29183446954E+02  0.38921410011E+02  0.70983713355E+02  0.00000000000E+00 0.  1.
<mgrwt>
<rscale>  2 0.11383687E+03</rscale>
<asrwt>0</asrwt>
<pdfrwt beam="1">  1       21 0.13245060E-01 0.11383687E+03</pdfrwt>
<pdfrwt beam="2">  1       21 0.43636920E-01 0.11383687E+03</pdfrwt>
<totfact> 0.25273483E+05</totfact>
</mgrwt>
</event>
<event>
 5    1  0.1721815E-001  0.1656537E+03  0.7546771E-02  0.1182458E+00
         21   -1    0    0  503  502  0.00000000000E+00  0.00000000000E+00  0.78992955367E+02  0.78992955367E+02  0.00000000000E+00 0. -1.
         21   -1    0    0  501  503 -0.00000000000E+00 -0.00000000000E+00 -0.35660569170E+03  0.35660569170E+03  0.00000000000E+00 0.  1.
         24    1    1    2    0    0  0.63521101315E+02  0.71012881723E+02 -0.96291676507E+02  0.15753432198E+03  0.80419002446E+02 0.  0.
          1    1    1    2  501    0  0.58459583880E+02  0.11207470982E+02 -0.78821636967E+02  0.98772368643E+02  0.00000000000E+00 0. -1.
         -2    1    1    2    0  502 -0.12198068520E+03 -0.82220352705E+02 -0.10249942286E+03  0.17929195645E+03  0.00000000000E+00 0.  1.
<mgrwt>
<rscale>  2 0.16565365E+03</rscale>
<asrwt>0</asrwt>
<pdfrwt beam="1">  1       21 0.12152762E-01 0.16565365E+03</pdfrwt>
<pdfrwt beam="2">  1       21 0.54862414E-01 0.16565365E+03</pdfrwt>
<totfact> 0.18141679E+05</totfact>
</mgrwt>
</event>
<event>
 5    1  0.1721815E-001  0.1015938E+03  0.7546771E-02  0.1276980E+00
         21   -1    0    0  503  502  0.00000000000E+00  0.00000000000E+00  0.88029788447E+01  0.88029788447E+01  0.00000000000E+00 0.  1.
         21   -1    0    0  501  503 -0.00000000000E+00 -0.00000000000E+00 -0.21042826702E+04  0.21042826702E+04  0.00000000000E+00 0.  1.
         24    1    1    2    0    0  0.77695590011E+02  0.31447623103E+02 -0.18299062528E+04  0.18335892855E+04  0.80419002446E+02 0.  1.
          1    1    1    2  501    0 -0.14508210042E+02 -0.16741317805E+02 -0.62338152670E+02  0.66157427087E+02  0.00000000000E+00 0. -1.
         -2    1    1    2    0  502 -0.63187379969E+02 -0.14706305298E+02 -0.20323528584E+03  0.21333893647E+03  0.00000000000E+00 0.  1.
<mgrwt>
<rscale>  2 0.10159385E+03</rscale>
<asrwt>0</asrwt>
<pdfrwt beam="1">  1       21 0.13543032E-02 0.10159385E+03</pdfrwt>
<pdfrwt beam="2">  1       21 0.32373608E+00 0.10159385E+03</pdfrwt>
<totfact> 0.64152690E+04</totfact>
</mgrwt>
</event>
<event>
 5    1  0.1721815E-001  0.1292301E+03  0.7546771E-02  0.1228603E+00
         21   -1    0    0  503  502  0.00000000000E+00  0.00000000000E+00  0.38614080078E+03  0.38614080078E+03  0.00000000000E+00 0.  1.
         21   -1    0    0  501  503 -0.00000000000E+00 -0.00000000000E+00 -0.16595277595E+03  0.16595277595E+03  0.00000000000E+00 0. -1.
         24    1    1    2    0    0  0.37549408207E+02 -0.28061576859E+02 -0.62810223867E+02  0.11229314462E+03  0.80419002446E+02 0.  0.
          1    1    1    2  501    0 -0.79329975642E+00 -0.65162743382E+02 -0.56234596574E+02  0.86076374816E+02  0.00000000000E+00 0. -1.
         -2    1    1    2    0  502 -0.36756108450E+02  0.93224320241E+02  0.33923284527E+03  0.35372405729E+03  0.00000000000E+00 0.  1.
<mgrwt>
<rscale>  2 0.12923013E+03</rscale>
<asrwt>0</asrwt>
<pdfrwt beam="1">  1       21 0.59406277E-01 0.12923013E+03</pdfrwt>
<pdfrwt beam="2">  1       21 0.25531196E-01 0.12923013E+03</pdfrwt>
<totfact> 0.39857732E+04</totfact>
</mgrwt>
</event>
<event>
 5    1  0.1721815E-001  0.7269777E+02  0.7546771E-02  0.1351152E+00
         21   -1    0    0  501  502  0.00000000000E+00  0.00000000000E+00  0.15373346156E+03  0.15373346156E+03  0.00000000000E+00 0. -1.
         21   -1    0    0  502  503 -0.00000000000E+00 -0.00000000000E+00 -0.40909106701E+02  0.40909106701E+02  0.00000000000E+00 0. -1.
         24    1    1    2    0    0  0.24176698783E+02 -0.83170828010E+01  0.33008171592E+02  0.90611489209E+02  0.80419002446E+02 0.  0.
          1    1    1    2  501    0 -0.13380939214E+00 -0.22177201387E+02  0.51190251152E+02  0.55787883804E+02  0.00000000000E+00 0. -1.
         -2    1    1    2    0  503 -0.24042889391E+02  0.30494284188E+02  0.28625932118E+02  0.48243195251E+02  0.00000000000E+00 0.  1.
<mgrwt>
<rscale>  2 0.72697765E+02</rscale>
<asrwt>0</asrwt>
<pdfrwt beam="1">  1       21 0.23651301E-01 0.72697765E+02</pdfrwt>
<pdfrwt beam="2">  1       21 0.62937088E-02 0.72697765E+02</pdfrwt>
<totfact> 0.29477979E+06</totfact>
</mgrwt>
</event>
<event>
 5    1  0.1721815E-001  0.1031687E+03  0.7546771E-02  0.1273770E+00
         21   -1    0    0  501  502  0.00000000000E+00  0.00000000000E+00  0.20997025880E+02  0.20997025880E+02  0.00000000000E+00 0.  1.
         21   -1    0    0  502  503 -0.00000000000E+00 -0.00000000000E+00 -0.54611821307E+03  0.54611821307E+03  0.00000000000E+00 0. -1.
         24    1    1    2    0    0  0.61731334135E+01 -0.15301298793E+02 -0.26766259013E+03  0.27996913299E+03  0.80419002446E+02 0.  0.
          1    1    1    2  501    0 -0.33845918145E+02  0.61610915634E+02 -0.11461389849E+03  0.13445369771E+03  0.00000000000E+00 0. -1.
         -2    1    1    2    0  503  0.27672784731E+02 -0.46309616841E+02 -0.14284469857E+03  0.15269240825E+03  0.00000000000E+00 0.  1.
<mgrwt>
<rscale>  2 0.10316871E+03</rscale>
<asrwt>0</asrwt>
<pdfrwt beam="1">  1       21 0.32303120E-02 0.10316871E+03</pdfrwt>
<pdfrwt beam="2">  1       21 0.84018179E-01 0.10316871E+03</pdfrwt>
<totfact> 0.69484613E+05</totfact>
</mgrwt>
</event>
<event>
 5    1  0.1721815E-001  0.1677752E+03  0.7546771E-02  0.1180188E+00
         21   -1    0    0  503  502  0.00000000000E+00  0.00000000000E+00  0.33513310114E+03  0.33513310114E+03  0.00000000000E+00 0.  1.
         21   -1    0    0  501  503 -0.00000000000E+00 -0.00000000000E+00 -0.13287008883E+03  0.13287008883E+03  0.00000000000E+00 0. -1.
         24    1    1    2    0    0  0.39599173148E+02 -0.93025006899E+02 -0.47722210083E+02  0.13771845088E+03  0.80419002446E+02 0. -1.
          1    1    1    2  501    0  0.64707661844E+02  0.77413947542E+02  0.74031732840E+02  0.12514271150E+03  0.00000000000E+00 0. -1.
         -2    1    1    2    0  502 -0.10430683499E+03  0.15611059358E+02  0.17595348955E+03  0.20514202760E+03  0.00000000000E+00 0.  1.
<mgrwt>
<rscale>  2 0.16777517E+03</rscale>
<asrwt>0</asrwt>
<pdfrwt beam="1">  1       21 0.51558938E-01 0.16777517E+03</pdfrwt>
<pdfrwt beam="2">  1       21 0.20441552E-01 0.16777517E+03</pdfrwt>
<totfact> 0.80022379E+04</totfact>
</mgrwt>
</event>
<event>
 5    1  0.1721815E-001  0.7094073E+02  0.7546771E-02  0.1356923E+00
         21   -1    0    0  503  502  0.00000000000E+00  0.00000000000E+00  0.81246038259E+02  0.81246038259E+02  0.00000000000E+00 0. -1.
         21   -1    0    0  501  503 -0.00000000000E+00 -0.00000000000E+00 -0.11369913308E+03  0.11369913308E+03  0.00000000000E+00 0.  1.
         24    1    1    2    0    0  0.17022986932E+02 -0.18258921905E+02 -0.78471065119E+02  0.11510036633E+03  0.80419002446E+02 0.  1.
          1    1    1    2  501    0 -0.31524993265E+02 -0.32969971792E+01  0.61951218275E+01  0.32296670498E+02  0.00000000000E+00 0. -1.
         -2    1    1    2    0  502  0.14502006333E+02  0.21555919084E+02  0.39822848472E+02  0.47548134513E+02  0.00000000000E+00 0.  1.
<mgrwt>
<rscale>  2 0.70940733E+02</rscale>
<asrwt>0</asrwt>
<pdfrwt beam="1">  1       21 0.12499391E-01 0.70940733E+02</pdfrwt>
<pdfrwt beam="2">  1       21 0.17492174E-01 0.70940733E+02</pdfrwt>
<totfact> 0.15787460E+06</totfact>
</mgrwt>
</event>
<event>
 5    1  0.1721815E-001  0.9641795E+02  0.7546771E-02  0.1288014E+00
         21   -1    0    0  501  502  0.00000000000E+00  0.00000000000E+00  0.33211822322E+03  0.33211822322E+03  0.00000000000E+00 0.  1.
         21   -1    0    0  502  503 -0.00000000000E+00 -0.00000000000E+00 -0.34159221487E+02  0.34159221487E+02  0.00000000000E+00 0.  1.
         24    1    1    2    0    0 -0.15165224811E+02 -0.41503995882E+02  0.67653470449E+02  0.11400339353E+03  0.80419002446E+02 0.  1.
          1    1    1    2  501    0 -0.23076610613E+02  0.55695027323E+02  0.16016313279E+03  0.17113355934E+03  0.00000000000E+00 0. -1.
         -2    1    1    2    0  503  0.38241835425E+02 -0.14191031441E+02  0.70142398497E+02  0.81140491845E+02  0.00000000000E+00 0.  1.
<mgrwt>
<rscale>  2 0.96417946E+02</rscale>
<asrwt>0</asrwt>
<pdfrwt beam="1">  1       21 0.51095109E-01 0.96417946E+02</pdfrwt>
<pdfrwt beam="2">  1       21 0.52552651E-02 0.96417946E+02</pdfrwt>
<totfact> 0.90123270E+05</totfact>
</mgrwt>
</event>
<event>
 5    1  0.1721815E-001  0.1004602E+03  0.7546771E-02  0.1279331E+00
         21   -1    0    0  501  502  0.00000000000E+00  0.00000000000E+00  0.45791313049E+02  0.45791313049E+02  0.00000000000E+00 0. -1.
         21   -1    0    0  502  503 -0.00000000000E+00 -0.00000000000E+00 -0.24239744488E+03  0.24239744488E+03  0.00000000000E+00 0.  1.
         24    1    1    2    0    0 -0.61224886935E+01  0.41605709546E+02 -0.11239590574E+03  0.14445959822E+03  0.80419002446E+02 0.  1.
          1    1    1    2  501    0 -0.47262278963E+02 -0.28532923330E+02 -0.18862210878E+02  0.58340669569E+02  0.00000000000E+00 0. -1.
         -2    1    1    2    0  503  0.53384767657E+02 -0.13072786217E+02 -0.65348015214E+02  0.85388490147E+02  0.00000000000E+00 0.  1.
<mgrwt>
<rscale>  2 0.10046019E+03</rscale>
<asrwt>0</asrwt>
<pdfrwt beam="1">  1       21 0.70448172E-02 0.10046019E+03</pdfrwt>
<pdfrwt beam="2">  1       21 0.37291916E-01 0.10046019E+03</pdfrwt>
<totfact> 0.10356596E+06</totfact>
</mgrwt>
</event>
<event>
 5    1  0.1721815E-001  0.9233287E+02  0.7546771E-02  0.1297299E+00
         21   -1    0    0  503  502  0.00000000000E+00  0.00000000000E+00  0.14503807955E+02  0.14503807955E+02  0.00000000000E+00 0.  1.
         21   -1    0    0  501  503 -0.00000000000E+00 -0.00000000000E+00 -0.18236484385E+04  0.18236484385E+04  0.00000000000E+00 0. -1.
         24    1    1    2    0    0  0.57465110999E+02  0.18779763453E+02 -0.16483490536E+04  0.16514165850E+04  0.80419002446E+02 0. -1.
          1    1    1    2  501    0 -0.49243564388E+02  0.13244964279E+02 -0.13647572435E+03  0.14569138975E+03  0.00000000000E+00 0. -1.
         -2    1    1    2    0  502 -0.82215466108E+01 -0.32024727733E+02 -0.24319852586E+02  0.41044271766E+02  0.00000000000E+00 0.  1.
<mgrwt>
<rscale>  2 0.92332875E+02</rscale>
<asrwt>0</asrwt>
<pdfrwt beam="1">  1       21 0.22313563E-02 0.92332875E+02</pdfrwt>
<pdfrwt beam="2">  1       21 0.28056114E+00 0.92332875E+02</pdfrwt>
<totfact> 0.50826751E+04</totfact>
</mgrwt>
</event>
<event>
 5    1  0.1721815E-001  0.9187680E+02  0.7546771E-02  0.1298369E+00
         21   -1    0    0  501  502  0.00000000000E+00  0.00000000000E+00  0.28116135951E+02  0.28116135951E+02  0.00000000000E+00 0. -1.
         21   -1    0    0  502  503 -0.00000000000E+00 -0.00000000000E+00 -0.49211043384E+03  0.49211043384E+03  0.00000000000E+00 0.  1.
         24    1    1    2    0    0 -0.76765425566E+01  0.38394520865E+02 -0.24999875141E+03  0.26551772106E+03  0.80419002446E+02 0.  1.
          1    1    1    2  501    0 -0.12982161070E+01  0.27638600720E+02  0.28868287029E+01  0.27819263017E+02  0.00000000000E+00 0. -1.
         -2    1    1    2    0  503  0.89747586636E+01 -0.66033121585E+02 -0.21688237519E+03  0.22688958572E+03  0.00000000000E+00 0.  1.
<mgrwt>
<rscale>  2 0.91876803E+02</rscale>
<asrwt>0</asrwt>
<pdfrwt beam="1">  1       21 0.43255595E-02 0.91876803E+02</pdfrwt>
<pdfrwt beam="2">  1       21 0.75709295E-01 0.91876803E+02</pdfrwt>
<totfact> 0.54159297E+05</totfact>
</mgrwt>
</event>
<event>
 5    1  0.1721815E-001  0.1085512E+03  0.7546771E-02  0.1263277E+00
         21   -1    0    0  503  502  0.00000000000E+00  0.00000000000E+00  0.10986553546E+03  0.10986553546E+03  0.00000000000E+00 0.  1.
         21   -1    0    0  501  503 -0.00000000000E+00 -0.00000000000E+00 -0.50530918300E+03  0.50530918300E+03  0.00000000000E+00 0.  1.
         24    1    1    2    0    0 -0.11311816431E+00  0.13862184781E+02 -0.44972677071E+03  0.45707062606E+03  0.80419002446E+02 0.  1.
          1    1    1    2  501    0 -0.62827686947E+02  0.17438681638E+02 -0.60302854299E+01  0.65481220260E+02  0.00000000000E+00 0. -1.
         -2    1    1    2    0  502  0.62940805111E+02 -0.31300866419E+02  0.60313408602E+02  0.92622872142E+02  0.00000000000E+00 0.  1.
<mgrwt>
<rscale>  2 0.10855117E+03</rscale>
<asrwt>0</asrwt>
<pdfrwt beam="1">  1       21 0.16902390E-01 0.10855117E+03</pdfrwt>
<pdfrwt beam="2">  1       21 0.77739875E-01 0.10855117E+03</pdfrwt>
<totfact> 0.48427494E+04</totfact>
</mgrwt>
</event>
<event>
 5    1  0.1721815E-001  0.1203622E+03  0.7546771E-02  0.1242501E+00
         21   -1    0    0  501  502  0.00000000000E+00  0.00000000000E+00  0.62659581772E+03  0.62659581772E+03  0.00000000000E+00 0.  1.
         21   -1    0    0  502  503 -0.00000000000E+00 -0.00000000000E+00 -0.36377564378E+02  0.36377564378E+02  0.00000000000E+00 0. -1.
         24    1    1    2    0    0 -0.10292620656E+03 -0.84947312281E+01  0.11650273501E+03  0.17523146884E+03  0.80419002446E+02 0. -1.
          1    1    1    2  501    0  0.14982493463E+02  0.15563743637E+02  0.17322324032E+03  0.17456516323E+03  0.00000000000E+00 0. -1.
         -2    1    1    2    0  503  0.87943713094E+02 -0.70690124092E+01  0.30049227802E+03  0.31317675003E+03  0.00000000000E+00 0.  1.
<mgrwt>
<rscale>  2 0.12036225E+03</rscale>
<asrwt>0</asrwt>
<pdfrwt beam="1">  1       21 0.96399349E-01 0.12036225E+03</pdfrwt>
<pdfrwt beam="2">  1       21 0.55965488E-02 0.12036225E+03</pdfrwt>
<totfact> 0.20336608E+05</totfact>
</mgrwt>
</event>
<event>
 5    1  0.1721815E-001  0.7530299E+02  0.7546771E-02  0.1342935E+00
         21   -1    0    0  503  502  0.00000000000E+00  0.00000000000E+00  0.51849497762E+02  0.51849497762E+02  0.00000000000E+00 0. -1.
         21   -1    0    0  501  503 -0.00000000000E+00 -0.00000000000E+00 -0.14985535076E+03  0.14985535076E+03  0.00000000000E+00 0. -1.
         24    1    1    2    0    0  0.38986687834E+02  0.29855873385E+02 -0.10488307676E+03  0.14099294574E+03  0.80419002446E+02 0. -1.
          1    1    1    2  501    0 -0.34351425021E+02 -0.96954040966E+01  0.14691488111E+02  0.38598718690E+02  0.00000000000E+00 0. -1.
         -2    1    1    2    0  502 -0.46352628129E+01 -0.20160469288E+02 -0.78142643449E+01  0.22113184088E+02  0.00000000000E+00 0.  1.
<mgrwt>
<rscale>  2 0.75302985E+02</rscale>
<asrwt>0</asrwt>
<pdfrwt beam="1">  1       21 0.79768458E-02 0.75302985E+02</pdfrwt>
<pdfrwt beam="2">  1       21 0.23054669E-01 0.75302985E+02</pdfrwt>
<totfact> 0.20761160E+06</totfact>
</mgrwt>
</event>
<event>
 5    1  0.1721815E-001  0.6673910E+02  0.7546771E-02  0.1371547E+00
         21   -1    0    0  501  502  0.00000000000E+00  0.00000000000E+00  0.17029978396E+02  0.17029978396E+02  0.00000000000E+00 0. -1.
         21   -1    0    0  502  503 -0.00000000000E+00 -0.00000000000E+00 -0.12324183957E+04  0.12324183957E+04  0.00000000000E+00 0. -1.
         24    1    1    2    0    0  0.12496831193E+02  0.19999018856E+02 -0.11685524025E+04  0.11715536970E+04  0.80419002446E+02 0. -1.
          1    1    1    2  501    0 -0.21102468504E+02  0.62828240429E+01  0.16465085542E+01  0.22079380547E+02  0.00000000000E+00 0. -1.
         -2    1    1    2    0  503  0.86056373113E+01 -0.26281842899E+02 -0.48482523275E+02  0.55815296495E+02  0.00000000000E+00 0.  1.
<mgrwt>
<rscale>  2 0.66739098E+02</rscale>
<asrwt>0</asrwt>
<pdfrwt beam="1">  1       21 0.26199966E-02 0.66739098E+02</pdfrwt>
<pdfrwt beam="2">  1       21 0.18960283E+00 0.66739098E+02</pdfrwt>
<totfact> 0.13504747E+05</totfact>
</mgrwt>
</event>
<event>
 5    1  0.1721815E-001  0.1088502E+03  0.7546771E-02  0.1262714E+00
         21   -1    0    0  503  502  0.00000000000E+00  0.00000000000E+00  0.34261668361E+03  0.34261668361E+03  0.00000000000E+00 0.  1.
         21   -1    0    0  501  503 -0.00000000000E+00 -0.00000000000E+00 -0.58066926460E+02  0.58066926460E+02  0.00000000000E+00 0. -1.
         24    1    1    2    0    0 -0.37716244274E+02 -0.85238878598E+02  0.31717168111E+02  0.12712740151E+03  0.80419002446E+02 0. -1.
          1    1    1    2  501    0  0.11853021224E+02  0.46697529868E+02  0.70368467853E+02  0.85281150766E+02  0.00000000000E+00 0. -1.
         -2    1    1    2    0  502  0.25863223050E+02  0.38541348730E+02  0.18246412119E+03  0.18827505780E+03  0.00000000000E+00 0.  1.
<mgrwt>
<rscale>  2 0.10885025E+03</rscale>
<asrwt>0</asrwt>
<pdfrwt beam="1">  1       21 0.52710258E-01 0.10885025E+03</pdfrwt>
<pdfrwt beam="2">  1       21 0.89333736E-02 0.10885025E+03</pdfrwt>
<totfact> 0.34307369E+05</totfact>
</mgrwt>
</event>
<event>
 5    1  0.2179747E-001  0.1741107E+03  0.7546771E-02  0.1173628E+00
         21   -1    0    0  501  502  0.00000000000E+00  0.00000000000E+00  0.77103695616E+02  0.77103695616E+02  0.00000000000E+00 0. -1.
         21   -1    0    0  502  503 -0.00000000000E+00 -0.00000000000E+00 -0.51656724413E+03  0.51656724413E+03  0.00000000000E+00 0.  1.
         24    1    1    2    0    0  0.32638076992E+02 -0.40539510712E+02 -0.14098501960E+03  0.17044848989E+03  0.80419002446E+02 0. -1.
          1    1    1    2  501    0  0.85880260990E+01  0.14234014444E+03 -0.49246419462E+02  0.15086311922E+03  0.00000000000E+00 0. -1.
         -2    1    1    2    0  503 -0.41226103091E+02 -0.10180063373E+03 -0.24923210945E+03  0.27235933063E+03  0.00000000000E+00 0.  1.
<mgrwt>
<rscale>  2 0.17411074E+03</rscale>
<asrwt>0</asrwt>
<pdfrwt beam="1">  1       21 0.11862107E-01 0.17411074E+03</pdfrwt>
<pdfrwt beam="2">  1       21 0.79471886E-01 0.17411074E+03</pdfrwt>
<totfact> 0.84291052E+04</totfact>
</mgrwt>
</event>
<event>
 5    1  0.1721815E-001  0.8929942E+02  0.7546771E-02  0.1304557E+00
         21   -1    0    0  503  502  0.00000000000E+00  0.00000000000E+00  0.35126261344E+02  0.35126261344E+02  0.00000000000E+00 0.  1.
         21   -1    0    0  501  503 -0.00000000000E+00 -0.00000000000E+00 -0.23051827348E+03  0.23051827348E+03  0.00000000000E+00 0. -1.
         24    1    1    2    0    0 -0.20982075050E+02  0.27789441206E+02 -0.11088287816E+03  0.14133198201E+03  0.80419002446E+02 0.  0.
          1    1    1    2  501    0 -0.14431960528E+02  0.24130617214E+02 -0.30039212533E+02  0.41145138977E+02  0.00000000000E+00 0. -1.
         -2    1    1    2    0  502  0.35414035578E+02 -0.51920058420E+02 -0.54469921444E+02  0.83167413837E+02  0.00000000000E+00 0.  1.
<mgrwt>
<rscale>  2 0.89299419E+02</rscale>
<asrwt>0</asrwt>
<pdfrwt beam="1">  1       21 0.54040400E-02 0.89299419E+02</pdfrwt>
<pdfrwt beam="2">  1       21 0.35464351E-01 0.89299419E+02</pdfrwt>
<totfact> 0.17812420E+06</totfact>
</mgrwt>
</event>
<event>
 5    1  0.1721815E-001  0.1117510E+03  0.7546771E-02  0.1257361E+00
         21   -1    0    0  501  502  0.00000000000E+00  0.00000000000E+00  0.16969976781E+02  0.16969976781E+02  0.00000000000E+00 0. -1.
         21   -1    0    0  502  503 -0.00000000000E+00 -0.00000000000E+00 -0.97066132317E+03  0.97066132317E+03  0.00000000000E+00 0. -1.
         24    1    1    2    0    0  0.65968889871E+02 -0.12868204307E+02 -0.69386092824E+03  0.70173192089E+03  0.80419002446E+02 0. -1.
          1    1    1    2  501    0 -0.90792459449E+02  0.19788407349E+02 -0.19105307354E+03  0.21245265041E+03  0.00000000000E+00 0. -1.
         -2    1    1    2    0  503  0.24823569578E+02 -0.69202030417E+01 -0.68777344612E+02  0.73446728644E+02  0.00000000000E+00 0.  1.
<mgrwt>
<rscale>  2 0.11175097E+03</rscale>
<asrwt>0</asrwt>
<pdfrwt beam="1">  1       21 0.26107652E-02 0.11175097E+03</pdfrwt>
<pdfrwt beam="2">  1       21 0.14933254E+00 0.11175097E+03</pdfrwt>
<totfact> 0.24809209E+05</totfact>
</mgrwt>
</event>
<event>
 5    1  0.1721815E-001  0.2072944E+03  0.7546771E-02  0.1143727E+00
         21   -1    0    0  503  502  0.00000000000E+00  0.00000000000E+00  0.10322490292E+03  0.10322490292E+03  0.00000000000E+00 0.  1.
         21   -1    0    0  501  503 -0.00000000000E+00 -0.00000000000E+00 -0.24594886238E+04  0.24594886238E+04  0.00000000000E+00 0. -1.
         24    1    1    2    0    0 -0.40070147322E+01  0.53953355712E+02 -0.13345397290E+04  0.13380547541E+04  0.80419002446E+02 0. -1.
          1    1    1    2  501    0  0.77161520557E+02  0.11217028794E+03 -0.10338126840E+04  0.10427390563E+04  0.00000000000E+00 0. -1.
         -2    1    1    2    0  502 -0.73154505824E+02 -0.16612364365E+03  0.12088692216E+02  0.18191971630E+03  0.00000000000E+00 0.  1.
<mgrwt>
<rscale>  2 0.20729437E+03</rscale>
<asrwt>0</asrwt>
<pdfrwt beam="1">  1       21 0.15880756E-01 0.20729437E+03</pdfrwt>
<pdfrwt beam="2">  1       21 0.37838282E+00 0.20729437E+03</pdfrwt>
<totfact> 0.40868544E+02</totfact>
</mgrwt>
</event>
<event>
 5    1  0.1721815E-001  0.9393001E+02  0.7546771E-02  0.1293604E+00
         21   -1    0    0  503  502  0.00000000000E+00  0.00000000000E+00  0.51729378331E+03  0.51729378331E+03  0.00000000000E+00 0.  1.
         21   -1    0    0  501  503 -0.00000000000E+00 -0.00000000000E+00 -0.43471490531E+02  0.43471490531E+02  0.00000000000E+00 0.  1.
         24    1    1    2    0    0  0.70703591453E+01  0.75913708666E+02  0.41001655159E+02  0.11815766087E+03  0.80419002446E+02 0.  1.
          1    1    1    2  501    0 -0.90264061408E+01 -0.37130463412E+02  0.92547936209E+02  0.10012625938E+03  0.00000000000E+00 0. -1.
         -2    1    1    2    0  502  0.19560469954E+01 -0.38783245253E+02  0.34027270141E+03  0.34248135359E+03  0.00000000000E+00 0.  1.
<mgrwt>
<rscale>  2 0.93930007E+02</rscale>
<asrwt>0</asrwt>
<pdfrwt beam="1">  1       21 0.79583655E-01 0.93930007E+02</pdfrwt>
<pdfrwt beam="2">  1       21 0.66879220E-02 0.93930007E+02</pdfrwt>
<totfact> 0.23409930E+05</totfact>
</mgrwt>
</event>
<event>
 5    1  0.1721815E-001  0.1026370E+03  0.7546771E-02  0.1274846E+00
         21   -1    0    0  501  502  0.00000000000E+00  0.00000000000E+00  0.13035897851E+03  0.13035897851E+03  0.00000000000E+00 0. -1.
         21   -1    0    0  502  503 -0.00000000000E+00 -0.00000000000E+00 -0.17551970790E+03  0.17551970790E+03  0.00000000000E+00 0.  1.
         24    1    1    2    0    0  0.20240211452E+02  0.47562000723E+01 -0.74295132413E+02  0.11144177966E+03  0.80419002446E+02 0.  0.
          1    1    1    2  501    0 -0.38129557628E+01 -0.62275234349E+02  0.89729784269E+02  0.10928942140E+03  0.00000000000E+00 0. -1.
         -2    1    1    2    0  503 -0.16427255689E+02  0.57519034277E+02 -0.60595381240E+02  0.85147485349E+02  0.00000000000E+00 0.  1.
<mgrwt>
<rscale>  2 0.10263697E+03</rscale>
<asrwt>0</asrwt>
<pdfrwt beam="1">  1       21 0.20055228E-01 0.10263697E+03</pdfrwt>
<pdfrwt beam="2">  1       21 0.27003032E-01 0.10263697E+03</pdfrwt>
<totfact> 0.30540880E+05</totfact>
</mgrwt>
</event>
<event>
 5    1  0.1721815E-001  0.1570900E+03  0.7546771E-02  0.1192022E+00
         21   -1    0    0  501  502  0.00000000000E+00  0.00000000000E+00  0.31077296849E+02  0.31077296849E+02  0.00000000000E+00 0. -1.
         21   -1    0    0  502  503 -0.00000000000E+00 -0.00000000000E+00 -0.15849113781E+04  0.15849113781E+04  0.00000000000E+00 0.  1.
         24    1    1    2    0    0 -0.11867801086E+02  0.80627258666E+02 -0.68059975591E+03  0.69016291065E+03  0.80419002446E+02 0. -1.
          1    1    1    2  501    0  0.90419063852E+02 -0.48610541352E+01 -0.68026918860E+02  0.11325589894E+03  0.00000000000E+00 0. -1.
         -2    1    1    2    0  503 -0.78551262766E+02 -0.75766204531E+02 -0.80520740644E+03  0.81256986531E+03  0.00000000000E+00 0.  1.
<mgrwt>
<rscale>  2 0.15709004E+03</rscale>
<asrwt>0</asrwt>
<pdfrwt beam="1">  1       21 0.47811206E-02 0.15709004E+03</pdfrwt>
<pdfrwt beam="2">  1       21 0.24383262E+00 0.15709004E+03</pdfrwt>
<totfact> 0.21671927E+04</totfact>
</mgrwt>
</event>
<event>
 5    1  0.1721815E-001  0.1867627E+03  0.7546771E-02  0.1161414E+00
         21   -1    0    0  503  502  0.00000000000E+00  0.00000000000E+00  0.44156656495E+03  0.44156656495E+03  0.00000000000E+00 0.  1.
         21   -1    0    0  501  503 -0.00000000000E+00 -0.00000000000E+00 -0.10592222082E+03  0.10592222082E+03  0.00000000000E+00 0. -1.
         24    1    1    2    0    0 -0.23959615886E+02 -0.21393360647E+02  0.18771148210E+03  0.20672337928E+03  0.80419002446E+02 0.  1.
          1    1    1    2  501    0 -0.10849502784E+03 -0.67159851978E+02  0.65763937552E+01  0.12776879799E+03  0.00000000000E+00 0. -1.
         -2    1    1    2    0  502  0.13245464373E+03  0.88553212625E+02  0.14135646828E+03  0.21299660851E+03  0.00000000000E+00 0.  1.
<mgrwt>
<rscale>  2 0.18676275E+03</rscale>
<asrwt>0</asrwt>
<pdfrwt beam="1">  1       21 0.67933317E-01 0.18676275E+03</pdfrwt>
<pdfrwt beam="2">  1       21 0.16295727E-01 0.18676275E+03</pdfrwt>
<totfact> 0.66903986E+04</totfact>
</mgrwt>
</event>
<event>
 5    1  0.1721815E-001  0.1325039E+03  0.7546771E-02  0.1223787E+00
         21   -1    0    0  501  502  0.00000000000E+00  0.00000000000E+00  0.43923066862E+03  0.43923066862E+03  0.00000000000E+00 0.  1.
         21   -1    0    0  502  503 -0.00000000000E+00 -0.00000000000E+00 -0.91064046369E+02  0.91064046369E+02  0.00000000000E+00 0.  1.
         24    1    1    2    0    0 -0.83467354838E+02  0.11965211929E+02 -0.24658107791E+02  0.11910165345E+03  0.80419002446E+02 0.  1.
          1    1    1    2  501    0  0.77542492549E+02 -0.61269789518E+02  0.33354164879E+03  0.34787477163E+03  0.00000000000E+00 0. -1.
         -2    1    1    2    0  503  0.59248622886E+01  0.49304577589E+02  0.39283081246E+02  0.63318289906E+02  0.00000000000E+00 0.  1.
<mgrwt>
<rscale>  2 0.13250385E+03</rscale>
<asrwt>0</asrwt>
<pdfrwt beam="1">  1       21 0.67573948E-01 0.13250385E+03</pdfrwt>
<pdfrwt beam="2">  1       21 0.14009853E-01 0.13250385E+03</pdfrwt>
<totfact> 0.91141430E+04</totfact>
</mgrwt>
</event>
<event>
 5    1  0.1721815E-001  0.9586789E+02  0.7546771E-02  0.1289233E+00
         21   -1    0    0  503  502  0.00000000000E+00  0.00000000000E+00  0.11376413103E+03  0.11376413103E+03  0.00000000000E+00 0.  1.
         21   -1    0    0  501  503 -0.00000000000E+00 -0.00000000000E+00 -0.11897205224E+04  0.11897205224E+04  0.00000000000E+00 0. -1.
         24    1    1    2    0    0  0.25178708089E+02  0.57702664200E+02 -0.11237531970E+04  0.11283846988E+04  0.80419002446E+02 0. -1.
          1    1    1    2  501    0 -0.46667565964E+02 -0.34916622654E+02 -0.47246838866E+02  0.75028634757E+02  0.00000000000E+00 0. -1.
         -2    1    1    2    0  502  0.21488857875E+02 -0.22786041546E+02  0.95043644487E+02  0.10007131986E+03  0.00000000000E+00 0.  1.
<mgrwt>
<rscale>  2 0.95867887E+02</rscale>
<asrwt>0</asrwt>
<pdfrwt beam="1">  1       21 0.17502174E-01 0.95867887E+02</pdfrwt>
<pdfrwt beam="2">  1       21 0.18303392E+00 0.95867887E+02</pdfrwt>
<totfact> 0.57343010E+03</totfact>
</mgrwt>
</event>
<event>
 5    1  0.1721815E-001  0.1075869E+03  0.7546771E-02  0.1265105E+00
         21   -1    0    0  501  502  0.00000000000E+00  0.00000000000E+00  0.60739504058E+03  0.60739504058E+03  0.00000000000E+00 0. -1.
         21   -1    0    0  502  503 -0.00000000000E+00 -0.00000000000E+00 -0.30114095964E+02  0.30114095964E+02  0.00000000000E+00 0. -1.
         24    1    1    2    0    0  0.32109913263E+00  0.64123684323E+02  0.88673502648E+02  0.13580189992E+03  0.80419002446E+02 0. -1.
          1    1    1    2  501    0 -0.40325972812E+02 -0.59736754005E+02  0.35160764569E+03  0.35891865425E+03  0.00000000000E+00 0. -1.
         -2    1    1    2    0  503  0.40004873679E+02 -0.43869303175E+01  0.13699979628E+03  0.14278858237E+03  0.00000000000E+00 0.  1.
<mgrwt>
<rscale>  2 0.10758689E+03</rscale>
<asrwt>0</asrwt>
<pdfrwt beam="1">  1       21 0.93445382E-01 0.10758689E+03</pdfrwt>
<pdfrwt beam="2">  1       21 0.46329383E-02 0.10758689E+03</pdfrwt>
<totfact> 0.30098259E+05</totfact>
</mgrwt>
</event>
<event>
 5    1  0.1721815E-001  0.1759296E+03  0.7546771E-02  0.1171802E+00
         21   -1    0    0  501  502  0.00000000000E+00  0.00000000000E+00  0.24575623120E+02  0.24575623120E+02  0.00000000000E+00 0. -1.
         21   -1    0    0  502  503 -0.00000000000E+00 -0.00000000000E+00 -0.19062938213E+04  0.19062938213E+04  0.00000000000E+00 0.  1.
         24    1    1    2    0    0  0.34564307986E+02  0.93611924930E+02 -0.10764276157E+04  0.10840302172E+04  0.80419002446E+02 0.  1.
          1    1    1    2  501    0  0.80168938803E+02 -0.80453092235E+01 -0.10651443803E+03  0.13355564854E+03  0.00000000000E+00 0. -1.
         -2    1    1    2    0  503 -0.11473324679E+03 -0.85566615706E+02 -0.69877614443E+03  0.71328357872E+03  0.00000000000E+00 0.  1.
<mgrwt>
<rscale>  2 0.17592958E+03</rscale>
<asrwt>0</asrwt>
<pdfrwt beam="1">  1       21 0.37808660E-02 0.17592958E+03</pdfrwt>
<pdfrwt beam="2">  1       21 0.29327591E+00 0.17592958E+03</pdfrwt>
<totfact> 0.16352270E+04</totfact>
</mgrwt>
</event>
<event>
 5    1  0.1721815E-001  0.2163439E+03  0.7546771E-02  0.1136638E+00
         21   -1    0    0  503  502  0.00000000000E+00  0.00000000000E+00  0.61549049419E+02  0.61549049419E+02  0.00000000000E+00 0. -1.
         21   -1    0    0  501  503 -0.00000000000E+00 -0.00000000000E+00 -0.77000725781E+03  0.77000725781E+03  0.00000000000E+00 0.  1.
         24    1    1    2    0    0  0.16913509269E+03 -0.29806047098E+02 -0.28484809630E+03  0.34219984503E+03  0.80419002446E+02 0. -1.
          1    1    1    2  501    0 -0.24848354529E+02 -0.65549810249E+02 -0.15154578779E+03  0.16697408225E+03  0.00000000000E+00 0. -1.
         -2    1    1    2    0  502 -0.14428673816E+03  0.95355857347E+02 -0.27206432430E+03  0.32238237994E+03  0.00000000000E+00 0.  1.
<mgrwt>
<rscale>  2 0.21634395E+03</rscale>
<asrwt>0</asrwt>
<pdfrwt beam="1">  1       21 0.94690839E-02 0.21634395E+03</pdfrwt>
<pdfrwt beam="2">  1       21 0.11846266E+00 0.21634395E+03</pdfrwt>
<totfact> 0.48111656E+04</totfact>
</mgrwt>
</event>
<event>
 5    1  0.1721815E-001  0.8752846E+02  0.7546771E-02  0.1308950E+00
         21   -1    0    0  503  502  0.00000000000E+00  0.00000000000E+00  0.23319640949E+02  0.23319640949E+02  0.00000000000E+00 0.  1.
         21   -1    0    0  501  503 -0.00000000000E+00 -0.00000000000E+00 -0.35158749425E+03  0.35158749425E+03  0.00000000000E+00 0. -1.
         24    1    1    2    0    0 -0.13428971131E+02 -0.16621280141E+02 -0.20273379020E+03  0.21914563619E+03  0.80419002446E+02 0. -1.
          1    1    1    2  501    0 -0.49053682873E+01 -0.35891950250E+02 -0.56369461674E+02  0.67006051519E+02  0.00000000000E+00 0. -1.
         -2    1    1    2    0  502  0.18334339418E+02  0.52513230391E+02 -0.69164601427E+02  0.88755447487E+02  0.00000000000E+00 0.  1.
<mgrwt>
<rscale>  2 0.87528465E+02</rscale>
<asrwt>0</asrwt>
<pdfrwt beam="1">  1       21 0.35876376E-02 0.87528465E+02</pdfrwt>
<pdfrwt beam="2">  1       21 0.54090375E-01 0.87528465E+02</pdfrwt>
<totfact> 0.15040798E+06</totfact>
</mgrwt>
</event>
<event>
 5    1  0.1721815E-001  0.1317696E+03  0.7546771E-02  0.1224853E+00
         21   -1    0    0  503  502  0.00000000000E+00  0.00000000000E+00  0.21423304672E+04  0.21423304672E+04  0.00000000000E+00 0.  1.
         21   -1    0    0  501  503 -0.00000000000E+00 -0.00000000000E+00 -0.12089306157E+02  0.12089306157E+02  0.00000000000E+00 0. -1.
         24    1    1    2    0    0 -0.78137384729E+01  0.26293632052E+01  0.21266967314E+03  0.22751609589E+03  0.80419002446E+02 0. -1.
          1    1    1    2  501    0 -0.76611824624E+02  0.41824385033E+02  0.66508015019E+03  0.67078331601E+03  0.00000000000E+00 0. -1.
         -2    1    1    2    0  502  0.84425563097E+02 -0.44453748238E+02  0.12524913377E+04  0.12561203614E+04  0.00000000000E+00 0.  1.
<mgrwt>
<rscale>  2 0.13176963E+03</rscale>
<asrwt>0</asrwt>
<pdfrwt beam="1">  1       21 0.32958900E+00 0.13176963E+03</pdfrwt>
<pdfrwt beam="2">  1       21 0.18598950E-02 0.13176963E+03</pdfrwt>
<totfact> 0.34234802E+04</totfact>
</mgrwt>
</event>
<event>
 5    1  0.1721815E-001  0.1951733E+03  0.7546771E-02  0.1153876E+00
         21   -1    0    0  503  502  0.00000000000E+00  0.00000000000E+00  0.14850821190E+03  0.14850821190E+03  0.00000000000E+00 0.  1.
         21   -1    0    0  501  503 -0.00000000000E+00 -0.00000000000E+00 -0.64187229272E+03  0.64187229272E+03  0.00000000000E+00 0. -1.
         24    1    1    2    0    0 -0.40433076140E+02  0.25475943343E+02 -0.27545205747E+03  0.29090360819E+03  0.80419002446E+02 0.  0.
          1    1    1    2  501    0 -0.84195339832E+02  0.92575191049E+02 -0.28803516945E+03  0.31404343662E+03  0.00000000000E+00 0. -1.
         -2    1    1    2    0  502  0.12462841597E+03 -0.11805113439E+03  0.70123146099E+02  0.18543345981E+03  0.00000000000E+00 0.  1.
<mgrwt>
<rscale>  2 0.19517328E+03</rscale>
<asrwt>0</asrwt>
<pdfrwt beam="1">  1       21 0.22847417E-01 0.19517328E+03</pdfrwt>
<pdfrwt beam="2">  1       21 0.98749585E-01 0.19517328E+03</pdfrwt>
<totfact> 0.15176705E+04</totfact>
</mgrwt>
</event>
<event>
 5    1  0.1721815E-001  0.7731302E+02  0.7546771E-02  0.1336854E+00
         21   -1    0    0  503  502  0.00000000000E+00  0.00000000000E+00  0.23489152229E+02  0.23489152229E+02  0.00000000000E+00 0. -1.
         21   -1    0    0  501  503 -0.00000000000E+00 -0.00000000000E+00 -0.76593693006E+03  0.76593693006E+03  0.00000000000E+00 0. -1.
         24    1    1    2    0    0  0.14688017964E+02  0.29840427830E+02 -0.66644671091E+03  0.67210462240E+03  0.80419002446E+02 0. -1.
          1    1    1    2  501    0 -0.36603736945E+02 -0.97742963474E+01 -0.78841049873E+02  0.87471604378E+02  0.00000000000E+00 0. -1.
         -2    1    1    2    0  502  0.21915718981E+02 -0.20066131483E+02  0.28399829540E+01  0.29849855516E+02  0.00000000000E+00 0.  1.
<mgrwt>
<rscale>  2 0.77313021E+02</rscale>
<asrwt>0</asrwt>
<pdfrwt beam="1">  1       21 0.36137158E-02 0.77313021E+02</pdfrwt>
<pdfrwt beam="2">  1       21 0.11783645E+00 0.77313021E+02</pdfrwt>
<totfact> 0.26602003E+05</totfact>
</mgrwt>
</event>
<event>
 5    1  0.1736562E-001  0.1542853E+03  0.7546771E-02  0.1195304E+00
         21   -1    0    0  503  502  0.00000000000E+00  0.00000000000E+00  0.63489526643E+02  0.63489526643E+02  0.00000000000E+00 0.  1.
         21   -1    0    0  501  503 -0.00000000000E+00 -0.00000000000E+00 -0.41334168931E+03  0.41334168931E+03  0.00000000000E+00 0. -1.
         24    1    1    2    0    0  0.17217671119E+02 -0.10395893748E+02 -0.14502449190E+03  0.16704443125E+03  0.80419002446E+02 0. -1.
          1    1    1    2  501    0  0.10577558466E+02 -0.10573550488E+03 -0.13374281725E+03  0.17081868428E+03  0.00000000000E+00 0. -1.
         -2    1    1    2    0  502 -0.27795229585E+02  0.11613139863E+03 -0.71084853516E+02  0.13896810042E+03  0.00000000000E+00 0.  1.
<mgrwt>
<rscale>  2 0.15428530E+03</rscale>
<asrwt>0</asrwt>
<pdfrwt beam="1">  1       21 0.97676194E-02 0.15428530E+03</pdfrwt>
<pdfrwt beam="2">  1       21 0.63591030E-01 0.15428530E+03</pdfrwt>
<totfact> 0.19559514E+05</totfact>
</mgrwt>
</event>
<event>
 5    1  0.1721815E-001  0.7622145E+02  0.7546771E-02  0.1340130E+00
         21   -1    0    0  501  502  0.00000000000E+00  0.00000000000E+00  0.53314037006E+01  0.53314037006E+01  0.00000000000E+00 0.  1.
         21   -1    0    0  502  503 -0.00000000000E+00 -0.00000000000E+00 -0.21288694203E+04  0.21288694203E+04  0.00000000000E+00 0.  1.
         24    1    1    2    0    0 -0.37369396454E+02 -0.99666090187E+01 -0.18898263686E+04  0.18919320084E+04  0.80419002446E+02 0.  1.
          1    1    1    2  501    0  0.27237541233E+02 -0.18543224013E+02 -0.10500324358E+03  0.11005187855E+03  0.00000000000E+00 0. -1.
         -2    1    1    2    0  503  0.10131855220E+02  0.28509833032E+02 -0.12870840442E+03  0.13221693703E+03  0.00000000000E+00 0.  1.
<mgrwt>
<rscale>  2 0.76221452E+02</rscale>
<asrwt>0</asrwt>
<pdfrwt beam="1">  1       21 0.82021415E-03 0.76221452E+02</pdfrwt>
<pdfrwt beam="2">  1       21 0.32751909E+00 0.76221452E+02</pdfrwt>
<totfact> 0.14021612E+05</totfact>
</mgrwt>
</event>
<event>
 5    1  0.1721815E-001  0.8753579E+02  0.7546771E-02  0.1308931E+00
         21   -1    0    0  503  502  0.00000000000E+00  0.00000000000E+00  0.27893050635E+03  0.27893050635E+03  0.00000000000E+00 0. -1.
         21   -1    0    0  501  503 -0.00000000000E+00 -0.00000000000E+00 -0.30233821768E+02  0.30233821768E+02  0.00000000000E+00 0.  1.
         24    1    1    2    0    0  0.39972061208E+02  0.97605019209E+01  0.94854626946E+02  0.13098721038E+03  0.80419002446E+02 0.  0.
          1    1    1    2  501    0 -0.11658484099E+02 -0.40971198924E+02  0.47569425190E+02  0.63854597373E+02  0.00000000000E+00 0. -1.
         -2    1    1    2    0  502 -0.28313577109E+02  0.31210697003E+02  0.10627263244E+03  0.11432252036E+03  0.00000000000E+00 0.  1.
<mgrwt>
<rscale>  2 0.87535792E+02</rscale>
<asrwt>0</asrwt>
<pdfrwt beam="1">  1       21 0.42912384E-01 0.87535792E+02</pdfrwt>
<pdfrwt beam="2">  1       21 0.46513574E-02 0.87535792E+02</pdfrwt>
<totfact> 0.15689249E+06</totfact>
</mgrwt>
</event>
<event>
 5    1  0.1721815E-001  0.1720147E+03  0.7546771E-02  0.1175763E+00
         21   -1    0    0  501  502  0.00000000000E+00  0.00000000000E+00  0.79780154864E+03  0.79780154864E+03  0.00000000000E+00 0.  1.
         21   -1    0    0  502  503 -0.00000000000E+00 -0.00000000000E+00 -0.41464914462E+02  0.41464914462E+02  0.00000000000E+00 0. -1.
         24    1    1    2    0    0 -0.13022729452E+02 -0.33902002639E+02  0.32900133659E+03  0.34062887825E+03  0.80419002446E+02 0.  1.
          1    1    1    2  501    0  0.12418355405E+03 -0.29747159553E+02  0.18966409259E+03  0.22864583227E+03  0.00000000000E+00 0. -1.
         -2    1    1    2    0  503 -0.11116082460E+03  0.63649162192E+02  0.23767120499E+03  0.26999175257E+03  0.00000000000E+00 0.  1.
<mgrwt>
<rscale>  2 0.17201469E+03</rscale>
<asrwt>0</asrwt>
<pdfrwt beam="1">  1       21 0.12273869E+00 0.17201469E+03</pdfrwt>
<pdfrwt beam="2">  1       21 0.63792182E-02 0.17201469E+03</pdfrwt>
<totfact> 0.89466597E+04</totfact>
</mgrwt>
</event>
<event>
 5    1  0.1721815E-001  0.1074427E+03  0.7546771E-02  0.1265380E+00
         21   -1    0    0  501  502  0.00000000000E+00  0.00000000000E+00  0.12546352103E+03  0.12546352103E+03  0.00000000000E+00 0. -1.
         21   -1    0    0  502  503 -0.00000000000E+00 -0.00000000000E+00 -0.22140251650E+03  0.22140251650E+03  0.00000000000E+00 0. -1.
         24    1    1    2    0    0 -0.55208650472E+02  0.27803574181E+02 -0.17368143864E+03  0.20113053449E+03  0.80419002446E+02 0. -1.
          1    1    1    2  501    0  0.58994123519E+02 -0.58171946883E+02  0.79840950776E+02  0.11506024263E+03  0.00000000000E+00 0. -1.
         -2    1    1    2    0  503 -0.37854730460E+01  0.30368372702E+02 -0.20985076192E+01  0.30675260406E+02  0.00000000000E+00 0.  1.
<mgrwt>
<rscale>  2 0.10744268E+03</rscale>
<asrwt>0</asrwt>
<pdfrwt beam="1">  1       21 0.19302080E-01 0.10744268E+03</pdfrwt>
<pdfrwt beam="2">  1       21 0.34061925E-01 0.10744268E+03</pdfrwt>
<totfact> 0.20952991E+05</totfact>
</mgrwt>
</event>
<event>
 5    1  0.1721815E-001  0.9873322E+02  0.7546771E-02  0.1282983E+00
         21   -1    0    0  503  502  0.00000000000E+00  0.00000000000E+00  0.18659780837E+03  0.18659780837E+03  0.00000000000E+00 0.  1.
         21   -1    0    0  501  503 -0.00000000000E+00 -0.00000000000E+00 -0.56995554923E+02  0.56995554923E+02  0.00000000000E+00 0. -1.
         24    1    1    2    0    0  0.93889446881E+01 -0.37748861993E+02  0.56659307142E+02  0.10578573583E+03  0.80419002446E+02 0.  0.
          1    1    1    2  501    0 -0.52068745338E+02  0.14235343390E+01  0.91389091570E+01  0.52883838284E+02  0.00000000000E+00 0. -1.
         -2    1    1    2    0  502  0.42679800650E+02  0.36325327655E+02  0.63804037152E+02  0.84923789186E+02  0.00000000000E+00 0.  1.
<mgrwt>
<rscale>  2 0.98733224E+02</rscale>
<asrwt>0</asrwt>
<pdfrwt beam="1">  1       21 0.28707355E-01 0.98733224E+02</pdfrwt>
<pdfrwt beam="2">  1       21 0.87685470E-02 0.98733224E+02</pdfrwt>
<totfact> 0.11811342E+06</totfact>
</mgrwt>
</event>
<event>
 5    1  0.1721815E-001  0.1688166E+03  0.7546771E-02  0.1179088E+00
         21   -1    0    0  501  502  0.00000000000E+00  0.00000000000E+00  0.81079719117E+02  0.81079719117E+02  0.00000000000E+00 0. -1.
         21   -1    0    0  502  503 -0.00000000000E+00 -0.00000000000E+00 -0.19867662686E+04  0.19867662686E+04  0.00000000000E+00 0.  1.
         24    1    1    2    0    0 -0.71567818293E+01 -0.70358295660E+02 -0.65997842695E+03  0.66861068590E+03  0.80419002446E+02 0.  1.
          1    1    1    2  501    0 -0.10229500669E+03  0.36446215165E+01  0.37968431430E+02  0.10917487552E+03  0.00000000000E+00 0. -1.
         -2    1    1    2    0  503  0.10945178852E+03  0.66713674144E+02 -0.12836765540E+04  0.12900604263E+04  0.00000000000E+00 0.  1.
<mgrwt>
<rscale>  2 0.16881660E+03</rscale>
<asrwt>0</asrwt>
<pdfrwt beam="1">  1       21 0.12473803E-01 0.16881660E+03</pdfrwt>
<pdfrwt beam="2">  1       21 0.30565634E+00 0.16881660E+03</pdfrwt>
<totfact> 0.17917546E+03</totfact>
</mgrwt>
</event>
<event>
 5    1  0.1900237E-001  0.1249792E+03  0.7546771E-02  0.1235102E+00
         21   -1    0    0  501  502  0.00000000000E+00  0.00000000000E+00  0.31547729278E+03  0.31547729278E+03  0.00000000000E+00 0.  1.
         21   -1    0    0  502  503 -0.00000000000E+00 -0.00000000000E+00 -0.53772807172E+02  0.53772807172E+02  0.00000000000E+00 0. -1.
         24    1    1    2    0    0 -0.38884758829E+02 -0.95781373982E+01  0.55870989364E+02  0.10579484199E+03  0.80419002446E+02 0. -1.
          1    1    1    2  501    0  0.99249897028E+02  0.18977956090E+01  0.15550125920E+03  0.18448518993E+03  0.00000000000E+00 0. -1.
         -2    1    1    2    0  503 -0.60365138199E+02  0.76803417893E+01  0.50332237039E+02  0.78970068033E+02  0.00000000000E+00 0.  1.
<mgrwt>
<rscale>  2 0.12497922E+03</rscale>
<asrwt>0</asrwt>
<pdfrwt beam="1">  1       21 0.48534967E-01 0.12497922E+03</pdfrwt>
<pdfrwt beam="2">  1       21 0.82727398E-02 0.12497922E+03</pdfrwt>
<totfact> 0.46338342E+05</totfact>
</mgrwt>
</event>
<event>
 5    1  0.1721815E-001  0.9905387E+02  0.7546771E-02  0.1282298E+00
         21   -1    0    0  501  502  0.00000000000E+00  0.00000000000E+00  0.17943453046E+02  0.17943453046E+02  0.00000000000E+00 0. -1.
         21   -1    0    0  502  503 -0.00000000000E+00 -0.00000000000E+00 -0.62312224491E+03  0.62312224491E+03  0.00000000000E+00 0. -1.
         24    1    1    2    0    0 -0.93449447171E+01  0.13917617096E+02 -0.26463251448E+03  0.27708953739E+03  0.80419002446E+02 0.  0.
          1    1    1    2  501    0  0.61822134778E+02 -0.14415203765E+02 -0.10536216667E+03  0.12300796972E+03  0.00000000000E+00 0. -1.
         -2    1    1    2    0  503 -0.52477190061E+02  0.49758666847E+00 -0.23518411071E+03  0.24096819084E+03  0.00000000000E+00 0.  1.
<mgrwt>
<rscale>  2 0.99053875E+02</rscale>
<asrwt>0</asrwt>
<pdfrwt beam="1">  1       21 0.27605313E-02 0.99053875E+02</pdfrwt>
<pdfrwt beam="2">  1       21 0.95864959E-01 0.99053875E+02</pdfrwt>
<totfact> 0.66572525E+05</totfact>
</mgrwt>
</event>
<event>
 5    1  0.1721815E-001  0.8111133E+02  0.7546771E-02  0.1325927E+00
         21   -1    0    0  503  502  0.00000000000E+00  0.00000000000E+00  0.24091301456E+02  0.24091301456E+02  0.00000000000E+00 0. -1.
         21   -1    0    0  501  503 -0.00000000000E+00 -0.00000000000E+00 -0.35712699606E+03  0.35712699606E+03  0.00000000000E+00 0.  1.
         24    1    1    2    0    0  0.22215569399E+02 -0.83448607985E+01 -0.22462216750E+03  0.23976134449E+03  0.80419002446E+02 0.  1.
          1    1    1    2  501    0 -0.63963522110E+00  0.40033564755E+02 -0.90864162806E+02  0.99294468741E+02  0.00000000000E+00 0. -1.
         -2    1    1    2    0  502 -0.21575934178E+02 -0.31688703956E+02 -0.17549364305E+02  0.42162484291E+02  0.00000000000E+00 0.  1.
<mgrwt>
<rscale>  2 0.81111330E+02</rscale>
<asrwt>0</asrwt>
<pdfrwt beam="1">  1       21 0.37063537E-02 0.81111330E+02</pdfrwt>
<pdfrwt beam="2">  1       21 0.54942620E-01 0.81111330E+02</pdfrwt>
<totfact> 0.13778099E+06</totfact>
</mgrwt>
</event>
<event>
 5    1  0.1721815E-001  0.1236483E+03  0.7546771E-02  0.1237197E+00
         21   -1    0    0  503  502  0.00000000000E+00  0.00000000000E+00  0.84828462235E+02  0.84828462235E+02  0.00000000000E+00 0. -1.
         21   -1    0    0  501  503 -0.00000000000E+00 -0.00000000000E+00 -0.30529333958E+03  0.30529333958E+03  0.00000000000E+00 0.  1.
         24    1    1    2    0    0 -0.81857753886E+02 -0.59018881181E+02 -0.22893933085E+03  0.26280097673E+03  0.80419002446E+02 0.  1.
          1    1    1    2  501    0  0.58325203402E+02  0.70971877990E+02 -0.13660907194E+02  0.92873339569E+02  0.00000000000E+00 0. -1.
         -2    1    1    2    0  502  0.23532550484E+02 -0.11952996809E+02  0.22135360699E+02  0.34447485514E+02  0.00000000000E+00 0.  1.
<mgrwt>
<rscale>  2 0.12364832E+03</rscale>
<asrwt>0</asrwt>
<pdfrwt beam="1">  1       21 0.13050533E-01 0.12364832E+03</pdfrwt>
<pdfrwt beam="2">  1       21 0.46968205E-01 0.12364832E+03</pdfrwt>
<totfact> 0.22296713E+05</totfact>
</mgrwt>
</event>
