<event>
 5    1  0.1959123E+000  0.8851895E+02  0.7546771E-02  0.1306478E+00
         21   -1    0    0  503  502  0.00000000000E+00  0.00000000000E+00  0.56563476846E+02  0.56563476846E+02  0.00000000000E+00 0. -1.
         21   -1    0    0  501  503 -0.00000000000E+00 -0.00000000000E+00 -0.15156171930E+03  0.15156171930E+03  0.00000000000E+00 0.  1.
         24    1    1    2    0    0 -0.24941934100E+02  0.15307026215E+02 -0.76553254935E+02  0.11482169622E+03  0.80419002446E+02 0.  1.
          1    1    1    2  501    0  0.51737314961E+02 -0.31091488219E+02 -0.12494345450E+02  0.61640401258E+02  0.00000000000E+00 0. -1.
         -2    1    1    2    0  502 -0.26795380861E+02  0.15784462004E+02 -0.59506420730E+01  0.31663098669E+02  0.00000000000E+00 0.  1.
<mgrwt>
<rscale>  2 0.88518947E+02</rscale>
<asrwt>0</asrwt>
<pdfrwt beam="1">  1       21 0.87020733E-02 0.88518947E+02</pdfrwt>
<pdfrwt beam="2">  1       21 0.23317188E-01 0.88518947E+02</pdfrwt>
<totfact> 0.17639658E+06</totfact>
</mgrwt>
</event>
<event>
 5    1  0.1959123E+000  0.1133135E+03  0.7546771E-02  0.1254554E+00
         21   -1    0    0  503  502  0.00000000000E+00  0.00000000000E+00  0.74993681857E+02  0.74993681857E+02  0.00000000000E+00 0. -1.
         21   -1    0    0  501  503 -0.00000000000E+00 -0.00000000000E+00 -0.21195316403E+03  0.21195316403E+03  0.00000000000E+00 0.  1.
         24    1    1    2    0    0  0.21786168812E+02  0.96231452701E+02 -0.26947860041E+02  0.13010969509E+03  0.80419002446E+02 0.  0.
          1    1    1    2  501    0 -0.12035122834E+02 -0.28917194332E+02 -0.72923985202E+02  0.79365962020E+02  0.00000000000E+00 0. -1.
         -2    1    1    2    0  502 -0.97510459779E+01 -0.67314258369E+02 -0.37087636926E+02  0.77471188775E+02  0.00000000000E+00 0.  1.
<mgrwt>
<rscale>  2 0.11331349E+03</rscale>
<asrwt>0</asrwt>
<pdfrwt beam="1">  1       21 0.11537490E-01 0.11331349E+03</pdfrwt>
<pdfrwt beam="2">  1       21 0.32608179E-01 0.11331349E+03</pdfrwt>
<totfact> 0.57401479E+05</totfact>
</mgrwt>
</event>
<event>
 5    1  0.1959123E+000  0.9404258E+02  0.7546771E-02  0.1293347E+00
         21   -1    0    0  501  502  0.00000000000E+00  0.00000000000E+00  0.18657029121E+02  0.18657029121E+02  0.00000000000E+00 0. -1.
         21   -1    0    0  502  503 -0.00000000000E+00 -0.00000000000E+00 -0.13047547996E+04  0.13047547996E+04  0.00000000000E+00 0. -1.
         24    1    1    2    0    0  0.20930823982E+02  0.60317958442E+02 -0.96409597515E+03  0.96954866858E+03  0.80419002446E+02 0. -1.
          1    1    1    2  501    0 -0.40476571103E+02 -0.35710104861E+02 -0.33229297682E+02  0.63385728850E+02  0.00000000000E+00 0. -1.
         -2    1    1    2    0  503  0.19545747121E+02 -0.24607853581E+02 -0.28877249765E+03  0.29047743129E+03  0.00000000000E+00 0.  1.
<mgrwt>
<rscale>  2 0.94042583E+02</rscale>
<asrwt>0</asrwt>
<pdfrwt beam="1">  1       21 0.28703106E-02 0.94042583E+02</pdfrwt>
<pdfrwt beam="2">  1       21 0.20073161E+00 0.94042583E+02</pdfrwt>
<totfact> 0.96817256E+04</totfact>
</mgrwt>
</event>
<event>
 5    1  0.1959123E+000  0.9866153E+02  0.7546771E-02  0.1283136E+00
         21   -1    0    0  501  502  0.00000000000E+00  0.00000000000E+00  0.90437239641E+01  0.90437239641E+01  0.00000000000E+00 0.  1.
         21   -1    0    0  502  503 -0.00000000000E+00 -0.00000000000E+00 -0.13554500362E+04  0.13554500362E+04  0.00000000000E+00 0.  1.
         24    1    1    2    0    0 -0.57258214269E+02 -0.37497229426E+02 -0.10147167688E+04  0.10201969821E+04  0.80419002446E+02 0.  1.
          1    1    1    2  501    0  0.27899679290E+02 -0.14922662431E+02 -0.96511469588E+02  0.10156545535E+03  0.00000000000E+00 0. -1.
         -2    1    1    2    0  503  0.29358534979E+02  0.52419891857E+02 -0.23517807381E+03  0.24273132274E+03  0.00000000000E+00 0.  1.
<mgrwt>
<rscale>  2 0.98661533E+02</rscale>
<asrwt>0</asrwt>
<pdfrwt beam="1">  1       21 0.13913428E-02 0.98661533E+02</pdfrwt>
<pdfrwt beam="2">  1       21 0.20853068E+00 0.98661533E+02</pdfrwt>
<totfact> 0.27592942E+05</totfact>
</mgrwt>
</event>
<event>
 5    1  0.1959123E+000  0.7546882E+02  0.7546771E-02  0.1342425E+00
         21   -1    0    0  501  502  0.00000000000E+00  0.00000000000E+00  0.64764949088E+02  0.64764949088E+02  0.00000000000E+00 0.  1.
         21   -1    0    0  502  503 -0.00000000000E+00 -0.00000000000E+00 -0.96514025075E+02  0.96514025075E+02  0.00000000000E+00 0. -1.
         24    1    1    2    0    0  0.40268205519E+00 -0.32540703402E+02 -0.20036141256E+02  0.89037758516E+02  0.80419002446E+02 0.  1.
          1    1    1    2  501    0 -0.27441237208E+02  0.21968298923E+02  0.93494751024E+01  0.36373621510E+02  0.00000000000E+00 0. -1.
         -2    1    1    2    0  503  0.27038555153E+02  0.10572404480E+02 -0.21062409833E+02  0.35867594138E+02  0.00000000000E+00 0.  1.
<mgrwt>
<rscale>  2 0.75468821E+02</rscale>
<asrwt>0</asrwt>
<pdfrwt beam="1">  1       21 0.99638384E-02 0.75468821E+02</pdfrwt>
<pdfrwt beam="2">  1       21 0.14848311E-01 0.75468821E+02</pdfrwt>
<totfact> 0.31450686E+06</totfact>
</mgrwt>
</event>
<event>
 5    1  0.1959123E+000  0.8597261E+02  0.7546771E-02  0.1312908E+00
         21   -1    0    0  501  502  0.00000000000E+00  0.00000000000E+00  0.11055691828E+04  0.11055691828E+04  0.00000000000E+00 0. -1.
         21   -1    0    0  502  503 -0.00000000000E+00 -0.00000000000E+00 -0.96762283855E+01  0.96762283855E+01  0.00000000000E+00 0.  1.
         24    1    1    2    0    0 -0.40561041664E+02  0.13072628464E+02  0.75469113766E+03  0.76015920762E+03  0.80419002446E+02 0.  0.
          1    1    1    2  501    0 -0.10450180396E+02 -0.26244178280E+02  0.23335803397E+03  0.23506155615E+03  0.00000000000E+00 0. -1.
         -2    1    1    2    0  503  0.51011222060E+02  0.13171549816E+02  0.10784378281E+03  0.12002464743E+03  0.00000000000E+00 0.  1.
<mgrwt>
<rscale>  2 0.85972606E+02</rscale>
<asrwt>0</asrwt>
<pdfrwt beam="1">  1       21 0.17008747E+00 0.85972606E+02</pdfrwt>
<pdfrwt beam="2">  1       21 0.14886514E-02 0.85972606E+02</pdfrwt>
<totfact> 0.43911185E+05</totfact>
</mgrwt>
</event>
<event>
 5    1  0.1959123E+000  0.1190176E+03  0.7546771E-02  0.1244727E+00
         21   -1    0    0  501  502  0.00000000000E+00  0.00000000000E+00  0.27114638562E+02  0.27114638562E+02  0.00000000000E+00 0. -1.
         21   -1    0    0  502  503 -0.00000000000E+00 -0.00000000000E+00 -0.12982149512E+04  0.12982149512E+04  0.00000000000E+00 0.  1.
         24    1    1    2    0    0  0.47679873567E+02  0.21567347096E+02 -0.51364308817E+03  0.52252747179E+03  0.80419002446E+02 0.  1.
          1    1    1    2  501    0  0.46257927488E+02 -0.31712581386E+01 -0.77512187000E+01  0.47009936450E+02  0.00000000000E+00 0. -1.
         -2    1    1    2    0  503 -0.93937801055E+02 -0.18396088957E+02 -0.74970600582E+03  0.75579218157E+03  0.00000000000E+00 0.  1.
<mgrwt>
<rscale>  2 0.11901758E+03</rscale>
<asrwt>0</asrwt>
<pdfrwt beam="1">  1       21 0.41714810E-02 0.11901758E+03</pdfrwt>
<pdfrwt beam="2">  1       21 0.19972546E+00 0.11901758E+03</pdfrwt>
<totfact> 0.51964326E+04</totfact>
</mgrwt>
</event>
<event>
 5    1  0.1959123E+000  0.1512855E+03  0.7546771E-02  0.1198902E+00
         21   -1    0    0  501  502  0.00000000000E+00  0.00000000000E+00  0.33517502753E+03  0.33517502753E+03  0.00000000000E+00 0. -1.
         21   -1    0    0  502  503 -0.00000000000E+00 -0.00000000000E+00 -0.19691102774E+03  0.19691102774E+03  0.00000000000E+00 0.  1.
         24    1    1    2    0    0  0.89345651211E+02 -0.82015223254E+02 -0.40606111050E+01  0.14557763136E+03  0.80419002446E+02 0.  0.
          1    1    1    2  501    0 -0.21899378597E+02 -0.23308092029E+02  0.23099394967E+03  0.23319745865E+03  0.00000000000E+00 0. -1.
         -2    1    1    2    0  503 -0.67446272614E+02  0.10532331528E+03 -0.88669338766E+02  0.15331096526E+03  0.00000000000E+00 0.  1.
<mgrwt>
<rscale>  2 0.15128550E+03</rscale>
<asrwt>0</asrwt>
<pdfrwt beam="1">  1       21 0.51565389E-01 0.15128550E+03</pdfrwt>
<pdfrwt beam="2">  1       21 0.30294004E-01 0.15128550E+03</pdfrwt>
<totfact> 0.38182786E+04</totfact>
</mgrwt>
</event>
<event>
 5    1  0.1959123E+000  0.1784631E+03  0.7546771E-02  0.1169299E+00
         21   -1    0    0  503  502  0.00000000000E+00  0.00000000000E+00  0.14710358724E+03  0.14710358724E+03  0.00000000000E+00 0. -1.
         21   -1    0    0  501  503 -0.00000000000E+00 -0.00000000000E+00 -0.24897657907E+03  0.24897657907E+03  0.00000000000E+00 0. -1.
         24    1    1    2    0    0  0.84150875918E+02 -0.10060771157E+03 -0.55422408479E+02  0.16353024448E+03  0.80419002446E+02 0. -1.
          1    1    1    2  501    0 -0.29579393321E+01  0.11964300175E+03 -0.78589903014E+02  0.14317670945E+03  0.00000000000E+00 0. -1.
         -2    1    1    2    0  502 -0.81192936586E+02 -0.19035290181E+02  0.32139319655E+02  0.89373212383E+02  0.00000000000E+00 0.  1.
<mgrwt>
<rscale>  2 0.17846311E+03</rscale>
<asrwt>0</asrwt>
<pdfrwt beam="1">  1       21 0.22631321E-01 0.17846311E+03</pdfrwt>
<pdfrwt beam="2">  1       21 0.38304089E-01 0.17846311E+03</pdfrwt>
<totfact> 0.12087628E+05</totfact>
</mgrwt>
</event>
<event>
 5    1  0.1959123E+000  0.7473034E+02  0.7546771E-02  0.1344708E+00
         21   -1    0    0  503  502  0.00000000000E+00  0.00000000000E+00  0.11462662742E+03  0.11462662742E+03  0.00000000000E+00 0.  1.
         21   -1    0    0  501  503 -0.00000000000E+00 -0.00000000000E+00 -0.66702423662E+02  0.66702423662E+02  0.00000000000E+00 0.  1.
         24    1    1    2    0    0  0.19050822147E+02  0.11680052617E+02 -0.11113463453E+02  0.84202627500E+02  0.80419002446E+02 0.  1.
          1    1    1    2  501    0  0.11631802236E+02 -0.28657541315E+02  0.30693301798E+01  0.31080126854E+02  0.00000000000E+00 0. -1.
         -2    1    1    2    0  502 -0.30682624383E+02  0.16977488698E+02  0.55968337028E+02  0.66046296725E+02  0.00000000000E+00 0.  1.
<mgrwt>
<rscale>  2 0.74730344E+02</rscale>
<asrwt>0</asrwt>
<pdfrwt beam="1">  1       21 0.17634866E-01 0.74730344E+02</pdfrwt>
<pdfrwt beam="2">  1       21 0.10261911E-01 0.74730344E+02</pdfrwt>
<totfact> 0.21970219E+06</totfact>
</mgrwt>
</event>
<event>
 5    1  0.1959123E+000  0.8604646E+02  0.7546771E-02  0.1312718E+00
         21   -1    0    0  503  502  0.00000000000E+00  0.00000000000E+00  0.22048674104E+04  0.22048674104E+04  0.00000000000E+00 0. -1.
         21   -1    0    0  501  503 -0.00000000000E+00 -0.00000000000E+00 -0.84743468370E+01  0.84743468370E+01  0.00000000000E+00 0. -1.
         24    1    1    2    0    0 -0.34918217963E+02 -0.42273174039E+02  0.16607391361E+04  0.16635888907E+04  0.80419002446E+02 0. -1.
          1    1    1    2  501    0  0.45037012504E+02  0.18068560863E+02  0.81578922326E+02  0.94920629764E+02  0.00000000000E+00 0. -1.
         -2    1    1    2    0  502 -0.10118794541E+02  0.24204613176E+02  0.45407500515E+03  0.45483223677E+03  0.00000000000E+00 0.  1.
<mgrwt>
<rscale>  2 0.86046462E+02</rscale>
<asrwt>0</asrwt>
<pdfrwt beam="1">  1       21 0.33920991E+00 0.86046462E+02</pdfrwt>
<pdfrwt beam="2">  1       21 0.13037474E-02 0.86046462E+02</pdfrwt>
<totfact> 0.57495889E+04</totfact>
</mgrwt>
</event>
<event>
 5    1  0.1959123E+000  0.8334621E+02  0.7546771E-02  0.1319815E+00
         21   -1    0    0  501  502  0.00000000000E+00  0.00000000000E+00  0.14783685846E+03  0.14783685846E+03  0.00000000000E+00 0. -1.
         21   -1    0    0  502  503 -0.00000000000E+00 -0.00000000000E+00 -0.12143595393E+03  0.12143595393E+03  0.00000000000E+00 0.  1.
         24    1    1    2    0    0  0.16631780956E+02 -0.34585246296E+02  0.57513564447E+02  0.10605555831E+03  0.80419002446E+02 0.  0.
          1    1    1    2  501    0 -0.36971159810E+02 -0.56466169891E+00  0.55998786337E+02  0.67104765642E+02  0.00000000000E+00 0. -1.
         -2    1    1    2    0  503  0.20339378855E+02  0.35149907995E+02 -0.87111446253E+02  0.96112488432E+02  0.00000000000E+00 0.  1.
<mgrwt>
<rscale>  2 0.83346205E+02</rscale>
<asrwt>0</asrwt>
<pdfrwt beam="1">  1       21 0.22744132E-01 0.83346205E+02</pdfrwt>
<pdfrwt beam="2">  1       21 0.18682454E-01 0.83346205E+02</pdfrwt>
<totfact> 0.48013181E+05</totfact>
</mgrwt>
</event>
<event>
 5    1  0.1959123E+000  0.1045094E+03  0.7546771E-02  0.1271089E+00
         21   -1    0    0  501  502  0.00000000000E+00  0.00000000000E+00  0.43325924186E+03  0.43325924186E+03  0.00000000000E+00 0.  1.
         21   -1    0    0  502  503 -0.00000000000E+00 -0.00000000000E+00 -0.34743081198E+02  0.34743081198E+02  0.00000000000E+00 0.  1.
         24    1    1    2    0    0  0.82905392759E+02 -0.22466887058E+02  0.30805472914E+03  0.32976203126E+03  0.80419002446E+02 0.  1.
          1    1    1    2  501    0 -0.63185927225E+02  0.30373631023E+02  0.93408690261E+02  0.11679127655E+03  0.00000000000E+00 0. -1.
         -2    1    1    2    0  503 -0.19719465533E+02 -0.79067439645E+01 -0.29472587415E+01  0.21449015248E+02  0.00000000000E+00 0.  1.
<mgrwt>
<rscale>  2 0.10450937E+03</rscale>
<asrwt>0</asrwt>
<pdfrwt beam="1">  1       21 0.66655264E-01 0.10450937E+03</pdfrwt>
<pdfrwt beam="2">  1       21 0.53450897E-02 0.10450937E+03</pdfrwt>
<totfact> 0.50143875E+05</totfact>
</mgrwt>
</event>
<event>
 5    1  0.1959123E+000  0.8391137E+02  0.7546771E-02  0.1318304E+00
         21   -1    0    0  503  502  0.00000000000E+00  0.00000000000E+00  0.47495230083E+03  0.47495230083E+03  0.00000000000E+00 0.  1.
         21   -1    0    0  501  503 -0.00000000000E+00 -0.00000000000E+00 -0.29079750946E+02  0.29079750946E+02  0.00000000000E+00 0. -1.
         24    1    1    2    0    0  0.22165213594E+02 -0.31917938860E+02  0.23159575179E+03  0.24822139255E+03  0.80419002446E+02 0. -1.
          1    1    1    2  501    0 -0.28852614468E+02  0.50829810926E+02  0.21938995653E+02  0.62429660985E+02  0.00000000000E+00 0. -1.
         -2    1    1    2    0  502  0.66874008742E+01 -0.18911872065E+02  0.19233780244E+03  0.19338099824E+03  0.00000000000E+00 0.  1.
<mgrwt>
<rscale>  2 0.83911374E+02</rscale>
<asrwt>0</asrwt>
<pdfrwt beam="1">  1       21 0.73069579E-01 0.83911374E+02</pdfrwt>
<pdfrwt beam="2">  1       21 0.44738082E-02 0.83911374E+02</pdfrwt>
<totfact> 0.55350928E+05</totfact>
</mgrwt>
</event>
<event>
 5    1  0.1959123E+000  0.7760286E+02  0.7546771E-02  0.1335995E+00
         21   -1    0    0  501  502  0.00000000000E+00  0.00000000000E+00  0.63663283110E+02  0.63663283110E+02  0.00000000000E+00 0. -1.
         21   -1    0    0  502  503 -0.00000000000E+00 -0.00000000000E+00 -0.32647284203E+03  0.32647284203E+03  0.00000000000E+00 0. -1.
         24    1    1    2    0    0 -0.21143489408E+02 -0.97854702356E+01 -0.26244006475E+03  0.27547196974E+03  0.80419002446E+02 0. -1.
          1    1    1    2  501    0 -0.21842702599E+02 -0.10162038832E+02  0.43732213586E+02  0.49928721145E+02  0.00000000000E+00 0. -1.
         -2    1    1    2    0  503  0.42986192008E+02  0.19947509067E+02 -0.44101707760E+02  0.64735434259E+02  0.00000000000E+00 0.  1.
<mgrwt>
<rscale>  2 0.77602861E+02</rscale>
<asrwt>0</asrwt>
<pdfrwt beam="1">  1       21 0.97943511E-02 0.77602861E+02</pdfrwt>
<pdfrwt beam="2">  1       21 0.50226592E-01 0.77602861E+02</pdfrwt>
<totfact> 0.32470676E+05</totfact>
</mgrwt>
</event>
<event>
 5    1  0.1959123E+000  0.7048966E+02  0.7546771E-02  0.1358436E+00
         21   -1    0    0  503  502  0.00000000000E+00  0.00000000000E+00  0.43313307350E+02  0.43313307350E+02  0.00000000000E+00 0.  1.
         21   -1    0    0  501  503 -0.00000000000E+00 -0.00000000000E+00 -0.26697383752E+03  0.26697383752E+03  0.00000000000E+00 0. -1.
         24    1    1    2    0    0 -0.34554531237E+02  0.11585311164E+02 -0.12593735073E+03  0.15380398996E+03  0.80419002446E+02 0.  1.
          1    1    1    2  501    0  0.16905959072E+02  0.13763428770E+02 -0.11769786396E+03  0.11969975190E+03  0.00000000000E+00 0. -1.
         -2    1    1    2    0  502  0.17648572165E+02 -0.25348739934E+02  0.19974684519E+02  0.36783403014E+02  0.00000000000E+00 0.  1.
<mgrwt>
<rscale>  2 0.70489659E+02</rscale>
<asrwt>0</asrwt>
<pdfrwt beam="1">  1       21 0.66635858E-02 0.70489659E+02</pdfrwt>
<pdfrwt beam="2">  1       21 0.41072898E-01 0.70489659E+02</pdfrwt>
<totfact> 0.93419275E+05</totfact>
</mgrwt>
</event>
<event>
 5    1  0.1959123E+000  0.8933675E+02  0.7546771E-02  0.1304466E+00
         21   -1    0    0  501  502  0.00000000000E+00  0.00000000000E+00  0.47491992711E+02  0.47491992711E+02  0.00000000000E+00 0.  1.
         21   -1    0    0  502  503 -0.00000000000E+00 -0.00000000000E+00 -0.31129715668E+03  0.31129715668E+03  0.00000000000E+00 0. -1.
         24    1    1    2    0    0  0.30609483412E+01  0.19953890595E+02 -0.12286404154E+02  0.83819441874E+02  0.80419002446E+02 0.  1.
          1    1    1    2  501    0 -0.49673476825E+01  0.37724209103E+02 -0.37945217195E+02  0.53736672798E+02  0.00000000000E+00 0. -1.
         -2    1    1    2    0  503  0.19063993413E+01 -0.57678099698E+02 -0.21357354262E+03  0.22123303472E+03  0.00000000000E+00 0.  1.
<mgrwt>
<rscale>  2 0.89336755E+02</rscale>
<asrwt>0</asrwt>
<pdfrwt beam="1">  1       21 0.73064603E-02 0.89336755E+02</pdfrwt>
<pdfrwt beam="2">  1       21 0.47891871E-01 0.89336755E+02</pdfrwt>
<totfact> 0.59008978E+05</totfact>
</mgrwt>
</event>
<event>
 5    1  0.1959123E+000  0.6343447E+02  0.7546771E-02  0.1383959E+00
         21   -1    0    0  503  502  0.00000000000E+00  0.00000000000E+00  0.83970092141E+02  0.83970092141E+02  0.00000000000E+00 0. -1.
         21   -1    0    0  501  503 -0.00000000000E+00 -0.00000000000E+00 -0.76465229350E+02  0.76465229350E+02  0.00000000000E+00 0.  1.
         24    1    1    2    0    0 -0.41037245520E+01 -0.48813682236E+01  0.38377335948E+02  0.89334787064E+02  0.80419002446E+02 0. -1.
          1    1    1    2  501    0 -0.17691875112E+02  0.14010114046E+02 -0.39871325372E+02  0.45814935637E+02  0.00000000000E+00 0. -1.
         -2    1    1    2    0  502  0.21795599664E+02 -0.91287458226E+01  0.89988522149E+01  0.25285598791E+02  0.00000000000E+00 0.  1.
<mgrwt>
<rscale>  2 0.63434465E+02</rscale>
<asrwt>0</asrwt>
<pdfrwt beam="1">  1       21 0.12918476E-01 0.63434465E+02</pdfrwt>
<pdfrwt beam="2">  1       21 0.11763881E-01 0.63434465E+02</pdfrwt>
<totfact> 0.29826100E+06</totfact>
</mgrwt>
</event>
<event>
 5    1  0.1959123E+000  0.9901077E+02  0.7546771E-02  0.1282390E+00
         21   -1    0    0  503  502  0.00000000000E+00  0.00000000000E+00  0.92177771255E+03  0.92177771255E+03  0.00000000000E+00 0. -1.
         21   -1    0    0  501  503 -0.00000000000E+00 -0.00000000000E+00 -0.21963038009E+02  0.21963038009E+02  0.00000000000E+00 0.  1.
         24    1    1    2    0    0  0.43334470151E+02 -0.63155503603E+02  0.24118451889E+03  0.26552529454E+03  0.80419002446E+02 0.  0.
          1    1    1    2  501    0 -0.45895893190E+02  0.32585547093E+02  0.74963352258E+02  0.93743026796E+02  0.00000000000E+00 0. -1.
         -2    1    1    2    0  502  0.25614230386E+01  0.30569956510E+02  0.58366680339E+03  0.58447242922E+03  0.00000000000E+00 0.  1.
<mgrwt>
<rscale>  2 0.99010767E+02</rscale>
<asrwt>0</asrwt>
<pdfrwt beam="1">  1       21 0.14181193E+00 0.99010767E+02</pdfrwt>
<pdfrwt beam="2">  1       21 0.33789296E-02 0.99010767E+02</pdfrwt>
<totfact> 0.18687429E+05</totfact>
</mgrwt>
</event>
<event>
 5    1  0.1959123E+000  0.8092588E+02  0.7546771E-02  0.1326444E+00
         21   -1    0    0  501  502  0.00000000000E+00  0.00000000000E+00  0.26367146538E+03  0.26367146538E+03  0.00000000000E+00 0. -1.
         21   -1    0    0  502  503 -0.00000000000E+00 -0.00000000000E+00 -0.60852931088E+02  0.60852931088E+02  0.00000000000E+00 0. -1.
         24    1    1    2    0    0  0.27636378989E+02  0.37204396264E+02 -0.15543378838E+02  0.94110302970E+02  0.80419002446E+02 0. -1.
          1    1    1    2  501    0 -0.19899024288E+01 -0.42748701282E+02  0.17095658393E+03  0.17623156574E+03  0.00000000000E+00 0. -1.
         -2    1    1    2    0  503 -0.25646476560E+02  0.55443050184E+01  0.47405329203E+02  0.54182527764E+02  0.00000000000E+00 0.  1.
<mgrwt>
<rscale>  2 0.80925879E+02</rscale>
<asrwt>0</asrwt>
<pdfrwt beam="1">  1       21 0.40564840E-01 0.80925879E+02</pdfrwt>
<pdfrwt beam="2">  1       21 0.93619896E-02 0.80925879E+02</pdfrwt>
<totfact> 0.53845776E+05</totfact>
</mgrwt>
</event>
<event>
 5    1  0.1959123E+000  0.6807690E+02  0.7546771E-02  0.1366757E+00
         21   -1    0    0  501  502  0.00000000000E+00  0.00000000000E+00  0.24735417600E+02  0.24735417600E+02  0.00000000000E+00 0. -1.
         21   -1    0    0  502  503 -0.00000000000E+00 -0.00000000000E+00 -0.98036840220E+03  0.98036840220E+03  0.00000000000E+00 0.  1.
         24    1    1    2    0    0 -0.30095113299E+02 -0.22059280979E+02 -0.76299927878E+03  0.76813243851E+03  0.80419002446E+02 0.  1.
          1    1    1    2  501    0  0.22003615480E+02 -0.20210996221E+01  0.15692752058E+02  0.27101778632E+02  0.00000000000E+00 0. -1.
         -2    1    1    2    0  503  0.80914978185E+01  0.24080380602E+02 -0.20832645788E+03  0.20986960266E+03  0.00000000000E+00 0.  1.
<mgrwt>
<rscale>  2 0.68076898E+02</rscale>
<asrwt>0</asrwt>
<pdfrwt beam="1">  1       21 0.38054482E-02 0.68076898E+02</pdfrwt>
<pdfrwt beam="2">  1       21 0.15082593E+00 0.68076898E+02</pdfrwt>
<totfact> 0.13424092E+05</totfact>
</mgrwt>
</event>
<event>
 5    1  0.1959123E+000  0.1332014E+03  0.7546771E-02  0.1222781E+00
         21   -1    0    0  503  502  0.00000000000E+00  0.00000000000E+00  0.56750329771E+03  0.56750329771E+03  0.00000000000E+00 0.  1.
         21   -1    0    0  501  503 -0.00000000000E+00 -0.00000000000E+00 -0.98550587806E+03  0.98550587806E+03  0.00000000000E+00 0. -1.
         24    1    1    2    0    0 -0.45449360860E+02  0.28675813552E+02  0.81851891046E+02  0.12670791099E+03  0.80419002446E+02 0.  0.
          1    1    1    2  501    0 -0.15149650718E+02  0.60219133851E+02 -0.95581003936E+03  0.95782497741E+03  0.00000000000E+00 0. -1.
         -2    1    1    2    0  502  0.60599011578E+02 -0.88894947403E+02  0.45595556796E+03  0.46847628738E+03  0.00000000000E+00 0.  1.
<mgrwt>
<rscale>  2 0.13320136E+03</rscale>
<asrwt>0</asrwt>
<pdfrwt beam="1">  1       21 0.87308201E-01 0.13320136E+03</pdfrwt>
<pdfrwt beam="2">  1       21 0.15161629E+00 0.13320136E+03</pdfrwt>
<totfact> 0.35575021E+02</totfact>
</mgrwt>
</event>
<event>
 5    1  0.1959123E+000  0.8314567E+02  0.7546771E-02  0.1320354E+00
         21   -1    0    0  503  502  0.00000000000E+00  0.00000000000E+00  0.13726836454E+03  0.13726836454E+03  0.00000000000E+00 0.  1.
         21   -1    0    0  501  503 -0.00000000000E+00 -0.00000000000E+00 -0.69752489860E+02  0.69752489860E+02  0.00000000000E+00 0.  1.
         24    1    1    2    0    0  0.38329561424E+02  0.40678203740E+02 -0.13252314635E+02  0.98826673201E+02  0.80419002446E+02 0.  1.
          1    1    1    2  501    0 -0.18027436887E+02 -0.44215438872E+02  0.39126988680E+02  0.61732606931E+02  0.00000000000E+00 0. -1.
         -2    1    1    2    0  502 -0.20302124538E+02  0.35372351323E+01  0.41641200630E+02  0.46461574263E+02  0.00000000000E+00 0.  1.
<mgrwt>
<rscale>  2 0.83145671E+02</rscale>
<asrwt>0</asrwt>
<pdfrwt beam="1">  1       21 0.21118210E-01 0.83145671E+02</pdfrwt>
<pdfrwt beam="2">  1       21 0.10731152E-01 0.83145671E+02</pdfrwt>
<totfact> 0.14716009E+06</totfact>
</mgrwt>
</event>
<event>
 5    1  0.1959123E+000  0.9007622E+02  0.7546771E-02  0.1302667E+00
         21   -1    0    0  501  502  0.00000000000E+00  0.00000000000E+00  0.25181452957E+02  0.25181452957E+02  0.00000000000E+00 0. -1.
         21   -1    0    0  502  503 -0.00000000000E+00 -0.00000000000E+00 -0.42395182960E+03  0.42395182960E+03  0.00000000000E+00 0. -1.
         24    1    1    2    0    0 -0.51092800839E+02  0.29309384834E+02 -0.10882840455E+03  0.14758167884E+03  0.80419002446E+02 0. -1.
          1    1    1    2  501    0  0.30008781970E+02  0.13380450695E+02 -0.84468383462E+02  0.90633720329E+02  0.00000000000E+00 0. -1.
         -2    1    1    2    0  503  0.21084018869E+02 -0.42689835529E+02 -0.20547358863E+03  0.21091788339E+03  0.00000000000E+00 0.  1.
<mgrwt>
<rscale>  2 0.90076221E+02</rscale>
<asrwt>0</asrwt>
<pdfrwt beam="1">  1       21 0.38740699E-02 0.90076221E+02</pdfrwt>
<pdfrwt beam="2">  1       21 0.65223354E-01 0.90076221E+02</pdfrwt>
<totfact> 0.89610192E+05</totfact>
</mgrwt>
</event>
<event>
 5    1  0.1959123E+000  0.1156880E+03  0.7546771E-02  0.1250385E+00
         21   -1    0    0  503  502  0.00000000000E+00  0.00000000000E+00  0.56995744516E+02  0.56995744516E+02  0.00000000000E+00 0.  1.
         21   -1    0    0  501  503 -0.00000000000E+00 -0.00000000000E+00 -0.25966691172E+03  0.25966691172E+03  0.00000000000E+00 0.  1.
         24    1    1    2    0    0  0.55470206859E+02 -0.53015898612E+01 -0.76449504911E+02  0.12416438080E+03  0.80419002446E+02 0.  1.
          1    1    1    2  501    0  0.19126284384E+02  0.45100710038E+02 -0.85760492985E+02  0.98766142768E+02  0.00000000000E+00 0. -1.
         -2    1    1    2    0  502 -0.74596491243E+02 -0.39799120177E+02 -0.40461169308E+02  0.93732132667E+02  0.00000000000E+00 0.  1.
<mgrwt>
<rscale>  2 0.11568803E+03</rscale>
<asrwt>0</asrwt>
<pdfrwt beam="1">  1       21 0.87685761E-02 0.11568803E+03</pdfrwt>
<pdfrwt beam="2">  1       21 0.39948756E-01 0.11568803E+03</pdfrwt>
<totfact> 0.62158160E+05</totfact>
</mgrwt>
</event>
<event>
 5    1  0.1959123E+000  0.9120463E+02  0.7546771E-02  0.1299960E+00
         21   -1    0    0  503  502  0.00000000000E+00  0.00000000000E+00  0.87192728247E+02  0.87192728247E+02  0.00000000000E+00 0.  1.
         21   -1    0    0  501  503 -0.00000000000E+00 -0.00000000000E+00 -0.12070615899E+03  0.12070615899E+03  0.00000000000E+00 0.  1.
         24    1    1    2    0    0  0.68053134537E+02  0.27081690120E+02 -0.47780428361E+02  0.11880585991E+03  0.80419002446E+02 0.  1.
          1    1    1    2  501    0 -0.20052853110E+02 -0.43276057259E+01 -0.17700690561E+02  0.27095378490E+02  0.00000000000E+00 0. -1.
         -2    1    1    2    0  502 -0.48000281427E+02 -0.22754084394E+02  0.31967688181E+02  0.61997648837E+02  0.00000000000E+00 0.  1.
<mgrwt>
<rscale>  2 0.91204631E+02</rscale>
<asrwt>0</asrwt>
<pdfrwt beam="1">  1       21 0.13414266E-01 0.91204631E+02</pdfrwt>
<pdfrwt beam="2">  1       21 0.18570178E-01 0.91204631E+02</pdfrwt>
<totfact> 0.12623178E+06</totfact>
</mgrwt>
</event>
<event>
 5    1  0.1959123E+000  0.1160535E+03  0.7546771E-02  0.1249753E+00
         21   -1    0    0  501  502  0.00000000000E+00  0.00000000000E+00  0.25396070490E+03  0.25396070490E+03  0.00000000000E+00 0. -1.
         21   -1    0    0  502  503 -0.00000000000E+00 -0.00000000000E+00 -0.32917808337E+03  0.32917808337E+03  0.00000000000E+00 0.  1.
         24    1    1    2    0    0  0.98979507762E+02 -0.12675047984E+02 -0.29211543033E+03  0.31899253971E+03  0.80419002446E+02 0.  0.
          1    1    1    2  501    0 -0.54721264724E+02 -0.76356726114E+01  0.20726953149E+03  0.21450729356E+03  0.00000000000E+00 0. -1.
         -2    1    1    2    0  503 -0.44258243038E+02  0.20310720595E+02  0.96285203721E+01  0.49638954989E+02  0.00000000000E+00 0.  1.
<mgrwt>
<rscale>  2 0.11605347E+03</rscale>
<asrwt>0</asrwt>
<pdfrwt beam="1">  1       21 0.39070878E-01 0.11605347E+03</pdfrwt>
<pdfrwt beam="2">  1       21 0.50642782E-01 0.11605347E+03</pdfrwt>
<totfact> 0.24608686E+04</totfact>
</mgrwt>
</event>
<event>
 5    1  0.1959123E+000  0.6733930E+02  0.7546771E-02  0.1369382E+00
         21   -1    0    0  501  502  0.00000000000E+00  0.00000000000E+00  0.20113067754E+03  0.20113067754E+03  0.00000000000E+00 0.  1.
         21   -1    0    0  502  503 -0.00000000000E+00 -0.00000000000E+00 -0.23486382923E+02  0.23486382923E+02  0.00000000000E+00 0. -1.
         24    1    1    2    0    0  0.20621451654E+02 -0.29490155358E+02  0.97527108612E+02  0.13142932093E+03  0.80419002446E+02 0. -1.
          1    1    1    2  501    0  0.11991944884E+01  0.24059503925E+02  0.50960652686E+02  0.56367418947E+02  0.00000000000E+00 0. -1.
         -2    1    1    2    0  503 -0.21820646142E+02  0.54306514329E+01  0.29156533322E+02  0.36820320591E+02  0.00000000000E+00 0.  1.
<mgrwt>
<rscale>  2 0.67339297E+02</rscale>
<asrwt>0</asrwt>
<pdfrwt beam="1">  1       21 0.30943180E-01 0.67339297E+02</pdfrwt>
<pdfrwt beam="2">  1       21 0.36132898E-02 0.67339297E+02</pdfrwt>
<totfact> 0.44270369E+06</totfact>
</mgrwt>
</event>
<event>
 5    1  0.1959123E+000  0.7266408E+02  0.7546771E-02  0.1351261E+00
         21   -1    0    0  501  502  0.00000000000E+00  0.00000000000E+00  0.75860549315E+03  0.75860549315E+03  0.00000000000E+00 0.  1.
         21   -1    0    0  502  503 -0.00000000000E+00 -0.00000000000E+00 -0.15008900842E+02  0.15008900842E+02  0.00000000000E+00 0.  1.
         24    1    1    2    0    0 -0.10923115124E+02  0.11688956989E+01  0.16457000951E+03  0.18349709738E+03  0.80419002446E+02 0. -1.
          1    1    1    2  501    0  0.22946694262E+02  0.25864074262E+02  0.54018732218E+03  0.54129275273E+03  0.00000000000E+00 0. -1.
         -2    1    1    2    0  503 -0.12023579138E+02 -0.27032969961E+02  0.38839260616E+02  0.48824543883E+02  0.00000000000E+00 0.  1.
<mgrwt>
<rscale>  2 0.72664079E+02</rscale>
<asrwt>0</asrwt>
<pdfrwt beam="1">  1       21 0.11670851E+00 0.72664079E+02</pdfrwt>
<pdfrwt beam="2">  1       21 0.23090623E-02 0.72664079E+02</pdfrwt>
<totfact> 0.56157415E+05</totfact>
</mgrwt>
</event>
<event>
 5    1  0.1959123E+000  0.7403273E+02  0.7546771E-02  0.1346893E+00
         21   -1    0    0  501  502  0.00000000000E+00  0.00000000000E+00  0.22375308741E+03  0.22375308741E+03  0.00000000000E+00 0.  1.
         21   -1    0    0  502  503 -0.00000000000E+00 -0.00000000000E+00 -0.40242703279E+02  0.40242703279E+02  0.00000000000E+00 0. -1.
         24    1    1    2    0    0  0.14866244987E+02  0.40122447682E+02  0.51596943191E+02  0.10469133942E+03  0.80419002446E+02 0. -1.
          1    1    1    2  501    0 -0.20054406069E+02 -0.39630560114E+01  0.11871708841E+03  0.12046423575E+03  0.00000000000E+00 0. -1.
         -2    1    1    2    0  503  0.51881610822E+01 -0.36159391671E+02  0.13196352534E+02  0.38840215520E+02  0.00000000000E+00 0.  1.
<mgrwt>
<rscale>  2 0.74032733E+02</rscale>
<asrwt>0</asrwt>
<pdfrwt beam="1">  1       21 0.34423551E-01 0.74032733E+02</pdfrwt>
<pdfrwt beam="2">  1       21 0.61911853E-02 0.74032733E+02</pdfrwt>
<totfact> 0.14934033E+06</totfact>
</mgrwt>
</event>
<event>
 5    1  0.1959123E+000  0.9374175E+02  0.7546771E-02  0.1294035E+00
         21   -1    0    0  501  502  0.00000000000E+00  0.00000000000E+00  0.50741142510E+03  0.50741142510E+03  0.00000000000E+00 0. -1.
         21   -1    0    0  502  503 -0.00000000000E+00 -0.00000000000E+00 -0.47758781903E+02  0.47758781903E+02  0.00000000000E+00 0.  1.
         24    1    1    2    0    0  0.36584840109E+02  0.57309599374E+02  0.19552474193E+03  0.22208102433E+03  0.80419002446E+02 0. -1.
          1    1    1    2  501    0 -0.42305942546E+02 -0.24538394401E+02  0.28801289397E+03  0.29213584625E+03  0.00000000000E+00 0. -1.
         -2    1    1    2    0  503  0.57211024364E+01 -0.32771204973E+02 -0.23884992694E+02  0.40953336426E+02  0.00000000000E+00 0.  1.
<mgrwt>
<rscale>  2 0.93741749E+02</rscale>
<asrwt>0</asrwt>
<pdfrwt beam="1">  1       21 0.78063293E-01 0.93741749E+02</pdfrwt>
<pdfrwt beam="2">  1       21 0.73475052E-02 0.93741749E+02</pdfrwt>
<totfact> 0.20825618E+05</totfact>
</mgrwt>
</event>
<event>
 5    1  0.1959123E+000  0.7435212E+02  0.7546771E-02  0.1345889E+00
         21   -1    0    0  503  502  0.00000000000E+00  0.00000000000E+00  0.55098373612E+02  0.55098373612E+02  0.00000000000E+00 0. -1.
         21   -1    0    0  501  503 -0.00000000000E+00 -0.00000000000E+00 -0.26318576327E+03  0.26318576327E+03  0.00000000000E+00 0. -1.
         24    1    1    2    0    0  0.33165281377E+02  0.26296688001E+02 -0.63931656284E+02  0.11111221498E+03  0.80419002446E+02 0.  0.
          1    1    1    2  501    0 -0.27497271287E+02  0.32980948993E+01 -0.16704899692E+03  0.16932910184E+03  0.00000000000E+00 0. -1.
         -2    1    1    2    0  502 -0.56680100901E+01 -0.29594782901E+02  0.22893263553E+02  0.37842820051E+02  0.00000000000E+00 0.  1.
<mgrwt>
<rscale>  2 0.74352117E+02</rscale>
<asrwt>0</asrwt>
<pdfrwt beam="1">  1       21 0.84766728E-02 0.74352117E+02</pdfrwt>
<pdfrwt beam="2">  1       21 0.40490118E-01 0.74352117E+02</pdfrwt>
<totfact> 0.64026101E+05</totfact>
</mgrwt>
</event>
<event>
 5    1  0.1959123E+000  0.7621031E+02  0.7546771E-02  0.1340164E+00
         21   -1    0    0  503  502  0.00000000000E+00  0.00000000000E+00  0.78740335204E+03  0.78740335204E+03  0.00000000000E+00 0.  1.
         21   -1    0    0  501  503 -0.00000000000E+00 -0.00000000000E+00 -0.82110288995E+01  0.82110288995E+01  0.00000000000E+00 0. -1.
         24    1    1    2    0    0 -0.15408831596E+02  0.29499682666E+02  0.33191829786E+03  0.34313938243E+03  0.80419002446E+02 0. -1.
          1    1    1    2  501    0  0.36476372659E+02 -0.23827018002E+02  0.22857096985E+03  0.23268635716E+03  0.00000000000E+00 0. -1.
         -2    1    1    2    0  502 -0.21067541063E+02 -0.56726646638E+01  0.21870305543E+03  0.21978864135E+03  0.00000000000E+00 0.  1.
<mgrwt>
<rscale>  2 0.76210307E+02</rscale>
<asrwt>0</asrwt>
<pdfrwt beam="1">  1       21 0.12113892E+00 0.76210307E+02</pdfrwt>
<pdfrwt beam="2">  1       21 0.12632358E-02 0.76210307E+02</pdfrwt>
<totfact> 0.13355049E+06</totfact>
</mgrwt>
</event>
<event>
 5    1  0.1959123E+000  0.1506679E+03  0.7546771E-02  0.1199655E+00
         21   -1    0    0  501  502  0.00000000000E+00  0.00000000000E+00  0.38614143795E+03  0.38614143795E+03  0.00000000000E+00 0. -1.
         21   -1    0    0  502  503 -0.00000000000E+00 -0.00000000000E+00 -0.11214539533E+03  0.11214539533E+03  0.00000000000E+00 0. -1.
         24    1    1    2    0    0  0.57282133781E+02 -0.85872384413E+02 -0.23046714246E+02  0.13286713757E+03  0.80419002446E+02 0. -1.
          1    1    1    2  501    0 -0.33398679164E+02  0.12238069719E+03  0.29571142749E+03  0.32177283161E+03  0.00000000000E+00 0. -1.
         -2    1    1    2    0  503 -0.23883454617E+02 -0.36508312779E+02  0.13313293743E+01  0.43646864084E+02  0.00000000000E+00 0.  1.
<mgrwt>
<rscale>  2 0.15066793E+03</rscale>
<asrwt>0</asrwt>
<pdfrwt beam="1">  1       21 0.59406374E-01 0.15066793E+03</pdfrwt>
<pdfrwt beam="2">  1       21 0.17253138E-01 0.15066793E+03</pdfrwt>
<totfact> 0.81797133E+04</totfact>
</mgrwt>
</event>
<event>
 5    1  0.1959123E+000  0.6462954E+02  0.7546771E-02  0.1379370E+00
         21   -1    0    0  503  502  0.00000000000E+00  0.00000000000E+00  0.13123096777E+02  0.13123096777E+02  0.00000000000E+00 0. -1.
         21   -1    0    0  501  503 -0.00000000000E+00 -0.00000000000E+00 -0.41766738198E+03  0.41766738198E+03  0.00000000000E+00 0.  1.
         24    1    1    2    0    0 -0.24460425510E+02  0.10602298376E+02 -0.24065650655E+03  0.25513426122E+03  0.80419002446E+02 0.  1.
          1    1    1    2  501    0  0.21716830202E+01 -0.20165895740E+02 -0.14052190773E+03  0.14197811842E+03  0.00000000000E+00 0. -1.
         -2    1    1    2    0  502  0.22288742490E+02  0.95635973645E+01 -0.23365870921E+02  0.33678099119E+02  0.00000000000E+00 0.  1.
<mgrwt>
<rscale>  2 0.64629538E+02</rscale>
<asrwt>0</asrwt>
<pdfrwt beam="1">  1       21 0.20189380E-02 0.64629538E+02</pdfrwt>
<pdfrwt beam="2">  1       21 0.64256520E-01 0.64629538E+02</pdfrwt>
<totfact> 0.26202348E+06</totfact>
</mgrwt>
</event>
<event>
 5    1  0.1959123E+000  0.7034072E+02  0.7546771E-02  0.1358938E+00
         21   -1    0    0  503  502  0.00000000000E+00  0.00000000000E+00  0.42078049163E+02  0.42078049163E+02  0.00000000000E+00 0.  1.
         21   -1    0    0  501  503 -0.00000000000E+00 -0.00000000000E+00 -0.53847479362E+03  0.53847479362E+03  0.00000000000E+00 0. -1.
         24    1    1    2    0    0  0.26380354152E+02  0.34433606112E+02 -0.57862828027E+02  0.10815229603E+03  0.80419002446E+02 0. -1.
          1    1    1    2  501    0 -0.22157224816E+02 -0.96477533910E+01 -0.44562253542E+03  0.44627734183E+03  0.00000000000E+00 0. -1.
         -2    1    1    2    0  502 -0.42231293363E+01 -0.24785852721E+02  0.70886189851E+01  0.26123204926E+02  0.00000000000E+00 0.  1.
<mgrwt>
<rscale>  2 0.70340717E+02</rscale>
<asrwt>0</asrwt>
<pdfrwt beam="1">  1       21 0.64735458E-02 0.70340717E+02</pdfrwt>
<pdfrwt beam="2">  1       21 0.82842278E-01 0.70340717E+02</pdfrwt>
<totfact> 0.22795190E+05</totfact>
</mgrwt>
</event>
<event>
 5    1  0.1959123E+000  0.6379241E+02  0.7546771E-02  0.1382572E+00
         21   -1    0    0  503  502  0.00000000000E+00  0.00000000000E+00  0.25535523828E+02  0.25535523828E+02  0.00000000000E+00 0. -1.
         21   -1    0    0  501  503 -0.00000000000E+00 -0.00000000000E+00 -0.29832844603E+03  0.29832844603E+03  0.00000000000E+00 0. -1.
         24    1    1    2    0    0 -0.95303165280E+01 -0.50350636907E+01 -0.10833444672E+03  0.13535046029E+03  0.80419002446E+02 0. -1.
          1    1    1    2  501    0  0.21582502885E+02 -0.12671650944E+02 -0.16519648679E+03  0.16708158012E+03  0.00000000000E+00 0. -1.
         -2    1    1    2    0  502 -0.12052186357E+02  0.17706714635E+02  0.73801130822E+00  0.21431929447E+02  0.00000000000E+00 0.  1.
<mgrwt>
<rscale>  2 0.63792414E+02</rscale>
<asrwt>0</asrwt>
<pdfrwt beam="1">  1       21 0.39285422E-02 0.63792414E+02</pdfrwt>
<pdfrwt beam="2">  1       21 0.45896683E-01 0.63792414E+02</pdfrwt>
<totfact> 0.17889620E+06</totfact>
</mgrwt>
</event>
<event>
 5    1  0.1959123E+000  0.1499595E+03  0.7546771E-02  0.1200523E+00
         21   -1    0    0  501  502  0.00000000000E+00  0.00000000000E+00  0.52435213253E+03  0.52435213253E+03  0.00000000000E+00 0. -1.
         21   -1    0    0  502  503 -0.00000000000E+00 -0.00000000000E+00 -0.93629722692E+02  0.93629722692E+02  0.00000000000E+00 0.  1.
         24    1    1    2    0    0  0.93174610626E+02  0.10071845668E+03  0.22656237013E+03  0.27680939127E+03  0.80419002446E+02 0.  1.
          1    1    1    2  501    0 -0.85951811996E+01 -0.28163252079E+02  0.22575186562E+03  0.22766411825E+03  0.00000000000E+00 0. -1.
         -2    1    1    2    0  503 -0.84579429426E+02 -0.72555204606E+02 -0.21591825913E+02  0.11350834570E+03  0.00000000000E+00 0.  1.
<mgrwt>
<rscale>  2 0.14995948E+03</rscale>
<asrwt>0</asrwt>
<pdfrwt beam="1">  1       21 0.80669557E-01 0.14995948E+03</pdfrwt>
<pdfrwt beam="2">  1       21 0.14404573E-01 0.14995948E+03</pdfrwt>
<totfact> 0.58175583E+04</totfact>
</mgrwt>
</event>
<event>
 5    1  0.1959123E+000  0.8679768E+02  0.7546771E-02  0.1310797E+00
         21   -1    0    0  501  502  0.00000000000E+00  0.00000000000E+00  0.32710784790E+02  0.32710784790E+02  0.00000000000E+00 0. -1.
         21   -1    0    0  502  503 -0.00000000000E+00 -0.00000000000E+00 -0.55941623326E+03  0.55941623326E+03  0.00000000000E+00 0.  1.
         24    1    1    2    0    0  0.67789742581E+02 -0.42849943483E+01 -0.11783670516E+03  0.15800795997E+03  0.80419002446E+02 0. -1.
          1    1    1    2  501    0 -0.33325716810E+02  0.58228647387E+01 -0.12215505546E+02  0.35968426855E+02  0.00000000000E+00 0. -1.
         -2    1    1    2    0  503 -0.34464025771E+02 -0.15378703904E+01 -0.39665323776E+03  0.39815063123E+03  0.00000000000E+00 0.  1.
<mgrwt>
<rscale>  2 0.86797685E+02</rscale>
<asrwt>0</asrwt>
<pdfrwt beam="1">  1       21 0.50324288E-02 0.86797685E+02</pdfrwt>
<pdfrwt beam="2">  1       21 0.86064030E-01 0.86797685E+02</pdfrwt>
<totfact> 0.31750478E+05</totfact>
</mgrwt>
</event>
<event>
 5    1  0.1959123E+000  0.8158462E+02  0.7546771E-02  0.1324614E+00
         21   -1    0    0  503  502  0.00000000000E+00  0.00000000000E+00  0.35825962637E+03  0.35825962637E+03  0.00000000000E+00 0.  1.
         21   -1    0    0  501  503 -0.00000000000E+00 -0.00000000000E+00 -0.32729488429E+03  0.32729488429E+03  0.00000000000E+00 0. -1.
         24    1    1    2    0    0 -0.23183139845E+02 -0.15391176926E+02 -0.52047671377E+01  0.85256388943E+02  0.80419002446E+02 0. -1.
          1    1    1    2  501    0  0.42130297393E+02  0.31976636819E+02 -0.27907838979E+03  0.28404614925E+03  0.00000000000E+00 0. -1.
         -2    1    1    2    0  502 -0.18947157548E+02 -0.16585459894E+02  0.31524789900E+03  0.31625197246E+03  0.00000000000E+00 0.  1.
<mgrwt>
<rscale>  2 0.81584625E+02</rscale>
<asrwt>0</asrwt>
<pdfrwt beam="1">  1       21 0.55116866E-01 0.81584625E+02</pdfrwt>
<pdfrwt beam="2">  1       21 0.50353059E-01 0.81584625E+02</pdfrwt>
<totfact> 0.12843671E+04</totfact>
</mgrwt>
</event>
<event>
 5    1  0.1959123E+000  0.7508733E+02  0.7546771E-02  0.1343601E+00
         21   -1    0    0  503  502  0.00000000000E+00  0.00000000000E+00  0.74837943923E+03  0.74837943923E+03  0.00000000000E+00 0.  1.
         21   -1    0    0  501  503 -0.00000000000E+00 -0.00000000000E+00 -0.44632397236E+02  0.44632397236E+02  0.00000000000E+00 0. -1.
         24    1    1    2    0    0  0.30531423025E+02 -0.93787188129E+01  0.53007656041E+02  0.10147490188E+03  0.80419002446E+02 0. -1.
          1    1    1    2  501    0 -0.24568462254E+01  0.29184367086E+02 -0.92040092637E+01  0.30699790913E+02  0.00000000000E+00 0. -1.
         -2    1    1    2    0  502 -0.28074576800E+02 -0.19805648273E+02  0.65994339522E+03  0.66083714368E+03  0.00000000000E+00 0.  1.
<mgrwt>
<rscale>  2 0.75087326E+02</rscale>
<asrwt>0</asrwt>
<pdfrwt beam="1">  1       21 0.11513529E+00 0.75087326E+02</pdfrwt>
<pdfrwt beam="2">  1       21 0.68665232E-02 0.75087326E+02</pdfrwt>
<totfact> 0.97127548E+04</totfact>
</mgrwt>
</event>
<event>
 5    1  0.1959123E+000  0.1040997E+03  0.7546771E-02  0.1271904E+00
         21   -1    0    0  503  502  0.00000000000E+00  0.00000000000E+00  0.89164958918E+03  0.89164958918E+03  0.00000000000E+00 0.  1.
         21   -1    0    0  501  503 -0.00000000000E+00 -0.00000000000E+00 -0.10415963422E+03  0.10415963422E+03  0.00000000000E+00 0. -1.
         24    1    1    2    0    0 -0.25353937126E+02  0.36377548023E+02  0.79080656680E+02  0.12119040533E+03  0.80419002446E+02 0.  0.
          1    1    1    2  501    0  0.10565910365E+02  0.38560970691E+02 -0.76331714170E+02  0.86169121561E+02  0.00000000000E+00 0. -1.
         -2    1    1    2    0  502  0.14788026761E+02 -0.74938518714E+02  0.78474101245E+03  0.78844969652E+03  0.00000000000E+00 0.  1.
<mgrwt>
<rscale>  2 0.10409968E+03</rscale>
<asrwt>0</asrwt>
<pdfrwt beam="1">  1       21 0.13717686E+00 0.10409968E+03</pdfrwt>
<pdfrwt beam="2">  1       21 0.16024560E-01 0.10409968E+03</pdfrwt>
<totfact> 0.14131529E+04</totfact>
</mgrwt>
</event>
<event>
 5    1  0.1959123E+000  0.8613130E+02  0.7546771E-02  0.1312500E+00
         21   -1    0    0  501  502  0.00000000000E+00  0.00000000000E+00  0.40356697535E+02  0.40356697535E+02  0.00000000000E+00 0.  1.
         21   -1    0    0  502  503 -0.00000000000E+00 -0.00000000000E+00 -0.23670530333E+03  0.23670530333E+03  0.00000000000E+00 0.  1.
         24    1    1    2    0    0  0.24954286133E+02  0.53121514572E+02 -0.17322672277E+03  0.19979821106E+03  0.80419002446E+02 0.  1.
          1    1    1    2  501    0 -0.28036533532E+02 -0.10448427290E+02 -0.32703300608E+01  0.30098370455E+02  0.00000000000E+00 0. -1.
         -2    1    1    2    0  503  0.30822473989E+01 -0.42673087281E+02 -0.19851552961E+02  0.47165419346E+02  0.00000000000E+00 0.  1.
<mgrwt>
<rscale>  2 0.86131297E+02</rscale>
<asrwt>0</asrwt>
<pdfrwt beam="1">  1       21 0.62087227E-02 0.86131297E+02</pdfrwt>
<pdfrwt beam="2">  1       21 0.36416200E-01 0.86131297E+02</pdfrwt>
<totfact> 0.13389968E+06</totfact>
</mgrwt>
</event>
<event>
 5    1  0.1959123E+000  0.1207200E+03  0.7546771E-02  0.1241914E+00
         21   -1    0    0  503  502  0.00000000000E+00  0.00000000000E+00  0.17901658037E+03  0.17901658037E+03  0.00000000000E+00 0. -1.
         21   -1    0    0  501  503 -0.00000000000E+00 -0.00000000000E+00 -0.19214647513E+03  0.19214647513E+03  0.00000000000E+00 0. -1.
         24    1    1    2    0    0 -0.55487629330E+02  0.84412254218E+02 -0.10991755331E+03  0.16956824629E+03  0.80419002446E+02 0. -1.
          1    1    1    2  501    0 -0.13922210534E+01 -0.40344050732E+02 -0.33698494406E+02  0.52584876478E+02  0.00000000000E+00 0. -1.
         -2    1    1    2    0  502  0.56879850383E+02 -0.44068203486E+02  0.13048615295E+03  0.14900993272E+03  0.00000000000E+00 0.  1.
<mgrwt>
<rscale>  2 0.12071997E+03</rscale>
<asrwt>0</asrwt>
<pdfrwt beam="1">  1       21 0.27541012E-01 0.12071997E+03</pdfrwt>
<pdfrwt beam="2">  1       21 0.29560996E-01 0.12071997E+03</pdfrwt>
<totfact> 0.14126416E+05</totfact>
</mgrwt>
</event>
<event>
 5    1  0.1959123E+000  0.7755848E+02  0.7546771E-02  0.1336126E+00
         21   -1    0    0  503  502  0.00000000000E+00  0.00000000000E+00  0.11842522849E+04  0.11842522849E+04  0.00000000000E+00 0. -1.
         21   -1    0    0  501  503 -0.00000000000E+00 -0.00000000000E+00 -0.54353776626E+01  0.54353776626E+01  0.00000000000E+00 0.  1.
         24    1    1    2    0    0  0.50477861875E+01  0.36535152816E+02  0.81444377219E+03  0.81923511372E+03  0.80419002446E+02 0.  0.
          1    1    1    2  501    0 -0.27689522693E+02 -0.34017743012E+02  0.22609308710E+03  0.23030848995E+03  0.00000000000E+00 0. -1.
         -2    1    1    2    0  502  0.22641736505E+02 -0.25174098049E+01  0.13828004793E+03  0.14014405889E+03  0.00000000000E+00 0.  1.
<mgrwt>
<rscale>  2 0.77558482E+02</rscale>
<asrwt>0</asrwt>
<pdfrwt beam="1">  1       21 0.18219245E+00 0.77558482E+02</pdfrwt>
<pdfrwt beam="2">  1       21 0.83621290E-03 0.77558482E+02</pdfrwt>
<totfact> 0.90287311E+05</totfact>
</mgrwt>
</event>
<event>
 5    1  0.1959123E+000  0.7397534E+02  0.7546771E-02  0.1347074E+00
         21   -1    0    0  501  502  0.00000000000E+00  0.00000000000E+00  0.10644654040E+03  0.10644654040E+03  0.00000000000E+00 0. -1.
         21   -1    0    0  502  503 -0.00000000000E+00 -0.00000000000E+00 -0.31551726521E+03  0.31551726521E+03  0.00000000000E+00 0.  1.
         24    1    1    2    0    0 -0.13642997319E+02  0.15732041625E+02  0.33832010094E+02  0.89696428975E+02  0.80419002446E+02 0. -1.
          1    1    1    2  501    0  0.36606731629E+02 -0.19706817107E+02  0.34416045882E+02  0.53971063129E+02  0.00000000000E+00 0. -1.
         -2    1    1    2    0  503 -0.22963734311E+02  0.39747754825E+01 -0.27731878079E+03  0.27829631351E+03  0.00000000000E+00 0.  1.
<mgrwt>
<rscale>  2 0.73975340E+02</rscale>
<asrwt>0</asrwt>
<pdfrwt beam="1">  1       21 0.16376391E-01 0.73975340E+02</pdfrwt>
<pdfrwt beam="2">  1       21 0.48541117E-01 0.73975340E+02</pdfrwt>
<totfact> 0.14141181E+05</totfact>
</mgrwt>
</event>
<event>
 5    1  0.1959123E+000  0.6949302E+02  0.7546771E-02  0.1361826E+00
         21   -1    0    0  503  502  0.00000000000E+00  0.00000000000E+00  0.27286508151E+02  0.27286508151E+02  0.00000000000E+00 0.  1.
         21   -1    0    0  501  503 -0.00000000000E+00 -0.00000000000E+00 -0.31769548842E+03  0.31769548842E+03  0.00000000000E+00 0.  1.
         24    1    1    2    0    0  0.42322081850E+02 -0.16467578145E+02 -0.27368852319E+03  0.28885110944E+03  0.80419002446E+02 0.  1.
          1    1    1    2  501    0 -0.25788128050E+02  0.43995306840E+01 -0.22879975100E+02  0.34754520269E+02  0.00000000000E+00 0. -1.
         -2    1    1    2    0  502 -0.16533953800E+02  0.12068047461E+02  0.61595180268E+01  0.21376366860E+02  0.00000000000E+00 0.  1.
<mgrwt>
<rscale>  2 0.69493018E+02</rscale>
<asrwt>0</asrwt>
<pdfrwt beam="1">  1       21 0.41979242E-02 0.69493018E+02</pdfrwt>
<pdfrwt beam="2">  1       21 0.48876230E-01 0.69493018E+02</pdfrwt>
<totfact> 0.14197860E+06</totfact>
</mgrwt>
</event>
<event>
 5    1  0.1959123E+000  0.8669036E+02  0.7546771E-02  0.1311070E+00
         21   -1    0    0  501  502  0.00000000000E+00  0.00000000000E+00  0.26389363049E+02  0.26389363049E+02  0.00000000000E+00 0. -1.
         21   -1    0    0  502  503 -0.00000000000E+00 -0.00000000000E+00 -0.84206457078E+03  0.84206457078E+03  0.00000000000E+00 0.  1.
         24    1    1    2    0    0 -0.57664031903E+01  0.72712061218E+01 -0.51884454223E+03  0.52512188756E+03  0.80419002446E+02 0.  1.
          1    1    1    2  501    0 -0.33602213010E+02  0.24707346496E+02  0.49532276328E+00  0.41710994170E+02  0.00000000000E+00 0. -1.
         -2    1    1    2    0  503  0.39368616200E+02 -0.31978552618E+02 -0.29732598826E+03  0.30162105209E+03  0.00000000000E+00 0.  1.
<mgrwt>
<rscale>  2 0.86690358E+02</rscale>
<asrwt>0</asrwt>
<pdfrwt beam="1">  1       21 0.40599020E-02 0.86690358E+02</pdfrwt>
<pdfrwt beam="2">  1       21 0.12954839E+00 0.86690358E+02</pdfrwt>
<totfact> 0.17410832E+05</totfact>
</mgrwt>
</event>
<event>
 5    1  0.1959123E+000  0.7873289E+02  0.7546771E-02  0.1332686E+00
         21   -1    0    0  503  502  0.00000000000E+00  0.00000000000E+00  0.29039635963E+02  0.29039635963E+02  0.00000000000E+00 0.  1.
         21   -1    0    0  501  503 -0.00000000000E+00 -0.00000000000E+00 -0.15400694351E+04  0.15400694351E+04  0.00000000000E+00 0. -1.
         24    1    1    2    0    0 -0.56608214216E+01  0.18810981295E+02 -0.17956274735E+03  0.19772681686E+03  0.80419002446E+02 0.  0.
          1    1    1    2  501    0  0.13559533942E+02  0.25923608790E+02 -0.13252029313E+04  0.13255258215E+04  0.00000000000E+00 0. -1.
         -2    1    1    2    0  502 -0.78987125202E+01 -0.44734590086E+02 -0.62641204755E+01  0.45856432645E+02  0.00000000000E+00 0.  1.
<mgrwt>
<rscale>  2 0.78732890E+02</rscale>
<asrwt>0</asrwt>
<pdfrwt beam="1">  1       21 0.44676346E-02 0.78732890E+02</pdfrwt>
<pdfrwt beam="2">  1       21 0.23693385E+00 0.78732890E+02</pdfrwt>
<totfact> 0.29332138E+04</totfact>
</mgrwt>
</event>
<event>
 5    1  0.1990556E+000  0.1315622E+03  0.7546771E-02  0.1225156E+00
         21   -1    0    0  503  502  0.00000000000E+00  0.00000000000E+00  0.86993708897E+02  0.86993708897E+02  0.00000000000E+00 0. -1.
         21   -1    0    0  501  503 -0.00000000000E+00 -0.00000000000E+00 -0.66427668952E+03  0.66427668952E+03  0.00000000000E+00 0. -1.
         24    1    1    2    0    0 -0.87033368362E+02  0.80057643399E+02 -0.11645939157E+02  0.14348127867E+03  0.80419002446E+02 0. -1.
          1    1    1    2  501    0  0.30894131563E+02 -0.42619348638E+02 -0.52781716699E+03  0.53043549845E+03  0.00000000000E+00 0. -1.
         -2    1    1    2    0  502  0.56139236800E+02 -0.37438294761E+02 -0.37819874477E+02  0.77353621302E+02  0.00000000000E+00 0.  1.
<mgrwt>
<rscale>  2 0.13156224E+03</rscale>
<asrwt>0</asrwt>
<pdfrwt beam="1">  1       21 0.13383647E-01 0.13156224E+03</pdfrwt>
<pdfrwt beam="2">  1       21 0.10219642E+00 0.13156224E+03</pdfrwt>
<totfact> 0.38934968E+04</totfact>
</mgrwt>
</event>
<event>
 5    1  0.1959123E+000  0.6920865E+02  0.7546771E-02  0.1362805E+00
         21   -1    0    0  503  502  0.00000000000E+00  0.00000000000E+00  0.19920718237E+03  0.19920718237E+03  0.00000000000E+00 0.  1.
         21   -1    0    0  501  503 -0.00000000000E+00 -0.00000000000E+00 -0.60699008171E+02  0.60699008171E+02  0.00000000000E+00 0. -1.
         24    1    1    2    0    0  0.12748673023E+02 -0.28910795368E+02  0.75808302658E+02  0.11494554127E+03  0.80419002446E+02 0.  0.
          1    1    1    2  501    0 -0.27239900069E+02  0.12063834082E+02 -0.34309362092E+02  0.45438756318E+02  0.00000000000E+00 0. -1.
         -2    1    1    2    0  502  0.14491227047E+02  0.16846961287E+02  0.97009233633E+02  0.99521892948E+02  0.00000000000E+00 0.  1.
<mgrwt>
<rscale>  2 0.69208647E+02</rscale>
<asrwt>0</asrwt>
<pdfrwt beam="1">  1       21 0.30647259E-01 0.69208647E+02</pdfrwt>
<pdfrwt beam="2">  1       21 0.93383090E-02 0.69208647E+02</pdfrwt>
<totfact> 0.92844461E+05</totfact>
</mgrwt>
</event>
<event>
 5    1  0.1959123E+000  0.8873235E+02  0.7546771E-02  0.1305951E+00
         21   -1    0    0  503  502  0.00000000000E+00  0.00000000000E+00  0.11398856751E+03  0.11398856751E+03  0.00000000000E+00 0. -1.
         21   -1    0    0  501  503 -0.00000000000E+00 -0.00000000000E+00 -0.71005315189E+02  0.71005315189E+02  0.00000000000E+00 0.  1.
         24    1    1    2    0    0  0.26349058893E+02  0.64666017986E+02  0.12557395372E+02  0.10724211355E+03  0.80419002446E+02 0.  1.
          1    1    1    2  501    0 -0.12387083275E+02 -0.46070549523E+02  0.15682666669E+02  0.50218337281E+02  0.00000000000E+00 0. -1.
         -2    1    1    2    0  502 -0.13961975618E+02 -0.18595468463E+02  0.14743190279E+02  0.27533431862E+02  0.00000000000E+00 0.  1.
<mgrwt>
<rscale>  2 0.88732353E+02</rscale>
<asrwt>0</asrwt>
<pdfrwt beam="1">  1       21 0.17536703E-01 0.88732353E+02</pdfrwt>
<pdfrwt beam="2">  1       21 0.10923895E-01 0.88732353E+02</pdfrwt>
<totfact> 0.20064454E+06</totfact>
</mgrwt>
</event>
<event>
 5    1  0.1959123E+000  0.6685524E+02  0.7546771E-02  0.1371126E+00
         21   -1    0    0  501  502  0.00000000000E+00  0.00000000000E+00  0.17052152921E+03  0.17052152921E+03  0.00000000000E+00 0.  1.
         21   -1    0    0  502  503 -0.00000000000E+00 -0.00000000000E+00 -0.16452591160E+03  0.16452591160E+03  0.00000000000E+00 0.  1.
         24    1    1    2    0    0 -0.27833413722E+01  0.53883249161E+01  0.66218423947E+02  0.10434978035E+03  0.80419002446E+02 0.  1.
          1    1    1    2  501    0 -0.21337460773E+02 -0.16041136876E+02  0.81904534644E+02  0.86144983022E+02  0.00000000000E+00 0. -1.
         -2    1    1    2    0  503  0.24120802146E+02  0.10652811960E+02 -0.14212734098E+03  0.14455267744E+03  0.00000000000E+00 0.  1.
<mgrwt>
<rscale>  2 0.66855243E+02</rscale>
<asrwt>0</asrwt>
<pdfrwt beam="1">  1       21 0.26234081E-01 0.66855243E+02</pdfrwt>
<pdfrwt beam="2">  1       21 0.25311679E-01 0.66855243E+02</pdfrwt>
<totfact> 0.21136701E+05</totfact>
</mgrwt>
</event>
<event>
 5    1  0.1959123E+000  0.6669870E+02  0.7546771E-02  0.1371693E+00
         21   -1    0    0  503  502  0.00000000000E+00  0.00000000000E+00  0.13887691589E+03  0.13887691589E+03  0.00000000000E+00 0.  1.
         21   -1    0    0  501  503 -0.00000000000E+00 -0.00000000000E+00 -0.46802375252E+03  0.46802375252E+03  0.00000000000E+00 0.  1.
         24    1    1    2    0    0  0.22085525470E+02 -0.12278598990E+02 -0.28990150779E+03  0.30190832151E+03  0.80419002446E+02 0.  1.
          1    1    1    2  501    0 -0.74053388235E+01  0.27187812878E+02 -0.17012899748E+03  0.17244678019E+03  0.00000000000E+00 0. -1.
         -2    1    1    2    0  502 -0.14680186647E+02 -0.14909213888E+02  0.13088366864E+03  0.13254556671E+03  0.00000000000E+00 0.  1.
<mgrwt>
<rscale>  2 0.66698699E+02</rscale>
<asrwt>0</asrwt>
<pdfrwt beam="1">  1       21 0.21365679E-01 0.66698699E+02</pdfrwt>
<pdfrwt beam="2">  1       21 0.72003654E-01 0.66698699E+02</pdfrwt>
<totfact> 0.38716244E+04</totfact>
</mgrwt>
</event>
<event>
 5    1  0.1959123E+000  0.1101563E+03  0.7546771E-02  0.1260281E+00
         21   -1    0    0  501  502  0.00000000000E+00  0.00000000000E+00  0.22072892933E+03  0.22072892933E+03  0.00000000000E+00 0. -1.
         21   -1    0    0  502  503 -0.00000000000E+00 -0.00000000000E+00 -0.70674567113E+02  0.70674567113E+02  0.00000000000E+00 0.  1.
         24    1    1    2    0    0  0.50911819802E+02 -0.20839816608E+02  0.72224279924E+02  0.12128426904E+03  0.80419002446E+02 0.  1.
          1    1    1    2  501    0 -0.73477325793E+02 -0.20059656919E+02  0.93730631301E+02  0.12077557073E+03  0.00000000000E+00 0. -1.
         -2    1    1    2    0  503  0.22565505991E+02  0.40899473527E+02 -0.15900549004E+02  0.49343656675E+02  0.00000000000E+00 0.  1.
<mgrwt>
<rscale>  2 0.11015630E+03</rscale>
<asrwt>0</asrwt>
<pdfrwt beam="1">  1       21 0.33958296E-01 0.11015630E+03</pdfrwt>
<pdfrwt beam="2">  1       21 0.10873010E-01 0.11015630E+03</pdfrwt>
<totfact> 0.58878751E+05</totfact>
</mgrwt>
</event>
<event>
 5    1  0.1959123E+000  0.8435915E+02  0.7546771E-02  0.1317117E+00
         21   -1    0    0  503  502  0.00000000000E+00  0.00000000000E+00  0.28898006645E+02  0.28898006645E+02  0.00000000000E+00 0. -1.
         21   -1    0    0  501  503 -0.00000000000E+00 -0.00000000000E+00 -0.33279592028E+03  0.33279592028E+03  0.00000000000E+00 0. -1.
         24    1    1    2    0    0  0.59587913577E+02 -0.26037316388E+02 -0.19391866893E+03  0.21977335462E+03  0.80419002446E+02 0. -1.
          1    1    1    2  501    0 -0.39586541926E+02  0.20307950584E+02 -0.11248505651E+03  0.12096443732E+03  0.00000000000E+00 0. -1.
         -2    1    1    2    0  502 -0.20001371651E+02  0.57293658037E+01  0.25058118034E+01  0.20956134978E+02  0.00000000000E+00 0.  1.
<mgrwt>
<rscale>  2 0.84359154E+02</rscale>
<asrwt>0</asrwt>
<pdfrwt beam="1">  1       21 0.44458470E-02 0.84359154E+02</pdfrwt>
<pdfrwt beam="2">  1       21 0.51199374E-01 0.84359154E+02</pdfrwt>
<totfact> 0.11822833E+06</totfact>
</mgrwt>
</event>
<event>
 5    1  0.1959123E+000  0.7148681E+02  0.7546771E-02  0.1355109E+00
         21   -1    0    0  501  502  0.00000000000E+00  0.00000000000E+00  0.33836249350E+02  0.33836249350E+02  0.00000000000E+00 0. -1.
         21   -1    0    0  502  503 -0.00000000000E+00 -0.00000000000E+00 -0.40460324449E+03  0.40460324449E+03  0.00000000000E+00 0.  1.
         24    1    1    2    0    0  0.47530133854E+02  0.76032747584E+01 -0.28476894639E+03  0.29979575079E+03  0.80419002446E+02 0.  1.
          1    1    1    2  501    0 -0.23533333380E+02 -0.90404776040E+01  0.18593417190E+02  0.31325120560E+02  0.00000000000E+00 0. -1.
         -2    1    1    2    0  503 -0.23996800475E+02  0.14372028456E+01 -0.10459146594E+03  0.10731862248E+03  0.00000000000E+00 0.  1.
<mgrwt>
<rscale>  2 0.71486809E+02</rscale>
<asrwt>0</asrwt>
<pdfrwt beam="1">  1       21 0.52055770E-02 0.71486809E+02</pdfrwt>
<pdfrwt beam="2">  1       21 0.62246651E-01 0.71486809E+02</pdfrwt>
<totfact> 0.60602882E+05</totfact>
</mgrwt>
</event>
<event>
 5    1  0.1959123E+000  0.9758309E+02  0.7546771E-02  0.1285462E+00
         21   -1    0    0  501  502  0.00000000000E+00  0.00000000000E+00  0.10927740245E+03  0.10927740245E+03  0.00000000000E+00 0. -1.
         21   -1    0    0  502  503 -0.00000000000E+00 -0.00000000000E+00 -0.12722568861E+03  0.12722568861E+03  0.00000000000E+00 0. -1.
         24    1    1    2    0    0 -0.16520516663E+02 -0.43003368823E+02 -0.38974553673E+02  0.10054078272E+03  0.80419002446E+02 0.  0.
          1    1    1    2  501    0  0.52000662133E+02  0.42246505720E+02  0.55113964301E+02  0.86754741478E+02  0.00000000000E+00 0. -1.
         -2    1    1    2    0  503 -0.35480145470E+02  0.75686310299E+00 -0.34087696791E+02  0.49207566866E+02  0.00000000000E+00 0.  1.
<mgrwt>
<rscale>  2 0.97583095E+02</rscale>
<asrwt>0</asrwt>
<pdfrwt beam="1">  1       21 0.16811908E-01 0.97583095E+02</pdfrwt>
<pdfrwt beam="2">  1       21 0.19573183E-01 0.97583095E+02</pdfrwt>
<totfact> 0.76672319E+05</totfact>
</mgrwt>
</event>
<event>
 5    1  0.1959123E+000  0.1034339E+03  0.7546771E-02  0.1273236E+00
         21   -1    0    0  503  502  0.00000000000E+00  0.00000000000E+00  0.12189401099E+04  0.12189401099E+04  0.00000000000E+00 0.  1.
         21   -1    0    0  501  503 -0.00000000000E+00 -0.00000000000E+00 -0.12713878294E+02  0.12713878294E+02  0.00000000000E+00 0.  1.
         24    1    1    2    0    0 -0.66692831567E+02 -0.15825143191E+02  0.35982998628E+03  0.37502427111E+03  0.80419002446E+02 0.  1.
          1    1    1    2  501    0 -0.50146410843E+01  0.28018510179E+02  0.55288782783E+02  0.62185472898E+02  0.00000000000E+00 0. -1.
         -2    1    1    2    0  502  0.71707472652E+02 -0.12193366988E+02  0.79110746257E+03  0.79444424422E+03  0.00000000000E+00 0.  1.
<mgrwt>
<rscale>  2 0.10343392E+03</rscale>
<asrwt>0</asrwt>
<pdfrwt beam="1">  1       21 0.18752915E+00 0.10343392E+03</pdfrwt>
<pdfrwt beam="2">  1       21 0.19559822E-02 0.10343392E+03</pdfrwt>
<totfact> 0.21617060E+05</totfact>
</mgrwt>
</event>
<event>
 5    1  0.1959123E+000  0.9370299E+02  0.7546771E-02  0.1294124E+00
         21   -1    0    0  503  502  0.00000000000E+00  0.00000000000E+00  0.25647871407E+03  0.25647871407E+03  0.00000000000E+00 0.  1.
         21   -1    0    0  501  503 -0.00000000000E+00 -0.00000000000E+00 -0.94594325869E+02  0.94594325869E+02  0.00000000000E+00 0. -1.
         24    1    1    2    0    0  0.19463491304E+02  0.32135302878E+02  0.64035113499E+02  0.10944960895E+03  0.80419002446E+02 0. -1.
          1    1    1    2  501    0 -0.52965250563E+02 -0.37251969236E+02 -0.55063509465E+02  0.85000100316E+02  0.00000000000E+00 0. -1.
         -2    1    1    2    0  502  0.33501759259E+02  0.51166663579E+01  0.15291278417E+03  0.15662333067E+03  0.00000000000E+00 0.  1.
<mgrwt>
<rscale>  2 0.93702992E+02</rscale>
<asrwt>0</asrwt>
<pdfrwt beam="1">  1       21 0.39458263E-01 0.93702992E+02</pdfrwt>
<pdfrwt beam="2">  1       21 0.14552973E-01 0.93702992E+02</pdfrwt>
<totfact> 0.26247484E+05</totfact>
</mgrwt>
</event>
<event>
 5    1  0.1959123E+000  0.9866795E+02  0.7546771E-02  0.1283122E+00
         21   -1    0    0  501  502  0.00000000000E+00  0.00000000000E+00  0.56551317785E+02  0.56551317785E+02  0.00000000000E+00 0. -1.
         21   -1    0    0  502  503 -0.00000000000E+00 -0.00000000000E+00 -0.20992343728E+03  0.20992343728E+03  0.00000000000E+00 0. -1.
         24    1    1    2    0    0  0.12662957741E+02  0.81255966361E+02 -0.12093822670E+03  0.16690162731E+03  0.80419002446E+02 0. -1.
          1    1    1    2  501    0 -0.10629085525E+02 -0.57755399830E+02  0.90615446293E+00  0.58732314653E+02  0.00000000000E+00 0. -1.
         -2    1    1    2    0  503 -0.20338722156E+01 -0.23500566531E+02 -0.33340047262E+02  0.40840813103E+02  0.00000000000E+00 0.  1.
<mgrwt>
<rscale>  2 0.98667952E+02</rscale>
<asrwt>0</asrwt>
<pdfrwt beam="1">  1       21 0.87002029E-02 0.98667952E+02</pdfrwt>
<pdfrwt beam="2">  1       21 0.32295913E-01 0.98667952E+02</pdfrwt>
<totfact> 0.95506724E+05</totfact>
</mgrwt>
</event>
<event>
 5    1  0.1959123E+000  0.1008493E+03  0.7546771E-02  0.1278520E+00
         21   -1    0    0  503  502  0.00000000000E+00  0.00000000000E+00  0.22941561404E+02  0.22941561404E+02  0.00000000000E+00 0.  1.
         21   -1    0    0  501  503 -0.00000000000E+00 -0.00000000000E+00 -0.11791813477E+04  0.11791813477E+04  0.00000000000E+00 0. -1.
         24    1    1    2    0    0  0.45034425447E+01  0.83409217285E+01 -0.67662702797E+03  0.68145520975E+03  0.80419002446E+02 0.  0.
          1    1    1    2  501    0  0.11198862326E+02  0.54659601544E+02 -0.44225274339E+03  0.44575842739E+03  0.00000000000E+00 0. -1.
         -2    1    1    2    0  502 -0.15702304871E+02 -0.63000523272E+02 -0.37360014968E+02  0.74909271984E+02  0.00000000000E+00 0.  1.
<mgrwt>
<rscale>  2 0.10084932E+03</rscale>
<asrwt>0</asrwt>
<pdfrwt beam="1">  1       21 0.35294702E-02 0.10084932E+03</pdfrwt>
<pdfrwt beam="2">  1       21 0.18141256E+00 0.10084932E+03</pdfrwt>
<totfact> 0.91098736E+04</totfact>
</mgrwt>
</event>
<event>
 5    1  0.1959123E+000  0.1609253E+03  0.7546771E-02  0.1187656E+00
         21   -1    0    0  501  502  0.00000000000E+00  0.00000000000E+00  0.11608436935E+04  0.11608436935E+04  0.00000000000E+00 0.  1.
         21   -1    0    0  502  503 -0.00000000000E+00 -0.00000000000E+00 -0.24145001426E+02  0.24145001426E+02  0.00000000000E+00 0.  1.
         24    1    1    2    0    0 -0.78441016624E+02 -0.12244696462E+03  0.63205675281E+03  0.65353592629E+03  0.80419002446E+02 0.  1.
          1    1    1    2  501    0  0.41609188658E+02  0.18759089515E+02  0.24879646725E+03  0.25294843375E+03  0.00000000000E+00 0. -1.
         -2    1    1    2    0  503  0.36831827966E+02  0.10368787511E+03  0.25584547202E+03  0.27850433488E+03  0.00000000000E+00 0.  1.
<mgrwt>
<rscale>  2 0.16092533E+03</rscale>
<asrwt>0</asrwt>
<pdfrwt beam="1">  1       21 0.17859129E+00 0.16092533E+03</pdfrwt>
<pdfrwt beam="2">  1       21 0.37146165E-02 0.16092533E+03</pdfrwt>
<totfact> 0.84025416E+04</totfact>
</mgrwt>
</event>
<event>
 5    1  0.1959123E+000  0.8012521E+02  0.7546771E-02  0.1328696E+00
         21   -1    0    0  501  502  0.00000000000E+00  0.00000000000E+00  0.32791955943E+02  0.32791955943E+02  0.00000000000E+00 0.  1.
         21   -1    0    0  502  503 -0.00000000000E+00 -0.00000000000E+00 -0.24007010053E+03  0.24007010053E+03  0.00000000000E+00 0.  1.
         24    1    1    2    0    0  0.29906499154E+02 -0.45793409927E+01 -0.60007600078E+02  0.10480218069E+03  0.80419002446E+02 0.  1.
          1    1    1    2  501    0 -0.19665770591E+02  0.36142051122E+02 -0.47124699229E+02  0.62559792756E+02  0.00000000000E+00 0. -1.
         -2    1    1    2    0  503 -0.10240728563E+02 -0.31562710129E+02 -0.10014584528E+03  0.10550008303E+03  0.00000000000E+00 0.  1.
<mgrwt>
<rscale>  2 0.80125209E+02</rscale>
<asrwt>0</asrwt>
<pdfrwt beam="1">  1       21 0.50449164E-02 0.80125209E+02</pdfrwt>
<pdfrwt beam="2">  1       21 0.36933861E-01 0.80125209E+02</pdfrwt>
<totfact> 0.18379331E+06</totfact>
</mgrwt>
</event>
<event>
 5    1  0.1959123E+000  0.1773923E+03  0.7546771E-02  0.1170351E+00
         21   -1    0    0  501  502  0.00000000000E+00  0.00000000000E+00  0.30886999586E+02  0.30886999586E+02  0.00000000000E+00 0. -1.
         21   -1    0    0  502  503 -0.00000000000E+00 -0.00000000000E+00 -0.12908287438E+04  0.12908287438E+04  0.00000000000E+00 0. -1.
         24    1    1    2    0    0 -0.14856108350E+03  0.70412376907E+02 -0.93345399857E+03  0.95122651443E+03  0.80419002446E+02 0. -1.
          1    1    1    2  501    0  0.12810684967E+03 -0.77960737987E+02 -0.25582601507E+03  0.29654037092E+03  0.00000000000E+00 0. -1.
         -2    1    1    2    0  503  0.20454233830E+02  0.75483610793E+01 -0.70661730571E+02  0.73948858029E+02  0.00000000000E+00 0.  1.
<mgrwt>
<rscale>  2 0.17739227E+03</rscale>
<asrwt>0</asrwt>
<pdfrwt beam="1">  1       21 0.47518459E-02 0.17739227E+03</pdfrwt>
<pdfrwt beam="2">  1       21 0.19858905E+00 0.17739227E+03</pdfrwt>
<totfact> 0.40622058E+04</totfact>
</mgrwt>
</event>
<event>
 5    1  0.1959123E+000  0.2273772E+03  0.7546771E-02  0.1128500E+00
         21   -1    0    0  501  502  0.00000000000E+00  0.00000000000E+00  0.52988557906E+03  0.52988557906E+03  0.00000000000E+00 0. -1.
         21   -1    0    0  502  503 -0.00000000000E+00 -0.00000000000E+00 -0.86938393993E+03  0.86938393993E+03  0.00000000000E+00 0.  1.
         24    1    1    2    0    0  0.11934769701E+03  0.16500131611E+02 -0.74892646783E+02  0.16307130840E+03  0.80419002446E+02 0. -1.
          1    1    1    2  501    0 -0.17869149555E+03  0.80656433935E+02  0.46139795265E+03  0.50132243280E+03  0.00000000000E+00 0. -1.
         -2    1    1    2    0  503  0.59343798537E+02 -0.97156565546E+02 -0.72600366674E+03  0.73487577779E+03  0.00000000000E+00 0.  1.
<mgrwt>
<rscale>  2 0.22737717E+03</rscale>
<asrwt>0</asrwt>
<pdfrwt beam="1">  1       21 0.81520859E-01 0.22737717E+03</pdfrwt>
<pdfrwt beam="2">  1       21 0.13375137E+00 0.22737717E+03</pdfrwt>
<totfact> 0.51107018E+02</totfact>
</mgrwt>
</event>
<event>
 5    1  0.1959123E+000  0.9879010E+02  0.7546771E-02  0.1282861E+00
         21   -1    0    0  503  502  0.00000000000E+00  0.00000000000E+00  0.21913794929E+02  0.21913794929E+02  0.00000000000E+00 0. -1.
         21   -1    0    0  501  503 -0.00000000000E+00 -0.00000000000E+00 -0.47192472415E+03  0.47192472415E+03  0.00000000000E+00 0.  1.
         24    1    1    2    0    0  0.24776368988E+02 -0.10991216272E+02 -0.13703944456E+03  0.16118840099E+03  0.80419002446E+02 0.  0.
          1    1    1    2  501    0 -0.68077609908E+02  0.14707364141E+00 -0.18906349296E+03  0.20094672670E+03  0.00000000000E+00 0. -1.
         -2    1    1    2    0  502  0.43301240920E+02  0.10844142631E+02 -0.12390799171E+03  0.13170339139E+03  0.00000000000E+00 0.  1.
<mgrwt>
<rscale>  2 0.98790097E+02</rscale>
<asrwt>0</asrwt>
<pdfrwt beam="1">  1       21 0.33713533E-02 0.98790097E+02</pdfrwt>
<pdfrwt beam="2">  1       21 0.72603798E-01 0.98790097E+02</pdfrwt>
<totfact> 0.89425627E+05</totfact>
</mgrwt>
</event>
<event>
 5    1  0.1959123E+000  0.1129064E+03  0.7546771E-02  0.1255280E+00
         21   -1    0    0  503  502  0.00000000000E+00  0.00000000000E+00  0.22065997126E+03  0.22065997126E+03  0.00000000000E+00 0. -1.
         21   -1    0    0  501  503 -0.00000000000E+00 -0.00000000000E+00 -0.64736901865E+02  0.64736901865E+02  0.00000000000E+00 0.  1.
         24    1    1    2    0    0  0.80312408390E+02  0.55284587983E+02  0.12069233291E+03  0.17475790050E+03  0.80419002446E+02 0. -1.
          1    1    1    2  501    0 -0.22846073664E+02 -0.57536376853E+01 -0.59741515197E+01  0.24305100594E+02  0.00000000000E+00 0. -1.
         -2    1    1    2    0  502 -0.57466334726E+02 -0.49530950297E+02  0.41204888002E+02  0.86333872029E+02  0.00000000000E+00 0.  1.
<mgrwt>
<rscale>  2 0.11290639E+03</rscale>
<asrwt>0</asrwt>
<pdfrwt beam="1">  1       21 0.33947688E-01 0.11290639E+03</pdfrwt>
<pdfrwt beam="2">  1       21 0.99595235E-02 0.11290639E+03</pdfrwt>
<totfact> 0.68674610E+05</totfact>
</mgrwt>
</event>
<event>
 5    1  0.1959123E+000  0.9495542E+02  0.7546771E-02  0.1291277E+00
         21   -1    0    0  503  502  0.00000000000E+00  0.00000000000E+00  0.37384523190E+03  0.37384523190E+03  0.00000000000E+00 0. -1.
         21   -1    0    0  501  503 -0.00000000000E+00 -0.00000000000E+00 -0.27165784930E+03  0.27165784930E+03  0.00000000000E+00 0. -1.
         24    1    1    2    0    0  0.30937862644E+02  0.43692253085E+02 -0.12958884239E+03  0.16163739775E+03  0.80419002446E+02 0.  1.
          1    1    1    2  501    0  0.19704439137E+02 -0.37395382084E+02 -0.12061052441E+03  0.12780288777E+03  0.00000000000E+00 0. -1.
         -2    1    1    2    0  502 -0.50642301781E+02 -0.62968710013E+01  0.35238674941E+03  0.35606279568E+03  0.00000000000E+00 0.  1.
<mgrwt>
<rscale>  2 0.94955415E+02</rscale>
<asrwt>0</asrwt>
<pdfrwt beam="1">  1       21 0.57514651E-01 0.94955415E+02</pdfrwt>
<pdfrwt beam="2">  1       21 0.41793515E-01 0.94955415E+02</pdfrwt>
<totfact> 0.16845767E+04</totfact>
</mgrwt>
</event>
<event>
 5    1  0.1959123E+000  0.9810841E+02  0.7546771E-02  0.1284325E+00
         21   -1    0    0  501  502  0.00000000000E+00  0.00000000000E+00  0.35848301010E+03  0.35848301010E+03  0.00000000000E+00 0.  1.
         21   -1    0    0  502  503 -0.00000000000E+00 -0.00000000000E+00 -0.92017229124E+02  0.92017229124E+02  0.00000000000E+00 0.  1.
         24    1    1    2    0    0 -0.28802046176E+02 -0.76308996278E+02  0.27519507173E+03  0.29808080152E+03  0.80419002446E+02 0.  1.
          1    1    1    2  501    0  0.15044888904E+02  0.33849453414E+02  0.59974055391E+02  0.70491286685E+02  0.00000000000E+00 0. -1.
         -2    1    1    2    0  503  0.13757157272E+02  0.42459542864E+02 -0.68703346149E+02  0.81928151013E+02  0.00000000000E+00 0.  1.
<mgrwt>
<rscale>  2 0.98108410E+02</rscale>
<asrwt>0</asrwt>
<pdfrwt beam="1">  1       21 0.55151232E-01 0.98108410E+02</pdfrwt>
<pdfrwt beam="2">  1       21 0.14156497E-01 0.98108410E+02</pdfrwt>
<totfact> 0.13971304E+05</totfact>
</mgrwt>
</event>
<event>
 5    1  0.1959123E+000  0.7934700E+02  0.7546771E-02  0.1330915E+00
         21   -1    0    0  503  502  0.00000000000E+00  0.00000000000E+00  0.18050797974E+02  0.18050797974E+02  0.00000000000E+00 0. -1.
         21   -1    0    0  501  503 -0.00000000000E+00 -0.00000000000E+00 -0.36439847010E+03  0.36439847010E+03  0.00000000000E+00 0.  1.
         24    1    1    2    0    0 -0.39051350386E+01 -0.25283766963E+02 -0.18356109919E+03  0.20203072054E+03  0.80419002446E+02 0. -1.
          1    1    1    2  501    0 -0.32604333903E+02  0.17384189545E+02 -0.10769403311E+03  0.11385630155E+03  0.00000000000E+00 0. -1.
         -2    1    1    2    0  502  0.36509468941E+02  0.78995774182E+01 -0.55092539824E+02  0.66562245981E+02  0.00000000000E+00 0.  1.
<mgrwt>
<rscale>  2 0.79347005E+02</rscale>
<asrwt>0</asrwt>
<pdfrwt beam="1">  1       21 0.27770460E-02 0.79347005E+02</pdfrwt>
<pdfrwt beam="2">  1       21 0.56061299E-01 0.79347005E+02</pdfrwt>
<totfact> 0.21111993E+06</totfact>
</mgrwt>
</event>
<event>
 5    1  0.1959123E+000  0.7197941E+02  0.7546771E-02  0.1353488E+00
         21   -1    0    0  503  502  0.00000000000E+00  0.00000000000E+00  0.40929813690E+01  0.40929813690E+01  0.00000000000E+00 0.  1.
         21   -1    0    0  501  503 -0.00000000000E+00 -0.00000000000E+00 -0.15192302311E+04  0.15192302311E+04  0.00000000000E+00 0. -1.
         24    1    1    2    0    0  0.37354692851E+01 -0.13574246392E+02 -0.53932458386E+03  0.54546900609E+03  0.80419002446E+02 0.  1.
          1    1    1    2  501    0  0.18387032602E+02 -0.16687824269E+02 -0.46919736455E+03  0.46985394896E+03  0.00000000000E+00 0. -1.
         -2    1    1    2    0  502 -0.22122501887E+02  0.30262070660E+02 -0.50661530130E+03  0.50800025741E+03  0.00000000000E+00 0.  1.
<mgrwt>
<rscale>  2 0.71979405E+02</rscale>
<asrwt>0</asrwt>
<pdfrwt beam="1">  1       21 0.62968864E-03 0.71979405E+02</pdfrwt>
<pdfrwt beam="2">  1       21 0.23372802E+00 0.71979405E+02</pdfrwt>
<totfact> 0.68862769E+05</totfact>
</mgrwt>
</event>
<event>
 5    1  0.1959123E+000  0.8975249E+02  0.7546771E-02  0.1303452E+00
         21   -1    0    0  501  502  0.00000000000E+00  0.00000000000E+00  0.25599396174E+04  0.25599396174E+04  0.00000000000E+00 0. -1.
         21   -1    0    0  502  503 -0.00000000000E+00 -0.00000000000E+00 -0.88358050887E+01  0.88358050887E+01  0.00000000000E+00 0.  1.
         24    1    1    2    0    0 -0.14124468480E+02 -0.29386404225E+02  0.28109634388E+03  0.29418604973E+03  0.80419002446E+02 0.  0.
          1    1    1    2  501    0 -0.34951652878E+02 -0.10720967561E+01  0.18802680432E+04  0.18805931728E+04  0.00000000000E+00 0. -1.
         -2    1    1    2    0  503  0.49076121357E+02  0.30458500981E+02  0.38973942522E+03  0.39399619991E+03  0.00000000000E+00 0.  1.
<mgrwt>
<rscale>  2 0.89752494E+02</rscale>
<asrwt>0</asrwt>
<pdfrwt beam="1">  1       21 0.39383627E+00 0.89752494E+02</pdfrwt>
<pdfrwt beam="2">  1       21 0.13593567E-02 0.89752494E+02</pdfrwt>
<totfact> 0.25909966E+04</totfact>
</mgrwt>
</event>
<event>
 5    1  0.1959123E+000  0.1041918E+03  0.7546771E-02  0.1271720E+00
         21   -1    0    0  501  502  0.00000000000E+00  0.00000000000E+00  0.13871603398E+03  0.13871603398E+03  0.00000000000E+00 0. -1.
         21   -1    0    0  502  503 -0.00000000000E+00 -0.00000000000E+00 -0.44795131861E+03  0.44795131861E+03  0.00000000000E+00 0.  1.
         24    1    1    2    0    0  0.32228740272E+02 -0.72399905160E+02 -0.16662286309E+02  0.11412837380E+03  0.80419002446E+02 0.  1.
          1    1    1    2  501    0 -0.20606605941E+02 -0.15082923896E+01  0.85076663669E+02  0.87549676501E+02  0.00000000000E+00 0. -1.
         -2    1    1    2    0  503 -0.11622134331E+02  0.73908197550E+02 -0.37764966199E+03  0.38498930228E+03  0.00000000000E+00 0.  1.
<mgrwt>
<rscale>  2 0.10419183E+03</rscale>
<asrwt>0</asrwt>
<pdfrwt beam="1">  1       21 0.21340928E-01 0.10419183E+03</pdfrwt>
<pdfrwt beam="2">  1       21 0.68915589E-01 0.10419183E+03</pdfrwt>
<totfact> 0.41247048E+04</totfact>
</mgrwt>
</event>
<event>
 5    1  0.1959123E+000  0.1066797E+03  0.7546771E-02  0.1266845E+00
         21   -1    0    0  503  502  0.00000000000E+00  0.00000000000E+00  0.32564196626E+03  0.32564196626E+03  0.00000000000E+00 0.  1.
         21   -1    0    0  501  503 -0.00000000000E+00 -0.00000000000E+00 -0.11089243246E+03  0.11089243246E+03  0.00000000000E+00 0.  1.
         24    1    1    2    0    0 -0.65340307014E+02  0.60695888820E+01 -0.49383983712E+02  0.11494428838E+03  0.80419002446E+02 0.  1.
          1    1    1    2  501    0  0.41485725062E+02  0.40035696539E+02  0.56320274004E+01  0.57927904450E+02  0.00000000000E+00 0. -1.
         -2    1    1    2    0  502  0.23854581952E+02 -0.46105285421E+02  0.25850149012E+03  0.26366220589E+03  0.00000000000E+00 0.  1.
<mgrwt>
<rscale>  2 0.10667969E+03</rscale>
<asrwt>0</asrwt>
<pdfrwt beam="1">  1       21 0.50098763E-01 0.10667969E+03</pdfrwt>
<pdfrwt beam="2">  1       21 0.17060374E-01 0.10667969E+03</pdfrwt>
<totfact> 0.12141265E+05</totfact>
</mgrwt>
</event>
<event>
 5    1  0.1959123E+000  0.8368701E+02  0.7546771E-02  0.1318902E+00
         21   -1    0    0  501  502  0.00000000000E+00  0.00000000000E+00  0.88095706619E+02  0.88095706619E+02  0.00000000000E+00 0.  1.
         21   -1    0    0  502  503 -0.00000000000E+00 -0.00000000000E+00 -0.34055642042E+03  0.34055642042E+03  0.00000000000E+00 0.  1.
         24    1    1    2    0    0  0.59575127607E+02  0.23982660791E+02  0.37621968532E+02  0.10957642228E+03  0.80419002446E+02 0.  1.
          1    1    1    2  501    0 -0.17832654905E+02 -0.99491190633E+01  0.47555537251E+01  0.20966731799E+02  0.00000000000E+00 0. -1.
         -2    1    1    2    0  503 -0.41742472703E+02 -0.14033541728E+02 -0.29483823605E+03  0.29810897296E+03  0.00000000000E+00 0.  1.
<mgrwt>
<rscale>  2 0.83687013E+02</rscale>
<asrwt>0</asrwt>
<pdfrwt beam="1">  1       21 0.13553185E-01 0.83687013E+02</pdfrwt>
<pdfrwt beam="2">  1       21 0.52393296E-01 0.83687013E+02</pdfrwt>
<totfact> 0.16875585E+05</totfact>
</mgrwt>
</event>
<event>
 5    1  0.1959123E+000  0.1188057E+03  0.7546771E-02  0.1245080E+00
         21   -1    0    0  501  502  0.00000000000E+00  0.00000000000E+00  0.12981596764E+03  0.12981596764E+03  0.00000000000E+00 0. -1.
         21   -1    0    0  502  503 -0.00000000000E+00 -0.00000000000E+00 -0.36477977915E+03  0.36477977915E+03  0.00000000000E+00 0.  1.
         24    1    1    2    0    0  0.69671964161E+02  0.15764821944E+02 -0.38863938498E+02  0.11436928727E+03  0.80419002446E+02 0.  1.
          1    1    1    2  501    0 -0.73454546134E+02  0.33432650652E+02  0.71678240772E+02  0.10794018102E+03  0.00000000000E+00 0. -1.
         -2    1    1    2    0  503  0.37825819732E+01 -0.49197472597E+02 -0.26777811379E+03  0.27228627850E+03  0.00000000000E+00 0.  1.
<mgrwt>
<rscale>  2 0.11880568E+03</rscale>
<asrwt>0</asrwt>
<pdfrwt beam="1">  1       21 0.19971688E-01 0.11880568E+03</pdfrwt>
<pdfrwt beam="2">  1       21 0.56119964E-01 0.11880568E+03</pdfrwt>
<totfact> 0.71525396E+04</totfact>
</mgrwt>
</event>
<event>
 5    1  0.1959123E+000  0.6682538E+02  0.7546771E-02  0.1371234E+00
         21   -1    0    0  501  502  0.00000000000E+00  0.00000000000E+00  0.14024610486E+03  0.14024610486E+03  0.00000000000E+00 0. -1.
         21   -1    0    0  502  503 -0.00000000000E+00 -0.00000000000E+00 -0.20578827194E+03  0.20578827194E+03  0.00000000000E+00 0.  1.
         24    1    1    2    0    0  0.81981438444E+01  0.16932952517E+01 -0.31319163927E+02  0.86707455243E+02  0.80419002446E+02 0.  0.
          1    1    1    2  501    0  0.21648171509E+02 -0.64174638359E+01  0.10983596636E+03  0.11213280821E+03  0.00000000000E+00 0. -1.
         -2    1    1    2    0  503 -0.29846315353E+02  0.47241685842E+01 -0.14405896951E+03  0.14719411335E+03  0.00000000000E+00 0.  1.
<mgrwt>
<rscale>  2 0.66825380E+02</rscale>
<asrwt>0</asrwt>
<pdfrwt beam="1">  1       21 0.21576324E-01 0.66825380E+02</pdfrwt>
<pdfrwt beam="2">  1       21 0.31659734E-01 0.66825380E+02</pdfrwt>
<totfact> 0.19905044E+05</totfact>
</mgrwt>
</event>
<event>
 5    1  0.1959123E+000  0.9942516E+02  0.7546771E-02  0.1281509E+00
         21   -1    0    0  501  502  0.00000000000E+00  0.00000000000E+00  0.25826827179E+03  0.25826827179E+03  0.00000000000E+00 0. -1.
         21   -1    0    0  502  503 -0.00000000000E+00 -0.00000000000E+00 -0.49003431795E+02  0.49003431795E+02  0.00000000000E+00 0. -1.
         24    1    1    2    0    0 -0.66494349880E+02  0.48701017888E+02  0.59540560746E+02  0.12963634536E+03  0.80419002446E+02 0. -1.
          1    1    1    2  501    0  0.48278082666E+02 -0.26829743024E+02  0.13440476165E+03  0.14531086790E+03  0.00000000000E+00 0. -1.
         -2    1    1    2    0  503  0.18216267213E+02 -0.21871274864E+02  0.15319517604E+02  0.32324490328E+02  0.00000000000E+00 0.  1.
<mgrwt>
<rscale>  2 0.99425161E+02</rscale>
<asrwt>0</asrwt>
<pdfrwt beam="1">  1       21 0.39733580E-01 0.99425161E+02</pdfrwt>
<pdfrwt beam="2">  1       21 0.75389897E-02 0.99425161E+02</pdfrwt>
<totfact> 0.81402654E+05</totfact>
</mgrwt>
</event>
<event>
 5    1  0.1959123E+000  0.1569125E+03  0.7546771E-02  0.1192227E+00
         21   -1    0    0  503  502  0.00000000000E+00  0.00000000000E+00  0.61172203125E+03  0.61172203125E+03  0.00000000000E+00 0.  1.
         21   -1    0    0  501  503 -0.00000000000E+00 -0.00000000000E+00 -0.48662148040E+02  0.48662148040E+02  0.00000000000E+00 0.  1.
         24    1    1    2    0    0  0.12702383679E+03  0.43367084264E+02  0.22826407762E+03  0.27674440228E+03  0.80419002446E+02 0.  1.
          1    1    1    2  501    0 -0.49966549140E+02 -0.60449043059E+02  0.62943590395E+02  0.10056161500E+03  0.00000000000E+00 0. -1.
         -2    1    1    2    0  502 -0.77057287651E+02  0.17081958796E+02  0.27185221519E+03  0.28307816200E+03  0.00000000000E+00 0.  1.
<mgrwt>
<rscale>  2 0.15691249E+03</rscale>
<asrwt>0</asrwt>
<pdfrwt beam="1">  1       21 0.94111076E-01 0.15691249E+03</pdfrwt>
<pdfrwt beam="2">  1       21 0.74864847E-02 0.15691249E+03</pdfrwt>
<totfact> 0.12928829E+05</totfact>
</mgrwt>
</event>
<event>
 5    1  0.1959123E+000  0.8369354E+02  0.7546771E-02  0.1318885E+00
         21   -1    0    0  501  502  0.00000000000E+00  0.00000000000E+00  0.22860284058E+02  0.22860284058E+02  0.00000000000E+00 0.  1.
         21   -1    0    0  502  503 -0.00000000000E+00 -0.00000000000E+00 -0.31136807596E+03  0.31136807596E+03  0.00000000000E+00 0. -1.
         24    1    1    2    0    0  0.16658858437E+02  0.52722901528E+02 -0.18103092376E+03  0.20566145293E+03  0.80419002446E+02 0.  0.
          1    1    1    2  501    0 -0.28170307016E+02 -0.18537875297E+02 -0.42550223462E+02  0.54293098406E+02  0.00000000000E+00 0. -1.
         -2    1    1    2    0  503  0.11511448578E+02 -0.34185026231E+02 -0.64926644689E+02  0.74273808691E+02  0.00000000000E+00 0.  1.
<mgrwt>
<rscale>  2 0.83693538E+02</rscale>
<asrwt>0</asrwt>
<pdfrwt beam="1">  1       21 0.35169665E-02 0.83693538E+02</pdfrwt>
<pdfrwt beam="2">  1       21 0.47902784E-01 0.83693538E+02</pdfrwt>
<totfact> 0.19888069E+06</totfact>
</mgrwt>
</event>
<event>
 5    1  0.1959123E+000  0.7300891E+02  0.7546771E-02  0.1350150E+00
         21   -1    0    0  501  502  0.00000000000E+00  0.00000000000E+00  0.70319911015E+02  0.70319911015E+02  0.00000000000E+00 0. -1.
         21   -1    0    0  502  503 -0.00000000000E+00 -0.00000000000E+00 -0.81835260469E+02  0.81835260469E+02  0.00000000000E+00 0. -1.
         24    1    1    2    0    0 -0.45830302302E+01 -0.14218927603E+02  0.12658381177E+02  0.82768548596E+02  0.80419002446E+02 0. -1.
          1    1    1    2  501    0 -0.27404980640E+02 -0.35452746748E+01 -0.50154445149E+01  0.28084811199E+02  0.00000000000E+00 0. -1.
         -2    1    1    2    0  503  0.31988010870E+02  0.17764202278E+02 -0.19158286116E+02  0.41301811690E+02  0.00000000000E+00 0.  1.
<mgrwt>
<rscale>  2 0.73008907E+02</rscale>
<asrwt>0</asrwt>
<pdfrwt beam="1">  1       21 0.10818448E-01 0.73008907E+02</pdfrwt>
<pdfrwt beam="2">  1       21 0.12590040E-01 0.73008907E+02</pdfrwt>
<totfact> 0.36409473E+06</totfact>
</mgrwt>
</event>
<event>
 5    1  0.1959123E+000  0.7995445E+02  0.7546771E-02  0.1329181E+00
         21   -1    0    0  501  502  0.00000000000E+00  0.00000000000E+00  0.11165785142E+03  0.11165785142E+03  0.00000000000E+00 0.  1.
         21   -1    0    0  502  503 -0.00000000000E+00 -0.00000000000E+00 -0.65710760407E+02  0.65710760407E+02  0.00000000000E+00 0. -1.
         24    1    1    2    0    0  0.63683548170E+01  0.26062108212E+02 -0.61908599655E+01  0.85001953678E+02  0.80419002446E+02 0. -1.
          1    1    1    2  501    0 -0.24498375472E+02 -0.43534171805E+02  0.41848313471E+02  0.65166524044E+02  0.00000000000E+00 0. -1.
         -2    1    1    2    0  503  0.18130020655E+02  0.17472063594E+02  0.10289637503E+02  0.27200134101E+02  0.00000000000E+00 0.  1.
<mgrwt>
<rscale>  2 0.79954453E+02</rscale>
<asrwt>0</asrwt>
<pdfrwt beam="1">  1       21 0.17178131E-01 0.79954453E+02</pdfrwt>
<pdfrwt beam="2">  1       21 0.10109348E-01 0.79954453E+02</pdfrwt>
<totfact> 0.23712024E+06</totfact>
</mgrwt>
</event>
<event>
 5    1  0.1959123E+000  0.6252939E+02  0.7546771E-02  0.1387513E+00
         21   -1    0    0  501  502  0.00000000000E+00  0.00000000000E+00  0.12191440367E+02  0.12191440367E+02  0.00000000000E+00 0.  1.
         21   -1    0    0  502  503 -0.00000000000E+00 -0.00000000000E+00 -0.39028502878E+03  0.39028502878E+03  0.00000000000E+00 0. -1.
         24    1    1    2    0    0 -0.26419934673E+01 -0.20010893751E+01 -0.16901708279E+03  0.18720303074E+03  0.80419002446E+02 0.  1.
          1    1    1    2  501    0 -0.11557000630E+02  0.19113209609E+02 -0.51488024343E+02  0.56123931579E+02  0.00000000000E+00 0. -1.
         -2    1    1    2    0  503  0.14198994097E+02 -0.17112120234E+02 -0.15758848128E+03  0.15914950683E+03  0.00000000000E+00 0.  1.
<mgrwt>
<rscale>  2 0.62529394E+02</rscale>
<asrwt>0</asrwt>
<pdfrwt beam="1">  1       21 0.18756064E-02 0.62529394E+02</pdfrwt>
<pdfrwt beam="2">  1       21 0.60043844E-01 0.62529394E+02</pdfrwt>
<totfact> 0.33862845E+06</totfact>
</mgrwt>
</event>
<event>
 5    1  0.1959123E+000  0.6510604E+02  0.7546771E-02  0.1377573E+00
         21   -1    0    0  503  502  0.00000000000E+00  0.00000000000E+00  0.19428121848E+03  0.19428121848E+03  0.00000000000E+00 0. -1.
         21   -1    0    0  501  503 -0.00000000000E+00 -0.00000000000E+00 -0.28272959044E+02  0.28272959044E+02  0.00000000000E+00 0. -1.
         24    1    1    2    0    0 -0.34978136678E+02 -0.13777850769E+02  0.56205118483E+02  0.10506917015E+03  0.80419002446E+02 0. -1.
          1    1    1    2  501    0  0.20684138466E+02 -0.12216391101E+01  0.47365838246E+02  0.51699599795E+02  0.00000000000E+00 0. -1.
         -2    1    1    2    0  502  0.14293998212E+02  0.14999489879E+02  0.62437302705E+02  0.65785407581E+02  0.00000000000E+00 0.  1.
<mgrwt>
<rscale>  2 0.65106040E+02</rscale>
<asrwt>0</asrwt>
<pdfrwt beam="1">  1       21 0.29889417E-01 0.65106040E+02</pdfrwt>
<pdfrwt beam="2">  1       21 0.43496861E-02 0.65106040E+02</pdfrwt>
<totfact> 0.34847698E+06</totfact>
</mgrwt>
</event>
<event>
 5    1  0.1959123E+000  0.1127062E+03  0.7546771E-02  0.1255639E+00
         21   -1    0    0  503  502  0.00000000000E+00  0.00000000000E+00  0.15281513308E+04  0.15281513308E+04  0.00000000000E+00 0. -1.
         21   -1    0    0  501  503 -0.00000000000E+00 -0.00000000000E+00 -0.12355375042E+02  0.12355375042E+02  0.00000000000E+00 0.  1.
         24    1    1    2    0    0 -0.32469235900E+02 -0.53087580669E+02  0.32281837461E+03  0.33845451901E+03  0.80419002446E+02 0.  1.
          1    1    1    2  501    0  0.46605434067E+02 -0.18954155801E+02  0.19528123474E+03  0.20165834262E+03  0.00000000000E+00 0. -1.
         -2    1    1    2    0  502 -0.14136198166E+02  0.72041736470E+02  0.99769634639E+03  0.10003938442E+04  0.00000000000E+00 0.  1.
<mgrwt>
<rscale>  2 0.11270622E+03</rscale>
<asrwt>0</asrwt>
<pdfrwt beam="1">  1       21 0.23510005E+00 0.11270622E+03</pdfrwt>
<pdfrwt beam="2">  1       21 0.19008281E-02 0.11270622E+03</pdfrwt>
<totfact> 0.11554482E+05</totfact>
</mgrwt>
</event>
<event>
 5    1  0.1959123E+000  0.1043646E+03  0.7546771E-02  0.1271377E+00
         21   -1    0    0  501  502  0.00000000000E+00  0.00000000000E+00  0.65506891975E+02  0.65506891975E+02  0.00000000000E+00 0.  1.
         21   -1    0    0  502  503 -0.00000000000E+00 -0.00000000000E+00 -0.26731847502E+03  0.26731847502E+03  0.00000000000E+00 0. -1.
         24    1    1    2    0    0  0.10502369021E+02  0.11355758181E+02 -0.18133912904E+03  0.19897323607E+03  0.80419002446E+02 0. -1.
          1    1    1    2  501    0 -0.29791798761E+02  0.52372273298E+02  0.92092180734E+01  0.60952571573E+02  0.00000000000E+00 0. -1.
         -2    1    1    2    0  503  0.19289429740E+02 -0.63728031479E+02 -0.29681672082E+02  0.72899559350E+02  0.00000000000E+00 0.  1.
<mgrwt>
<rscale>  2 0.10436462E+03</rscale>
<asrwt>0</asrwt>
<pdfrwt beam="1">  1       21 0.10077983E-01 0.10436462E+03</pdfrwt>
<pdfrwt beam="2">  1       21 0.41125920E-01 0.10436462E+03</pdfrwt>
<totfact> 0.46099943E+05</totfact>
</mgrwt>
</event>
<event>
 5    1  0.1959123E+000  0.7555711E+02  0.7546771E-02  0.1342154E+00
         21   -1    0    0  501  502  0.00000000000E+00  0.00000000000E+00  0.23947315652E+02  0.23947315652E+02  0.00000000000E+00 0.  1.
         21   -1    0    0  502  503 -0.00000000000E+00 -0.00000000000E+00 -0.24452143280E+03  0.24452143280E+03  0.00000000000E+00 0. -1.
         24    1    1    2    0    0 -0.36618310013E+02  0.30030878216E+02 -0.15069469152E+03  0.17725366084E+03  0.80419002446E+02 0.  0.
          1    1    1    2  501    0  0.35466638205E+02 -0.88226566710E+01 -0.36508838518E+02  0.51658658386E+02  0.00000000000E+00 0. -1.
         -2    1    1    2    0  503  0.11516718078E+01 -0.21208221545E+02 -0.33370587110E+02  0.39556429226E+02  0.00000000000E+00 0.  1.
<mgrwt>
<rscale>  2 0.75557108E+02</rscale>
<asrwt>0</asrwt>
<pdfrwt beam="1">  1       21 0.36842023E-02 0.75557108E+02</pdfrwt>
<pdfrwt beam="2">  1       21 0.37618683E-01 0.75557108E+02</pdfrwt>
<totfact> 0.29667545E+06</totfact>
</mgrwt>
</event>
<event>
 5    1  0.1959123E+000  0.7039591E+02  0.7546771E-02  0.1358752E+00
         21   -1    0    0  503  502  0.00000000000E+00  0.00000000000E+00  0.30015751860E+02  0.30015751860E+02  0.00000000000E+00 0.  1.
         21   -1    0    0  501  503 -0.00000000000E+00 -0.00000000000E+00 -0.31151302389E+03  0.31151302389E+03  0.00000000000E+00 0.  1.
         24    1    1    2    0    0  0.22669069258E+02 -0.14282039641E+01 -0.24950658433E+03  0.26312863403E+03  0.80419002446E+02 0.  1.
          1    1    1    2  501    0 -0.30107618778E+02  0.20721334601E+02 -0.41790179937E+02  0.55518119162E+02  0.00000000000E+00 0. -1.
         -2    1    1    2    0  502  0.74385495200E+01 -0.19293130637E+02  0.97994922294E+01  0.22882022566E+02  0.00000000000E+00 0.  1.
<mgrwt>
<rscale>  2 0.70395913E+02</rscale>
<asrwt>0</asrwt>
<pdfrwt beam="1">  1       21 0.46178079E-02 0.70395913E+02</pdfrwt>
<pdfrwt beam="2">  1       21 0.47925082E-01 0.70395913E+02</pdfrwt>
<totfact> 0.12636384E+06</totfact>
</mgrwt>
</event>
<event>
 5    1  0.1959123E+000  0.1081742E+03  0.7546771E-02  0.1263989E+00
         21   -1    0    0  501  502  0.00000000000E+00  0.00000000000E+00  0.24141632321E+02  0.24141632321E+02  0.00000000000E+00 0.  1.
         21   -1    0    0  502  503 -0.00000000000E+00 -0.00000000000E+00 -0.65837934433E+03  0.65837934433E+03  0.00000000000E+00 0.  1.
         24    1    1    2    0    0 -0.81855532538E+02  0.89185518324E+01 -0.35465100991E+03  0.37285979075E+03  0.80419002446E+02 0.  1.
          1    1    1    2  501    0  0.75842267488E+02  0.14377250937E+02 -0.90067244243E+02  0.11862067007E+03  0.00000000000E+00 0. -1.
         -2    1    1    2    0  503  0.60132650507E+01 -0.23295802770E+02 -0.18951945786E+03  0.19104051583E+03  0.00000000000E+00 0.  1.
<mgrwt>
<rscale>  2 0.10817417E+03</rscale>
<asrwt>0</asrwt>
<pdfrwt beam="1">  1       21 0.37140978E-02 0.10817417E+03</pdfrwt>
<pdfrwt beam="2">  1       21 0.10128912E+00 0.10817417E+03</pdfrwt>
<totfact> 0.36025192E+05</totfact>
</mgrwt>
</event>
<event>
 5    1  0.1959123E+000  0.6502692E+02  0.7546771E-02  0.1377870E+00
         21   -1    0    0  501  502  0.00000000000E+00  0.00000000000E+00  0.43495190690E+01  0.43495190690E+01  0.00000000000E+00 0.  1.
         21   -1    0    0  502  503 -0.00000000000E+00 -0.00000000000E+00 -0.13260105319E+04  0.13260105319E+04  0.00000000000E+00 0. -1.
         24    1    1    2    0    0  0.11700912324E+02  0.99956133066E+01 -0.77687407438E+03  0.78117691148E+03  0.80419002446E+02 0. -1.
          1    1    1    2  501    0 -0.26246917280E+02  0.56124423093E+01 -0.90519061632E+02  0.94414515272E+02  0.00000000000E+00 0. -1.
         -2    1    1    2    0  503  0.14546004956E+02 -0.15608055616E+02 -0.45426787679E+03  0.45476862419E+03  0.00000000000E+00 0.  1.
<mgrwt>
<rscale>  2 0.65026916E+02</rscale>
<asrwt>0</asrwt>
<pdfrwt beam="1">  1       21 0.66915708E-03 0.65026916E+02</pdfrwt>
<pdfrwt beam="2">  1       21 0.20400153E+00 0.65026916E+02</pdfrwt>
<totfact> 0.93559192E+05</totfact>
</mgrwt>
</event>
<event>
 5    1  0.1959123E+000  0.8446513E+02  0.7546771E-02  0.1316837E+00
         21   -1    0    0  501  502  0.00000000000E+00  0.00000000000E+00  0.33782546965E+02  0.33782546965E+02  0.00000000000E+00 0.  1.
         21   -1    0    0  502  503 -0.00000000000E+00 -0.00000000000E+00 -0.31976155354E+03  0.31976155354E+03  0.00000000000E+00 0. -1.
         24    1    1    2    0    0  0.17025739998E+00 -0.24458940114E+02 -0.24390536391E+03  0.25798316076E+03  0.80419002446E+02 0. -1.
          1    1    1    2  501    0  0.40526592224E+02  0.10719648331E+02 -0.13783906164E+02  0.44128353774E+02  0.00000000000E+00 0. -1.
         -2    1    1    2    0  503 -0.40696849624E+02  0.13739291783E+02 -0.28289736503E+02  0.51432585969E+02  0.00000000000E+00 0.  1.
<mgrwt>
<rscale>  2 0.84465134E+02</rscale>
<asrwt>0</asrwt>
<pdfrwt beam="1">  1       21 0.51973151E-02 0.84465134E+02</pdfrwt>
<pdfrwt beam="2">  1       21 0.49194084E-01 0.84465134E+02</pdfrwt>
<totfact> 0.99003360E+05</totfact>
</mgrwt>
</event>
<event>
 5    1  0.1959123E+000  0.8090580E+02  0.7546771E-02  0.1326500E+00
         21   -1    0    0  501  502  0.00000000000E+00  0.00000000000E+00  0.22098781569E+03  0.22098781569E+03  0.00000000000E+00 0. -1.
         21   -1    0    0  502  503 -0.00000000000E+00 -0.00000000000E+00 -0.41914728895E+02  0.41914728895E+02  0.00000000000E+00 0.  1.
         24    1    1    2    0    0 -0.40984693997E+01  0.35241502314E+02  0.46380208139E+02  0.99383603266E+02  0.80419002446E+02 0.  1.
          1    1    1    2  501    0  0.77210924320E+01  0.18502090883E+02  0.96648909022E+02  0.98706404303E+02  0.00000000000E+00 0. -1.
         -2    1    1    2    0  503 -0.36226230322E+01 -0.53743593197E+02  0.36043969635E+02  0.64812537016E+02  0.00000000000E+00 0.  1.
<mgrwt>
<rscale>  2 0.80905795E+02</rscale>
<asrwt>0</asrwt>
<pdfrwt beam="1">  1       21 0.33998125E-01 0.80905795E+02</pdfrwt>
<pdfrwt beam="2">  1       21 0.64484200E-02 0.80905795E+02</pdfrwt>
<totfact> 0.14329391E+06</totfact>
</mgrwt>
</event>
<event>
 5    1  0.1959123E+000  0.1162005E+03  0.7546771E-02  0.1249500E+00
         21   -1    0    0  503  502  0.00000000000E+00  0.00000000000E+00  0.15085032741E+03  0.15085032741E+03  0.00000000000E+00 0. -1.
         21   -1    0    0  501  503 -0.00000000000E+00 -0.00000000000E+00 -0.13854379181E+03  0.13854379181E+03  0.00000000000E+00 0. -1.
         24    1    1    2    0    0 -0.98191741140E+02  0.24701591986E+02  0.78115740921E+02  0.15106644766E+03  0.80419002446E+02 0. -1.
          1    1    1    2  501    0  0.81427581180E+02 -0.12538840149E+02 -0.78697005021E+02  0.11393371796E+03  0.00000000000E+00 0. -1.
         -2    1    1    2    0  502  0.16764159959E+02 -0.12162751837E+02  0.12887799697E+02  0.24393953603E+02  0.00000000000E+00 0.  1.
<mgrwt>
<rscale>  2 0.11620045E+03</rscale>
<asrwt>0</asrwt>
<pdfrwt beam="1">  1       21 0.23207743E-01 0.11620045E+03</pdfrwt>
<pdfrwt beam="2">  1       21 0.21314430E-01 0.11620045E+03</pdfrwt>
<totfact> 0.36217494E+05</totfact>
</mgrwt>
</event>
<event>
 5    1  0.1959123E+000  0.9886820E+02  0.7546771E-02  0.1282694E+00
         21   -1    0    0  501  502  0.00000000000E+00  0.00000000000E+00  0.81742094787E+03  0.81742094787E+03  0.00000000000E+00 0. -1.
         21   -1    0    0  502  503 -0.00000000000E+00 -0.00000000000E+00 -0.15980101780E+02  0.15980101780E+02  0.00000000000E+00 0. -1.
         24    1    1    2    0    0  0.58727306430E+02  0.19899397840E+01  0.27672052932E+03  0.29409917321E+03  0.80419002446E+02 0. -1.
          1    1    1    2  501    0 -0.77315215698E+02  0.67254018300E+01  0.50468108773E+03  0.51061323320E+03  0.00000000000E+00 0. -1.
         -2    1    1    2    0  503  0.18587909267E+02 -0.87153416140E+01  0.20039229041E+02  0.28688643240E+02  0.00000000000E+00 0.  1.
<mgrwt>
<rscale>  2 0.98868205E+02</rscale>
<asrwt>0</asrwt>
<pdfrwt beam="1">  1       21 0.12575704E+00 0.98868205E+02</pdfrwt>
<pdfrwt beam="2">  1       21 0.24584778E-02 0.98868205E+02</pdfrwt>
<totfact> 0.42231741E+05</totfact>
</mgrwt>
</event>
<event>
 5    1  0.1959123E+000  0.1531812E+03  0.7546771E-02  0.1196618E+00
         21   -1    0    0  503  502  0.00000000000E+00  0.00000000000E+00  0.30315006146E+03  0.30315006146E+03  0.00000000000E+00 0.  1.
         21   -1    0    0  501  503 -0.00000000000E+00 -0.00000000000E+00 -0.10954770487E+03  0.10954770487E+03  0.00000000000E+00 0. -1.
         24    1    1    2    0    0 -0.10756640660E+03 -0.33276359869E+02  0.17734402361E+03  0.22493547213E+03  0.80419002446E+02 0.  1.
          1    1    1    2  501    0  0.13548340782E+03  0.19546499174E+02 -0.21794836910E+02  0.13861036880E+03  0.00000000000E+00 0. -1.
         -2    1    1    2    0  502 -0.27917001212E+02  0.13729860695E+02  0.38053169892E+02  0.49151925397E+02  0.00000000000E+00 0.  1.
<mgrwt>
<rscale>  2 0.15318121E+03</rscale>
<asrwt>0</asrwt>
<pdfrwt beam="1">  1       21 0.46638471E-01 0.15318121E+03</pdfrwt>
<pdfrwt beam="2">  1       21 0.16853493E-01 0.15318121E+03</pdfrwt>
<totfact> 0.14142042E+05</totfact>
</mgrwt>
</event>
<event>
 5    1  0.1959123E+000  0.1359407E+03  0.7546771E-02  0.1218898E+00
         21   -1    0    0  503  502  0.00000000000E+00  0.00000000000E+00  0.20387825082E+03  0.20387825082E+03  0.00000000000E+00 0.  1.
         21   -1    0    0  501  503 -0.00000000000E+00 -0.00000000000E+00 -0.93801003765E+02  0.93801003765E+02  0.00000000000E+00 0.  1.
         24    1    1    2    0    0  0.70116240197E+02  0.46268564060E+01  0.40181882530E+02  0.11410299986E+03  0.80419002446E+02 0.  1.
          1    1    1    2  501    0 -0.33067164838E+01 -0.70903556428E+02  0.91527139533E+01  0.71568295081E+02  0.00000000000E+00 0. -1.
         -2    1    1    2    0  502 -0.66809523714E+02  0.66276700022E+02  0.60742650571E+02  0.11200795964E+03  0.00000000000E+00 0.  1.
<mgrwt>
<rscale>  2 0.13594066E+03</rscale>
<asrwt>0</asrwt>
<pdfrwt beam="1">  1       21 0.31365885E-01 0.13594066E+03</pdfrwt>
<pdfrwt beam="2">  1       21 0.14430924E-01 0.13594066E+03</pdfrwt>
<totfact> 0.41490073E+05</totfact>
</mgrwt>
</event>
<event>
 5    1  0.1959123E+000  0.7824212E+02  0.7546771E-02  0.1334115E+00
         21   -1    0    0  503  502  0.00000000000E+00  0.00000000000E+00  0.33986870633E+02  0.33986870633E+02  0.00000000000E+00 0.  1.
         21   -1    0    0  501  503 -0.00000000000E+00 -0.00000000000E+00 -0.60677508543E+03  0.60677508543E+03  0.00000000000E+00 0. -1.
         24    1    1    2    0    0 -0.39391446988E+02  0.34326749279E+01 -0.24036692610E+03  0.25652864259E+03  0.80419002446E+02 0. -1.
          1    1    1    2  501    0  0.92537078441E+01 -0.27044827819E+02 -0.34325574017E+03  0.34444383719E+03  0.00000000000E+00 0. -1.
         -2    1    1    2    0  502  0.30137739144E+02  0.23612152891E+02  0.10834451463E+02  0.39789476289E+02  0.00000000000E+00 0.  1.
<mgrwt>
<rscale>  2 0.78242118E+02</rscale>
<asrwt>0</asrwt>
<pdfrwt beam="1">  1       21 0.52287489E-02 0.78242118E+02</pdfrwt>
<pdfrwt beam="2">  1       21 0.93350021E-01 0.78242118E+02</pdfrwt>
<totfact> 0.24866948E+05</totfact>
</mgrwt>
</event>
<event>
 5    1  0.1959123E+000  0.1079443E+03  0.7546771E-02  0.1264425E+00
         21   -1    0    0  503  502  0.00000000000E+00  0.00000000000E+00  0.17539773947E+03  0.17539773947E+03  0.00000000000E+00 0.  1.
         21   -1    0    0  501  503 -0.00000000000E+00 -0.00000000000E+00 -0.26524960008E+03  0.26524960008E+03  0.00000000000E+00 0. -1.
         24    1    1    2    0    0 -0.61532033886E+02  0.26784856243E+01 -0.11614763937E+03  0.15411312587E+03  0.80419002446E+02 0. -1.
          1    1    1    2  501    0 -0.74306383547E+01  0.35157308849E+02 -0.11736801662E+03  0.12274568049E+03  0.00000000000E+00 0. -1.
         -2    1    1    2    0  502  0.68962672240E+02 -0.37835794473E+02  0.14366379537E+03  0.16378853320E+03  0.00000000000E+00 0.  1.
<mgrwt>
<rscale>  2 0.10794426E+03</rscale>
<asrwt>0</asrwt>
<pdfrwt beam="1">  1       21 0.26984268E-01 0.10794426E+03</pdfrwt>
<pdfrwt beam="2">  1       21 0.40807631E-01 0.10794426E+03</pdfrwt>
<totfact> 0.78583472E+04</totfact>
</mgrwt>
</event>
<event>
 5    1  0.1959123E+000  0.8305472E+02  0.7546771E-02  0.1320599E+00
         21   -1    0    0  503  502  0.00000000000E+00  0.00000000000E+00  0.27234800294E+03  0.27234800294E+03  0.00000000000E+00 0.  1.
         21   -1    0    0  501  503 -0.00000000000E+00 -0.00000000000E+00 -0.41592872219E+02  0.41592872219E+02  0.00000000000E+00 0.  1.
         24    1    1    2    0    0  0.13177056295E+02 -0.31325107905E+02  0.28348636183E+02  0.91791929523E+02  0.80419002446E+02 0.  1.
          1    1    1    2  501    0  0.29024735022E+02  0.19536702864E+02  0.36527864547E+02  0.50580657274E+02  0.00000000000E+00 0. -1.
         -2    1    1    2    0  502 -0.42201791317E+02  0.11788405040E+02  0.16587862999E+03  0.17156828837E+03  0.00000000000E+00 0.  1.
<mgrwt>
<rscale>  2 0.83054717E+02</rscale>
<asrwt>0</asrwt>
<pdfrwt beam="1">  1       21 0.41899692E-01 0.83054717E+02</pdfrwt>
<pdfrwt beam="2">  1       21 0.63989036E-02 0.83054717E+02</pdfrwt>
<totfact> 0.96479994E+05</totfact>
</mgrwt>
</event>
<event>
 5    1  0.1959123E+000  0.9489075E+02  0.7546771E-02  0.1291422E+00
         21   -1    0    0  503  502  0.00000000000E+00  0.00000000000E+00  0.30825604203E+02  0.30825604203E+02  0.00000000000E+00 0. -1.
         21   -1    0    0  501  503 -0.00000000000E+00 -0.00000000000E+00 -0.12689411152E+04  0.12689411152E+04  0.00000000000E+00 0.  1.
         24    1    1    2    0    0 -0.60571579291E+02 -0.59979833474E+01 -0.11640211866E+04  0.11683823993E+04  0.80419002446E+02 0.  1.
          1    1    1    2  501    0  0.56757253462E+02 -0.21849123484E+02 -0.82087935571E+02  0.10216261148E+03  0.00000000000E+00 0. -1.
         -2    1    1    2    0  502  0.38143258292E+01  0.27847106831E+02  0.79936111619E+01  0.29221708708E+02  0.00000000000E+00 0.  1.
<mgrwt>
<rscale>  2 0.94890754E+02</rscale>
<asrwt>0</asrwt>
<pdfrwt beam="1">  1       21 0.47424016E-02 0.94890754E+02</pdfrwt>
<pdfrwt beam="2">  1       21 0.19522167E+00 0.94890754E+02</pdfrwt>
<totfact> 0.45881065E+04</totfact>
</mgrwt>
</event>
<event>
 5    1  0.1959123E+000  0.9585773E+02  0.7546771E-02  0.1289256E+00
         21   -1    0    0  501  502  0.00000000000E+00  0.00000000000E+00  0.93075259386E+01  0.93075259386E+01  0.00000000000E+00 0.  1.
         21   -1    0    0  502  503 -0.00000000000E+00 -0.00000000000E+00 -0.11974819511E+04  0.11974819511E+04  0.00000000000E+00 0.  1.
         24    1    1    2    0    0  0.41288087060E+02 -0.67002856472E+02 -0.43361494004E+03  0.44797680865E+03  0.80419002446E+02 0.  1.
          1    1    1    2  501    0 -0.77406571398E+01  0.20003904119E+02 -0.15461341390E+03  0.15609414374E+03  0.00000000000E+00 0. -1.
         -2    1    1    2    0  503 -0.33547429921E+02  0.46998952352E+02 -0.59994607121E+03  0.60271852463E+03  0.00000000000E+00 0.  1.
<mgrwt>
<rscale>  2 0.95857735E+02</rscale>
<asrwt>0</asrwt>
<pdfrwt beam="1">  1       21 0.14319273E-02 0.95857735E+02</pdfrwt>
<pdfrwt beam="2">  1       21 0.18422796E+00 0.95857735E+02</pdfrwt>
<totfact> 0.37474193E+05</totfact>
</mgrwt>
</event>
<event>
 5    1  0.1959123E+000  0.6415454E+02  0.7546771E-02  0.1381180E+00
         21   -1    0    0  501  502  0.00000000000E+00  0.00000000000E+00  0.81113817281E+01  0.81113817281E+01  0.00000000000E+00 0. -1.
         21   -1    0    0  502  503 -0.00000000000E+00 -0.00000000000E+00 -0.15201914628E+04  0.15201914628E+04  0.00000000000E+00 0. -1.
         24    1    1    2    0    0 -0.21624139252E+02 -0.26766387984E+02 -0.14562351171E+04  0.14588598203E+04  0.80419002446E+02 0. -1.
          1    1    1    2  501    0  0.25403443264E+01  0.20638259726E+02 -0.23380829868E+02  0.31289843706E+02  0.00000000000E+00 0. -1.
         -2    1    1    2    0  503  0.19083794926E+02  0.61281282581E+01 -0.32464134141E+02  0.38153180604E+02  0.00000000000E+00 0.  1.
<mgrwt>
<rscale>  2 0.64154537E+02</rscale>
<asrwt>0</asrwt>
<pdfrwt beam="1">  1       21 0.12479059E-02 0.64154537E+02</pdfrwt>
<pdfrwt beam="2">  1       21 0.23387542E+00 0.64154537E+02</pdfrwt>
<totfact> 0.24036553E+05</totfact>
</mgrwt>
</event>
<event>
 5    1  0.1959123E+000  0.8274456E+02  0.7546771E-02  0.1321438E+00
         21   -1    0    0  503  502  0.00000000000E+00  0.00000000000E+00  0.10967030334E+03  0.10967030334E+03  0.00000000000E+00 0.  1.
         21   -1    0    0  501  503 -0.00000000000E+00 -0.00000000000E+00 -0.10146995790E+03  0.10146995790E+03  0.00000000000E+00 0.  1.
         24    1    1    2    0    0  0.30966494203E+01  0.12869419143E+02 -0.81958950481E+01  0.81912147065E+02  0.80419002446E+02 0.  1.
          1    1    1    2  501    0 -0.41722812259E+02  0.38470291035E+01 -0.40621868063E+02  0.58358622847E+02  0.00000000000E+00 0. -1.
         -2    1    1    2    0  502  0.38626162838E+02 -0.16716448247E+02  0.57018108549E+02  0.70869491321E+02  0.00000000000E+00 0.  1.
<mgrwt>
<rscale>  2 0.82744561E+02</rscale>
<asrwt>0</asrwt>
<pdfrwt beam="1">  1       21 0.16872354E-01 0.82744561E+02</pdfrwt>
<pdfrwt beam="2">  1       21 0.15610763E-01 0.82744561E+02</pdfrwt>
<totfact> 0.11433217E+06</totfact>
</mgrwt>
</event>
<event>
 5    1  0.1959123E+000  0.7749315E+02  0.7546771E-02  0.1336320E+00
         21   -1    0    0  501  502  0.00000000000E+00  0.00000000000E+00  0.68522463848E+02  0.68522463848E+02  0.00000000000E+00 0. -1.
         21   -1    0    0  502  503 -0.00000000000E+00 -0.00000000000E+00 -0.30348319639E+03  0.30348319639E+03  0.00000000000E+00 0.  1.
         24    1    1    2    0    0 -0.24825277922E+02  0.34834944633E+01 -0.76747347308E+02  0.11395525627E+03  0.80419002446E+02 0. -1.
          1    1    1    2  501    0  0.31223501628E+02 -0.30103827741E+02  0.39371923393E+02  0.58577263936E+02  0.00000000000E+00 0. -1.
         -2    1    1    2    0  503 -0.63982237058E+01  0.26620333277E+02 -0.19758530863E+03  0.19947314004E+03  0.00000000000E+00 0.  1.
<mgrwt>
<rscale>  2 0.77493149E+02</rscale>
<asrwt>0</asrwt>
<pdfrwt beam="1">  1       21 0.10541917E-01 0.77493149E+02</pdfrwt>
<pdfrwt beam="2">  1       21 0.46689723E-01 0.77493149E+02</pdfrwt>
<totfact> 0.33149750E+05</totfact>
</mgrwt>
</event>
<event>
 5    1  0.1959123E+000  0.7249534E+02  0.7546771E-02  0.1351807E+00
         21   -1    0    0  501  502  0.00000000000E+00  0.00000000000E+00  0.11947879270E+02  0.11947879270E+02  0.00000000000E+00 0.  1.
         21   -1    0    0  502  503 -0.00000000000E+00 -0.00000000000E+00 -0.68775741527E+03  0.68775741527E+03  0.00000000000E+00 0. -1.
         24    1    1    2    0    0 -0.30173356613E+00  0.24493387683E+02 -0.19692897711E+03  0.21412205646E+03  0.80419002446E+02 0.  1.
          1    1    1    2  501    0  0.26164402744E+02 -0.23297479234E+02 -0.10266511662E+03  0.10847799169E+03  0.00000000000E+00 0. -1.
         -2    1    1    2    0  503 -0.25862669178E+02 -0.11959084490E+01 -0.37621544227E+03  0.37710524639E+03  0.00000000000E+00 0.  1.
<mgrwt>
<rscale>  2 0.72495338E+02</rscale>
<asrwt>0</asrwt>
<pdfrwt beam="1">  1       21 0.18381344E-02 0.72495338E+02</pdfrwt>
<pdfrwt beam="2">  1       21 0.10580888E+00 0.72495338E+02</pdfrwt>
<totfact> 0.10160827E+06</totfact>
</mgrwt>
</event>
<event>
 5    1  0.1959123E+000  0.7364116E+02  0.7546771E-02  0.1348131E+00
         21   -1    0    0  501  502  0.00000000000E+00  0.00000000000E+00  0.38967646039E+03  0.38967646039E+03  0.00000000000E+00 0.  1.
         21   -1    0    0  502  503 -0.00000000000E+00 -0.00000000000E+00 -0.24236942762E+02  0.24236942762E+02  0.00000000000E+00 0.  1.
         24    1    1    2    0    0 -0.54582812512E+01  0.43282313022E+02  0.29418141104E+03  0.30807964881E+03  0.80419002446E+02 0.  1.
          1    1    1    2  501    0 -0.14289774258E+02 -0.25437328290E+02  0.73543444941E+02  0.79119489462E+02  0.00000000000E+00 0. -1.
         -2    1    1    2    0  503  0.19748055509E+02 -0.17844984733E+02 -0.22853383564E+01  0.26714264877E+02  0.00000000000E+00 0.  1.
<mgrwt>
<rscale>  2 0.73641163E+02</rscale>
<asrwt>0</asrwt>
<pdfrwt beam="1">  1       21 0.59950220E-01 0.73641163E+02</pdfrwt>
<pdfrwt beam="2">  1       21 0.37287607E-02 0.73641163E+02</pdfrwt>
<totfact> 0.11354505E+06</totfact>
</mgrwt>
</event>
<event>
 5    1  0.1959123E+000  0.9036936E+02  0.7546771E-02  0.1301960E+00
         21   -1    0    0  503  502  0.00000000000E+00  0.00000000000E+00  0.49263786446E+03  0.49263786446E+03  0.00000000000E+00 0. -1.
         21   -1    0    0  501  503 -0.00000000000E+00 -0.00000000000E+00 -0.24776286936E+02  0.24776286936E+02  0.00000000000E+00 0. -1.
         24    1    1    2    0    0 -0.26588594161E+02  0.42319117728E+01  0.80996040194E+02  0.11727078450E+03  0.80419002446E+02 0.  0.
          1    1    1    2  501    0 -0.42769853481E+01 -0.44774245546E+02  0.11383224943E+03  0.12239610565E+03  0.00000000000E+00 0. -1.
         -2    1    1    2    0  502  0.30865579509E+02  0.40542333773E+02  0.27303328790E+03  0.27774726124E+03  0.00000000000E+00 0.  1.
<mgrwt>
<rscale>  2 0.90369358E+02</rscale>
<asrwt>0</asrwt>
<pdfrwt beam="1">  1       21 0.75790433E-01 0.90369358E+02</pdfrwt>
<pdfrwt beam="2">  1       21 0.38117368E-02 0.90369358E+02</pdfrwt>
<totfact> 0.66552192E+05</totfact>
</mgrwt>
</event>
<event>
 5    1  0.1959123E+000  0.6217926E+02  0.7546771E-02  0.1388907E+00
         21   -1    0    0  501  502  0.00000000000E+00  0.00000000000E+00  0.19294776158E+02  0.19294776158E+02  0.00000000000E+00 0.  1.
         21   -1    0    0  502  503 -0.00000000000E+00 -0.00000000000E+00 -0.24782895818E+03  0.24782895818E+03  0.00000000000E+00 0. -1.
         24    1    1    2    0    0  0.12716042290E+02 -0.66858459461E+01 -0.10037492654E+03  0.12941692354E+03  0.80419002446E+02 0.  1.
          1    1    1    2  501    0  0.60814452595E+01  0.19162941532E+02 -0.24858881099E+02  0.31971335194E+02  0.00000000000E+00 0. -1.
         -2    1    1    2    0  503 -0.18797487549E+02 -0.12477095586E+02 -0.10330037438E+03  0.10573547560E+03  0.00000000000E+00 0.  1.
<mgrwt>
<rscale>  2 0.62179262E+02</rscale>
<asrwt>0</asrwt>
<pdfrwt beam="1">  1       21 0.29684270E-02 0.62179262E+02</pdfrwt>
<pdfrwt beam="2">  1       21 0.38127534E-01 0.62179262E+02</pdfrwt>
<totfact> 0.40509704E+06</totfact>
</mgrwt>
</event>
<event>
 5    1  0.1959123E+000  0.7259847E+02  0.7546771E-02  0.1351473E+00
         21   -1    0    0  503  502  0.00000000000E+00  0.00000000000E+00  0.35149604897E+02  0.35149604897E+02  0.00000000000E+00 0. -1.
         21   -1    0    0  501  503 -0.00000000000E+00 -0.00000000000E+00 -0.18576488424E+03  0.18576488424E+03  0.00000000000E+00 0.  1.
         24    1    1    2    0    0 -0.18606566384E+02  0.12622838849E+02 -0.11619632759E+03  0.14308858401E+03  0.80419002446E+02 0.  1.
          1    1    1    2  501    0 -0.34821587508E+01  0.21097513558E+02 -0.30604989767E+02  0.37334915382E+02  0.00000000000E+00 0. -1.
         -2    1    1    2    0  502  0.22088725135E+02 -0.33720352407E+02 -0.38139619821E+01  0.40490989745E+02  0.00000000000E+00 0.  1.
<mgrwt>
<rscale>  2 0.72598473E+02</rscale>
<asrwt>0</asrwt>
<pdfrwt beam="1">  1       21 0.54076315E-02 0.72598473E+02</pdfrwt>
<pdfrwt beam="2">  1       21 0.28579213E-01 0.72598473E+02</pdfrwt>
<totfact> 0.26661633E+06</totfact>
</mgrwt>
</event>
<event>
 5    1  0.1959123E+000  0.8755275E+02  0.7546771E-02  0.1308889E+00
         21   -1    0    0  503  502  0.00000000000E+00  0.00000000000E+00  0.13746444700E+02  0.13746444700E+02  0.00000000000E+00 0.  1.
         21   -1    0    0  501  503 -0.00000000000E+00 -0.00000000000E+00 -0.73956945439E+03  0.73956945439E+03  0.00000000000E+00 0.  1.
         24    1    1    2    0    0  0.35944033510E+01 -0.63423830756E+02 -0.35968612092E+03  0.37400110104E+03  0.80419002446E+02 0.  1.
          1    1    1    2  501    0  0.15585553767E+02  0.35228718879E+02 -0.31799164072E+03  0.32031649300E+03  0.00000000000E+00 0. -1.
         -2    1    1    2    0  502 -0.19179957118E+02  0.28195111877E+02 -0.48145248046E+02  0.58998305045E+02  0.00000000000E+00 0.  1.
<mgrwt>
<rscale>  2 0.87552748E+02</rscale>
<asrwt>0</asrwt>
<pdfrwt beam="1">  1       21 0.21148373E-02 0.87552748E+02</pdfrwt>
<pdfrwt beam="2">  1       21 0.11377993E+00 0.87552748E+02</pdfrwt>
<totfact> 0.68585862E+05</totfact>
</mgrwt>
</event>
<event>
 5    1  0.1959123E+000  0.7413348E+02  0.7546771E-02  0.1346576E+00
         21   -1    0    0  501  502  0.00000000000E+00  0.00000000000E+00  0.82599511054E+03  0.82599511054E+03  0.00000000000E+00 0.  1.
         21   -1    0    0  502  503 -0.00000000000E+00 -0.00000000000E+00 -0.10996962980E+02  0.10996962980E+02  0.00000000000E+00 0. -1.
         24    1    1    2    0    0  0.27966314263E+02  0.12376718366E+02  0.25794518361E+03  0.27191585389E+03  0.80419002446E+02 0. -1.
          1    1    1    2  501    0 -0.13143169490E+02 -0.33749891276E+02  0.51022969512E+03  0.51151357738E+03  0.00000000000E+00 0. -1.
         -2    1    1    2    0  503 -0.14823144774E+02  0.21373172911E+02  0.46823268822E+02  0.53562642247E+02  0.00000000000E+00 0.  1.
<mgrwt>
<rscale>  2 0.74133481E+02</rscale>
<asrwt>0</asrwt>
<pdfrwt beam="1">  1       21 0.12707612E+00 0.74133481E+02</pdfrwt>
<pdfrwt beam="2">  1       21 0.16918411E-02 0.74133481E+02</pdfrwt>
<totfact> 0.75096291E+05</totfact>
</mgrwt>
</event>
<event>
 5    1  0.1959123E+000  0.7813379E+02  0.7546771E-02  0.1334432E+00
         21   -1    0    0  503  502  0.00000000000E+00  0.00000000000E+00  0.16974459551E+01  0.16974459551E+01  0.00000000000E+00 0.  1.
         21   -1    0    0  501  503 -0.00000000000E+00 -0.00000000000E+00 -0.38660750812E+04  0.38660750812E+04  0.00000000000E+00 0. -1.
         24    1    1    2    0    0  0.12766584420E+02  0.15851955400E+02 -0.19115225883E+04  0.19133217429E+04  0.80419002446E+02 0.  0.
          1    1    1    2  501    0  0.29261334660E+02 -0.32784520066E+01 -0.11677036841E+04  0.11680748554E+04  0.00000000000E+00 0. -1.
         -2    1    1    2    0  502 -0.42027919080E+02 -0.12573503393E+02 -0.78515136288E+03  0.78637592893E+03  0.00000000000E+00 0.  1.
<mgrwt>
<rscale>  2 0.78133786E+02</rscale>
<asrwt>0</asrwt>
<pdfrwt beam="1">  1       21 0.26114726E-03 0.78133786E+02</pdfrwt>
<pdfrwt beam="2">  1       21 0.59477684E+00 0.78133786E+02</pdfrwt>
<totfact> 0.14229843E+04</totfact>
</mgrwt>
</event>
<event>
 5    1  0.1959123E+000  0.6914849E+02  0.7546771E-02  0.1363013E+00
         21   -1    0    0  501  502  0.00000000000E+00  0.00000000000E+00  0.22679975655E+02  0.22679975655E+02  0.00000000000E+00 0.  1.
         21   -1    0    0  502  503 -0.00000000000E+00 -0.00000000000E+00 -0.48005611644E+03  0.48005611644E+03  0.00000000000E+00 0. -1.
         24    1    1    2    0    0  0.33803932465E+01  0.36639243771E+02 -0.24572568746E+03  0.26115549137E+03  0.80419002446E+02 0. -1.
          1    1    1    2  501    0 -0.17711603928E+02 -0.12125551225E+02  0.58395424622E+01  0.22244778317E+02  0.00000000000E+00 0. -1.
         -2    1    1    2    0  503  0.14331210682E+02 -0.24513692546E+02 -0.21748999579E+03  0.21933582241E+03  0.00000000000E+00 0.  1.
<mgrwt>
<rscale>  2 0.69148490E+02</rscale>
<asrwt>0</asrwt>
<pdfrwt beam="1">  1       21 0.34892274E-02 0.69148490E+02</pdfrwt>
<pdfrwt beam="2">  1       21 0.73854780E-01 0.69148490E+02</pdfrwt>
<totfact> 0.81139932E+05</totfact>
</mgrwt>
</event>
<event>
 5    1  0.1959123E+000  0.8577484E+02  0.7546771E-02  0.1313419E+00
         21   -1    0    0  501  502  0.00000000000E+00  0.00000000000E+00  0.10538902493E+03  0.10538902493E+03  0.00000000000E+00 0. -1.
         21   -1    0    0  502  503 -0.00000000000E+00 -0.00000000000E+00 -0.13333415428E+03  0.13333415428E+03  0.00000000000E+00 0. -1.
         24    1    1    2    0    0  0.46823794554E+02 -0.98142895879E+01 -0.24675838717E+01  0.93606051840E+02  0.80419002446E+02 0. -1.
          1    1    1    2  501    0 -0.29953164592E+02  0.35996787201E+02  0.46928078783E+02  0.66296344817E+02  0.00000000000E+00 0. -1.
         -2    1    1    2    0  503 -0.16870629962E+02 -0.26182497613E+02 -0.72405624266E+02  0.78820782551E+02  0.00000000000E+00 0.  1.
<mgrwt>
<rscale>  2 0.85774836E+02</rscale>
<asrwt>0</asrwt>
<pdfrwt beam="1">  1       21 0.16213696E-01 0.85774836E+02</pdfrwt>
<pdfrwt beam="2">  1       21 0.20512947E-01 0.85774836E+02</pdfrwt>
<totfact> 0.74994246E+05</totfact>
</mgrwt>
</event>
<event>
 5    1  0.1959123E+000  0.9582345E+02  0.7546771E-02  0.1289332E+00
         21   -1    0    0  503  502  0.00000000000E+00  0.00000000000E+00  0.22797436423E+03  0.22797436423E+03  0.00000000000E+00 0.  1.
         21   -1    0    0  501  503 -0.00000000000E+00 -0.00000000000E+00 -0.10424283718E+03  0.10424283718E+03  0.00000000000E+00 0. -1.
         24    1    1    2    0    0 -0.29957879370E+01  0.43124563922E+02 -0.20904839873E+02  0.93663926051E+02  0.80419002446E+02 0. -1.
          1    1    1    2  501    0  0.53386858553E-01 -0.71659442281E+02 -0.17609133141E+02  0.73791328001E+02  0.00000000000E+00 0. -1.
         -2    1    1    2    0  502  0.29424010785E+01  0.28534878358E+02  0.16224550006E+03  0.16476194736E+03  0.00000000000E+00 0.  1.
<mgrwt>
<rscale>  2 0.95823448E+02</rscale>
<asrwt>0</asrwt>
<pdfrwt beam="1">  1       21 0.35072979E-01 0.95823448E+02</pdfrwt>
<pdfrwt beam="2">  1       21 0.16037360E-01 0.95823448E+02</pdfrwt>
<totfact> 0.27782268E+05</totfact>
</mgrwt>
</event>
<event>
 5    1  0.1959123E+000  0.1250870E+03  0.7546771E-02  0.1234933E+00
         21   -1    0    0  501  502  0.00000000000E+00  0.00000000000E+00  0.87238189948E+03  0.87238189948E+03  0.00000000000E+00 0.  1.
         21   -1    0    0  502  503 -0.00000000000E+00 -0.00000000000E+00 -0.48442041999E+02  0.48442041999E+02  0.00000000000E+00 0.  1.
         24    1    1    2    0    0  0.48843502309E+02  0.76728376827E+02  0.57032800661E+03  0.58310735085E+03  0.80419002446E+02 0.  1.
          1    1    1    2  501    0 -0.54219698682E+02 -0.24319311402E+01  0.25746782459E+03  0.26312614981E+03  0.00000000000E+00 0. -1.
         -2    1    1    2    0  503  0.53761963726E+01 -0.74296445686E+02 -0.38559737215E+01  0.74590440825E+02  0.00000000000E+00 0.  1.
<mgrwt>
<rscale>  2 0.12508696E+03</rscale>
<asrwt>0</asrwt>
<pdfrwt beam="1">  1       21 0.13421259E+00 0.12508696E+03</pdfrwt>
<pdfrwt beam="2">  1       21 0.74526225E-02 0.12508696E+03</pdfrwt>
<totfact> 0.56217348E+04</totfact>
</mgrwt>
</event>
<event>
 5    1  0.1959123E+000  0.7848095E+02  0.7546771E-02  0.1333418E+00
         21   -1    0    0  503  502  0.00000000000E+00  0.00000000000E+00  0.92921420074E+01  0.92921420074E+01  0.00000000000E+00 0. -1.
         21   -1    0    0  501  503 -0.00000000000E+00 -0.00000000000E+00 -0.10181981747E+04  0.10181981747E+04  0.00000000000E+00 0. -1.
         24    1    1    2    0    0 -0.51270405847E+02  0.24111011395E+02 -0.31231259449E+03  0.32743910582E+03  0.80419002446E+02 0. -1.
          1    1    1    2  501    0  0.27364138373E+02 -0.20974557781E+02 -0.57822846859E+03  0.57925546180E+03  0.00000000000E+00 0. -1.
         -2    1    1    2    0  502  0.23906267474E+02 -0.31364536140E+01 -0.11836496959E+03  0.12079574906E+03  0.00000000000E+00 0.  1.
<mgrwt>
<rscale>  2 0.78480946E+02</rscale>
<asrwt>0</asrwt>
<pdfrwt beam="1">  1       21 0.14295599E-02 0.78480946E+02</pdfrwt>
<pdfrwt beam="2">  1       21 0.15664592E+00 0.78480946E+02</pdfrwt>
<totfact> 0.58170730E+05</totfact>
</mgrwt>
</event>
<event>
 5    1  0.1959123E+000  0.8048799E+02  0.7546771E-02  0.1327672E+00
         21   -1    0    0  503  502  0.00000000000E+00  0.00000000000E+00  0.22259106943E+02  0.22259106943E+02  0.00000000000E+00 0.  1.
         21   -1    0    0  501  503 -0.00000000000E+00 -0.00000000000E+00 -0.16501361253E+04  0.16501361253E+04  0.00000000000E+00 0. -1.
         24    1    1    2    0    0 -0.18081360148E+02 -0.15811758248E+02 -0.60621182134E+03  0.61199422838E+03  0.80419002446E+02 0.  0.
          1    1    1    2  501    0  0.20641227584E+02  0.44074257590E+02 -0.10297454228E+04  0.10308948716E+04  0.00000000000E+00 0. -1.
         -2    1    1    2    0  502 -0.25598674361E+01 -0.28262499342E+02  0.80802258310E+01  0.29506132241E+02  0.00000000000E+00 0.  1.
<mgrwt>
<rscale>  2 0.80487988E+02</rscale>
<asrwt>0</asrwt>
<pdfrwt beam="1">  1       21 0.34244764E-02 0.80487988E+02</pdfrwt>
<pdfrwt beam="2">  1       21 0.25386721E+00 0.80487988E+02</pdfrwt>
<totfact> 0.36371554E+04</totfact>
</mgrwt>
</event>
<event>
 5    1  0.1959123E+000  0.1418717E+03  0.7546771E-02  0.1210832E+00
         21   -1    0    0  501  502  0.00000000000E+00  0.00000000000E+00  0.41779668961E+03  0.41779668961E+03  0.00000000000E+00 0. -1.
         21   -1    0    0  502  503 -0.00000000000E+00 -0.00000000000E+00 -0.89408683103E+02  0.89408683103E+02  0.00000000000E+00 0. -1.
         24    1    1    2    0    0 -0.69772494707E+02  0.10428865038E+03  0.17727519725E+03  0.23159886685E+03  0.80419002446E+02 0. -1.
          1    1    1    2  501    0  0.73528045695E+02 -0.74465282102E+02  0.19564742052E+03  0.22187691385E+03  0.00000000000E+00 0. -1.
         -2    1    1    2    0  503 -0.37555509876E+01 -0.29823368273E+02 -0.44534611256E+02  0.53729592015E+02  0.00000000000E+00 0.  1.
<mgrwt>
<rscale>  2 0.14187172E+03</rscale>
<asrwt>0</asrwt>
<pdfrwt beam="1">  1       21 0.64276413E-01 0.14187172E+03</pdfrwt>
<pdfrwt beam="2">  1       21 0.13755182E-01 0.14187172E+03</pdfrwt>
<totfact> 0.10454655E+05</totfact>
</mgrwt>
</event>
<event>
 5    1  0.1959123E+000  0.7292592E+02  0.7546771E-02  0.1350417E+00
         21   -1    0    0  501  502  0.00000000000E+00  0.00000000000E+00  0.75419314543E+02  0.75419314543E+02  0.00000000000E+00 0.  1.
         21   -1    0    0  502  503 -0.00000000000E+00 -0.00000000000E+00 -0.10642502302E+03  0.10642502302E+03  0.00000000000E+00 0. -1.
         24    1    1    2    0    0  0.24832375321E+02  0.27702569361E+02  0.10969560416E+02  0.89283965096E+02  0.80419002446E+02 0. -1.
          1    1    1    2  501    0 -0.25140530509E+02  0.40720682944E+01  0.13353040156E+02  0.28756420081E+02  0.00000000000E+00 0. -1.
         -2    1    1    2    0  503  0.30815518847E+00 -0.31774637655E+02 -0.55328309045E+02  0.63803952382E+02  0.00000000000E+00 0.  1.
<mgrwt>
<rscale>  2 0.72925921E+02</rscale>
<asrwt>0</asrwt>
<pdfrwt beam="1">  1       21 0.11602971E-01 0.72925921E+02</pdfrwt>
<pdfrwt beam="2">  1       21 0.16373081E-01 0.72925921E+02</pdfrwt>
<totfact> 0.20260692E+06</totfact>
</mgrwt>
</event>
<event>
 5    1  0.1959123E+000  0.9618919E+02  0.7546771E-02  0.1288520E+00
         21   -1    0    0  501  502  0.00000000000E+00  0.00000000000E+00  0.46782530229E+03  0.46782530229E+03  0.00000000000E+00 0.  1.
         21   -1    0    0  502  503 -0.00000000000E+00 -0.00000000000E+00 -0.28867435229E+02  0.28867435229E+02  0.00000000000E+00 0. -1.
         24    1    1    2    0    0 -0.19602594013E+02 -0.32938886784E+02  0.69334679344E+02  0.11288819986E+03  0.80419002446E+02 0. -1.
          1    1    1    2  501    0 -0.30066140916E+02 -0.15575384199E+02  0.12811535360E+03  0.13251456241E+03  0.00000000000E+00 0. -1.
         -2    1    1    2    0  503  0.49668734930E+02  0.48514270983E+02  0.24150783412E+03  0.25128997525E+03  0.00000000000E+00 0.  1.
<mgrwt>
<rscale>  2 0.96189192E+02</rscale>
<asrwt>0</asrwt>
<pdfrwt beam="1">  1       21 0.71973118E-01 0.96189192E+02</pdfrwt>
<pdfrwt beam="2">  1       21 0.44411442E-02 0.96189192E+02</pdfrwt>
<totfact> 0.57880696E+05</totfact>
</mgrwt>
</event>
<event>
 5    1  0.1959123E+000  0.8255063E+02  0.7546771E-02  0.1321965E+00
         21   -1    0    0  503  502  0.00000000000E+00  0.00000000000E+00  0.26334851068E+02  0.26334851068E+02  0.00000000000E+00 0.  1.
         21   -1    0    0  501  503 -0.00000000000E+00 -0.00000000000E+00 -0.34915002243E+03  0.34915002243E+03  0.00000000000E+00 0. -1.
         24    1    1    2    0    0  0.13496871970E+02 -0.22100930900E+02 -0.12018516951E+03  0.14690918155E+03  0.80419002446E+02 0. -1.
          1    1    1    2  501    0 -0.27111907751E+02 -0.21713071859E+02 -0.16675543604E+03  0.17033463676E+03  0.00000000000E+00 0. -1.
         -2    1    1    2    0  502  0.13615035780E+02  0.43814002760E+02 -0.35874565817E+02  0.58241055190E+02  0.00000000000E+00 0.  1.
<mgrwt>
<rscale>  2 0.82550632E+02</rscale>
<asrwt>0</asrwt>
<pdfrwt beam="1">  1       21 0.40515160E-02 0.82550632E+02</pdfrwt>
<pdfrwt beam="2">  1       21 0.53715382E-01 0.82550632E+02</pdfrwt>
<totfact> 0.12479855E+06</totfact>
</mgrwt>
</event>
<event>
 5    1  0.1959123E+000  0.6354112E+02  0.7546771E-02  0.1383545E+00
         21   -1    0    0  503  502  0.00000000000E+00  0.00000000000E+00  0.44531576591E+02  0.44531576591E+02  0.00000000000E+00 0. -1.
         21   -1    0    0  501  503 -0.00000000000E+00 -0.00000000000E+00 -0.11224975121E+03  0.11224975121E+03  0.00000000000E+00 0.  1.
         24    1    1    2    0    0  0.24258697462E+02 -0.78694284532E+01 -0.38544087111E+02  0.92753840418E+02  0.80419002446E+02 0.  1.
          1    1    1    2  501    0 -0.53834396069E+01  0.19711687895E+02 -0.35415274790E+02  0.40887329946E+02  0.00000000000E+00 0. -1.
         -2    1    1    2    0  502 -0.18875257855E+02 -0.11842259442E+02  0.62411872778E+01  0.23140157442E+02  0.00000000000E+00 0.  1.
<mgrwt>
<rscale>  2 0.63541122E+02</rscale>
<asrwt>0</asrwt>
<pdfrwt beam="1">  1       21 0.68510118E-02 0.63541122E+02</pdfrwt>
<pdfrwt beam="2">  1       21 0.17269192E-01 0.63541122E+02</pdfrwt>
<totfact> 0.44873895E+06</totfact>
</mgrwt>
</event>
<event>
 5    1  0.2620704E+000  0.1353023E+03  0.7546771E-02  0.1219794E+00
         21   -1    0    0  503  502  0.00000000000E+00  0.00000000000E+00  0.78894538364E+02  0.78894538364E+02  0.00000000000E+00 0.  1.
         21   -1    0    0  501  503 -0.00000000000E+00 -0.00000000000E+00 -0.91160400169E+03  0.91160400169E+03  0.00000000000E+00 0. -1.
         24    1    1    2    0    0 -0.49154563164E+02  0.47685236294E+02 -0.69529262110E+02  0.12645784706E+03  0.80419002446E+02 0.  1.
          1    1    1    2  501    0 -0.36558088680E+02  0.31520964236E+02 -0.74424485180E+03  0.74580859774E+03  0.00000000000E+00 0. -1.
         -2    1    1    2    0  502  0.85712651844E+02 -0.79206200530E+02 -0.18935349412E+02  0.11823209524E+03  0.00000000000E+00 0.  1.
<mgrwt>
<rscale>  2 0.13530234E+03</rscale>
<asrwt>0</asrwt>
<pdfrwt beam="1">  1       21 0.12137621E-01 0.13530234E+03</pdfrwt>
<pdfrwt beam="2">  1       21 0.14024677E+00 0.13530234E+03</pdfrwt>
<totfact> 0.21328211E+04</totfact>
</mgrwt>
</event>
<event>
 5    1  0.1959123E+000  0.8005297E+02  0.7546771E-02  0.1328901E+00
         21   -1    0    0  501  502  0.00000000000E+00  0.00000000000E+00  0.14231328471E+04  0.14231328471E+04  0.00000000000E+00 0.  1.
         21   -1    0    0  502  503 -0.00000000000E+00 -0.00000000000E+00 -0.98112119641E+01  0.98112119641E+01  0.00000000000E+00 0.  1.
         24    1    1    2    0    0 -0.45940804004E+01  0.34037952200E+02  0.59445649859E+03  0.60085391938E+03  0.80419002446E+02 0.  1.
          1    1    1    2  501    0  0.16462794802E+02  0.14959854210E+02  0.72667618610E+03  0.72701657498E+03  0.00000000000E+00 0. -1.
         -2    1    1    2    0  503 -0.11868714402E+02 -0.48997806410E+02  0.92188950420E+02  0.10507356468E+03  0.00000000000E+00 0.  1.
<mgrwt>
<rscale>  2 0.80052969E+02</rscale>
<asrwt>0</asrwt>
<pdfrwt beam="1">  1       21 0.21894335E+00 0.80052969E+02</pdfrwt>
<pdfrwt beam="2">  1       21 0.15094184E-02 0.80052969E+02</pdfrwt>
<totfact> 0.21344542E+05</totfact>
</mgrwt>
</event>
<event>
 5    1  0.1959123E+000  0.1689151E+03  0.7546771E-02  0.1178984E+00
         21   -1    0    0  501  502  0.00000000000E+00  0.00000000000E+00  0.71444558086E+02  0.71444558086E+02  0.00000000000E+00 0.  1.
         21   -1    0    0  502  503 -0.00000000000E+00 -0.00000000000E+00 -0.12848885629E+04  0.12848885629E+04  0.00000000000E+00 0.  1.
         24    1    1    2    0    0 -0.13679389516E+03  0.38260911362E+02 -0.91689866587E+03  0.93131457979E+03  0.80419002446E+02 0.  1.
          1    1    1    2  501    0 -0.11369431663E+02 -0.22996742166E+02  0.45341080950E+02  0.52095371659E+02  0.00000000000E+00 0. -1.
         -2    1    1    2    0  503  0.14816332682E+03 -0.15264169196E+02 -0.34188641992E+03  0.37292316957E+03  0.00000000000E+00 0.  1.
<mgrwt>
<rscale>  2 0.16891510E+03</rscale>
<asrwt>0</asrwt>
<pdfrwt beam="1">  1       21 0.10991470E-01 0.16891510E+03</pdfrwt>
<pdfrwt beam="2">  1       21 0.19767518E+00 0.16891510E+03</pdfrwt>
<totfact> 0.97392406E+03</totfact>
</mgrwt>
</event>
<event>
 5    1  0.1959123E+000  0.8162680E+02  0.7546771E-02  0.1324497E+00
         21   -1    0    0  503  502  0.00000000000E+00  0.00000000000E+00  0.60303437690E+02  0.60303437690E+02  0.00000000000E+00 0.  1.
         21   -1    0    0  501  503 -0.00000000000E+00 -0.00000000000E+00 -0.33473590835E+03  0.33473590835E+03  0.00000000000E+00 0.  1.
         24    1    1    2    0    0  0.29858152950E+02  0.52434578422E+02 -0.89002929575E+02  0.13427446421E+03  0.80419002446E+02 0.  1.
          1    1    1    2  501    0 -0.25601597891E+02 -0.28113767096E+02 -0.21721413998E+03  0.22051713839E+03  0.00000000000E+00 0. -1.
         -2    1    1    2    0  502 -0.42565550585E+01 -0.24320811326E+02  0.31784598900E+02  0.40247743437E+02  0.00000000000E+00 0.  1.
<mgrwt>
<rscale>  2 0.81626800E+02</rscale>
<asrwt>0</asrwt>
<pdfrwt beam="1">  1       21 0.92774516E-02 0.81626800E+02</pdfrwt>
<pdfrwt beam="2">  1       21 0.51497834E-01 0.81626800E+02</pdfrwt>
<totfact> 0.33855832E+05</totfact>
</mgrwt>
</event>
<event>
 5    1  0.1959123E+000  0.7721775E+02  0.7546771E-02  0.1337138E+00
         21   -1    0    0  501  502  0.00000000000E+00  0.00000000000E+00  0.98388457588E+01  0.98388457588E+01  0.00000000000E+00 0.  1.
         21   -1    0    0  502  503 -0.00000000000E+00 -0.00000000000E+00 -0.94530424397E+03  0.94530424397E+03  0.00000000000E+00 0.  1.
         24    1    1    2    0    0  0.16568635506E+02  0.53662992606E+02 -0.47729180873E+03  0.48726678841E+03  0.80419002446E+02 0.  1.
          1    1    1    2  501    0 -0.59332883598E+01 -0.26924552150E+02 -0.39250159263E+02  0.47965721317E+02  0.00000000000E+00 0. -1.
         -2    1    1    2    0  503 -0.10635347147E+02 -0.26738440456E+02 -0.41892343022E+03  0.41991058000E+03  0.00000000000E+00 0.  1.
<mgrwt>
<rscale>  2 0.77217749E+02</rscale>
<asrwt>0</asrwt>
<pdfrwt beam="1">  1       21 0.15136681E-02 0.77217749E+02</pdfrwt>
<pdfrwt beam="2">  1       21 0.14543147E+00 0.77217749E+02</pdfrwt>
<totfact> 0.64195849E+05</totfact>
</mgrwt>
</event>
<event>
 5    1  0.1959123E+000  0.1223340E+03  0.7546771E-02  0.1239296E+00
         21   -1    0    0  501  502  0.00000000000E+00  0.00000000000E+00  0.91308052758E+02  0.91308052758E+02  0.00000000000E+00 0.  1.
         21   -1    0    0  502  503 -0.00000000000E+00 -0.00000000000E+00 -0.53427479773E+03  0.53427479773E+03  0.00000000000E+00 0.  1.
         24    1    1    2    0    0  0.98178697386E+02  0.45829322732E+02 -0.30315000366E+02  0.13829533124E+03  0.80419002446E+02 0.  1.
          1    1    1    2  501    0 -0.66764099487E+02 -0.21962481663E+02  0.24391058221E+01  0.70325989636E+02  0.00000000000E+00 0. -1.
         -2    1    1    2    0  503 -0.31414597899E+02 -0.23866841069E+02 -0.41509085043E+03  0.41696152961E+03  0.00000000000E+00 0.  1.
<mgrwt>
<rscale>  2 0.12233403E+03</rscale>
<asrwt>0</asrwt>
<pdfrwt beam="1">  1       21 0.14047393E-01 0.12233403E+03</pdfrwt>
<pdfrwt beam="2">  1       21 0.82196122E-01 0.12233403E+03</pdfrwt>
<totfact> 0.59191733E+04</totfact>
</mgrwt>
</event>
<event>
 5    1  0.1959123E+000  0.6647637E+02  0.7546771E-02  0.1372503E+00
         21   -1    0    0  501  502  0.00000000000E+00  0.00000000000E+00  0.22004874178E+03  0.22004874178E+03  0.00000000000E+00 0. -1.
         21   -1    0    0  502  503 -0.00000000000E+00 -0.00000000000E+00 -0.46815836628E+02  0.46815836628E+02  0.00000000000E+00 0. -1.
         24    1    1    2    0    0  0.10003069091E+02  0.57889487288E+01  0.13201615352E+02  0.82310825053E+02  0.80419002446E+02 0. -1.
          1    1    1    2  501    0  0.19584578828E+02 -0.97127993913E+01  0.15211127068E+03  0.15367411255E+03  0.00000000000E+00 0. -1.
         -2    1    1    2    0  503 -0.29587647919E+02  0.39238506624E+01  0.79200191183E+01  0.30879640805E+02  0.00000000000E+00 0.  1.
<mgrwt>
<rscale>  2 0.66476367E+02</rscale>
<asrwt>0</asrwt>
<pdfrwt beam="1">  1       21 0.33853652E-01 0.66476367E+02</pdfrwt>
<pdfrwt beam="2">  1       21 0.72024365E-02 0.66476367E+02</pdfrwt>
<totfact> 0.11916133E+06</totfact>
</mgrwt>
</event>
<event>
 5    1  0.1959123E+000  0.1184489E+03  0.7546771E-02  0.1245678E+00
         21   -1    0    0  503  502  0.00000000000E+00  0.00000000000E+00  0.18136331761E+03  0.18136331761E+03  0.00000000000E+00 0.  1.
         21   -1    0    0  501  503 -0.00000000000E+00 -0.00000000000E+00 -0.10471003202E+03  0.10471003202E+03  0.00000000000E+00 0.  1.
         24    1    1    2    0    0  0.76794660037E+02 -0.19789819730E+02  0.77261882385E+02  0.13684177432E+03  0.80419002446E+02 0.  1.
          1    1    1    2  501    0 -0.23926106364E+01  0.45252455046E+02 -0.40747463529E+02  0.60941488802E+02  0.00000000000E+00 0. -1.
         -2    1    1    2    0  502 -0.74402049401E+02 -0.25462635315E+02  0.40138866743E+02  0.88290086508E+02  0.00000000000E+00 0.  1.
<mgrwt>
<rscale>  2 0.11844891E+03</rscale>
<asrwt>0</asrwt>
<pdfrwt beam="1">  1       21 0.27902049E-01 0.11844891E+03</pdfrwt>
<pdfrwt beam="2">  1       21 0.16109236E-01 0.11844891E+03</pdfrwt>
<totfact> 0.42695119E+05</totfact>
</mgrwt>
</event>
<event>
 5    1  0.1959123E+000  0.1024983E+03  0.7546771E-02  0.1275128E+00
         21   -1    0    0  503  502  0.00000000000E+00  0.00000000000E+00  0.43086177253E+02  0.43086177253E+02  0.00000000000E+00 0. -1.
         21   -1    0    0  501  503 -0.00000000000E+00 -0.00000000000E+00 -0.35973960778E+03  0.35973960778E+03  0.00000000000E+00 0.  1.
         24    1    1    2    0    0  0.69981385081E+02  0.49519597978E+02 -0.27029880626E+03  0.29475115854E+03  0.80419002446E+02 0.  1.
          1    1    1    2  501    0 -0.40447023443E+02 -0.18043885817E+02 -0.47437141842E+02  0.64898582010E+02  0.00000000000E+00 0. -1.
         -2    1    1    2    0  502 -0.29534361637E+02 -0.31475712161E+02  0.10825175681E+01  0.43176044489E+02  0.00000000000E+00 0.  1.
<mgrwt>
<rscale>  2 0.10249834E+03</rscale>
<asrwt>0</asrwt>
<pdfrwt beam="1">  1       21 0.66286426E-02 0.10249834E+03</pdfrwt>
<pdfrwt beam="2">  1       21 0.55344555E-01 0.10249834E+03</pdfrwt>
<totfact> 0.51700903E+05</totfact>
</mgrwt>
</event>
<event>
 5    1  0.1959123E+000  0.9242444E+02  0.7546771E-02  0.1297085E+00
         21   -1    0    0  503  502  0.00000000000E+00  0.00000000000E+00  0.33716899686E+03  0.33716899686E+03  0.00000000000E+00 0.  1.
         21   -1    0    0  501  503 -0.00000000000E+00 -0.00000000000E+00 -0.50639793888E+02  0.50639793888E+02  0.00000000000E+00 0. -1.
         24    1    1    2    0    0 -0.17682772523E+02 -0.11090145286E+02  0.22195087924E+02  0.85997149074E+02  0.80419002446E+02 0.  0.
          1    1    1    2  501    0  0.45162371010E+02 -0.28625163092E+02  0.27545564689E+02  0.60148132567E+02  0.00000000000E+00 0. -1.
         -2    1    1    2    0  502 -0.27479598487E+02  0.39715308378E+02  0.23678855036E+03  0.24166350910E+03  0.00000000000E+00 0.  1.
<mgrwt>
<rscale>  2 0.92424444E+02</rscale>
<asrwt>0</asrwt>
<pdfrwt beam="1">  1       21 0.51872152E-01 0.92424444E+02</pdfrwt>
<pdfrwt beam="2">  1       21 0.77907377E-02 0.92424444E+02</pdfrwt>
<totfact> 0.44943261E+05</totfact>
</mgrwt>
</event>
<event>
 5    1  0.1959123E+000  0.7670161E+02  0.7546771E-02  0.1338681E+00
         21   -1    0    0  503  502  0.00000000000E+00  0.00000000000E+00  0.33709183270E+03  0.33709183270E+03  0.00000000000E+00 0.  1.
         21   -1    0    0  501  503 -0.00000000000E+00 -0.00000000000E+00 -0.28458543881E+02  0.28458543881E+02  0.00000000000E+00 0.  1.
         24    1    1    2    0    0  0.46304921053E+02 -0.15037817354E+02  0.66488768873E+02  0.11514449186E+03  0.80419002446E+02 0.  1.
          1    1    1    2  501    0 -0.24563905090E+02 -0.97462236799E+01  0.64085619823E+02  0.69320566770E+02  0.00000000000E+00 0. -1.
         -2    1    1    2    0  502 -0.21741015963E+02  0.24784041034E+02  0.17805890012E+03  0.18108531795E+03  0.00000000000E+00 0.  1.
<mgrwt>
<rscale>  2 0.76701608E+02</rscale>
<asrwt>0</asrwt>
<pdfrwt beam="1">  1       21 0.51860279E-01 0.76701608E+02</pdfrwt>
<pdfrwt beam="2">  1       21 0.43782378E-02 0.76701608E+02</pdfrwt>
<totfact> 0.11785050E+06</totfact>
</mgrwt>
</event>
<event>
 5    1  0.1959123E+000  0.8430205E+02  0.7546771E-02  0.1317268E+00
         21   -1    0    0  503  502  0.00000000000E+00  0.00000000000E+00  0.29884065139E+02  0.29884065139E+02  0.00000000000E+00 0. -1.
         21   -1    0    0  501  503 -0.00000000000E+00 -0.00000000000E+00 -0.88077572913E+03  0.88077572913E+03  0.00000000000E+00 0. -1.
         24    1    1    2    0    0 -0.14669159497E+02  0.59621047398E+02 -0.32211436451E+03  0.33763106094E+03  0.80419002446E+02 0.  1.
          1    1    1    2  501    0  0.22996810387E+02 -0.40579871095E+02 -0.54479607423E+03  0.54678911998E+03  0.00000000000E+00 0. -1.
         -2    1    1    2    0  502 -0.83276508900E+01 -0.19041176303E+02  0.16018774752E+02  0.26239613353E+02  0.00000000000E+00 0.  1.
<mgrwt>
<rscale>  2 0.84302051E+02</rscale>
<asrwt>0</asrwt>
<pdfrwt beam="1">  1       21 0.45975487E-02 0.84302051E+02</pdfrwt>
<pdfrwt beam="2">  1       21 0.13550395E+00 0.84302051E+02</pdfrwt>
<totfact> 0.12716208E+05</totfact>
</mgrwt>
</event>
<event>
 5    1  0.1959123E+000  0.6613159E+02  0.7546771E-02  0.1373765E+00
         21   -1    0    0  503  502  0.00000000000E+00  0.00000000000E+00  0.16822579350E+01  0.16822579350E+01  0.00000000000E+00 0. -1.
         21   -1    0    0  501  503 -0.00000000000E+00 -0.00000000000E+00 -0.26349980520E+04  0.26349980520E+04  0.00000000000E+00 0.  1.
         24    1    1    2    0    0 -0.31937625887E+01 -0.63811495660E+01 -0.15789633926E+04  0.15810261005E+04  0.80419002446E+02 0. -1.
          1    1    1    2  501    0  0.23326535566E+02 -0.10187665956E+02 -0.61746363134E+03  0.61798806771E+03  0.00000000000E+00 0. -1.
         -2    1    1    2    0  502 -0.20132772978E+02  0.16568815522E+02 -0.43688877008E+03  0.43766614173E+03  0.00000000000E+00 0.  1.
<mgrwt>
<rscale>  2 0.66131586E+02</rscale>
<asrwt>0</asrwt>
<pdfrwt beam="1">  1       21 0.25880941E-03 0.66131586E+02</pdfrwt>
<pdfrwt beam="2">  1       21 0.40538354E+00 0.66131586E+02</pdfrwt>
<totfact> 0.30027990E+05</totfact>
</mgrwt>
</event>
<event>
 5    1  0.1959123E+000  0.1361695E+03  0.7546771E-02  0.1218578E+00
         21   -1    0    0  501  502  0.00000000000E+00  0.00000000000E+00  0.59960422787E+03  0.59960422787E+03  0.00000000000E+00 0.  1.
         21   -1    0    0  502  503 -0.00000000000E+00 -0.00000000000E+00 -0.76120840862E+02  0.76120840862E+02  0.00000000000E+00 0. -1.
         24    1    1    2    0    0  0.16409633252E+02 -0.58878004316E+02  0.40846203424E+03  0.42076637797E+03  0.80419002446E+02 0.  1.
          1    1    1    2  501    0 -0.35906714063E+01  0.11434403815E+03  0.14961769491E+03  0.18834252470E+03  0.00000000000E+00 0. -1.
         -2    1    1    2    0  503 -0.12818961846E+02 -0.55466033830E+02 -0.34596342143E+02  0.66616166066E+02  0.00000000000E+00 0.  1.
<mgrwt>
<rscale>  2 0.13616947E+03</rscale>
<asrwt>0</asrwt>
<pdfrwt beam="1">  1       21 0.92246801E-01 0.13616947E+03</pdfrwt>
<pdfrwt beam="2">  1       21 0.11710899E-01 0.13616947E+03</pdfrwt>
<totfact> 0.62504037E+04</totfact>
</mgrwt>
</event>
<event>
 5    1  0.1959123E+000  0.7957135E+02  0.7546771E-02  0.1330272E+00
         21   -1    0    0  503  502  0.00000000000E+00  0.00000000000E+00  0.16304216554E+03  0.16304216554E+03  0.00000000000E+00 0. -1.
         21   -1    0    0  501  503 -0.00000000000E+00 -0.00000000000E+00 -0.44695147311E+02  0.44695147311E+02  0.00000000000E+00 0. -1.
         24    1    1    2    0    0  0.50210349104E+02 -0.13828334732E+01  0.68607147393E+02  0.11703481539E+03  0.80419002446E+02 0. -1.
          1    1    1    2  501    0 -0.34830995303E+02 -0.18301177850E+02  0.52708069123E+01  0.39697767569E+02  0.00000000000E+00 0. -1.
         -2    1    1    2    0  502 -0.15379353801E+02  0.19684011323E+02  0.44469063927E+02  0.51004729895E+02  0.00000000000E+00 0.  1.
<mgrwt>
<rscale>  2 0.79571346E+02</rscale>
<asrwt>0</asrwt>
<pdfrwt beam="1">  1       21 0.25083410E-01 0.79571346E+02</pdfrwt>
<pdfrwt beam="2">  1       21 0.68761766E-02 0.79571346E+02</pdfrwt>
<totfact> 0.22884539E+06</totfact>
</mgrwt>
</event>
<event>
 5    1  0.1959123E+000  0.1853013E+03  0.7546771E-02  0.1162769E+00
         21   -1    0    0  501  502  0.00000000000E+00  0.00000000000E+00  0.11980133625E+03  0.11980133625E+03  0.00000000000E+00 0. -1.
         21   -1    0    0  502  503 -0.00000000000E+00 -0.00000000000E+00 -0.40026225751E+03  0.40026225751E+03  0.00000000000E+00 0. -1.
         24    1    1    2    0    0 -0.89982962133E+02  0.14461084456E+03 -0.79900795295E+01  0.18852131753E+03  0.80419002446E+02 0. -1.
          1    1    1    2  501    0  0.30736888977E+02 -0.10871970857E+03 -0.12426769261E+03  0.16794996518E+03  0.00000000000E+00 0. -1.
         -2    1    1    2    0  503  0.59246073156E+02 -0.35891135990E+02 -0.14820314912E+03  0.16359231105E+03  0.00000000000E+00 0.  1.
<mgrwt>
<rscale>  2 0.18530129E+03</rscale>
<asrwt>0</asrwt>
<pdfrwt beam="1">  1       21 0.18430975E-01 0.18530129E+03</pdfrwt>
<pdfrwt beam="2">  1       21 0.61578809E-01 0.18530129E+03</pdfrwt>
<totfact> 0.66058679E+04</totfact>
</mgrwt>
</event>
<event>
 5    1  0.1959123E+000  0.9771700E+02  0.7546771E-02  0.1285171E+00
         21   -1    0    0  503  502  0.00000000000E+00  0.00000000000E+00  0.82980553422E+03  0.82980553422E+03  0.00000000000E+00 0.  1.
         21   -1    0    0  501  503 -0.00000000000E+00 -0.00000000000E+00 -0.79950795844E+02  0.79950795844E+02  0.00000000000E+00 0. -1.
         24    1    1    2    0    0  0.42754430323E+02  0.35272532730E+02  0.66047863878E+02  0.11790517018E+03  0.80419002446E+02 0.  1.
          1    1    1    2  501    0  0.13119325538E+02  0.16849029768E+02 -0.49847230567E+02  0.54228709204E+02  0.00000000000E+00 0. -1.
         -2    1    1    2    0  502 -0.55873755862E+02 -0.52121562498E+02  0.73365410507E+03  0.73762245068E+03  0.00000000000E+00 0.  1.
<mgrwt>
<rscale>  2 0.97716997E+02</rscale>
<asrwt>0</asrwt>
<pdfrwt beam="1">  1       21 0.12766238E+00 0.97716997E+02</pdfrwt>
<pdfrwt beam="2">  1       21 0.12300123E-01 0.97716997E+02</pdfrwt>
<totfact> 0.27224166E+04</totfact>
</mgrwt>
</event>
<event>
 5    1  0.1959123E+000  0.8484383E+02  0.7546771E-02  0.1315841E+00
         21   -1    0    0  503  502  0.00000000000E+00  0.00000000000E+00  0.25818993230E+03  0.25818993230E+03  0.00000000000E+00 0.  1.
         21   -1    0    0  501  503 -0.00000000000E+00 -0.00000000000E+00 -0.38424194418E+02  0.38424194418E+02  0.00000000000E+00 0. -1.
         24    1    1    2    0    0 -0.29147402815E+02 -0.47769529335E+01  0.93678225307E+02  0.12694572156E+03  0.80419002446E+02 0.  1.
          1    1    1    2  501    0  0.22072801286E+02 -0.36218640004E+02  0.63218533047E+01  0.42883146685E+02  0.00000000000E+00 0. -1.
         -2    1    1    2    0  502  0.70746015295E+01  0.40995592938E+02  0.11976565927E+03  0.12678525848E+03  0.00000000000E+00 0.  1.
<mgrwt>
<rscale>  2 0.84843825E+02</rscale>
<asrwt>0</asrwt>
<pdfrwt beam="1">  1       21 0.39721527E-01 0.84843825E+02</pdfrwt>
<pdfrwt beam="2">  1       21 0.59114147E-02 0.84843825E+02</pdfrwt>
<totfact> 0.12255774E+06</totfact>
</mgrwt>
</event>
<event>
 5    1  0.1959123E+000  0.1086547E+03  0.7546771E-02  0.1263082E+00
         21   -1    0    0  503  502  0.00000000000E+00  0.00000000000E+00  0.37012245717E+02  0.37012245717E+02  0.00000000000E+00 0.  1.
         21   -1    0    0  501  503 -0.00000000000E+00 -0.00000000000E+00 -0.52792686299E+03  0.52792686299E+03  0.00000000000E+00 0. -1.
         24    1    1    2    0    0 -0.61199633522E+02  0.40056273168E+02 -0.83637794119E+02  0.13715829075E+03  0.80419002446E+02 0.  1.
          1    1    1    2  501    0  0.80453911587E+02 -0.25280086155E+02 -0.38721519917E+03  0.39629222186E+03  0.00000000000E+00 0. -1.
         -2    1    1    2    0  502 -0.19254278065E+02 -0.14776187013E+02 -0.20061623984E+02  0.31488596083E+02  0.00000000000E+00 0.  1.
<mgrwt>
<rscale>  2 0.10865467E+03</rscale>
<asrwt>0</asrwt>
<pdfrwt beam="1">  1       21 0.56941919E-02 0.10865467E+03</pdfrwt>
<pdfrwt beam="2">  1       21 0.81219514E-01 0.10865467E+03</pdfrwt>
<totfact> 0.29243404E+05</totfact>
</mgrwt>
</event>
<event>
 5    1  0.1959123E+000  0.7178258E+02  0.7546771E-02  0.1354134E+00
         21   -1    0    0  503  502  0.00000000000E+00  0.00000000000E+00  0.21748140976E+02  0.21748140976E+02  0.00000000000E+00 0.  1.
         21   -1    0    0  501  503 -0.00000000000E+00 -0.00000000000E+00 -0.10704362737E+04  0.10704362737E+04  0.00000000000E+00 0. -1.
         24    1    1    2    0    0 -0.53358479683E+01  0.11982551254E+01 -0.16456345163E+03  0.18324369745E+03  0.80419002446E+02 0.  0.
          1    1    1    2  501    0  0.32180027654E+02  0.10255712410E+02 -0.87858501434E+03  0.87923396274E+03  0.00000000000E+00 0. -1.
         -2    1    1    2    0  502 -0.26844179686E+02 -0.11453967535E+02 -0.55396667794E+01  0.29706754507E+02  0.00000000000E+00 0.  1.
<mgrwt>
<rscale>  2 0.71782577E+02</rscale>
<asrwt>0</asrwt>
<pdfrwt beam="1">  1       21 0.33458693E-02 0.71782577E+02</pdfrwt>
<pdfrwt beam="2">  1       21 0.16468243E+00 0.71782577E+02</pdfrwt>
<totfact> 0.13177555E+05</totfact>
</mgrwt>
</event>
<event>
 5    1  0.1959123E+000  0.9413086E+02  0.7546771E-02  0.1293146E+00
         21   -1    0    0  501  502  0.00000000000E+00  0.00000000000E+00  0.87712648896E+03  0.87712648896E+03  0.00000000000E+00 0.  1.
         21   -1    0    0  502  503 -0.00000000000E+00 -0.00000000000E+00 -0.16704830128E+02  0.16704830128E+02  0.00000000000E+00 0. -1.
         24    1    1    2    0    0  0.14237213734E+02 -0.72891191239E+02  0.72009085170E+03  0.72836383399E+03  0.80419002446E+02 0.  1.
          1    1    1    2  501    0  0.61417929256E+01  0.37128721754E+02  0.10387880950E+03  0.11048561292E+03  0.00000000000E+00 0. -1.
         -2    1    1    2    0  503 -0.20379006659E+02  0.35762469486E+02  0.36451997633E+02  0.54981872172E+02  0.00000000000E+00 0.  1.
<mgrwt>
<rscale>  2 0.94130859E+02</rscale>
<asrwt>0</asrwt>
<pdfrwt beam="1">  1       21 0.13494250E+00 0.94130859E+02</pdfrwt>
<pdfrwt beam="2">  1       21 0.25699745E-02 0.94130859E+02</pdfrwt>
<totfact> 0.33095980E+05</totfact>
</mgrwt>
</event>
<event>
 5    1  0.1959123E+000  0.6726871E+02  0.7546771E-02  0.1369635E+00
         21   -1    0    0  503  502  0.00000000000E+00  0.00000000000E+00  0.31343339002E+02  0.31343339002E+02  0.00000000000E+00 0. -1.
         21   -1    0    0  501  503 -0.00000000000E+00 -0.00000000000E+00 -0.50478900761E+03  0.50478900761E+03  0.00000000000E+00 0. -1.
         24    1    1    2    0    0 -0.12024712667E+02  0.32016548763E+02 -0.54026031566E+02  0.10274084461E+03  0.80419002446E+02 0. -1.
          1    1    1    2  501    0  0.22050952409E+02 -0.12861081167E+02 -0.40826602488E+03  0.40906331904E+03  0.00000000000E+00 0. -1.
         -2    1    1    2    0  502 -0.10026239741E+02 -0.19155467596E+02 -0.11153612162E+02  0.24328182966E+02  0.00000000000E+00 0.  1.
<mgrwt>
<rscale>  2 0.67268709E+02</rscale>
<asrwt>0</asrwt>
<pdfrwt beam="1">  1       21 0.48220523E-02 0.67268709E+02</pdfrwt>
<pdfrwt beam="2">  1       21 0.77659845E-01 0.67268709E+02</pdfrwt>
<totfact> 0.42856770E+05</totfact>
</mgrwt>
</event>
<event>
 5    1  0.1959123E+000  0.1366851E+03  0.7546771E-02  0.1217860E+00
         21   -1    0    0  501  502  0.00000000000E+00  0.00000000000E+00  0.74949963093E+03  0.74949963093E+03  0.00000000000E+00 0. -1.
         21   -1    0    0  502  503 -0.00000000000E+00 -0.00000000000E+00 -0.42100469065E+02  0.42100469065E+02  0.00000000000E+00 0. -1.
         24    1    1    2    0    0 -0.42192945283E+02  0.70603166602E+02  0.12733231734E+03  0.17159774696E+03  0.80419002446E+02 0. -1.
          1    1    1    2  501    0  0.73395382951E+02 -0.94056785019E+02  0.56611507936E+03  0.57854977671E+03  0.00000000000E+00 0. -1.
         -2    1    1    2    0  503 -0.31202437668E+02  0.23453618418E+02  0.13951765156E+02  0.41452576329E+02  0.00000000000E+00 0.  1.
<mgrwt>
<rscale>  2 0.13668511E+03</rscale>
<asrwt>0</asrwt>
<pdfrwt beam="1">  1       21 0.11530763E+00 0.13668511E+03</pdfrwt>
<pdfrwt beam="2">  1       21 0.64769958E-02 0.13668511E+03</pdfrwt>
<totfact> 0.10320721E+05</totfact>
</mgrwt>
</event>
<event>
 5    1  0.1959123E+000  0.9220982E+02  0.7546771E-02  0.1297587E+00
         21   -1    0    0  501  502  0.00000000000E+00  0.00000000000E+00  0.29551228268E+03  0.29551228268E+03  0.00000000000E+00 0. -1.
         21   -1    0    0  502  503 -0.00000000000E+00 -0.00000000000E+00 -0.34280106268E+02  0.34280106268E+02  0.00000000000E+00 0. -1.
         24    1    1    2    0    0 -0.42715357167E+02 -0.16158982039E+02  0.82373584591E+02  0.12384804331E+03  0.80419002446E+02 0. -1.
          1    1    1    2  501    0  0.66007498061E+02  0.18437794467E+02  0.16518810844E+03  0.17884086009E+03  0.00000000000E+00 0. -1.
         -2    1    1    2    0  503 -0.23292140894E+02 -0.22788124282E+01  0.13670483378E+02  0.27103485556E+02  0.00000000000E+00 0.  1.
<mgrwt>
<rscale>  2 0.92209823E+02</rscale>
<asrwt>0</asrwt>
<pdfrwt beam="1">  1       21 0.45463426E-01 0.92209823E+02</pdfrwt>
<pdfrwt beam="2">  1       21 0.52738627E-02 0.92209823E+02</pdfrwt>
<totfact> 0.11354044E+06</totfact>
</mgrwt>
</event>
<event>
 5    1  0.1959123E+000  0.7485025E+02  0.7546771E-02  0.1344335E+00
         21   -1    0    0  501  502  0.00000000000E+00  0.00000000000E+00  0.10209325532E+04  0.10209325532E+04  0.00000000000E+00 0. -1.
         21   -1    0    0  502  503 -0.00000000000E+00 -0.00000000000E+00 -0.83225958690E+01  0.83225958690E+01  0.00000000000E+00 0.  1.
         24    1    1    2    0    0  0.21381276165E+02  0.30808067129E+01  0.70702746617E+03  0.71191411294E+03  0.80419002446E+02 0. -1.
          1    1    1    2  501    0 -0.97837374328E+01  0.29905367231E+02  0.24789622322E+03  0.24988515361E+03  0.00000000000E+00 0. -1.
         -2    1    1    2    0  503 -0.11597538732E+02 -0.32986173944E+02  0.57686267913E+02  0.67455882485E+02  0.00000000000E+00 0.  1.
<mgrwt>
<rscale>  2 0.74850251E+02</rscale>
<asrwt>0</asrwt>
<pdfrwt beam="1">  1       21 0.15706645E+00 0.74850251E+02</pdfrwt>
<pdfrwt beam="2">  1       21 0.12804002E-02 0.74850251E+02</pdfrwt>
<totfact> 0.68745016E+05</totfact>
</mgrwt>
</event>
<event>
 5    1  0.1959123E+000  0.8681038E+02  0.7546771E-02  0.1310765E+00
         21   -1    0    0  503  502  0.00000000000E+00  0.00000000000E+00  0.16490955810E+03  0.16490955810E+03  0.00000000000E+00 0.  1.
         21   -1    0    0  501  503 -0.00000000000E+00 -0.00000000000E+00 -0.15621459266E+03  0.15621459266E+03  0.00000000000E+00 0. -1.
         24    1    1    2    0    0  0.39420709551E+01  0.19958241030E+01 -0.88288469742E+02  0.11950561945E+03  0.80419002446E+02 0. -1.
          1    1    1    2  501    0 -0.17355302656E+02  0.42871447219E+02 -0.37291191682E+02  0.59412124133E+02  0.00000000000E+00 0. -1.
         -2    1    1    2    0  502  0.13413231701E+02 -0.44867271322E+02  0.13427462686E+03  0.14220640717E+03  0.00000000000E+00 0.  1.
<mgrwt>
<rscale>  2 0.86810384E+02</rscale>
<asrwt>0</asrwt>
<pdfrwt beam="1">  1       21 0.25370701E-01 0.86810384E+02</pdfrwt>
<pdfrwt beam="2">  1       21 0.24033014E-01 0.86810384E+02</pdfrwt>
<totfact> 0.24654643E+05</totfact>
</mgrwt>
</event>
<event>
 5    1  0.1959123E+000  0.1072290E+03  0.7546771E-02  0.1265789E+00
         21   -1    0    0  501  502  0.00000000000E+00  0.00000000000E+00  0.20119905868E+03  0.20119905868E+03  0.00000000000E+00 0.  1.
         21   -1    0    0  502  503 -0.00000000000E+00 -0.00000000000E+00 -0.61547858262E+02  0.61547858262E+02  0.00000000000E+00 0.  1.
         24    1    1    2    0    0  0.40731082691E+02 -0.43850540750E+02  0.63103688497E+02  0.11845329239E+03  0.80419002446E+02 0.  1.
          1    1    1    2  501    0  0.14377743385E+02 -0.23278450284E+02  0.43453915149E+02  0.51350253108E+02  0.00000000000E+00 0. -1.
         -2    1    1    2    0  503 -0.55108826076E+02  0.67128991034E+02  0.33093596774E+02  0.92943371449E+02  0.00000000000E+00 0.  1.
<mgrwt>
<rscale>  2 0.10722899E+03</rscale>
<asrwt>0</asrwt>
<pdfrwt beam="1">  1       21 0.30953701E-01 0.10722899E+03</pdfrwt>
<pdfrwt beam="2">  1       21 0.94689013E-02 0.10722899E+03</pdfrwt>
<totfact> 0.89643727E+05</totfact>
</mgrwt>
</event>
<event>
 5    1  0.1959123E+000  0.7758931E+02  0.7546771E-02  0.1336035E+00
         21   -1    0    0  503  502  0.00000000000E+00  0.00000000000E+00  0.48656398577E+03  0.48656398577E+03  0.00000000000E+00 0.  1.
         21   -1    0    0  501  503 -0.00000000000E+00 -0.00000000000E+00 -0.27657983922E+02  0.27657983922E+02  0.00000000000E+00 0. -1.
         24    1    1    2    0    0  0.53666421038E+01  0.26708713835E+02  0.23900188218E+03  0.25363610130E+03  0.80419002446E+02 0.  0.
          1    1    1    2  501    0 -0.32363444614E+02 -0.28624434091E+02  0.44454601893E+01  0.43434006154E+02  0.00000000000E+00 0. -1.
         -2    1    1    2    0  502  0.26996802510E+02  0.19157202556E+01  0.21545865948E+03  0.21715186224E+03  0.00000000000E+00 0.  1.
<mgrwt>
<rscale>  2 0.77589311E+02</rscale>
<asrwt>0</asrwt>
<pdfrwt beam="1">  1       21 0.74855991E-01 0.77589311E+02</pdfrwt>
<pdfrwt beam="2">  1       21 0.42550748E-02 0.77589311E+02</pdfrwt>
<totfact> 0.57046761E+05</totfact>
</mgrwt>
</event>
<event>
 5    1  0.1959123E+000  0.1202113E+03  0.7546771E-02  0.1242749E+00
         21   -1    0    0  501  502  0.00000000000E+00  0.00000000000E+00  0.10231058936E+03  0.10231058936E+03  0.00000000000E+00 0. -1.
         21   -1    0    0  502  503 -0.00000000000E+00 -0.00000000000E+00 -0.17333209296E+03  0.17333209296E+03  0.00000000000E+00 0.  1.
         24    1    1    2    0    0  0.80093699812E+01 -0.38872627447E+02  0.26194737412E+02  0.93427037813E+02  0.80419002446E+02 0.  0.
          1    1    1    2  501    0 -0.34147546361E+02  0.88386455656E+02 -0.42220999238E+02  0.10373443615E+03  0.00000000000E+00 0. -1.
         -2    1    1    2    0  503  0.26138176379E+02 -0.49513828209E+02 -0.54995241773E+02  0.78481208362E+02  0.00000000000E+00 0.  1.
<mgrwt>
<rscale>  2 0.12021133E+03</rscale>
<asrwt>0</asrwt>
<pdfrwt beam="1">  1       21 0.15740091E-01 0.12021133E+03</pdfrwt>
<pdfrwt beam="2">  1       21 0.26666475E-01 0.12021133E+03</pdfrwt>
<totfact> 0.48524514E+05</totfact>
</mgrwt>
</event>
<event>
 5    1  0.1959123E+000  0.7293755E+02  0.7546771E-02  0.1350379E+00
         21   -1    0    0  503  502  0.00000000000E+00  0.00000000000E+00  0.22350882037E+03  0.22350882037E+03  0.00000000000E+00 0.  1.
         21   -1    0    0  501  503 -0.00000000000E+00 -0.00000000000E+00 -0.55142603255E+02  0.55142603255E+02  0.00000000000E+00 0. -1.
         24    1    1    2    0    0  0.14745993851E+02  0.73138022258E+01  0.58315577811E+02  0.10069189941E+03  0.80419002446E+02 0.  1.
          1    1    1    2  501    0  0.19055039418E+02  0.14162815302E+02 -0.26545587029E+02  0.35613874476E+02  0.00000000000E+00 0. -1.
         -2    1    1    2    0  502 -0.33801033269E+02 -0.21476617527E+02  0.13659622633E+03  0.14234564973E+03  0.00000000000E+00 0.  1.
<mgrwt>
<rscale>  2 0.72937550E+02</rscale>
<asrwt>0</asrwt>
<pdfrwt beam="1">  1       21 0.34385972E-01 0.72937550E+02</pdfrwt>
<pdfrwt beam="2">  1       21 0.84834776E-02 0.72937550E+02</pdfrwt>
<totfact> 0.87880376E+05</totfact>
</mgrwt>
</event>
<event>
 5    1  0.1959123E+000  0.8576094E+02  0.7546771E-02  0.1313455E+00
         21   -1    0    0  501  502  0.00000000000E+00  0.00000000000E+00  0.44605105077E+02  0.44605105077E+02  0.00000000000E+00 0.  1.
         21   -1    0    0  502  503 -0.00000000000E+00 -0.00000000000E+00 -0.36850370333E+03  0.36850370333E+03  0.00000000000E+00 0. -1.
         24    1    1    2    0    0  0.66987797362E+01 -0.70968013942E+01 -0.14523051350E+03  0.16629598987E+03  0.80419002446E+02 0. -1.
          1    1    1    2  501    0  0.12058595168E+02 -0.38959728282E+02  0.17544148617E+02  0.44396703661E+02  0.00000000000E+00 0. -1.
         -2    1    1    2    0  503 -0.18757374904E+02  0.46056529677E+02 -0.19621223337E+03  0.20241611488E+03  0.00000000000E+00 0.  1.
<mgrwt>
<rscale>  2 0.85760942E+02</rscale>
<asrwt>0</asrwt>
<pdfrwt beam="1">  1       21 0.68623234E-02 0.85760942E+02</pdfrwt>
<pdfrwt beam="2">  1       21 0.56692882E-01 0.85760942E+02</pdfrwt>
<totfact> 0.46414816E+05</totfact>
</mgrwt>
</event>
<event>
 5    1  0.1959123E+000  0.6779551E+02  0.7546771E-02  0.1367754E+00
         21   -1    0    0  503  502  0.00000000000E+00  0.00000000000E+00  0.31836721318E+02  0.31836721318E+02  0.00000000000E+00 0. -1.
         21   -1    0    0  501  503 -0.00000000000E+00 -0.00000000000E+00 -0.17012817719E+03  0.17012817719E+03  0.00000000000E+00 0. -1.
         24    1    1    2    0    0  0.29937249741E+02 -0.25797931034E+02 -0.61138490015E+02  0.10847535703E+03  0.80419002446E+02 0. -1.
          1    1    1    2  501    0 -0.92740507246E+01  0.23416869432E+02 -0.64255558045E+02  0.69015465879E+02  0.00000000000E+00 0. -1.
         -2    1    1    2    0  502 -0.20663199017E+02  0.23810616023E+01 -0.12897407811E+02  0.24474075595E+02  0.00000000000E+00 0.  1.
<mgrwt>
<rscale>  2 0.67795508E+02</rscale>
<asrwt>0</asrwt>
<pdfrwt beam="1">  1       21 0.48979571E-02 0.67795508E+02</pdfrwt>
<pdfrwt beam="2">  1       21 0.26173566E-01 0.67795508E+02</pdfrwt>
<totfact> 0.36881148E+06</totfact>
</mgrwt>
</event>
<event>
 5    1  0.1959123E+000  0.8520454E+02  0.7546771E-02  0.1314899E+00
         21   -1    0    0  503  502  0.00000000000E+00  0.00000000000E+00  0.17636846867E+03  0.17636846867E+03  0.00000000000E+00 0.  1.
         21   -1    0    0  501  503 -0.00000000000E+00 -0.00000000000E+00 -0.42476179077E+02  0.42476179077E+02  0.00000000000E+00 0. -1.
         24    1    1    2    0    0  0.21772935830E+02 -0.30087185890E+02  0.50307057879E+02  0.10186910973E+03  0.80419002446E+02 0.  0.
          1    1    1    2  501    0 -0.36990717491E+02  0.46518340844E+02  0.60108602859E+02  0.84529955359E+02  0.00000000000E+00 0. -1.
         -2    1    1    2    0  502  0.15217781661E+02 -0.16431154954E+02  0.23476628851E+02  0.32445582658E+02  0.00000000000E+00 0.  1.
<mgrwt>
<rscale>  2 0.85204537E+02</rscale>
<asrwt>0</asrwt>
<pdfrwt beam="1">  1       21 0.27133610E-01 0.85204537E+02</pdfrwt>
<pdfrwt beam="2">  1       21 0.65347969E-02 0.85204537E+02</pdfrwt>
<totfact> 0.21587682E+06</totfact>
</mgrwt>
</event>
<event>
 5    1  0.1959123E+000  0.1066184E+03  0.7546771E-02  0.1266963E+00
         21   -1    0    0  503  502  0.00000000000E+00  0.00000000000E+00  0.10373314185E+04  0.10373314185E+04  0.00000000000E+00 0. -1.
         21   -1    0    0  501  503 -0.00000000000E+00 -0.00000000000E+00 -0.19636325337E+02  0.19636325337E+02  0.00000000000E+00 0. -1.
         24    1    1    2    0    0 -0.23595099959E+02 -0.88330608985E+02  0.77625747906E+03  0.78574926979E+03  0.80419002446E+02 0. -1.
          1    1    1    2  501    0  0.10437496616E+02  0.44692739022E+02  0.29783180824E+02  0.54712156939E+02  0.00000000000E+00 0. -1.
         -2    1    1    2    0  502  0.13157603343E+02  0.43637869963E+02  0.21165443326E+03  0.21650631709E+03  0.00000000000E+00 0.  1.
<mgrwt>
<rscale>  2 0.10661837E+03</rscale>
<asrwt>0</asrwt>
<pdfrwt beam="1">  1       21 0.15958941E+00 0.10661837E+03</pdfrwt>
<pdfrwt beam="2">  1       21 0.30209739E-02 0.10661837E+03</pdfrwt>
<totfact> 0.16502971E+05</totfact>
</mgrwt>
</event>
<event>
 5    1  0.1959123E+000  0.6985887E+02  0.7546771E-02  0.1360574E+00
         21   -1    0    0  501  502  0.00000000000E+00  0.00000000000E+00  0.33558090776E+03  0.33558090776E+03  0.00000000000E+00 0. -1.
         21   -1    0    0  502  503 -0.00000000000E+00 -0.00000000000E+00 -0.14840118962E+02  0.14840118962E+02  0.00000000000E+00 0.  1.
         24    1    1    2    0    0  0.24522352099E+02  0.12998074463E+02  0.20043354602E+03  0.21774094244E+03  0.80419002446E+02 0. -1.
          1    1    1    2  501    0 -0.16819840925E+02  0.16856016404E+02  0.66908237322E+02  0.71019325252E+02  0.00000000000E+00 0. -1.
         -2    1    1    2    0  503 -0.77025111743E+01 -0.29854090867E+02  0.53399005458E+02  0.61660759027E+02  0.00000000000E+00 0.  1.
<mgrwt>
<rscale>  2 0.69858867E+02</rscale>
<asrwt>0</asrwt>
<pdfrwt beam="1">  1       21 0.51627826E-01 0.69858867E+02</pdfrwt>
<pdfrwt beam="2">  1       21 0.22830955E-02 0.69858867E+02</pdfrwt>
<totfact> 0.34024109E+06</totfact>
</mgrwt>
</event>
<event>
 5    1  0.1959123E+000  0.7407932E+02  0.7546771E-02  0.1346746E+00
         21   -1    0    0  503  502  0.00000000000E+00  0.00000000000E+00  0.18439586897E+03  0.18439586897E+03  0.00000000000E+00 0.  1.
         21   -1    0    0  501  503 -0.00000000000E+00 -0.00000000000E+00 -0.36258949824E+02  0.36258949824E+02  0.00000000000E+00 0. -1.
         24    1    1    2    0    0 -0.33393992200E+02 -0.27968368327E+02  0.49684165284E+02  0.10408227792E+03  0.80419002446E+02 0. -1.
          1    1    1    2  501    0  0.41804205014E+01  0.27155663580E+02  0.23609949121E+02  0.36226173929E+02  0.00000000000E+00 0. -1.
         -2    1    1    2    0  502  0.29213571699E+02  0.81270474649E+00  0.74842804740E+02  0.80346366948E+02  0.00000000000E+00 0.  1.
<mgrwt>
<rscale>  2 0.74079319E+02</rscale>
<asrwt>0</asrwt>
<pdfrwt beam="1">  1       21 0.28368595E-01 0.74079319E+02</pdfrwt>
<pdfrwt beam="2">  1       21 0.55783001E-02 0.74079319E+02</pdfrwt>
<totfact> 0.25704404E+06</totfact>
</mgrwt>
</event>
<event>
 5    1  0.1959123E+000  0.1150365E+03  0.7546771E-02  0.1251517E+00
         21   -1    0    0  503  502  0.00000000000E+00  0.00000000000E+00  0.10703104177E+03  0.10703104177E+03  0.00000000000E+00 0.  1.
         21   -1    0    0  501  503 -0.00000000000E+00 -0.00000000000E+00 -0.11948269653E+04  0.11948269653E+04  0.00000000000E+00 0. -1.
         24    1    1    2    0    0 -0.29677075203E+02 -0.49978949312E+02 -0.17224089687E+03  0.19877818461E+03  0.80419002446E+02 0.  0.
          1    1    1    2  501    0  0.73176894043E+02  0.47570982062E+02 -0.10022556044E+04  0.10060487825E+04  0.00000000000E+00 0. -1.
         -2    1    1    2    0  502 -0.43499818841E+02  0.24079672498E+01  0.86700577733E+02  0.97031040006E+02  0.00000000000E+00 0.  1.
<mgrwt>
<rscale>  2 0.11503648E+03</rscale>
<asrwt>0</asrwt>
<pdfrwt beam="1">  1       21 0.16466313E-01 0.11503648E+03</pdfrwt>
<pdfrwt beam="2">  1       21 0.18381954E+00 0.11503648E+03</pdfrwt>
<totfact> 0.61528026E+03</totfact>
</mgrwt>
</event>
<event>
 5    1  0.1959123E+000  0.6549945E+02  0.7546771E-02  0.1376103E+00
         21   -1    0    0  503  502  0.00000000000E+00  0.00000000000E+00  0.78243935446E+02  0.78243935446E+02  0.00000000000E+00 0.  1.
         21   -1    0    0  501  503 -0.00000000000E+00 -0.00000000000E+00 -0.64222489523E+02  0.64222489523E+02  0.00000000000E+00 0.  1.
         24    1    1    2    0    0 -0.14426561827E+02 -0.15388302144E+02 -0.17164563024E+02  0.84892659914E+02  0.80419002446E+02 0.  1.
          1    1    1    2  501    0 -0.18355859174E+01  0.27513522497E+02  0.13690517803E+02  0.30786256245E+02  0.00000000000E+00 0. -1.
         -2    1    1    2    0  502  0.16262147744E+02 -0.12125220353E+02  0.17495491144E+02  0.26787508810E+02  0.00000000000E+00 0.  1.
<mgrwt>
<rscale>  2 0.65499453E+02</rscale>
<asrwt>0</asrwt>
<pdfrwt beam="1">  1       21 0.12037529E-01 0.65499453E+02</pdfrwt>
<pdfrwt beam="2">  1       21 0.98803830E-02 0.65499453E+02</pdfrwt>
<totfact> 0.45675789E+06</totfact>
</mgrwt>
</event>
<event>
 5    1  0.1959123E+000  0.7110726E+02  0.7546771E-02  0.1356368E+00
         21   -1    0    0  501  502  0.00000000000E+00  0.00000000000E+00  0.14961746753E+03  0.14961746753E+03  0.00000000000E+00 0.  1.
         21   -1    0    0  502  503 -0.00000000000E+00 -0.00000000000E+00 -0.59619930500E+02  0.59619930500E+02  0.00000000000E+00 0. -1.
         24    1    1    2    0    0 -0.13070474442E+01 -0.79119207762E+01  0.51040866140E+02  0.95586049369E+02  0.80419002446E+02 0.  1.
          1    1    1    2  501    0  0.19677238394E+02  0.27969629419E+02  0.66602442799E+02  0.74869080851E+02  0.00000000000E+00 0. -1.
         -2    1    1    2    0  503 -0.18370190949E+02 -0.20057708643E+02 -0.27645771912E+02  0.38782267806E+02  0.00000000000E+00 0.  1.
<mgrwt>
<rscale>  2 0.71107258E+02</rscale>
<asrwt>0</asrwt>
<pdfrwt beam="1">  1       21 0.23018072E-01 0.71107258E+02</pdfrwt>
<pdfrwt beam="2">  1       21 0.91722970E-02 0.71107258E+02</pdfrwt>
<totfact> 0.16366134E+06</totfact>
</mgrwt>
</event>
<event>
 5    1  0.1959123E+000  0.1045897E+03  0.7546771E-02  0.1270930E+00
         21   -1    0    0  503  502  0.00000000000E+00  0.00000000000E+00  0.25812949741E+03  0.25812949741E+03  0.00000000000E+00 0. -1.
         21   -1    0    0  501  503 -0.00000000000E+00 -0.00000000000E+00 -0.16338554903E+03  0.16338554903E+03  0.00000000000E+00 0. -1.
         24    1    1    2    0    0  0.11513707865E+02 -0.88086353839E+02 -0.50315801823E+02  0.12996409915E+03  0.80419002446E+02 0. -1.
          1    1    1    2  501    0 -0.26379165637E+01  0.55913766884E+02 -0.61008815687E+02  0.82797243447E+02  0.00000000000E+00 0. -1.
         -2    1    1    2    0  502 -0.88757913013E+01  0.32172586956E+02  0.20606856589E+03  0.20875370385E+03  0.00000000000E+00 0.  1.
<mgrwt>
<rscale>  2 0.10458971E+03</rscale>
<asrwt>0</asrwt>
<pdfrwt beam="1">  1       21 0.39712230E-01 0.10458971E+03</pdfrwt>
<pdfrwt beam="2">  1       21 0.25136238E-01 0.10458971E+03</pdfrwt>
<totfact> 0.95004617E+04</totfact>
</mgrwt>
</event>
<event>
 5    1  0.1959123E+000  0.1531262E+03  0.7546771E-02  0.1196683E+00
         21   -1    0    0  501  502  0.00000000000E+00  0.00000000000E+00  0.18327409161E+03  0.18327409161E+03  0.00000000000E+00 0. -1.
         21   -1    0    0  502  503 -0.00000000000E+00 -0.00000000000E+00 -0.22970857433E+03  0.22970857433E+03  0.00000000000E+00 0.  1.
         24    1    1    2    0    0  0.11316742380E+03 -0.31407058266E+02  0.20915753020E+02  0.14386783448E+03  0.80419002446E+02 0. -1.
          1    1    1    2  501    0 -0.82182277526E+02 -0.36003227553E+02  0.69470462293E+02  0.11347380431E+03  0.00000000000E+00 0. -1.
         -2    1    1    2    0  503 -0.30985146278E+02  0.67410285819E+02 -0.13682069803E+03  0.15564102715E+03  0.00000000000E+00 0.  1.
<mgrwt>
<rscale>  2 0.15312624E+03</rscale>
<asrwt>0</asrwt>
<pdfrwt beam="1">  1       21 0.28196014E-01 0.15312624E+03</pdfrwt>
<pdfrwt beam="2">  1       21 0.35339781E-01 0.15312624E+03</pdfrwt>
<totfact> 0.94254094E+04</totfact>
</mgrwt>
</event>
<event>
 5    1  0.1959123E+000  0.1300707E+03  0.7546771E-02  0.1227351E+00
         21   -1    0    0  503  502  0.00000000000E+00  0.00000000000E+00  0.21087841502E+03  0.21087841502E+03  0.00000000000E+00 0.  1.
         21   -1    0    0  501  503 -0.00000000000E+00 -0.00000000000E+00 -0.10765032755E+03  0.10765032755E+03  0.00000000000E+00 0. -1.
         24    1    1    2    0    0 -0.36543025485E+02  0.31914517076E+02  0.56933066502E+01  0.94093351555E+02  0.80419002446E+02 0.  1.
          1    1    1    2  501    0 -0.18088173702E+02 -0.86868511368E+02 -0.12756655512E+02  0.89644032456E+02  0.00000000000E+00 0. -1.
         -2    1    1    2    0  502  0.54631199187E+02  0.54953994291E+02  0.11029143634E+03  0.13479135856E+03  0.00000000000E+00 0.  1.
<mgrwt>
<rscale>  2 0.13007073E+03</rscale>
<asrwt>0</asrwt>
<pdfrwt beam="1">  1       21 0.32442833E-01 0.13007073E+03</pdfrwt>
<pdfrwt beam="2">  1       21 0.16561589E-01 0.13007073E+03</pdfrwt>
<totfact> 0.30314268E+05</totfact>
</mgrwt>
</event>
<event>
 5    1  0.1959123E+000  0.6799213E+02  0.7546771E-02  0.1367057E+00
         21   -1    0    0  503  502  0.00000000000E+00  0.00000000000E+00  0.90457537717E+03  0.90457537717E+03  0.00000000000E+00 0.  1.
         21   -1    0    0  501  503 -0.00000000000E+00 -0.00000000000E+00 -0.78229835022E+01  0.78229835022E+01  0.00000000000E+00 0. -1.
         24    1    1    2    0    0  0.30807949195E+02 -0.20365604870E+02  0.78736310374E+03  0.79232049114E+03  0.80419002446E+02 0.  1.
          1    1    1    2  501    0 -0.64293425777E+01  0.22133225237E+02  0.36195724691E+02  0.42910914593E+02  0.00000000000E+00 0. -1.
         -2    1    1    2    0  502 -0.24378606618E+02 -0.17676203664E+01  0.73193565240E+02  0.77166954941E+02  0.00000000000E+00 0.  1.
<mgrwt>
<rscale>  2 0.67992127E+02</rscale>
<asrwt>0</asrwt>
<pdfrwt beam="1">  1       21 0.13916536E+00 0.67992127E+02</pdfrwt>
<pdfrwt beam="2">  1       21 0.12035366E-02 0.67992127E+02</pdfrwt>
<totfact> 0.10268848E+06</totfact>
</mgrwt>
</event>
<event>
 5    1  0.1959123E+000  0.7823894E+02  0.7546771E-02  0.1334125E+00
         21   -1    0    0  503  502  0.00000000000E+00  0.00000000000E+00  0.33886745166E+02  0.33886745166E+02  0.00000000000E+00 0.  1.
         21   -1    0    0  501  503 -0.00000000000E+00 -0.00000000000E+00 -0.30811727225E+03  0.30811727225E+03  0.00000000000E+00 0. -1.
         24    1    1    2    0    0  0.15046601415E+02 -0.23120647444E+02 -0.35438244342E+02  0.92108901138E+02  0.80419002446E+02 0.  1.
          1    1    1    2  501    0 -0.27652312429E+02  0.41078493591E+02 -0.19087245029E+03  0.19719124042E+03  0.00000000000E+00 0. -1.
         -2    1    1    2    0  502  0.12605711015E+02 -0.17957846147E+02 -0.47919832455E+02  0.52703875862E+02  0.00000000000E+00 0.  1.
<mgrwt>
<rscale>  2 0.78238940E+02</rscale>
<asrwt>0</asrwt>
<pdfrwt beam="1">  1       21 0.52133457E-02 0.78238940E+02</pdfrwt>
<pdfrwt beam="2">  1       21 0.47402655E-01 0.78238940E+02</pdfrwt>
<totfact> 0.10601775E+06</totfact>
</mgrwt>
</event>
<event>
 5    1  0.1959123E+000  0.7717967E+02  0.7546771E-02  0.1337251E+00
         21   -1    0    0  501  502  0.00000000000E+00  0.00000000000E+00  0.17672228964E+02  0.17672228964E+02  0.00000000000E+00 0.  1.
         21   -1    0    0  502  503 -0.00000000000E+00 -0.00000000000E+00 -0.66382221336E+03  0.66382221336E+03  0.00000000000E+00 0.  1.
         24    1    1    2    0    0 -0.12782595340E+02 -0.15716235395E+02 -0.18889679486E+03  0.20629980577E+03  0.80419002446E+02 0.  1.
          1    1    1    2  501    0 -0.23201400307E+02  0.25160694448E+02 -0.27691119069E+02  0.44024579460E+02  0.00000000000E+00 0. -1.
         -2    1    1    2    0  503  0.35983995647E+02 -0.94444590525E+01 -0.42956207047E+03  0.43117005709E+03  0.00000000000E+00 0.  1.
<mgrwt>
<rscale>  2 0.77179672E+02</rscale>
<asrwt>0</asrwt>
<pdfrwt beam="1">  1       21 0.27188048E-02 0.77179672E+02</pdfrwt>
<pdfrwt beam="2">  1       21 0.10212648E+00 0.77179672E+02</pdfrwt>
<totfact> 0.59022540E+05</totfact>
</mgrwt>
</event>
<event>
 5    1  0.1959123E+000  0.1023755E+03  0.7546771E-02  0.1275378E+00
         21   -1    0    0  503  502  0.00000000000E+00  0.00000000000E+00  0.77807666936E+03  0.77807666936E+03  0.00000000000E+00 0.  1.
         21   -1    0    0  501  503 -0.00000000000E+00 -0.00000000000E+00 -0.50333313080E+02  0.50333313080E+02  0.00000000000E+00 0. -1.
         24    1    1    2    0    0  0.14483098414E+02  0.24528578507E+02  0.78305926174E+02  0.11580347720E+03  0.80419002446E+02 0.  0.
          1    1    1    2  501    0  0.18691246979E+02 -0.64695140801E+02  0.66023300206E+01  0.67663983910E+02  0.00000000000E+00 0. -1.
         -2    1    1    2    0  502 -0.33174345393E+02  0.40166562293E+02  0.64283510009E+03  0.64494252133E+03  0.00000000000E+00 0.  1.
<mgrwt>
<rscale>  2 0.10237549E+03</rscale>
<asrwt>0</asrwt>
<pdfrwt beam="1">  1       21 0.11970409E+00 0.10237549E+03</pdfrwt>
<pdfrwt beam="2">  1       21 0.77435872E-02 0.10237549E+03</pdfrwt>
<totfact> 0.70819302E+04</totfact>
</mgrwt>
</event>
<event>
 5    1  0.1959123E+000  0.1087678E+03  0.7546771E-02  0.1262869E+00
         21   -1    0    0  503  502  0.00000000000E+00  0.00000000000E+00  0.41576614948E+02  0.41576614948E+02  0.00000000000E+00 0.  1.
         21   -1    0    0  501  503 -0.00000000000E+00 -0.00000000000E+00 -0.57535604609E+03  0.57535604609E+03  0.00000000000E+00 0.  1.
         24    1    1    2    0    0  0.61528475192E+02 -0.70592334388E+02 -0.35689998240E+03  0.37764248215E+03  0.80419002446E+02 0.  1.
          1    1    1    2  501    0 -0.29952389540E+02  0.41390237825E+02 -0.18803923809E+03  0.19485649204E+03  0.00000000000E+00 0. -1.
         -2    1    1    2    0  502 -0.31576085652E+02  0.29202096562E+02  0.11159789351E+02  0.44433686850E+02  0.00000000000E+00 0.  1.
<mgrwt>
<rscale>  2 0.10876785E+03</rscale>
<asrwt>0</asrwt>
<pdfrwt beam="1">  1       21 0.63964033E-02 0.10876785E+03</pdfrwt>
<pdfrwt beam="2">  1       21 0.88516301E-01 0.10876785E+03</pdfrwt>
<totfact> 0.19803577E+05</totfact>
</mgrwt>
</event>
<event>
 5    1  0.1959123E+000  0.7902502E+02  0.7546771E-02  0.1331841E+00
         21   -1    0    0  503  502  0.00000000000E+00  0.00000000000E+00  0.96004380569E+03  0.96004380569E+03  0.00000000000E+00 0. -1.
         21   -1    0    0  501  503 -0.00000000000E+00 -0.00000000000E+00 -0.84873582439E+01  0.84873582439E+01  0.00000000000E+00 0.  1.
         24    1    1    2    0    0 -0.18743201850E+02 -0.28601475959E+02  0.51302869524E+03  0.52041811088E+03  0.80419002446E+02 0.  0.
          1    1    1    2  501    0 -0.22911277891E+02  0.11481379855E+02  0.43207463553E+02  0.50235780522E+02  0.00000000000E+00 0. -1.
         -2    1    1    2    0  502  0.41654479741E+02  0.17120096104E+02  0.39532028866E+03  0.39787727253E+03  0.00000000000E+00 0.  1.
<mgrwt>
<rscale>  2 0.79025018E+02</rscale>
<asrwt>0</asrwt>
<pdfrwt beam="1">  1       21 0.14769896E+00 0.79025018E+02</pdfrwt>
<pdfrwt beam="2">  1       21 0.13057482E-02 0.79025018E+02</pdfrwt>
<totfact> 0.77896895E+05</totfact>
</mgrwt>
</event>
<event>
 5    1  0.1959123E+000  0.1122891E+03  0.7546771E-02  0.1256389E+00
         21   -1    0    0  503  502  0.00000000000E+00  0.00000000000E+00  0.16156711188E+03  0.16156711188E+03  0.00000000000E+00 0.  1.
         21   -1    0    0  501  503 -0.00000000000E+00 -0.00000000000E+00 -0.94842145538E+02  0.94842145538E+02  0.00000000000E+00 0.  1.
         24    1    1    2    0    0  0.56065282929E+02  0.45099527278E+02 -0.21556605559E+02  0.11004174893E+03  0.80419002446E+02 0.  1.
          1    1    1    2  501    0  0.15294159309E+02 -0.42603429826E+02  0.31654505096E+02  0.55235597532E+02  0.00000000000E+00 0. -1.
         -2    1    1    2    0  502 -0.71359442239E+02 -0.24960974517E+01  0.56627066810E+02  0.91131910957E+02  0.00000000000E+00 0.  1.
<mgrwt>
<rscale>  2 0.11228912E+03</rscale>
<asrwt>0</asrwt>
<pdfrwt beam="1">  1       21 0.24856479E-01 0.11228912E+03</pdfrwt>
<pdfrwt beam="2">  1       21 0.14591099E-01 0.11228912E+03</pdfrwt>
<totfact> 0.63540095E+05</totfact>
</mgrwt>
</event>
<event>
 5    1  0.1959123E+000  0.6608307E+02  0.7546771E-02  0.1373943E+00
         21   -1    0    0  503  502  0.00000000000E+00  0.00000000000E+00  0.80066361158E+02  0.80066361158E+02  0.00000000000E+00 0. -1.
         21   -1    0    0  501  503 -0.00000000000E+00 -0.00000000000E+00 -0.12170340044E+03  0.12170340044E+03  0.00000000000E+00 0.  1.
         24    1    1    2    0    0 -0.76329630138E+01  0.20269863392E+01 -0.14428922684E+02  0.82083984809E+02  0.80419002446E+02 0.  0.
          1    1    1    2  501    0  0.48792612348E+01  0.24352988976E+02 -0.67231005164E+02  0.71672053951E+02  0.00000000000E+00 0. -1.
         -2    1    1    2    0  502  0.27537017790E+01 -0.26379975315E+02  0.40022888568E+02  0.48013722835E+02  0.00000000000E+00 0.  1.
<mgrwt>
<rscale>  2 0.66083071E+02</rscale>
<asrwt>0</asrwt>
<pdfrwt beam="1">  1       21 0.12317902E-01 0.66083071E+02</pdfrwt>
<pdfrwt beam="2">  1       21 0.18723600E-01 0.66083071E+02</pdfrwt>
<totfact> 0.14287657E+06</totfact>
</mgrwt>
</event>
<event>
 5    1  0.1959123E+000  0.1049182E+03  0.7546771E-02  0.1270281E+00
         21   -1    0    0  501  502  0.00000000000E+00  0.00000000000E+00  0.29455776046E+02  0.29455776046E+02  0.00000000000E+00 0. -1.
         21   -1    0    0  502  503 -0.00000000000E+00 -0.00000000000E+00 -0.10535733127E+04  0.10535733127E+04  0.00000000000E+00 0.  1.
         24    1    1    2    0    0  0.12406454955E+02 -0.23030582601E+02 -0.18838601189E+03  0.20649656968E+03  0.80419002446E+02 0.  1.
          1    1    1    2  501    0 -0.58782483484E+02 -0.19913678003E+02 -0.31095843754E+02  0.69418199594E+02  0.00000000000E+00 0. -1.
         -2    1    1    2    0  503  0.46376028529E+02  0.42944260604E+02 -0.80463568098E+03  0.80711431944E+03  0.00000000000E+00 0.  1.
<mgrwt>
<rscale>  2 0.10491817E+03</rscale>
<asrwt>0</asrwt>
<pdfrwt beam="1">  1       21 0.45316581E-02 0.10491817E+03</pdfrwt>
<pdfrwt beam="2">  1       21 0.16208819E+00 0.10491817E+03</pdfrwt>
<totfact> 0.81314876E+04</totfact>
</mgrwt>
</event>
<event>
 5    1  0.1959123E+000  0.6671605E+02  0.7546771E-02  0.1371630E+00
         21   -1    0    0  503  502  0.00000000000E+00  0.00000000000E+00  0.90865748106E+02  0.90865748106E+02  0.00000000000E+00 0. -1.
         21   -1    0    0  501  503 -0.00000000000E+00 -0.00000000000E+00 -0.23290284923E+03  0.23290284923E+03  0.00000000000E+00 0. -1.
         24    1    1    2    0    0  0.15425998580E+01 -0.88987339168E+01  0.37956486190E+02  0.89383879296E+02  0.80419002446E+02 0. -1.
          1    1    1    2  501    0 -0.12396074506E+02  0.27953360913E+02 -0.20141875108E+03  0.20372669520E+03  0.00000000000E+00 0. -1.
         -2    1    1    2    0  502  0.10853474648E+02 -0.19054626996E+02  0.21425163769E+02  0.30658022839E+02  0.00000000000E+00 0.  1.
<mgrwt>
<rscale>  2 0.66716045E+02</rscale>
<asrwt>0</asrwt>
<pdfrwt beam="1">  1       21 0.13979346E-01 0.66716045E+02</pdfrwt>
<pdfrwt beam="2">  1       21 0.35831207E-01 0.66716045E+02</pdfrwt>
<totfact> 0.34168567E+05</totfact>
</mgrwt>
</event>
<event>
 5    1  0.1959123E+000  0.7927337E+02  0.7546771E-02  0.1331126E+00
         21   -1    0    0  503  502  0.00000000000E+00  0.00000000000E+00  0.93179408151E+02  0.93179408151E+02  0.00000000000E+00 0. -1.
         21   -1    0    0  501  503 -0.00000000000E+00 -0.00000000000E+00 -0.68619412731E+02  0.68619412731E+02  0.00000000000E+00 0. -1.
         24    1    1    2    0    0 -0.28417316455E+02 -0.46894843227E+01  0.70878618662E+01  0.85714577978E+02  0.80419002446E+02 0. -1.
          1    1    1    2  501    0  0.38468098453E+02  0.28107017770E+02  0.17037620285E+02  0.50597228694E+02  0.00000000000E+00 0. -1.
         -2    1    1    2    0  502 -0.10050781998E+02 -0.23417533448E+02  0.43451326971E+00  0.25487014210E+02  0.00000000000E+00 0.  1.
<mgrwt>
<rscale>  2 0.79273370E+02</rscale>
<asrwt>0</asrwt>
<pdfrwt beam="1">  1       21 0.14335294E-01 0.79273370E+02</pdfrwt>
<pdfrwt beam="2">  1       21 0.10556833E-01 0.79273370E+02</pdfrwt>
<totfact> 0.30374254E+06</totfact>
</mgrwt>
</event>
<event>
 5    1  0.1959123E+000  0.6272827E+02  0.7546771E-02  0.1386726E+00
         21   -1    0    0  501  502  0.00000000000E+00  0.00000000000E+00  0.58107247519E+03  0.58107247519E+03  0.00000000000E+00 0.  1.
         21   -1    0    0  502  503 -0.00000000000E+00 -0.00000000000E+00 -0.35802600060E+02  0.35802600060E+02  0.00000000000E+00 0.  1.
         24    1    1    2    0    0  0.17788648369E+02  0.79249437843E+01  0.46916787713E+03  0.47640838955E+03  0.80419002446E+02 0.  1.
          1    1    1    2  501    0  0.34190395618E+00 -0.20592744051E+02  0.10334416075E+03  0.10537643744E+03  0.00000000000E+00 0. -1.
         -2    1    1    2    0  503 -0.18130552325E+02  0.12667800266E+02 -0.27242162757E+02  0.35090248259E+02  0.00000000000E+00 0.  1.
<mgrwt>
<rscale>  2 0.62728271E+02</rscale>
<asrwt>0</asrwt>
<pdfrwt beam="1">  1       21 0.89395759E-01 0.62728271E+02</pdfrwt>
<pdfrwt beam="2">  1       21 0.55080927E-02 0.62728271E+02</pdfrwt>
<totfact> 0.25253422E+05</totfact>
</mgrwt>
</event>
<event>
 5    1  0.1959123E+000  0.8517379E+02  0.7546771E-02  0.1314979E+00
         21   -1    0    0  503  502  0.00000000000E+00  0.00000000000E+00  0.18672122870E+04  0.18672122870E+04  0.00000000000E+00 0.  1.
         21   -1    0    0  501  503 -0.00000000000E+00 -0.00000000000E+00 -0.18113721731E+02  0.18113721731E+02  0.00000000000E+00 0. -1.
         24    1    1    2    0    0  0.13862327040E+02  0.56890362985E+02  0.95937353463E+03  0.96451722245E+03  0.80419002446E+02 0. -1.
          1    1    1    2  501    0  0.91294983915E+01 -0.43105938914E+02  0.16312191673E+02  0.46984649703E+02  0.00000000000E+00 0. -1.
         -2    1    1    2    0  502 -0.22991825431E+02 -0.13784424072E+02  0.87341283894E+03  0.87382413655E+03  0.00000000000E+00 0.  1.
<mgrwt>
<rscale>  2 0.85173787E+02</rscale>
<asrwt>0</asrwt>
<pdfrwt beam="1">  1       21 0.28726328E+00 0.85173787E+02</pdfrwt>
<pdfrwt beam="2">  1       21 0.27867279E-02 0.85173787E+02</pdfrwt>
<totfact> 0.33056770E+04</totfact>
</mgrwt>
</event>
<event>
 5    1  0.1959123E+000  0.1816275E+03  0.7546771E-02  0.1166237E+00
         21   -1    0    0  503  502  0.00000000000E+00  0.00000000000E+00  0.14204638266E+03  0.14204638266E+03  0.00000000000E+00 0.  1.
         21   -1    0    0  501  503 -0.00000000000E+00 -0.00000000000E+00 -0.37573866164E+03  0.37573866164E+03  0.00000000000E+00 0. -1.
         24    1    1    2    0    0 -0.13000997300E+03 -0.10891594500E+03 -0.63541712343E+02  0.19816670083E+03  0.80419002446E+02 0.  1.
          1    1    1    2  501    0  0.44012329474E+02  0.66288102753E+02 -0.20310564761E+03  0.21813551247E+03  0.00000000000E+00 0. -1.
         -2    1    1    2    0  502  0.85997643527E+02  0.42627842245E+02  0.32955080972E+02  0.10148283100E+03  0.00000000000E+00 0.  1.
<mgrwt>
<rscale>  2 0.18162749E+03</rscale>
<asrwt>0</asrwt>
<pdfrwt beam="1">  1       21 0.21853290E-01 0.18162749E+03</pdfrwt>
<pdfrwt beam="2">  1       21 0.57805947E-01 0.18162749E+03</pdfrwt>
<totfact> 0.55136144E+04</totfact>
</mgrwt>
</event>
<event>
 5    1  0.1959123E+000  0.6518302E+02  0.7546771E-02  0.1377284E+00
         21   -1    0    0  503  502  0.00000000000E+00  0.00000000000E+00  0.22627691949E+02  0.22627691949E+02  0.00000000000E+00 0.  1.
         21   -1    0    0  501  503 -0.00000000000E+00 -0.00000000000E+00 -0.73022018330E+03  0.73022018330E+03  0.00000000000E+00 0. -1.
         24    1    1    2    0    0 -0.36339617583E+01  0.75356225330E+01 -0.61158320008E+03  0.61690454518E+03  0.80419002446E+02 0. -1.
          1    1    1    2  501    0 -0.19479042295E+02 -0.15681227257E+02 -0.10641907797E+03  0.10931767530E+03  0.00000000000E+00 0. -1.
         -2    1    1    2    0  502  0.23113004053E+02  0.81456047244E+01  0.10409786703E+02  0.26625654769E+02  0.00000000000E+00 0.  1.
<mgrwt>
<rscale>  2 0.65183020E+02</rscale>
<asrwt>0</asrwt>
<pdfrwt beam="1">  1       21 0.34811833E-02 0.65183020E+02</pdfrwt>
<pdfrwt beam="2">  1       21 0.11234157E+00 0.65183020E+02</pdfrwt>
<totfact> 0.31746550E+05</totfact>
</mgrwt>
</event>
<event>
 5    1  0.1959123E+000  0.2115184E+03  0.7546771E-02  0.1140369E+00
         21   -1    0    0  503  502  0.00000000000E+00  0.00000000000E+00  0.91174284697E+03  0.91174284697E+03  0.00000000000E+00 0.  1.
         21   -1    0    0  501  503 -0.00000000000E+00 -0.00000000000E+00 -0.82509513462E+02  0.82509513462E+02  0.00000000000E+00 0. -1.
         24    1    1    2    0    0 -0.10356727473E+03  0.15095713925E+03  0.63881047208E+03  0.66937304508E+03  0.80419002446E+02 0.  1.
          1    1    1    2  501    0  0.78091168107E+02 -0.17273530191E+03  0.73616442440E+02  0.20335952316E+03  0.00000000000E+00 0. -1.
         -2    1    1    2    0  502  0.25476106626E+02  0.21778162659E+02  0.11680641899E+03  0.12151979219E+03  0.00000000000E+00 0.  1.
<mgrwt>
<rscale>  2 0.21151839E+03</rscale>
<asrwt>0</asrwt>
<pdfrwt beam="1">  1       21 0.14026812E+00 0.21151839E+03</pdfrwt>
<pdfrwt beam="2">  1       21 0.12693772E-01 0.21151839E+03</pdfrwt>
<totfact> 0.18658339E+04</totfact>
</mgrwt>
</event>
<event>
 5    1  0.4703294E+000  0.8926466E+02  0.7546771E-02  0.1304642E+00
         21   -1    0    0  501  502  0.00000000000E+00  0.00000000000E+00  0.15146348367E+03  0.15146348367E+03  0.00000000000E+00 0. -1.
         21   -1    0    0  502  503 -0.00000000000E+00 -0.00000000000E+00 -0.67544673994E+03  0.67544673994E+03  0.00000000000E+00 0.  1.
         24    1    1    2    0    0  0.19539974911E+02  0.42636266154E+02  0.10957505897E+03  0.14378307033E+03  0.80419002446E+02 0. -1.
          1    1    1    2  501    0 -0.40504491995E+02 -0.30262718929E+01  0.68170710973E+01  0.41185490791E+02  0.00000000000E+00 0. -1.
         -2    1    1    2    0  503  0.20964517085E+02 -0.39609994262E+02 -0.64037538633E+03  0.64194166249E+03  0.00000000000E+00 0.  1.
<mgrwt>
<rscale>  2 0.89264665E+02</rscale>
<asrwt>0</asrwt>
<pdfrwt beam="1">  1       21 0.23302075E-01 0.89264665E+02</pdfrwt>
<pdfrwt beam="2">  1       21 0.10391488E+00 0.89264665E+02</pdfrwt>
<totfact> 0.14161577E+04</totfact>
</mgrwt>
</event>
<event>
 5    1  0.1959123E+000  0.7153312E+02  0.7546771E-02  0.1354956E+00
         21   -1    0    0  503  502  0.00000000000E+00  0.00000000000E+00  0.25106995257E+03  0.25106995257E+03  0.00000000000E+00 0.  1.
         21   -1    0    0  501  503 -0.00000000000E+00 -0.00000000000E+00 -0.29248032656E+02  0.29248032656E+02  0.00000000000E+00 0. -1.
         24    1    1    2    0    0 -0.24401176048E+01  0.62441369018E+01  0.62466999004E+02  0.10205040587E+03  0.80419002446E+02 0. -1.
          1    1    1    2  501    0  0.32056957909E+02 -0.66923255862E+01  0.26431675546E+02  0.42084073523E+02  0.00000000000E+00 0. -1.
         -2    1    1    2    0  502 -0.29616840304E+02  0.44818868441E+00  0.13292324536E+03  0.13618350583E+03  0.00000000000E+00 0.  1.
<mgrwt>
<rscale>  2 0.71533124E+02</rscale>
<asrwt>0</asrwt>
<pdfrwt beam="1">  1       21 0.38626145E-01 0.71533124E+02</pdfrwt>
<pdfrwt beam="2">  1       21 0.44996975E-02 0.71533124E+02</pdfrwt>
<totfact> 0.20244803E+06</totfact>
</mgrwt>
</event>
<event>
 5    1  0.1959123E+000  0.9314181E+02  0.7546771E-02  0.1295417E+00
         21   -1    0    0  501  502  0.00000000000E+00  0.00000000000E+00  0.15956705131E+03  0.15956705131E+03  0.00000000000E+00 0. -1.
         21   -1    0    0  502  503 -0.00000000000E+00 -0.00000000000E+00 -0.16623378888E+03  0.16623378888E+03  0.00000000000E+00 0. -1.
         24    1    1    2    0    0 -0.70914006509E+02 -0.20824743326E+01 -0.73340168511E+02  0.12991970324E+03  0.80419002446E+02 0. -1.
          1    1    1    2  501    0  0.30033803817E+02 -0.16355143943E+02  0.12082465671E+03  0.12557116617E+03  0.00000000000E+00 0. -1.
         -2    1    1    2    0  503  0.40880202692E+02  0.18437618276E+02 -0.54151225761E+02  0.70309970781E+02  0.00000000000E+00 0.  1.
<mgrwt>
<rscale>  2 0.93141813E+02</rscale>
<asrwt>0</asrwt>
<pdfrwt beam="1">  1       21 0.24548777E-01 0.93141813E+02</pdfrwt>
<pdfrwt beam="2">  1       21 0.25574429E-01 0.93141813E+02</pdfrwt>
<totfact> 0.23310052E+05</totfact>
</mgrwt>
</event>
<event>
 5    1  0.1959123E+000  0.9446249E+02  0.7546771E-02  0.1292391E+00
         21   -1    0    0  503  502  0.00000000000E+00  0.00000000000E+00  0.31217638112E+02  0.31217638112E+02  0.00000000000E+00 0.  1.
         21   -1    0    0  501  503 -0.00000000000E+00 -0.00000000000E+00 -0.63366993298E+03  0.63366993298E+03  0.00000000000E+00 0. -1.
         24    1    1    2    0    0  0.37588891976E+02 -0.45591492159E+02 -0.30618873067E+03  0.32204077956E+03  0.80419002446E+02 0. -1.
          1    1    1    2  501    0 -0.56987525415E+02  0.36777085643E+02 -0.31010696474E+03  0.31743733502E+03  0.00000000000E+00 0. -1.
         -2    1    1    2    0  502  0.19398633439E+02  0.88144065154E+01  0.13843400546E+02  0.25409456511E+02  0.00000000000E+00 0.  1.
<mgrwt>
<rscale>  2 0.94462489E+02</rscale>
<asrwt>0</asrwt>
<pdfrwt beam="1">  1       21 0.48027141E-02 0.94462489E+02</pdfrwt>
<pdfrwt beam="2">  1       21 0.97487672E-01 0.94462489E+02</pdfrwt>
<totfact> 0.25813224E+05</totfact>
</mgrwt>
</event>
<event>
 5    1  0.1959123E+000  0.8014458E+02  0.7546771E-02  0.1328642E+00
         21   -1    0    0  501  502  0.00000000000E+00  0.00000000000E+00  0.72121546481E+02  0.72121546481E+02  0.00000000000E+00 0. -1.
         21   -1    0    0  502  503 -0.00000000000E+00 -0.00000000000E+00 -0.10311836749E+03  0.10311836749E+03  0.00000000000E+00 0.  1.
         24    1    1    2    0    0 -0.26957278293E+02 -0.46399117672E+02 -0.96120547837E-01  0.96678840329E+02  0.80419002446E+02 0. -1.
          1    1    1    2  501    0  0.24645189722E+00  0.34276448325E+02  0.21822390155E+01  0.34346729326E+02  0.00000000000E+00 0. -1.
         -2    1    1    2    0  503  0.26710826396E+02  0.12122669347E+02 -0.33082939476E+02  0.44214344315E+02  0.00000000000E+00 0.  1.
<mgrwt>
<rscale>  2 0.80144584E+02</rscale>
<asrwt>0</asrwt>
<pdfrwt beam="1">  1       21 0.11095623E-01 0.80144584E+02</pdfrwt>
<pdfrwt beam="2">  1       21 0.15864364E-01 0.80144584E+02</pdfrwt>
<totfact> 0.23274878E+06</totfact>
</mgrwt>
</event>
<event>
 5    1  0.1959123E+000  0.9864906E+02  0.7546771E-02  0.1283163E+00
         21   -1    0    0  503  502  0.00000000000E+00  0.00000000000E+00  0.55117621927E+02  0.55117621927E+02  0.00000000000E+00 0.  1.
         21   -1    0    0  501  503 -0.00000000000E+00 -0.00000000000E+00 -0.26221586494E+03  0.26221586494E+03  0.00000000000E+00 0. -1.
         24    1    1    2    0    0  0.14887494485E+02  0.54891952670E+02 -0.11494801459E+03  0.15137709857E+03  0.80419002446E+02 0.  1.
          1    1    1    2  501    0  0.24257797569E+02  0.72833202212E+01 -0.88872867581E+02  0.92411439164E+02  0.00000000000E+00 0. -1.
         -2    1    1    2    0  502 -0.39145292053E+02 -0.62175272892E+02 -0.32773608465E+01  0.73544949134E+02  0.00000000000E+00 0.  1.
<mgrwt>
<rscale>  2 0.98649061E+02</rscale>
<asrwt>0</asrwt>
<pdfrwt beam="1">  1       21 0.84796343E-02 0.98649061E+02</pdfrwt>
<pdfrwt beam="2">  1       21 0.40340901E-01 0.98649061E+02</pdfrwt>
<totfact> 0.64581823E+05</totfact>
</mgrwt>
</event>
<event>
 5    1  0.1959123E+000  0.7329085E+02  0.7546771E-02  0.1349247E+00
         21   -1    0    0  501  502  0.00000000000E+00  0.00000000000E+00  0.16960249589E+03  0.16960249589E+03  0.00000000000E+00 0.  1.
         21   -1    0    0  502  503 -0.00000000000E+00 -0.00000000000E+00 -0.35043022662E+02  0.35043022662E+02  0.00000000000E+00 0. -1.
         24    1    1    2    0    0  0.10069853409E+02 -0.29614641543E+01  0.10197888780E+03  0.13029613090E+03  0.80419002446E+02 0.  1.
          1    1    1    2  501    0 -0.37293609200E+02 -0.36311583411E+01  0.25909025973E+02  0.45555199757E+02  0.00000000000E+00 0. -1.
         -2    1    1    2    0  503  0.27223755791E+02  0.65926224955E+01  0.66715594574E+01  0.28794187891E+02  0.00000000000E+00 0.  1.
<mgrwt>
<rscale>  2 0.73290850E+02</rscale>
<asrwt>0</asrwt>
<pdfrwt beam="1">  1       21 0.26092691E-01 0.73290850E+02</pdfrwt>
<pdfrwt beam="2">  1       21 0.53912343E-02 0.73290850E+02</pdfrwt>
<totfact> 0.31807898E+06</totfact>
</mgrwt>
</event>
<event>
 5    1  0.1959123E+000  0.7451460E+02  0.7546771E-02  0.1345381E+00
         21   -1    0    0  501  502  0.00000000000E+00  0.00000000000E+00  0.32986065893E+03  0.32986065893E+03  0.00000000000E+00 0.  1.
         21   -1    0    0  502  503 -0.00000000000E+00 -0.00000000000E+00 -0.37340715090E+02  0.37340715090E+02  0.00000000000E+00 0.  1.
         24    1    1    2    0    0  0.24988505512E+02  0.25283389142E+02  0.16281802174E+03  0.18504215555E+03  0.80419002446E+02 0.  1.
          1    1    1    2  501    0 -0.16198109224E+02  0.13654778058E+02  0.13946470149E+03  0.14106464713E+03  0.00000000000E+00 0. -1.
         -2    1    1    2    0  503 -0.87903962886E+01 -0.38938167201E+02 -0.97627793953E+01  0.41094571337E+02  0.00000000000E+00 0.  1.
<mgrwt>
<rscale>  2 0.74514600E+02</rscale>
<asrwt>0</asrwt>
<pdfrwt beam="1">  1       21 0.50747792E-01 0.74514600E+02</pdfrwt>
<pdfrwt beam="2">  1       21 0.57447256E-02 0.74514600E+02</pdfrwt>
<totfact> 0.78494323E+05</totfact>
</mgrwt>
</event>
<event>
 5    1  0.1959123E+000  0.8452529E+02  0.7546771E-02  0.1316679E+00
         21   -1    0    0  501  502  0.00000000000E+00  0.00000000000E+00  0.97239764197E+02  0.97239764197E+02  0.00000000000E+00 0.  1.
         21   -1    0    0  502  503 -0.00000000000E+00 -0.00000000000E+00 -0.12396118136E+03  0.12396118136E+03  0.00000000000E+00 0. -1.
         24    1    1    2    0    0 -0.42963355750E+02 -0.69953026618E+01 -0.67446693859E+02  0.11362683074E+03  0.80419002446E+02 0. -1.
          1    1    1    2  501    0 -0.44413746883E+01 -0.21729041564E+02  0.46824451499E+02  0.51811256639E+02  0.00000000000E+00 0. -1.
         -2    1    1    2    0  503  0.47404730438E+02  0.28724344225E+02 -0.60991748020E+01  0.55762858179E+02  0.00000000000E+00 0.  1.
<mgrwt>
<rscale>  2 0.84525287E+02</rscale>
<asrwt>0</asrwt>
<pdfrwt beam="1">  1       21 0.14959964E-01 0.84525287E+02</pdfrwt>
<pdfrwt beam="2">  1       21 0.19070951E-01 0.84525287E+02</pdfrwt>
<totfact> 0.98899673E+05</totfact>
</mgrwt>
</event>
<event>
 5    1  0.1959123E+000  0.7765403E+02  0.7546771E-02  0.1335844E+00
         21   -1    0    0  501  502  0.00000000000E+00  0.00000000000E+00  0.27993657876E+03  0.27993657876E+03  0.00000000000E+00 0. -1.
         21   -1    0    0  502  503 -0.00000000000E+00 -0.00000000000E+00 -0.47132109087E+02  0.47132109087E+02  0.00000000000E+00 0.  1.
         24    1    1    2    0    0 -0.19673787399E+01  0.26776262305E+02  0.10367458131E+03  0.13392712036E+03  0.80419002446E+02 0.  1.
          1    1    1    2  501    0 -0.17457831844E+02  0.15914620856E+02  0.14244109035E+03  0.14438668661E+03  0.00000000000E+00 0. -1.
         -2    1    1    2    0  503  0.19425210584E+02 -0.42690883161E+02 -0.13311201991E+02  0.48754880882E+02  0.00000000000E+00 0.  1.
<mgrwt>
<rscale>  2 0.77654031E+02</rscale>
<asrwt>0</asrwt>
<pdfrwt beam="1">  1       21 0.43067165E-01 0.77654031E+02</pdfrwt>
<pdfrwt beam="2">  1       21 0.72510939E-02 0.77654031E+02</pdfrwt>
<totfact> 0.73903031E+05</totfact>
</mgrwt>
</event>
<event>
 5    1  0.1959123E+000  0.7753351E+02  0.7546771E-02  0.1336200E+00
         21   -1    0    0  503  502  0.00000000000E+00  0.00000000000E+00  0.50741288843E+02  0.50741288843E+02  0.00000000000E+00 0. -1.
         21   -1    0    0  501  503 -0.00000000000E+00 -0.00000000000E+00 -0.16551835687E+03  0.16551835687E+03  0.00000000000E+00 0.  1.
         24    1    1    2    0    0 -0.19108249486E+02  0.50897929834E+02 -0.12047845949E+02  0.97816619274E+02  0.80419002446E+02 0.  1.
          1    1    1    2  501    0  0.20688189015E+02 -0.26851793517E+02 -0.70247829161E+02  0.77998573587E+02  0.00000000000E+00 0. -1.
         -2    1    1    2    0  502 -0.15799395296E+01 -0.24046136317E+02 -0.32481392922E+02  0.40444452856E+02  0.00000000000E+00 0.  1.
<mgrwt>
<rscale>  2 0.77533507E+02</rscale>
<asrwt>0</asrwt>
<pdfrwt beam="1">  1       21 0.78063521E-02 0.77533507E+02</pdfrwt>
<pdfrwt beam="2">  1       21 0.25464363E-01 0.77533507E+02</pdfrwt>
<totfact> 0.17930271E+06</totfact>
</mgrwt>
</event>
<event>
 5    1  0.1959123E+000  0.7891067E+02  0.7546771E-02  0.1332172E+00
         21   -1    0    0  501  502  0.00000000000E+00  0.00000000000E+00  0.22184449388E+03  0.22184449388E+03  0.00000000000E+00 0. -1.
         21   -1    0    0  502  503 -0.00000000000E+00 -0.00000000000E+00 -0.80898292094E+02  0.80898292094E+02  0.00000000000E+00 0. -1.
         24    1    1    2    0    0 -0.33750366826E+01 -0.23925292140E+02  0.34235070507E+01  0.84040150116E+02  0.80419002446E+02 0. -1.
          1    1    1    2  501    0  0.28232881280E+02  0.36377996452E+02  0.16989799571E+03  0.17602779087E+03  0.00000000000E+00 0. -1.
         -2    1    1    2    0  503 -0.24857844598E+02 -0.12452704312E+02 -0.32375300968E+02  0.42674844997E+02  0.00000000000E+00 0.  1.
<mgrwt>
<rscale>  2 0.78910670E+02</rscale>
<asrwt>0</asrwt>
<pdfrwt beam="1">  1       21 0.34129922E-01 0.78910670E+02</pdfrwt>
<pdfrwt beam="2">  1       21 0.12445891E-01 0.78910670E+02</pdfrwt>
<totfact> 0.46022951E+05</totfact>
</mgrwt>
</event>
<event>
 5    1  0.1959123E+000  0.1058825E+03  0.7546771E-02  0.1268391E+00
         21   -1    0    0  501  502  0.00000000000E+00  0.00000000000E+00  0.10199001853E+04  0.10199001853E+04  0.00000000000E+00 0. -1.
         21   -1    0    0  502  503 -0.00000000000E+00 -0.00000000000E+00 -0.60234576324E+02  0.60234576324E+02  0.00000000000E+00 0.  1.
         24    1    1    2    0    0 -0.38046491600E+02 -0.78997563627E+02  0.26100396576E+03  0.28684218079E+03  0.80419002446E+02 0.  1.
          1    1    1    2  501    0  0.29296905790E+02  0.26301289028E+02  0.73019915795E+03  0.73125978747E+03  0.00000000000E+00 0. -1.
         -2    1    1    2    0  503  0.87495858100E+01  0.52696274599E+02 -0.31537514784E+02  0.62032793321E+02  0.00000000000E+00 0.  1.
<mgrwt>
<rscale>  2 0.10588246E+03</rscale>
<asrwt>0</asrwt>
<pdfrwt beam="1">  1       21 0.15690771E+00 0.10588246E+03</pdfrwt>
<pdfrwt beam="2">  1       21 0.92668586E-02 0.10588246E+03</pdfrwt>
<totfact> 0.26312846E+04</totfact>
</mgrwt>
</event>
<event>
 5    1  0.1959123E+000  0.1405130E+03  0.7546771E-02  0.1212640E+00
         21   -1    0    0  501  502  0.00000000000E+00  0.00000000000E+00  0.75410220027E+02  0.75410220027E+02  0.00000000000E+00 0. -1.
         21   -1    0    0  502  503 -0.00000000000E+00 -0.00000000000E+00 -0.31444467106E+03  0.31444467106E+03  0.00000000000E+00 0. -1.
         24    1    1    2    0    0  0.95102717665E+02  0.63674739660E+02 -0.67163479944E+02  0.15516812936E+03  0.80419002446E+02 0. -1.
          1    1    1    2  501    0 -0.78962008119E+02 -0.37115891337E+01 -0.39270848253E+02  0.88266495017E+02  0.00000000000E+00 0. -1.
         -2    1    1    2    0  503 -0.16140709546E+02 -0.59963150526E+02 -0.13260012284E+03  0.14642026671E+03  0.00000000000E+00 0.  1.
<mgrwt>
<rscale>  2 0.14051300E+03</rscale>
<asrwt>0</asrwt>
<pdfrwt beam="1">  1       21 0.11601572E-01 0.14051300E+03</pdfrwt>
<pdfrwt beam="2">  1       21 0.48376103E-01 0.14051300E+03</pdfrwt>
<totfact> 0.25764360E+05</totfact>
</mgrwt>
</event>
<event>
 5    1  0.1959123E+000  0.8365802E+02  0.7546771E-02  0.1318980E+00
         21   -1    0    0  501  502  0.00000000000E+00  0.00000000000E+00  0.17606000076E+03  0.17606000076E+03  0.00000000000E+00 0.  1.
         21   -1    0    0  502  503 -0.00000000000E+00 -0.00000000000E+00 -0.44483292095E+02  0.44483292095E+02  0.00000000000E+00 0.  1.
         24    1    1    2    0    0 -0.34329338755E+02 -0.21719675078E+02  0.10542273094E+03  0.13867738077E+03  0.80419002446E+02 0.  1.
          1    1    1    2  501    0  0.15042157055E+02 -0.23588529646E+02  0.13279198290E+02  0.30968085620E+02  0.00000000000E+00 0. -1.
         -2    1    1    2    0  503  0.19287181700E+02  0.45308204724E+02  0.12874779440E+02  0.50897826465E+02  0.00000000000E+00 0.  1.
<mgrwt>
<rscale>  2 0.83658016E+02</rscale>
<asrwt>0</asrwt>
<pdfrwt beam="1">  1       21 0.27086154E-01 0.83658016E+02</pdfrwt>
<pdfrwt beam="2">  1       21 0.68435835E-02 0.83658016E+02</pdfrwt>
<totfact> 0.20020109E+06</totfact>
</mgrwt>
</event>
<event>
 5    1  0.1959123E+000  0.9410208E+02  0.7546771E-02  0.1293211E+00
         21   -1    0    0  503  502  0.00000000000E+00  0.00000000000E+00  0.20834002435E+03  0.20834002435E+03  0.00000000000E+00 0.  1.
         21   -1    0    0  501  503 -0.00000000000E+00 -0.00000000000E+00 -0.61815188313E+02  0.61815188313E+02  0.00000000000E+00 0.  1.
         24    1    1    2    0    0 -0.46483264117E+02 -0.36432820026E+02  0.15088868373E+03  0.18089404371E+03  0.80419002446E+02 0.  1.
          1    1    1    2  501    0 -0.64676677069E+01  0.34858870568E+02 -0.73310691268E+01  0.36203814128E+02  0.00000000000E+00 0. -1.
         -2    1    1    2    0  502  0.52950931824E+02  0.15739494580E+01  0.29672214354E+01  0.53057354825E+02  0.00000000000E+00 0.  1.
<mgrwt>
<rscale>  2 0.94102082E+02</rscale>
<asrwt>0</asrwt>
<pdfrwt beam="1">  1       21 0.32052311E-01 0.94102082E+02</pdfrwt>
<pdfrwt beam="2">  1       21 0.95100291E-02 0.94102082E+02</pdfrwt>
<totfact> 0.83070689E+05</totfact>
</mgrwt>
</event>
<event>
 5    1  0.1959123E+000  0.1085025E+03  0.7546771E-02  0.1263368E+00
         21   -1    0    0  501  502  0.00000000000E+00  0.00000000000E+00  0.47842538025E+03  0.47842538025E+03  0.00000000000E+00 0. -1.
         21   -1    0    0  502  503 -0.00000000000E+00 -0.00000000000E+00 -0.34607480067E+02  0.34607480067E+02  0.00000000000E+00 0.  1.
         24    1    1    2    0    0 -0.15648956201E+02  0.68767321532E+02  0.13318292630E+03  0.17081786251E+03  0.80419002446E+02 0.  1.
          1    1    1    2  501    0  0.47858394902E+02 -0.59829007715E+02  0.29594747195E+03  0.30570384734E+03  0.00000000000E+00 0. -1.
         -2    1    1    2    0  503 -0.32209438701E+02 -0.89383138166E+01  0.14687501939E+02  0.36511150469E+02  0.00000000000E+00 0.  1.
<mgrwt>
<rscale>  2 0.10850251E+03</rscale>
<asrwt>0</asrwt>
<pdfrwt beam="1">  1       21 0.73603900E-01 0.10850251E+03</pdfrwt>
<pdfrwt beam="2">  1       21 0.53242281E-02 0.10850251E+03</pdfrwt>
<totfact> 0.40691606E+05</totfact>
</mgrwt>
</event>
<event>
 5    1  0.1959123E+000  0.1613110E+03  0.7546771E-02  0.1187225E+00
         21   -1    0    0  501  502  0.00000000000E+00  0.00000000000E+00  0.21169702259E+03  0.21169702259E+03  0.00000000000E+00 0.  1.
         21   -1    0    0  502  503 -0.00000000000E+00 -0.00000000000E+00 -0.15439855658E+03  0.15439855658E+03  0.00000000000E+00 0.  1.
         24    1    1    2    0    0  0.57122653348E+02  0.13723917749E+03  0.94554845325E+02  0.19366317175E+03  0.80419002446E+02 0.  1.
          1    1    1    2  501    0 -0.23285168642E+02 -0.17350853093E+02  0.20073434816E+02  0.35301472591E+02  0.00000000000E+00 0. -1.
         -2    1    1    2    0  503 -0.33837484706E+02 -0.11988832440E+03 -0.57329814129E+02  0.13713093482E+03  0.00000000000E+00 0.  1.
<mgrwt>
<rscale>  2 0.16131103E+03</rscale>
<asrwt>0</asrwt>
<pdfrwt beam="1">  1       21 0.32568773E-01 0.16131103E+03</pdfrwt>
<pdfrwt beam="2">  1       21 0.23753624E-01 0.16131103E+03</pdfrwt>
<totfact> 0.15306284E+05</totfact>
</mgrwt>
</event>
<event>
 5    1  0.1959123E+000  0.7517098E+02  0.7546771E-02  0.1343342E+00
         21   -1    0    0  501  502  0.00000000000E+00  0.00000000000E+00  0.10081764536E+02  0.10081764536E+02  0.00000000000E+00 0. -1.
         21   -1    0    0  502  503 -0.00000000000E+00 -0.00000000000E+00 -0.68166443013E+03  0.68166443013E+03  0.00000000000E+00 0. -1.
         24    1    1    2    0    0  0.29966815228E+02  0.20789105552E+02 -0.31467043384E+03  0.32682548066E+03  0.80419002446E+02 0.  0.
          1    1    1    2  501    0 -0.10513074632E+02 -0.35898902305E+02 -0.98939873380E+02  0.10577501817E+03  0.00000000000E+00 0. -1.
         -2    1    1    2    0  503 -0.19453740596E+02  0.15109796752E+02 -0.25797235838E+03  0.25914569584E+03  0.00000000000E+00 0.  1.
<mgrwt>
<rscale>  2 0.75170983E+02</rscale>
<asrwt>0</asrwt>
<pdfrwt beam="1">  1       21 0.15510409E-02 0.75170983E+02</pdfrwt>
<pdfrwt beam="2">  1       21 0.10487144E+00 0.75170983E+02</pdfrwt>
<totfact> 0.13579088E+06</totfact>
</mgrwt>
</event>
<event>
 5    1  0.1959123E+000  0.1113140E+03  0.7546771E-02  0.1258156E+00
         21   -1    0    0  503  502  0.00000000000E+00  0.00000000000E+00  0.87095574463E+03  0.87095574463E+03  0.00000000000E+00 0. -1.
         21   -1    0    0  501  503 -0.00000000000E+00 -0.00000000000E+00 -0.25700352663E+02  0.25700352663E+02  0.00000000000E+00 0.  1.
         24    1    1    2    0    0 -0.37133212488E+02 -0.80572699215E+02  0.73334474048E+03  0.74305622915E+03  0.80419002446E+02 0. -1.
          1    1    1    2  501    0  0.21456812771E+02  0.67725234792E+00  0.11586332599E+02  0.24394601619E+02  0.00000000000E+00 0. -1.
         -2    1    1    2    0  502  0.15676399717E+02  0.79895446868E+02  0.10032431889E+03  0.12920526653E+03  0.00000000000E+00 0.  1.
<mgrwt>
<rscale>  2 0.11131398E+03</rscale>
<asrwt>0</asrwt>
<pdfrwt beam="1">  1       21 0.13399317E+00 0.11131398E+03</pdfrwt>
<pdfrwt beam="2">  1       21 0.39539011E-02 0.11131398E+03</pdfrwt>
<totfact> 0.16536608E+05</totfact>
</mgrwt>
</event>
<event>
 5    1  0.1959123E+000  0.9146139E+02  0.7546771E-02  0.1299351E+00
         21   -1    0    0  503  502  0.00000000000E+00  0.00000000000E+00  0.25942581083E+03  0.25942581083E+03  0.00000000000E+00 0.  1.
         21   -1    0    0  501  503 -0.00000000000E+00 -0.00000000000E+00 -0.67079815768E+02  0.67079815768E+02  0.00000000000E+00 0.  1.
         24    1    1    2    0    0 -0.77120760589E+01  0.46840204480E+02  0.26631074797E+01  0.93422636276E+02  0.80419002446E+02 0.  1.
          1    1    1    2  501    0  0.37843563865E+02 -0.52886384004E+01  0.17328288063E+01  0.38250591078E+02  0.00000000000E+00 0. -1.
         -2    1    1    2    0  502 -0.30131487806E+02 -0.41551566079E+02  0.18795005878E+03  0.19483239925E+03  0.00000000000E+00 0.  1.
<mgrwt>
<rscale>  2 0.91461390E+02</rscale>
<asrwt>0</asrwt>
<pdfrwt beam="1">  1       21 0.39911663E-01 0.91461390E+02</pdfrwt>
<pdfrwt beam="2">  1       21 0.10319972E-01 0.91461390E+02</pdfrwt>
<totfact> 0.46990268E+05</totfact>
</mgrwt>
</event>
<event>
 5    1  0.1959123E+000  0.1251119E+03  0.7546771E-02  0.1234894E+00
         21   -1    0    0  501  502  0.00000000000E+00  0.00000000000E+00  0.10839021163E+03  0.10839021163E+03  0.00000000000E+00 0. -1.
         21   -1    0    0  502  503 -0.00000000000E+00 -0.00000000000E+00 -0.20387310712E+03  0.20387310712E+03  0.00000000000E+00 0.  1.
         24    1    1    2    0    0 -0.58327336800E+02  0.93658250401E+02 -0.81114975242E+02  0.15881058293E+03  0.80419002446E+02 0.  1.
          1    1    1    2  501    0  0.19860871870E+02 -0.11441479878E+02  0.41112198491E+02  0.47069890142E+02  0.00000000000E+00 0. -1.
         -2    1    1    2    0  503  0.38466464929E+02 -0.82216770524E+02 -0.55480118746E+02  0.10638284568E+03  0.00000000000E+00 0.  1.
<mgrwt>
<rscale>  2 0.12511191E+03</rscale>
<asrwt>0</asrwt>
<pdfrwt beam="1">  1       21 0.16675417E-01 0.12511191E+03</pdfrwt>
<pdfrwt beam="2">  1       21 0.31365093E-01 0.12511191E+03</pdfrwt>
<totfact> 0.31995553E+05</totfact>
</mgrwt>
</event>
<event>
 5    1  0.1959123E+000  0.6982505E+02  0.7546771E-02  0.1360689E+00
         21   -1    0    0  503  502  0.00000000000E+00  0.00000000000E+00  0.27128917877E+02  0.27128917877E+02  0.00000000000E+00 0.  1.
         21   -1    0    0  501  503 -0.00000000000E+00 -0.00000000000E+00 -0.36425802629E+03  0.36425802629E+03  0.00000000000E+00 0. -1.
         24    1    1    2    0    0 -0.39085145613E+02 -0.16185392824E+02 -0.30072897773E+03  0.31415720516E+03  0.80419002446E+02 0. -1.
          1    1    1    2  501    0  0.16907916933E+02  0.20097030378E+02 -0.45824901495E+02  0.52817514917E+02  0.00000000000E+00 0. -1.
         -2    1    1    2    0  502  0.22177228680E+02 -0.39116375536E+01  0.94247708153E+01  0.24412224094E+02  0.00000000000E+00 0.  1.
<mgrwt>
<rscale>  2 0.69825052E+02</rscale>
<asrwt>0</asrwt>
<pdfrwt beam="1">  1       21 0.41736799E-02 0.69825052E+02</pdfrwt>
<pdfrwt beam="2">  1       21 0.56039693E-01 0.69825052E+02</pdfrwt>
<totfact> 0.10846032E+06</totfact>
</mgrwt>
</event>
<event>
 5    1  0.1959123E+000  0.9304700E+02  0.7546771E-02  0.1295636E+00
         21   -1    0    0  501  502  0.00000000000E+00  0.00000000000E+00  0.21669200408E+02  0.21669200408E+02  0.00000000000E+00 0. -1.
         21   -1    0    0  502  503 -0.00000000000E+00 -0.00000000000E+00 -0.19741722484E+04  0.19741722484E+04  0.00000000000E+00 0. -1.
         24    1    1    2    0    0 -0.38896942298E+02  0.59267667389E+02 -0.18839052679E+04  0.18869530739E+04  0.80419002446E+02 0. -1.
          1    1    1    2  501    0  0.11625235852E+02 -0.47989604549E+02 -0.22756930554E+02  0.54369349285E+02  0.00000000000E+00 0. -1.
         -2    1    1    2    0  503  0.27271706446E+02 -0.11278062840E+02 -0.45840849505E+02  0.54519025645E+02  0.00000000000E+00 0.  1.
<mgrwt>
<rscale>  2 0.93046999E+02</rscale>
<asrwt>0</asrwt>
<pdfrwt beam="1">  1       21 0.33337238E-02 0.93046999E+02</pdfrwt>
<pdfrwt beam="2">  1       21 0.30371875E+00 0.93046999E+02</pdfrwt>
<totfact> 0.19762340E+04</totfact>
</mgrwt>
</event>
<event>
 5    1  0.1959123E+000  0.7013581E+02  0.7546771E-02  0.1359632E+00
         21   -1    0    0  503  502  0.00000000000E+00  0.00000000000E+00  0.94594129248E+02  0.94594129248E+02  0.00000000000E+00 0.  1.
         21   -1    0    0  501  503 -0.00000000000E+00 -0.00000000000E+00 -0.87189333778E+02  0.87189333778E+02  0.00000000000E+00 0.  1.
         24    1    1    2    0    0 -0.20222341001E+02  0.72951600704E+01 -0.30934191463E+02  0.88804856803E+02  0.80419002446E+02 0.  1.
          1    1    1    2  501    0  0.23465607685E+02  0.19210002357E+02 -0.14621790488E+02  0.33666833704E+02  0.00000000000E+00 0. -1.
         -2    1    1    2    0  502 -0.32432666843E+01 -0.26505162428E+02  0.52960777422E+02  0.59311772518E+02  0.00000000000E+00 0.  1.
<mgrwt>
<rscale>  2 0.70135810E+02</rscale>
<asrwt>0</asrwt>
<pdfrwt beam="1">  1       21 0.14552943E-01 0.70135810E+02</pdfrwt>
<pdfrwt beam="2">  1       21 0.13413744E-01 0.70135810E+02</pdfrwt>
<totfact> 0.19349723E+06</totfact>
</mgrwt>
</event>
<event>
 5    1  0.1959123E+000  0.7505628E+02  0.7546771E-02  0.1343697E+00
         21   -1    0    0  501  502  0.00000000000E+00  0.00000000000E+00  0.28331761764E+03  0.28331761764E+03  0.00000000000E+00 0. -1.
         21   -1    0    0  502  503 -0.00000000000E+00 -0.00000000000E+00 -0.55418013234E+02  0.55418013234E+02  0.00000000000E+00 0.  1.
         24    1    1    2    0    0 -0.19656265575E+01  0.19647654862E+02  0.15258422009E+03  0.17360603159E+03  0.80419002446E+02 0.  0.
          1    1    1    2  501    0 -0.29217654200E+02 -0.21175428368E+02  0.11158441959E+03  0.11727383672E+03  0.00000000000E+00 0. -1.
         -2    1    1    2    0  503  0.31183280757E+02  0.15277735062E+01 -0.36269035276E+02  0.47855762564E+02  0.00000000000E+00 0.  1.
<mgrwt>
<rscale>  2 0.75056280E+02</rscale>
<asrwt>0</asrwt>
<pdfrwt beam="1">  1       21 0.43587325E-01 0.75056280E+02</pdfrwt>
<pdfrwt beam="2">  1       21 0.85258483E-02 0.75056280E+02</pdfrwt>
<totfact> 0.54790963E+05</totfact>
</mgrwt>
</event>
<event>
 5    1  0.1959123E+000  0.7187377E+02  0.7546771E-02  0.1353835E+00
         21   -1    0    0  503  502  0.00000000000E+00  0.00000000000E+00  0.19836600996E+04  0.19836600996E+04  0.00000000000E+00 0.  1.
         21   -1    0    0  501  503 -0.00000000000E+00 -0.00000000000E+00 -0.26611416389E+01  0.26611416389E+01  0.00000000000E+00 0. -1.
         24    1    1    2    0    0  0.38718395028E+02  0.20795015125E+02  0.11194288553E+04  0.11231739513E+04  0.80419002446E+02 0.  0.
          1    1    1    2  501    0 -0.28580916266E+02  0.42666167394E+00  0.45326130296E+03  0.45416171082E+03  0.00000000000E+00 0. -1.
         -2    1    1    2    0  502 -0.10137478761E+02 -0.21221676799E+02  0.40830879970E+03  0.40898557916E+03  0.00000000000E+00 0.  1.
<mgrwt>
<rscale>  2 0.71873769E+02</rscale>
<asrwt>0</asrwt>
<pdfrwt beam="1">  1       21 0.30517730E+00 0.71873769E+02</pdfrwt>
<pdfrwt beam="2">  1       21 0.40940799E-03 0.71873769E+02</pdfrwt>
<totfact> 0.54141926E+05</totfact>
</mgrwt>
</event>
<event>
 5    1  0.1959123E+000  0.8622465E+02  0.7546771E-02  0.1312261E+00
         21   -1    0    0  503  502  0.00000000000E+00  0.00000000000E+00  0.16872267902E+03  0.16872267902E+03  0.00000000000E+00 0. -1.
         21   -1    0    0  501  503 -0.00000000000E+00 -0.00000000000E+00 -0.46200607529E+02  0.46200607529E+02  0.00000000000E+00 0.  1.
         24    1    1    2    0    0 -0.59373054771E+02 -0.25648785313E+02  0.91528326582E+02  0.13794082188E+03  0.80419002446E+02 0.  0.
          1    1    1    2  501    0  0.30419914254E+02  0.26412122014E+02  0.10909995091E+02  0.41737265907E+02  0.00000000000E+00 0. -1.
         -2    1    1    2    0  502  0.28953140516E+02 -0.76333670125E+00  0.20083749817E+02  0.35245198757E+02  0.00000000000E+00 0.  1.
<mgrwt>
<rscale>  2 0.86224650E+02</rscale>
<asrwt>0</asrwt>
<pdfrwt beam="1">  1       21 0.25957335E-01 0.86224650E+02</pdfrwt>
<pdfrwt beam="2">  1       21 0.71077859E-02 0.86224650E+02</pdfrwt>
<totfact> 0.20366987E+06</totfact>
</mgrwt>
</event>
<event>
 5    1  0.1959123E+000  0.1113498E+03  0.7546771E-02  0.1258091E+00
         21   -1    0    0  503  502  0.00000000000E+00  0.00000000000E+00  0.15296525593E+04  0.15296525593E+04  0.00000000000E+00 0.  1.
         21   -1    0    0  501  503 -0.00000000000E+00 -0.00000000000E+00 -0.11966426725E+02  0.11966426725E+02  0.00000000000E+00 0.  1.
         24    1    1    2    0    0  0.89729681170E+02 -0.98953117184E+01  0.41738668030E+03  0.43454365687E+03  0.80419002446E+02 0.  1.
          1    1    1    2  501    0 -0.45745833883E+02  0.28659030703E+02  0.26685495048E+03  0.27226014390E+03  0.00000000000E+00 0. -1.
         -2    1    1    2    0  502 -0.43983847287E+02 -0.18763718985E+02  0.83344450177E+03  0.83481518524E+03  0.00000000000E+00 0.  1.
<mgrwt>
<rscale>  2 0.11134979E+03</rscale>
<asrwt>0</asrwt>
<pdfrwt beam="1">  1       21 0.23533101E+00 0.11134979E+03</pdfrwt>
<pdfrwt beam="2">  1       21 0.18409899E-02 0.11134979E+03</pdfrwt>
<totfact> 0.12139911E+05</totfact>
</mgrwt>
</event>
<event>
 5    1  0.2981525E+000  0.7294517E+02  0.7546771E-02  0.1350355E+00
         21   -1    0    0  501  502  0.00000000000E+00  0.00000000000E+00  0.96188253477E+02  0.96188253477E+02  0.00000000000E+00 0. -1.
         21   -1    0    0  502  503 -0.00000000000E+00 -0.00000000000E+00 -0.96799794413E+03  0.96799794413E+03  0.00000000000E+00 0.  1.
         24    1    1    2    0    0 -0.32579875231E+02 -0.34597034364E+02  0.63363266574E+02  0.11287392330E+03  0.80419002446E+02 0. -1.
          1    1    1    2  501    0  0.92747287166E+01  0.26057523529E+02 -0.16300895622E+02  0.32105051367E+02  0.00000000000E+00 0. -1.
         -2    1    1    2    0  503  0.23305146514E+02  0.85395108357E+01 -0.91887206160E+03  0.91920722293E+03  0.00000000000E+00 0.  1.
<mgrwt>
<rscale>  2 0.72945173E+02</rscale>
<asrwt>0</asrwt>
<pdfrwt beam="1">  1       21 0.14798193E-01 0.72945173E+02</pdfrwt>
<pdfrwt beam="2">  1       21 0.14892275E+00 0.72945173E+02</pdfrwt>
<totfact> 0.13817065E+04</totfact>
</mgrwt>
</event>
<event>
 5    1  0.1959123E+000  0.7068912E+02  0.7546771E-02  0.1357765E+00
         21   -1    0    0  501  502  0.00000000000E+00  0.00000000000E+00  0.54211656040E+02  0.54211656040E+02  0.00000000000E+00 0. -1.
         21   -1    0    0  502  503 -0.00000000000E+00 -0.00000000000E+00 -0.24989208563E+03  0.24989208563E+03  0.00000000000E+00 0.  1.
         24    1    1    2    0    0  0.26268596024E+02 -0.25797410265E+01 -0.68084393897E+02  0.10862501944E+03  0.80419002446E+02 0.  1.
          1    1    1    2  501    0 -0.40759532258E+01 -0.22720951945E+02  0.27997778322E+02  0.36286783309E+02  0.00000000000E+00 0. -1.
         -2    1    1    2    0  503 -0.22192642798E+02  0.25300692972E+02 -0.15559381402E+03  0.15919193893E+03  0.00000000000E+00 0.  1.
<mgrwt>
<rscale>  2 0.70689116E+02</rscale>
<asrwt>0</asrwt>
<pdfrwt beam="1">  1       21 0.83402546E-02 0.70689116E+02</pdfrwt>
<pdfrwt beam="2">  1       21 0.38444937E-01 0.70689116E+02</pdfrwt>
<totfact> 0.72804882E+05</totfact>
</mgrwt>
</event>
<event>
 5    1  0.1959123E+000  0.1213923E+03  0.7546771E-02  0.1240818E+00
         21   -1    0    0  501  502  0.00000000000E+00  0.00000000000E+00  0.69176696719E+02  0.69176696719E+02  0.00000000000E+00 0. -1.
         21   -1    0    0  502  503 -0.00000000000E+00 -0.00000000000E+00 -0.25033346459E+03  0.25033346459E+03  0.00000000000E+00 0. -1.
         24    1    1    2    0    0 -0.37537299948E+02  0.65950829579E+02 -0.97669935707E+02  0.14753031250E+03  0.80419002446E+02 0. -1.
          1    1    1    2  501    0  0.75653382790E+02 -0.36233841249E+02 -0.10635785370E+02  0.84554393793E+02  0.00000000000E+00 0. -1.
         -2    1    1    2    0  503 -0.38116082842E+02 -0.29716988329E+02 -0.72851046795E+02  0.87425455022E+02  0.00000000000E+00 0.  1.
<mgrwt>
<rscale>  2 0.12139228E+03</rscale>
<asrwt>0</asrwt>
<pdfrwt beam="1">  1       21 0.10642569E-01 0.12139228E+03</pdfrwt>
<pdfrwt beam="2">  1       21 0.38512841E-01 0.12139228E+03</pdfrwt>
<totfact> 0.47695239E+05</totfact>
</mgrwt>
</event>
<event>
 5    1  0.1959123E+000  0.1324297E+03  0.7546771E-02  0.1223894E+00
         21   -1    0    0  501  502  0.00000000000E+00  0.00000000000E+00  0.13211992480E+03  0.13211992480E+03  0.00000000000E+00 0.  1.
         21   -1    0    0  502  503 -0.00000000000E+00 -0.00000000000E+00 -0.16432950860E+03  0.16432950860E+03  0.00000000000E+00 0.  1.
         24    1    1    2    0    0  0.49660620323E+02 -0.69158368757E+02 -0.73177604257E+02  0.13809864192E+03  0.80419002446E+02 0.  1.
          1    1    1    2  501    0  0.39086387605E+01 -0.32553061279E+02  0.27147117830E+02  0.42566950350E+02  0.00000000000E+00 0. -1.
         -2    1    1    2    0  503 -0.53569259083E+02  0.10171143004E+03  0.13820902633E+02  0.11578384114E+03  0.00000000000E+00 0.  1.
<mgrwt>
<rscale>  2 0.13242968E+03</rscale>
<asrwt>0</asrwt>
<pdfrwt beam="1">  1       21 0.20326142E-01 0.13242968E+03</pdfrwt>
<pdfrwt beam="2">  1       21 0.25281463E-01 0.13242968E+03</pdfrwt>
<totfact> 0.33589262E+05</totfact>
</mgrwt>
</event>
<event>
 5    1  0.1959123E+000  0.1176695E+03  0.7546771E-02  0.1246992E+00
         21   -1    0    0  501  502  0.00000000000E+00  0.00000000000E+00  0.28889576262E+03  0.28889576262E+03  0.00000000000E+00 0. -1.
         21   -1    0    0  502  503 -0.00000000000E+00 -0.00000000000E+00 -0.99772083366E+02  0.99772083366E+02  0.00000000000E+00 0.  1.
         24    1    1    2    0    0  0.52147321233E+02 -0.36947151769E+02  0.99040773838E+02  0.14269101574E+03  0.80419002446E+02 0.  1.
          1    1    1    2  501    0 -0.83599351184E+02 -0.64703330944E+00  0.14807471508E+03  0.17004526284E+03  0.00000000000E+00 0. -1.
         -2    1    1    2    0  503  0.31452029951E+02  0.37594185078E+02 -0.57991809664E+02  0.75931567400E+02  0.00000000000E+00 0.  1.
<mgrwt>
<rscale>  2 0.11766946E+03</rscale>
<asrwt>0</asrwt>
<pdfrwt beam="1">  1       21 0.44445502E-01 0.11766946E+03</pdfrwt>
<pdfrwt beam="2">  1       21 0.15349551E-01 0.11766946E+03</pdfrwt>
<totfact> 0.18683063E+05</totfact>
</mgrwt>
</event>
<event>
 5    1  0.2369331E+000  0.7098594E+02  0.7546771E-02  0.1356772E+00
         21   -1    0    0  501  502  0.00000000000E+00  0.00000000000E+00  0.32930745427E+03  0.32930745427E+03  0.00000000000E+00 0. -1.
         21   -1    0    0  502  503 -0.00000000000E+00 -0.00000000000E+00 -0.13609235095E+03  0.13609235095E+03  0.00000000000E+00 0.  1.
         24    1    1    2    0    0  0.14697965843E+02  0.75838964158E+01  0.18253719120E+03  0.20015141221E+03  0.80419002446E+02 0.  0.
          1    1    1    2  501    0  0.13840330471E+02  0.17196444736E+02  0.13423599640E+03  0.13603887381E+03  0.00000000000E+00 0. -1.
         -2    1    1    2    0  503 -0.28538296314E+02 -0.24780341152E+02 -0.12355808427E+03  0.12920951920E+03  0.00000000000E+00 0.  1.
<mgrwt>
<rscale>  2 0.70985944E+02</rscale>
<asrwt>0</asrwt>
<pdfrwt beam="1">  1       21 0.50662685E-01 0.70985944E+02</pdfrwt>
<pdfrwt beam="2">  1       21 0.20937285E-01 0.70985944E+02</pdfrwt>
<totfact> 0.83341207E+04</totfact>
</mgrwt>
</event>
<event>
 5    1  0.1959123E+000  0.9464684E+02  0.7546771E-02  0.1291973E+00
         21   -1    0    0  503  502  0.00000000000E+00  0.00000000000E+00  0.11858035748E+02  0.11858035748E+02  0.00000000000E+00 0. -1.
         21   -1    0    0  501  503 -0.00000000000E+00 -0.00000000000E+00 -0.16753611284E+04  0.16753611284E+04  0.00000000000E+00 0. -1.
         24    1    1    2    0    0  0.75153638337E+02  0.13101850513E+02 -0.40046804686E+03  0.41552569156E+03  0.80419002446E+02 0.  0.
          1    1    1    2  501    0 -0.35329989194E+02  0.30744934061E+01 -0.11532291258E+04  0.11537742749E+04  0.00000000000E+00 0. -1.
         -2    1    1    2    0  502 -0.39823649143E+02 -0.16176343919E+02 -0.10980591993E+03  0.11791919769E+03  0.00000000000E+00 0.  1.
<mgrwt>
<rscale>  2 0.94646842E+02</rscale>
<asrwt>0</asrwt>
<pdfrwt beam="1">  1       21 0.18243140E-02 0.94646842E+02</pdfrwt>
<pdfrwt beam="2">  1       21 0.25774775E+00 0.94646842E+02</pdfrwt>
<totfact> 0.93547902E+04</totfact>
</mgrwt>
</event>
<event>
 5    1  0.1959123E+000  0.9304082E+02  0.7546771E-02  0.1295651E+00
         21   -1    0    0  501  502  0.00000000000E+00  0.00000000000E+00  0.50514318194E+02  0.50514318194E+02  0.00000000000E+00 0. -1.
         21   -1    0    0  502  503 -0.00000000000E+00 -0.00000000000E+00 -0.40848902062E+03  0.40848902062E+03  0.00000000000E+00 0.  1.
         24    1    1    2    0    0  0.25185677180E+02  0.22891596450E+02 -0.97655635993E+02  0.13100451412E+03  0.80419002446E+02 0. -1.
          1    1    1    2  501    0 -0.58455831698E+02 -0.28474012507E+02  0.48320944497E+00  0.65023742887E+02  0.00000000000E+00 0. -1.
         -2    1    1    2    0  503  0.33270154518E+02  0.55824160567E+01 -0.26080227588E+03  0.26297508181E+03  0.00000000000E+00 0.  1.
<mgrwt>
<rscale>  2 0.93040819E+02</rscale>
<asrwt>0</asrwt>
<pdfrwt beam="1">  1       21 0.77714334E-02 0.93040819E+02</pdfrwt>
<pdfrwt beam="2">  1       21 0.62844466E-01 0.93040819E+02</pdfrwt>
<totfact> 0.30241258E+05</totfact>
</mgrwt>
</event>
<event>
 5    1  0.1959123E+000  0.7807648E+02  0.7546771E-02  0.1334600E+00
         21   -1    0    0  503  502  0.00000000000E+00  0.00000000000E+00  0.26576339349E+03  0.26576339349E+03  0.00000000000E+00 0. -1.
         21   -1    0    0  501  503 -0.00000000000E+00 -0.00000000000E+00 -0.25834913229E+02  0.25834913229E+02  0.00000000000E+00 0.  1.
         24    1    1    2    0    0 -0.30806872787E+02 -0.76186163546E+01  0.17625430571E+03  0.19631582453E+03  0.80419002446E+02 0. -1.
          1    1    1    2  501    0 -0.12363613386E+02  0.21114483666E+02  0.14376687301E+02  0.28379032651E+02  0.00000000000E+00 0. -1.
         -2    1    1    2    0  502  0.43170486172E+02 -0.13495867312E+02  0.49297487256E+02  0.66903449542E+02  0.00000000000E+00 0.  1.
<mgrwt>
<rscale>  2 0.78076478E+02</rscale>
<asrwt>0</asrwt>
<pdfrwt beam="1">  1       21 0.40886674E-01 0.78076478E+02</pdfrwt>
<pdfrwt beam="2">  1       21 0.39746022E-02 0.78076478E+02</pdfrwt>
<totfact> 0.22284543E+06</totfact>
</mgrwt>
</event>
<event>
 5    1  0.1959123E+000  0.6433697E+02  0.7546771E-02  0.1380483E+00
         21   -1    0    0  503  502  0.00000000000E+00  0.00000000000E+00  0.49311234114E+03  0.49311234114E+03  0.00000000000E+00 0. -1.
         21   -1    0    0  501  503 -0.00000000000E+00 -0.00000000000E+00 -0.15743391065E+02  0.15743391065E+02  0.00000000000E+00 0. -1.
         24    1    1    2    0    0 -0.25097681268E+02 -0.13748216540E+02  0.40399513982E+03  0.41291427199E+03  0.80419002446E+02 0. -1.
          1    1    1    2  501    0  0.33865541994E+01  0.20344228538E+02  0.16227388975E+01  0.20687911100E+02  0.00000000000E+00 0. -1.
         -2    1    1    2    0  502  0.21711127068E+02 -0.65960119978E+01  0.71751071355E+02  0.75253549108E+02  0.00000000000E+00 0.  1.
<mgrwt>
<rscale>  2 0.64336968E+02</rscale>
<asrwt>0</asrwt>
<pdfrwt beam="1">  1       21 0.75863425E-01 0.64336968E+02</pdfrwt>
<pdfrwt beam="2">  1       21 0.24220605E-02 0.64336968E+02</pdfrwt>
<totfact> 0.13759650E+06</totfact>
</mgrwt>
</event>
<event>
 5    1  0.1959123E+000  0.9450148E+02  0.7546771E-02  0.1292303E+00
         21   -1    0    0  503  502  0.00000000000E+00  0.00000000000E+00  0.89273482606E+02  0.89273482606E+02  0.00000000000E+00 0. -1.
         21   -1    0    0  501  503 -0.00000000000E+00 -0.00000000000E+00 -0.23860955017E+03  0.23860955017E+03  0.00000000000E+00 0. -1.
         24    1    1    2    0    0 -0.62812462530E+02  0.97475254418E+01  0.30843340542E+02  0.10704647267E+03  0.80419002446E+02 0. -1.
          1    1    1    2  501    0  0.57953010483E+02 -0.30286787725E+02 -0.18743830723E+03  0.19851690092E+03  0.00000000000E+00 0. -1.
         -2    1    1    2    0  502  0.48594520469E+01  0.20539262283E+02  0.72588991274E+01  0.22319659179E+02  0.00000000000E+00 0.  1.
<mgrwt>
<rscale>  2 0.94501483E+02</rscale>
<asrwt>0</asrwt>
<pdfrwt beam="1">  1       21 0.13734382E-01 0.94501483E+02</pdfrwt>
<pdfrwt beam="2">  1       21 0.36709162E-01 0.94501483E+02</pdfrwt>
<totfact> 0.33532271E+05</totfact>
</mgrwt>
</event>
<event>
 5    1  0.1959123E+000  0.6537694E+02  0.7546771E-02  0.1376559E+00
         21   -1    0    0  503  502  0.00000000000E+00  0.00000000000E+00  0.81349775383E+03  0.81349775383E+03  0.00000000000E+00 0. -1.
         21   -1    0    0  501  503 -0.00000000000E+00 -0.00000000000E+00 -0.20016816056E+02  0.20016816056E+02  0.00000000000E+00 0. -1.
         24    1    1    2    0    0  0.23607574629E+02  0.66699291695E+01  0.28314146559E+03  0.29536098426E+03  0.80419002446E+02 0. -1.
          1    1    1    2  501    0 -0.72090999714E+01 -0.22655945326E+02 -0.33005668386E+01  0.24003264829E+02  0.00000000000E+00 0. -1.
         -2    1    1    2    0  502 -0.16398474658E+02  0.15986016157E+02  0.51364003903E+03  0.51415032080E+03  0.00000000000E+00 0.  1.
<mgrwt>
<rscale>  2 0.65376942E+02</rscale>
<asrwt>0</asrwt>
<pdfrwt beam="1">  1       21 0.12515348E+00 0.65376942E+02</pdfrwt>
<pdfrwt beam="2">  1       21 0.30795108E-02 0.65376942E+02</pdfrwt>
<totfact> 0.29970542E+05</totfact>
</mgrwt>
</event>
<event>
 5    1  0.1959123E+000  0.8819639E+02  0.7546771E-02  0.1307279E+00
         21   -1    0    0  501  502  0.00000000000E+00  0.00000000000E+00  0.13896823035E+02  0.13896823035E+02  0.00000000000E+00 0. -1.
         21   -1    0    0  502  503 -0.00000000000E+00 -0.00000000000E+00 -0.20183515522E+04  0.20183515522E+04  0.00000000000E+00 0.  1.
         24    1    1    2    0    0  0.49594945269E+02 -0.29171378377E+02 -0.63392275003E+03  0.64158857290E+03  0.80419002446E+02 0.  1.
          1    1    1    2  501    0 -0.14056116082E+02 -0.15172016771E+02 -0.18131577855E+01  0.20761792634E+02  0.00000000000E+00 0. -1.
         -2    1    1    2    0  503 -0.35538829187E+02  0.44343395149E+02 -0.13687188214E+04  0.13698980097E+04  0.00000000000E+00 0.  1.
<mgrwt>
<rscale>  2 0.88196388E+02</rscale>
<asrwt>0</asrwt>
<pdfrwt beam="1">  1       21 0.21379723E-02 0.88196388E+02</pdfrwt>
<pdfrwt beam="2">  1       21 0.31051569E+00 0.88196388E+02</pdfrwt>
<totfact> 0.37574539E+04</totfact>
</mgrwt>
</event>
<event>
 5    1  0.1959123E+000  0.8211248E+02  0.7546771E-02  0.1323161E+00
         21   -1    0    0  503  502  0.00000000000E+00  0.00000000000E+00  0.25344152764E+02  0.25344152764E+02  0.00000000000E+00 0.  1.
         21   -1    0    0  501  503 -0.00000000000E+00 -0.00000000000E+00 -0.53728105661E+03  0.53728105661E+03  0.00000000000E+00 0. -1.
         24    1    1    2    0    0 -0.35619990317E+02 -0.25614196254E+01 -0.16559699920E+03  0.18752313638E+03  0.80419002446E+02 0.  1.
          1    1    1    2  501    0  0.36757085746E+02 -0.27652884644E+02 -0.34137681785E+03  0.34446174990E+03  0.00000000000E+00 0. -1.
         -2    1    1    2    0  502 -0.11370954286E+01  0.30214304269E+02 -0.49630868014E+01  0.30640323091E+02  0.00000000000E+00 0.  1.
<mgrwt>
<rscale>  2 0.82112482E+02</rscale>
<asrwt>0</asrwt>
<pdfrwt beam="1">  1       21 0.38991009E-02 0.82112482E+02</pdfrwt>
<pdfrwt beam="2">  1       21 0.82658615E-01 0.82112482E+02</pdfrwt>
<totfact> 0.52972137E+05</totfact>
</mgrwt>
</event>
<event>
 5    1  0.1959123E+000  0.6603998E+02  0.7546771E-02  0.1374102E+00
         21   -1    0    0  503  502  0.00000000000E+00  0.00000000000E+00  0.11239801134E+03  0.11239801134E+03  0.00000000000E+00 0. -1.
         21   -1    0    0  501  503 -0.00000000000E+00 -0.00000000000E+00 -0.42678840067E+02  0.42678840067E+02  0.00000000000E+00 0.  1.
         24    1    1    2    0    0  0.28050958112E+02 -0.23404625374E+02  0.55132149800E+02  0.10412205643E+03  0.80419002446E+02 0.  0.
          1    1    1    2  501    0 -0.23076750883E+02  0.36291140065E+01 -0.35939086384E+01  0.23635208463E+02  0.00000000000E+00 0. -1.
         -2    1    1    2    0  502 -0.49742072292E+01  0.19775511367E+02  0.18180930111E+02  0.27319586510E+02  0.00000000000E+00 0.  1.
<mgrwt>
<rscale>  2 0.66039976E+02</rscale>
<asrwt>0</asrwt>
<pdfrwt beam="1">  1       21 0.17292002E-01 0.66039976E+02</pdfrwt>
<pdfrwt beam="2">  1       21 0.65659754E-02 0.66039976E+02</pdfrwt>
<totfact> 0.48211696E+06</totfact>
</mgrwt>
</event>
<event>
 5    1  0.1959123E+000  0.8154847E+02  0.7546771E-02  0.1324714E+00
         21   -1    0    0  501  502  0.00000000000E+00  0.00000000000E+00  0.23961642463E+02  0.23961642463E+02  0.00000000000E+00 0.  1.
         21   -1    0    0  502  503 -0.00000000000E+00 -0.00000000000E+00 -0.85879109103E+03  0.85879109103E+03  0.00000000000E+00 0.  1.
         24    1    1    2    0    0  0.49319914837E+01 -0.48746679353E+02 -0.97226802049E+02  0.13535446161E+03  0.80419002446E+02 0.  1.
          1    1    1    2  501    0 -0.26723442116E+02  0.30064154351E+02 -0.83678139768E+02  0.92844099491E+02  0.00000000000E+00 0. -1.
         -2    1    1    2    0  503  0.21791450632E+02  0.18682525002E+02 -0.65392450675E+03  0.65455417239E+03  0.00000000000E+00 0.  1.
<mgrwt>
<rscale>  2 0.81548467E+02</rscale>
<asrwt>0</asrwt>
<pdfrwt beam="1">  1       21 0.36864062E-02 0.81548467E+02</pdfrwt>
<pdfrwt beam="2">  1       21 0.13212172E+00 0.81548467E+02</pdfrwt>
<totfact> 0.19488979E+05</totfact>
</mgrwt>
</event>
<event>
 5    1  0.1959123E+000  0.6646681E+02  0.7546771E-02  0.1372537E+00
         21   -1    0    0  501  502  0.00000000000E+00  0.00000000000E+00  0.40019263500E+02  0.40019263500E+02  0.00000000000E+00 0. -1.
         21   -1    0    0  502  503 -0.00000000000E+00 -0.00000000000E+00 -0.21950820650E+03  0.21950820650E+03  0.00000000000E+00 0. -1.
         24    1    1    2    0    0  0.24855546719E+02 -0.78641507009E+01 -0.15211866606E+03  0.17403145574E+03  0.80419002446E+02 0. -1.
          1    1    1    2  501    0 -0.13002056276E+00  0.20587156479E+02  0.21185886844E+02  0.29541322221E+02  0.00000000000E+00 0. -1.
         -2    1    1    2    0  503 -0.24725526156E+02 -0.12723005778E+02 -0.48556163785E+02  0.55954692040E+02  0.00000000000E+00 0.  1.
<mgrwt>
<rscale>  2 0.66466808E+02</rscale>
<asrwt>0</asrwt>
<pdfrwt beam="1">  1       21 0.61568099E-02 0.66466808E+02</pdfrwt>
<pdfrwt beam="2">  1       21 0.33770493E-01 0.66466808E+02</pdfrwt>
<totfact> 0.15571306E+06</totfact>
</mgrwt>
</event>
<event>
 5    1  0.1959123E+000  0.1106001E+03  0.7546771E-02  0.1259463E+00
         21   -1    0    0  501  502  0.00000000000E+00  0.00000000000E+00  0.15965504153E+03  0.15965504153E+03  0.00000000000E+00 0. -1.
         21   -1    0    0  502  503 -0.00000000000E+00 -0.00000000000E+00 -0.19768901702E+03  0.19768901702E+03  0.00000000000E+00 0. -1.
         24    1    1    2    0    0 -0.15692636103E+02  0.94395993826E+02 -0.39155864449E+02  0.13098572500E+03  0.80419002446E+02 0. -1.
          1    1    1    2  501    0  0.16411397342E+02 -0.74116958856E+02  0.99926875569E+02  0.12549118700E+03  0.00000000000E+00 0. -1.
         -2    1    1    2    0  503 -0.71876123910E+00 -0.20279034969E+02 -0.98804986608E+02  0.10086714656E+03  0.00000000000E+00 0.  1.
<mgrwt>
<rscale>  2 0.11060013E+03</rscale>
<asrwt>0</asrwt>
<pdfrwt beam="1">  1       21 0.24562314E-01 0.11060013E+03</pdfrwt>
<pdfrwt beam="2">  1       21 0.30413695E-01 0.11060013E+03</pdfrwt>
<totfact> 0.16667063E+05</totfact>
</mgrwt>
</event>
<event>
 5    1  0.1959123E+000  0.1255051E+03  0.7546771E-02  0.1234282E+00
         21   -1    0    0  503  502  0.00000000000E+00  0.00000000000E+00  0.22103927800E+02  0.22103927800E+02  0.00000000000E+00 0.  1.
         21   -1    0    0  501  503 -0.00000000000E+00 -0.00000000000E+00 -0.99617188681E+03  0.99617188681E+03  0.00000000000E+00 0. -1.
         24    1    1    2    0    0 -0.28960703527E+02  0.48550536034E+01 -0.26647487449E+03  0.27988992226E+03  0.80419002446E+02 0. -1.
          1    1    1    2  501    0  0.83825425295E+02  0.41533127300E+02 -0.61036234720E+03  0.61748999787E+03  0.00000000000E+00 0. -1.
         -2    1    1    2    0  502 -0.54864721768E+02 -0.46388180903E+02 -0.97230737314E+02  0.12089589447E+03  0.00000000000E+00 0.  1.
<mgrwt>
<rscale>  2 0.12550508E+03</rscale>
<asrwt>0</asrwt>
<pdfrwt beam="1">  1       21 0.34006037E-02 0.12550508E+03</pdfrwt>
<pdfrwt beam="2">  1       21 0.15325724E+00 0.12550508E+03</pdfrwt>
<totfact> 0.14960395E+05</totfact>
</mgrwt>
</event>
<event>
 5    1  0.1959123E+000  0.6765980E+02  0.7546771E-02  0.1368237E+00
         21   -1    0    0  501  502  0.00000000000E+00  0.00000000000E+00  0.13918005791E+03  0.13918005791E+03  0.00000000000E+00 0.  1.
         21   -1    0    0  502  503 -0.00000000000E+00 -0.00000000000E+00 -0.36831504881E+02  0.36831504881E+02  0.00000000000E+00 0.  1.
         24    1    1    2    0    0 -0.18189451777E+01 -0.35753729284E+02  0.89256045361E+02  0.12536145862E+03  0.80419002446E+02 0.  1.
          1    1    1    2  501    0  0.16386540800E+02  0.19093769938E+02  0.13421065242E+02  0.28516938160E+02  0.00000000000E+00 0. -1.
         -2    1    1    2    0  503 -0.14567595622E+02  0.16659959346E+02 -0.32855757433E+00  0.22133166012E+02  0.00000000000E+00 0.  1.
<mgrwt>
<rscale>  2 0.67659798E+02</rscale>
<asrwt>0</asrwt>
<pdfrwt beam="1">  1       21 0.21412316E-01 0.67659798E+02</pdfrwt>
<pdfrwt beam="2">  1       21 0.56663854E-02 0.67659798E+02</pdfrwt>
<totfact> 0.41960960E+06</totfact>
</mgrwt>
</event>
<event>
 5    1  0.1959123E+000  0.8881215E+02  0.7546771E-02  0.1305754E+00
         21   -1    0    0  501  502  0.00000000000E+00  0.00000000000E+00  0.43232816818E+02  0.43232816818E+02  0.00000000000E+00 0. -1.
         21   -1    0    0  502  503 -0.00000000000E+00 -0.00000000000E+00 -0.38915358296E+03  0.38915358296E+03  0.00000000000E+00 0.  1.
         24    1    1    2    0    0  0.37271188337E+02 -0.52313808318E+02 -0.31252267260E+02  0.10756298705E+03  0.80419002446E+02 0. -1.
          1    1    1    2  501    0 -0.43770754112E+01  0.38952020454E+02 -0.10316233660E+03  0.11035799192E+03  0.00000000000E+00 0. -1.
         -2    1    1    2    0  503 -0.32894112926E+02  0.13361787865E+02 -0.21150616227E+03  0.21446542080E+03  0.00000000000E+00 0.  1.
<mgrwt>
<rscale>  2 0.88812146E+02</rscale>
<asrwt>0</asrwt>
<pdfrwt beam="1">  1       21 0.66512021E-02 0.88812146E+02</pdfrwt>
<pdfrwt beam="2">  1       21 0.59869786E-01 0.88812146E+02</pdfrwt>
<totfact> 0.43656874E+05</totfact>
</mgrwt>
</event>
<event>
 5    1  0.2760514E+000  0.1620369E+03  0.7546771E-02  0.1186416E+00
         21   -1    0    0  503  502  0.00000000000E+00  0.00000000000E+00  0.11473619903E+04  0.11473619903E+04  0.00000000000E+00 0.  1.
         21   -1    0    0  501  503 -0.00000000000E+00 -0.00000000000E+00 -0.89454163864E+02  0.89454163864E+02  0.00000000000E+00 0. -1.
         24    1    1    2    0    0 -0.43713440002E+02 -0.80839632145E+01  0.49131238705E+03  0.49983126445E+03  0.80419002446E+02 0.  1.
          1    1    1    2  501    0 -0.85284285675E+02 -0.40410380453E+02 -0.48871825796E+02  0.10627729573E+03  0.00000000000E+00 0. -1.
         -2    1    1    2    0  502  0.12899772568E+03  0.48494343668E+02  0.61546726517E+03  0.63070759397E+03  0.00000000000E+00 0.  1.
<mgrwt>
<rscale>  2 0.16203690E+03</rscale>
<asrwt>0</asrwt>
<pdfrwt beam="1">  1       21 0.17651722E+00 0.16203690E+03</pdfrwt>
<pdfrwt beam="2">  1       21 0.13762180E-01 0.16203690E+03</pdfrwt>
<totfact> 0.90524025E+03</totfact>
</mgrwt>
</event>
<event>
 5    1  0.1959123E+000  0.7585240E+02  0.7546771E-02  0.1341252E+00
         21   -1    0    0  501  502  0.00000000000E+00  0.00000000000E+00  0.90894512610E+02  0.90894512610E+02  0.00000000000E+00 0. -1.
         21   -1    0    0  502  503 -0.00000000000E+00 -0.00000000000E+00 -0.14665612157E+03  0.14665612157E+03  0.00000000000E+00 0. -1.
         24    1    1    2    0    0 -0.86392743491E+01 -0.39224780287E+01 -0.96995773478E+02  0.12635433875E+03  0.80419002446E+02 0. -1.
          1    1    1    2  501    0  0.36434280918E+02  0.16768730043E+02  0.62254204338E+02  0.74055608100E+02  0.00000000000E+00 0. -1.
         -2    1    1    2    0  503 -0.27795006569E+02 -0.12846252014E+02 -0.21020039821E+02  0.37140687326E+02  0.00000000000E+00 0.  1.
<mgrwt>
<rscale>  2 0.75852396E+02</rscale>
<asrwt>0</asrwt>
<pdfrwt beam="1">  1       21 0.13983771E-01 0.75852396E+02</pdfrwt>
<pdfrwt beam="2">  1       21 0.22562480E-01 0.75852396E+02</pdfrwt>
<totfact> 0.81772500E+05</totfact>
</mgrwt>
</event>
<event>
 5    1  0.3906964E+000  0.1067469E+03  0.7546771E-02  0.1266716E+00
         21   -1    0    0  503  502  0.00000000000E+00  0.00000000000E+00  0.24930125988E+03  0.24930125988E+03  0.00000000000E+00 0.  1.
         21   -1    0    0  501  503 -0.00000000000E+00 -0.00000000000E+00 -0.27993497581E+03  0.27993497581E+03  0.00000000000E+00 0. -1.
         24    1    1    2    0    0  0.19128913670E+02 -0.76978514688E+01  0.13720525710E+03  0.16036729962E+03  0.80419002446E+02 0.  0.
          1    1    1    2  501    0 -0.17540080762E+02  0.67961669308E+02 -0.25410804557E+03  0.26362348483E+03  0.00000000000E+00 0. -1.
         -2    1    1    2    0  502 -0.15888329077E+01 -0.60263817839E+02  0.86269072540E+02  0.10524545124E+03  0.00000000000E+00 0.  1.
<mgrwt>
<rscale>  2 0.10674690E+03</rscale>
<asrwt>0</asrwt>
<pdfrwt beam="1">  1       21 0.38354040E-01 0.10674690E+03</pdfrwt>
<pdfrwt beam="2">  1       21 0.43066919E-01 0.10674690E+03</pdfrwt>
<totfact> 0.35749246E+04</totfact>
</mgrwt>
</event>
<event>
 5    1  0.1959123E+000  0.4072435E+03  0.7546771E-02  0.1041300E+00
         21   -1    0    0  503  502  0.00000000000E+00  0.00000000000E+00  0.14967363833E+04  0.14967363833E+04  0.00000000000E+00 0. -1.
         21   -1    0    0  501  503 -0.00000000000E+00 -0.00000000000E+00 -0.13746635677E+03  0.13746635677E+03  0.00000000000E+00 0. -1.
         24    1    1    2    0    0  0.30652418688E+03 -0.25330850482E+03  0.66604390851E+03  0.77987433589E+03  0.80419002446E+02 0. -1.
          1    1    1    2  501    0 -0.26772924415E+03  0.17067661459E+03  0.25651380384E+03  0.40817739587E+03  0.00000000000E+00 0. -1.
         -2    1    1    2    0  502 -0.38794942726E+02  0.82631890228E+02  0.43671231417E+03  0.44615100830E+03  0.00000000000E+00 0.  1.
<mgrwt>
<rscale>  2 0.40724352E+03</rscale>
<asrwt>0</asrwt>
<pdfrwt beam="1">  1       21 0.23026712E+00 0.40724352E+03</pdfrwt>
<pdfrwt beam="2">  1       21 0.21148671E-01 0.40724352E+03</pdfrwt>
<totfact> 0.15409768E+03</totfact>
</mgrwt>
</event>
<event>
 5    1  0.1959123E+000  0.7807747E+02  0.7546771E-02  0.1334598E+00
         21   -1    0    0  503  502  0.00000000000E+00  0.00000000000E+00  0.92257913400E+03  0.92257913400E+03  0.00000000000E+00 0. -1.
         21   -1    0    0  501  503 -0.00000000000E+00 -0.00000000000E+00 -0.71485203168E+01  0.71485203168E+01  0.00000000000E+00 0.  1.
         24    1    1    2    0    0  0.20374964418E+02  0.88521062821E+01  0.37954847757E+03  0.38861003814E+03  0.80419002446E+02 0.  1.
          1    1    1    2  501    0 -0.23513985327E+02  0.27530955350E+02  0.19947116515E+03  0.20273037940E+03  0.00000000000E+00 0. -1.
         -2    1    1    2    0  502  0.31390209082E+01 -0.36383061632E+02  0.33641097096E+03  0.33838723677E+03  0.00000000000E+00 0.  1.
<mgrwt>
<rscale>  2 0.78077468E+02</rscale>
<asrwt>0</asrwt>
<pdfrwt beam="1">  1       21 0.14193516E+00 0.78077468E+02</pdfrwt>
<pdfrwt beam="2">  1       21 0.10997731E-02 0.78077468E+02</pdfrwt>
<totfact> 0.11264654E+06</totfact>
</mgrwt>
</event>
<event>
 5    1  0.1959123E+000  0.6904234E+02  0.7546771E-02  0.1363380E+00
         21   -1    0    0  501  502  0.00000000000E+00  0.00000000000E+00  0.10603142450E+03  0.10603142450E+03  0.00000000000E+00 0. -1.
         21   -1    0    0  502  503 -0.00000000000E+00 -0.00000000000E+00 -0.60405203872E+02  0.60405203872E+02  0.00000000000E+00 0.  1.
         24    1    1    2    0    0 -0.23370456590E+01 -0.21335044548E+01 -0.33219634457E+01  0.80549767344E+02  0.80419002446E+02 0.  1.
          1    1    1    2  501    0 -0.13681309581E+01 -0.27603051098E+02  0.48611470898E+02  0.55918470250E+02  0.00000000000E+00 0. -1.
         -2    1    1    2    0  503  0.37051766172E+01  0.29736555553E+02  0.33671317354E+00  0.29968390775E+02  0.00000000000E+00 0.  1.
<mgrwt>
<rscale>  2 0.69042336E+02</rscale>
<asrwt>0</asrwt>
<pdfrwt beam="1">  1       21 0.16312527E-01 0.69042336E+02</pdfrwt>
<pdfrwt beam="2">  1       21 0.92931083E-02 0.69042336E+02</pdfrwt>
<totfact> 0.29819890E+06</totfact>
</mgrwt>
</event>
<event>
 5    1  0.1959123E+000  0.9600855E+02  0.7546771E-02  0.1288921E+00
         21   -1    0    0  503  502  0.00000000000E+00  0.00000000000E+00  0.76563873397E+03  0.76563873397E+03  0.00000000000E+00 0.  1.
         21   -1    0    0  501  503 -0.00000000000E+00 -0.00000000000E+00 -0.21242862637E+02  0.21242862637E+02  0.00000000000E+00 0. -1.
         24    1    1    2    0    0  0.17170811372E+02 -0.21177484744E+02  0.15159653110E+03  0.17375858775E+03  0.80419002446E+02 0.  0.
          1    1    1    2  501    0  0.40916496151E+02  0.26536385376E+02  0.60833213226E+02  0.77968065498E+02  0.00000000000E+00 0. -1.
         -2    1    1    2    0  502 -0.58087307524E+02 -0.53589006325E+01  0.53196612701E+03  0.53515494335E+03  0.00000000000E+00 0.  1.
<mgrwt>
<rscale>  2 0.96008545E+02</rscale>
<asrwt>0</asrwt>
<pdfrwt beam="1">  1       21 0.11779055E+00 0.96008545E+02</pdfrwt>
<pdfrwt beam="2">  1       21 0.32681333E-02 0.96008545E+02</pdfrwt>
<totfact> 0.31190818E+05</totfact>
</mgrwt>
</event>
<event>
 5    1  0.1959123E+000  0.7302105E+02  0.7546771E-02  0.1350111E+00
         21   -1    0    0  503  502  0.00000000000E+00  0.00000000000E+00  0.43946646274E+02  0.43946646274E+02  0.00000000000E+00 0. -1.
         21   -1    0    0  501  503 -0.00000000000E+00 -0.00000000000E+00 -0.14640807209E+03  0.14640807209E+03  0.00000000000E+00 0. -1.
         24    1    1    2    0    0  0.12493947287E+02  0.15125616110E+02 -0.34735072422E+02  0.89769840102E+02  0.80419002446E+02 0. -1.
          1    1    1    2  501    0 -0.34776601736E+02  0.24818549619E+01 -0.62703194680E+02  0.71744423166E+02  0.00000000000E+00 0. -1.
         -2    1    1    2    0  502  0.22282654449E+02 -0.17607471072E+02 -0.50231587178E+01  0.28840455099E+02  0.00000000000E+00 0.  1.
<mgrwt>
<rscale>  2 0.73021049E+02</rscale>
<asrwt>0</asrwt>
<pdfrwt beam="1">  1       21 0.67610225E-02 0.73021049E+02</pdfrwt>
<pdfrwt beam="2">  1       21 0.22524319E-01 0.73021049E+02</pdfrwt>
<totfact> 0.28610238E+06</totfact>
</mgrwt>
</event>
<event>
 5    1  0.1959123E+000  0.7236377E+02  0.7546771E-02  0.1352235E+00
         21   -1    0    0  501  502  0.00000000000E+00  0.00000000000E+00  0.11848201363E+03  0.11848201363E+03  0.00000000000E+00 0.  1.
         21   -1    0    0  502  503 -0.00000000000E+00 -0.00000000000E+00 -0.52705089714E+02  0.52705089714E+02  0.00000000000E+00 0. -1.
         24    1    1    2    0    0 -0.11329378877E+02 -0.10798389269E+02  0.48745975213E+02  0.95332817489E+02  0.80419002446E+02 0.  1.
          1    1    1    2  501    0  0.34004035541E+02 -0.60663006160E+01  0.29062410867E+02  0.45140870192E+02  0.00000000000E+00 0. -1.
         -2    1    1    2    0  503 -0.22674656664E+02  0.16864689885E+02 -0.12031462165E+02  0.30713415661E+02  0.00000000000E+00 0.  1.
<mgrwt>
<rscale>  2 0.72363773E+02</rscale>
<asrwt>0</asrwt>
<pdfrwt beam="1">  1       21 0.18228002E-01 0.72363773E+02</pdfrwt>
<pdfrwt beam="2">  1       21 0.81084754E-02 0.72363773E+02</pdfrwt>
<totfact> 0.30924375E+06</totfact>
</mgrwt>
</event>
<event>
 5    1  0.1959123E+000  0.1154308E+03  0.7546771E-02  0.1250831E+00
         21   -1    0    0  503  502  0.00000000000E+00  0.00000000000E+00  0.45474490534E+02  0.45474490534E+02  0.00000000000E+00 0.  1.
         21   -1    0    0  501  503 -0.00000000000E+00 -0.00000000000E+00 -0.31079754554E+03  0.31079754554E+03  0.00000000000E+00 0. -1.
         24    1    1    2    0    0  0.21606399887E+02 -0.85657450262E+02 -0.14010738157E+03  0.18412313713E+03  0.80419002446E+02 0. -1.
          1    1    1    2  501    0  0.23426100213E+02  0.15699070319E+02 -0.60480823461E+02  0.66732098623E+02  0.00000000000E+00 0. -1.
         -2    1    1    2    0  502 -0.45032500100E+02  0.69958379943E+02 -0.64734849983E+02  0.10541680033E+03  0.00000000000E+00 0.  1.
<mgrwt>
<rscale>  2 0.11543078E+03</rscale>
<asrwt>0</asrwt>
<pdfrwt beam="1">  1       21 0.69960753E-02 0.11543078E+03</pdfrwt>
<pdfrwt beam="2">  1       21 0.47815008E-01 0.11543078E+03</pdfrwt>
<totfact> 0.63738866E+05</totfact>
</mgrwt>
</event>
<event>
 5    1  0.1959123E+000  0.8644613E+02  0.7546771E-02  0.1311693E+00
         21   -1    0    0  501  502  0.00000000000E+00  0.00000000000E+00  0.26197634003E+02  0.26197634003E+02  0.00000000000E+00 0. -1.
         21   -1    0    0  502  503 -0.00000000000E+00 -0.00000000000E+00 -0.29014553475E+03  0.29014553475E+03  0.00000000000E+00 0. -1.
         24    1    1    2    0    0  0.10395800033E+02 -0.39749614062E+02 -0.15828286534E+03  0.18223277941E+03  0.80419002446E+02 0. -1.
          1    1    1    2  501    0  0.29584783040E+01  0.59045263041E+02 -0.75914037157E+02  0.96218692150E+02  0.00000000000E+00 0. -1.
         -2    1    1    2    0  503 -0.13354278337E+02 -0.19295648979E+02 -0.29750998254E+02  0.37891697198E+02  0.00000000000E+00 0.  1.
<mgrwt>
<rscale>  2 0.86446134E+02</rscale>
<asrwt>0</asrwt>
<pdfrwt beam="1">  1       21 0.40304053E-02 0.86446134E+02</pdfrwt>
<pdfrwt beam="2">  1       21 0.44637774E-01 0.86446134E+02</pdfrwt>
<totfact> 0.18361022E+06</totfact>
</mgrwt>
</event>
<event>
 5    1  0.1959123E+000  0.1104451E+03  0.7546771E-02  0.1259748E+00
         21   -1    0    0  501  502  0.00000000000E+00  0.00000000000E+00  0.13137692644E+03  0.13137692644E+03  0.00000000000E+00 0. -1.
         21   -1    0    0  502  503 -0.00000000000E+00 -0.00000000000E+00 -0.14966310902E+03  0.14966310902E+03  0.00000000000E+00 0.  1.
         24    1    1    2    0    0 -0.57579440677E+02  0.75356911226E+01  0.29143693022E+02  0.10338640833E+03  0.80419002446E+02 0.  0.
          1    1    1    2  501    0  0.13557595056E+01  0.44837838112E+02  0.40812479774E+02  0.60645925796E+02  0.00000000000E+00 0. -1.
         -2    1    1    2    0  503  0.56223681171E+02 -0.52373529234E+02 -0.88242355376E+02  0.11700770133E+03  0.00000000000E+00 0.  1.
<mgrwt>
<rscale>  2 0.11044506E+03</rscale>
<asrwt>0</asrwt>
<pdfrwt beam="1">  1       21 0.20211835E-01 0.11044506E+03</pdfrwt>
<pdfrwt beam="2">  1       21 0.23025093E-01 0.11044506E+03</pdfrwt>
<totfact> 0.40580361E+05</totfact>
</mgrwt>
</event>
<event>
 5    1  0.1959123E+000  0.1181359E+03  0.7546771E-02  0.1246204E+00
         21   -1    0    0  503  502  0.00000000000E+00  0.00000000000E+00  0.23662657357E+02  0.23662657357E+02  0.00000000000E+00 0.  1.
         21   -1    0    0  501  503 -0.00000000000E+00 -0.00000000000E+00 -0.18709035998E+04  0.18709035998E+04  0.00000000000E+00 0.  1.
         24    1    1    2    0    0  0.64457061740E+02 -0.26109687034E+02 -0.16311669087E+03  0.19470670086E+03  0.80419002446E+02 0.  1.
          1    1    1    2  501    0 -0.31469689712E+02 -0.43051983392E+02 -0.14929285507E+04  0.14938806753E+04  0.00000000000E+00 0. -1.
         -2    1    1    2    0  502 -0.32987372027E+02  0.69161670426E+02 -0.19119570086E+03  0.20597888095E+03  0.00000000000E+00 0.  1.
<mgrwt>
<rscale>  2 0.11813588E+03</rscale>
<asrwt>0</asrwt>
<pdfrwt beam="1">  1       21 0.36404088E-02 0.11813588E+03</pdfrwt>
<pdfrwt beam="2">  1       21 0.28783133E+00 0.11813588E+03</pdfrwt>
<totfact> 0.20068807E+04</totfact>
</mgrwt>
</event>
<event>
 5    1  0.1959123E+000  0.1074582E+03  0.7546771E-02  0.1265351E+00
         21   -1    0    0  501  502  0.00000000000E+00  0.00000000000E+00  0.94340198170E+02  0.94340198170E+02  0.00000000000E+00 0.  1.
         21   -1    0    0  502  503 -0.00000000000E+00 -0.00000000000E+00 -0.22843474835E+03  0.22843474835E+03  0.00000000000E+00 0. -1.
         24    1    1    2    0    0  0.20081312654E+02 -0.88475285861E+02 -0.99811455561E+02  0.15703718649E+03  0.80419002446E+02 0.  0.
          1    1    1    2  501    0  0.44130510094E+01  0.29374479692E+02  0.51063768584E+02  0.59074897701E+02  0.00000000000E+00 0. -1.
         -2    1    1    2    0  503 -0.24494363663E+02  0.59100806169E+02 -0.85346863204E+02  0.10666286233E+03  0.00000000000E+00 0.  1.
<mgrwt>
<rscale>  2 0.10745825E+03</rscale>
<asrwt>0</asrwt>
<pdfrwt beam="1">  1       21 0.14513877E-01 0.10745825E+03</pdfrwt>
<pdfrwt beam="2">  1       21 0.35143807E-01 0.10745825E+03</pdfrwt>
<totfact> 0.33031246E+05</totfact>
</mgrwt>
</event>
<event>
 5    1  0.1959123E+000  0.8665452E+02  0.7546771E-02  0.1311162E+00
         21   -1    0    0  501  502  0.00000000000E+00  0.00000000000E+00  0.11429543186E+03  0.11429543186E+03  0.00000000000E+00 0. -1.
         21   -1    0    0  502  503 -0.00000000000E+00 -0.00000000000E+00 -0.31166933714E+03  0.31166933714E+03  0.00000000000E+00 0.  1.
         24    1    1    2    0    0 -0.23040551153E+02 -0.14317285980E+02 -0.22305602137E+02  0.87753105451E+02  0.80419002446E+02 0.  1.
          1    1    1    2  501    0  0.18283135596E+02 -0.34683285141E+02  0.74310761619E+02  0.84019596570E+02  0.00000000000E+00 0. -1.
         -2    1    1    2    0  503  0.47574155567E+01  0.49000571121E+02 -0.24937906476E+03  0.25419206698E+03  0.00000000000E+00 0.  1.
<mgrwt>
<rscale>  2 0.86654524E+02</rscale>
<asrwt>0</asrwt>
<pdfrwt beam="1">  1       21 0.17583913E-01 0.86654524E+02</pdfrwt>
<pdfrwt beam="2">  1       21 0.47949128E-01 0.86654524E+02</pdfrwt>
<totfact> 0.12682295E+05</totfact>
</mgrwt>
</event>
<event>
 5    1  0.1959123E+000  0.8667978E+02  0.7546771E-02  0.1311097E+00
         21   -1    0    0  501  502  0.00000000000E+00  0.00000000000E+00  0.16656680290E+03  0.16656680290E+03  0.00000000000E+00 0.  1.
         21   -1    0    0  502  503 -0.00000000000E+00 -0.00000000000E+00 -0.14486611910E+03  0.14486611910E+03  0.00000000000E+00 0.  1.
         24    1    1    2    0    0  0.52800913999E+02 -0.26130065680E+02  0.98878202982E+01  0.10017834994E+03  0.80419002446E+02 0.  1.
          1    1    1    2  501    0 -0.37361943041E+02 -0.61720395735E+01  0.10489682150E+03  0.11152287667E+03  0.00000000000E+00 0. -1.
         -2    1    1    2    0  503 -0.15438970958E+02  0.32302105254E+02 -0.93083957998E+02  0.99731695386E+02  0.00000000000E+00 0.  1.
<mgrwt>
<rscale>  2 0.86679778E+02</rscale>
<asrwt>0</asrwt>
<pdfrwt beam="1">  1       21 0.25625662E-01 0.86679778E+02</pdfrwt>
<pdfrwt beam="2">  1       21 0.22287095E-01 0.86679778E+02</pdfrwt>
<totfact> 0.27830344E+05</totfact>
</mgrwt>
</event>
<event>
 5    1  0.1959123E+000  0.8267464E+02  0.7546771E-02  0.1321628E+00
         21   -1    0    0  503  502  0.00000000000E+00  0.00000000000E+00  0.42007399633E+03  0.42007399633E+03  0.00000000000E+00 0.  1.
         21   -1    0    0  501  503 -0.00000000000E+00 -0.00000000000E+00 -0.31424169594E+02  0.31424169594E+02  0.00000000000E+00 0.  1.
         24    1    1    2    0    0 -0.53093708972E+02 -0.13191772259E+02  0.88243262235E+02  0.13132803993E+03  0.80419002446E+02 0.  1.
          1    1    1    2  501    0  0.13137081489E+02  0.23409214807E+02  0.13011174903E+02  0.29830603753E+02  0.00000000000E+00 0. -1.
         -2    1    1    2    0  502  0.39956627483E+02 -0.10217442548E+02  0.28739538960E+03  0.29033952224E+03  0.00000000000E+00 0.  1.
<mgrwt>
<rscale>  2 0.82674643E+02</rscale>
<asrwt>0</asrwt>
<pdfrwt beam="1">  1       21 0.64626765E-01 0.82674643E+02</pdfrwt>
<pdfrwt beam="2">  1       21 0.48344879E-02 0.82674643E+02</pdfrwt>
<totfact> 0.63350880E+05</totfact>
</mgrwt>
</event>
<event>
 5    1  0.1959123E+000  0.1087306E+03  0.7546771E-02  0.1262939E+00
         21   -1    0    0  503  502  0.00000000000E+00  0.00000000000E+00  0.11782560307E+03  0.11782560307E+03  0.00000000000E+00 0. -1.
         21   -1    0    0  501  503 -0.00000000000E+00 -0.00000000000E+00 -0.14358795328E+03  0.14358795328E+03  0.00000000000E+00 0. -1.
         24    1    1    2    0    0  0.62140164963E+02  0.68547592251E+02  0.45350725636E+02  0.13070607015E+03  0.80419002446E+02 0. -1.
          1    1    1    2  501    0 -0.37044231740E+02 -0.55122771183E+02 -0.76957450176E+02  0.10165256586E+03  0.00000000000E+00 0. -1.
         -2    1    1    2    0  502 -0.25095933223E+02 -0.13424821068E+02  0.58443743298E+01  0.29054920346E+02  0.00000000000E+00 0.  1.
<mgrwt>
<rscale>  2 0.10873056E+03</rscale>
<asrwt>0</asrwt>
<pdfrwt beam="1">  1       21 0.18127016E-01 0.10873056E+03</pdfrwt>
<pdfrwt beam="2">  1       21 0.22090454E-01 0.10873056E+03</pdfrwt>
<totfact> 0.53523844E+05</totfact>
</mgrwt>
</event>
<event>
 5    1  0.1959123E+000  0.7775108E+02  0.7546771E-02  0.1335557E+00
         21   -1    0    0  501  502  0.00000000000E+00  0.00000000000E+00  0.39279690375E+03  0.39279690375E+03  0.00000000000E+00 0. -1.
         21   -1    0    0  502  503 -0.00000000000E+00 -0.00000000000E+00 -0.29780864621E+02  0.29780864621E+02  0.00000000000E+00 0. -1.
         24    1    1    2    0    0 -0.26553192692E+01 -0.39003832612E+02  0.49690407757E+02  0.10229712731E+03  0.80419002446E+02 0. -1.
          1    1    1    2  501    0  0.23099137689E+02  0.12286864539E+01  0.12458787840E+03  0.12671708360E+03  0.00000000000E+00 0. -1.
         -2    1    1    2    0  503 -0.20443818420E+02  0.37775146158E+02  0.18873775298E+03  0.19356355746E+03  0.00000000000E+00 0.  1.
<mgrwt>
<rscale>  2 0.77751076E+02</rscale>
<asrwt>0</asrwt>
<pdfrwt beam="1">  1       21 0.60430289E-01 0.77751076E+02</pdfrwt>
<pdfrwt beam="2">  1       21 0.45816718E-02 0.77751076E+02</pdfrwt>
<totfact> 0.79721313E+05</totfact>
</mgrwt>
</event>
<event>
 5    1  0.1959123E+000  0.7549447E+02  0.7546771E-02  0.1342347E+00
         21   -1    0    0  503  502  0.00000000000E+00  0.00000000000E+00  0.23825076624E+03  0.23825076624E+03  0.00000000000E+00 0. -1.
         21   -1    0    0  501  503 -0.00000000000E+00 -0.00000000000E+00 -0.28660139836E+02  0.28660139836E+02  0.00000000000E+00 0.  1.
         24    1    1    2    0    0 -0.87561360944E+01  0.24382023411E+02  0.16644298370E+03  0.18665914326E+03  0.80419002446E+02 0.  0.
          1    1    1    2  501    0  0.20589804378E+02 -0.41128474008E+02  0.22691352933E+02  0.51287317307E+02  0.00000000000E+00 0. -1.
         -2    1    1    2    0  502 -0.11833668283E+02  0.16746450597E+02  0.20456289776E+02  0.28964445516E+02  0.00000000000E+00 0.  1.
<mgrwt>
<rscale>  2 0.75494466E+02</rscale>
<asrwt>0</asrwt>
<pdfrwt beam="1">  1       21 0.36653963E-01 0.75494466E+02</pdfrwt>
<pdfrwt beam="2">  1       21 0.44092524E-02 0.75494466E+02</pdfrwt>
<totfact> 0.23247234E+06</totfact>
</mgrwt>
</event>
<event>
 5    1  0.1959123E+000  0.6905567E+02  0.7546771E-02  0.1363334E+00
         21   -1    0    0  503  502  0.00000000000E+00  0.00000000000E+00  0.25368617430E+02  0.25368617430E+02  0.00000000000E+00 0.  1.
         21   -1    0    0  501  503 -0.00000000000E+00 -0.00000000000E+00 -0.20456672484E+03  0.20456672484E+03  0.00000000000E+00 0. -1.
         24    1    1    2    0    0  0.19500180722E+02  0.33212643225E+02 -0.14078528780E+03  0.16664648191E+03  0.80419002446E+02 0.  1.
          1    1    1    2  501    0  0.19909776074E+01 -0.26292297443E+02 -0.27884112442E+02  0.38376719810E+02  0.00000000000E+00 0. -1.
         -2    1    1    2    0  502 -0.21491158329E+02 -0.69203457815E+01 -0.10528707165E+02  0.24912140547E+02  0.00000000000E+00 0.  1.
<mgrwt>
<rscale>  2 0.69055667E+02</rscale>
<asrwt>0</asrwt>
<pdfrwt beam="1">  1       21 0.39028643E-02 0.69055667E+02</pdfrwt>
<pdfrwt beam="2">  1       21 0.31471803E-01 0.69055667E+02</pdfrwt>
<totfact> 0.37873750E+06</totfact>
</mgrwt>
</event>
<event>
 5    1  0.1959123E+000  0.6480402E+02  0.7546771E-02  0.1378710E+00
         21   -1    0    0  503  502  0.00000000000E+00  0.00000000000E+00  0.43003858708E+02  0.43003858708E+02  0.00000000000E+00 0. -1.
         21   -1    0    0  501  503 -0.00000000000E+00 -0.00000000000E+00 -0.11061717754E+03  0.11061717754E+03  0.00000000000E+00 0.  1.
         24    1    1    2    0    0 -0.22310557017E+02 -0.14608987266E+02 -0.51590377163E+02  0.99196604950E+02  0.80419002446E+02 0.  0.
          1    1    1    2  501    0  0.16381541659E+01  0.22644284481E+02 -0.21831802150E+02  0.31497218192E+02  0.00000000000E+00 0. -1.
         -2    1    1    2    0  502  0.20672402852E+02 -0.80352972153E+01  0.58088604769E+01  0.22927213111E+02  0.00000000000E+00 0.  1.
<mgrwt>
<rscale>  2 0.64804018E+02</rscale>
<asrwt>0</asrwt>
<pdfrwt beam="1">  1       21 0.66159783E-02 0.64804018E+02</pdfrwt>
<pdfrwt beam="2">  1       21 0.17018027E-01 0.64804018E+02</pdfrwt>
<totfact> 0.48910783E+06</totfact>
</mgrwt>
</event>
<event>
 5    1  0.1959123E+000  0.7103604E+02  0.7546771E-02  0.1356605E+00
         21   -1    0    0  501  502  0.00000000000E+00  0.00000000000E+00  0.21512593071E+02  0.21512593071E+02  0.00000000000E+00 0.  1.
         21   -1    0    0  502  503 -0.00000000000E+00 -0.00000000000E+00 -0.11010293724E+04  0.11010293724E+04  0.00000000000E+00 0.  1.
         24    1    1    2    0    0 -0.12439024036E+02  0.45768114796E+01 -0.48100408394E+03  0.48786045263E+03  0.80419002446E+02 0. -1.
          1    1    1    2  501    0  0.74614845058E+01 -0.31917501983E+02  0.26424321177E+01  0.32884390391E+02  0.00000000000E+00 0. -1.
         -2    1    1    2    0  503  0.49775395302E+01  0.27340690504E+02 -0.60115512748E+03  0.60179712242E+03  0.00000000000E+00 0.  1.
<mgrwt>
<rscale>  2 0.71036043E+02</rscale>
<asrwt>0</asrwt>
<pdfrwt beam="1">  1       21 0.33096283E-02 0.71036043E+02</pdfrwt>
<pdfrwt beam="2">  1       21 0.16938921E+00 0.71036043E+02</pdfrwt>
<totfact> 0.12469799E+05</totfact>
</mgrwt>
</event>
<event>
 5    1  0.1959123E+000  0.1239053E+03  0.7546771E-02  0.1236790E+00
         21   -1    0    0  503  502  0.00000000000E+00  0.00000000000E+00  0.10296538941E+04  0.10296538941E+04  0.00000000000E+00 0.  1.
         21   -1    0    0  501  503 -0.00000000000E+00 -0.00000000000E+00 -0.21798902637E+02  0.21798902637E+02  0.00000000000E+00 0.  1.
         24    1    1    2    0    0 -0.63017401256E+02 -0.90327543949E+02  0.51110094628E+03  0.52898171169E+03  0.80419002446E+02 0.  1.
          1    1    1    2  501    0  0.22276742003E+02  0.18925280086E+02  0.13364003707E+02  0.32140567134E+02  0.00000000000E+00 0. -1.
         -2    1    1    2    0  502  0.40740659253E+02  0.71402263863E+02  0.48339004146E+03  0.49033051790E+03  0.00000000000E+00 0.  1.
<mgrwt>
<rscale>  2 0.12390529E+03</rscale>
<asrwt>0</asrwt>
<pdfrwt beam="1">  1       21 0.15840825E+00 0.12390529E+03</pdfrwt>
<pdfrwt beam="2">  1       21 0.33536781E-02 0.12390529E+03</pdfrwt>
<totfact> 0.14047901E+05</totfact>
</mgrwt>
</event>
<event>
 5    1  0.1959123E+000  0.7643545E+02  0.7546771E-02  0.1339483E+00
         21   -1    0    0  503  502  0.00000000000E+00  0.00000000000E+00  0.14914904352E+03  0.14914904352E+03  0.00000000000E+00 0.  1.
         21   -1    0    0  501  503 -0.00000000000E+00 -0.00000000000E+00 -0.53523985512E+02  0.53523985512E+02  0.00000000000E+00 0.  1.
         24    1    1    2    0    0 -0.50343892117E+01 -0.53368393193E+02  0.32823379332E+02  0.10206919541E+03  0.80419002446E+02 0.  1.
          1    1    1    2  501    0  0.10261654163E+02  0.20319670223E+02 -0.64778263608E+01  0.23667546947E+02  0.00000000000E+00 0. -1.
         -2    1    1    2    0  502 -0.52272649516E+01  0.33048722971E+02  0.69279505033E+02  0.76936286670E+02  0.00000000000E+00 0.  1.
<mgrwt>
<rscale>  2 0.76435450E+02</rscale>
<asrwt>0</asrwt>
<pdfrwt beam="1">  1       21 0.22946007E-01 0.76435450E+02</pdfrwt>
<pdfrwt beam="2">  1       21 0.82344593E-02 0.76435450E+02</pdfrwt>
<totfact> 0.19853678E+06</totfact>
</mgrwt>
</event>
<event>
 5    1  0.2946476E+000  0.9511206E+02  0.7546771E-02  0.1290924E+00
         21   -1    0    0  503  502  0.00000000000E+00  0.00000000000E+00  0.43296703334E+03  0.43296703334E+03  0.00000000000E+00 0.  1.
         21   -1    0    0  501  503 -0.00000000000E+00 -0.00000000000E+00 -0.44689454598E+03  0.44689454598E+03  0.00000000000E+00 0. -1.
         24    1    1    2    0    0  0.74563308921E+02 -0.83412094288E+01  0.41312894101E+03  0.42751842143E+03  0.80419002446E+02 0.  1.
          1    1    1    2  501    0 -0.48550189684E+02 -0.84477330007E+01 -0.41683666868E+03  0.41973955433E+03  0.00000000000E+00 0. -1.
         -2    1    1    2    0  502 -0.26013119237E+02  0.16788942429E+02 -0.10219784960E+02  0.32603603558E+02  0.00000000000E+00 0.  1.
<mgrwt>
<rscale>  2 0.95112065E+02</rscale>
<asrwt>0</asrwt>
<pdfrwt beam="1">  1       21 0.66610313E-01 0.95112065E+02</pdfrwt>
<pdfrwt beam="2">  1       21 0.68753007E-01 0.95112065E+02</pdfrwt>
<totfact> 0.44071147E+03</totfact>
</mgrwt>
</event>
<event>
 5    1  0.1959123E+000  0.1712511E+03  0.7546771E-02  0.1176549E+00
         21   -1    0    0  503  502  0.00000000000E+00  0.00000000000E+00  0.16798597940E+03  0.16798597940E+03  0.00000000000E+00 0. -1.
         21   -1    0    0  501  503 -0.00000000000E+00 -0.00000000000E+00 -0.23438436615E+03  0.23438436615E+03  0.00000000000E+00 0. -1.
         24    1    1    2    0    0 -0.23054764687E+02  0.14778327332E+03 -0.85085000458E+02  0.18994233679E+03  0.80419002446E+02 0. -1.
          1    1    1    2  501    0 -0.32044451908E+02 -0.73620178437E+02 -0.52379870724E+02  0.95866722215E+02  0.00000000000E+00 0. -1.
         -2    1    1    2    0  502  0.55099216595E+02 -0.74163094880E+02  0.71066484428E+02  0.11656128654E+03  0.00000000000E+00 0.  1.
<mgrwt>
<rscale>  2 0.17125110E+03</rscale>
<asrwt>0</asrwt>
<pdfrwt beam="1">  1       21 0.25843997E-01 0.17125110E+03</pdfrwt>
<pdfrwt beam="2">  1       21 0.36059133E-01 0.17125110E+03</pdfrwt>
<totfact> 0.10627180E+05</totfact>
</mgrwt>
</event>
<event>
 5    1  0.1959123E+000  0.9839072E+02  0.7546771E-02  0.1283717E+00
         21   -1    0    0  501  502  0.00000000000E+00  0.00000000000E+00  0.31656842601E+02  0.31656842601E+02  0.00000000000E+00 0. -1.
         21   -1    0    0  502  503 -0.00000000000E+00 -0.00000000000E+00 -0.49818515049E+03  0.49818515049E+03  0.00000000000E+00 0. -1.
         24    1    1    2    0    0  0.62493156533E+02 -0.41166088357E+02 -0.38628093733E+03  0.40159708657E+03  0.80419002446E+02 0. -1.
          1    1    1    2  501    0 -0.32842841693E+02  0.46374107993E+02 -0.18861366122E+02  0.59874546132E+02  0.00000000000E+00 0. -1.
         -2    1    1    2    0  503 -0.29650314840E+02 -0.52080196354E+01 -0.61386004431E+02  0.68370360381E+02  0.00000000000E+00 0.  1.
<mgrwt>
<rscale>  2 0.98390719E+02</rscale>
<asrwt>0</asrwt>
<pdfrwt beam="1">  1       21 0.48702835E-02 0.98390719E+02</pdfrwt>
<pdfrwt beam="2">  1       21 0.76643870E-01 0.98390719E+02</pdfrwt>
<totfact> 0.43273853E+05</totfact>
</mgrwt>
</event>
<event>
 5    1  0.1959123E+000  0.8152298E+02  0.7546771E-02  0.1324784E+00
         21   -1    0    0  501  502  0.00000000000E+00  0.00000000000E+00  0.46848727243E+02  0.46848727243E+02  0.00000000000E+00 0. -1.
         21   -1    0    0  502  503 -0.00000000000E+00 -0.00000000000E+00 -0.40807794627E+03  0.40807794627E+03  0.00000000000E+00 0. -1.
         24    1    1    2    0    0 -0.16781467616E+02 -0.56660604339E+02 -0.14397122874E+02  0.10082923604E+03  0.80419002446E+02 0. -1.
          1    1    1    2  501    0  0.18944395883E+02  0.24275799788E+02 -0.87870491742E+02  0.93109762698E+02  0.00000000000E+00 0. -1.
         -2    1    1    2    0  503 -0.21629282675E+01  0.32384804551E+02 -0.25896160441E+03  0.26098767477E+03  0.00000000000E+00 0.  1.
<mgrwt>
<rscale>  2 0.81522982E+02</rscale>
<asrwt>0</asrwt>
<pdfrwt beam="1">  1       21 0.72074967E-02 0.81522982E+02</pdfrwt>
<pdfrwt beam="2">  1       21 0.62781221E-01 0.81522982E+02</pdfrwt>
<totfact> 0.34511657E+05</totfact>
</mgrwt>
</event>
<event>
 5    1  0.1959123E+000  0.1259489E+03  0.7546771E-02  0.1233594E+00
         21   -1    0    0  503  502  0.00000000000E+00  0.00000000000E+00  0.38557194123E+03  0.38557194123E+03  0.00000000000E+00 0.  1.
         21   -1    0    0  501  503 -0.00000000000E+00 -0.00000000000E+00 -0.14869965538E+03  0.14869965538E+03  0.00000000000E+00 0.  1.
         24    1    1    2    0    0 -0.60814718196E+02  0.95372163351E+02 -0.36055894721E+02  0.14339289728E+03  0.80419002446E+02 0.  1.
          1    1    1    2  501    0  0.30363779031E+02 -0.47859102257E+02 -0.42246819511E+02  0.70691205285E+02  0.00000000000E+00 0. -1.
         -2    1    1    2    0  502  0.30450939165E+02 -0.47513061094E+02  0.31517500008E+03  0.32018749405E+03  0.00000000000E+00 0.  1.
<mgrwt>
<rscale>  2 0.12594894E+03</rscale>
<asrwt>0</asrwt>
<pdfrwt beam="1">  1       21 0.59318760E-01 0.12594894E+03</pdfrwt>
<pdfrwt beam="2">  1       21 0.22876870E-01 0.12594894E+03</pdfrwt>
<totfact> 0.49256172E+04</totfact>
</mgrwt>
</event>
<event>
 5    1  0.1959123E+000  0.1135745E+03  0.7546771E-02  0.1254090E+00
         21   -1    0    0  503  502  0.00000000000E+00  0.00000000000E+00  0.24121883274E+03  0.24121883274E+03  0.00000000000E+00 0.  1.
         21   -1    0    0  501  503 -0.00000000000E+00 -0.00000000000E+00 -0.63870120039E+02  0.63870120039E+02  0.00000000000E+00 0. -1.
         24    1    1    2    0    0  0.38209944353E+00 -0.27350443789E+02  0.96970596456E+02  0.12891355750E+03  0.80419002446E+02 0.  1.
          1    1    1    2  501    0  0.61759362891E+02 -0.19073715698E+02  0.22941488161E+00  0.64638055095E+02  0.00000000000E+00 0. -1.
         -2    1    1    2    0  502 -0.62141462335E+02  0.46424159487E+02  0.80148701360E+02  0.11153734018E+03  0.00000000000E+00 0.  1.
<mgrwt>
<rscale>  2 0.11357451E+03</rscale>
<asrwt>0</asrwt>
<pdfrwt beam="1">  1       21 0.37110589E-01 0.11357451E+03</pdfrwt>
<pdfrwt beam="2">  1       21 0.98261724E-02 0.11357451E+03</pdfrwt>
<totfact> 0.59038051E+05</totfact>
</mgrwt>
</event>
<event>
 5    1  0.1959123E+000  0.9442310E+02  0.7546771E-02  0.1292481E+00
         21   -1    0    0  501  502  0.00000000000E+00  0.00000000000E+00  0.92949215708E+03  0.92949215708E+03  0.00000000000E+00 0. -1.
         21   -1    0    0  502  503 -0.00000000000E+00 -0.00000000000E+00 -0.94321303184E+02  0.94321303184E+02  0.00000000000E+00 0.  1.
         24    1    1    2    0    0  0.43946756896E+02  0.49173004521E+02  0.88205836316E+02  0.13637003824E+03  0.80419002446E+02 0.  1.
          1    1    1    2  501    0  0.76675656772E+01 -0.28041918873E+02  0.80582932558E+03  0.80635354699E+03  0.00000000000E+00 0. -1.
         -2    1    1    2    0  503 -0.51614322573E+02 -0.21131085648E+02 -0.58864308005E+02  0.81089875029E+02  0.00000000000E+00 0.  1.
<mgrwt>
<rscale>  2 0.94423099E+02</rscale>
<asrwt>0</asrwt>
<pdfrwt beam="1">  1       21 0.14299879E+00 0.94423099E+02</pdfrwt>
<pdfrwt beam="2">  1       21 0.14510970E-01 0.94423099E+02</pdfrwt>
<totfact> 0.15377707E+04</totfact>
</mgrwt>
</event>
<event>
 5    1  0.1959123E+000  0.8596811E+02  0.7546771E-02  0.1312920E+00
         21   -1    0    0  503  502  0.00000000000E+00  0.00000000000E+00  0.25360778537E+03  0.25360778537E+03  0.00000000000E+00 0. -1.
         21   -1    0    0  501  503 -0.00000000000E+00 -0.00000000000E+00 -0.10207971470E+03  0.10207971470E+03  0.00000000000E+00 0.  1.
         24    1    1    2    0    0  0.59591008342E+02  0.28996885533E+02  0.78248345381E+02  0.13031472348E+03  0.80419002446E+02 0. -1.
          1    1    1    2  501    0 -0.29892225548E+02 -0.68106676104E+01 -0.70507024652E+02  0.76884139240E+02  0.00000000000E+00 0. -1.
         -2    1    1    2    0  502 -0.29698782794E+02 -0.22186217923E+02  0.14378674994E+03  0.14848863735E+03  0.00000000000E+00 0.  1.
<mgrwt>
<rscale>  2 0.85968113E+02</rscale>
<asrwt>0</asrwt>
<pdfrwt beam="1">  1       21 0.39016582E-01 0.85968113E+02</pdfrwt>
<pdfrwt beam="2">  1       21 0.15704572E-01 0.85968113E+02</pdfrwt>
<totfact> 0.23465334E+05</totfact>
</mgrwt>
</event>
<event>
 5    1  0.1959123E+000  0.8976134E+02  0.7546771E-02  0.1303431E+00
         21   -1    0    0  503  502  0.00000000000E+00  0.00000000000E+00  0.15121364326E+02  0.15121364326E+02  0.00000000000E+00 0. -1.
         21   -1    0    0  501  503 -0.00000000000E+00 -0.00000000000E+00 -0.99486146600E+03  0.99486146600E+03  0.00000000000E+00 0.  1.
         24    1    1    2    0    0  0.49266065014E+02 -0.52095267211E+02 -0.52405250427E+03  0.53501336919E+03  0.80419002446E+02 0.  1.
          1    1    1    2  501    0 -0.26002177818E+02  0.25033639417E+02 -0.42872643828E+03  0.43024313502E+03  0.00000000000E+00 0. -1.
         -2    1    1    2    0  502 -0.23263887196E+02  0.27061627794E+02 -0.26961159130E+02  0.44726326118E+02  0.00000000000E+00 0.  1.
<mgrwt>
<rscale>  2 0.89761342E+02</rscale>
<asrwt>0</asrwt>
<pdfrwt beam="1">  1       21 0.23263631E-02 0.89761342E+02</pdfrwt>
<pdfrwt beam="2">  1       21 0.15305565E+00 0.89761342E+02</pdfrwt>
<totfact> 0.28329948E+05</totfact>
</mgrwt>
</event>
<event>
 5    1  0.1959123E+000  0.6898104E+02  0.7546771E-02  0.1363593E+00
         21   -1    0    0  503  502  0.00000000000E+00  0.00000000000E+00  0.55899095102E+01  0.55899095102E+01  0.00000000000E+00 0. -1.
         21   -1    0    0  501  503 -0.00000000000E+00 -0.00000000000E+00 -0.11232771888E+04  0.11232771888E+04  0.00000000000E+00 0.  1.
         24    1    1    2    0    0 -0.19770143399E+00 -0.31741766963E+02 -0.41353588691E+03  0.42247689235E+03  0.80419002446E+02 0. -1.
          1    1    1    2  501    0  0.20040585305E+02  0.20636262369E+02 -0.52713011957E+03  0.52791442805E+03  0.00000000000E+00 0. -1.
         -2    1    1    2    0  502 -0.19842883871E+02  0.11105504593E+02 -0.17702127277E+03  0.17847577787E+03  0.00000000000E+00 0.  1.
<mgrwt>
<rscale>  2 0.68981039E+02</rscale>
<asrwt>0</asrwt>
<pdfrwt beam="1">  1       21 0.85998665E-03 0.68981039E+02</pdfrwt>
<pdfrwt beam="2">  1       21 0.17281176E+00 0.68981039E+02</pdfrwt>
<totfact> 0.99723936E+05</totfact>
</mgrwt>
</event>
<event>
 5    1  0.1959123E+000  0.8120086E+02  0.7546771E-02  0.1325678E+00
         21   -1    0    0  503  502  0.00000000000E+00  0.00000000000E+00  0.15203511744E+03  0.15203511744E+03  0.00000000000E+00 0.  1.
         21   -1    0    0  501  503 -0.00000000000E+00 -0.00000000000E+00 -0.57609992939E+02  0.57609992939E+02  0.00000000000E+00 0.  1.
         24    1    1    2    0    0  0.10229558793E+02  0.59305922115E+02  0.10507994540E+03  0.14536453196E+03  0.80419002446E+02 0.  1.
          1    1    1    2  501    0  0.18422602351E+01 -0.32575149420E+02  0.11900213195E+01  0.32648896355E+02  0.00000000000E+00 0. -1.
         -2    1    1    2    0  502 -0.12071819028E+02 -0.26730772695E+02 -0.11844842216E+02  0.31631682071E+02  0.00000000000E+00 0.  1.
<mgrwt>
<rscale>  2 0.81200858E+02</rscale>
<asrwt>0</asrwt>
<pdfrwt beam="1">  1       21 0.23390018E-01 0.81200858E+02</pdfrwt>
<pdfrwt beam="2">  1       21 0.88630759E-02 0.81200858E+02</pdfrwt>
<totfact> 0.16939962E+06</totfact>
</mgrwt>
</event>
<event>
 5    1  0.1959123E+000  0.6434032E+02  0.7546771E-02  0.1380470E+00
         21   -1    0    0  503  502  0.00000000000E+00  0.00000000000E+00  0.99685363877E+03  0.99685363877E+03  0.00000000000E+00 0.  1.
         21   -1    0    0  501  503 -0.00000000000E+00 -0.00000000000E+00 -0.55727827262E+01  0.55727827262E+01  0.00000000000E+00 0. -1.
         24    1    1    2    0    0 -0.67792559323E+01  0.26239280556E+02  0.69081581463E+03  0.69600873834E+03  0.80419002446E+02 0.  0.
          1    1    1    2  501    0  0.19792453625E+02 -0.78552239467E+01  0.43145376601E+02  0.48114127715E+02  0.00000000000E+00 0. -1.
         -2    1    1    2    0  502 -0.13013197692E+02 -0.18384056610E+02  0.25731966481E+03  0.25830355544E+03  0.00000000000E+00 0.  1.
<mgrwt>
<rscale>  2 0.64340320E+02</rscale>
<asrwt>0</asrwt>
<pdfrwt beam="1">  1       21 0.15336196E+00 0.64340320E+02</pdfrwt>
<pdfrwt beam="2">  1       21 0.85735198E-03 0.64340320E+02</pdfrwt>
<totfact> 0.13631324E+06</totfact>
</mgrwt>
</event>
<event>
 5    1  0.1959123E+000  0.9295391E+02  0.7546771E-02  0.1295852E+00
         21   -1    0    0  503  502  0.00000000000E+00  0.00000000000E+00  0.71846221131E+02  0.71846221131E+02  0.00000000000E+00 0.  1.
         21   -1    0    0  501  503 -0.00000000000E+00 -0.00000000000E+00 -0.20694866620E+03  0.20694866620E+03  0.00000000000E+00 0. -1.
         24    1    1    2    0    0 -0.22970785266E+02 -0.33825434980E+02 -0.40629690441E+02  0.98943442062E+02  0.80419002446E+02 0.  0.
          1    1    1    2  501    0 -0.33264545108E+02  0.13377751521E+02 -0.11191966355E+03  0.11752236079E+03  0.00000000000E+00 0. -1.
         -2    1    1    2    0  502  0.56235330374E+02  0.20447683459E+02  0.17446908920E+02  0.62329084479E+02  0.00000000000E+00 0.  1.
<mgrwt>
<rscale>  2 0.92953913E+02</rscale>
<asrwt>0</asrwt>
<pdfrwt beam="1">  1       21 0.11053265E-01 0.92953913E+02</pdfrwt>
<pdfrwt beam="2">  1       21 0.31838256E-01 0.92953913E+02</pdfrwt>
<totfact> 0.64795578E+05</totfact>
</mgrwt>
</event>
<event>
 5    1  0.1959123E+000  0.9391770E+02  0.7546771E-02  0.1293632E+00
         21   -1    0    0  501  502  0.00000000000E+00  0.00000000000E+00  0.26678155782E+03  0.26678155782E+03  0.00000000000E+00 0. -1.
         21   -1    0    0  502  503 -0.00000000000E+00 -0.00000000000E+00 -0.50113040286E+02  0.50113040286E+02  0.00000000000E+00 0.  1.
         24    1    1    2    0    0  0.54014425888E+02 -0.27017093604E+02  0.98150677374E+02  0.14052847745E+03  0.80419002446E+02 0.  0.
          1    1    1    2  501    0 -0.39151325714E+02 -0.15587955841E+02  0.12394958067E+03  0.13091718459E+03  0.00000000000E+00 0. -1.
         -2    1    1    2    0  503 -0.14863100173E+02  0.42605049445E+02 -0.54317405082E+01  0.45448936070E+02  0.00000000000E+00 0.  1.
<mgrwt>
<rscale>  2 0.93917704E+02</rscale>
<asrwt>0</asrwt>
<pdfrwt beam="1">  1       21 0.41043316E-01 0.93917704E+02</pdfrwt>
<pdfrwt beam="2">  1       21 0.77096987E-02 0.93917704E+02</pdfrwt>
<totfact> 0.73433287E+05</totfact>
</mgrwt>
</event>
<event>
 5    1  0.1959123E+000  0.7225098E+02  0.7546771E-02  0.1352602E+00
         21   -1    0    0  503  502  0.00000000000E+00  0.00000000000E+00  0.39943304551E+02  0.39943304551E+02  0.00000000000E+00 0.  1.
         21   -1    0    0  501  503 -0.00000000000E+00 -0.00000000000E+00 -0.30116545624E+03  0.30116545624E+03  0.00000000000E+00 0. -1.
         24    1    1    2    0    0 -0.11831768719E+02  0.48335213407E+02 -0.81734102551E+02  0.12499585225E+03  0.80419002446E+02 0.  1.
          1    1    1    2  501    0  0.77237154406E+01 -0.22909859356E+02 -0.18756830676E+03  0.18912003367E+03  0.00000000000E+00 0. -1.
         -2    1    1    2    0  502  0.41080532787E+01 -0.25425354052E+02  0.80802576200E+01  0.26992874867E+02  0.00000000000E+00 0.  1.
<mgrwt>
<rscale>  2 0.72250982E+02</rscale>
<asrwt>0</asrwt>
<pdfrwt beam="1">  1       21 0.61451237E-02 0.72250982E+02</pdfrwt>
<pdfrwt beam="2">  1       21 0.46333148E-01 0.72250982E+02</pdfrwt>
<totfact> 0.84247901E+05</totfact>
</mgrwt>
</event>
<event>
 5    1  0.1959123E+000  0.9457856E+02  0.7546771E-02  0.1292128E+00
         21   -1    0    0  503  502  0.00000000000E+00  0.00000000000E+00  0.10060431289E+04  0.10060431289E+04  0.00000000000E+00 0.  1.
         21   -1    0    0  501  503 -0.00000000000E+00 -0.00000000000E+00 -0.51809374351E+02  0.51809374351E+02  0.00000000000E+00 0. -1.
         24    1    1    2    0    0  0.48515752735E+02 -0.32843466334E+02  0.30663424878E+03  0.32237284319E+03  0.80419002446E+02 0.  1.
          1    1    1    2  501    0 -0.11512306329E+02 -0.21222356565E+02 -0.38941966342E+02  0.45819192024E+02  0.00000000000E+00 0. -1.
         -2    1    1    2    0  502 -0.37003446406E+02  0.54065822898E+02  0.68654147212E+03  0.68966046805E+03  0.00000000000E+00 0.  1.
<mgrwt>
<rscale>  2 0.94578555E+02</rscale>
<asrwt>0</asrwt>
<pdfrwt beam="1">  1       21 0.15477585E+00 0.94578555E+02</pdfrwt>
<pdfrwt beam="2">  1       21 0.79706737E-02 0.94578555E+02</pdfrwt>
<totfact> 0.35735730E+04</totfact>
</mgrwt>
</event>
<event>
 5    1  0.1959123E+000  0.1262176E+03  0.7546771E-02  0.1233179E+00
         21   -1    0    0  503  502  0.00000000000E+00  0.00000000000E+00  0.59009134723E+03  0.59009134723E+03  0.00000000000E+00 0.  1.
         21   -1    0    0  501  503 -0.00000000000E+00 -0.00000000000E+00 -0.12371609821E+03  0.12371609821E+03  0.00000000000E+00 0. -1.
         24    1    1    2    0    0 -0.43416246350E+02 -0.81588046307E+02  0.13564150513E+03  0.18277695045E+03  0.80419002446E+02 0.  1.
          1    1    1    2  501    0  0.61027073816E+01 -0.20416824783E+02 -0.92067185345E+02  0.94501091998E+02  0.00000000000E+00 0. -1.
         -2    1    1    2    0  502  0.37313538968E+02  0.10200487109E+03  0.42280092924E+03  0.43652940300E+03  0.00000000000E+00 0.  1.
<mgrwt>
<rscale>  2 0.12621756E+03</rscale>
<asrwt>0</asrwt>
<pdfrwt beam="1">  1       21 0.90783283E-01 0.12621756E+03</pdfrwt>
<pdfrwt beam="2">  1       21 0.19033246E-01 0.12621756E+03</pdfrwt>
<totfact> 0.27171737E+04</totfact>
</mgrwt>
</event>
<event>
 5    1  0.1959123E+000  0.7035780E+02  0.7546771E-02  0.1358881E+00
         21   -1    0    0  503  502  0.00000000000E+00  0.00000000000E+00  0.18145343830E+04  0.18145343830E+04  0.00000000000E+00 0. -1.
         21   -1    0    0  501  503 -0.00000000000E+00 -0.00000000000E+00 -0.28299528215E+01  0.28299528215E+01  0.00000000000E+00 0.  1.
         24    1    1    2    0    0  0.91044022535E+01 -0.24985749979E+02  0.92354026422E+03  0.92741631075E+03  0.80419002446E+02 0.  1.
          1    1    1    2  501    0 -0.29398818876E+02  0.11104282668E+02  0.45174219751E+03  0.45283397471E+03  0.00000000000E+00 0. -1.
         -2    1    1    2    0  502  0.20294416623E+02  0.13881467311E+02  0.43642196842E+03  0.43711405033E+03  0.00000000000E+00 0.  1.
<mgrwt>
<rscale>  2 0.70357799E+02</rscale>
<asrwt>0</asrwt>
<pdfrwt beam="1">  1       21 0.27915821E+00 0.70357799E+02</pdfrwt>
<pdfrwt beam="2">  1       21 0.43537881E-03 0.70357799E+02</pdfrwt>
<totfact> 0.68228026E+05</totfact>
</mgrwt>
</event>
<event>
 5    1  0.1959123E+000  0.9446207E+02  0.7546771E-02  0.1292392E+00
         21   -1    0    0  503  502  0.00000000000E+00  0.00000000000E+00  0.13570199628E+03  0.13570199628E+03  0.00000000000E+00 0. -1.
         21   -1    0    0  501  503 -0.00000000000E+00 -0.00000000000E+00 -0.13631609474E+03  0.13631609474E+03  0.00000000000E+00 0. -1.
         24    1    1    2    0    0  0.11057765662E+02  0.51474592200E+02  0.76408854789E+02  0.12279021487E+03  0.80419002446E+02 0. -1.
          1    1    1    2  501    0 -0.17085698160E+02 -0.70658626271E+02 -0.96777567784E+02  0.12103908532E+03  0.00000000000E+00 0. -1.
         -2    1    1    2    0  502  0.60279324981E+01  0.19184034070E+02  0.19754614536E+02  0.28188790837E+02  0.00000000000E+00 0.  1.
<mgrwt>
<rscale>  2 0.94462070E+02</rscale>
<asrwt>0</asrwt>
<pdfrwt beam="1">  1       21 0.20877230E-01 0.94462070E+02</pdfrwt>
<pdfrwt beam="2">  1       21 0.20971707E-01 0.94462070E+02</pdfrwt>
<totfact> 0.45512184E+05</totfact>
</mgrwt>
</event>
<event>
 5    1  0.1959123E+000  0.8664810E+02  0.7546771E-02  0.1311178E+00
         21   -1    0    0  503  502  0.00000000000E+00  0.00000000000E+00  0.38897304434E+02  0.38897304434E+02  0.00000000000E+00 0.  1.
         21   -1    0    0  501  503 -0.00000000000E+00 -0.00000000000E+00 -0.14013213036E+04  0.14013213036E+04  0.00000000000E+00 0. -1.
         24    1    1    2    0    0  0.90019445099E+00  0.77367109649E+01 -0.28171072087E+03  0.29306793283E+03  0.80419002446E+02 0.  1.
          1    1    1    2  501    0 -0.31629685066E+01 -0.50038622634E+02 -0.10996186950E+04  0.11007611650E+04  0.00000000000E+00 0. -1.
         -2    1    1    2    0  502  0.22627740556E+01  0.42301911669E+02  0.18905416648E+02  0.46389510193E+02  0.00000000000E+00 0.  1.
<mgrwt>
<rscale>  2 0.86648096E+02</rscale>
<asrwt>0</asrwt>
<pdfrwt beam="1">  1       21 0.59842008E-02 0.86648096E+02</pdfrwt>
<pdfrwt beam="2">  1       21 0.21558789E+00 0.86648096E+02</pdfrwt>
<totfact> 0.23649669E+04</totfact>
</mgrwt>
</event>
<event>
 5    1  0.1959123E+000  0.7378908E+02  0.7546771E-02  0.1347662E+00
         21   -1    0    0  501  502  0.00000000000E+00  0.00000000000E+00  0.12731079573E+02  0.12731079573E+02  0.00000000000E+00 0. -1.
         21   -1    0    0  502  503 -0.00000000000E+00 -0.00000000000E+00 -0.45767706867E+03  0.45767706867E+03  0.00000000000E+00 0. -1.
         24    1    1    2    0    0 -0.21975893307E+02 -0.80764093627E+01 -0.22071875460E+03  0.23607658262E+03  0.80419002446E+02 0. -1.
          1    1    1    2  501    0  0.15304027121E+02  0.33875694263E+02 -0.88108092595E+02  0.95628509811E+02  0.00000000000E+00 0. -1.
         -2    1    1    2    0  503  0.66718661865E+01 -0.25799284901E+02 -0.13611914191E+03  0.13870305582E+03  0.00000000000E+00 0.  1.
<mgrwt>
<rscale>  2 0.73789078E+02</rscale>
<asrwt>0</asrwt>
<pdfrwt beam="1">  1       21 0.19586280E-02 0.73789078E+02</pdfrwt>
<pdfrwt beam="2">  1       21 0.70411842E-01 0.73789078E+02</pdfrwt>
<totfact> 0.22784807E+06</totfact>
</mgrwt>
</event>
<event>
 5    1  0.1959123E+000  0.1229513E+03  0.7546771E-02  0.1238306E+00
         21   -1    0    0  503  502  0.00000000000E+00  0.00000000000E+00  0.91672893664E+03  0.91672893664E+03  0.00000000000E+00 0. -1.
         21   -1    0    0  501  503 -0.00000000000E+00 -0.00000000000E+00 -0.20323099213E+02  0.20323099213E+02  0.00000000000E+00 0.  1.
         24    1    1    2    0    0  0.24171744544E+02 -0.35428379821E+01  0.13852625376E+03  0.16202951543E+03  0.80419002446E+02 0.  1.
          1    1    1    2  501    0  0.33404370155E+02  0.67796214769E+02  0.33244058709E+03  0.34092363166E+03  0.00000000000E+00 0. -1.
         -2    1    1    2    0  502 -0.57576114699E+02 -0.64253376787E+02  0.42543899658E+03  0.43409888876E+03  0.00000000000E+00 0.  1.
<mgrwt>
<rscale>  2 0.12295128E+03</rscale>
<asrwt>0</asrwt>
<pdfrwt beam="1">  1       21 0.14103519E+00 0.12295128E+03</pdfrwt>
<pdfrwt beam="2">  1       21 0.31266314E-02 0.12295128E+03</pdfrwt>
<totfact> 0.21294165E+05</totfact>
</mgrwt>
</event>
<event>
 5    1  0.1959123E+000  0.6762499E+02  0.7546771E-02  0.1368361E+00
         21   -1    0    0  501  502  0.00000000000E+00  0.00000000000E+00  0.25005608540E+02  0.25005608540E+02  0.00000000000E+00 0.  1.
         21   -1    0    0  502  503 -0.00000000000E+00 -0.00000000000E+00 -0.28422837608E+03  0.28422837608E+03  0.00000000000E+00 0.  1.
         24    1    1    2    0    0  0.21782152802E+02  0.12105702510E+02 -0.10222554125E+03  0.13243219945E+03  0.80419002446E+02 0.  1.
          1    1    1    2  501    0 -0.23938869490E+02  0.12054146769E+02 -0.11279721323E+02  0.29079271654E+02  0.00000000000E+00 0. -1.
         -2    1    1    2    0  503  0.21567166887E+01 -0.24159849279E+02 -0.14571750497E+03  0.14772251351E+03  0.00000000000E+00 0.  1.
<mgrwt>
<rscale>  2 0.67624993E+02</rscale>
<asrwt>0</asrwt>
<pdfrwt beam="1">  1       21 0.38470167E-02 0.67624993E+02</pdfrwt>
<pdfrwt beam="2">  1       21 0.43727442E-01 0.67624993E+02</pdfrwt>
<totfact> 0.20438891E+06</totfact>
</mgrwt>
</event>
<event>
 5    1  0.1959123E+000  0.1116681E+03  0.7546771E-02  0.1257512E+00
         21   -1    0    0  503  502  0.00000000000E+00  0.00000000000E+00  0.21649880235E+03  0.21649880235E+03  0.00000000000E+00 0. -1.
         21   -1    0    0  501  503 -0.00000000000E+00 -0.00000000000E+00 -0.80540095391E+02  0.80540095391E+02  0.00000000000E+00 0. -1.
         24    1    1    2    0    0 -0.79045922515E+02  0.56119890135E+02  0.26520983361E+02  0.12871782490E+03  0.80419002446E+02 0. -1.
          1    1    1    2  501    0  0.58115320695E+02 -0.46074937597E+02  0.21278412550E+02  0.77156083459E+02  0.00000000000E+00 0. -1.
         -2    1    1    2    0  502  0.20930601820E+02 -0.10044952539E+02  0.88159311048E+02  0.91164989379E+02  0.00000000000E+00 0.  1.
<mgrwt>
<rscale>  2 0.11166807E+03</rscale>
<asrwt>0</asrwt>
<pdfrwt beam="1">  1       21 0.33307508E-01 0.11166807E+03</pdfrwt>
<pdfrwt beam="2">  1       21 0.12390784E-01 0.11166807E+03</pdfrwt>
<totfact> 0.48571279E+05</totfact>
</mgrwt>
</event>
<event>
 5    1  0.1959123E+000  0.8972360E+02  0.7546771E-02  0.1303522E+00
         21   -1    0    0  503  502  0.00000000000E+00  0.00000000000E+00  0.58879707166E+03  0.58879707166E+03  0.00000000000E+00 0.  1.
         21   -1    0    0  501  503 -0.00000000000E+00 -0.00000000000E+00 -0.13862880073E+02  0.13862880073E+02  0.00000000000E+00 0. -1.
         24    1    1    2    0    0  0.47624119894E+02  0.31766922106E+01  0.32842053375E+03  0.34147534481E+03  0.80419002446E+02 0.  1.
          1    1    1    2  501    0 -0.61031312875E+02 -0.20176547827E+02  0.17332047076E+03  0.18485643028E+03  0.00000000000E+00 0. -1.
         -2    1    1    2    0  502  0.13407192981E+02  0.16999855616E+02  0.73193187087E+02  0.76328176649E+02  0.00000000000E+00 0.  1.
<mgrwt>
<rscale>  2 0.89723603E+02</rscale>
<asrwt>0</asrwt>
<pdfrwt beam="1">  1       21 0.90584145E-01 0.89723603E+02</pdfrwt>
<pdfrwt beam="2">  1       21 0.21327512E-02 0.89723603E+02</pdfrwt>
<totfact> 0.11481852E+06</totfact>
</mgrwt>
</event>
<event>
 5    1  0.1959123E+000  0.6298862E+02  0.7546771E-02  0.1385701E+00
         21   -1    0    0  501  502  0.00000000000E+00  0.00000000000E+00  0.33796899229E+03  0.33796899229E+03  0.00000000000E+00 0.  1.
         21   -1    0    0  502  503 -0.00000000000E+00 -0.00000000000E+00 -0.12875060842E+02  0.12875060842E+02  0.00000000000E+00 0. -1.
         24    1    1    2    0    0  0.80922101942E+01 -0.61338183536E+01  0.20386071051E+03  0.21938439515E+03  0.80419002446E+02 0.  0.
          1    1    1    2  501    0  0.35369284788E+01  0.23639909633E+02  0.94380129934E+02  0.97359971841E+02  0.00000000000E+00 0. -1.
         -2    1    1    2    0  503 -0.11629138673E+02 -0.17506091279E+02  0.26853091009E+02  0.34099686140E+02  0.00000000000E+00 0.  1.
<mgrwt>
<rscale>  2 0.62988616E+02</rscale>
<asrwt>0</asrwt>
<pdfrwt beam="1">  1       21 0.51995223E-01 0.62988616E+02</pdfrwt>
<pdfrwt beam="2">  1       21 0.19807788E-02 0.62988616E+02</pdfrwt>
<totfact> 0.41762786E+06</totfact>
</mgrwt>
</event>
<event>
 5    1  0.2265197E+000  0.7722898E+02  0.7546771E-02  0.1337104E+00
         21   -1    0    0  503  502  0.00000000000E+00  0.00000000000E+00  0.28152168441E+03  0.28152168441E+03  0.00000000000E+00 0. -1.
         21   -1    0    0  501  503 -0.00000000000E+00 -0.00000000000E+00 -0.14944232503E+03  0.14944232503E+03  0.00000000000E+00 0. -1.
         24    1    1    2    0    0 -0.55198311493E+01 -0.13827839052E+02  0.12740700601E+03  0.15139827873E+03  0.80419002446E+02 0. -1.
          1    1    1    2  501    0 -0.31669459749E+02 -0.30820148059E+01 -0.13258910297E+03  0.13635367147E+03  0.00000000000E+00 0. -1.
         -2    1    1    2    0  502  0.37189290898E+02  0.16909853858E+02  0.13726145635E+03  0.14321205924E+03  0.00000000000E+00 0.  1.
<mgrwt>
<rscale>  2 0.77228981E+02</rscale>
<asrwt>0</asrwt>
<pdfrwt beam="1">  1       21 0.43311028E-01 0.77228981E+02</pdfrwt>
<pdfrwt beam="2">  1       21 0.22991127E-01 0.77228981E+02</pdfrwt>
<totfact> 0.95813489E+04</totfact>
</mgrwt>
</event>
<event>
 5    1  0.1959123E+000  0.7970098E+02  0.7546771E-02  0.1329902E+00
         21   -1    0    0  503  502  0.00000000000E+00  0.00000000000E+00  0.19350755336E+02  0.19350755336E+02  0.00000000000E+00 0. -1.
         21   -1    0    0  501  503 -0.00000000000E+00 -0.00000000000E+00 -0.40077644101E+03  0.40077644101E+03  0.00000000000E+00 0.  1.
         24    1    1    2    0    0  0.59325393848E+02 -0.58865827297E+00 -0.17114164724E+03  0.19818306751E+03  0.80419002446E+02 0. -1.
          1    1    1    2  501    0 -0.24725242366E+02  0.22445198920E+01 -0.15299890837E+03  0.15500013368E+03  0.00000000000E+00 0. -1.
         -2    1    1    2    0  502 -0.34600151482E+02 -0.16558616190E+01 -0.57285130070E+02  0.66943995156E+02  0.00000000000E+00 0.  1.
<mgrwt>
<rscale>  2 0.79700982E+02</rscale>
<asrwt>0</asrwt>
<pdfrwt beam="1">  1       21 0.29770395E-02 0.79700982E+02</pdfrwt>
<pdfrwt beam="2">  1       21 0.61657909E-01 0.79700982E+02</pdfrwt>
<totfact> 0.15471601E+06</totfact>
</mgrwt>
</event>
<event>
 5    1  0.1959123E+000  0.1013189E+03  0.7546771E-02  0.1277547E+00
         21   -1    0    0  503  502  0.00000000000E+00  0.00000000000E+00  0.25141684650E+02  0.25141684650E+02  0.00000000000E+00 0.  1.
         21   -1    0    0  501  503 -0.00000000000E+00 -0.00000000000E+00 -0.15747864447E+04  0.15747864447E+04  0.00000000000E+00 0. -1.
         24    1    1    2    0    0 -0.65018769562E+02  0.14932693654E+02 -0.19351033437E+03  0.21991791923E+03  0.80419002446E+02 0.  1.
          1    1    1    2  501    0  0.17209503147E+02  0.28673476644E+02 -0.12785300718E+04  0.12789673490E+04  0.00000000000E+00 0. -1.
         -2    1    1    2    0  502  0.47809266415E+02 -0.43606170298E+02 -0.77604353809E+02  0.10104286107E+03  0.00000000000E+00 0.  1.
<mgrwt>
<rscale>  2 0.10131890E+03</rscale>
<asrwt>0</asrwt>
<pdfrwt beam="1">  1       21 0.38679517E-02 0.10131890E+03</pdfrwt>
<pdfrwt beam="2">  1       21 0.24227482E+00 0.10131890E+03</pdfrwt>
<totfact> 0.33523595E+04</totfact>
</mgrwt>
</event>
<event>
 5    1  0.1959123E+000  0.1150999E+03  0.7546771E-02  0.1251407E+00
         21   -1    0    0  503  502  0.00000000000E+00  0.00000000000E+00  0.96508558386E+02  0.96508558386E+02  0.00000000000E+00 0.  1.
         21   -1    0    0  501  503 -0.00000000000E+00 -0.00000000000E+00 -0.29886593103E+03  0.29886593103E+03  0.00000000000E+00 0. -1.
         24    1    1    2    0    0  0.62312882098E+02  0.15754167028E+02 -0.18834010964E+03  0.21463993549E+03  0.80419002446E+02 0. -1.
          1    1    1    2  501    0  0.23882690406E+02 -0.31601873434E+02 -0.67355127195E+02  0.78139455239E+02  0.00000000000E+00 0. -1.
         -2    1    1    2    0  502 -0.86195572504E+02  0.15847706405E+02  0.53337864192E+02  0.10259509868E+03  0.00000000000E+00 0.  1.
<mgrwt>
<rscale>  2 0.11509989E+03</rscale>
<asrwt>0</asrwt>
<pdfrwt beam="1">  1       21 0.14847471E-01 0.11509989E+03</pdfrwt>
<pdfrwt beam="2">  1       21 0.45979373E-01 0.11509989E+03</pdfrwt>
<totfact> 0.18530713E+05</totfact>
</mgrwt>
</event>
<event>
 5    1  0.1959123E+000  0.8301463E+02  0.7546771E-02  0.1320708E+00
         21   -1    0    0  501  502  0.00000000000E+00  0.00000000000E+00  0.17104922736E+04  0.17104922736E+04  0.00000000000E+00 0. -1.
         21   -1    0    0  502  503 -0.00000000000E+00 -0.00000000000E+00 -0.19802264082E+02  0.19802264082E+02  0.00000000000E+00 0.  1.
         24    1    1    2    0    0  0.14447286567E+02 -0.17618039510E+02  0.13093819502E+04  0.13120470369E+04  0.80419002446E+02 0. -1.
          1    1    1    2  501    0 -0.30539607069E+02 -0.23341128062E+02  0.37108269121E+03  0.37306814334E+03  0.00000000000E+00 0. -1.
         -2    1    1    2    0  503  0.16092320502E+02  0.40959167573E+02  0.10225368045E+02  0.45179357444E+02  0.00000000000E+00 0.  1.
<mgrwt>
<rscale>  2 0.83014625E+02</rscale>
<asrwt>0</asrwt>
<pdfrwt beam="1">  1       21 0.26315254E+00 0.83014625E+02</pdfrwt>
<pdfrwt beam="2">  1       21 0.30465035E-02 0.83014625E+02</pdfrwt>
<totfact> 0.38926101E+04</totfact>
</mgrwt>
</event>
<event>
 5    1  0.1959123E+000  0.7000691E+02  0.7546771E-02  0.1360070E+00
         21   -1    0    0  501  502  0.00000000000E+00  0.00000000000E+00  0.48847290758E+02  0.48847290758E+02  0.00000000000E+00 0.  1.
         21   -1    0    0  502  503 -0.00000000000E+00 -0.00000000000E+00 -0.11013295012E+03  0.11013295012E+03  0.00000000000E+00 0. -1.
         24    1    1    2    0    0 -0.10081242458E+02  0.40662401067E+02 -0.47662863832E+02  0.10244035754E+03  0.80419002446E+02 0. -1.
          1    1    1    2  501    0 -0.68233688941E+01 -0.26250692552E+02  0.49664895146E+01  0.27573959466E+02  0.00000000000E+00 0. -1.
         -2    1    1    2    0  503  0.16904611353E+02 -0.14411708515E+02 -0.18589285044E+02  0.28965923871E+02  0.00000000000E+00 0.  1.
<mgrwt>
<rscale>  2 0.70006907E+02</rscale>
<asrwt>0</asrwt>
<pdfrwt beam="1">  1       21 0.75149678E-02 0.70006907E+02</pdfrwt>
<pdfrwt beam="2">  1       21 0.16943531E-01 0.70006907E+02</pdfrwt>
<totfact> 0.40018543E+06</totfact>
</mgrwt>
</event>
<event>
 5    1  0.1959123E+000  0.8578381E+02  0.7546771E-02  0.1313395E+00
         21   -1    0    0  501  502  0.00000000000E+00  0.00000000000E+00  0.28799172713E+02  0.28799172713E+02  0.00000000000E+00 0. -1.
         21   -1    0    0  502  503 -0.00000000000E+00 -0.00000000000E+00 -0.31348758277E+03  0.31348758277E+03  0.00000000000E+00 0. -1.
         24    1    1    2    0    0  0.61203422236E+01  0.60807641625E+02 -0.12006480919E+03  0.15690061259E+03  0.80419002446E+02 0. -1.
          1    1    1    2  501    0  0.14686610697E+02 -0.20740429827E+02 -0.15939913411E+02  0.29999046697E+02  0.00000000000E+00 0. -1.
         -2    1    1    2    0  503 -0.20806952921E+02 -0.40067211798E+02 -0.14868368745E+03  0.15538709620E+03  0.00000000000E+00 0.  1.
<mgrwt>
<rscale>  2 0.85783813E+02</rscale>
<asrwt>0</asrwt>
<pdfrwt beam="1">  1       21 0.44306421E-02 0.85783813E+02</pdfrwt>
<pdfrwt beam="2">  1       21 0.48228858E-01 0.85783813E+02</pdfrwt>
<totfact> 0.13434536E+06</totfact>
</mgrwt>
</event>
<event>
 5    1  0.1959123E+000  0.8859431E+02  0.7546771E-02  0.1306292E+00
         21   -1    0    0  501  502  0.00000000000E+00  0.00000000000E+00  0.44427019906E+03  0.44427019906E+03  0.00000000000E+00 0. -1.
         21   -1    0    0  502  503 -0.00000000000E+00 -0.00000000000E+00 -0.27388894595E+02  0.27388894595E+02  0.00000000000E+00 0.  1.
         24    1    1    2    0    0 -0.17932571422E+02 -0.33187533596E+02  0.72098426867E+02  0.11440449561E+03  0.80419002446E+02 0.  0.
          1    1    1    2  501    0 -0.31302606049E+02  0.20829112704E+02  0.20767715090E+03  0.21105332049E+03  0.00000000000E+00 0. -1.
         -2    1    1    2    0  503  0.49235177471E+02  0.12358420892E+02  0.13710572669E+03  0.14620127756E+03  0.00000000000E+00 0.  1.
<mgrwt>
<rscale>  2 0.88594308E+02</rscale>
<asrwt>0</asrwt>
<pdfrwt beam="1">  1       21 0.68349256E-01 0.88594308E+02</pdfrwt>
<pdfrwt beam="2">  1       21 0.42136764E-02 0.88594308E+02</pdfrwt>
<totfact> 0.70586043E+05</totfact>
</mgrwt>
</event>
<event>
 5    1  0.1959123E+000  0.1187023E+03  0.7546771E-02  0.1245253E+00
         21   -1    0    0  501  502  0.00000000000E+00  0.00000000000E+00  0.27531068176E+03  0.27531068176E+03  0.00000000000E+00 0.  1.
         21   -1    0    0  502  503 -0.00000000000E+00 -0.00000000000E+00 -0.57480193002E+02  0.57480193002E+02  0.00000000000E+00 0. -1.
         24    1    1    2    0    0  0.32852889697E+02 -0.45409963189E+02  0.91574877525E+02  0.13414377088E+03  0.80419002446E+02 0.  1.
          1    1    1    2  501    0  0.19208074138E+02 -0.37124320827E+02  0.80855596109E+02  0.91020836797E+02  0.00000000000E+00 0. -1.
         -2    1    1    2    0  503 -0.52060963835E+02  0.82534284016E+02  0.45400015129E+02  0.10762626709E+03  0.00000000000E+00 0.  1.
<mgrwt>
<rscale>  2 0.11870228E+03</rscale>
<asrwt>0</asrwt>
<pdfrwt beam="1">  1       21 0.42355489E-01 0.11870228E+03</pdfrwt>
<pdfrwt beam="2">  1       21 0.88431067E-02 0.11870228E+03</pdfrwt>
<totfact> 0.54478519E+05</totfact>
</mgrwt>
</event>
<event>
 5    1  0.1959123E+000  0.8290391E+02  0.7546771E-02  0.1321007E+00
         21   -1    0    0  501  502  0.00000000000E+00  0.00000000000E+00  0.24703823823E+03  0.24703823823E+03  0.00000000000E+00 0. -1.
         21   -1    0    0  502  503 -0.00000000000E+00 -0.00000000000E+00 -0.83553708956E+02  0.83553708956E+02  0.00000000000E+00 0. -1.
         24    1    1    2    0    0 -0.97160097263E+01  0.59289758399E+02  0.50105483096E+01  0.10050869537E+03  0.80419002446E+02 0. -1.
          1    1    1    2  501    0 -0.64137815975E+01 -0.38902815613E+02  0.18721956158E+03  0.19132623943E+03  0.00000000000E+00 0. -1.
         -2    1    1    2    0  503  0.16129791324E+02 -0.20386942786E+02 -0.28745580614E+02  0.38757012387E+02  0.00000000000E+00 0.  1.
<mgrwt>
<rscale>  2 0.82903907E+02</rscale>
<asrwt>0</asrwt>
<pdfrwt beam="1">  1       21 0.38005882E-01 0.82903907E+02</pdfrwt>
<pdfrwt beam="2">  1       21 0.12854417E-01 0.82903907E+02</pdfrwt>
<totfact> 0.35267318E+05</totfact>
</mgrwt>
</event>
<event>
 5    1  0.1959123E+000  0.6953737E+02  0.7546771E-02  0.1361673E+00
         21   -1    0    0  503  502  0.00000000000E+00  0.00000000000E+00  0.33013126670E+01  0.33013126670E+01  0.00000000000E+00 0.  1.
         21   -1    0    0  501  503 -0.00000000000E+00 -0.00000000000E+00 -0.15518287423E+04  0.15518287423E+04  0.00000000000E+00 0. -1.
         24    1    1    2    0    0  0.28743475704E+00 -0.25845371353E+02 -0.11075109820E+04  0.11107276250E+04  0.80419002446E+02 0. -1.
          1    1    1    2  501    0 -0.24172413615E+02  0.11848202687E+02 -0.23387169444E+03  0.23541591906E+03  0.00000000000E+00 0. -1.
         -2    1    1    2    0  502  0.23884978858E+02  0.13997168666E+02 -0.20714475325E+03  0.20898651092E+03  0.00000000000E+00 0.  1.
<mgrwt>
<rscale>  2 0.69537372E+02</rscale>
<asrwt>0</asrwt>
<pdfrwt beam="1">  1       21 0.50789504E-03 0.69537372E+02</pdfrwt>
<pdfrwt beam="2">  1       21 0.23874252E+00 0.69537372E+02</pdfrwt>
<totfact> 0.89804242E+05</totfact>
</mgrwt>
</event>
<event>
 5    1  0.1959123E+000  0.7568213E+02  0.7546771E-02  0.1341772E+00
         21   -1    0    0  503  502  0.00000000000E+00  0.00000000000E+00  0.38887740336E+03  0.38887740336E+03  0.00000000000E+00 0.  1.
         21   -1    0    0  501  503 -0.00000000000E+00 -0.00000000000E+00 -0.30658661393E+02  0.30658661393E+02  0.00000000000E+00 0.  1.
         24    1    1    2    0    0 -0.23171793015E+02 -0.16841796736E+02  0.89996747680E+02  0.12404518796E+03  0.80419002446E+02 0.  1.
          1    1    1    2  501    0  0.18016686361E+02 -0.21077050546E+02  0.34200888080E+01  0.27938146943E+02  0.00000000000E+00 0. -1.
         -2    1    1    2    0  502  0.51551066535E+01  0.37918847283E+02  0.26480190547E+03  0.26755272984E+03  0.00000000000E+00 0.  1.
<mgrwt>
<rscale>  2 0.75682130E+02</rscale>
<asrwt>0</asrwt>
<pdfrwt beam="1">  1       21 0.59827290E-01 0.75682130E+02</pdfrwt>
<pdfrwt beam="2">  1       21 0.47167174E-02 0.75682130E+02</pdfrwt>
<totfact> 0.77573764E+05</totfact>
</mgrwt>
</event>
<event>
 5    1  0.1959123E+000  0.6872059E+02  0.7546771E-02  0.1364499E+00
         21   -1    0    0  503  502  0.00000000000E+00  0.00000000000E+00  0.32113234963E+03  0.32113234963E+03  0.00000000000E+00 0. -1.
         21   -1    0    0  501  503 -0.00000000000E+00 -0.00000000000E+00 -0.17053465023E+02  0.17053465023E+02  0.00000000000E+00 0.  1.
         24    1    1    2    0    0  0.10051292670E+02 -0.22211283267E+02  0.11996564989E+03  0.14646959649E+03  0.80419002446E+02 0.  0.
          1    1    1    2  501    0 -0.28635242526E+02  0.72207620626E+01  0.97793316733E+02  0.10215502590E+03  0.00000000000E+00 0. -1.
         -2    1    1    2    0  502  0.18583949857E+02  0.14990521205E+02  0.86319917981E+02  0.89561192257E+02  0.00000000000E+00 0.  1.
<mgrwt>
<rscale>  2 0.68720593E+02</rscale>
<asrwt>0</asrwt>
<pdfrwt beam="1">  1       21 0.49404972E-01 0.68720593E+02</pdfrwt>
<pdfrwt beam="2">  1       21 0.26236102E-02 0.68720593E+02</pdfrwt>
<totfact> 0.29749505E+06</totfact>
</mgrwt>
</event>
<event>
 5    1  0.1959123E+000  0.7237151E+02  0.7546771E-02  0.1352209E+00
         21   -1    0    0  501  502  0.00000000000E+00  0.00000000000E+00  0.78102413097E+02  0.78102413097E+02  0.00000000000E+00 0. -1.
         21   -1    0    0  502  503 -0.00000000000E+00 -0.00000000000E+00 -0.96770314960E+02  0.96770314960E+02  0.00000000000E+00 0. -1.
         24    1    1    2    0    0  0.40997659504E+01  0.48644328993E+02 -0.51998389977E+02  0.10749012670E+03  0.80419002446E+02 0. -1.
          1    1    1    2  501    0 -0.82508500289E+01 -0.18739781212E+02  0.30933488849E+02  0.37096315969E+02  0.00000000000E+00 0. -1.
         -2    1    1    2    0  503  0.41510840785E+01 -0.29904547781E+02  0.23969992640E+01  0.30286285386E+02  0.00000000000E+00 0.  1.
<mgrwt>
<rscale>  2 0.72371513E+02</rscale>
<asrwt>0</asrwt>
<pdfrwt beam="1">  1       21 0.12015756E-01 0.72371513E+02</pdfrwt>
<pdfrwt beam="2">  1       21 0.14887741E-01 0.72371513E+02</pdfrwt>
<totfact> 0.22570653E+06</totfact>
</mgrwt>
</event>
<event>
 5    1  0.1959123E+000  0.1073370E+03  0.7546771E-02  0.1265582E+00
         21   -1    0    0  503  502  0.00000000000E+00  0.00000000000E+00  0.57682392519E+03  0.57682392519E+03  0.00000000000E+00 0. -1.
         21   -1    0    0  501  503 -0.00000000000E+00 -0.00000000000E+00 -0.22804934277E+02  0.22804934277E+02  0.00000000000E+00 0.  1.
         24    1    1    2    0    0 -0.12106316670E+02 -0.45463917193E+01  0.12654772714E+03  0.15049510218E+03  0.80419002446E+02 0.  1.
          1    1    1    2  501    0  0.64588561613E+02  0.34050974167E+02  0.17577186681E+03  0.19033365519E+03  0.00000000000E+00 0. -1.
         -2    1    1    2    0  502 -0.52482244943E+02 -0.29504582448E+02  0.25169939695E+03  0.25880010210E+03  0.00000000000E+00 0.  1.
<mgrwt>
<rscale>  2 0.10733703E+03</rscale>
<asrwt>0</asrwt>
<pdfrwt beam="1">  1       21 0.88742131E-01 0.10733703E+03</pdfrwt>
<pdfrwt beam="2">  1       21 0.35084519E-02 0.10733703E+03</pdfrwt>
<totfact> 0.53632308E+05</totfact>
</mgrwt>
</event>
<event>
 5    1  0.1959123E+000  0.6578967E+02  0.7546771E-02  0.1375025E+00
         21   -1    0    0  503  502  0.00000000000E+00  0.00000000000E+00  0.41361078098E+03  0.41361078098E+03  0.00000000000E+00 0.  1.
         21   -1    0    0  501  503 -0.00000000000E+00 -0.00000000000E+00 -0.26859180198E+02  0.26859180198E+02  0.00000000000E+00 0.  1.
         24    1    1    2    0    0 -0.23771713605E+02  0.19152086588E+02  0.80753987187E+02  0.11798440231E+03  0.80419002446E+02 0.  1.
          1    1    1    2  501    0 -0.76379334859E-01 -0.21588848693E+02  0.72442900326E+01  0.22771999468E+02  0.00000000000E+00 0. -1.
         -2    1    1    2    0  502  0.23848092939E+02  0.24367621044E+01  0.29875332356E+03  0.29971355940E+03  0.00000000000E+00 0.  1.
<mgrwt>
<rscale>  2 0.65789671E+02</rscale>
<asrwt>0</asrwt>
<pdfrwt beam="1">  1       21 0.63632423E-01 0.65789671E+02</pdfrwt>
<pdfrwt beam="2">  1       21 0.41321819E-02 0.65789671E+02</pdfrwt>
<totfact> 0.84513028E+05</totfact>
</mgrwt>
</event>
<event>
 5    1  0.1959123E+000  0.6216653E+02  0.7546771E-02  0.1388958E+00
         21   -1    0    0  501  502  0.00000000000E+00  0.00000000000E+00  0.97673139780E+02  0.97673139780E+02  0.00000000000E+00 0. -1.
         21   -1    0    0  502  503 -0.00000000000E+00 -0.00000000000E+00 -0.58354865312E+03  0.58354865312E+03  0.00000000000E+00 0.  1.
         24    1    1    2    0    0 -0.71017210587E+01  0.26950308317E+01 -0.17091174766E+03  0.18903898825E+03  0.80419002446E+02 0.  0.
          1    1    1    2  501    0  0.88580127725E+00 -0.22643920767E+02  0.86884771976E+02  0.89791399326E+02  0.00000000000E+00 0. -1.
         -2    1    1    2    0  503  0.62159197815E+01  0.19948889935E+02 -0.40184853765E+03  0.40239140533E+03  0.00000000000E+00 0.  1.
<mgrwt>
<rscale>  2 0.62166527E+02</rscale>
<asrwt>0</asrwt>
<pdfrwt beam="1">  1       21 0.15026637E-01 0.62166527E+02</pdfrwt>
<pdfrwt beam="2">  1       21 0.89776715E-01 0.62166527E+02</pdfrwt>
<totfact> 0.45166796E+04</totfact>
</mgrwt>
</event>
<event>
 5    1  0.1959123E+000  0.1097349E+03  0.7546771E-02  0.1261062E+00
         21   -1    0    0  503  502  0.00000000000E+00  0.00000000000E+00  0.94065643657E+03  0.94065643657E+03  0.00000000000E+00 0. -1.
         21   -1    0    0  501  503 -0.00000000000E+00 -0.00000000000E+00 -0.13974886887E+02  0.13974886887E+02  0.00000000000E+00 0.  1.
         24    1    1    2    0    0  0.17876638023E+02  0.19178020939E+02  0.49400275930E+03  0.50119189222E+03  0.80419002446E+02 0. -1.
          1    1    1    2  501    0  0.21883296217E+02  0.50289165457E+02  0.15300362625E+03  0.16253611433E+03  0.00000000000E+00 0. -1.
         -2    1    1    2    0  502 -0.39759934240E+02 -0.69467186397E+02  0.27967516414E+03  0.29090331691E+03  0.00000000000E+00 0.  1.
<mgrwt>
<rscale>  2 0.10973490E+03</rscale>
<asrwt>0</asrwt>
<pdfrwt beam="1">  1       21 0.14471633E+00 0.10973490E+03</pdfrwt>
<pdfrwt beam="2">  1       21 0.21499833E-02 0.10973490E+03</pdfrwt>
<totfact> 0.36838900E+05</totfact>
</mgrwt>
</event>
<event>
 5    1  0.1959123E+000  0.8282816E+02  0.7546771E-02  0.1321212E+00
         21   -1    0    0  503  502  0.00000000000E+00  0.00000000000E+00  0.93747575610E+01  0.93747575610E+01  0.00000000000E+00 0.  1.
         21   -1    0    0  501  503 -0.00000000000E+00 -0.00000000000E+00 -0.13918756449E+04  0.13918756449E+04  0.00000000000E+00 0.  1.
         24    1    1    2    0    0 -0.51364668007E+02  0.20136540964E+02 -0.11704063988E+04  0.11744624999E+04  0.80419002446E+02 0.  1.
          1    1    1    2  501    0  0.13018691195E+02 -0.26250551828E+02 -0.15496771293E+03  0.15771356898E+03  0.00000000000E+00 0. -1.
         -2    1    1    2    0  502  0.38345976812E+02  0.61140108633E+01 -0.57126775667E+02  0.69074333617E+02  0.00000000000E+00 0.  1.
<mgrwt>
<rscale>  2 0.82828160E+02</rscale>
<asrwt>0</asrwt>
<pdfrwt beam="1">  1       21 0.14422700E-02 0.82828160E+02</pdfrwt>
<pdfrwt beam="2">  1       21 0.21413477E+00 0.82828160E+02</pdfrwt>
<totfact> 0.24417182E+05</totfact>
</mgrwt>
</event>
<event>
 5    1  0.1959123E+000  0.1367077E+03  0.7546771E-02  0.1217829E+00
         21   -1    0    0  503  502  0.00000000000E+00  0.00000000000E+00  0.15557443060E+04  0.15557443060E+04  0.00000000000E+00 0.  1.
         21   -1    0    0  501  503 -0.00000000000E+00 -0.00000000000E+00 -0.24796644160E+02  0.24796644160E+02  0.00000000000E+00 0. -1.
         24    1    1    2    0    0 -0.70261355827E+02 -0.55604087619E+02  0.69278982886E+03  0.70317383030E+03  0.80419002446E+02 0. -1.
          1    1    1    2  501    0 -0.12661462884E+02  0.68003934674E+02  0.51462104806E+02  0.86215984623E+02  0.00000000000E+00 0. -1.
         -2    1    1    2    0  502  0.82922818711E+02 -0.12399847055E+02  0.78669572821E+03  0.79115113528E+03  0.00000000000E+00 0.  1.
<mgrwt>
<rscale>  2 0.13670772E+03</rscale>
<asrwt>0</asrwt>
<pdfrwt beam="1">  1       21 0.23934520E+00 0.13670772E+03</pdfrwt>
<pdfrwt beam="2">  1       21 0.38148696E-02 0.13670772E+03</pdfrwt>
<totfact> 0.34237987E+04</totfact>
</mgrwt>
</event>
<event>
 5    1  0.1959123E+000  0.9602646E+02  0.7546771E-02  0.1288881E+00
         21   -1    0    0  501  502  0.00000000000E+00  0.00000000000E+00  0.42309062799E+03  0.42309062799E+03  0.00000000000E+00 0.  1.
         21   -1    0    0  502  503 -0.00000000000E+00 -0.00000000000E+00 -0.26670557496E+02  0.26670557496E+02  0.00000000000E+00 0.  1.
         24    1    1    2    0    0 -0.20499560298E+02  0.41144029183E+02  0.20218309163E+03  0.22239217973E+03  0.80419002446E+02 0.  1.
          1    1    1    2  501    0 -0.31326565893E+02  0.28312197469E+01  0.13033887180E+03  0.13408053937E+03  0.00000000000E+00 0. -1.
         -2    1    1    2    0  503  0.51826126191E+02 -0.43975248930E+02  0.63898107074E+02  0.93288466393E+02  0.00000000000E+00 0.  1.
<mgrwt>
<rscale>  2 0.96026465E+02</rscale>
<asrwt>0</asrwt>
<pdfrwt beam="1">  1       21 0.65090861E-01 0.96026465E+02</pdfrwt>
<pdfrwt beam="2">  1       21 0.41031630E-02 0.96026465E+02</pdfrwt>
<totfact> 0.81915955E+05</totfact>
</mgrwt>
</event>
<event>
 5    1  0.1959123E+000  0.8571612E+02  0.7546771E-02  0.1313570E+00
         21   -1    0    0  501  502  0.00000000000E+00  0.00000000000E+00  0.70236916988E+02  0.70236916988E+02  0.00000000000E+00 0.  1.
         21   -1    0    0  502  503 -0.00000000000E+00 -0.00000000000E+00 -0.23183772735E+03  0.23183772735E+03  0.00000000000E+00 0. -1.
         24    1    1    2    0    0  0.57946792980E+02 -0.23477069844E+01 -0.18705245679E+03  0.21170540874E+03  0.80419002446E+02 0. -1.
          1    1    1    2  501    0 -0.43073728960E+02  0.21413007848E+02  0.39641904635E+02  0.62332524694E+02  0.00000000000E+00 0. -1.
         -2    1    1    2    0  503 -0.14873064020E+02 -0.19065300864E+02 -0.14190258211E+02  0.28036710906E+02  0.00000000000E+00 0.  1.
<mgrwt>
<rscale>  2 0.85716122E+02</rscale>
<asrwt>0</asrwt>
<pdfrwt beam="1">  1       21 0.10805680E-01 0.85716122E+02</pdfrwt>
<pdfrwt beam="2">  1       21 0.35667342E-01 0.85716122E+02</pdfrwt>
<totfact> 0.54084491E+05</totfact>
</mgrwt>
</event>
<event>
 5    1  0.1959123E+000  0.1945086E+03  0.7546771E-02  0.1154457E+00
         21   -1    0    0  501  502  0.00000000000E+00  0.00000000000E+00  0.20015942945E+03  0.20015942945E+03  0.00000000000E+00 0.  1.
         21   -1    0    0  502  503 -0.00000000000E+00 -0.00000000000E+00 -0.35784833511E+03  0.35784833511E+03  0.00000000000E+00 0. -1.
         24    1    1    2    0    0 -0.82734162801E+02 -0.13920511890E+03 -0.25380006301E+03  0.31161626203E+03  0.80419002446E+02 0. -1.
          1    1    1    2  501    0 -0.21154885863E+01 -0.24093312782E+02  0.51706137246E+02  0.57083164258E+02  0.00000000000E+00 0. -1.
         -2    1    1    2    0  503  0.84849651387E+02  0.16329843169E+03  0.44405020099E+02  0.18930833828E+03  0.00000000000E+00 0.  1.
<mgrwt>
<rscale>  2 0.19450856E+03</rscale>
<asrwt>0</asrwt>
<pdfrwt beam="1">  1       21 0.30793759E-01 0.19450856E+03</pdfrwt>
<pdfrwt beam="2">  1       21 0.55053589E-01 0.19450856E+03</pdfrwt>
<totfact> 0.31491437E+04</totfact>
</mgrwt>
</event>
<event>
 5    1  0.1959123E+000  0.8283734E+02  0.7546771E-02  0.1321187E+00
         21   -1    0    0  501  502  0.00000000000E+00  0.00000000000E+00  0.13538006856E+03  0.13538006856E+03  0.00000000000E+00 0. -1.
         21   -1    0    0  502  503 -0.00000000000E+00 -0.00000000000E+00 -0.12374193486E+03  0.12374193486E+03  0.00000000000E+00 0. -1.
         24    1    1    2    0    0  0.44097129180E+02  0.60478132163E+01 -0.60952430966E+02  0.11028847465E+03  0.80419002446E+02 0. -1.
          1    1    1    2  501    0 -0.31518864064E+02  0.25020022021E+02  0.98542882057E+02  0.10644312988E+03  0.00000000000E+00 0. -1.
         -2    1    1    2    0  503 -0.12578265116E+02 -0.31067835237E+02 -0.25952317392E+02  0.42390398886E+02  0.00000000000E+00 0.  1.
<mgrwt>
<rscale>  2 0.82837337E+02</rscale>
<asrwt>0</asrwt>
<pdfrwt beam="1">  1       21 0.20827703E-01 0.82837337E+02</pdfrwt>
<pdfrwt beam="2">  1       21 0.19037221E-01 0.82837337E+02</pdfrwt>
<totfact> 0.54562220E+05</totfact>
</mgrwt>
</event>
<event>
 5    1  0.1959123E+000  0.6958444E+02  0.7546771E-02  0.1361512E+00
         21   -1    0    0  503  502  0.00000000000E+00  0.00000000000E+00  0.10969566553E+04  0.10969566553E+04  0.00000000000E+00 0. -1.
         21   -1    0    0  501  503 -0.00000000000E+00 -0.00000000000E+00 -0.56168710111E+01  0.56168710111E+01  0.00000000000E+00 0.  1.
         24    1    1    2    0    0 -0.29384002531E+02  0.33988034357E+02  0.90252699245E+03  0.90721595783E+03  0.80419002446E+02 0.  0.
          1    1    1    2  501    0  0.83641938238E+01 -0.20328908489E+02  0.55246497612E+02  0.59459227686E+02  0.00000000000E+00 0. -1.
         -2    1    1    2    0  502  0.21019808707E+02 -0.13659125869E+02  0.13356629423E+03  0.13589834080E+03  0.00000000000E+00 0.  1.
<mgrwt>
<rscale>  2 0.69584437E+02</rscale>
<asrwt>0</asrwt>
<pdfrwt beam="1">  1       21 0.16876239E+00 0.69584437E+02</pdfrwt>
<pdfrwt beam="2">  1       21 0.86413488E-03 0.69584437E+02</pdfrwt>
<totfact> 0.10532878E+06</totfact>
</mgrwt>
</event>
<event>
 5    1  0.1959123E+000  0.9061035E+02  0.7546771E-02  0.1301380E+00
         21   -1    0    0  503  502  0.00000000000E+00  0.00000000000E+00  0.68500209269E+02  0.68500209269E+02  0.00000000000E+00 0.  1.
         21   -1    0    0  501  503 -0.00000000000E+00 -0.00000000000E+00 -0.62443928607E+03  0.62443928607E+03  0.00000000000E+00 0. -1.
         24    1    1    2    0    0 -0.47405415140E+02 -0.47935120490E+02 -0.16602266419E+03  0.19640720491E+03  0.80419002446E+02 0. -1.
          1    1    1    2  501    0  0.20117546878E+02  0.44426117905E+02 -0.43822943543E+03  0.44093472728E+03  0.00000000000E+00 0. -1.
         -2    1    1    2    0  502  0.27287868262E+02  0.35090025857E+01  0.48313022823E+02  0.55597563146E+02  0.00000000000E+00 0.  1.
<mgrwt>
<rscale>  2 0.90610348E+02</rscale>
<asrwt>0</asrwt>
<pdfrwt beam="1">  1       21 0.10538493E-01 0.90610348E+02</pdfrwt>
<pdfrwt beam="2">  1       21 0.96067586E-01 0.90610348E+02</pdfrwt>
<totfact> 0.70401275E+04</totfact>
</mgrwt>
</event>
<event>
 5    1  0.1959123E+000  0.1404604E+03  0.7546771E-02  0.1212711E+00
         21   -1    0    0  501  502  0.00000000000E+00  0.00000000000E+00  0.58508465571E+03  0.58508465571E+03  0.00000000000E+00 0. -1.
         21   -1    0    0  502  503 -0.00000000000E+00 -0.00000000000E+00 -0.83824806602E+02  0.83824806602E+02  0.00000000000E+00 0.  1.
         24    1    1    2    0    0 -0.76487603278E+02 -0.41409910382E+01  0.22187534759E+03  0.24811970313E+03  0.80419002446E+02 0. -1.
          1    1    1    2  501    0  0.10801924295E+03 -0.40365350399E+02  0.32802756593E+03  0.34770620122E+03  0.00000000000E+00 0. -1.
         -2    1    1    2    0  503 -0.31531639670E+02  0.44506341437E+02 -0.48643064408E+02  0.73083557955E+02  0.00000000000E+00 0.  1.
<mgrwt>
<rscale>  2 0.14046037E+03</rscale>
<asrwt>0</asrwt>
<pdfrwt beam="1">  1       21 0.90013021E-01 0.14046037E+03</pdfrwt>
<pdfrwt beam="2">  1       21 0.12896124E-01 0.14046037E+03</pdfrwt>
<totfact> 0.55586526E+04</totfact>
</mgrwt>
</event>
<event>
 5    1  0.1959123E+000  0.7088259E+02  0.7546771E-02  0.1357117E+00
         21   -1    0    0  503  502  0.00000000000E+00  0.00000000000E+00  0.22945831076E+03  0.22945831076E+03  0.00000000000E+00 0. -1.
         21   -1    0    0  501  503 -0.00000000000E+00 -0.00000000000E+00 -0.30808524312E+02  0.30808524312E+02  0.00000000000E+00 0. -1.
         24    1    1    2    0    0 -0.66475106328E+01  0.35511166020E+02  0.12924087259E+03  0.15644696038E+03  0.80419002446E+02 0. -1.
          1    1    1    2  501    0  0.23396728898E+02 -0.21210653863E+02  0.61436581190E+00  0.31586012818E+02  0.00000000000E+00 0. -1.
         -2    1    1    2    0  502 -0.16749218265E+02 -0.14300512157E+02  0.68794548044E+02  0.72233861872E+02  0.00000000000E+00 0.  1.
<mgrwt>
<rscale>  2 0.70882586E+02</rscale>
<asrwt>0</asrwt>
<pdfrwt beam="1">  1       21 0.35301277E-01 0.70882586E+02</pdfrwt>
<pdfrwt beam="2">  1       21 0.47397731E-02 0.70882586E+02</pdfrwt>
<totfact> 0.22126607E+06</totfact>
</mgrwt>
</event>
<event>
 5    1  0.1959123E+000  0.8732523E+02  0.7546771E-02  0.1309461E+00
         21   -1    0    0  503  502  0.00000000000E+00  0.00000000000E+00  0.14347379612E+03  0.14347379612E+03  0.00000000000E+00 0.  1.
         21   -1    0    0  501  503 -0.00000000000E+00 -0.00000000000E+00 -0.15167593097E+03  0.15167593097E+03  0.00000000000E+00 0. -1.
         24    1    1    2    0    0 -0.13363130275E+02 -0.17222231564E+02 -0.11394310172E+03  0.14115744718E+03  0.80419002446E+02 0.  0.
          1    1    1    2  501    0 -0.23886893467E+02 -0.25302787258E+02  0.81550754919E+00  0.34806318034E+02  0.00000000000E+00 0. -1.
         -2    1    1    2    0  502  0.37250023741E+02  0.42525018822E+02  0.10492545932E+03  0.11918596187E+03  0.00000000000E+00 0.  1.
<mgrwt>
<rscale>  2 0.87325227E+02</rscale>
<asrwt>0</asrwt>
<pdfrwt beam="1">  1       21 0.22072892E-01 0.87325227E+02</pdfrwt>
<pdfrwt beam="2">  1       21 0.23334759E-01 0.87325227E+02</pdfrwt>
<totfact> 0.33734316E+05</totfact>
</mgrwt>
</event>
<event>
 5    1  0.1959123E+000  0.1087384E+03  0.7546771E-02  0.1262924E+00
         21   -1    0    0  501  502  0.00000000000E+00  0.00000000000E+00  0.43646062629E+03  0.43646062629E+03  0.00000000000E+00 0.  1.
         21   -1    0    0  502  503 -0.00000000000E+00 -0.00000000000E+00 -0.31391951673E+02  0.31391951673E+02  0.00000000000E+00 0.  1.
         24    1    1    2    0    0 -0.45508333931E+01 -0.89837458715E+02  0.22836497620E+03  0.25828135314E+03  0.80419002446E+02 0.  1.
          1    1    1    2  501    0 -0.14861834793E+02  0.24482676813E+02  0.11190844786E+03  0.11551526436E+03  0.00000000000E+00 0. -1.
         -2    1    1    2    0  503  0.19412668186E+02  0.65354781902E+02  0.64795250565E+02  0.94055960467E+02  0.00000000000E+00 0.  1.
<mgrwt>
<rscale>  2 0.10873842E+03</rscale>
<asrwt>0</asrwt>
<pdfrwt beam="1">  1       21 0.67147784E-01 0.10873842E+03</pdfrwt>
<pdfrwt beam="2">  1       21 0.48295313E-02 0.10873842E+03</pdfrwt>
<totfact> 0.58469525E+05</totfact>
</mgrwt>
</event>
<event>
 5    1  0.1959123E+000  0.7583451E+02  0.7546771E-02  0.1341306E+00
         21   -1    0    0  503  502  0.00000000000E+00  0.00000000000E+00  0.98460051375E+02  0.98460051375E+02  0.00000000000E+00 0. -1.
         21   -1    0    0  501  503 -0.00000000000E+00 -0.00000000000E+00 -0.10209334359E+03  0.10209334359E+03  0.00000000000E+00 0. -1.
         24    1    1    2    0    0  0.12275742574E+02  0.54995779562E+01 -0.67105243815E+02  0.10559956873E+03  0.80419002446E+02 0. -1.
          1    1    1    2  501    0 -0.35392551280E+02 -0.22052510644E+02  0.32175172487E+02  0.52670557586E+02  0.00000000000E+00 0. -1.
         -2    1    1    2    0  502  0.23116808706E+02  0.16552932688E+02  0.31296779111E+02  0.42283268654E+02  0.00000000000E+00 0.  1.
<mgrwt>
<rscale>  2 0.75834514E+02</rscale>
<asrwt>0</asrwt>
<pdfrwt beam="1">  1       21 0.15147700E-01 0.75834514E+02</pdfrwt>
<pdfrwt beam="2">  1       21 0.15706668E-01 0.75834514E+02</pdfrwt>
<totfact> 0.13678540E+06</totfact>
</mgrwt>
</event>
<event>
 5    1  0.1959123E+000  0.9448538E+02  0.7546771E-02  0.1292339E+00
         21   -1    0    0  503  502  0.00000000000E+00  0.00000000000E+00  0.46449250873E+02  0.46449250873E+02  0.00000000000E+00 0. -1.
         21   -1    0    0  501  503 -0.00000000000E+00 -0.00000000000E+00 -0.35807676198E+03  0.35807676198E+03  0.00000000000E+00 0. -1.
         24    1    1    2    0    0 -0.42003158435E+02  0.17422745423E+01 -0.68104870775E+02  0.11345831929E+03  0.80419002446E+02 0. -1.
          1    1    1    2  501    0  0.12895341420E+02  0.42976194133E+02 -0.23223460241E+03  0.23652939278E+03  0.00000000000E+00 0. -1.
         -2    1    1    2    0  502  0.29107817015E+02 -0.44718468675E+02 -0.11288037926E+02  0.54538300783E+02  0.00000000000E+00 0.  1.
<mgrwt>
<rscale>  2 0.94485381E+02</rscale>
<asrwt>0</asrwt>
<pdfrwt beam="1">  1       21 0.71460384E-02 0.94485381E+02</pdfrwt>
<pdfrwt beam="2">  1       21 0.55088734E-01 0.94485381E+02</pdfrwt>
<totfact> 0.45974230E+05</totfact>
</mgrwt>
</event>
<event>
 5    1  0.1959123E+000  0.9192741E+02  0.7546771E-02  0.1298250E+00
         21   -1    0    0  501  502  0.00000000000E+00  0.00000000000E+00  0.49524569721E+02  0.49524569721E+02  0.00000000000E+00 0. -1.
         21   -1    0    0  502  503 -0.00000000000E+00 -0.00000000000E+00 -0.31195782825E+03  0.31195782825E+03  0.00000000000E+00 0.  1.
         24    1    1    2    0    0  0.65832788636E+02 -0.18565460825E+02 -0.13408943358E+03  0.17066289740E+03  0.80419002446E+02 0.  1.
          1    1    1    2  501    0 -0.29692203928E+02 -0.10921743977E+02  0.18566161614E+02  0.36682609267E+02  0.00000000000E+00 0. -1.
         -2    1    1    2    0  503 -0.36140584708E+02  0.29487204802E+02 -0.14690998656E+03  0.15413689131E+03  0.00000000000E+00 0.  1.
<mgrwt>
<rscale>  2 0.91927405E+02</rscale>
<asrwt>0</asrwt>
<pdfrwt beam="1">  1       21 0.76191645E-02 0.91927405E+02</pdfrwt>
<pdfrwt beam="2">  1       21 0.47993512E-01 0.91927405E+02</pdfrwt>
<totfact> 0.54715333E+05</totfact>
</mgrwt>
</event>
<event>
 5    1  0.1959123E+000  0.9477017E+02  0.7546771E-02  0.1291695E+00
         21   -1    0    0  503  502  0.00000000000E+00  0.00000000000E+00  0.93628186567E+03  0.93628186567E+03  0.00000000000E+00 0. -1.
         21   -1    0    0  501  503 -0.00000000000E+00 -0.00000000000E+00 -0.11392298988E+02  0.11392298988E+02  0.00000000000E+00 0.  1.
         24    1    1    2    0    0 -0.23543328079E+02 -0.26500249578E+02  0.25403449962E+03  0.26880716969E+03  0.80419002446E+02 0.  1.
          1    1    1    2  501    0  0.63652556973E+01  0.61942977603E+02  0.33781691545E+03  0.34350795815E+03  0.00000000000E+00 0. -1.
         -2    1    1    2    0  502  0.17178072381E+02 -0.35442728025E+02  0.33303815162E+03  0.33535903681E+03  0.00000000000E+00 0.  1.
<mgrwt>
<rscale>  2 0.94770169E+02</rscale>
<asrwt>0</asrwt>
<pdfrwt beam="1">  1       21 0.14404330E+00 0.94770169E+02</pdfrwt>
<pdfrwt beam="2">  1       21 0.17526621E-02 0.94770169E+02</pdfrwt>
<totfact> 0.51940622E+05</totfact>
</mgrwt>
</event>
<event>
 5    1  0.1959123E+000  0.6577522E+02  0.7546771E-02  0.1375079E+00
         21   -1    0    0  501  502  0.00000000000E+00  0.00000000000E+00  0.20114867181E+02  0.20114867181E+02  0.00000000000E+00 0.  1.
         21   -1    0    0  502  503 -0.00000000000E+00 -0.00000000000E+00 -0.28405491518E+03  0.28405491518E+03  0.00000000000E+00 0.  1.
         24    1    1    2    0    0  0.34417324567E+02 -0.94537323575E+01 -0.95154938484E+02  0.12959785322E+03  0.80419002446E+02 0.  1.
          1    1    1    2  501    0 -0.20139403104E+02 -0.74199891555E+01 -0.64746266959E+02  0.68210929341E+02  0.00000000000E+00 0. -1.
         -2    1    1    2    0  503 -0.14277921463E+02  0.16873721513E+02 -0.10403884256E+03  0.10636099980E+03  0.00000000000E+00 0.  1.
<mgrwt>
<rscale>  2 0.65775218E+02</rscale>
<asrwt>0</asrwt>
<pdfrwt beam="1">  1       21 0.30945952E-02 0.65775218E+02</pdfrwt>
<pdfrwt beam="2">  1       21 0.43700753E-01 0.65775218E+02</pdfrwt>
<totfact> 0.29084889E+06</totfact>
</mgrwt>
</event>
<event>
 5    1  0.1959123E+000  0.1425177E+03  0.7546771E-02  0.1209981E+00
         21   -1    0    0  501  502  0.00000000000E+00  0.00000000000E+00  0.14854544727E+03  0.14854544727E+03  0.00000000000E+00 0. -1.
         21   -1    0    0  502  503 -0.00000000000E+00 -0.00000000000E+00 -0.14624362438E+03  0.14624362438E+03  0.00000000000E+00 0. -1.
         24    1    1    2    0    0 -0.50743360560E+02  0.71328316745E+02  0.11854358008E+02  0.11945860860E+03  0.80419002446E+02 0. -1.
          1    1    1    2  501    0  0.76676244153E+02 -0.10096863841E+03  0.16876097027E+02  0.12790119237E+03  0.00000000000E+00 0. -1.
         -2    1    1    2    0  503 -0.25932883593E+02  0.29640321663E+02 -0.26428632144E+02  0.47429270674E+02  0.00000000000E+00 0.  1.
<mgrwt>
<rscale>  2 0.14251772E+03</rscale>
<asrwt>0</asrwt>
<pdfrwt beam="1">  1       21 0.22853146E-01 0.14251772E+03</pdfrwt>
<pdfrwt beam="2">  1       21 0.22499019E-01 0.14251772E+03</pdfrwt>
<totfact> 0.33570531E+05</totfact>
</mgrwt>
</event>
<event>
 5    1  0.1959123E+000  0.8202164E+02  0.7546771E-02  0.1323410E+00
         21   -1    0    0  501  502  0.00000000000E+00  0.00000000000E+00  0.35543888147E+03  0.35543888147E+03  0.00000000000E+00 0. -1.
         21   -1    0    0  502  503 -0.00000000000E+00 -0.00000000000E+00 -0.80542695577E+02  0.80542695577E+02  0.00000000000E+00 0.  1.
         24    1    1    2    0    0 -0.46203704367E+01 -0.45964246778E+02  0.73991225799E+02  0.11864222374E+03  0.80419002446E+02 0.  1.
          1    1    1    2  501    0  0.25855051102E+02  0.67754184631E+01  0.24977205812E+03  0.25119807121E+03  0.00000000000E+00 0. -1.
         -2    1    1    2    0  503 -0.21234680665E+02  0.39188828315E+02 -0.48867098026E+02  0.66141282094E+02  0.00000000000E+00 0.  1.
<mgrwt>
<rscale>  2 0.82021640E+02</rscale>
<asrwt>0</asrwt>
<pdfrwt beam="1">  1       21 0.54682904E-01 0.82021640E+02</pdfrwt>
<pdfrwt beam="2">  1       21 0.12391184E-01 0.82021640E+02</pdfrwt>
<totfact> 0.18106788E+05</totfact>
</mgrwt>
</event>
<event>
 5    1  0.1959123E+000  0.8159413E+02  0.7546771E-02  0.1324587E+00
         21   -1    0    0  501  502  0.00000000000E+00  0.00000000000E+00  0.63622278653E+02  0.63622278653E+02  0.00000000000E+00 0. -1.
         21   -1    0    0  502  503 -0.00000000000E+00 -0.00000000000E+00 -0.77683827588E+03  0.77683827588E+03  0.00000000000E+00 0.  1.
         24    1    1    2    0    0 -0.14080157318E+02  0.56886554238E+01 -0.44794690933E+03  0.45536168170E+03  0.80419002446E+02 0.  1.
          1    1    1    2  501    0  0.37947028460E+02  0.22732276734E+02  0.50512723250E+02  0.67143641431E+02  0.00000000000E+00 0. -1.
         -2    1    1    2    0  503 -0.23866871142E+02 -0.28420932158E+02 -0.31578181115E+03  0.31795523140E+03  0.00000000000E+00 0.  1.
<mgrwt>
<rscale>  2 0.81594132E+02</rscale>
<asrwt>0</asrwt>
<pdfrwt beam="1">  1       21 0.97880428E-02 0.81594132E+02</pdfrwt>
<pdfrwt beam="2">  1       21 0.11951358E+00 0.81594132E+02</pdfrwt>
<totfact> 0.48320567E+04</totfact>
</mgrwt>
</event>
<event>
 5    1  0.1959123E+000  0.1176545E+03  0.7546771E-02  0.1247017E+00
         21   -1    0    0  501  502  0.00000000000E+00  0.00000000000E+00  0.55299947067E+02  0.55299947067E+02  0.00000000000E+00 0.  1.
         21   -1    0    0  502  503 -0.00000000000E+00 -0.00000000000E+00 -0.43621524483E+03  0.43621524483E+03  0.00000000000E+00 0.  1.
         24    1    1    2    0    0  0.48214249086E+02  0.31354672547E+02 -0.67423567326E+02  0.11966989049E+03  0.80419002446E+02 0.  1.
          1    1    1    2  501    0  0.23806819635E+02  0.32433275951E+02  0.36823257046E+01  0.40401009550E+02  0.00000000000E+00 0. -1.
         -2    1    1    2    0  503 -0.72021068720E+02 -0.63787948498E+02 -0.31717405614E+03  0.33144429185E+03  0.00000000000E+00 0.  1.
<mgrwt>
<rscale>  2 0.11765447E+03</rscale>
<asrwt>0</asrwt>
<pdfrwt beam="1">  1       21 0.85076844E-02 0.11765447E+03</pdfrwt>
<pdfrwt beam="2">  1       21 0.67110036E-01 0.11765447E+03</pdfrwt>
<totfact> 0.22362335E+05</totfact>
</mgrwt>
</event>
<event>
 5    1  0.1959123E+000  0.1219076E+03  0.7546771E-02  0.1239983E+00
         21   -1    0    0  501  502  0.00000000000E+00  0.00000000000E+00  0.20227400453E+02  0.20227400453E+02  0.00000000000E+00 0.  1.
         21   -1    0    0  502  503 -0.00000000000E+00 -0.00000000000E+00 -0.91119076557E+03  0.91119076557E+03  0.00000000000E+00 0.  1.
         24    1    1    2    0    0 -0.28592082827E+02  0.85088409505E+02 -0.60995687490E+03  0.62174926605E+03  0.80419002446E+02 0.  1.
          1    1    1    2  501    0 -0.22406215014E+02  0.18728040139E+01 -0.20854473875E+02  0.30666837899E+02  0.00000000000E+00 0. -1.
         -2    1    1    2    0  503  0.50998297841E+02 -0.86961213518E+02 -0.26015201634E+03  0.27900206208E+03  0.00000000000E+00 0.  1.
<mgrwt>
<rscale>  2 0.12190758E+03</rscale>
<asrwt>0</asrwt>
<pdfrwt beam="1">  1       21 0.31119075E-02 0.12190758E+03</pdfrwt>
<pdfrwt beam="2">  1       21 0.14018321E+00 0.12190758E+03</pdfrwt>
<totfact> 0.21801817E+05</totfact>
</mgrwt>
</event>
<event>
 5    1  0.1959123E+000  0.1192222E+03  0.7546771E-02  0.1244386E+00
         21   -1    0    0  503  502  0.00000000000E+00  0.00000000000E+00  0.46985116185E+02  0.46985116185E+02  0.00000000000E+00 0.  1.
         21   -1    0    0  501  503 -0.00000000000E+00 -0.00000000000E+00 -0.47862417325E+03  0.47862417325E+03  0.00000000000E+00 0.  1.
         24    1    1    2    0    0  0.28760815076E+02 -0.71663719291E+02 -0.47929372828E+02  0.12135614480E+03  0.80419002446E+02 0.  1.
          1    1    1    2  501    0 -0.14758091734E+02 -0.25135216226E+02 -0.99748415945E+02  0.10391980971E+03  0.00000000000E+00 0. -1.
         -2    1    1    2    0  502 -0.14002723342E+02  0.96798935518E+02 -0.28396126829E+03  0.30033333493E+03  0.00000000000E+00 0.  1.
<mgrwt>
<rscale>  2 0.11922218E+03</rscale>
<asrwt>0</asrwt>
<pdfrwt beam="1">  1       21 0.72284796E-02 0.11922218E+03</pdfrwt>
<pdfrwt beam="2">  1       21 0.73634487E-01 0.11922218E+03</pdfrwt>
<totfact> 0.24167352E+05</totfact>
</mgrwt>
</event>
<event>
 5    1  0.1959123E+000  0.8197453E+02  0.7546771E-02  0.1323540E+00
         21   -1    0    0  501  502  0.00000000000E+00  0.00000000000E+00  0.11262529446E+04  0.11262529446E+04  0.00000000000E+00 0. -1.
         21   -1    0    0  502  503 -0.00000000000E+00 -0.00000000000E+00 -0.15440982067E+02  0.15440982067E+02  0.00000000000E+00 0.  1.
         24    1    1    2    0    0  0.55809599735E+02 -0.16868349417E+02  0.23222955350E+03  0.25258074770E+03  0.80419002446E+02 0.  1.
          1    1    1    2  501    0 -0.11422641013E+02  0.16698634108E+02  0.78780585543E+03  0.78806559814E+03  0.00000000000E+00 0. -1.
         -2    1    1    2    0  503 -0.44386958722E+02  0.16971530920E+00  0.90776553554E+02  0.10104758079E+03  0.00000000000E+00 0.  1.
<mgrwt>
<rscale>  2 0.81974534E+02</rscale>
<asrwt>0</asrwt>
<pdfrwt beam="1">  1       21 0.17326962E+00 0.81974534E+02</pdfrwt>
<pdfrwt beam="2">  1       21 0.23755366E-02 0.81974534E+02</pdfrwt>
<totfact> 0.19894055E+05</totfact>
</mgrwt>
</event>
<event>
 5    1  0.1959123E+000  0.8645321E+02  0.7546771E-02  0.1311675E+00
         21   -1    0    0  501  502  0.00000000000E+00  0.00000000000E+00  0.59782291224E+02  0.59782291224E+02  0.00000000000E+00 0. -1.
         21   -1    0    0  502  503 -0.00000000000E+00 -0.00000000000E+00 -0.24139571179E+03  0.24139571179E+03  0.00000000000E+00 0.  1.
         24    1    1    2    0    0 -0.22087389909E+02  0.27503170203E+02 -0.66792926870E+02  0.11033035937E+03  0.80419002446E+02 0.  1.
          1    1    1    2  501    0  0.36909094973E+02  0.15179343109E+02  0.22825963342E+02  0.45975192783E+02  0.00000000000E+00 0. -1.
         -2    1    1    2    0  503 -0.14821705064E+02 -0.42682513313E+02 -0.13764645703E+03  0.14487245086E+03  0.00000000000E+00 0.  1.
<mgrwt>
<rscale>  2 0.86453207E+02</rscale>
<asrwt>0</asrwt>
<pdfrwt beam="1">  1       21 0.91972755E-02 0.86453207E+02</pdfrwt>
<pdfrwt beam="2">  1       21 0.37137802E-01 0.86453207E+02</pdfrwt>
<totfact> 0.66063278E+05</totfact>
</mgrwt>
</event>
<event>
 5    1  0.1959123E+000  0.9988894E+02  0.7546771E-02  0.1280530E+00
         21   -1    0    0  501  502  0.00000000000E+00  0.00000000000E+00  0.11295230090E+03  0.11295230090E+03  0.00000000000E+00 0. -1.
         21   -1    0    0  502  503 -0.00000000000E+00 -0.00000000000E+00 -0.38663028025E+03  0.38663028025E+03  0.00000000000E+00 0.  1.
         24    1    1    2    0    0  0.44490011755E+02  0.51964965985E+02 -0.86052526457E+02  0.13620562433E+03  0.80419002446E+02 0.  1.
          1    1    1    2  501    0  0.10982858358E+02 -0.34247217521E+02  0.80939892243E+02  0.88570656777E+02  0.00000000000E+00 0. -1.
         -2    1    1    2    0  503 -0.55472870114E+02 -0.17717748464E+02 -0.26856534514E+03  0.27480630003E+03  0.00000000000E+00 0.  1.
<mgrwt>
<rscale>  2 0.99888944E+02</rscale>
<asrwt>0</asrwt>
<pdfrwt beam="1">  1       21 0.17377277E-01 0.99888944E+02</pdfrwt>
<pdfrwt beam="2">  1       21 0.59481583E-01 0.99888944E+02</pdfrwt>
<totfact> 0.82467083E+04</totfact>
</mgrwt>
</event>
<event>
 5    1  0.1959123E+000  0.1425752E+03  0.7546771E-02  0.1209905E+00
         21   -1    0    0  503  502  0.00000000000E+00  0.00000000000E+00  0.86439091830E+02  0.86439091830E+02  0.00000000000E+00 0.  1.
         21   -1    0    0  501  503 -0.00000000000E+00 -0.00000000000E+00 -0.79989394319E+03  0.79989394319E+03  0.00000000000E+00 0. -1.
         24    1    1    2    0    0 -0.44420522315E+01  0.10615604775E+03 -0.13665535358E+03  0.19086838375E+03  0.80419002446E+02 0. -1.
          1    1    1    2  501    0 -0.51119214166E+02 -0.65318578664E+02 -0.61231076781E+03  0.61790304025E+03  0.00000000000E+00 0. -1.
         -2    1    1    2    0  502  0.55561266398E+02 -0.40837469082E+02  0.35511270025E+02  0.77561611017E+02  0.00000000000E+00 0.  1.
<mgrwt>
<rscale>  2 0.14257523E+03</rscale>
<asrwt>0</asrwt>
<pdfrwt beam="1">  1       21 0.13298322E-01 0.14257523E+03</pdfrwt>
<pdfrwt beam="2">  1       21 0.12306061E+00 0.14257523E+03</pdfrwt>
<totfact> 0.25004018E+04</totfact>
</mgrwt>
</event>
<event>
 5    1  0.1959123E+000  0.8276070E+02  0.7546771E-02  0.1321395E+00
         21   -1    0    0  503  502  0.00000000000E+00  0.00000000000E+00  0.13346395786E+04  0.13346395786E+04  0.00000000000E+00 0. -1.
         21   -1    0    0  501  503 -0.00000000000E+00 -0.00000000000E+00 -0.56894263959E+01  0.56894263959E+01  0.00000000000E+00 0. -1.
         24    1    1    2    0    0 -0.15465311094E+02 -0.70630881618E+01  0.66401130654E+03  0.66907943790E+03  0.80419002446E+02 0. -1.
          1    1    1    2  501    0 -0.20371698515E+02  0.33211973942E+02  0.17392145782E+03  0.17823219351E+03  0.00000000000E+00 0. -1.
         -2    1    1    2    0  502  0.35837009608E+02 -0.26148885781E+02  0.49101738788E+03  0.49301737361E+03  0.00000000000E+00 0.  1.
<mgrwt>
<rscale>  2 0.82760704E+02</rscale>
<asrwt>0</asrwt>
<pdfrwt beam="1">  1       21 0.20532892E+00 0.82760704E+02</pdfrwt>
<pdfrwt beam="2">  1       21 0.87529743E-03 0.82760704E+02</pdfrwt>
<totfact> 0.60232960E+05</totfact>
</mgrwt>
</event>
<event>
 5    1  0.1959123E+000  0.1263515E+03  0.7546771E-02  0.1232972E+00
         21   -1    0    0  501  502  0.00000000000E+00  0.00000000000E+00  0.16803812069E+03  0.16803812069E+03  0.00000000000E+00 0.  1.
         21   -1    0    0  502  503 -0.00000000000E+00 -0.00000000000E+00 -0.17507736153E+03  0.17507736153E+03  0.00000000000E+00 0.  1.
         24    1    1    2    0    0  0.71522886637E+02 -0.67029784552E+02  0.64049759573E+02  0.14204964972E+03  0.80419002446E+02 0.  1.
          1    1    1    2  501    0 -0.27228545983E+02 -0.16162085098E+02  0.42797932881E+02  0.53237860307E+02  0.00000000000E+00 0. -1.
         -2    1    1    2    0  503 -0.44294340654E+02  0.83191869650E+02 -0.11388693329E+03  0.14782797220E+03  0.00000000000E+00 0.  1.
<mgrwt>
<rscale>  2 0.12635154E+03</rscale>
<asrwt>0</asrwt>
<pdfrwt beam="1">  1       21 0.25852019E-01 0.12635154E+03</pdfrwt>
<pdfrwt beam="2">  1       21 0.26934979E-01 0.12635154E+03</pdfrwt>
<totfact> 0.19002982E+05</totfact>
</mgrwt>
</event>
<event>
 5    1  0.1959123E+000  0.8062790E+02  0.7546771E-02  0.1327279E+00
         21   -1    0    0  503  502  0.00000000000E+00  0.00000000000E+00  0.77761296041E+01  0.77761296041E+01  0.00000000000E+00 0.  1.
         21   -1    0    0  501  503 -0.00000000000E+00 -0.00000000000E+00 -0.10839571221E+04  0.10839571221E+04  0.00000000000E+00 0. -1.
         24    1    1    2    0    0 -0.21768900352E+02 -0.76372403523E+01 -0.64194070100E+03  0.64736951737E+03  0.80419002446E+02 0. -1.
          1    1    1    2  501    0  0.47510511317E+02 -0.69336799525E+01 -0.37589246403E+03  0.37894652541E+03  0.00000000000E+00 0. -1.
         -2    1    1    2    0  502 -0.25741610965E+02  0.14570920305E+02 -0.58347827431E+02  0.65417208894E+02  0.00000000000E+00 0.  1.
<mgrwt>
<rscale>  2 0.80627903E+02</rscale>
<asrwt>0</asrwt>
<pdfrwt beam="1">  1       21 0.11963283E-02 0.80627903E+02</pdfrwt>
<pdfrwt beam="2">  1       21 0.16676254E+00 0.80627903E+02</pdfrwt>
<totfact> 0.65372341E+05</totfact>
</mgrwt>
</event>
<event>
 5    1  0.1959123E+000  0.6657931E+02  0.7546771E-02  0.1372127E+00
         21   -1    0    0  501  502  0.00000000000E+00  0.00000000000E+00  0.21213946528E+03  0.21213946528E+03  0.00000000000E+00 0.  1.
         21   -1    0    0  502  503 -0.00000000000E+00 -0.00000000000E+00 -0.24841015597E+02  0.24841015597E+02  0.00000000000E+00 0. -1.
         24    1    1    2    0    0  0.36763152630E+02 -0.20489969401E+02  0.15023209909E+03  0.17552284122E+03  0.80419002446E+02 0.  1.
          1    1    1    2  501    0 -0.17396007904E+02  0.12597887694E+02  0.34148511401E+02  0.40341649647E+02  0.00000000000E+00 0. -1.
         -2    1    1    2    0  503 -0.19367144726E+02  0.78920817069E+01  0.29178391846E+01  0.21115990008E+02  0.00000000000E+00 0.  1.
<mgrwt>
<rscale>  2 0.66579307E+02</rscale>
<asrwt>0</asrwt>
<pdfrwt beam="1">  1       21 0.32636840E-01 0.66579307E+02</pdfrwt>
<pdfrwt beam="2">  1       21 0.38216949E-02 0.66579307E+02</pdfrwt>
<totfact> 0.36479910E+06</totfact>
</mgrwt>
</event>
<event>
 5    1  0.1959123E+000  0.7309128E+02  0.7546771E-02  0.1349886E+00
         21   -1    0    0  503  502  0.00000000000E+00  0.00000000000E+00  0.17393419921E+03  0.17393419921E+03  0.00000000000E+00 0.  1.
         21   -1    0    0  501  503 -0.00000000000E+00 -0.00000000000E+00 -0.38665636345E+02  0.38665636345E+02  0.00000000000E+00 0.  1.
         24    1    1    2    0    0 -0.41426148993E+02 -0.29627853990E+02  0.80703527993E+02  0.12479667839E+03  0.80419002446E+02 0.  1.
          1    1    1    2  501    0  0.21355725788E+02  0.13730899229E+02 -0.22469887263E+01  0.25488302727E+02  0.00000000000E+00 0. -1.
         -2    1    1    2    0  502  0.20070423205E+02  0.15896954761E+02  0.56812023598E+02  0.62314854438E+02  0.00000000000E+00 0.  1.
<mgrwt>
<rscale>  2 0.73091282E+02</rscale>
<asrwt>0</asrwt>
<pdfrwt beam="1">  1       21 0.26759107E-01 0.73091282E+02</pdfrwt>
<pdfrwt beam="2">  1       21 0.59485595E-02 0.73091282E+02</pdfrwt>
<totfact> 0.25753708E+06</totfact>
</mgrwt>
</event>
<event>
 5    1  0.1959123E+000  0.9373026E+02  0.7546771E-02  0.1294062E+00
         21   -1    0    0  503  502  0.00000000000E+00  0.00000000000E+00  0.72630400556E+02  0.72630400556E+02  0.00000000000E+00 0.  1.
         21   -1    0    0  501  503 -0.00000000000E+00 -0.00000000000E+00 -0.21156725740E+03  0.21156725740E+03  0.00000000000E+00 0. -1.
         24    1    1    2    0    0 -0.34430046631E+01 -0.53066886891E+01 -0.11135724112E+03  0.13750515020E+03  0.80419002446E+02 0. -1.
          1    1    1    2  501    0  0.53482472186E+02  0.15589075664E+02 -0.63326626847E+02  0.84342490946E+02  0.00000000000E+00 0. -1.
         -2    1    1    2    0  502 -0.50039467522E+02 -0.10282386975E+02  0.35747011128E+02  0.62350016811E+02  0.00000000000E+00 0.  1.
<mgrwt>
<rscale>  2 0.93730256E+02</rscale>
<asrwt>0</asrwt>
<pdfrwt beam="1">  1       21 0.11173908E-01 0.93730256E+02</pdfrwt>
<pdfrwt beam="2">  1       21 0.32548808E-01 0.93730256E+02</pdfrwt>
<totfact> 0.60932072E+05</totfact>
</mgrwt>
</event>
<event>
 5    1  0.1959123E+000  0.7549613E+02  0.7546771E-02  0.1342342E+00
         21   -1    0    0  503  502  0.00000000000E+00  0.00000000000E+00  0.15088110703E+02  0.15088110703E+02  0.00000000000E+00 0.  1.
         21   -1    0    0  501  503 -0.00000000000E+00 -0.00000000000E+00 -0.56154963319E+03  0.56154963319E+03  0.00000000000E+00 0.  1.
         24    1    1    2    0    0 -0.34847802638E+02  0.41057096744E+02 -0.44548159971E+03  0.45587402446E+03  0.80419002446E+02 0.  1.
          1    1    1    2  501    0  0.19185235166E+02 -0.27262356619E+02 -0.92342801575E+02  0.98175874529E+02  0.00000000000E+00 0. -1.
         -2    1    1    2    0  502  0.15662567472E+02 -0.13794740124E+02 -0.86371212060E+01  0.22587844909E+02  0.00000000000E+00 0.  1.
<mgrwt>
<rscale>  2 0.75496130E+02</rscale>
<asrwt>0</asrwt>
<pdfrwt beam="1">  1       21 0.23212481E-02 0.75496130E+02</pdfrwt>
<pdfrwt beam="2">  1       21 0.86392239E-01 0.75496130E+02</pdfrwt>
<totfact> 0.11119106E+06</totfact>
</mgrwt>
</event>
<event>
 5    1  0.1959123E+000  0.7642172E+02  0.7546771E-02  0.1339524E+00
         21   -1    0    0  503  502  0.00000000000E+00  0.00000000000E+00  0.32863352172E+03  0.32863352172E+03  0.00000000000E+00 0.  1.
         21   -1    0    0  501  503 -0.00000000000E+00 -0.00000000000E+00 -0.27823268941E+02  0.27823268941E+02  0.00000000000E+00 0. -1.
         24    1    1    2    0    0 -0.41741194403E+01 -0.30883278752E+02  0.13962716593E+03  0.16411630510E+03  0.80419002446E+02 0.  1.
          1    1    1    2  501    0 -0.21487687777E+02 -0.54003062248E+01 -0.29005823554E+01  0.22344963891E+02  0.00000000000E+00 0. -1.
         -2    1    1    2    0  502  0.25661807217E+02  0.36283584977E+02  0.16408366921E+03  0.16999552167E+03  0.00000000000E+00 0.  1.
<mgrwt>
<rscale>  2 0.76421715E+02</rscale>
<asrwt>0</asrwt>
<pdfrwt beam="1">  1       21 0.50559000E-01 0.76421715E+02</pdfrwt>
<pdfrwt beam="2">  1       21 0.42805032E-02 0.76421715E+02</pdfrwt>
<totfact> 0.12880250E+06</totfact>
</mgrwt>
</event>
<event>
 5    1  0.1959123E+000  0.8566341E+02  0.7546771E-02  0.1313707E+00
         21   -1    0    0  501  502  0.00000000000E+00  0.00000000000E+00  0.18992758462E+04  0.18992758462E+04  0.00000000000E+00 0.  1.
         21   -1    0    0  502  503 -0.00000000000E+00 -0.00000000000E+00 -0.39641735959E+01  0.39641735959E+01  0.00000000000E+00 0.  1.
         24    1    1    2    0    0  0.37400758237E+02 -0.29821329238E+02  0.10469015003E+04  0.10510747337E+04  0.80419002446E+02 0.  1.
          1    1    1    2  501    0 -0.30318257329E+01  0.41384074791E+02  0.54930203366E+03  0.55086709631E+03  0.00000000000E+00 0. -1.
         -2    1    1    2    0  503 -0.34368932504E+02 -0.11562745553E+02  0.29910813856E+03  0.30129818977E+03  0.00000000000E+00 0.  1.
<mgrwt>
<rscale>  2 0.85663407E+02</rscale>
<asrwt>0</asrwt>
<pdfrwt beam="1">  1       21 0.29219556E+00 0.85663407E+02</pdfrwt>
<pdfrwt beam="2">  1       21 0.60987438E-03 0.85663407E+02</pdfrwt>
<totfact> 0.34003907E+05</totfact>
</mgrwt>
</event>
<event>
 5    1  0.1959123E+000  0.1542636E+03  0.7546771E-02  0.1195330E+00
         21   -1    0    0  503  502  0.00000000000E+00  0.00000000000E+00  0.23272957766E+03  0.23272957766E+03  0.00000000000E+00 0. -1.
         21   -1    0    0  501  503 -0.00000000000E+00 -0.00000000000E+00 -0.11256514352E+03  0.11256514352E+03  0.00000000000E+00 0. -1.
         24    1    1    2    0    0 -0.28443246997E+02  0.13687485063E+03  0.10203785505E+03  0.19084727625E+03  0.80419002446E+02 0. -1.
          1    1    1    2  501    0 -0.49518503995E+01 -0.87500518959E+02 -0.10599451453E+02  0.88279159554E+02  0.00000000000E+00 0. -1.
         -2    1    1    2    0  502  0.33395097396E+02 -0.49374331671E+02  0.28726030546E+02  0.66168285371E+02  0.00000000000E+00 0.  1.
<mgrwt>
<rscale>  2 0.15426359E+03</rscale>
<asrwt>0</asrwt>
<pdfrwt beam="1">  1       21 0.35804550E-01 0.15426359E+03</pdfrwt>
<pdfrwt beam="2">  1       21 0.17317714E-01 0.15426359E+03</pdfrwt>
<totfact> 0.22913377E+05</totfact>
</mgrwt>
</event>
<event>
 5    1  0.1959123E+000  0.1107908E+03  0.7546771E-02  0.1259112E+00
         21   -1    0    0  501  502  0.00000000000E+00  0.00000000000E+00  0.12868081932E+03  0.12868081932E+03  0.00000000000E+00 0. -1.
         21   -1    0    0  502  503 -0.00000000000E+00 -0.00000000000E+00 -0.98620980372E+02  0.98620980372E+02  0.00000000000E+00 0.  1.
         24    1    1    2    0    0 -0.25031644913E+02  0.91440087937E+02  0.14351665583E+02  0.12514415363E+03  0.80419002446E+02 0.  0.
          1    1    1    2  501    0  0.29112908108E+01 -0.51696231189E+02  0.21964799319E+02  0.56244362762E+02  0.00000000000E+00 0. -1.
         -2    1    1    2    0  503  0.22120354102E+02 -0.39743856747E+02 -0.62566259544E+01  0.45913283296E+02  0.00000000000E+00 0.  1.
<mgrwt>
<rscale>  2 0.11079081E+03</rscale>
<asrwt>0</asrwt>
<pdfrwt beam="1">  1       21 0.19797049E-01 0.11079081E+03</pdfrwt>
<pdfrwt beam="2">  1       21 0.15172458E-01 0.11079081E+03</pdfrwt>
<totfact> 0.90455830E+05</totfact>
</mgrwt>
</event>
<event>
 5    1  0.1959123E+000  0.6726023E+02  0.7546771E-02  0.1369666E+00
         21   -1    0    0  501  502  0.00000000000E+00  0.00000000000E+00  0.19366736794E+02  0.19366736794E+02  0.00000000000E+00 0.  1.
         21   -1    0    0  502  503 -0.00000000000E+00 -0.00000000000E+00 -0.50689532768E+03  0.50689532768E+03  0.00000000000E+00 0.  1.
         24    1    1    2    0    0 -0.36663520229E+02  0.17738005149E+02 -0.31579814529E+03  0.32841214208E+03  0.80419002446E+02 0.  1.
          1    1    1    2  501    0  0.22691208455E+02 -0.11962912906E+01  0.19673270726E+01  0.22807727414E+02  0.00000000000E+00 0. -1.
         -2    1    1    2    0  503  0.13972311774E+02 -0.16541713858E+02 -0.17369777267E+03  0.17504219498E+03  0.00000000000E+00 0.  1.
<mgrwt>
<rscale>  2 0.67260225E+02</rscale>
<asrwt>0</asrwt>
<pdfrwt beam="1">  1       21 0.29794984E-02 0.67260225E+02</pdfrwt>
<pdfrwt beam="2">  1       21 0.77983885E-01 0.67260225E+02</pdfrwt>
<totfact> 0.93065778E+05</totfact>
</mgrwt>
</event>
<event>
 5    1  0.1959123E+000  0.7056697E+02  0.7546771E-02  0.1358176E+00
         21   -1    0    0  503  502  0.00000000000E+00  0.00000000000E+00  0.32286078460E+03  0.32286078460E+03  0.00000000000E+00 0. -1.
         21   -1    0    0  501  503 -0.00000000000E+00 -0.00000000000E+00 -0.21543210870E+02  0.21543210870E+02  0.00000000000E+00 0. -1.
         24    1    1    2    0    0  0.21491746093E+02  0.48096992032E+01  0.21810524962E+03  0.23349977349E+03  0.80419002446E+02 0. -1.
          1    1    1    2  501    0  0.73503120916E+01 -0.22668471041E+02  0.32594274077E+01  0.24052245928E+02  0.00000000000E+00 0. -1.
         -2    1    1    2    0  502 -0.28842058185E+02  0.17858771838E+02  0.79952896700E+02  0.86851976043E+02  0.00000000000E+00 0.  1.
<mgrwt>
<rscale>  2 0.70566968E+02</rscale>
<asrwt>0</asrwt>
<pdfrwt beam="1">  1       21 0.49670886E-01 0.70566968E+02</pdfrwt>
<pdfrwt beam="2">  1       21 0.33143404E-02 0.70566968E+02</pdfrwt>
<totfact> 0.20212396E+06</totfact>
</mgrwt>
</event>
<event>
 5    1  0.1959123E+000  0.6639896E+02  0.7546771E-02  0.1372785E+00
         21   -1    0    0  501  502  0.00000000000E+00  0.00000000000E+00  0.21473284575E+03  0.21473284575E+03  0.00000000000E+00 0.  1.
         21   -1    0    0  502  503 -0.00000000000E+00 -0.00000000000E+00 -0.60007743064E+02  0.60007743064E+02  0.00000000000E+00 0. -1.
         24    1    1    2    0    0 -0.17432802304E+02  0.18330400820E+02  0.19038602554E+03  0.20821613978E+03  0.80419002446E+02 0.  1.
          1    1    1    2  501    0  0.23247768664E+02  0.55623775281E+01 -0.86892987928E+00  0.23919737263E+02  0.00000000000E+00 0. -1.
         -2    1    1    2    0  503 -0.58149663594E+01 -0.23892778348E+02 -0.34791992966E+02  0.42604711776E+02  0.00000000000E+00 0.  1.
<mgrwt>
<rscale>  2 0.66398957E+02</rscale>
<asrwt>0</asrwt>
<pdfrwt beam="1">  1       21 0.33035822E-01 0.66398957E+02</pdfrwt>
<pdfrwt beam="2">  1       21 0.92319606E-02 0.66398957E+02</pdfrwt>
<totfact> 0.81978478E+05</totfact>
</mgrwt>
</event>
<event>
 5    1  0.1959123E+000  0.7390319E+02  0.7546771E-02  0.1347302E+00
         21   -1    0    0  501  502  0.00000000000E+00  0.00000000000E+00  0.19893089227E+02  0.19893089227E+02  0.00000000000E+00 0. -1.
         21   -1    0    0  502  503 -0.00000000000E+00 -0.00000000000E+00 -0.21647848297E+04  0.21647848297E+04  0.00000000000E+00 0.  1.
         24    1    1    2    0    0 -0.26388670582E+02 -0.26008208069E+02 -0.64665909770E+03  0.65269287832E+03  0.80419002446E+02 0.  1.
          1    1    1    2  501    0  0.31723123875E+02 -0.99378768043E+00  0.17149064603E+01  0.31784982405E+02  0.00000000000E+00 0. -1.
         -2    1    1    2    0  503 -0.53344532926E+01  0.27001995749E+02 -0.14999475493E+04  0.15002000582E+04  0.00000000000E+00 0.  1.
<mgrwt>
<rscale>  2 0.73903186E+02</rscale>
<asrwt>0</asrwt>
<pdfrwt beam="1">  1       21 0.30604752E-02 0.73903186E+02</pdfrwt>
<pdfrwt beam="2">  1       21 0.33304383E+00 0.73903186E+02</pdfrwt>
<totfact> 0.16418125E+04</totfact>
</mgrwt>
</event>
<event>
 5    1  0.1959123E+000  0.9723052E+02  0.7546771E-02  0.1286230E+00
         21   -1    0    0  503  502  0.00000000000E+00  0.00000000000E+00  0.70723338888E+02  0.70723338888E+02  0.00000000000E+00 0. -1.
         21   -1    0    0  501  503 -0.00000000000E+00 -0.00000000000E+00 -0.19786233179E+03  0.19786233179E+03  0.00000000000E+00 0. -1.
         24    1    1    2    0    0  0.50271934929E+02  0.57038826488E+02 -0.20148740426E+02  0.11248947890E+03  0.80419002446E+02 0. -1.
          1    1    1    2  501    0 -0.51189508605E+02 -0.35645169961E+02 -0.11689987902E+03  0.13250104017E+03  0.00000000000E+00 0. -1.
         -2    1    1    2    0  502  0.91757367612E+00 -0.21393656528E+02  0.99096265393E+01  0.23595151604E+02  0.00000000000E+00 0.  1.
<mgrwt>
<rscale>  2 0.97230519E+02</rscale>
<asrwt>0</asrwt>
<pdfrwt beam="1">  1       21 0.10880514E-01 0.97230519E+02</pdfrwt>
<pdfrwt beam="2">  1       21 0.30440358E-01 0.97230519E+02</pdfrwt>
<totfact> 0.72617648E+05</totfact>
</mgrwt>
</event>
<event>
 5    1  0.1959123E+000  0.1126764E+03  0.7546771E-02  0.1255692E+00
         21   -1    0    0  501  502  0.00000000000E+00  0.00000000000E+00  0.32585083954E+02  0.32585083954E+02  0.00000000000E+00 0.  1.
         21   -1    0    0  502  503 -0.00000000000E+00 -0.00000000000E+00 -0.73186454497E+03  0.73186454497E+03  0.00000000000E+00 0.  1.
         24    1    1    2    0    0  0.10149844849E+02  0.97763610737E+02 -0.18022599823E+03  0.22047532589E+03  0.80419002446E+02 0.  1.
          1    1    1    2  501    0 -0.70919408769E+01 -0.50632281298E+02 -0.46635034815E+02  0.69200794844E+02  0.00000000000E+00 0. -1.
         -2    1    1    2    0  503 -0.30579039723E+01 -0.47131329439E+02 -0.47241842798E+03  0.47477350819E+03  0.00000000000E+00 0.  1.
<mgrwt>
<rscale>  2 0.11267643E+03</rscale>
<asrwt>0</asrwt>
<pdfrwt beam="1">  1       21 0.50130899E-02 0.11267643E+03</pdfrwt>
<pdfrwt beam="2">  1       21 0.11259454E+00 0.11267643E+03</pdfrwt>
<totfact> 0.17021953E+05</totfact>
</mgrwt>
</event>
<event>
 5    1  0.1959123E+000  0.6796821E+02  0.7546771E-02  0.1367142E+00
         21   -1    0    0  501  502  0.00000000000E+00  0.00000000000E+00  0.24157282654E+03  0.24157282654E+03  0.00000000000E+00 0.  1.
         21   -1    0    0  502  503 -0.00000000000E+00 -0.00000000000E+00 -0.41470312800E+02  0.41470312800E+02  0.00000000000E+00 0.  1.
         24    1    1    2    0    0  0.10418031057E+02 -0.27841104666E+01  0.19115374510E+03  0.20766139955E+03  0.80419002446E+02 0.  1.
          1    1    1    2  501    0 -0.31030580546E+02 -0.72593811392E+01  0.30356272657E+02  0.44012484970E+02  0.00000000000E+00 0. -1.
         -2    1    1    2    0  503  0.20612549489E+02  0.10043491606E+02 -0.21407504015E+02  0.31369254824E+02  0.00000000000E+00 0.  1.
<mgrwt>
<rscale>  2 0.67968206E+02</rscale>
<asrwt>0</asrwt>
<pdfrwt beam="1">  1       21 0.37165049E-01 0.67968206E+02</pdfrwt>
<pdfrwt beam="2">  1       21 0.63800483E-02 0.67968206E+02</pdfrwt>
<totfact> 0.12205672E+06</totfact>
</mgrwt>
</event>
<event>
 5    1  0.1959123E+000  0.8568759E+02  0.7546771E-02  0.1313644E+00
         21   -1    0    0  503  502  0.00000000000E+00  0.00000000000E+00  0.31696310712E+03  0.31696310712E+03  0.00000000000E+00 0.  1.
         21   -1    0    0  501  503 -0.00000000000E+00 -0.00000000000E+00 -0.24949084220E+02  0.24949084220E+02  0.00000000000E+00 0. -1.
         24    1    1    2    0    0 -0.69103177092E+01  0.63303604444E+02  0.13585509365E+03  0.17023196308E+03  0.80419002446E+02 0. -1.
          1    1    1    2  501    0 -0.99352723132E+01 -0.19993035687E+02  0.31241060343E+02  0.38398371883E+02  0.00000000000E+00 0. -1.
         -2    1    1    2    0  502  0.16845590022E+02 -0.43310568757E+02  0.12491786890E+03  0.13328185638E+03  0.00000000000E+00 0.  1.
<mgrwt>
<rscale>  2 0.85687590E+02</rscale>
<asrwt>0</asrwt>
<pdfrwt beam="1">  1       21 0.48763552E-01 0.85687590E+02</pdfrwt>
<pdfrwt beam="2">  1       21 0.38383209E-02 0.85687590E+02</pdfrwt>
<totfact> 0.16638051E+06</totfact>
</mgrwt>
</event>
<event>
 5    1  0.1959123E+000  0.1528353E+03  0.7546771E-02  0.1197032E+00
         21   -1    0    0  503  502  0.00000000000E+00  0.00000000000E+00  0.10350062878E+04  0.10350062878E+04  0.00000000000E+00 0.  1.
         21   -1    0    0  501  503 -0.00000000000E+00 -0.00000000000E+00 -0.48778429941E+02  0.48778429941E+02  0.00000000000E+00 0.  1.
         24    1    1    2    0    0  0.19431640523E+02  0.61059984079E+02  0.25228006761E+03  0.27243046595E+03  0.80419002446E+02 0.  1.
          1    1    1    2  501    0 -0.85787890603E+02  0.29374404794E+02  0.25657863235E+02  0.94237698279E+02  0.00000000000E+00 0. -1.
         -2    1    1    2    0  502  0.66356250080E+02 -0.90434388872E+02  0.70828992703E+03  0.71711655353E+03  0.00000000000E+00 0.  1.
<mgrwt>
<rscale>  2 0.15283534E+03</rscale>
<asrwt>0</asrwt>
<pdfrwt beam="1">  1       21 0.15923172E+00 0.15283534E+03</pdfrwt>
<pdfrwt beam="2">  1       21 0.75043746E-02 0.15283534E+03</pdfrwt>
<totfact> 0.35093394E+04</totfact>
</mgrwt>
</event>
<event>
 5    1  0.2069298E+000  0.1360750E+03  0.7546771E-02  0.1218710E+00
         21   -1    0    0  503  502  0.00000000000E+00  0.00000000000E+00  0.11235561960E+04  0.11235561960E+04  0.00000000000E+00 0.  1.
         21   -1    0    0  501  503 -0.00000000000E+00 -0.00000000000E+00 -0.38813986309E+02  0.38813986309E+02  0.00000000000E+00 0. -1.
         24    1    1    2    0    0  0.11745808197E+03  0.23475610768E+02  0.97595059478E+03  0.98655678231E+03  0.80419002446E+02 0.  1.
          1    1    1    2  501    0 -0.88132707067E+02 -0.36998420835E+02  0.47959140202E+02  0.10694080759E+03  0.00000000000E+00 0. -1.
         -2    1    1    2    0  502 -0.29325374905E+02  0.13522810067E+02  0.60832474713E+02  0.68872592409E+02  0.00000000000E+00 0.  1.
<mgrwt>
<rscale>  2 0.13607497E+03</rscale>
<asrwt>0</asrwt>
<pdfrwt beam="1">  1       21 0.17285477E+00 0.13607497E+03</pdfrwt>
<pdfrwt beam="2">  1       21 0.59713834E-02 0.13607497E+03</pdfrwt>
<totfact> 0.42073444E+04</totfact>
</mgrwt>
</event>
<event>
 5    1  0.1959123E+000  0.9224838E+02  0.7546771E-02  0.1297496E+00
         21   -1    0    0  503  502  0.00000000000E+00  0.00000000000E+00  0.17600540342E+02  0.17600540342E+02  0.00000000000E+00 0.  1.
         21   -1    0    0  501  503 -0.00000000000E+00 -0.00000000000E+00 -0.50232757734E+03  0.50232757734E+03  0.00000000000E+00 0. -1.
         24    1    1    2    0    0 -0.20984650669E+02  0.10962613296E+02 -0.18012106699E+03  0.19867397711E+03  0.80419002446E+02 0.  0.
          1    1    1    2  501    0 -0.21843984520E+02  0.32815609650E+02 -0.94196563786E+02  0.10211276377E+03  0.00000000000E+00 0. -1.
         -2    1    1    2    0  502  0.42828635189E+02 -0.43778222946E+02 -0.21040940622E+03  0.21914137679E+03  0.00000000000E+00 0.  1.
<mgrwt>
<rscale>  2 0.92248383E+02</rscale>
<asrwt>0</asrwt>
<pdfrwt beam="1">  1       21 0.27077757E-02 0.92248383E+02</pdfrwt>
<pdfrwt beam="2">  1       21 0.77281159E-01 0.92248383E+02</pdfrwt>
<totfact> 0.11140134E+06</totfact>
</mgrwt>
</event>
<event>
 5    1  0.1959123E+000  0.1676728E+03  0.7546771E-02  0.1180297E+00
         21   -1    0    0  501  502  0.00000000000E+00  0.00000000000E+00  0.36061922492E+03  0.36061922492E+03  0.00000000000E+00 0. -1.
         21   -1    0    0  502  503 -0.00000000000E+00 -0.00000000000E+00 -0.87119653640E+02  0.87119653640E+02  0.00000000000E+00 0. -1.
         24    1    1    2    0    0 -0.47934951679E+02 -0.12987406490E+03  0.11255827130E+03  0.19570797817E+03  0.80419002446E+02 0. -1.
          1    1    1    2  501    0  0.77422515067E+02  0.12238989246E+03  0.16696026449E+03  0.22101869046E+03  0.00000000000E+00 0. -1.
         -2    1    1    2    0  503 -0.29487563388E+02  0.74841724394E+01 -0.60189645043E+01  0.31012209940E+02  0.00000000000E+00 0.  1.
<mgrwt>
<rscale>  2 0.16767284E+03</rscale>
<asrwt>0</asrwt>
<pdfrwt beam="1">  1       21 0.55479880E-01 0.16767284E+03</pdfrwt>
<pdfrwt beam="2">  1       21 0.13403024E-01 0.16767284E+03</pdfrwt>
<totfact> 0.14857465E+05</totfact>
</mgrwt>
</event>
<event>
 5    1  0.1959123E+000  0.6545204E+02  0.7546771E-02  0.1376279E+00
         21   -1    0    0  503  502  0.00000000000E+00  0.00000000000E+00  0.79549676536E+02  0.79549676536E+02  0.00000000000E+00 0.  1.
         21   -1    0    0  501  503 -0.00000000000E+00 -0.00000000000E+00 -0.15375277477E+03  0.15375277477E+03  0.00000000000E+00 0.  1.
         24    1    1    2    0    0  0.39651995717E+02  0.82453704605E+01 -0.95380336904E+02  0.13116741791E+03  0.80419002446E+02 0.  1.
          1    1    1    2  501    0 -0.20516124232E+02 -0.14934797203E+01 -0.36000663570E+02  0.41463111469E+02  0.00000000000E+00 0. -1.
         -2    1    1    2    0  502 -0.19135871485E+02 -0.67518907402E+01  0.57177902240E+02  0.60671921929E+02  0.00000000000E+00 0.  1.
<mgrwt>
<rscale>  2 0.65452040E+02</rscale>
<asrwt>0</asrwt>
<pdfrwt beam="1">  1       21 0.12238412E-01 0.65452040E+02</pdfrwt>
<pdfrwt beam="2">  1       21 0.23654273E-01 0.65452040E+02</pdfrwt>
<totfact> 0.94343436E+05</totfact>
</mgrwt>
</event>
<event>
 5    1  0.1980138E+000  0.1100299E+03  0.7546771E-02  0.1260515E+00
         21   -1    0    0  503  502  0.00000000000E+00  0.00000000000E+00  0.13455544475E+03  0.13455544475E+03  0.00000000000E+00 0.  1.
         21   -1    0    0  501  503 -0.00000000000E+00 -0.00000000000E+00 -0.56977598212E+03  0.56977598212E+03  0.00000000000E+00 0. -1.
         24    1    1    2    0    0 -0.27805370559E+02 -0.59652875283E+02 -0.36923292664E+02  0.11028213662E+03  0.80419002446E+02 0.  0.
          1    1    1    2  501    0  0.57250452064E+02  0.64563628660E+02 -0.49003618375E+03  0.49757566037E+03  0.00000000000E+00 0. -1.
         -2    1    1    2    0  502 -0.29445081505E+02 -0.49107533764E+01  0.91738939046E+02  0.96473629873E+02  0.00000000000E+00 0.  1.
<mgrwt>
<rscale>  2 0.11002990E+03</rscale>
<asrwt>0</asrwt>
<pdfrwt beam="1">  1       21 0.20700838E-01 0.11002990E+03</pdfrwt>
<pdfrwt beam="2">  1       21 0.87657843E-01 0.11002990E+03</pdfrwt>
<totfact> 0.25523817E+04</totfact>
</mgrwt>
</event>
<event>
 5    1  0.1959123E+000  0.6427428E+02  0.7546771E-02  0.1380722E+00
         21   -1    0    0  501  502  0.00000000000E+00  0.00000000000E+00  0.85410993060E+02  0.85410993060E+02  0.00000000000E+00 0.  1.
         21   -1    0    0  502  503 -0.00000000000E+00 -0.00000000000E+00 -0.15718049007E+03  0.15718049007E+03  0.00000000000E+00 0.  1.
         24    1    1    2    0    0  0.38308167610E+01  0.23638250509E+01  0.27761435025E+01  0.80592715260E+02  0.80419002446E+02 0.  1.
          1    1    1    2  501    0  0.20851105965E+02 -0.85857771215E+01  0.39317634459E+02  0.45325054530E+02  0.00000000000E+00 0. -1.
         -2    1    1    2    0  503 -0.24681922726E+02  0.62219520706E+01 -0.11386327497E+03  0.11667371334E+03  0.00000000000E+00 0.  1.
<mgrwt>
<rscale>  2 0.64274278E+02</rscale>
<asrwt>0</asrwt>
<pdfrwt beam="1">  1       21 0.13140153E-01 0.64274278E+02</pdfrwt>
<pdfrwt beam="2">  1       21 0.24181614E-01 0.64274278E+02</pdfrwt>
<totfact> 0.79980506E+05</totfact>
</mgrwt>
</event>
<event>
 5    1  0.1959123E+000  0.1123055E+03  0.7546771E-02  0.1256359E+00
         21   -1    0    0  501  502  0.00000000000E+00  0.00000000000E+00  0.17909799543E+04  0.17909799543E+04  0.00000000000E+00 0.  1.
         21   -1    0    0  502  503 -0.00000000000E+00 -0.00000000000E+00 -0.86229782099E+01  0.86229782099E+01  0.00000000000E+00 0. -1.
         24    1    1    2    0    0  0.23846030881E+02 -0.11600767673E+02  0.10454418686E+04  0.10488656385E+04  0.80419002446E+02 0.  1.
          1    1    1    2  501    0 -0.76387544687E+02  0.32986472305E+02  0.51544856811E+03  0.52212104986E+03  0.00000000000E+00 0. -1.
         -2    1    1    2    0  503  0.52541513806E+02 -0.21385704632E+02  0.22146653936E+03  0.22861624416E+03  0.00000000000E+00 0.  1.
<mgrwt>
<rscale>  2 0.11230549E+03</rscale>
<asrwt>0</asrwt>
<pdfrwt beam="1">  1       21 0.27553508E+00 0.11230549E+03</pdfrwt>
<pdfrwt beam="2">  1       21 0.13266135E-02 0.11230549E+03</pdfrwt>
<totfact> 0.12100874E+05</totfact>
</mgrwt>
</event>
<event>
 5    1  0.1959123E+000  0.6692434E+02  0.7546771E-02  0.1370876E+00
         21   -1    0    0  501  502  0.00000000000E+00  0.00000000000E+00  0.65227620944E+02  0.65227620944E+02  0.00000000000E+00 0.  1.
         21   -1    0    0  502  503 -0.00000000000E+00 -0.00000000000E+00 -0.73334261178E+02  0.73334261178E+02  0.00000000000E+00 0. -1.
         24    1    1    2    0    0  0.15254243666E+02 -0.30610966175E+02 -0.12829595224E+02  0.88326313565E+02  0.80419002446E+02 0.  0.
          1    1    1    2  501    0 -0.22344499388E+02  0.96642162761E+01  0.11749473775E+02  0.27031904542E+02  0.00000000000E+00 0. -1.
         -2    1    1    2    0  503  0.70902557222E+01  0.20946749899E+02 -0.70265187854E+01  0.23203664016E+02  0.00000000000E+00 0.  1.
<mgrwt>
<rscale>  2 0.66924339E+02</rscale>
<asrwt>0</asrwt>
<pdfrwt beam="1">  1       21 0.10035019E-01 0.66924339E+02</pdfrwt>
<pdfrwt beam="2">  1       21 0.11282194E-01 0.66924339E+02</pdfrwt>
<totfact> 0.49849747E+06</totfact>
</mgrwt>
</event>
<event>
 5    1  0.1959123E+000  0.6584157E+02  0.7546771E-02  0.1374834E+00
         21   -1    0    0  503  502  0.00000000000E+00  0.00000000000E+00  0.19644549377E+02  0.19644549377E+02  0.00000000000E+00 0. -1.
         21   -1    0    0  501  503 -0.00000000000E+00 -0.00000000000E+00 -0.39853066598E+03  0.39853066598E+03  0.00000000000E+00 0.  1.
         24    1    1    2    0    0  0.21077421632E+02 -0.12669299771E+02 -0.15832279096E+03  0.17927099863E+03  0.80419002446E+02 0. -1.
          1    1    1    2  501    0  0.48960266107E+01  0.20007526268E+02 -0.20820126943E+03  0.20921768753E+03  0.00000000000E+00 0. -1.
         -2    1    1    2    0  502 -0.25973448243E+02 -0.73382264972E+01 -0.12362056218E+02  0.29686529196E+02  0.00000000000E+00 0.  1.
<mgrwt>
<rscale>  2 0.65841569E+02</rscale>
<asrwt>0</asrwt>
<pdfrwt beam="1">  1       21 0.30222384E-02 0.65841569E+02</pdfrwt>
<pdfrwt beam="2">  1       21 0.61312409E-01 0.65841569E+02</pdfrwt>
<totfact> 0.15178481E+06</totfact>
</mgrwt>
</event>
<event>
 5    1  0.1959123E+000  0.6663160E+02  0.7546771E-02  0.1371937E+00
         21   -1    0    0  503  502  0.00000000000E+00  0.00000000000E+00  0.40569264429E+02  0.40569264429E+02  0.00000000000E+00 0.  1.
         21   -1    0    0  501  503 -0.00000000000E+00 -0.00000000000E+00 -0.11742109624E+03  0.11742109624E+03  0.00000000000E+00 0. -1.
         24    1    1    2    0    0  0.31330978013E+02  0.89133627115E+01 -0.44156750745E+02  0.97355599781E+02  0.80419002446E+02 0.  1.
          1    1    1    2  501    0 -0.11952725965E+02 -0.20637194010E+02 -0.29226444313E+02  0.37721962857E+02  0.00000000000E+00 0. -1.
         -2    1    1    2    0  502 -0.19378252048E+02  0.11723831298E+02 -0.34686367542E+01  0.22912798033E+02  0.00000000000E+00 0.  1.
<mgrwt>
<rscale>  2 0.66631595E+02</rscale>
<asrwt>0</asrwt>
<pdfrwt beam="1">  1       21 0.62414254E-02 0.66631595E+02</pdfrwt>
<pdfrwt beam="2">  1       21 0.18064784E-01 0.66631595E+02</pdfrwt>
<totfact> 0.48552051E+06</totfact>
</mgrwt>
</event>
<event>
 5    1  0.1959123E+000  0.7750562E+02  0.7546771E-02  0.1336283E+00
         21   -1    0    0  503  502  0.00000000000E+00  0.00000000000E+00  0.17483101806E+03  0.17483101806E+03  0.00000000000E+00 0. -1.
         21   -1    0    0  501  503 -0.00000000000E+00 -0.00000000000E+00 -0.84921758767E+02  0.84921758767E+02  0.00000000000E+00 0. -1.
         24    1    1    2    0    0 -0.69763199806E+00 -0.56609910932E+02  0.12307509633E+03  0.15754321311E+03  0.80419002446E+02 0. -1.
          1    1    1    2  501    0 -0.78384371312E+00  0.31236407392E+02 -0.58500914780E+02  0.66322579773E+02  0.00000000000E+00 0. -1.
         -2    1    1    2    0  502  0.14814757112E+01  0.25373503540E+02  0.25335077744E+02  0.35886983943E+02  0.00000000000E+00 0.  1.
<mgrwt>
<rscale>  2 0.77505620E+02</rscale>
<asrwt>0</asrwt>
<pdfrwt beam="1">  1       21 0.26897080E-01 0.77505620E+02</pdfrwt>
<pdfrwt beam="2">  1       21 0.13064886E-01 0.77505620E+02</pdfrwt>
<totfact> 0.66505256E+05</totfact>
</mgrwt>
</event>
<event>
 5    1  0.1959123E+000  0.7405203E+02  0.7546771E-02  0.1346832E+00
         21   -1    0    0  503  502  0.00000000000E+00  0.00000000000E+00  0.43350262728E+03  0.43350262728E+03  0.00000000000E+00 0.  1.
         21   -1    0    0  501  503 -0.00000000000E+00 -0.00000000000E+00 -0.40003378448E+02  0.40003378448E+02  0.00000000000E+00 0. -1.
         24    1    1    2    0    0  0.13892996121E+02 -0.22093946968E+02  0.26881155528E+03  0.28179429739E+03  0.80419002446E+02 0. -1.
          1    1    1    2  501    0  0.15081839143E+02  0.29951731379E+02 -0.23219389627E+02  0.40788578539E+02  0.00000000000E+00 0. -1.
         -2    1    1    2    0  502 -0.28974835264E+02 -0.78577844113E+01  0.14790708318E+03  0.15092312980E+03  0.00000000000E+00 0.  1.
<mgrwt>
<rscale>  2 0.74052030E+02</rscale>
<asrwt>0</asrwt>
<pdfrwt beam="1">  1       21 0.66692709E-01 0.74052030E+02</pdfrwt>
<pdfrwt beam="2">  1       21 0.61543662E-02 0.74052030E+02</pdfrwt>
<totfact> 0.39645883E+05</totfact>
</mgrwt>
</event>
<event>
 5    1  0.1959123E+000  0.7220781E+02  0.7546771E-02  0.1352742E+00
         21   -1    0    0  503  502  0.00000000000E+00  0.00000000000E+00  0.53158870490E+02  0.53158870490E+02  0.00000000000E+00 0.  1.
         21   -1    0    0  501  503 -0.00000000000E+00 -0.00000000000E+00 -0.10409057009E+03  0.10409057009E+03  0.00000000000E+00 0. -1.
         24    1    1    2    0    0  0.11564140895E+02  0.38006183898E+02 -0.13261912369E+02  0.90671349627E+02  0.80419002446E+02 0.  1.
          1    1    1    2  501    0 -0.23051895668E+02 -0.11352984764E+02 -0.20364161446E+02  0.32786875855E+02  0.00000000000E+00 0. -1.
         -2    1    1    2    0  502  0.11487754772E+02 -0.26653199134E+02 -0.17305625781E+02  0.33791215093E+02  0.00000000000E+00 0.  1.
<mgrwt>
<rscale>  2 0.72207811E+02</rscale>
<asrwt>0</asrwt>
<pdfrwt beam="1">  1       21 0.81782879E-02 0.72207811E+02</pdfrwt>
<pdfrwt beam="2">  1       21 0.16013934E-01 0.72207811E+02</pdfrwt>
<totfact> 0.38436142E+06</totfact>
</mgrwt>
</event>
<event>
 5    1  0.1959123E+000  0.6878828E+02  0.7546771E-02  0.1364263E+00
         21   -1    0    0  503  502  0.00000000000E+00  0.00000000000E+00  0.13061661155E+03  0.13061661155E+03  0.00000000000E+00 0.  1.
         21   -1    0    0  501  503 -0.00000000000E+00 -0.00000000000E+00 -0.40883348219E+03  0.40883348219E+03  0.00000000000E+00 0. -1.
         24    1    1    2    0    0 -0.17179108739E+02 -0.39265253857E+01 -0.97864452830E+02  0.12788747578E+03  0.80419002446E+02 0.  1.
          1    1    1    2  501    0 -0.10466131401E+02 -0.17419710482E+02 -0.29295933606E+03  0.29366334263E+03  0.00000000000E+00 0. -1.
         -2    1    1    2    0  502  0.27645240140E+02  0.21346235868E+02  0.11260691825E+03  0.11789927534E+03  0.00000000000E+00 0.  1.
<mgrwt>
<rscale>  2 0.68788278E+02</rscale>
<asrwt>0</asrwt>
<pdfrwt beam="1">  1       21 0.20094863E-01 0.68788278E+02</pdfrwt>
<pdfrwt beam="2">  1       21 0.62897459E-01 0.68788278E+02</pdfrwt>
<totfact> 0.57564214E+04</totfact>
</mgrwt>
</event>
<event>
 5    1  0.1959123E+000  0.8173291E+02  0.7546771E-02  0.1324204E+00
         21   -1    0    0  501  502  0.00000000000E+00  0.00000000000E+00  0.11764767216E+03  0.11764767216E+03  0.00000000000E+00 0. -1.
         21   -1    0    0  502  503 -0.00000000000E+00 -0.00000000000E+00 -0.13362961313E+03  0.13362961313E+03  0.00000000000E+00 0. -1.
         24    1    1    2    0    0 -0.47670601419E+02 -0.84283319182E+01 -0.31025064422E+02  0.98859969630E+02  0.80419002446E+02 0. -1.
          1    1    1    2  501    0  0.21192452450E+02  0.29106633373E+02  0.75278957278E+02  0.83446015819E+02  0.00000000000E+00 0. -1.
         -2    1    1    2    0  503  0.26478148969E+02 -0.20678301455E+02 -0.60235833828E+02  0.68971299834E+02  0.00000000000E+00 0.  1.
<mgrwt>
<rscale>  2 0.81732914E+02</rscale>
<asrwt>0</asrwt>
<pdfrwt beam="1">  1       21 0.18099642E-01 0.81732914E+02</pdfrwt>
<pdfrwt beam="2">  1       21 0.20558402E-01 0.81732914E+02</pdfrwt>
<totfact> 0.61230923E+05</totfact>
</mgrwt>
</event>
<event>
 5    1  0.1959123E+000  0.1062208E+03  0.7546771E-02  0.1267733E+00
         21   -1    0    0  503  502  0.00000000000E+00  0.00000000000E+00  0.16078246219E+04  0.16078246219E+04  0.00000000000E+00 0. -1.
         21   -1    0    0  501  503 -0.00000000000E+00 -0.00000000000E+00 -0.85578330752E+01  0.85578330752E+01  0.00000000000E+00 0. -1.
         24    1    1    2    0    0  0.36416916209E+02  0.82784169167E+02  0.75436840844E+03  0.76401460854E+03  0.80419002446E+02 0. -1.
          1    1    1    2  501    0 -0.33077590840E+02 -0.61103716013E+02  0.34176592870E+03  0.34875742450E+03  0.00000000000E+00 0. -1.
         -2    1    1    2    0  502 -0.33393253687E+01 -0.21680453154E+02  0.50313245167E+03  0.50361042192E+03  0.00000000000E+00 0.  1.
<mgrwt>
<rscale>  2 0.10622084E+03</rscale>
<asrwt>0</asrwt>
<pdfrwt beam="1">  1       21 0.24735739E+00 0.10622084E+03</pdfrwt>
<pdfrwt beam="2">  1       21 0.13165910E-02 0.10622084E+03</pdfrwt>
<totfact> 0.17751836E+05</totfact>
</mgrwt>
</event>
<event>
 5    1  0.1959123E+000  0.9142059E+02  0.7546771E-02  0.1299448E+00
         21   -1    0    0  501  502  0.00000000000E+00  0.00000000000E+00  0.49556300366E+03  0.49556300366E+03  0.00000000000E+00 0. -1.
         21   -1    0    0  502  503 -0.00000000000E+00 -0.00000000000E+00 -0.20397583851E+02  0.20397583851E+02  0.00000000000E+00 0. -1.
         24    1    1    2    0    0 -0.67544029291E+02  0.17227955926E+02  0.33695706351E+03  0.35336422705E+03  0.80419002446E+02 0. -1.
          1    1    1    2  501    0  0.38123689289E+02 -0.25487442427E+02  0.11624702613E+03  0.12496558122E+03  0.00000000000E+00 0. -1.
         -2    1    1    2    0  503  0.29420340002E+02  0.82594865010E+01  0.21961330174E+02  0.37630779239E+02  0.00000000000E+00 0.  1.
<mgrwt>
<rscale>  2 0.91420592E+02</rscale>
<asrwt>0</asrwt>
<pdfrwt beam="1">  1       21 0.76240453E-01 0.91420592E+02</pdfrwt>
<pdfrwt beam="2">  1       21 0.31380902E-02 0.91420592E+02</pdfrwt>
<totfact> 0.90308276E+05</totfact>
</mgrwt>
</event>
<event>
 5    1  0.1959123E+000  0.6224886E+02  0.7546771E-02  0.1388629E+00
         21   -1    0    0  501  502  0.00000000000E+00  0.00000000000E+00  0.34764322469E+02  0.34764322469E+02  0.00000000000E+00 0.  1.
         21   -1    0    0  502  503 -0.00000000000E+00 -0.00000000000E+00 -0.25960466927E+03  0.25960466927E+03  0.00000000000E+00 0. -1.
         24    1    1    2    0    0  0.43453332203E+01 -0.52070514754E+01 -0.15695060774E+03  0.17648428975E+03  0.80419002446E+02 0. -1.
          1    1    1    2  501    0  0.13178383650E+02  0.17847953512E+02  0.18466858562E+02  0.28865967944E+02  0.00000000000E+00 0. -1.
         -2    1    1    2    0  503 -0.17523716871E+02 -0.12640902036E+02 -0.86356597621E+02  0.89018734039E+02  0.00000000000E+00 0.  1.
<mgrwt>
<rscale>  2 0.62248864E+02</rscale>
<asrwt>0</asrwt>
<pdfrwt beam="1">  1       21 0.53483576E-02 0.62248864E+02</pdfrwt>
<pdfrwt beam="2">  1       21 0.39939178E-01 0.62248864E+02</pdfrwt>
<totfact> 0.14176960E+06</totfact>
</mgrwt>
</event>
<event>
 5    1  0.1959123E+000  0.9127256E+02  0.7546771E-02  0.1299799E+00
         21   -1    0    0  503  502  0.00000000000E+00  0.00000000000E+00  0.19052142862E+03  0.19052142862E+03  0.00000000000E+00 0. -1.
         21   -1    0    0  501  503 -0.00000000000E+00 -0.00000000000E+00 -0.44699668978E+02  0.44699668978E+02  0.00000000000E+00 0.  1.
         24    1    1    2    0    0 -0.45398379756E+02  0.16033105244E+02  0.86229154552E+02  0.12736073334E+03  0.80419002446E+02 0.  0.
          1    1    1    2  501    0  0.87968058590E+01 -0.42657129883E+02  0.20874783748E+02  0.48298769339E+02  0.00000000000E+00 0. -1.
         -2    1    1    2    0  502  0.36601573897E+02  0.26624024638E+02  0.38717821348E+02  0.59561594922E+02  0.00000000000E+00 0.  1.
<mgrwt>
<rscale>  2 0.91272558E+02</rscale>
<asrwt>0</asrwt>
<pdfrwt beam="1">  1       21 0.29310988E-01 0.91272558E+02</pdfrwt>
<pdfrwt beam="2">  1       21 0.68768723E-02 0.91272558E+02</pdfrwt>
<totfact> 0.17156141E+06</totfact>
</mgrwt>
</event>
<event>
 5    1  0.1959123E+000  0.7401265E+02  0.7546771E-02  0.1346956E+00
         21   -1    0    0  501  502  0.00000000000E+00  0.00000000000E+00  0.28947697323E+03  0.28947697323E+03  0.00000000000E+00 0.  1.
         21   -1    0    0  502  503 -0.00000000000E+00 -0.00000000000E+00 -0.59974631402E+02  0.59974631402E+02  0.00000000000E+00 0.  1.
         24    1    1    2    0    0  0.18313278291E+01  0.23272522938E+02  0.23704309905E+03  0.25139930558E+03  0.80419002446E+02 0.  1.
          1    1    1    2  501    0  0.28857255490E+02 -0.14897020624E+02  0.33147348138E+02  0.46404839257E+02  0.00000000000E+00 0. -1.
         -2    1    1    2    0  503 -0.30688583319E+02 -0.83755023148E+01 -0.40688105361E+02  0.51647459793E+02  0.00000000000E+00 0.  1.
<mgrwt>
<rscale>  2 0.74012652E+02</rscale>
<asrwt>0</asrwt>
<pdfrwt beam="1">  1       21 0.44534918E-01 0.74012652E+02</pdfrwt>
<pdfrwt beam="2">  1       21 0.92268666E-02 0.74012652E+02</pdfrwt>
<totfact> 0.45853585E+05</totfact>
</mgrwt>
</event>
<event>
 5    1  0.1959123E+000  0.7314948E+02  0.7546771E-02  0.1349699E+00
         21   -1    0    0  501  502  0.00000000000E+00  0.00000000000E+00  0.53719018285E+02  0.53719018285E+02  0.00000000000E+00 0. -1.
         21   -1    0    0  502  503 -0.00000000000E+00 -0.00000000000E+00 -0.17982359128E+03  0.17982359128E+03  0.00000000000E+00 0.  1.
         24    1    1    2    0    0 -0.41662961225E+02  0.29425124831E+02 -0.70142569010E+02  0.11827441080E+03  0.80419002446E+02 0.  0.
          1    1    1    2  501    0  0.19977855247E+02 -0.12572543842E+02  0.22210790373E+02  0.32411460441E+02  0.00000000000E+00 0. -1.
         -2    1    1    2    0  503  0.21685105978E+02 -0.16852580988E+02 -0.78172794361E+02  0.82856738323E+02  0.00000000000E+00 0.  1.
<mgrwt>
<rscale>  2 0.73149476E+02</rscale>
<asrwt>0</asrwt>
<pdfrwt beam="1">  1       21 0.82644643E-02 0.73149476E+02</pdfrwt>
<pdfrwt beam="2">  1       21 0.27665168E-01 0.73149476E+02</pdfrwt>
<totfact> 0.13902071E+06</totfact>
</mgrwt>
</event>
<event>
 5    1  0.1959123E+000  0.2271171E+03  0.7546771E-02  0.1128685E+00
         21   -1    0    0  501  502  0.00000000000E+00  0.00000000000E+00  0.34890716443E+03  0.34890716443E+03  0.00000000000E+00 0.  1.
         21   -1    0    0  502  503 -0.00000000000E+00 -0.00000000000E+00 -0.25212958881E+03  0.25212958881E+03  0.00000000000E+00 0. -1.
         24    1    1    2    0    0 -0.78370873077E+02  0.20488815606E+03  0.23213370858E+03  0.32935455796E+03  0.80419002446E+02 0.  1.
          1    1    1    2  501    0  0.64996758086E+02 -0.18878176313E+03 -0.84719130111E+02  0.21688813628E+03  0.00000000000E+00 0. -1.
         -2    1    1    2    0  503  0.13374114991E+02 -0.16106392927E+02 -0.50637002842E+02  0.54794059000E+02  0.00000000000E+00 0.  1.
<mgrwt>
<rscale>  2 0.22711714E+03</rscale>
<asrwt>0</asrwt>
<pdfrwt beam="1">  1       21 0.53678025E-01 0.22711714E+03</pdfrwt>
<pdfrwt beam="2">  1       21 0.38789168E-01 0.22711714E+03</pdfrwt>
<totfact> 0.20633602E+04</totfact>
</mgrwt>
</event>
<event>
 5    1  0.1959123E+000  0.8632474E+02  0.7546771E-02  0.1312004E+00
         21   -1    0    0  503  502  0.00000000000E+00  0.00000000000E+00  0.29581999239E+03  0.29581999239E+03  0.00000000000E+00 0. -1.
         21   -1    0    0  501  503 -0.00000000000E+00 -0.00000000000E+00 -0.74532780076E+02  0.74532780076E+02  0.00000000000E+00 0. -1.
         24    1    1    2    0    0 -0.44429007884E+02  0.31313924687E+01  0.19214119722E+03  0.21300046475E+03  0.80419002446E+02 0. -1.
          1    1    1    2  501    0  0.23638265046E+02  0.32068422840E+02 -0.52582023907E+02  0.65969845808E+02  0.00000000000E+00 0. -1.
         -2    1    1    2    0  502  0.20790742838E+02 -0.35199815308E+02  0.81728039004E+02  0.91382461911E+02  0.00000000000E+00 0.  1.
<mgrwt>
<rscale>  2 0.86324739E+02</rscale>
<asrwt>0</asrwt>
<pdfrwt beam="1">  1       21 0.45510768E-01 0.86324739E+02</pdfrwt>
<pdfrwt beam="2">  1       21 0.11466582E-01 0.86324739E+02</pdfrwt>
<totfact> 0.30112023E+05</totfact>
</mgrwt>
</event>
<event>
 5    1  0.1959123E+000  0.1583273E+03  0.7546771E-02  0.1190598E+00
         21   -1    0    0  501  502  0.00000000000E+00  0.00000000000E+00  0.97439799409E+02  0.97439799409E+02  0.00000000000E+00 0. -1.
         21   -1    0    0  502  503 -0.00000000000E+00 -0.00000000000E+00 -0.73121450784E+03  0.73121450784E+03  0.00000000000E+00 0.  1.
         24    1    1    2    0    0  0.77484624206E+02  0.31588190681E+02 -0.37624825818E+03  0.39374058530E+03  0.80419002446E+02 0.  1.
          1    1    1    2  501    0  0.17404634969E+02  0.63752589032E+02  0.60508349788E+02  0.89602312027E+02  0.00000000000E+00 0. -1.
         -2    1    1    2    0  503 -0.94889259174E+02 -0.95340779713E+02 -0.31803480004E+03  0.34531140992E+03  0.00000000000E+00 0.  1.
<mgrwt>
<rscale>  2 0.15832728E+03</rscale>
<asrwt>0</asrwt>
<pdfrwt beam="1">  1       21 0.14990739E-01 0.15832728E+03</pdfrwt>
<pdfrwt beam="2">  1       21 0.11249454E+00 0.15832728E+03</pdfrwt>
<totfact> 0.24824591E+04</totfact>
</mgrwt>
</event>
<event>
 5    1  0.1959123E+000  0.9637070E+02  0.7546771E-02  0.1288118E+00
         21   -1    0    0  503  502  0.00000000000E+00  0.00000000000E+00  0.25399402943E+03  0.25399402943E+03  0.00000000000E+00 0.  1.
         21   -1    0    0  501  503 -0.00000000000E+00 -0.00000000000E+00 -0.31324352155E+03  0.31324352155E+03  0.00000000000E+00 0. -1.
         24    1    1    2    0    0 -0.46731352757E+02 -0.20997345460E+02 -0.11827671826E+03  0.15192532996E+03  0.80419002446E+02 0.  0.
          1    1    1    2  501    0  0.57170734581E+01  0.47964615296E+02 -0.17224415343E+03  0.17888917698E+03  0.00000000000E+00 0. -1.
         -2    1    1    2    0  502  0.41014279299E+02 -0.26967269835E+02  0.23127137957E+03  0.23642304405E+03  0.00000000000E+00 0.  1.
<mgrwt>
<rscale>  2 0.96370700E+02</rscale>
<asrwt>0</asrwt>
<pdfrwt beam="1">  1       21 0.39076005E-01 0.96370700E+02</pdfrwt>
<pdfrwt beam="2">  1       21 0.48191311E-01 0.96370700E+02</pdfrwt>
<totfact> 0.27682260E+04</totfact>
</mgrwt>
</event>
<event>
 5    1  0.1959123E+000  0.1456064E+03  0.7546771E-02  0.1205978E+00
         21   -1    0    0  503  502  0.00000000000E+00  0.00000000000E+00  0.61384469113E+03  0.61384469113E+03  0.00000000000E+00 0.  1.
         21   -1    0    0  501  503 -0.00000000000E+00 -0.00000000000E+00 -0.37285476144E+02  0.37285476144E+02  0.00000000000E+00 0. -1.
         24    1    1    2    0    0 -0.10643115961E+03  0.30353089074E+02  0.18587023250E+03  0.23078964673E+03  0.80419002446E+02 0. -1.
          1    1    1    2  501    0  0.54114175883E+02  0.39597933284E+02  0.15055159637E+03  0.16480935508E+03  0.00000000000E+00 0. -1.
         -2    1    1    2    0  502  0.52316983726E+02 -0.69951022357E+02  0.24013738611E+03  0.25553116546E+03  0.00000000000E+00 0.  1.
<mgrwt>
<rscale>  2 0.14560635E+03</rscale>
<asrwt>0</asrwt>
<pdfrwt beam="1">  1       21 0.94437637E-01 0.14560635E+03</pdfrwt>
<pdfrwt beam="2">  1       21 0.57362276E-02 0.14560635E+03</pdfrwt>
<totfact> 0.20299705E+05</totfact>
</mgrwt>
</event>
<event>
 5    1  0.1959123E+000  0.6645468E+02  0.7546771E-02  0.1372582E+00
         21   -1    0    0  501  502  0.00000000000E+00  0.00000000000E+00  0.17811982157E+03  0.17811982157E+03  0.00000000000E+00 0.  1.
         21   -1    0    0  502  503 -0.00000000000E+00 -0.00000000000E+00 -0.60764866824E+02  0.60764866824E+02  0.00000000000E+00 0.  1.
         24    1    1    2    0    0  0.17105822620E+01  0.79570286101E+01 -0.11918424953E+01  0.80838585087E+02  0.80419002446E+02 0.  1.
          1    1    1    2  501    0  0.85629149545E+01  0.20289678933E+02  0.12531594861E+03  0.12723632170E+03  0.00000000000E+00 0. -1.
         -2    1    1    2    0  503 -0.10273497217E+02 -0.28246707543E+02 -0.67691513726E+01  0.30809781603E+02  0.00000000000E+00 0.  1.
<mgrwt>
<rscale>  2 0.66454679E+02</rscale>
<asrwt>0</asrwt>
<pdfrwt beam="1">  1       21 0.27403049E-01 0.66454679E+02</pdfrwt>
<pdfrwt beam="2">  1       21 0.93484411E-02 0.66454679E+02</pdfrwt>
<totfact> 0.11430421E+06</totfact>
</mgrwt>
</event>
<event>
 5    1  0.1959123E+000  0.6425059E+02  0.7546771E-02  0.1380813E+00
         21   -1    0    0  501  502  0.00000000000E+00  0.00000000000E+00  0.13027362719E+03  0.13027362719E+03  0.00000000000E+00 0.  1.
         21   -1    0    0  502  503 -0.00000000000E+00 -0.00000000000E+00 -0.40561800719E+02  0.40561800719E+02  0.00000000000E+00 0. -1.
         24    1    1    2    0    0  0.16612396435E+02 -0.36196553864E+01  0.30937830034E+02  0.87826185742E+02  0.80419002446E+02 0. -1.
          1    1    1    2  501    0 -0.59170291020E+01  0.23227538278E+02  0.55474898564E+02  0.60431731222E+02  0.00000000000E+00 0. -1.
         -2    1    1    2    0  503 -0.10695367333E+02 -0.19607882892E+02  0.32990978782E+01  0.22577510950E+02  0.00000000000E+00 0.  1.
<mgrwt>
<rscale>  2 0.64250588E+02</rscale>
<asrwt>0</asrwt>
<pdfrwt beam="1">  1       21 0.20042096E-01 0.64250588E+02</pdfrwt>
<pdfrwt beam="2">  1       21 0.62402771E-02 0.64250588E+02</pdfrwt>
<totfact> 0.40156698E+06</totfact>
</mgrwt>
</event>
<event>
 5    1  0.1959123E+000  0.7592517E+02  0.7546771E-02  0.1341030E+00
         21   -1    0    0  503  502  0.00000000000E+00  0.00000000000E+00  0.26942991046E+02  0.26942991046E+02  0.00000000000E+00 0.  1.
         21   -1    0    0  501  503 -0.00000000000E+00 -0.00000000000E+00 -0.22985533110E+03  0.22985533110E+03  0.00000000000E+00 0. -1.
         24    1    1    2    0    0  0.12275965959E+01 -0.12026044901E+02 -0.13507269811E+03  0.15766414455E+03  0.80419002446E+02 0. -1.
          1    1    1    2  501    0  0.68128701554E+01 -0.28453358763E+02 -0.39136745320E+02  0.48864032365E+02  0.00000000000E+00 0. -1.
         -2    1    1    2    0  502 -0.80404667513E+01  0.40479403664E+02 -0.28702896629E+02  0.50270145230E+02  0.00000000000E+00 0.  1.
<mgrwt>
<rscale>  2 0.75925174E+02</rscale>
<asrwt>0</asrwt>
<pdfrwt beam="1">  1       21 0.41450756E-02 0.75925174E+02</pdfrwt>
<pdfrwt beam="2">  1       21 0.35362358E-01 0.75925174E+02</pdfrwt>
<totfact> 0.27595465E+06</totfact>
</mgrwt>
</event>
<event>
 5    1  0.1959123E+000  0.1092641E+03  0.7546771E-02  0.1261939E+00
         21   -1    0    0  503  502  0.00000000000E+00  0.00000000000E+00  0.98669677442E+03  0.98669677442E+03  0.00000000000E+00 0. -1.
         21   -1    0    0  501  503 -0.00000000000E+00 -0.00000000000E+00 -0.17301804735E+02  0.17301804735E+02  0.00000000000E+00 0.  1.
         24    1    1    2    0    0  0.26151758448E+02 -0.74917292397E+02  0.50617054452E+03  0.51862544410E+03  0.80419002446E+02 0.  1.
          1    1    1    2  501    0 -0.49947402202E+02  0.56845939460E+02  0.12708346608E+03  0.14790676512E+03  0.00000000000E+00 0. -1.
         -2    1    1    2    0  502  0.23795643754E+02  0.18071352937E+02  0.33614095909E+03  0.33746636993E+03  0.00000000000E+00 0.  1.
<mgrwt>
<rscale>  2 0.10926412E+03</rscale>
<asrwt>0</asrwt>
<pdfrwt beam="1">  1       21 0.15179946E+00 0.10926412E+03</pdfrwt>
<pdfrwt beam="2">  1       21 0.26618169E-02 0.10926412E+03</pdfrwt>
<totfact> 0.23072162E+05</totfact>
</mgrwt>
</event>
<event>
 5    1  0.1959123E+000  0.6256675E+02  0.7546771E-02  0.1387365E+00
         21   -1    0    0  501  502  0.00000000000E+00  0.00000000000E+00  0.19963637733E+02  0.19963637733E+02  0.00000000000E+00 0.  1.
         21   -1    0    0  502  503 -0.00000000000E+00 -0.00000000000E+00 -0.21545391153E+03  0.21545391153E+03  0.00000000000E+00 0. -1.
         24    1    1    2    0    0 -0.13372889183E+02 -0.10282189975E+02 -0.14782889299E+03  0.16913058609E+03  0.80419002446E+02 0.  0.
          1    1    1    2  501    0 -0.63175274299E+01  0.20023191340E+02 -0.11403250379E+02  0.23892958450E+02  0.00000000000E+00 0. -1.
         -2    1    1    2    0  503  0.19690416613E+02 -0.97410013648E+01 -0.36258130434E+02  0.42394004724E+02  0.00000000000E+00 0.  1.
<mgrwt>
<rscale>  2 0.62566750E+02</rscale>
<asrwt>0</asrwt>
<pdfrwt beam="1">  1       21 0.30713289E-02 0.62566750E+02</pdfrwt>
<pdfrwt beam="2">  1       21 0.33146755E-01 0.62566750E+02</pdfrwt>
<totfact> 0.50242437E+06</totfact>
</mgrwt>
</event>
<event>
 5    1  0.1959123E+000  0.8040039E+02  0.7546771E-02  0.1327919E+00
         21   -1    0    0  501  502  0.00000000000E+00  0.00000000000E+00  0.19688258880E+02  0.19688258880E+02  0.00000000000E+00 0. -1.
         21   -1    0    0  502  503 -0.00000000000E+00 -0.00000000000E+00 -0.68626042440E+03  0.68626042440E+03  0.00000000000E+00 0.  1.
         24    1    1    2    0    0  0.30361901381E+02 -0.18390660710E+02 -0.11667518798E+03  0.14608345868E+03  0.80419002446E+02 0.  0.
          1    1    1    2  501    0 -0.24881874594E+02 -0.21345741125E+02 -0.60365702858E+02  0.68693277903E+02  0.00000000000E+00 0. -1.
         -2    1    1    2    0  503 -0.54800267870E+01  0.39736401835E+02 -0.48953127469E+03  0.49117194669E+03  0.00000000000E+00 0.  1.
<mgrwt>
<rscale>  2 0.80400392E+02</rscale>
<asrwt>0</asrwt>
<pdfrwt beam="1">  1       21 0.30289636E-02 0.80400392E+02</pdfrwt>
<pdfrwt beam="2">  1       21 0.10557850E+00 0.80400392E+02</pdfrwt>
<totfact> 0.45865919E+05</totfact>
</mgrwt>
</event>
<event>
 5    1  0.1959123E+000  0.7222806E+02  0.7546771E-02  0.1352676E+00
         21   -1    0    0  501  502  0.00000000000E+00  0.00000000000E+00  0.12812059447E+02  0.12812059447E+02  0.00000000000E+00 0. -1.
         21   -1    0    0  502  503 -0.00000000000E+00 -0.00000000000E+00 -0.65065296315E+03  0.65065296315E+03  0.00000000000E+00 0. -1.
         24    1    1    2    0    0  0.10173810030E+02 -0.17471023279E+02 -0.47517957205E+03  0.48236043029E+03  0.80419002446E+02 0. -1.
          1    1    1    2  501    0 -0.81804536403E+01  0.39032896789E+02 -0.39775895540E+02  0.56325915168E+02  0.00000000000E+00 0. -1.
         -2    1    1    2    0  503 -0.19933563900E+01 -0.21561873510E+02 -0.12288543612E+03  0.12477867714E+03  0.00000000000E+00 0.  1.
<mgrwt>
<rscale>  2 0.72228065E+02</rscale>
<asrwt>0</asrwt>
<pdfrwt beam="1">  1       21 0.19710858E-02 0.72228065E+02</pdfrwt>
<pdfrwt beam="2">  1       21 0.10010047E+00 0.72228065E+02</pdfrwt>
<totfact> 0.10339031E+06</totfact>
</mgrwt>
</event>
<event>
 5    1  0.1959123E+000  0.8167167E+02  0.7546771E-02  0.1324373E+00
         21   -1    0    0  501  502  0.00000000000E+00  0.00000000000E+00  0.16863850098E+03  0.16863850098E+03  0.00000000000E+00 0. -1.
         21   -1    0    0  502  503 -0.00000000000E+00 -0.00000000000E+00 -0.68884566807E+02  0.68884566807E+02  0.00000000000E+00 0. -1.
         24    1    1    2    0    0 -0.35300509839E+02 -0.28564633921E+01 -0.81930800648E+01  0.88253203304E+02  0.80419002446E+02 0. -1.
          1    1    1    2  501    0  0.19017886810E+02 -0.31872240631E+02  0.10433973407E+03  0.11074429939E+03  0.00000000000E+00 0. -1.
         -2    1    1    2    0  503  0.16282623029E+02  0.34728704023E+02  0.36072801717E+01  0.38525565097E+02  0.00000000000E+00 0.  1.
<mgrwt>
<rscale>  2 0.81671670E+02</rscale>
<asrwt>0</asrwt>
<pdfrwt beam="1">  1       21 0.25944385E-01 0.81671670E+02</pdfrwt>
<pdfrwt beam="2">  1       21 0.10597626E-01 0.81671670E+02</pdfrwt>
<totfact> 0.10263640E+06</totfact>
</mgrwt>
</event>
<event>
 5    1  0.1959123E+000  0.1248002E+03  0.7546771E-02  0.1235382E+00
         21   -1    0    0  503  502  0.00000000000E+00  0.00000000000E+00  0.11427425215E+04  0.11427425215E+04  0.00000000000E+00 0.  1.
         21   -1    0    0  501  503 -0.00000000000E+00 -0.00000000000E+00 -0.18103670855E+02  0.18103670855E+02  0.00000000000E+00 0. -1.
         24    1    1    2    0    0 -0.31377531306E+02 -0.31425441023E+02  0.27865666651E+03  0.29340903456E+03  0.80419002446E+02 0. -1.
          1    1    1    2  501    0 -0.19964467328E+02  0.82758443666E+02  0.19968960327E+03  0.21707942695E+03  0.00000000000E+00 0. -1.
         -2    1    1    2    0  502  0.51341998634E+02 -0.51333002643E+02  0.64629258085E+03  0.65035773083E+03  0.00000000000E+00 0.  1.
<mgrwt>
<rscale>  2 0.12480023E+03</rscale>
<asrwt>0</asrwt>
<pdfrwt beam="1">  1       21 0.17580649E+00 0.12480023E+03</pdfrwt>
<pdfrwt beam="2">  1       21 0.27851810E-02 0.12480023E+03</pdfrwt>
<totfact> 0.14396543E+05</totfact>
</mgrwt>
</event>
<event>
 5    1  0.1959123E+000  0.9139989E+02  0.7546771E-02  0.1299497E+00
         21   -1    0    0  501  502  0.00000000000E+00  0.00000000000E+00  0.71231614304E+01  0.71231614304E+01  0.00000000000E+00 0.  1.
         21   -1    0    0  502  503 -0.00000000000E+00 -0.00000000000E+00 -0.12970827526E+04  0.12970827526E+04  0.00000000000E+00 0.  1.
         24    1    1    2    0    0 -0.28527751896E+02 -0.61545439196E+02 -0.77753418267E+03  0.78461984099E+03  0.80419002446E+02 0.  1.
          1    1    1    2  501    0 -0.33220107518E+01  0.37593473384E+02 -0.13872826793E+03  0.14377008493E+03  0.00000000000E+00 0. -1.
         -2    1    1    2    0  503  0.31849762648E+02  0.23951965811E+02 -0.37369714061E+03  0.37581598815E+03  0.00000000000E+00 0.  1.
<mgrwt>
<rscale>  2 0.91399890E+02</rscale>
<asrwt>0</asrwt>
<pdfrwt beam="1">  1       21 0.10958723E-02 0.91399890E+02</pdfrwt>
<pdfrwt beam="2">  1       21 0.19955096E+00 0.91399890E+02</pdfrwt>
<totfact> 0.45795875E+05</totfact>
</mgrwt>
</event>
<event>
 5    1  0.1959123E+000  0.1377232E+03  0.7546771E-02  0.1216426E+00
         21   -1    0    0  501  502  0.00000000000E+00  0.00000000000E+00  0.12669986737E+04  0.12669986737E+04  0.00000000000E+00 0.  1.
         21   -1    0    0  502  503 -0.00000000000E+00 -0.00000000000E+00 -0.41091180600E+02  0.41091180600E+02  0.00000000000E+00 0.  1.
         24    1    1    2    0    0  0.61704351990E+02 -0.13835519497E+02  0.79258372733E+03  0.79915895130E+03  0.80419002446E+02 0.  1.
          1    1    1    2  501    0 -0.14173324349E+02  0.85764587515E+02  0.41069789196E+03  0.41979662463E+03  0.00000000000E+00 0. -1.
         -2    1    1    2    0  503 -0.47531027641E+02 -0.71929068018E+02  0.22625873811E+02  0.89134278368E+02  0.00000000000E+00 0.  1.
<mgrwt>
<rscale>  2 0.13772320E+03</rscale>
<asrwt>0</asrwt>
<pdfrwt beam="1">  1       21 0.19492284E+00 0.13772320E+03</pdfrwt>
<pdfrwt beam="2">  1       21 0.63217211E-02 0.13772320E+03</pdfrwt>
<totfact> 0.27248970E+04</totfact>
</mgrwt>
</event>
<event>
 5    1  0.1959123E+000  0.1231417E+03  0.7546771E-02  0.1238002E+00
         21   -1    0    0  501  502  0.00000000000E+00  0.00000000000E+00  0.16120174023E+03  0.16120174023E+03  0.00000000000E+00 0. -1.
         21   -1    0    0  502  503 -0.00000000000E+00 -0.00000000000E+00 -0.14572303042E+03  0.14572303042E+03  0.00000000000E+00 0.  1.
         24    1    1    2    0    0 -0.48974791995E+02 -0.52672468761E+02  0.92920363870E+01  0.10828885959E+03  0.80419002446E+02 0. -1.
          1    1    1    2  501    0 -0.12735437513E+02  0.72474154515E+02  0.74331274340E+02  0.10459365557E+03  0.00000000000E+00 0. -1.
         -2    1    1    2    0  503  0.61710229507E+02 -0.19801685755E+02 -0.68144600915E+02  0.94042255495E+02  0.00000000000E+00 0.  1.
<mgrwt>
<rscale>  2 0.12314174E+03</rscale>
<asrwt>0</asrwt>
<pdfrwt beam="1">  1       21 0.24800268E-01 0.12314174E+03</pdfrwt>
<pdfrwt beam="2">  1       21 0.22418928E-01 0.12314174E+03</pdfrwt>
<totfact> 0.29071301E+05</totfact>
</mgrwt>
</event>
<event>
 5    1  0.1959123E+000  0.6783178E+02  0.7546771E-02  0.1367625E+00
         21   -1    0    0  503  502  0.00000000000E+00  0.00000000000E+00  0.86162533226E+02  0.86162533226E+02  0.00000000000E+00 0. -1.
         21   -1    0    0  501  503 -0.00000000000E+00 -0.00000000000E+00 -0.85635427782E+02  0.85635427782E+02  0.00000000000E+00 0. -1.
         24    1    1    2    0    0  0.78420629350E+00 -0.37636399338E+02  0.26837548797E+02  0.92760894317E+02  0.80419002446E+02 0. -1.
          1    1    1    2  501    0 -0.14239955027E+02  0.16291787704E+02 -0.43446356500E+02  0.48536425073E+02  0.00000000000E+00 0. -1.
         -2    1    1    2    0  502  0.13455748733E+02  0.21344611633E+02  0.17135913147E+02  0.30500641618E+02  0.00000000000E+00 0.  1.
<mgrwt>
<rscale>  2 0.67831781E+02</rscale>
<asrwt>0</asrwt>
<pdfrwt beam="1">  1       21 0.13255774E-01 0.67831781E+02</pdfrwt>
<pdfrwt beam="2">  1       21 0.13174681E-01 0.67831781E+02</pdfrwt>
<totfact> 0.23496327E+06</totfact>
</mgrwt>
</event>
<event>
 5    1  0.1959123E+000  0.6673804E+02  0.7546771E-02  0.1371550E+00
         21   -1    0    0  503  502  0.00000000000E+00  0.00000000000E+00  0.57502294992E+02  0.57502294992E+02  0.00000000000E+00 0.  1.
         21   -1    0    0  501  503 -0.00000000000E+00 -0.00000000000E+00 -0.17274815273E+03  0.17274815273E+03  0.00000000000E+00 0. -1.
         24    1    1    2    0    0  0.30669795464E+02  0.13514457856E+02 -0.33088140495E+02  0.93195053092E+02  0.80419002446E+02 0. -1.
          1    1    1    2  501    0 -0.19042371575E+02  0.89626646728E+01 -0.10246771466E+03  0.10460675801E+03  0.00000000000E+00 0. -1.
         -2    1    1    2    0  502 -0.11627423889E+02 -0.22477122529E+02  0.20309997418E+02  0.32448636622E+02  0.00000000000E+00 0.  1.
<mgrwt>
<rscale>  2 0.66738043E+02</rscale>
<asrwt>0</asrwt>
<pdfrwt beam="1">  1       21 0.88465069E-02 0.66738043E+02</pdfrwt>
<pdfrwt beam="2">  1       21 0.26576639E-01 0.66738043E+02</pdfrwt>
<totfact> 0.13301448E+06</totfact>
</mgrwt>
</event>
<event>
 5    1  0.1959123E+000  0.8085238E+02  0.7546771E-02  0.1326650E+00
         21   -1    0    0  501  502  0.00000000000E+00  0.00000000000E+00  0.72824936917E+01  0.72824936917E+01  0.00000000000E+00 0.  1.
         21   -1    0    0  502  503 -0.00000000000E+00 -0.00000000000E+00 -0.19685947307E+04  0.19685947307E+04  0.00000000000E+00 0.  1.
         24    1    1    2    0    0  0.17434809576E+02  0.15230955133E+02 -0.32519012564E+03  0.33578533075E+03  0.80419002446E+02 0.  1.
          1    1    1    2  501    0  0.23903411989E+01 -0.43459436433E+02 -0.26614243702E+03  0.26967801751E+03  0.00000000000E+00 0. -1.
         -2    1    1    2    0  503 -0.19825150775E+02  0.28228481300E+02 -0.13699796744E+04  0.13704138762E+04  0.00000000000E+00 0.  1.
<mgrwt>
<rscale>  2 0.80852381E+02</rscale>
<asrwt>0</asrwt>
<pdfrwt beam="1">  1       21 0.11203840E-02 0.80852381E+02</pdfrwt>
<pdfrwt beam="2">  1       21 0.30286063E+00 0.80852381E+02</pdfrwt>
<totfact> 0.11665009E+05</totfact>
</mgrwt>
</event>
<event>
 5    1  0.1959123E+000  0.7182647E+02  0.7546771E-02  0.1353990E+00
         21   -1    0    0  501  502  0.00000000000E+00  0.00000000000E+00  0.98402141480E+01  0.98402141480E+01  0.00000000000E+00 0. -1.
         21   -1    0    0  502  503 -0.00000000000E+00 -0.00000000000E+00 -0.10332530608E+04  0.10332530608E+04  0.00000000000E+00 0. -1.
         24    1    1    2    0    0  0.95059298525E+01  0.11753378045E+02 -0.65897387847E+03  0.66403485831E+03  0.80419002446E+02 0. -1.
          1    1    1    2  501    0  0.11948870596E+02 -0.30862349131E+02 -0.34268367532E+02  0.47640120861E+02  0.00000000000E+00 0. -1.
         -2    1    1    2    0  503 -0.21454800449E+02  0.19108971086E+02 -0.33017060068E+03  0.33141829580E+03  0.00000000000E+00 0.  1.
<mgrwt>
<rscale>  2 0.71826469E+02</rscale>
<asrwt>0</asrwt>
<pdfrwt beam="1">  1       21 0.15138804E-02 0.71826469E+02</pdfrwt>
<pdfrwt beam="2">  1       21 0.15896187E+00 0.71826469E+02</pdfrwt>
<totfact> 0.51268622E+05</totfact>
</mgrwt>
</event>
<event>
 5    1  0.1959123E+000  0.9033039E+02  0.7546771E-02  0.1302054E+00
         21   -1    0    0  501  502  0.00000000000E+00  0.00000000000E+00  0.49020908776E+02  0.49020908776E+02  0.00000000000E+00 0. -1.
         21   -1    0    0  502  503 -0.00000000000E+00 -0.00000000000E+00 -0.20182498589E+03  0.20182498589E+03  0.00000000000E+00 0. -1.
         24    1    1    2    0    0  0.13533154173E+02 -0.84103688671E+00 -0.33225975063E+02  0.88062676420E+02  0.80419002446E+02 0.  0.
          1    1    1    2  501    0 -0.37866725458E+02 -0.37759842058E+02 -0.27760879824E+02  0.60252477275E+02  0.00000000000E+00 0. -1.
         -2    1    1    2    0  503  0.24333571285E+02  0.38600878945E+02 -0.91817222224E+02  0.10253074097E+03  0.00000000000E+00 0.  1.
<mgrwt>
<rscale>  2 0.90330395E+02</rscale>
<asrwt>0</asrwt>
<pdfrwt beam="1">  1       21 0.75416783E-02 0.90330395E+02</pdfrwt>
<pdfrwt beam="2">  1       21 0.31049998E-01 0.90330395E+02</pdfrwt>
<totfact> 0.13133929E+06</totfact>
</mgrwt>
</event>
<event>
 5    1  0.1959123E+000  0.7341788E+02  0.7546771E-02  0.1348842E+00
         21   -1    0    0  503  502  0.00000000000E+00  0.00000000000E+00  0.32580322433E+02  0.32580322433E+02  0.00000000000E+00 0. -1.
         21   -1    0    0  501  503 -0.00000000000E+00 -0.00000000000E+00 -0.17486418189E+03  0.17486418189E+03  0.00000000000E+00 0. -1.
         24    1    1    2    0    0 -0.14874150011E+02 -0.12781391366E+02 -0.73430089600E+02  0.11065169821E+03  0.80419002446E+02 0. -1.
          1    1    1    2  501    0  0.33773276876E+02  0.24588427960E+02 -0.59322058477E+02  0.72555714057E+02  0.00000000000E+00 0. -1.
         -2    1    1    2    0  502 -0.18899126865E+02 -0.11807036594E+02 -0.95317113760E+01  0.24237092052E+02  0.00000000000E+00 0.  1.
<mgrwt>
<rscale>  2 0.73417879E+02</rscale>
<asrwt>0</asrwt>
<pdfrwt beam="1">  1       21 0.50123573E-02 0.73417879E+02</pdfrwt>
<pdfrwt beam="2">  1       21 0.26902182E-01 0.73417879E+02</pdfrwt>
<totfact> 0.33902366E+06</totfact>
</mgrwt>
</event>
<event>
 5    1  0.1959123E+000  0.6356580E+02  0.7546771E-02  0.1383449E+00
         21   -1    0    0  503  502  0.00000000000E+00  0.00000000000E+00  0.11495497398E+03  0.11495497398E+03  0.00000000000E+00 0.  1.
         21   -1    0    0  501  503 -0.00000000000E+00 -0.00000000000E+00 -0.41588403275E+02  0.41588403275E+02  0.00000000000E+00 0. -1.
         24    1    1    2    0    0 -0.16676716564E+02 -0.82419144747E+01  0.69068837095E+02  0.10762788784E+03  0.80419002446E+02 0.  1.
          1    1    1    2  501    0  0.95248214727E-01  0.22633206416E+02 -0.76852121414E+01  0.23902585436E+02  0.00000000000E+00 0. -1.
         -2    1    1    2    0  502  0.16581468349E+02 -0.14391291941E+02  0.11982945749E+02  0.25012903973E+02  0.00000000000E+00 0.  1.
<mgrwt>
<rscale>  2 0.63565803E+02</rscale>
<asrwt>0</asrwt>
<pdfrwt beam="1">  1       21 0.17685380E-01 0.63565803E+02</pdfrwt>
<pdfrwt beam="2">  1       21 0.63982159E-02 0.63565803E+02</pdfrwt>
<totfact> 0.48214429E+06</totfact>
</mgrwt>
</event>
<event>
 5    1  0.1959123E+000  0.8306292E+02  0.7546771E-02  0.1320577E+00
         21   -1    0    0  503  502  0.00000000000E+00  0.00000000000E+00  0.30073049441E+02  0.30073049441E+02  0.00000000000E+00 0.  1.
         21   -1    0    0  501  503 -0.00000000000E+00 -0.00000000000E+00 -0.10080734162E+04  0.10080734162E+04  0.00000000000E+00 0.  1.
         24    1    1    2    0    0 -0.32743096633E+02 -0.28963282988E+02 -0.68952860480E+03  0.69557738242E+03  0.80419002446E+02 0.  1.
          1    1    1    2  501    0 -0.87066486717E+01  0.31873775836E+02 -0.29809243516E+03  0.29991806084E+03  0.00000000000E+00 0. -1.
         -2    1    1    2    0  502  0.41449745305E+02 -0.29104928484E+01  0.96206732319E+01  0.42651022354E+02  0.00000000000E+00 0.  1.
<mgrwt>
<rscale>  2 0.83062920E+02</rscale>
<asrwt>0</asrwt>
<pdfrwt beam="1">  1       21 0.46266222E-02 0.83062920E+02</pdfrwt>
<pdfrwt beam="2">  1       21 0.15508824E+00 0.83062920E+02</pdfrwt>
<totfact> 0.89657777E+04</totfact>
</mgrwt>
</event>
<event>
 5    1  0.1959123E+000  0.6941598E+02  0.7546771E-02  0.1362090E+00
         21   -1    0    0  503  502  0.00000000000E+00  0.00000000000E+00  0.29671210808E+02  0.29671210808E+02  0.00000000000E+00 0. -1.
         21   -1    0    0  501  503 -0.00000000000E+00 -0.00000000000E+00 -0.18258129132E+03  0.18258129132E+03  0.00000000000E+00 0. -1.
         24    1    1    2    0    0 -0.39106716113E+01  0.45781457134E+02 -0.95395489740E+02  0.13296146279E+03  0.80419002446E+02 0. -1.
          1    1    1    2  501    0 -0.25115582651E+00 -0.25825183697E+02 -0.52175919592E+02  0.58217950647E+02  0.00000000000E+00 0. -1.
         -2    1    1    2    0  502  0.41618274378E+01 -0.19956273436E+02 -0.53386711799E+01  0.21073088693E+02  0.00000000000E+00 0.  1.
<mgrwt>
<rscale>  2 0.69415979E+02</rscale>
<asrwt>0</asrwt>
<pdfrwt beam="1">  1       21 0.45648017E-02 0.69415979E+02</pdfrwt>
<pdfrwt beam="2">  1       21 0.28089429E-01 0.69415979E+02</pdfrwt>
<totfact> 0.36345361E+06</totfact>
</mgrwt>
</event>
<event>
 5    1  0.1959123E+000  0.1192085E+03  0.7546771E-02  0.1244409E+00
         21   -1    0    0  503  502  0.00000000000E+00  0.00000000000E+00  0.19811099319E+04  0.19811099319E+04  0.00000000000E+00 0.  1.
         21   -1    0    0  501  503 -0.00000000000E+00 -0.00000000000E+00 -0.15637864233E+02  0.15637864233E+02  0.00000000000E+00 0. -1.
         24    1    1    2    0    0  0.50112727969E+02  0.48185574517E+02  0.34324607061E+03  0.35933023257E+03  0.80419002446E+02 0. -1.
          1    1    1    2  501    0 -0.70162157855E+02  0.97230469987E+01  0.17358151421E+03  0.18747748695E+03  0.00000000000E+00 0. -1.
         -2    1    1    2    0  502  0.20049429886E+02 -0.57908621516E+02  0.14486444829E+04  0.14499400766E+04  0.00000000000E+00 0.  1.
<mgrwt>
<rscale>  2 0.11920850E+03</rscale>
<asrwt>0</asrwt>
<pdfrwt beam="1">  1       21 0.30478594E+00 0.11920850E+03</pdfrwt>
<pdfrwt beam="2">  1       21 0.24058268E-02 0.11920850E+03</pdfrwt>
<totfact> 0.31727506E+04</totfact>
</mgrwt>
</event>
<event>
 5    1  0.1959123E+000  0.9593537E+02  0.7546771E-02  0.1289083E+00
         21   -1    0    0  503  502  0.00000000000E+00  0.00000000000E+00  0.24139783295E+02  0.24139783295E+02  0.00000000000E+00 0. -1.
         21   -1    0    0  501  503 -0.00000000000E+00 -0.00000000000E+00 -0.67279171796E+03  0.67279171796E+03  0.00000000000E+00 0.  1.
         24    1    1    2    0    0  0.61357472936E+02  0.24975210400E+02 -0.11163287158E+03  0.15270106284E+03  0.80419002446E+02 0. -1.
          1    1    1    2  501    0 -0.24052400298E+02 -0.40636170409E+02 -0.25677127213E+03  0.26107719643E+03  0.00000000000E+00 0. -1.
         -2    1    1    2    0  502 -0.37305072638E+02  0.15660960009E+02 -0.28024779096E+03  0.28315324199E+03  0.00000000000E+00 0.  1.
<mgrwt>
<rscale>  2 0.95935372E+02</rscale>
<asrwt>0</asrwt>
<pdfrwt beam="1">  1       21 0.37138130E-02 0.95935372E+02</pdfrwt>
<pdfrwt beam="2">  1       21 0.10350641E+00 0.95935372E+02</pdfrwt>
<totfact> 0.34343493E+05</totfact>
</mgrwt>
</event>
<event>
 5    1  0.1959123E+000  0.1040329E+03  0.7546771E-02  0.1272037E+00
         21   -1    0    0  501  502  0.00000000000E+00  0.00000000000E+00  0.70891204670E+02  0.70891204670E+02  0.00000000000E+00 0. -1.
         21   -1    0    0  502  503 -0.00000000000E+00 -0.00000000000E+00 -0.91777996440E+03  0.91777996440E+03  0.00000000000E+00 0.  1.
         24    1    1    2    0    0  0.26798347385E+02  0.41306268587E+02 -0.69048638636E+02  0.11687296394E+03  0.80419002446E+02 0. -1.
          1    1    1    2  501    0  0.13612473667E+02 -0.65346874288E+02  0.22225071897E+02  0.70352450130E+02  0.00000000000E+00 0. -1.
         -2    1    1    2    0  503 -0.40410821052E+02  0.24040605701E+02 -0.80006519299E+03  0.80144575501E+03  0.00000000000E+00 0.  1.
<mgrwt>
<rscale>  2 0.10403295E+03</rscale>
<asrwt>0</asrwt>
<pdfrwt beam="1">  1       21 0.10906340E-01 0.10403295E+03</pdfrwt>
<pdfrwt beam="2">  1       21 0.14119691E+00 0.10403295E+03</pdfrwt>
<totfact> 0.26016414E+04</totfact>
</mgrwt>
</event>
<event>
 5    1  0.1959123E+000  0.6875638E+02  0.7546771E-02  0.1364374E+00
         21   -1    0    0  503  502  0.00000000000E+00  0.00000000000E+00  0.20868417947E+02  0.20868417947E+02  0.00000000000E+00 0.  1.
         21   -1    0    0  501  503 -0.00000000000E+00 -0.00000000000E+00 -0.29917329419E+03  0.29917329419E+03  0.00000000000E+00 0.  1.
         24    1    1    2    0    0  0.19775160926E+01 -0.34541333757E+02 -0.10571150163E+03  0.13725578982E+03  0.80419002446E+02 0.  1.
          1    1    1    2  501    0 -0.18879217365E+02  0.14870098142E+02 -0.13495063252E+03  0.13707376804E+03  0.00000000000E+00 0. -1.
         -2    1    1    2    0  502  0.16901701272E+02  0.19671235615E+02 -0.37642742088E+02  0.45712154274E+02  0.00000000000E+00 0.  1.
<mgrwt>
<rscale>  2 0.68756382E+02</rscale>
<asrwt>0</asrwt>
<pdfrwt beam="1">  1       21 0.32105261E-02 0.68756382E+02</pdfrwt>
<pdfrwt beam="2">  1       21 0.46026658E-01 0.68756382E+02</pdfrwt>
<totfact> 0.24777207E+06</totfact>
</mgrwt>
</event>
<event>
 5    1  0.1959123E+000  0.9011742E+02  0.7546771E-02  0.1302568E+00
         21   -1    0    0  501  502  0.00000000000E+00  0.00000000000E+00  0.60143133181E+03  0.60143133181E+03  0.00000000000E+00 0.  1.
         21   -1    0    0  502  503 -0.00000000000E+00 -0.00000000000E+00 -0.15533087472E+02  0.15533087472E+02  0.00000000000E+00 0.  1.
         24    1    1    2    0    0 -0.49937493336E+02  0.20692086369E+02  0.39210499338E+03  0.40390030635E+03  0.80419002446E+02 0.  1.
          1    1    1    2  501    0  0.59170785943E+01  0.21537912252E+02  0.89461386945E+02  0.92207555207E+02  0.00000000000E+00 0. -1.
         -2    1    1    2    0  503  0.44020414741E+02 -0.42229998621E+02  0.10433186401E+03  0.12085655773E+03  0.00000000000E+00 0.  1.
<mgrwt>
<rscale>  2 0.90117423E+02</rscale>
<asrwt>0</asrwt>
<pdfrwt beam="1">  1       21 0.92527879E-01 0.90117423E+02</pdfrwt>
<pdfrwt beam="2">  1       21 0.23897062E-02 0.90117423E+02</pdfrwt>
<totfact> 0.91144723E+05</totfact>
</mgrwt>
</event>
<event>
 5    1  0.1959123E+000  0.6673039E+02  0.7546771E-02  0.1371578E+00
         21   -1    0    0  503  502  0.00000000000E+00  0.00000000000E+00  0.33836664310E+03  0.33836664310E+03  0.00000000000E+00 0.  1.
         21   -1    0    0  501  503 -0.00000000000E+00 -0.00000000000E+00 -0.46454139418E+02  0.46454139418E+02  0.00000000000E+00 0.  1.
         24    1    1    2    0    0 -0.10972591497E+02 -0.10886259794E+02  0.37474562132E+02  0.90058132214E+02  0.80419002446E+02 0.  1.
          1    1    1    2  501    0 -0.19153435783E+02  0.95796486646E+01 -0.13380511061E+02  0.25251967193E+02  0.00000000000E+00 0. -1.
         -2    1    1    2    0  502  0.30126027281E+02  0.13066111297E+01  0.26781845261E+03  0.26951068311E+03  0.00000000000E+00 0.  1.
<mgrwt>
<rscale>  2 0.66730391E+02</rscale>
<asrwt>0</asrwt>
<pdfrwt beam="1">  1       21 0.52056405E-01 0.66730391E+02</pdfrwt>
<pdfrwt beam="2">  1       21 0.71467909E-02 0.66730391E+02</pdfrwt>
<totfact> 0.51629106E+05</totfact>
</mgrwt>
</event>
<event>
 5    1  0.1959123E+000  0.7276097E+02  0.7546771E-02  0.1350948E+00
         21   -1    0    0  503  502  0.00000000000E+00  0.00000000000E+00  0.49382077984E+02  0.49382077984E+02  0.00000000000E+00 0.  1.
         21   -1    0    0  501  503 -0.00000000000E+00 -0.00000000000E+00 -0.14724723485E+03  0.14724723485E+03  0.00000000000E+00 0.  1.
         24    1    1    2    0    0 -0.29605304892E+02 -0.17786977838E+02 -0.10547450264E+03  0.13705815306E+03  0.80419002446E+02 0.  1.
          1    1    1    2  501    0  0.17794086531E+02 -0.14922776570E+02 -0.24929745777E+01  0.23356662824E+02  0.00000000000E+00 0. -1.
         -2    1    1    2    0  502  0.11811218361E+02  0.32709754408E+02  0.10102320356E+02  0.36214496948E+02  0.00000000000E+00 0.  1.
<mgrwt>
<rscale>  2 0.72760973E+02</rscale>
<asrwt>0</asrwt>
<pdfrwt beam="1">  1       21 0.75972429E-02 0.72760973E+02</pdfrwt>
<pdfrwt beam="2">  1       21 0.22653420E-01 0.72760973E+02</pdfrwt>
<totfact> 0.23250487E+06</totfact>
</mgrwt>
</event>
<event>
 5    1  0.1959123E+000  0.1093593E+03  0.7546771E-02  0.1261761E+00
         21   -1    0    0  503  502  0.00000000000E+00  0.00000000000E+00  0.35438324308E+03  0.35438324308E+03  0.00000000000E+00 0. -1.
         21   -1    0    0  501  503 -0.00000000000E+00 -0.00000000000E+00 -0.37875504092E+02  0.37875504092E+02  0.00000000000E+00 0.  1.
         24    1    1    2    0    0  0.50116842309E+02  0.58618722732E+02  0.21317032768E+03  0.24053410797E+03  0.80419002446E+02 0. -1.
          1    1    1    2  501    0 -0.61208620092E+02 -0.16011185029E+02  0.40942708657E+02  0.75360192488E+02  0.00000000000E+00 0. -1.
         -2    1    1    2    0  502  0.11091777783E+02 -0.42607537703E+02  0.62394702643E+02  0.76364446711E+02  0.00000000000E+00 0.  1.
<mgrwt>
<rscale>  2 0.10935932E+03</rscale>
<asrwt>0</asrwt>
<pdfrwt beam="1">  1       21 0.54520497E-01 0.10935932E+03</pdfrwt>
<pdfrwt beam="2">  1       21 0.58270009E-02 0.10935932E+03</pdfrwt>
<totfact> 0.66318469E+05</totfact>
</mgrwt>
</event>
<event>
 5    1  0.1959123E+000  0.1550356E+03  0.7546771E-02  0.1194418E+00
         21   -1    0    0  503  502  0.00000000000E+00  0.00000000000E+00  0.85773842260E+03  0.85773842260E+03  0.00000000000E+00 0.  1.
         21   -1    0    0  501  503 -0.00000000000E+00 -0.00000000000E+00 -0.64493944318E+02  0.64493944318E+02  0.00000000000E+00 0. -1.
         24    1    1    2    0    0 -0.78391042416E+02 -0.53478291453E+02  0.63540736244E+02  0.13967721469E+03  0.80419002446E+02 0. -1.
          1    1    1    2  501    0 -0.11209665527E+02  0.88702266752E+02  0.64068166647E+02  0.10999308481E+03  0.00000000000E+00 0. -1.
         -2    1    1    2    0  502  0.89600707943E+02 -0.35223975299E+02  0.66563557539E+03  0.67256206742E+03  0.00000000000E+00 0.  1.
<mgrwt>
<rscale>  2 0.15503559E+03</rscale>
<asrwt>0</asrwt>
<pdfrwt beam="1">  1       21 0.13195975E+00 0.15503559E+03</pdfrwt>
<pdfrwt beam="2">  1       21 0.99221459E-02 0.15503559E+03</pdfrwt>
<totfact> 0.35033977E+04</totfact>
</mgrwt>
</event>
<event>
 5    1  0.1959123E+000  0.7343942E+02  0.7546771E-02  0.1348773E+00
         21   -1    0    0  503  502  0.00000000000E+00  0.00000000000E+00  0.53215865682E+03  0.53215865682E+03  0.00000000000E+00 0. -1.
         21   -1    0    0  501  503 -0.00000000000E+00 -0.00000000000E+00 -0.10992626591E+02  0.10992626591E+02  0.00000000000E+00 0.  1.
         24    1    1    2    0    0 -0.43210261598E+02 -0.95624964167E+01  0.30890818558E+03  0.32225774020E+03  0.80419002446E+02 0.  0.
          1    1    1    2  501    0  0.20820674248E+02 -0.11975863916E+02  0.47449052712E+02  0.53182087172E+02  0.00000000000E+00 0. -1.
         -2    1    1    2    0  502  0.22389587350E+02  0.21538360333E+02  0.16480879193E+03  0.16771145604E+03  0.00000000000E+00 0.  1.
<mgrwt>
<rscale>  2 0.73439423E+02</rscale>
<asrwt>0</asrwt>
<pdfrwt beam="1">  1       21 0.81870543E-01 0.73439423E+02</pdfrwt>
<pdfrwt beam="2">  1       21 0.16911737E-02 0.73439423E+02</pdfrwt>
<totfact> 0.20716199E+06</totfact>
</mgrwt>
</event>
<event>
 5    1  0.1959123E+000  0.7124193E+02  0.7546771E-02  0.1355920E+00
         21   -1    0    0  503  502  0.00000000000E+00  0.00000000000E+00  0.15207825055E+03  0.15207825055E+03  0.00000000000E+00 0.  1.
         21   -1    0    0  501  503 -0.00000000000E+00 -0.00000000000E+00 -0.21902627485E+03  0.21902627485E+03  0.00000000000E+00 0. -1.
         24    1    1    2    0    0  0.92056489720E+01 -0.23172067702E+02  0.31627704212E+02  0.89940070729E+02  0.80419002446E+02 0.  0.
          1    1    1    2  501    0  0.18423282323E+02  0.24468580810E+02 -0.18649685064E+03  0.18899524882E+03  0.00000000000E+00 0. -1.
         -2    1    1    2    0  502 -0.27628931295E+02 -0.12965131081E+01  0.87921122125E+02  0.92169205847E+02  0.00000000000E+00 0.  1.
<mgrwt>
<rscale>  2 0.71241928E+02</rscale>
<asrwt>0</asrwt>
<pdfrwt beam="1">  1       21 0.23396654E-01 0.71241928E+02</pdfrwt>
<pdfrwt beam="2">  1       21 0.33696350E-01 0.71241928E+02</pdfrwt>
<totfact> 0.15201592E+05</totfact>
</mgrwt>
</event>
<event>
 5    1  0.1959123E+000  0.7920674E+02  0.7546771E-02  0.1331318E+00
         21   -1    0    0  503  502  0.00000000000E+00  0.00000000000E+00  0.78669206821E+03  0.78669206821E+03  0.00000000000E+00 0. -1.
         21   -1    0    0  501  503 -0.00000000000E+00 -0.00000000000E+00 -0.17794319829E+02  0.17794319829E+02  0.00000000000E+00 0.  1.
         24    1    1    2    0    0 -0.29144798327E+02  0.22581535505E+02  0.10721394607E+03  0.13900140719E+03  0.80419002446E+02 0.  1.
          1    1    1    2  501    0  0.17425023810E+02  0.19565192846E+02  0.19431301122E+03  0.19607135068E+03  0.00000000000E+00 0. -1.
         -2    1    1    2    0  502  0.11719774517E+02 -0.42146728351E+02  0.46737079109E+03  0.46941363017E+03  0.00000000000E+00 0.  1.
<mgrwt>
<rscale>  2 0.79206742E+02</rscale>
<asrwt>0</asrwt>
<pdfrwt beam="1">  1       21 0.12102952E+00 0.79206742E+02</pdfrwt>
<pdfrwt beam="2">  1       21 0.27375883E-02 0.79206742E+02</pdfrwt>
<totfact> 0.39134453E+05</totfact>
</mgrwt>
</event>
<event>
 5    1  0.1959123E+000  0.9873273E+02  0.7546771E-02  0.1282984E+00
         21   -1    0    0  503  502  0.00000000000E+00  0.00000000000E+00  0.19447228626E+02  0.19447228626E+02  0.00000000000E+00 0.  1.
         21   -1    0    0  501  503 -0.00000000000E+00 -0.00000000000E+00 -0.12034549108E+04  0.12034549108E+04  0.00000000000E+00 0. -1.
         24    1    1    2    0    0 -0.44162077704E+02 -0.34057353601E+02 -0.34743958345E+03  0.36095937797E+03  0.80419002446E+02 0.  1.
          1    1    1    2  501    0 -0.23434272665E+02 -0.99832363612E+00 -0.73310234284E+03  0.73347747536E+03  0.00000000000E+00 0. -1.
         -2    1    1    2    0  502  0.67596350369E+02  0.35055677238E+02 -0.10346575586E+03  0.12846528607E+03  0.00000000000E+00 0.  1.
<mgrwt>
<rscale>  2 0.98732729E+02</rscale>
<asrwt>0</asrwt>
<pdfrwt beam="1">  1       21 0.29918812E-02 0.98732729E+02</pdfrwt>
<pdfrwt beam="2">  1       21 0.18514692E+00 0.98732729E+02</pdfrwt>
<totfact> 0.11305341E+05</totfact>
</mgrwt>
</event>
<event>
 5    1  0.1959123E+000  0.9574174E+02  0.7546771E-02  0.1289514E+00
         21   -1    0    0  503  502  0.00000000000E+00  0.00000000000E+00  0.37892479298E+03  0.37892479298E+03  0.00000000000E+00 0.  1.
         21   -1    0    0  501  503 -0.00000000000E+00 -0.00000000000E+00 -0.56763823496E+03  0.56763823496E+03  0.00000000000E+00 0. -1.
         24    1    1    2    0    0  0.82292347188E+01 -0.77518435603E+02 -0.19778780345E+03  0.22729729279E+03  0.80419002446E+02 0.  1.
          1    1    1    2  501    0  0.46661948369E+01  0.20054463047E+02 -0.35241219392E+03  0.35301318571E+03  0.00000000000E+00 0. -1.
         -2    1    1    2    0  502 -0.12895429556E+02  0.57463972556E+02  0.36148655538E+03  0.36625254944E+03  0.00000000000E+00 0.  1.
<mgrwt>
<rscale>  2 0.95741743E+02</rscale>
<asrwt>0</asrwt>
<pdfrwt beam="1">  1       21 0.58296122E-01 0.95741743E+02</pdfrwt>
<pdfrwt beam="2">  1       21 0.87328959E-01 0.95741743E+02</pdfrwt>
<totfact> 0.34497981E+03</totfact>
</mgrwt>
</event>
<event>
 5    1  0.1959123E+000  0.8140380E+02  0.7546771E-02  0.1325114E+00
         21   -1    0    0  501  502  0.00000000000E+00  0.00000000000E+00  0.69551641547E+02  0.69551641547E+02  0.00000000000E+00 0.  1.
         21   -1    0    0  502  503 -0.00000000000E+00 -0.00000000000E+00 -0.25423190502E+03  0.25423190502E+03  0.00000000000E+00 0.  1.
         24    1    1    2    0    0 -0.59995262713E+01  0.30659263955E+02  0.46606924105E+01  0.86399784663E+02  0.80419002446E+02 0.  1.
          1    1    1    2  501    0 -0.15661586934E+02 -0.46909294399E+02 -0.34978914857E+01  0.49578245745E+02  0.00000000000E+00 0. -1.
         -2    1    1    2    0  503  0.21661113206E+02  0.16250030444E+02 -0.18584306440E+03  0.18780551616E+03  0.00000000000E+00 0.  1.
<mgrwt>
<rscale>  2 0.81403797E+02</rscale>
<asrwt>0</asrwt>
<pdfrwt beam="1">  1       21 0.10700252E-01 0.81403797E+02</pdfrwt>
<pdfrwt beam="2">  1       21 0.39112601E-01 0.81403797E+02</pdfrwt>
<totfact> 0.45932074E+05</totfact>
</mgrwt>
</event>
<event>
 5    1  0.1959123E+000  0.6561493E+02  0.7546771E-02  0.1375673E+00
         21   -1    0    0  501  502  0.00000000000E+00  0.00000000000E+00  0.11766767363E+02  0.11766767363E+02  0.00000000000E+00 0. -1.
         21   -1    0    0  502  503 -0.00000000000E+00 -0.00000000000E+00 -0.58476761708E+03  0.58476761708E+03  0.00000000000E+00 0.  1.
         24    1    1    2    0    0  0.14446393285E+02  0.27039581300E+00 -0.32751357505E+03  0.33755166892E+03  0.80419002446E+02 0.  0.
          1    1    1    2  501    0 -0.59185259255E+01 -0.23784805056E+02 -0.18723015107E+02  0.30843106125E+02  0.00000000000E+00 0. -1.
         -2    1    1    2    0  503 -0.85278673592E+01  0.23514409243E+02 -0.22676425956E+03  0.22813960940E+03  0.00000000000E+00 0.  1.
<mgrwt>
<rscale>  2 0.65614935E+02</rscale>
<asrwt>0</asrwt>
<pdfrwt beam="1">  1       21 0.18102716E-02 0.65614935E+02</pdfrwt>
<pdfrwt beam="2">  1       21 0.89964263E-01 0.65614935E+02</pdfrwt>
<totfact> 0.15030872E+06</totfact>
</mgrwt>
</event>
<event>
 5    1  0.1959123E+000  0.9212158E+02  0.7546771E-02  0.1297794E+00
         21   -1    0    0  501  502  0.00000000000E+00  0.00000000000E+00  0.17586724114E+03  0.17586724114E+03  0.00000000000E+00 0.  1.
         21   -1    0    0  502  503 -0.00000000000E+00 -0.00000000000E+00 -0.86192807612E+02  0.86192807612E+02  0.00000000000E+00 0. -1.
         24    1    1    2    0    0 -0.96985959054E+01  0.50055407023E+02  0.19651502053E+02  0.97226560271E+02  0.80419002446E+02 0.  1.
          1    1    1    2  501    0 -0.12051731485E+02 -0.62711326830E+02  0.10430868208E+03  0.12230394884E+03  0.00000000000E+00 0. -1.
         -2    1    1    2    0  503  0.21750327390E+02  0.12655919807E+02 -0.34285750604E+02  0.42529539643E+02  0.00000000000E+00 0.  1.
<mgrwt>
<rscale>  2 0.92121585E+02</rscale>
<asrwt>0</asrwt>
<pdfrwt beam="1">  1       21 0.27056499E-01 0.92121585E+02</pdfrwt>
<pdfrwt beam="2">  1       21 0.13260432E-01 0.92121585E+02</pdfrwt>
<totfact> 0.64171509E+05</totfact>
</mgrwt>
</event>
<event>
 5    1  0.1959123E+000  0.1200307E+03  0.7546771E-02  0.1243046E+00
         21   -1    0    0  503  502  0.00000000000E+00  0.00000000000E+00  0.10343586144E+03  0.10343586144E+03  0.00000000000E+00 0.  1.
         21   -1    0    0  501  503 -0.00000000000E+00 -0.00000000000E+00 -0.14684292870E+03  0.14684292870E+03  0.00000000000E+00 0.  1.
         24    1    1    2    0    0 -0.56340051218E+02  0.85859567966E+02 -0.48738873057E+02  0.13924352941E+03  0.80419002446E+02 0.  1.
          1    1    1    2  501    0 -0.30018681708E+01 -0.22947342015E+02 -0.57448108560E+01  0.23845221111E+02  0.00000000000E+00 0. -1.
         -2    1    1    2    0  502  0.59341919389E+02 -0.62912225950E+02  0.11076616654E+02  0.87190039610E+02  0.00000000000E+00 0.  1.
<mgrwt>
<rscale>  2 0.12003071E+03</rscale>
<asrwt>0</asrwt>
<pdfrwt beam="1">  1       21 0.15913209E-01 0.12003071E+03</pdfrwt>
<pdfrwt beam="2">  1       21 0.22591220E-01 0.12003071E+03</pdfrwt>
<totfact> 0.65009932E+05</totfact>
</mgrwt>
</event>
<event>
 5    1  0.1959123E+000  0.6791779E+02  0.7546771E-02  0.1367320E+00
         21   -1    0    0  501  502  0.00000000000E+00  0.00000000000E+00  0.99851287756E+03  0.99851287756E+03  0.00000000000E+00 0. -1.
         21   -1    0    0  502  503 -0.00000000000E+00 -0.00000000000E+00 -0.19541282610E+02  0.19541282610E+02  0.00000000000E+00 0. -1.
         24    1    1    2    0    0  0.66521958672E+01  0.41232747504E+02  0.11719240300E+03  0.14814069816E+03  0.80419002446E+02 0. -1.
          1    1    1    2  501    0 -0.12105141629E+02 -0.20763236749E+02  0.83686888648E+03  0.83721393898E+03  0.00000000000E+00 0. -1.
         -2    1    1    2    0  503  0.54529457619E+01 -0.20469510755E+02  0.24910305469E+02  0.32699523033E+02  0.00000000000E+00 0.  1.
<mgrwt>
<rscale>  2 0.67917786E+02</rscale>
<asrwt>0</asrwt>
<pdfrwt beam="1">  1       21 0.15361733E+00 0.67917786E+02</pdfrwt>
<pdfrwt beam="2">  1       21 0.30063519E-02 0.67917786E+02</pdfrwt>
<totfact> 0.18785864E+05</totfact>
</mgrwt>
</event>
<event>
 5    1  0.1959123E+000  0.7323051E+02  0.7546771E-02  0.1349440E+00
         21   -1    0    0  503  502  0.00000000000E+00  0.00000000000E+00  0.79573380622E+02  0.79573380622E+02  0.00000000000E+00 0.  1.
         21   -1    0    0  501  503 -0.00000000000E+00 -0.00000000000E+00 -0.11146964303E+03  0.11146964303E+03  0.00000000000E+00 0. -1.
         24    1    1    2    0    0 -0.69316536193E+01  0.17937687925E+02 -0.63696479512E+02  0.10437560025E+03  0.80419002446E+02 0. -1.
          1    1    1    2  501    0 -0.39215061614E+01 -0.39468672135E+02 -0.76866200100E+01  0.40400970506E+02  0.00000000000E+00 0. -1.
         -2    1    1    2    0  502  0.10853159781E+02  0.21530984209E+02  0.39486837117E+02  0.46266452898E+02  0.00000000000E+00 0.  1.
<mgrwt>
<rscale>  2 0.73230508E+02</rscale>
<asrwt>0</asrwt>
<pdfrwt beam="1">  1       21 0.12242059E-01 0.73230508E+02</pdfrwt>
<pdfrwt beam="2">  1       21 0.17149176E-01 0.73230508E+02</pdfrwt>
<totfact> 0.16988063E+06</totfact>
</mgrwt>
</event>
<event>
 5    1  0.1959123E+000  0.8210048E+02  0.7546771E-02  0.1323194E+00
         21   -1    0    0  501  502  0.00000000000E+00  0.00000000000E+00  0.26268307318E+03  0.26268307318E+03  0.00000000000E+00 0. -1.
         21   -1    0    0  502  503 -0.00000000000E+00 -0.00000000000E+00 -0.69359076845E+02  0.69359076845E+02  0.00000000000E+00 0. -1.
         24    1    1    2    0    0 -0.34513423775E+02 -0.49337327060E+02 -0.16702032224E+02  0.10184067015E+03  0.80419002446E+02 0. -1.
          1    1    1    2  501    0  0.23508928169E+02  0.15503535094E+02  0.18394337756E+03  0.18608652679E+03  0.00000000000E+00 0. -1.
         -2    1    1    2    0  503  0.11004495607E+02  0.33833791967E+02  0.26082650994E+02  0.44114953080E+02  0.00000000000E+00 0.  1.
<mgrwt>
<rscale>  2 0.82100479E+02</rscale>
<asrwt>0</asrwt>
<pdfrwt beam="1">  1       21 0.40412780E-01 0.82100479E+02</pdfrwt>
<pdfrwt beam="2">  1       21 0.10670627E-01 0.82100479E+02</pdfrwt>
<totfact> 0.43271243E+05</totfact>
</mgrwt>
</event>
<event>
 5    1  0.1959123E+000  0.6797645E+02  0.7546771E-02  0.1367113E+00
         21   -1    0    0  503  502  0.00000000000E+00  0.00000000000E+00  0.26720843010E+02  0.26720843010E+02  0.00000000000E+00 0. -1.
         21   -1    0    0  501  503 -0.00000000000E+00 -0.00000000000E+00 -0.25911575906E+03  0.25911575906E+03  0.00000000000E+00 0. -1.
         24    1    1    2    0    0  0.25473454004E+02  0.21338461216E+02 -0.95782505006E+02  0.12940529744E+03  0.80419002446E+02 0. -1.
          1    1    1    2  501    0 -0.36647907202E+00 -0.23716677785E+02 -0.12738867562E+03  0.12957812234E+03  0.00000000000E+00 0. -1.
         -2    1    1    2    0  502 -0.25106974932E+02  0.23782165687E+01 -0.92237354299E+01  0.26853182298E+02  0.00000000000E+00 0.  1.
<mgrwt>
<rscale>  2 0.67976453E+02</rscale>
<asrwt>0</asrwt>
<pdfrwt beam="1">  1       21 0.41108989E-02 0.67976453E+02</pdfrwt>
<pdfrwt beam="2">  1       21 0.39863963E-01 0.67976453E+02</pdfrwt>
<totfact> 0.22018537E+06</totfact>
</mgrwt>
</event>
<event>
 5    1  0.1959123E+000  0.1322377E+03  0.7546771E-02  0.1224173E+00
         21   -1    0    0  501  502  0.00000000000E+00  0.00000000000E+00  0.72557590112E+02  0.72557590112E+02  0.00000000000E+00 0.  1.
         21   -1    0    0  502  503 -0.00000000000E+00 -0.00000000000E+00 -0.25446588676E+03  0.25446588676E+03  0.00000000000E+00 0.  1.
         24    1    1    2    0    0 -0.69380642980E+02 -0.49452426793E+02 -0.75048188922E+02  0.13913541156E+03  0.80419002446E+02 0.  1.
          1    1    1    2  501    0 -0.33815966513E+02  0.24079605055E+01 -0.28818822098E+01  0.34023860893E+02  0.00000000000E+00 0. -1.
         -2    1    1    2    0  503  0.10319660949E+03  0.47044466287E+02 -0.10397822552E+03  0.15386420442E+03  0.00000000000E+00 0.  1.
<mgrwt>
<rscale>  2 0.13223769E+03</rscale>
<asrwt>0</asrwt>
<pdfrwt beam="1">  1       21 0.11162706E-01 0.13223769E+03</pdfrwt>
<pdfrwt beam="2">  1       21 0.39148598E-01 0.13223769E+03</pdfrwt>
<totfact> 0.42407612E+05</totfact>
</mgrwt>
</event>
<event>
 5    1  0.1959123E+000  0.7110776E+02  0.7546771E-02  0.1356366E+00
         21   -1    0    0  503  502  0.00000000000E+00  0.00000000000E+00  0.11341452451E+03  0.11341452451E+03  0.00000000000E+00 0. -1.
         21   -1    0    0  501  503 -0.00000000000E+00 -0.00000000000E+00 -0.52138828235E+02  0.52138828235E+02  0.00000000000E+00 0. -1.
         24    1    1    2    0    0  0.40532114450E+02  0.20709032871E+02  0.66572139302E+02  0.11388934116E+03  0.80419002446E+02 0. -1.
          1    1    1    2  501    0 -0.22540201447E+02 -0.21929436101E+00 -0.87465214227E+01  0.24178718086E+02  0.00000000000E+00 0. -1.
         -2    1    1    2    0  502 -0.17991913004E+02 -0.20489738510E+02  0.34500783953E+01  0.27485293498E+02  0.00000000000E+00 0.  1.
<mgrwt>
<rscale>  2 0.71107755E+02</rscale>
<asrwt>0</asrwt>
<pdfrwt beam="1">  1       21 0.17448388E-01 0.71107755E+02</pdfrwt>
<pdfrwt beam="2">  1       21 0.80213582E-02 0.71107755E+02</pdfrwt>
<totfact> 0.34034725E+06</totfact>
</mgrwt>
</event>
<event>
 5    1  0.1959123E+000  0.7908155E+02  0.7546771E-02  0.1331678E+00
         21   -1    0    0  503  502  0.00000000000E+00  0.00000000000E+00  0.12937922883E+04  0.12937922883E+04  0.00000000000E+00 0.  1.
         21   -1    0    0  501  503 -0.00000000000E+00 -0.00000000000E+00 -0.20526627919E+02  0.20526627919E+02  0.00000000000E+00 0. -1.
         24    1    1    2    0    0 -0.12815284998E+02  0.33152112628E+02  0.55775496660E+03  0.56464246459E+03  0.80419002446E+02 0. -1.
          1    1    1    2  501    0  0.32212630492E+02 -0.38422461231E+02  0.20168149277E+02  0.54043439338E+02  0.00000000000E+00 0. -1.
         -2    1    1    2    0  502 -0.19397345494E+02  0.52703486033E+01  0.69534254453E+03  0.69563301232E+03  0.00000000000E+00 0.  1.
<mgrwt>
<rscale>  2 0.79081552E+02</rscale>
<asrwt>0</asrwt>
<pdfrwt beam="1">  1       21 0.19904490E+00 0.79081552E+02</pdfrwt>
<pdfrwt beam="2">  1       21 0.31579438E-02 0.79081552E+02</pdfrwt>
<totfact> 0.86208239E+04</totfact>
</mgrwt>
</event>
<event>
 5    1  0.1959123E+000  0.1034350E+03  0.7546771E-02  0.1273234E+00
         21   -1    0    0  501  502  0.00000000000E+00  0.00000000000E+00  0.14679674499E+02  0.14679674499E+02  0.00000000000E+00 0. -1.
         21   -1    0    0  502  503 -0.00000000000E+00 -0.00000000000E+00 -0.79335635490E+03  0.79335635490E+03  0.00000000000E+00 0. -1.
         24    1    1    2    0    0 -0.45271821935E+02  0.26760925180E+02 -0.33884001397E+03  0.35220087450E+03  0.80419002446E+02 0.  0.
          1    1    1    2  501    0  0.74926755954E+02 -0.30491315809E+02 -0.22851938590E+03  0.24241462173E+03  0.00000000000E+00 0. -1.
         -2    1    1    2    0  503 -0.29654934018E+02  0.37303906289E+01 -0.21131728053E+03  0.21342053317E+03  0.00000000000E+00 0.  1.
<mgrwt>
<rscale>  2 0.10343500E+03</rscale>
<asrwt>0</asrwt>
<pdfrwt beam="1">  1       21 0.22584114E-02 0.10343500E+03</pdfrwt>
<pdfrwt beam="2">  1       21 0.12205483E+00 0.10343500E+03</pdfrwt>
<totfact> 0.52048425E+05</totfact>
</mgrwt>
</event>
<event>
 5    1  0.1959123E+000  0.1106490E+03  0.7546771E-02  0.1259373E+00
         21   -1    0    0  501  502  0.00000000000E+00  0.00000000000E+00  0.41980983170E+02  0.41980983170E+02  0.00000000000E+00 0. -1.
         21   -1    0    0  502  503 -0.00000000000E+00 -0.00000000000E+00 -0.34717400099E+03  0.34717400099E+03  0.00000000000E+00 0.  1.
         24    1    1    2    0    0 -0.40217706435E+02  0.23973551224E+02 -0.15620637729E+03  0.18182365998E+03  0.80419002446E+02 0.  0.
          1    1    1    2  501    0  0.79247176413E+02  0.53450275674E+01 -0.42257696059E+02  0.89968867757E+02  0.00000000000E+00 0. -1.
         -2    1    1    2    0  503 -0.39029469978E+02 -0.29318578791E+02 -0.10672894447E+03  0.11736245642E+03  0.00000000000E+00 0.  1.
<mgrwt>
<rscale>  2 0.11064896E+03</rscale>
<asrwt>0</asrwt>
<pdfrwt beam="1">  1       21 0.64586127E-02 0.11064896E+03</pdfrwt>
<pdfrwt beam="2">  1       21 0.53411385E-01 0.11064896E+03</pdfrwt>
<totfact> 0.58154653E+05</totfact>
</mgrwt>
</event>
<event>
 5    1  0.1959123E+000  0.1413727E+03  0.7546771E-02  0.1211494E+00
         21   -1    0    0  501  502  0.00000000000E+00  0.00000000000E+00  0.41493395991E+03  0.41493395991E+03  0.00000000000E+00 0.  1.
         21   -1    0    0  502  503 -0.00000000000E+00 -0.00000000000E+00 -0.66982615889E+02  0.66982615889E+02  0.00000000000E+00 0. -1.
         24    1    1    2    0    0 -0.33194616764E+02  0.62072590709E+02  0.16116012708E+03  0.19337707107E+03  0.80419002446E+02 0.  1.
          1    1    1    2  501    0 -0.19807241467E+01 -0.11352599313E+03  0.19502545335E+03  0.22567011729E+03  0.00000000000E+00 0. -1.
         -2    1    1    2    0  503  0.35175340911E+02  0.51453402417E+02 -0.82342364071E+01  0.62869387445E+02  0.00000000000E+00 0.  1.
<mgrwt>
<rscale>  2 0.14137267E+03</rscale>
<asrwt>0</asrwt>
<pdfrwt beam="1">  1       21 0.63835992E-01 0.14137267E+03</pdfrwt>
<pdfrwt beam="2">  1       21 0.10305018E-01 0.14137267E+03</pdfrwt>
<totfact> 0.17719228E+05</totfact>
</mgrwt>
</event>
<event>
 5    1  0.1959123E+000  0.2050741E+03  0.7546771E-02  0.1145527E+00
         21   -1    0    0  501  502  0.00000000000E+00  0.00000000000E+00  0.22525812788E+03  0.22525812788E+03  0.00000000000E+00 0. -1.
         21   -1    0    0  502  503 -0.00000000000E+00 -0.00000000000E+00 -0.21410553483E+03  0.21410553483E+03  0.00000000000E+00 0.  1.
         24    1    1    2    0    0 -0.65895587448E+02 -0.35722861562E+02 -0.20552504174E+02  0.11183904804E+03  0.80419002446E+02 0.  0.
          1    1    1    2  501    0  0.12986704133E+03  0.13164216657E+03  0.81317070384E+02  0.20200884728E+03  0.00000000000E+00 0. -1.
         -2    1    1    2    0  503 -0.63971453880E+02 -0.95919305012E+02 -0.49611973159E+02  0.12551576740E+03  0.00000000000E+00 0.  1.
<mgrwt>
<rscale>  2 0.20507412E+03</rscale>
<asrwt>0</asrwt>
<pdfrwt beam="1">  1       21 0.34655096E-01 0.20507412E+03</pdfrwt>
<pdfrwt beam="2">  1       21 0.32939313E-01 0.20507412E+03</pdfrwt>
<totfact> 0.70816606E+04</totfact>
</mgrwt>
</event>
<event>
 5    1  0.1959123E+000  0.7872353E+02  0.7546771E-02  0.1332713E+00
         21   -1    0    0  503  502  0.00000000000E+00  0.00000000000E+00  0.14413035430E+02  0.14413035430E+02  0.00000000000E+00 0. -1.
         21   -1    0    0  501  503 -0.00000000000E+00 -0.00000000000E+00 -0.46408352818E+03  0.46408352818E+03  0.00000000000E+00 0.  1.
         24    1    1    2    0    0  0.34078921297E+02 -0.34259040409E+02 -0.27239252806E+03  0.28809713644E+03  0.80419002446E+02 0. -1.
          1    1    1    2  501    0 -0.25391780481E+02 -0.28159981111E+01 -0.11154612535E+03  0.11443430623E+03  0.00000000000E+00 0. -1.
         -2    1    1    2    0  502 -0.86871408155E+01  0.37075038521E+02 -0.65731839341E+02  0.75965120944E+02  0.00000000000E+00 0.  1.
<mgrwt>
<rscale>  2 0.78723531E+02</rscale>
<asrwt>0</asrwt>
<pdfrwt beam="1">  1       21 0.22173901E-02 0.78723531E+02</pdfrwt>
<pdfrwt beam="2">  1       21 0.71397464E-01 0.78723531E+02</pdfrwt>
<totfact> 0.18186610E+06</totfact>
</mgrwt>
</event>
<event>
 5    1  0.1959123E+000  0.7528988E+02  0.7546771E-02  0.1342976E+00
         21   -1    0    0  503  502  0.00000000000E+00  0.00000000000E+00  0.21565551373E+03  0.21565551373E+03  0.00000000000E+00 0.  1.
         21   -1    0    0  501  503 -0.00000000000E+00 -0.00000000000E+00 -0.18189619759E+03  0.18189619759E+03  0.00000000000E+00 0. -1.
         24    1    1    2    0    0 -0.77229314549E+01 -0.65141526763E+01 -0.21272560830E+02  0.83796274702E+02  0.80419002446E+02 0.  1.
          1    1    1    2  501    0  0.33617307515E+02  0.21215451600E+02 -0.12505621633E+03  0.13122223895E+03  0.00000000000E+00 0. -1.
         -2    1    1    2    0  502 -0.25894376060E+02 -0.14701298924E+02  0.18008809330E+03  0.18253319767E+03  0.00000000000E+00 0.  1.
<mgrwt>
<rscale>  2 0.75289881E+02</rscale>
<asrwt>0</asrwt>
<pdfrwt beam="1">  1       21 0.33177771E-01 0.75289881E+02</pdfrwt>
<pdfrwt beam="2">  1       21 0.27984030E-01 0.75289881E+02</pdfrwt>
<totfact> 0.11196121E+05</totfact>
</mgrwt>
</event>
<event>
 5    1  0.1959123E+000  0.7992947E+02  0.7546771E-02  0.1329252E+00
         21   -1    0    0  501  502  0.00000000000E+00  0.00000000000E+00  0.34916094467E+02  0.34916094467E+02  0.00000000000E+00 0. -1.
         21   -1    0    0  502  503 -0.00000000000E+00 -0.00000000000E+00 -0.34195176161E+03  0.34195176161E+03  0.00000000000E+00 0.  1.
         24    1    1    2    0    0  0.29190302591E+02  0.36200400253E+02 -0.78527172288E+02  0.12163994198E+03  0.80419002446E+02 0.  1.
          1    1    1    2  501    0  0.12813755831E+02 -0.15572227834E+02  0.17687889058E+01  0.20243893706E+02  0.00000000000E+00 0. -1.
         -2    1    1    2    0  503 -0.42004058421E+02 -0.20628172419E+02 -0.23027728376E+03  0.23498402039E+03  0.00000000000E+00 0.  1.
<mgrwt>
<rscale>  2 0.79929467E+02</rscale>
<asrwt>0</asrwt>
<pdfrwt beam="1">  1       21 0.53717069E-02 0.79929467E+02</pdfrwt>
<pdfrwt beam="2">  1       21 0.52607963E-01 0.79929467E+02</pdfrwt>
<totfact> 0.81643729E+05</totfact>
</mgrwt>
</event>
<event>
 5    1  0.2574658E+000  0.9873200E+02  0.7546771E-02  0.1282985E+00
         21   -1    0    0  503  502  0.00000000000E+00  0.00000000000E+00  0.21186005773E+03  0.21186005773E+03  0.00000000000E+00 0. -1.
         21   -1    0    0  501  503 -0.00000000000E+00 -0.00000000000E+00 -0.17564018894E+03  0.17564018894E+03  0.00000000000E+00 0. -1.
         24    1    1    2    0    0 -0.10571833328E+01  0.40726934957E+02  0.12894529506E+03  0.15733374063E+03  0.80419002446E+02 0. -1.
          1    1    1    2  501    0  0.44159246037E+02 -0.46148048762E+02 -0.14721812924E+03  0.16047697340E+03  0.00000000000E+00 0. -1.
         -2    1    1    2    0  502 -0.43102062704E+02  0.54211138047E+01  0.54492702958E+02  0.69689532642E+02  0.00000000000E+00 0.  1.
<mgrwt>
<rscale>  2 0.98731997E+02</rscale>
<asrwt>0</asrwt>
<pdfrwt beam="1">  1       21 0.32593855E-01 0.98731997E+02</pdfrwt>
<pdfrwt beam="2">  1       21 0.27021568E-01 0.98731997E+02</pdfrwt>
<totfact> 0.12237401E+05</totfact>
</mgrwt>
</event>
<event>
 5    1  0.1959123E+000  0.1211443E+03  0.7546771E-02  0.1241221E+00
         21   -1    0    0  501  502  0.00000000000E+00  0.00000000000E+00  0.18766632335E+03  0.18766632335E+03  0.00000000000E+00 0. -1.
         21   -1    0    0  502  503 -0.00000000000E+00 -0.00000000000E+00 -0.15690904246E+03  0.15690904246E+03  0.00000000000E+00 0. -1.
         24    1    1    2    0    0  0.87724756216E+02 -0.47403081185E+02 -0.10179790074E+03  0.16362369482E+03  0.80419002446E+02 0. -1.
          1    1    1    2  501    0 -0.42991144809E+02 -0.72107593078E+01  0.85912622180E+02  0.96339048322E+02  0.00000000000E+00 0. -1.
         -2    1    1    2    0  503 -0.44733611407E+02  0.54613840493E+02  0.46642559447E+02  0.84612622668E+02  0.00000000000E+00 0.  1.
<mgrwt>
<rscale>  2 0.12114430E+03</rscale>
<asrwt>0</asrwt>
<pdfrwt beam="1">  1       21 0.28871742E-01 0.12114430E+03</pdfrwt>
<pdfrwt beam="2">  1       21 0.24139853E-01 0.12114430E+03</pdfrwt>
<totfact> 0.18966717E+05</totfact>
</mgrwt>
</event>
<event>
 5    1  0.1959123E+000  0.8107026E+02  0.7546771E-02  0.1326041E+00
         21   -1    0    0  503  502  0.00000000000E+00  0.00000000000E+00  0.27534868183E+03  0.27534868183E+03  0.00000000000E+00 0.  1.
         21   -1    0    0  501  503 -0.00000000000E+00 -0.00000000000E+00 -0.21917238213E+03  0.21917238213E+03  0.00000000000E+00 0. -1.
         24    1    1    2    0    0 -0.22465318606E+02  0.44287174882E+02 -0.61397832725E+02  0.11270738315E+03  0.80419002446E+02 0.  0.
          1    1    1    2  501    0  0.25513311973E+02 -0.23991903303E+01 -0.12908524892E+03  0.13160428067E+03  0.00000000000E+00 0. -1.
         -2    1    1    2    0  502 -0.30479933669E+01 -0.41887984552E+02  0.24665938135E+03  0.25020940014E+03  0.00000000000E+00 0.  1.
<mgrwt>
<rscale>  2 0.81070264E+02</rscale>
<asrwt>0</asrwt>
<pdfrwt beam="1">  1       21 0.42361336E-01 0.81070264E+02</pdfrwt>
<pdfrwt beam="2">  1       21 0.33718828E-01 0.81070264E+02</pdfrwt>
<totfact> 0.48483806E+04</totfact>
</mgrwt>
</event>
<event>
 5    1  0.1959123E+000  0.8900958E+02  0.7546771E-02  0.1305268E+00
         21   -1    0    0  501  502  0.00000000000E+00  0.00000000000E+00  0.20451950908E+03  0.20451950908E+03  0.00000000000E+00 0. -1.
         21   -1    0    0  502  503 -0.00000000000E+00 -0.00000000000E+00 -0.49476645573E+02  0.49476645573E+02  0.00000000000E+00 0.  1.
         24    1    1    2    0    0 -0.81507492453E+01  0.47526401990E+02  0.26970634057E+02  0.97569588782E+02  0.80419002446E+02 0.  0.
          1    1    1    2  501    0 -0.28632748443E+02 -0.69110028704E+01  0.73087120886E+02  0.78799260678E+02  0.00000000000E+00 0. -1.
         -2    1    1    2    0  503  0.36783497688E+02 -0.40615399119E+02  0.54985108569E+02  0.77627305197E+02  0.00000000000E+00 0.  1.
<mgrwt>
<rscale>  2 0.89009576E+02</rscale>
<asrwt>0</asrwt>
<pdfrwt beam="1">  1       21 0.31464539E-01 0.89009576E+02</pdfrwt>
<pdfrwt beam="2">  1       21 0.76117917E-02 0.89009576E+02</pdfrwt>
<totfact> 0.12598644E+06</totfact>
</mgrwt>
</event>
<event>
 5    1  0.1959123E+000  0.1198362E+03  0.7546771E-02  0.1243368E+00
         21   -1    0    0  501  502  0.00000000000E+00  0.00000000000E+00  0.28056968805E+03  0.28056968805E+03  0.00000000000E+00 0. -1.
         21   -1    0    0  502  503 -0.00000000000E+00 -0.00000000000E+00 -0.95267537632E+02  0.95267537632E+02  0.00000000000E+00 0.  1.
         24    1    1    2    0    0  0.51954144818E+02  0.44164435055E+02  0.13642392680E+03  0.17241935578E+03  0.80419002446E+02 0. -1.
          1    1    1    2  501    0 -0.54023508009E+02  0.28814233701E+02  0.97906512541E+02  0.11547503920E+03  0.00000000000E+00 0. -1.
         -2    1    1    2    0  503  0.20693631908E+01 -0.72978668756E+02 -0.49028288923E+02  0.87942830703E+02  0.00000000000E+00 0.  1.
<mgrwt>
<rscale>  2 0.11983619E+03</rscale>
<asrwt>0</asrwt>
<pdfrwt beam="1">  1       21 0.43164567E-01 0.11983619E+03</pdfrwt>
<pdfrwt beam="2">  1       21 0.14656544E-01 0.11983619E+03</pdfrwt>
<totfact> 0.21524154E+05</totfact>
</mgrwt>
</event>
<event>
 5    1  0.1959123E+000  0.6872205E+02  0.7546771E-02  0.1364493E+00
         21   -1    0    0  501  502  0.00000000000E+00  0.00000000000E+00  0.89245326188E+03  0.89245326188E+03  0.00000000000E+00 0. -1.
         21   -1    0    0  502  503 -0.00000000000E+00 -0.00000000000E+00 -0.25095779013E+02  0.25095779013E+02  0.00000000000E+00 0.  1.
         24    1    1    2    0    0  0.26314517481E+02 -0.23642012672E+02  0.10040801888E+03  0.13341808275E+03  0.80419002446E+02 0. -1.
          1    1    1    2  501    0 -0.45028844934E+01  0.27128728267E+02  0.76067031430E+03  0.76116724242E+03  0.00000000000E+00 0. -1.
         -2    1    1    2    0  503 -0.21811632988E+02 -0.34867155954E+01  0.62791496771E+01  0.22963715725E+02  0.00000000000E+00 0.  1.
<mgrwt>
<rscale>  2 0.68722048E+02</rscale>
<asrwt>0</asrwt>
<pdfrwt beam="1">  1       21 0.13730048E+00 0.68722048E+02</pdfrwt>
<pdfrwt beam="2">  1       21 0.38608898E-02 0.68722048E+02</pdfrwt>
<totfact> 0.16561446E+05</totfact>
</mgrwt>
</event>
<event>
 5    1  0.1959123E+000  0.8182359E+02  0.7546771E-02  0.1323955E+00
         21   -1    0    0  503  502  0.00000000000E+00  0.00000000000E+00  0.77742262772E+03  0.77742262772E+03  0.00000000000E+00 0.  1.
         21   -1    0    0  501  503 -0.00000000000E+00 -0.00000000000E+00 -0.27540987376E+02  0.27540987376E+02  0.00000000000E+00 0. -1.
         24    1    1    2    0    0 -0.30303972561E+02 -0.46390477890E+02  0.13516576127E+03  0.16675552815E+03  0.80419002446E+02 0.  0.
          1    1    1    2  501    0  0.39476428055E+01  0.38176124710E+02  0.20805174029E+02  0.43656106651E+02  0.00000000000E+00 0. -1.
         -2    1    1    2    0  502  0.26356329756E+02  0.82143531797E+01  0.59391070504E+03  0.59455198030E+03  0.00000000000E+00 0.  1.
<mgrwt>
<rscale>  2 0.81823588E+02</rscale>
<asrwt>0</asrwt>
<pdfrwt beam="1">  1       21 0.11960346E+00 0.81823588E+02</pdfrwt>
<pdfrwt beam="2">  1       21 0.42370756E-02 0.81823588E+02</pdfrwt>
<totfact> 0.19742392E+05</totfact>
</mgrwt>
</event>
<event>
 5    1  0.1959123E+000  0.3006453E+03  0.7546771E-02  0.1084918E+00
         21   -1    0    0  501  502  0.00000000000E+00  0.00000000000E+00  0.19285473396E+03  0.19285473396E+03  0.00000000000E+00 0.  1.
         21   -1    0    0  502  503 -0.00000000000E+00 -0.00000000000E+00 -0.70214797786E+03  0.70214797786E+03  0.00000000000E+00 0. -1.
         24    1    1    2    0    0 -0.90600006755E+02 -0.25759506888E+03 -0.49210029066E+03  0.56850109301E+03  0.80419002446E+02 0. -1.
          1    1    1    2  501    0  0.10394954301E+01 -0.22521695793E+02  0.19917620643E+02  0.30083532775E+02  0.00000000000E+00 0. -1.
         -2    1    1    2    0  503  0.89560511324E+02  0.28011676467E+03 -0.37110573878E+02  0.29641808604E+03  0.00000000000E+00 0.  1.
<mgrwt>
<rscale>  2 0.30064531E+03</rscale>
<asrwt>0</asrwt>
<pdfrwt beam="1">  1       21 0.29669960E-01 0.30064531E+03</pdfrwt>
<pdfrwt beam="2">  1       21 0.10802276E+00 0.30064531E+03</pdfrwt>
<totfact> 0.69522629E+03</totfact>
</mgrwt>
</event>
<event>
 5    1  0.1959123E+000  0.6550361E+02  0.7546771E-02  0.1376087E+00
         21   -1    0    0  503  502  0.00000000000E+00  0.00000000000E+00  0.62845873608E+02  0.62845873608E+02  0.00000000000E+00 0.  1.
         21   -1    0    0  501  503 -0.00000000000E+00 -0.00000000000E+00 -0.32893550222E+03  0.32893550222E+03  0.00000000000E+00 0. -1.
         24    1    1    2    0    0 -0.16383217156E+02  0.34928820048E+02 -0.49352441375E+02  0.10193778347E+03  0.80419002446E+02 0.  0.
          1    1    1    2  501    0  0.12237301631E+01 -0.21577235252E+02 -0.24999715745E+03  0.25092957843E+03  0.00000000000E+00 0. -1.
         -2    1    1    2    0  502  0.15159486993E+02 -0.13351584796E+02  0.33259970208E+02  0.38914013937E+02  0.00000000000E+00 0.  1.
<mgrwt>
<rscale>  2 0.65503606E+02</rscale>
<asrwt>0</asrwt>
<pdfrwt beam="1">  1       21 0.96685957E-02 0.65503606E+02</pdfrwt>
<pdfrwt beam="2">  1       21 0.50605463E-01 0.65503606E+02</pdfrwt>
<totfact> 0.32739104E+05</totfact>
</mgrwt>
</event>
<event>
 5    1  0.1959123E+000  0.9044253E+02  0.7546771E-02  0.1301784E+00
         21   -1    0    0  503  502  0.00000000000E+00  0.00000000000E+00  0.70433439902E+03  0.70433439902E+03  0.00000000000E+00 0.  1.
         21   -1    0    0  501  503 -0.00000000000E+00 -0.00000000000E+00 -0.29162366401E+02  0.29162366401E+02  0.00000000000E+00 0. -1.
         24    1    1    2    0    0 -0.16982676318E+02 -0.50315734356E+01  0.20722135212E+03  0.22298348090E+03  0.80419002446E+02 0.  1.
          1    1    1    2  501    0 -0.29093561272E+02 -0.29137280129E+02  0.21901707132E+01  0.41233642194E+02  0.00000000000E+00 0. -1.
         -2    1    1    2    0  502  0.46076237591E+02  0.34168853565E+02  0.46576050979E+03  0.46927964232E+03  0.00000000000E+00 0.  1.
<mgrwt>
<rscale>  2 0.90442533E+02</rscale>
<asrwt>0</asrwt>
<pdfrwt beam="1">  1       21 0.10835913E+00 0.90442533E+02</pdfrwt>
<pdfrwt beam="2">  1       21 0.44865184E-02 0.90442533E+02</pdfrwt>
<totfact> 0.22619262E+05</totfact>
</mgrwt>
</event>
<event>
 5    1  0.1959123E+000  0.8689006E+02  0.7546771E-02  0.1310563E+00
         21   -1    0    0  503  502  0.00000000000E+00  0.00000000000E+00  0.46494644994E+03  0.46494644994E+03  0.00000000000E+00 0.  1.
         21   -1    0    0  501  503 -0.00000000000E+00 -0.00000000000E+00 -0.47105282033E+02  0.47105282033E+02  0.00000000000E+00 0.  1.
         24    1    1    2    0    0  0.34544157359E+02  0.48473762614E+02  0.58674771021E+02  0.11598684916E+03  0.80419002446E+02 0.  1.
          1    1    1    2  501    0 -0.24156790912E+02 -0.20268172923E-02 -0.80919163357E+01  0.25476060552E+02  0.00000000000E+00 0. -1.
         -2    1    1    2    0  502 -0.10387366447E+02 -0.48471735797E+02  0.36725831323E+03  0.37058882226E+03  0.00000000000E+00 0.  1.
<mgrwt>
<rscale>  2 0.86890058E+02</rscale>
<asrwt>0</asrwt>
<pdfrwt beam="1">  1       21 0.71530220E-01 0.86890058E+02</pdfrwt>
<pdfrwt beam="2">  1       21 0.72469668E-02 0.86890058E+02</pdfrwt>
<totfact> 0.25849542E+05</totfact>
</mgrwt>
</event>
<event>
 5    1  0.1959123E+000  0.9459217E+02  0.7546771E-02  0.1292097E+00
         21   -1    0    0  503  502  0.00000000000E+00  0.00000000000E+00  0.16817722911E+03  0.16817722911E+03  0.00000000000E+00 0. -1.
         21   -1    0    0  501  503 -0.00000000000E+00 -0.00000000000E+00 -0.53226442151E+02  0.53226442151E+02  0.00000000000E+00 0.  1.
         24    1    1    2    0    0 -0.87431439350E+00 -0.31932732237E+02  0.52048563628E+02  0.10097887276E+03  0.80419002446E+02 0.  0.
          1    1    1    2  501    0  0.85009904160E+01  0.66608298359E+02  0.42698185291E+02  0.79574287778E+02  0.00000000000E+00 0. -1.
         -2    1    1    2    0  502 -0.76266760225E+01 -0.34675566122E+02  0.20204038039E+02  0.40850510720E+02  0.00000000000E+00 0.  1.
<mgrwt>
<rscale>  2 0.94592172E+02</rscale>
<asrwt>0</asrwt>
<pdfrwt beam="1">  1       21 0.25873420E-01 0.94592172E+02</pdfrwt>
<pdfrwt beam="2">  1       21 0.81886835E-02 0.94592172E+02</pdfrwt>
<totfact> 0.16154585E+06</totfact>
</mgrwt>
</event>
<event>
 5    1  0.1959123E+000  0.6941301E+02  0.7546771E-02  0.1362101E+00
         21   -1    0    0  503  502  0.00000000000E+00  0.00000000000E+00  0.80092588936E+03  0.80092588936E+03  0.00000000000E+00 0.  1.
         21   -1    0    0  501  503 -0.00000000000E+00 -0.00000000000E+00 -0.29676649136E+02  0.29676649136E+02  0.00000000000E+00 0.  1.
         24    1    1    2    0    0 -0.29910531088E+02  0.65605335328E+01  0.96321462456E+02  0.12916160635E+03  0.80419002446E+02 0.  1.
          1    1    1    2  501    0  0.96094882988E+01 -0.24100433920E+02 -0.34560217460E-01  0.25945604154E+02  0.00000000000E+00 0. -1.
         -2    1    1    2    0  502  0.20301042789E+02  0.17539900388E+02  0.67496233798E+03  0.67549532799E+03  0.00000000000E+00 0.  1.
<mgrwt>
<rscale>  2 0.69413007E+02</rscale>
<asrwt>0</asrwt>
<pdfrwt beam="1">  1       21 0.12321935E+00 0.69413007E+02</pdfrwt>
<pdfrwt beam="2">  1       21 0.45656389E-02 0.69413007E+02</pdfrwt>
<totfact> 0.16354444E+05</totfact>
</mgrwt>
</event>
<event>
 5    1  0.1959123E+000  0.6609870E+02  0.7546771E-02  0.1373886E+00
         21   -1    0    0  501  502  0.00000000000E+00  0.00000000000E+00  0.14444437826E+02  0.14444437826E+02  0.00000000000E+00 0.  1.
         21   -1    0    0  502  503 -0.00000000000E+00 -0.00000000000E+00 -0.40885137984E+03  0.40885137984E+03  0.00000000000E+00 0. -1.
         24    1    1    2    0    0  0.99898008793E+01  0.38844285370E+01 -0.33350504662E+03  0.34323128788E+03  0.80419002446E+02 0. -1.
          1    1    1    2  501    0  0.12312228974E+02  0.16679496065E+02 -0.17605518725E+02  0.27198361363E+02  0.00000000000E+00 0. -1.
         -2    1    1    2    0  503 -0.22302029853E+02 -0.20563924602E+02 -0.43296376671E+02  0.52866168420E+02  0.00000000000E+00 0.  1.
<mgrwt>
<rscale>  2 0.66098699E+02</rscale>
<asrwt>0</asrwt>
<pdfrwt beam="1">  1       21 0.22222211E-02 0.66098699E+02</pdfrwt>
<pdfrwt beam="2">  1       21 0.62900215E-01 0.66098699E+02</pdfrwt>
<totfact> 0.23553321E+06</totfact>
</mgrwt>
</event>
<event>
 5    1  0.1959123E+000  0.1143542E+03  0.7546771E-02  0.1252713E+00
         21   -1    0    0  501  502  0.00000000000E+00  0.00000000000E+00  0.34831654402E+02  0.34831654402E+02  0.00000000000E+00 0.  1.
         21   -1    0    0  502  503 -0.00000000000E+00 -0.00000000000E+00 -0.10377791103E+04  0.10377791103E+04  0.00000000000E+00 0.  1.
         24    1    1    2    0    0  0.91822445720E+02 -0.21769817846E+02 -0.11314289067E+03  0.16785057692E+03  0.80419002446E+02 0.  1.
          1    1    1    2  501    0 -0.30921399467E+02  0.30221993632E+02 -0.67503922466E+02  0.80164090417E+02  0.00000000000E+00 0. -1.
         -2    1    1    2    0  503 -0.60901046253E+02 -0.84521757852E+01 -0.82230064275E+03  0.82459609736E+03  0.00000000000E+00 0.  1.
<mgrwt>
<rscale>  2 0.11435420E+03</rscale>
<asrwt>0</asrwt>
<pdfrwt beam="1">  1       21 0.53587160E-02 0.11435420E+03</pdfrwt>
<pdfrwt beam="2">  1       21 0.15965833E+00 0.11435420E+03</pdfrwt>
<totfact> 0.63495339E+04</totfact>
</mgrwt>
</event>
<event>
 5    1  0.1959123E+000  0.6560084E+02  0.7546771E-02  0.1375726E+00
         21   -1    0    0  501  502  0.00000000000E+00  0.00000000000E+00  0.23482838464E+03  0.23482838464E+03  0.00000000000E+00 0. -1.
         21   -1    0    0  502  503 -0.00000000000E+00 -0.00000000000E+00 -0.22778780301E+02  0.22778780301E+02  0.00000000000E+00 0.  1.
         24    1    1    2    0    0  0.11817557285E+02  0.75718663845E+01  0.17916258437E+03  0.19688431987E+03  0.80419002446E+02 0. -1.
          1    1    1    2  501    0  0.16065505761E+02 -0.13589336474E+02  0.21280139605E+02  0.29926825471E+02  0.00000000000E+00 0. -1.
         -2    1    1    2    0  503 -0.27883063045E+02  0.60174700897E+01  0.11606880365E+02  0.30796019595E+02  0.00000000000E+00 0.  1.
<mgrwt>
<rscale>  2 0.65600840E+02</rscale>
<asrwt>0</asrwt>
<pdfrwt beam="1">  1       21 0.36127442E-01 0.65600840E+02</pdfrwt>
<pdfrwt beam="2">  1       21 0.35044279E-02 0.65600840E+02</pdfrwt>
<totfact> 0.34515950E+06</totfact>
</mgrwt>
</event>
<event>
 5    1  0.1959123E+000  0.1469033E+03  0.7546771E-02  0.1204331E+00
         21   -1    0    0  503  502  0.00000000000E+00  0.00000000000E+00  0.88323557498E+02  0.88323557498E+02  0.00000000000E+00 0. -1.
         21   -1    0    0  501  503 -0.00000000000E+00 -0.00000000000E+00 -0.72379532536E+03  0.72379532536E+03  0.00000000000E+00 0.  1.
         24    1    1    2    0    0  0.65000148999E+02 -0.89947824111E+02 -0.61527941923E+03  0.63035831883E+03  0.80419002446E+02 0.  1.
          1    1    1    2  501    0 -0.69113766098E+02  0.24454113943E+01 -0.54124808239E+02  0.87819061530E+02  0.00000000000E+00 0. -1.
         -2    1    1    2    0  502  0.41136170994E+01  0.87502412717E+02  0.33932459608E+02  0.93941502500E+02  0.00000000000E+00 0.  1.
<mgrwt>
<rscale>  2 0.14690330E+03</rscale>
<asrwt>0</asrwt>
<pdfrwt beam="1">  1       21 0.13588240E-01 0.14690330E+03</pdfrwt>
<pdfrwt beam="2">  1       21 0.11135313E+00 0.14690330E+03</pdfrwt>
<totfact> 0.30589207E+04</totfact>
</mgrwt>
</event>
<event>
 5    1  0.1959123E+000  0.1094834E+03  0.7546771E-02  0.1261530E+00
         21   -1    0    0  501  502  0.00000000000E+00  0.00000000000E+00  0.56411188761E+03  0.56411188761E+03  0.00000000000E+00 0. -1.
         21   -1    0    0  502  503 -0.00000000000E+00 -0.00000000000E+00 -0.32977996728E+02  0.32977996728E+02  0.00000000000E+00 0.  1.
         24    1    1    2    0    0  0.53414530194E+02  0.84170744365E+01  0.30879223896E+03  0.32364150224E+03  0.80419002446E+02 0. -1.
          1    1    1    2  501    0  0.26124975554E+02 -0.29864059271E+02  0.17284767864E+03  0.17734344193E+03  0.00000000000E+00 0. -1.
         -2    1    1    2    0  503 -0.79539505748E+02  0.21446984834E+02  0.49493973283E+02  0.96104940167E+02  0.00000000000E+00 0.  1.
<mgrwt>
<rscale>  2 0.10948337E+03</rscale>
<asrwt>0</asrwt>
<pdfrwt beam="1">  1       21 0.86786437E-01 0.10948337E+03</pdfrwt>
<pdfrwt beam="2">  1       21 0.50735384E-02 0.10948337E+03</pdfrwt>
<totfact> 0.30583826E+05</totfact>
</mgrwt>
</event>
<event>
 5    1  0.1959123E+000  0.1111631E+03  0.7546771E-02  0.1258431E+00
         21   -1    0    0  503  502  0.00000000000E+00  0.00000000000E+00  0.68935314730E+03  0.68935314730E+03  0.00000000000E+00 0.  1.
         21   -1    0    0  501  503 -0.00000000000E+00 -0.00000000000E+00 -0.51445370171E+02  0.51445370171E+02  0.00000000000E+00 0. -1.
         24    1    1    2    0    0  0.82774708044E+02  0.48330730477E+02  0.20363170171E+03  0.23899915836E+03  0.80419002446E+02 0.  1.
          1    1    1    2  501    0 -0.32514913668E+02 -0.28290390422E+02 -0.17702641163E+02  0.46593447020E+02  0.00000000000E+00 0. -1.
         -2    1    1    2    0  502 -0.50259794376E+02 -0.20040340055E+02  0.45197871658E+03  0.45520591209E+03  0.00000000000E+00 0.  1.
<mgrwt>
<rscale>  2 0.11116311E+03</rscale>
<asrwt>0</asrwt>
<pdfrwt beam="1">  1       21 0.10605432E+00 0.11116311E+03</pdfrwt>
<pdfrwt beam="2">  1       21 0.79146728E-02 0.11116311E+03</pdfrwt>
<totfact> 0.90561681E+04</totfact>
</mgrwt>
</event>
<event>
 5    1  0.1959123E+000  0.9522914E+02  0.7546771E-02  0.1290661E+00
         21   -1    0    0  501  502  0.00000000000E+00  0.00000000000E+00  0.45767199627E+02  0.45767199627E+02  0.00000000000E+00 0. -1.
         21   -1    0    0  502  503 -0.00000000000E+00 -0.00000000000E+00 -0.31215390872E+03  0.31215390872E+03  0.00000000000E+00 0.  1.
         24    1    1    2    0    0  0.38261828551E+02  0.32614528698E+02 -0.16455756394E+03  0.18993178463E+03  0.80419002446E+02 0. -1.
          1    1    1    2  501    0 -0.62097102851E+02 -0.35627900027E+02 -0.90637617954E+01  0.72163350953E+02  0.00000000000E+00 0. -1.
         -2    1    1    2    0  503  0.23835274300E+02  0.30133713291E+01 -0.92765383361E+02  0.95825972773E+02  0.00000000000E+00 0.  1.
<mgrwt>
<rscale>  2 0.95229141E+02</rscale>
<asrwt>0</asrwt>
<pdfrwt beam="1">  1       21 0.70411074E-02 0.95229141E+02</pdfrwt>
<pdfrwt beam="2">  1       21 0.48023680E-01 0.95229141E+02</pdfrwt>
<totfact> 0.62492254E+05</totfact>
</mgrwt>
</event>
<event>
 5    1  0.1959123E+000  0.1028332E+03  0.7546771E-02  0.1274449E+00
         21   -1    0    0  503  502  0.00000000000E+00  0.00000000000E+00  0.86695477987E+02  0.86695477987E+02  0.00000000000E+00 0. -1.
         21   -1    0    0  501  503 -0.00000000000E+00 -0.00000000000E+00 -0.28523713778E+03  0.28523713778E+03  0.00000000000E+00 0. -1.
         24    1    1    2    0    0  0.46980241423E+02  0.59428487038E+02 -0.12593511136E+03  0.16752837486E+03  0.80419002446E+02 0.  0.
          1    1    1    2  501    0 -0.11794343661E+02 -0.58823214157E+02 -0.12651911944E+03  0.14002272905E+03  0.00000000000E+00 0. -1.
         -2    1    1    2    0  502 -0.35185897761E+02 -0.60527288055E+00  0.53912571008E+02  0.64381511859E+02  0.00000000000E+00 0.  1.
<mgrwt>
<rscale>  2 0.10283316E+03</rscale>
<asrwt>0</asrwt>
<pdfrwt beam="1">  1       21 0.13337766E-01 0.10283316E+03</pdfrwt>
<pdfrwt beam="2">  1       21 0.43882637E-01 0.10283316E+03</pdfrwt>
<totfact> 0.24744124E+05</totfact>
</mgrwt>
</event>
<event>
 5    1  0.1959123E+000  0.1344510E+03  0.7546771E-02  0.1220997E+00
         21   -1    0    0  503  502  0.00000000000E+00  0.00000000000E+00  0.98264290223E+03  0.98264290223E+03  0.00000000000E+00 0. -1.
         21   -1    0    0  501  503 -0.00000000000E+00 -0.00000000000E+00 -0.32513228427E+02  0.32513228427E+02  0.00000000000E+00 0. -1.
         24    1    1    2    0    0 -0.49802000105E+02 -0.10949908529E+03  0.58447435079E+03  0.60211939977E+03  0.80419002446E+02 0. -1.
          1    1    1    2  501    0  0.52871328022E+02  0.89337660247E+02  0.92263656584E+02  0.13888548229E+03  0.00000000000E+00 0. -1.
         -2    1    1    2    0  502 -0.30693279171E+01  0.20161425044E+02  0.27339166642E+03  0.27415124859E+03  0.00000000000E+00 0.  1.
<mgrwt>
<rscale>  2 0.13445104E+03</rscale>
<asrwt>0</asrwt>
<pdfrwt beam="1">  1       21 0.15117581E+00 0.13445104E+03</pdfrwt>
<pdfrwt beam="2">  1       21 0.50020359E-02 0.13445104E+03</pdfrwt>
<totfact> 0.81172471E+04</totfact>
</mgrwt>
</event>
<event>
 5    1  0.1959123E+000  0.7115434E+02  0.7546771E-02  0.1356211E+00
         21   -1    0    0  503  502  0.00000000000E+00  0.00000000000E+00  0.52848522420E+03  0.52848522420E+03  0.00000000000E+00 0.  1.
         21   -1    0    0  501  503 -0.00000000000E+00 -0.00000000000E+00 -0.19696939666E+02  0.19696939666E+02  0.00000000000E+00 0.  1.
         24    1    1    2    0    0  0.17847865972E+02 -0.10872153825E+02  0.10404283206E+03  0.13314982879E+03  0.80419002446E+02 0.  0.
          1    1    1    2  501    0  0.16220138541E+02  0.18192095551E+02  0.29920713754E+02  0.38591376580E+02  0.00000000000E+00 0. -1.
         -2    1    1    2    0  502 -0.34068004513E+02 -0.73199417260E+01  0.37482473873E+03  0.37644095850E+03  0.00000000000E+00 0.  1.
<mgrwt>
<rscale>  2 0.71154337E+02</rscale>
<asrwt>0</asrwt>
<pdfrwt beam="1">  1       21 0.81305408E-01 0.71154337E+02</pdfrwt>
<pdfrwt beam="2">  1       21 0.30302988E-02 0.71154337E+02</pdfrwt>
<totfact> 0.82743591E+05</totfact>
</mgrwt>
</event>
<event>
 5    1  0.1959123E+000  0.9284826E+02  0.7546771E-02  0.1296097E+00
         21   -1    0    0  501  502  0.00000000000E+00  0.00000000000E+00  0.52114734351E+02  0.52114734351E+02  0.00000000000E+00 0. -1.
         21   -1    0    0  502  503 -0.00000000000E+00 -0.00000000000E+00 -0.27477889345E+03  0.27477889345E+03  0.00000000000E+00 0.  1.
         24    1    1    2    0    0 -0.29817840811E+02 -0.70405872601E+01 -0.91542780731E+02  0.12564223079E+03  0.80419002446E+02 0. -1.
          1    1    1    2  501    0  0.37239817817E+02  0.46451082518E+02  0.46153214277E+01  0.59714389304E+02  0.00000000000E+00 0. -1.
         -2    1    1    2    0  503 -0.74219770060E+01 -0.39410495258E+02 -0.13573669979E+03  0.14153700770E+03  0.00000000000E+00 0.  1.
<mgrwt>
<rscale>  2 0.92848259E+02</rscale>
<asrwt>0</asrwt>
<pdfrwt beam="1">  1       21 0.80176514E-02 0.92848259E+02</pdfrwt>
<pdfrwt beam="2">  1       21 0.42273676E-01 0.92848259E+02</pdfrwt>
<totfact> 0.64754351E+05</totfact>
</mgrwt>
</event>
<event>
 5    1  0.1959123E+000  0.8545590E+02  0.7546771E-02  0.1314245E+00
         21   -1    0    0  501  502  0.00000000000E+00  0.00000000000E+00  0.82883865453E+03  0.82883865453E+03  0.00000000000E+00 0. -1.
         21   -1    0    0  502  503 -0.00000000000E+00 -0.00000000000E+00 -0.93871469185E+01  0.93871469185E+01  0.00000000000E+00 0.  1.
         24    1    1    2    0    0  0.11561618343E+02  0.96146346019E-01  0.28829665275E+03  0.29952605263E+03  0.80419002446E+02 0. -1.
          1    1    1    2  501    0 -0.44099748498E+02  0.23025728521E+02  0.31143257809E+03  0.31538107534E+03  0.00000000000E+00 0. -1.
         -2    1    1    2    0  503  0.32538130155E+02 -0.23121874867E+02  0.21972227677E+03  0.22331867347E+03  0.00000000000E+00 0.  1.
<mgrwt>
<rscale>  2 0.85455896E+02</rscale>
<asrwt>0</asrwt>
<pdfrwt beam="1">  1       21 0.12751358E+00 0.85455896E+02</pdfrwt>
<pdfrwt beam="2">  1       21 0.14441771E-02 0.85455896E+02</pdfrwt>
<totfact> 0.95647139E+05</totfact>
</mgrwt>
</event>
<event>
 5    1  0.1959123E+000  0.1647448E+03  0.7546771E-02  0.1183442E+00
         21   -1    0    0  501  502  0.00000000000E+00  0.00000000000E+00  0.27310661086E+03  0.27310661086E+03  0.00000000000E+00 0. -1.
         21   -1    0    0  502  503 -0.00000000000E+00 -0.00000000000E+00 -0.10409082680E+03  0.10409082680E+03  0.00000000000E+00 0. -1.
         24    1    1    2    0    0  0.74478883596E+02  0.10597260450E+03  0.77519905693E+02  0.17103756529E+03  0.80419002446E+02 0. -1.
          1    1    1    2  501    0 -0.10757048796E+03 -0.71045700085E+02  0.91431005506E+02  0.15804597479E+03  0.00000000000E+00 0. -1.
         -2    1    1    2    0  503  0.33091604364E+02 -0.34926904416E+02  0.64872858005E-01  0.48113897576E+02  0.00000000000E+00 0.  1.
<mgrwt>
<rscale>  2 0.16474484E+03</rscale>
<asrwt>0</asrwt>
<pdfrwt beam="1">  1       21 0.42016402E-01 0.16474484E+03</pdfrwt>
<pdfrwt beam="2">  1       21 0.16013973E-01 0.16474484E+03</pdfrwt>
<totfact> 0.19139394E+05</totfact>
</mgrwt>
</event>
<event>
 5    1  0.1959123E+000  0.9063110E+02  0.7546771E-02  0.1301331E+00
         21   -1    0    0  503  502  0.00000000000E+00  0.00000000000E+00  0.26297416423E+02  0.26297416423E+02  0.00000000000E+00 0. -1.
         21   -1    0    0  501  503 -0.00000000000E+00 -0.00000000000E+00 -0.52035742545E+03  0.52035742545E+03  0.00000000000E+00 0.  1.
         24    1    1    2    0    0 -0.21947558436E+02 -0.36937295457E+02 -0.14344432730E+03  0.16996926224E+03  0.80419002446E+02 0. -1.
          1    1    1    2  501    0 -0.21713747605E+02 -0.11749207895E+02 -0.27747885198E+03  0.27857502404E+03  0.00000000000E+00 0. -1.
         -2    1    1    2    0  502  0.43661306041E+02  0.48686503352E+02 -0.73136829742E+02  0.98110555592E+02  0.00000000000E+00 0.  1.
<mgrwt>
<rscale>  2 0.90631105E+02</rscale>
<asrwt>0</asrwt>
<pdfrwt beam="1">  1       21 0.40457566E-02 0.90631105E+02</pdfrwt>
<pdfrwt beam="2">  1       21 0.80054984E-01 0.90631105E+02</pdfrwt>
<totfact> 0.53496020E+05</totfact>
</mgrwt>
</event>
<event>
 5    1  0.2285894E+000  0.8147862E+02  0.7546771E-02  0.1324907E+00
         21   -1    0    0  503  502  0.00000000000E+00  0.00000000000E+00  0.18116855611E+03  0.18116855611E+03  0.00000000000E+00 0.  1.
         21   -1    0    0  501  503 -0.00000000000E+00 -0.00000000000E+00 -0.26355938941E+03  0.26355938941E+03  0.00000000000E+00 0. -1.
         24    1    1    2    0    0  0.47327924387E+01 -0.11513530957E+02 -0.83841400373E+00  0.81381076497E+02  0.80419002446E+02 0. -1.
          1    1    1    2  501    0 -0.85039122247E+01  0.46055116068E+02 -0.21777942715E+03  0.22275832000E+03  0.00000000000E+00 0. -1.
         -2    1    1    2    0  502  0.37711197860E+01 -0.34541585111E+02  0.13622700785E+03  0.14058854902E+03  0.00000000000E+00 0.  1.
<mgrwt>
<rscale>  2 0.81478618E+02</rscale>
<asrwt>0</asrwt>
<pdfrwt beam="1">  1       21 0.27872086E-01 0.81478618E+02</pdfrwt>
<pdfrwt beam="2">  1       21 0.40547598E-01 0.81478618E+02</pdfrwt>
<totfact> 0.76029973E+04</totfact>
</mgrwt>
</event>
<event>
 5    1  0.1959123E+000  0.9178914E+02  0.7546771E-02  0.1298576E+00
         21   -1    0    0  503  502  0.00000000000E+00  0.00000000000E+00  0.16968239913E+03  0.16968239913E+03  0.00000000000E+00 0. -1.
         21   -1    0    0  501  503 -0.00000000000E+00 -0.00000000000E+00 -0.55770137601E+02  0.55770137601E+02  0.00000000000E+00 0. -1.
         24    1    1    2    0    0  0.67681701592E+02 -0.30127512289E+02  0.39351092703E+02  0.11620759088E+03  0.80419002446E+02 0. -1.
          1    1    1    2  501    0 -0.43299179663E+02  0.16759672668E+02  0.25810184152E+02  0.53121287573E+02  0.00000000000E+00 0. -1.
         -2    1    1    2    0  502 -0.24382521929E+02  0.13367839621E+02  0.48750984669E+02  0.56123658273E+02  0.00000000000E+00 0.  1.
<mgrwt>
<rscale>  2 0.91789136E+02</rscale>
<asrwt>0</asrwt>
<pdfrwt beam="1">  1       21 0.26104984E-01 0.91789136E+02</pdfrwt>
<pdfrwt beam="2">  1       21 0.85800212E-02 0.91789136E+02</pdfrwt>
<totfact> 0.14652251E+06</totfact>
</mgrwt>
</event>
<event>
 5    1  0.1959123E+000  0.7406099E+02  0.7546771E-02  0.1346804E+00
         21   -1    0    0  503  502  0.00000000000E+00  0.00000000000E+00  0.10135526652E+03  0.10135526652E+03  0.00000000000E+00 0. -1.
         21   -1    0    0  501  503 -0.00000000000E+00 -0.00000000000E+00 -0.72125727185E+02  0.72125727185E+02  0.00000000000E+00 0. -1.
         24    1    1    2    0    0 -0.18734583960E+02 -0.23106389418E+02  0.12779133334E+02  0.86691476347E+02  0.80419002446E+02 0. -1.
          1    1    1    2  501    0  0.37871603284E+02  0.99579799625E+01 -0.19692155800E+02  0.43831503514E+02  0.00000000000E+00 0. -1.
         -2    1    1    2    0  502 -0.19137019324E+02  0.13148409456E+02  0.36142561806E+02  0.42958013848E+02  0.00000000000E+00 0.  1.
<mgrwt>
<rscale>  2 0.74060992E+02</rscale>
<asrwt>0</asrwt>
<pdfrwt beam="1">  1       21 0.15593118E-01 0.74060992E+02</pdfrwt>
<pdfrwt beam="2">  1       21 0.11096266E-01 0.74060992E+02</pdfrwt>
<totfact> 0.23906351E+06</totfact>
</mgrwt>
</event>
<event>
 5    1  0.1959123E+000  0.1203277E+03  0.7546771E-02  0.1242557E+00
         21   -1    0    0  503  502  0.00000000000E+00  0.00000000000E+00  0.15051675652E+03  0.15051675652E+03  0.00000000000E+00 0.  1.
         21   -1    0    0  501  503 -0.00000000000E+00 -0.00000000000E+00 -0.11177109568E+03  0.11177109568E+03  0.00000000000E+00 0. -1.
         24    1    1    2    0    0  0.17636625929E+01  0.70554970964E+01 -0.49249420704E+01  0.80897228344E+02  0.80419002446E+02 0.  0.
          1    1    1    2  501    0 -0.13285184914E+02  0.75445698097E+02 -0.16834080580E+02  0.78434276746E+02  0.00000000000E+00 0. -1.
         -2    1    1    2    0  502  0.11521522322E+02 -0.82501195194E+02  0.60504683488E+02  0.10295634710E+03  0.00000000000E+00 0.  1.
<mgrwt>
<rscale>  2 0.12032773E+03</rscale>
<asrwt>0</asrwt>
<pdfrwt beam="1">  1       21 0.23156424E-01 0.12032773E+03</pdfrwt>
<pdfrwt beam="2">  1       21 0.17195553E-01 0.12032773E+03</pdfrwt>
<totfact> 0.53934287E+05</totfact>
</mgrwt>
</event>
<event>
 5    1  0.1959123E+000  0.8485746E+02  0.7546771E-02  0.1315806E+00
         21   -1    0    0  501  502  0.00000000000E+00  0.00000000000E+00  0.34204409722E+03  0.34204409722E+03  0.00000000000E+00 0. -1.
         21   -1    0    0  502  503 -0.00000000000E+00 -0.00000000000E+00 -0.18581110538E+03  0.18581110538E+03  0.00000000000E+00 0.  1.
         24    1    1    2    0    0  0.94938658158E+01  0.42798762864E+02 -0.15912140804E+03  0.18359930839E+03  0.80419002446E+02 0.  1.
          1    1    1    2  501    0  0.11347388470E+02 -0.53503313446E+02  0.31611736195E+03  0.32081389356E+03  0.00000000000E+00 0. -1.
         -2    1    1    2    0  503 -0.20841254285E+02  0.10704550582E+02 -0.76296208047E+00  0.23442000650E+02  0.00000000000E+00 0.  1.
<mgrwt>
<rscale>  2 0.84857460E+02</rscale>
<asrwt>0</asrwt>
<pdfrwt beam="1">  1       21 0.52622169E-01 0.84857460E+02</pdfrwt>
<pdfrwt beam="2">  1       21 0.28586324E-01 0.84857460E+02</pdfrwt>
<totfact> 0.42764029E+04</totfact>
</mgrwt>
</event>
<event>
 5    1  0.1959123E+000  0.8945312E+02  0.7546771E-02  0.1304181E+00
         21   -1    0    0  501  502  0.00000000000E+00  0.00000000000E+00  0.39829501349E+03  0.39829501349E+03  0.00000000000E+00 0. -1.
         21   -1    0    0  502  503 -0.00000000000E+00 -0.00000000000E+00 -0.12182780880E+03  0.12182780880E+03  0.00000000000E+00 0. -1.
         24    1    1    2    0    0 -0.66132281759E+02  0.41885113431E+01 -0.31596812913E+02  0.10888800144E+03  0.80419002446E+02 0. -1.
          1    1    1    2  501    0  0.38531323641E+02  0.14719400645E+02  0.35289431263E+03  0.35529666413E+03  0.00000000000E+00 0. -1.
         -2    1    1    2    0  503  0.27600958118E+02 -0.18907911988E+02 -0.44830295025E+02  0.55938156716E+02  0.00000000000E+00 0.  1.
<mgrwt>
<rscale>  2 0.89453123E+02</rscale>
<asrwt>0</asrwt>
<pdfrwt beam="1">  1       21 0.61276155E-01 0.89453123E+02</pdfrwt>
<pdfrwt beam="2">  1       21 0.18742740E-01 0.89453123E+02</pdfrwt>
<totfact> 0.67953471E+04</totfact>
</mgrwt>
</event>
<event>
 5    1  0.1959123E+000  0.6931346E+02  0.7546771E-02  0.1362443E+00
         21   -1    0    0  503  502  0.00000000000E+00  0.00000000000E+00  0.96092355995E+01  0.96092355995E+01  0.00000000000E+00 0.  1.
         21   -1    0    0  501  503 -0.00000000000E+00 -0.00000000000E+00 -0.55469343150E+03  0.55469343150E+03  0.00000000000E+00 0. -1.
         24    1    1    2    0    0 -0.42567039598E+00 -0.29690733381E+02 -0.39769091263E+03  0.40682551393E+03  0.80419002446E+02 0.  1.
          1    1    1    2  501    0 -0.21528345757E+02  0.17797585056E+02 -0.10100376087E+03  0.10479495892E+03  0.00000000000E+00 0. -1.
         -2    1    1    2    0  502  0.21954016153E+02  0.11893148324E+02 -0.46389522407E+02  0.52682194254E+02  0.00000000000E+00 0.  1.
<mgrwt>
<rscale>  2 0.69313461E+02</rscale>
<asrwt>0</asrwt>
<pdfrwt beam="1">  1       21 0.14783438E-02 0.69313461E+02</pdfrwt>
<pdfrwt beam="2">  1       21 0.85337458E-01 0.69313461E+02</pdfrwt>
<totfact> 0.23312020E+06</totfact>
</mgrwt>
</event>
<event>
 5    1  0.1959123E+000  0.6835454E+02  0.7546771E-02  0.1365780E+00
         21   -1    0    0  501  502  0.00000000000E+00  0.00000000000E+00  0.48618183680E+03  0.48618183680E+03  0.00000000000E+00 0. -1.
         21   -1    0    0  502  503 -0.00000000000E+00 -0.00000000000E+00 -0.44163999240E+02  0.44163999240E+02  0.00000000000E+00 0. -1.
         24    1    1    2    0    0 -0.38031762930E+02 -0.14058947214E+02  0.32067104690E+03  0.33307837705E+03  0.80419002446E+02 0. -1.
          1    1    1    2  501    0  0.24384139405E+02 -0.32548766846E+01  0.15505263120E+03  0.15699203457E+03  0.00000000000E+00 0. -1.
         -2    1    1    2    0  503  0.13647623525E+02  0.17313823899E+02 -0.33705840535E+02  0.40275424418E+02  0.00000000000E+00 0.  1.
<mgrwt>
<rscale>  2 0.68354544E+02</rscale>
<asrwt>0</asrwt>
<pdfrwt beam="1">  1       21 0.74797202E-01 0.68354544E+02</pdfrwt>
<pdfrwt beam="2">  1       21 0.67944618E-02 0.68354544E+02</pdfrwt>
<totfact> 0.26285662E+05</totfact>
</mgrwt>
</event>
<event>
 5    1  0.1959123E+000  0.6557711E+02  0.7546771E-02  0.1375814E+00
         21   -1    0    0  501  502  0.00000000000E+00  0.00000000000E+00  0.18710066595E+04  0.18710066595E+04  0.00000000000E+00 0. -1.
         21   -1    0    0  502  503 -0.00000000000E+00 -0.00000000000E+00 -0.28414470353E+01  0.28414470353E+01  0.00000000000E+00 0.  1.
         24    1    1    2    0    0 -0.11737461692E+01  0.89944146604E+01  0.11421387480E+04  0.11450023637E+04  0.80419002446E+02 0. -1.
          1    1    1    2  501    0  0.23576089501E+02  0.46002413553E+01  0.57928984247E+03  0.57978764716E+03  0.00000000000E+00 0. -1.
         -2    1    1    2    0  503 -0.22402343332E+02 -0.13594656016E+02  0.14673662201E+03  0.14905809571E+03  0.00000000000E+00 0.  1.
<mgrwt>
<rscale>  2 0.65577108E+02</rscale>
<asrwt>0</asrwt>
<pdfrwt beam="1">  1       21 0.28784619E+00 0.65577108E+02</pdfrwt>
<pdfrwt beam="2">  1       21 0.43714719E-03 0.65577108E+02</pdfrwt>
<totfact> 0.61261053E+05</totfact>
</mgrwt>
</event>
<event>
 5    1  0.1959123E+000  0.7928278E+02  0.7546771E-02  0.1331099E+00
         21   -1    0    0  503  502  0.00000000000E+00  0.00000000000E+00  0.13852672550E+02  0.13852672550E+02  0.00000000000E+00 0. -1.
         21   -1    0    0  501  503 -0.00000000000E+00 -0.00000000000E+00 -0.53088722218E+03  0.53088722218E+03  0.00000000000E+00 0.  1.
         24    1    1    2    0    0 -0.34865010564E+02 -0.47276759900E+02 -0.22747033924E+03  0.24831558988E+03  0.80419002446E+02 0. -1.
          1    1    1    2  501    0  0.12961007223E+02  0.21961974434E+02 -0.18181573829E+03  0.18359542129E+03  0.00000000000E+00 0. -1.
         -2    1    1    2    0  502  0.21904003340E+02  0.25314785466E+02 -0.10774847209E+03  0.11282888355E+03  0.00000000000E+00 0.  1.
<mgrwt>
<rscale>  2 0.79282776E+02</rscale>
<asrwt>0</asrwt>
<pdfrwt beam="1">  1       21 0.21311804E-02 0.79282776E+02</pdfrwt>
<pdfrwt beam="2">  1       21 0.81674957E-01 0.79282776E+02</pdfrwt>
<totfact> 0.14453592E+06</totfact>
</mgrwt>
</event>
<event>
 5    1  0.1959123E+000  0.1129607E+03  0.7546771E-02  0.1255183E+00
         21   -1    0    0  503  502  0.00000000000E+00  0.00000000000E+00  0.21344297758E+03  0.21344297758E+03  0.00000000000E+00 0.  1.
         21   -1    0    0  501  503 -0.00000000000E+00 -0.00000000000E+00 -0.98852413358E+02  0.98852413358E+02  0.00000000000E+00 0. -1.
         24    1    1    2    0    0 -0.24539840514E+02 -0.40282959854E+01 -0.43098863247E+01  0.84286547061E+02  0.80419002446E+02 0. -1.
          1    1    1    2  501    0 -0.25130495656E+01 -0.66323575987E+02 -0.20560203710E+02  0.69482761362E+02  0.00000000000E+00 0. -1.
         -2    1    1    2    0  502  0.27052890080E+02  0.70351871972E+02  0.13946065425E+03  0.15852608251E+03  0.00000000000E+00 0.  1.
<mgrwt>
<rscale>  2 0.11296074E+03</rscale>
<asrwt>0</asrwt>
<pdfrwt beam="1">  1       21 0.32837381E-01 0.11296074E+03</pdfrwt>
<pdfrwt beam="2">  1       21 0.15208064E-01 0.11296074E+03</pdfrwt>
<totfact> 0.34642473E+05</totfact>
</mgrwt>
</event>
<event>
 5    1  0.1959123E+000  0.6775375E+02  0.7546771E-02  0.1367902E+00
         21   -1    0    0  501  502  0.00000000000E+00  0.00000000000E+00  0.48946905970E+03  0.48946905970E+03  0.00000000000E+00 0. -1.
         21   -1    0    0  502  503 -0.00000000000E+00 -0.00000000000E+00 -0.10599589044E+02  0.10599589044E+02  0.00000000000E+00 0. -1.
         24    1    1    2    0    0  0.12236760602E+02 -0.43633290204E+01  0.22830577542E+03  0.24240363032E+03  0.80419002446E+02 0. -1.
          1    1    1    2  501    0 -0.24860051591E+02  0.21427509266E+02  0.20223152504E+03  0.20487740246E+03  0.00000000000E+00 0. -1.
         -2    1    1    2    0  503  0.12623290989E+02 -0.17064180246E+02  0.48332170206E+02  0.52787615968E+02  0.00000000000E+00 0.  1.
<mgrwt>
<rscale>  2 0.67753752E+02</rscale>
<asrwt>0</asrwt>
<pdfrwt beam="1">  1       21 0.75302915E-01 0.67753752E+02</pdfrwt>
<pdfrwt beam="2">  1       21 0.16307064E-02 0.67753752E+02</pdfrwt>
<totfact> 0.26245434E+06</totfact>
</mgrwt>
</event>
<event>
 5    1  0.1959123E+000  0.7626077E+02  0.7546771E-02  0.1340011E+00
         21   -1    0    0  503  502  0.00000000000E+00  0.00000000000E+00  0.14670844354E+03  0.14670844354E+03  0.00000000000E+00 0. -1.
         21   -1    0    0  501  503 -0.00000000000E+00 -0.00000000000E+00 -0.50059299414E+02  0.50059299414E+02  0.00000000000E+00 0. -1.
         24    1    1    2    0    0  0.26130993764E+02  0.37549743315E+02  0.88364014419E+02  0.12793837210E+03  0.80419002446E+02 0. -1.
          1    1    1    2  501    0  0.30923950193E+01 -0.29537962363E+02 -0.12354097547E+02  0.32166408779E+02  0.00000000000E+00 0. -1.
         -2    1    1    2    0  502 -0.29223388783E+02 -0.80117809517E+01  0.20639227253E+02  0.36662962068E+02  0.00000000000E+00 0.  1.
<mgrwt>
<rscale>  2 0.76260775E+02</rscale>
<asrwt>0</asrwt>
<pdfrwt beam="1">  1       21 0.22570530E-01 0.76260775E+02</pdfrwt>
<pdfrwt beam="2">  1       21 0.77014307E-02 0.76260775E+02</pdfrwt>
<totfact> 0.22930145E+06</totfact>
</mgrwt>
</event>
<event>
 5    1  0.1959123E+000  0.8969972E+02  0.7546771E-02  0.1303581E+00
         21   -1    0    0  501  502  0.00000000000E+00  0.00000000000E+00  0.10978961230E+03  0.10978961230E+03  0.00000000000E+00 0. -1.
         21   -1    0    0  502  503 -0.00000000000E+00 -0.00000000000E+00 -0.97900890480E+02  0.97900890480E+02  0.00000000000E+00 0. -1.
         24    1    1    2    0    0 -0.12497185425E+02  0.64292490443E+02 -0.41348193458E+02  0.11165389840E+03  0.80419002446E+02 0. -1.
          1    1    1    2  501    0 -0.13188934173E+02 -0.30564238508E+02  0.39089297617E+02  0.51342904557E+02  0.00000000000E+00 0. -1.
         -2    1    1    2    0  503  0.25686119599E+02 -0.33728251935E+02  0.14147617661E+02  0.44693699826E+02  0.00000000000E+00 0.  1.
<mgrwt>
<rscale>  2 0.89699720E+02</rscale>
<asrwt>0</asrwt>
<pdfrwt beam="1">  1       21 0.16890710E-01 0.89699720E+02</pdfrwt>
<pdfrwt beam="2">  1       21 0.15061675E-01 0.89699720E+02</pdfrwt>
<totfact> 0.12191252E+06</totfact>
</mgrwt>
</event>
<event>
 5    1  0.1959123E+000  0.8908511E+02  0.7546771E-02  0.1305082E+00
         21   -1    0    0  503  502  0.00000000000E+00  0.00000000000E+00  0.54118475495E+02  0.54118475495E+02  0.00000000000E+00 0.  1.
         21   -1    0    0  501  503 -0.00000000000E+00 -0.00000000000E+00 -0.42985553368E+03  0.42985553368E+03  0.00000000000E+00 0. -1.
         24    1    1    2    0    0 -0.55343167361E+01  0.18928734282E+02 -0.37793079291E+03  0.38689510959E+03  0.80419002446E+02 0. -1.
          1    1    1    2  501    0 -0.35723802385E+02 -0.36001099891E+02 -0.78255894937E+01  0.51317726967E+02  0.00000000000E+00 0. -1.
         -2    1    1    2    0  502  0.41258119121E+02  0.17072365609E+02  0.10019324222E+02  0.45761172611E+02  0.00000000000E+00 0.  1.
<mgrwt>
<rscale>  2 0.89085106E+02</rscale>
<asrwt>0</asrwt>
<pdfrwt beam="1">  1       21 0.83259193E-02 0.89085106E+02</pdfrwt>
<pdfrwt beam="2">  1       21 0.66131621E-01 0.89085106E+02</pdfrwt>
<totfact> 0.24140389E+05</totfact>
</mgrwt>
</event>
<event>
 5    1  0.1959123E+000  0.8687123E+02  0.7546771E-02  0.1310610E+00
         21   -1    0    0  503  502  0.00000000000E+00  0.00000000000E+00  0.46446883009E+02  0.46446883009E+02  0.00000000000E+00 0.  1.
         21   -1    0    0  501  503 -0.00000000000E+00 -0.00000000000E+00 -0.46033745498E+03  0.46033745498E+03  0.00000000000E+00 0. -1.
         24    1    1    2    0    0 -0.18924887488E+02 -0.32069871588E+02 -0.65180525009E+02  0.11001065778E+03  0.80419002446E+02 0.  0.
          1    1    1    2  501    0  0.45176374779E+02  0.37019203561E+02 -0.36217766906E+03  0.36685690703E+03  0.00000000000E+00 0. -1.
         -2    1    1    2    0  502 -0.26251487291E+02 -0.49493319727E+01  0.13467622104E+02  0.29916773173E+02  0.00000000000E+00 0.  1.
<mgrwt>
<rscale>  2 0.86871226E+02</rscale>
<asrwt>0</asrwt>
<pdfrwt beam="1">  1       21 0.71456746E-02 0.86871226E+02</pdfrwt>
<pdfrwt beam="2">  1       21 0.70821144E-01 0.86871226E+02</pdfrwt>
<totfact> 0.27050093E+05</totfact>
</mgrwt>
</event>
<event>
 5    1  0.1959123E+000  0.7936680E+02  0.7546771E-02  0.1330858E+00
         21   -1    0    0  501  502  0.00000000000E+00  0.00000000000E+00  0.14319151229E+03  0.14319151229E+03  0.00000000000E+00 0. -1.
         21   -1    0    0  502  503 -0.00000000000E+00 -0.00000000000E+00 -0.14275163404E+03  0.14275163404E+03  0.00000000000E+00 0.  1.
         24    1    1    2    0    0 -0.14371497298E+02 -0.57536848042E+00 -0.11613958327E+03  0.14199468209E+03  0.80419002446E+02 0.  1.
          1    1    1    2  501    0 -0.15580660761E+02 -0.30269380374E+02  0.81957339609E+02  0.88746819062E+02  0.00000000000E+00 0. -1.
         -2    1    1    2    0  503  0.29952158059E+02  0.30844748854E+02  0.34622121913E+02  0.55201645175E+02  0.00000000000E+00 0.  1.
<mgrwt>
<rscale>  2 0.79366800E+02</rscale>
<asrwt>0</asrwt>
<pdfrwt beam="1">  1       21 0.22029463E-01 0.79366800E+02</pdfrwt>
<pdfrwt beam="2">  1       21 0.21961790E-01 0.79366800E+02</pdfrwt>
<totfact> 0.37900347E+05</totfact>
</mgrwt>
</event>
<event>
 5    1  0.1959123E+000  0.8948528E+02  0.7546771E-02  0.1304103E+00
         21   -1    0    0  503  502  0.00000000000E+00  0.00000000000E+00  0.13486386232E+03  0.13486386232E+03  0.00000000000E+00 0.  1.
         21   -1    0    0  501  503 -0.00000000000E+00 -0.00000000000E+00 -0.66261649152E+02  0.66261649152E+02  0.00000000000E+00 0. -1.
         24    1    1    2    0    0 -0.59557894261E+01 -0.26439153379E+02  0.38320298494E+02  0.93113701946E+02  0.80419002446E+02 0. -1.
          1    1    1    2  501    0  0.45910154282E+01  0.60172152955E+02 -0.32421557134E+01  0.60434071413E+02  0.00000000000E+00 0. -1.
         -2    1    1    2    0  502  0.13647739979E+01 -0.33732999576E+02  0.33524070386E+02  0.47577738110E+02  0.00000000000E+00 0.  1.
<mgrwt>
<rscale>  2 0.89485282E+02</rscale>
<asrwt>0</asrwt>
<pdfrwt beam="1">  1       21 0.20748286E-01 0.89485282E+02</pdfrwt>
<pdfrwt beam="2">  1       21 0.10194100E-01 0.89485282E+02</pdfrwt>
<totfact> 0.16661226E+06</totfact>
</mgrwt>
</event>
<event>
 5    1  0.1959123E+000  0.6441618E+02  0.7546771E-02  0.1380181E+00
         21   -1    0    0  503  502  0.00000000000E+00  0.00000000000E+00  0.13192573966E+03  0.13192573966E+03  0.00000000000E+00 0. -1.
         21   -1    0    0  501  503 -0.00000000000E+00 -0.00000000000E+00 -0.31520213274E+02  0.31520213274E+02  0.00000000000E+00 0.  1.
         24    1    1    2    0    0 -0.25227052832E+01 -0.30127798515E+02  0.63839014769E+02  0.10703590074E+03  0.80419002446E+02 0. -1.
          1    1    1    2  501    0  0.16310208664E+02  0.12559165775E+02  0.16399421594E+02  0.26319129550E+02  0.00000000000E+00 0. -1.
         -2    1    1    2    0  502 -0.13787503381E+02  0.17568632741E+02  0.20167090024E+02  0.30090922649E+02  0.00000000000E+00 0.  1.
<mgrwt>
<rscale>  2 0.64416183E+02</rscale>
<asrwt>0</asrwt>
<pdfrwt beam="1">  1       21 0.20296267E-01 0.64416183E+02</pdfrwt>
<pdfrwt beam="2">  1       21 0.48492637E-02 0.64416183E+02</pdfrwt>
<totfact> 0.59616388E+06</totfact>
</mgrwt>
</event>
<event>
 5    1  0.1959123E+000  0.9611102E+02  0.7546771E-02  0.1288693E+00
         21   -1    0    0  503  502  0.00000000000E+00  0.00000000000E+00  0.15904723787E+02  0.15904723787E+02  0.00000000000E+00 0. -1.
         21   -1    0    0  501  503 -0.00000000000E+00 -0.00000000000E+00 -0.12080325786E+04  0.12080325786E+04  0.00000000000E+00 0.  1.
         24    1    1    2    0    0  0.40437059088E+02  0.22409695256E+02 -0.22042384416E+03  0.23914689464E+03  0.80419002446E+02 0. -1.
          1    1    1    2  501    0  0.27897544483E+02 -0.11873336898E+02 -0.78676691518E+03  0.78735089251E+03  0.00000000000E+00 0. -1.
         -2    1    1    2    0  502 -0.68334603571E+02 -0.10536358358E+02 -0.18493709548E+03  0.19743951524E+03  0.00000000000E+00 0.  1.
<mgrwt>
<rscale>  2 0.96111021E+02</rscale>
<asrwt>0</asrwt>
<pdfrwt beam="1">  1       21 0.24468806E-02 0.96111021E+02</pdfrwt>
<pdfrwt beam="2">  1       21 0.18585116E+00 0.96111021E+02</pdfrwt>
<totfact> 0.15531404E+05</totfact>
</mgrwt>
</event>
<event>
 5    1  0.1959123E+000  0.7729634E+02  0.7546771E-02  0.1336904E+00
         21   -1    0    0  503  502  0.00000000000E+00  0.00000000000E+00  0.34951712647E+03  0.34951712647E+03  0.00000000000E+00 0. -1.
         21   -1    0    0  501  503 -0.00000000000E+00 -0.00000000000E+00 -0.24326377371E+02  0.24326377371E+02  0.00000000000E+00 0.  1.
         24    1    1    2    0    0 -0.25928766756E+02 -0.21024639386E+02  0.13657909045E+03  0.16197345557E+03  0.80419002446E+02 0.  0.
          1    1    1    2  501    0  0.69985108000E+01 -0.20620000450E+02  0.45978700030E+01  0.22255425867E+02  0.00000000000E+00 0. -1.
         -2    1    1    2    0  502  0.18930255956E+02  0.41644639836E+02  0.18401378865E+03  0.18961462240E+03  0.00000000000E+00 0.  1.
<mgrwt>
<rscale>  2 0.77296344E+02</rscale>
<asrwt>0</asrwt>
<pdfrwt beam="1">  1       21 0.53771862E-01 0.77296344E+02</pdfrwt>
<pdfrwt beam="2">  1       21 0.37425198E-02 0.77296344E+02</pdfrwt>
<totfact> 0.14156966E+06</totfact>
</mgrwt>
</event>
<event>
 5    1  0.1959123E+000  0.7707271E+02  0.7546771E-02  0.1337570E+00
         21   -1    0    0  501  502  0.00000000000E+00  0.00000000000E+00  0.98773686281E+01  0.98773686281E+01  0.00000000000E+00 0.  1.
         21   -1    0    0  502  503 -0.00000000000E+00 -0.00000000000E+00 -0.74167539813E+03  0.74167539813E+03  0.00000000000E+00 0.  1.
         24    1    1    2    0    0 -0.36264685960E+02  0.10128902536E+02 -0.25470600286E+03  0.26974077549E+03  0.80419002446E+02 0.  1.
          1    1    1    2  501    0  0.67725717231E+01 -0.29365927865E+02 -0.16398140847E+03  0.16672770547E+03  0.00000000000E+00 0. -1.
         -2    1    1    2    0  503  0.29492114237E+02  0.19237025329E+02 -0.31311061818E+03  0.31508428581E+03  0.00000000000E+00 0.  1.
<mgrwt>
<rscale>  2 0.77072714E+02</rscale>
<asrwt>0</asrwt>
<pdfrwt beam="1">  1       21 0.15195950E-02 0.77072714E+02</pdfrwt>
<pdfrwt beam="2">  1       21 0.11410392E+00 0.77072714E+02</pdfrwt>
<totfact> 0.11515345E+06</totfact>
</mgrwt>
</event>
<event>
 5    1  0.1959123E+000  0.7469635E+02  0.7546771E-02  0.1344814E+00
         21   -1    0    0  501  502  0.00000000000E+00  0.00000000000E+00  0.10602050965E+04  0.10602050965E+04  0.00000000000E+00 0.  1.
         21   -1    0    0  502  503 -0.00000000000E+00 -0.00000000000E+00 -0.57695341275E+01  0.57695341275E+01  0.00000000000E+00 0.  1.
         24    1    1    2    0    0 -0.85157997000E+01  0.36442578458E+02  0.58942678468E+03  0.59606352918E+03  0.80419002446E+02 0.  1.
          1    1    1    2  501    0 -0.18615787491E+02 -0.25183724629E+02  0.34254330985E+03  0.34397192713E+03  0.00000000000E+00 0. -1.
         -2    1    1    2    0  503  0.27131587191E+02 -0.11258853829E+02  0.12246546780E+03  0.12593917427E+03  0.00000000000E+00 0.  1.
<mgrwt>
<rscale>  2 0.74696354E+02</rscale>
<asrwt>0</asrwt>
<pdfrwt beam="1">  1       21 0.16310832E+00 0.74696354E+02</pdfrwt>
<pdfrwt beam="2">  1       21 0.88762148E-03 0.74696354E+02</pdfrwt>
<totfact> 0.11039055E+06</totfact>
</mgrwt>
</event>
<event>
 5    1  0.1959123E+000  0.9365957E+02  0.7546771E-02  0.1294224E+00
         21   -1    0    0  503  502  0.00000000000E+00  0.00000000000E+00  0.14067696774E+03  0.14067696774E+03  0.00000000000E+00 0.  1.
         21   -1    0    0  501  503 -0.00000000000E+00 -0.00000000000E+00 -0.82271598459E+02  0.82271598459E+02  0.00000000000E+00 0.  1.
         24    1    1    2    0    0 -0.60711619185E+02 -0.34830725085E+01 -0.15902183816E+02  0.10206923093E+03  0.80419002446E+02 0.  1.
          1    1    1    2  501    0  0.18703688294E+02  0.31051920483E+02  0.70561495735E+01  0.36930190472E+02  0.00000000000E+00 0. -1.
         -2    1    1    2    0  502  0.42007930891E+02 -0.27568847975E+02  0.67251403523E+02  0.83949144798E+02  0.00000000000E+00 0.  1.
<mgrwt>
<rscale>  2 0.93659575E+02</rscale>
<asrwt>0</asrwt>
<pdfrwt beam="1">  1       21 0.21642610E-01 0.93659575E+02</pdfrwt>
<pdfrwt beam="2">  1       21 0.12657169E-01 0.93659575E+02</pdfrwt>
<totfact> 0.10571297E+06</totfact>
</mgrwt>
</event>
<event>
 5    1  0.1959123E+000  0.7487205E+02  0.7546771E-02  0.1344268E+00
         21   -1    0    0  503  502  0.00000000000E+00  0.00000000000E+00  0.17134809325E+03  0.17134809325E+03  0.00000000000E+00 0. -1.
         21   -1    0    0  501  503 -0.00000000000E+00 -0.00000000000E+00 -0.33015326402E+02  0.33015326402E+02  0.00000000000E+00 0.  1.
         24    1    1    2    0    0  0.13482185091E+02 -0.32096216428E+02  0.71506936631E+02  0.11310346752E+03  0.80419002446E+02 0.  0.
          1    1    1    2  501    0 -0.27824802469E+02  0.97012126950E+00  0.28388463395E+02  0.39762615880E+02  0.00000000000E+00 0. -1.
         -2    1    1    2    0  502  0.14342617378E+02  0.31126095158E+02  0.38437366818E+02  0.51497336251E+02  0.00000000000E+00 0.  1.
<mgrwt>
<rscale>  2 0.74872055E+02</rscale>
<asrwt>0</asrwt>
<pdfrwt beam="1">  1       21 0.26361245E-01 0.74872055E+02</pdfrwt>
<pdfrwt beam="2">  1       21 0.50792811E-02 0.74872055E+02</pdfrwt>
<totfact> 0.34495161E+06</totfact>
</mgrwt>
</event>
<event>
 5    1  0.1959123E+000  0.8881821E+02  0.7546771E-02  0.1305739E+00
         21   -1    0    0  503  502  0.00000000000E+00  0.00000000000E+00  0.41248492219E+03  0.41248492219E+03  0.00000000000E+00 0.  1.
         21   -1    0    0  501  503 -0.00000000000E+00 -0.00000000000E+00 -0.35502532897E+02  0.35502532897E+02  0.00000000000E+00 0. -1.
         24    1    1    2    0    0 -0.42713580093E+02 -0.55639819042E+02  0.35764868031E+03  0.37322919750E+03  0.80419002446E+02 0.  1.
          1    1    1    2  501    0  0.11424846000E+02  0.23163943510E+02  0.35352410695E+00  0.25830609059E+02  0.00000000000E+00 0. -1.
         -2    1    1    2    0  502  0.31288734093E+02  0.32475875532E+02  0.18980184886E+02  0.48927648533E+02  0.00000000000E+00 0.  1.
<mgrwt>
<rscale>  2 0.88818206E+02</rscale>
<asrwt>0</asrwt>
<pdfrwt beam="1">  1       21 0.63459216E-01 0.88818206E+02</pdfrwt>
<pdfrwt beam="2">  1       21 0.54619284E-02 0.88818206E+02</pdfrwt>
<totfact> 0.53754985E+05</totfact>
</mgrwt>
</event>
<event>
 5    1  0.1959123E+000  0.8121016E+02  0.7546771E-02  0.1325652E+00
         21   -1    0    0  503  502  0.00000000000E+00  0.00000000000E+00  0.53240391028E+02  0.53240391028E+02  0.00000000000E+00 0.  1.
         21   -1    0    0  501  503 -0.00000000000E+00 -0.00000000000E+00 -0.56229220870E+03  0.56229220870E+03  0.00000000000E+00 0. -1.
         24    1    1    2    0    0 -0.10718424737E+02 -0.59667949514E+02 -0.13556270141E+03  0.16887750234E+03  0.80419002446E+02 0.  1.
          1    1    1    2  501    0  0.12638708666E+01  0.38579141221E+02 -0.40541147470E+03  0.40724490337E+03  0.00000000000E+00 0. -1.
         -2    1    1    2    0  502  0.94545538704E+01  0.21088808293E+02  0.31922358437E+02  0.39410194015E+02  0.00000000000E+00 0.  1.
<mgrwt>
<rscale>  2 0.81210161E+02</rscale>
<asrwt>0</asrwt>
<pdfrwt beam="1">  1       21 0.81908296E-02 0.81210161E+02</pdfrwt>
<pdfrwt beam="2">  1       21 0.86506491E-01 0.81210161E+02</pdfrwt>
<totfact> 0.13850669E+05</totfact>
</mgrwt>
</event>
<event>
 5    1  0.1959123E+000  0.8803284E+02  0.7546771E-02  0.1307687E+00
         21   -1    0    0  501  502  0.00000000000E+00  0.00000000000E+00  0.20061465874E+02  0.20061465874E+02  0.00000000000E+00 0.  1.
         21   -1    0    0  502  503 -0.00000000000E+00 -0.00000000000E+00 -0.42717176298E+03  0.42717176298E+03  0.00000000000E+00 0.  1.
         24    1    1    2    0    0 -0.36236067867E+02 -0.48720323604E+02 -0.27451319154E+03  0.29242337600E+03  0.80419002446E+02 0.  1.
          1    1    1    2  501    0  0.26267132307E+02  0.72279743784E+00 -0.23694542216E+02  0.35382425109E+02  0.00000000000E+00 0. -1.
         -2    1    1    2    0  503  0.99689355605E+01  0.47997526166E+02 -0.10890256335E+03  0.11942742775E+03  0.00000000000E+00 0.  1.
<mgrwt>
<rscale>  2 0.88032841E+02</rscale>
<asrwt>0</asrwt>
<pdfrwt beam="1">  1       21 0.30863795E-02 0.88032841E+02</pdfrwt>
<pdfrwt beam="2">  1       21 0.65718730E-01 0.88032841E+02</pdfrwt>
<totfact> 0.12781547E+06</totfact>
</mgrwt>
</event>
<event>
 5    1  0.1959123E+000  0.9739686E+02  0.7546771E-02  0.1285867E+00
         21   -1    0    0  503  502  0.00000000000E+00  0.00000000000E+00  0.24959696411E+02  0.24959696411E+02  0.00000000000E+00 0.  1.
         21   -1    0    0  501  503 -0.00000000000E+00 -0.00000000000E+00 -0.47877260482E+03  0.47877260482E+03  0.00000000000E+00 0. -1.
         24    1    1    2    0    0 -0.42830572260E+02 -0.26717195149E+02 -0.19167269014E+03  0.21390161883E+03  0.80419002446E+02 0.  1.
          1    1    1    2  501    0 -0.21902565678E+02 -0.11431121918E+02 -0.16591697882E+03  0.16774634659E+03  0.00000000000E+00 0. -1.
         -2    1    1    2    0  502  0.64733137938E+02  0.38148317067E+02 -0.96223239448E+02  0.12208433582E+03  0.00000000000E+00 0.  1.
<mgrwt>
<rscale>  2 0.97396860E+02</rscale>
<asrwt>0</asrwt>
<pdfrwt beam="1">  1       21 0.38399536E-02 0.97396860E+02</pdfrwt>
<pdfrwt beam="2">  1       21 0.73657318E-01 0.97396860E+02</pdfrwt>
<totfact> 0.69984152E+05</totfact>
</mgrwt>
</event>
<event>
 5    1  0.1959123E+000  0.6850672E+02  0.7546771E-02  0.1365246E+00
         21   -1    0    0  503  502  0.00000000000E+00  0.00000000000E+00  0.34067273647E+02  0.34067273647E+02  0.00000000000E+00 0.  1.
         21   -1    0    0  501  503 -0.00000000000E+00 -0.00000000000E+00 -0.15013210183E+03  0.15013210183E+03  0.00000000000E+00 0. -1.
         24    1    1    2    0    0  0.30799512842E+02  0.10744245037E+02 -0.47716497338E+02  0.99035997825E+02  0.80419002446E+02 0.  0.
          1    1    1    2  501    0 -0.28450292910E+02  0.93899426627E+01 -0.46893706872E+02  0.55647191610E+02  0.00000000000E+00 0. -1.
         -2    1    1    2    0  502 -0.23492199319E+01 -0.20134187700E+02 -0.21454623974E+02  0.29516186042E+02  0.00000000000E+00 0.  1.
<mgrwt>
<rscale>  2 0.68506723E+02</rscale>
<asrwt>0</asrwt>
<pdfrwt beam="1">  1       21 0.52411191E-02 0.68506723E+02</pdfrwt>
<pdfrwt beam="2">  1       21 0.23097246E-01 0.68506723E+02</pdfrwt>
<totfact> 0.41600686E+06</totfact>
</mgrwt>
</event>
<event>
 5    1  0.1959123E+000  0.9218106E+02  0.7546771E-02  0.1297654E+00
         21   -1    0    0  501  502  0.00000000000E+00  0.00000000000E+00  0.42238236207E+02  0.42238236207E+02  0.00000000000E+00 0. -1.
         21   -1    0    0  502  503 -0.00000000000E+00 -0.00000000000E+00 -0.31302506933E+03  0.31302506933E+03  0.00000000000E+00 0.  1.
         24    1    1    2    0    0 -0.15732697914E+02  0.30882960240E+01 -0.95443661318E+02  0.12583228440E+03  0.80419002446E+02 0.  1.
          1    1    1    2  501    0 -0.17675215275E+02  0.42391683096E+02 -0.73988541035E+00  0.45934904605E+02  0.00000000000E+00 0. -1.
         -2    1    1    2    0  503  0.33407913189E+02 -0.45479979120E+02 -0.17460328640E+03  0.18349611654E+03  0.00000000000E+00 0.  1.
<mgrwt>
<rscale>  2 0.92181063E+02</rscale>
<asrwt>0</asrwt>
<pdfrwt beam="1">  1       21 0.64981901E-02 0.92181063E+02</pdfrwt>
<pdfrwt beam="2">  1       21 0.48157704E-01 0.92181063E+02</pdfrwt>
<totfact> 0.71175982E+05</totfact>
</mgrwt>
</event>
<event>
 5    1  0.1959123E+000  0.8655053E+02  0.7546771E-02  0.1311427E+00
         21   -1    0    0  501  502  0.00000000000E+00  0.00000000000E+00  0.46471439831E+02  0.46471439831E+02  0.00000000000E+00 0.  1.
         21   -1    0    0  502  503 -0.00000000000E+00 -0.00000000000E+00 -0.16583725946E+03  0.16583725946E+03  0.00000000000E+00 0.  1.
         24    1    1    2    0    0  0.45025318852E+02 -0.38045093523E+02 -0.85774796804E+02  0.13152657602E+03  0.80419002446E+02 0.  1.
          1    1    1    2  501    0 -0.21566374499E+02 -0.69416285673E+01 -0.12069832466E+02  0.25670519511E+02  0.00000000000E+00 0. -1.
         -2    1    1    2    0  503 -0.23458944353E+02  0.44986722090E+02 -0.21521190362E+02  0.55111603761E+02  0.00000000000E+00 0.  1.
<mgrwt>
<rscale>  2 0.86550533E+02</rscale>
<asrwt>0</asrwt>
<pdfrwt beam="1">  1       21 0.71494522E-02 0.86550533E+02</pdfrwt>
<pdfrwt beam="2">  1       21 0.25513425E-01 0.86550533E+02</pdfrwt>
<totfact> 0.20832208E+06</totfact>
</mgrwt>
</event>
<event>
 5    1  0.1959123E+000  0.9379571E+02  0.7546771E-02  0.1293912E+00
         21   -1    0    0  501  502  0.00000000000E+00  0.00000000000E+00  0.49635094443E+03  0.49635094443E+03  0.00000000000E+00 0. -1.
         21   -1    0    0  502  503 -0.00000000000E+00 -0.00000000000E+00 -0.35217531327E+02  0.35217531327E+02  0.00000000000E+00 0.  1.
         24    1    1    2    0    0  0.25111274452E+01 -0.45216050959E+02  0.19109339981E+03  0.21221380829E+03  0.80419002446E+02 0. -1.
          1    1    1    2  501    0 -0.39477502405E+02  0.42839808539E+02  0.27578363182E+03  0.28186935621E+03  0.00000000000E+00 0. -1.
         -2    1    1    2    0  503  0.36966374960E+02  0.23762424196E+01 -0.57436185283E+01  0.37485311250E+02  0.00000000000E+00 0.  1.
<mgrwt>
<rscale>  2 0.93795708E+02</rscale>
<asrwt>0</asrwt>
<pdfrwt beam="1">  1       21 0.76361679E-01 0.93795708E+02</pdfrwt>
<pdfrwt beam="2">  1       21 0.54180821E-02 0.93795708E+02</pdfrwt>
<totfact> 0.36539943E+05</totfact>
</mgrwt>
</event>
<event>
 5    1  0.1959123E+000  0.7905361E+02  0.7546771E-02  0.1331759E+00
         21   -1    0    0  501  502  0.00000000000E+00  0.00000000000E+00  0.61250711704E+02  0.61250711704E+02  0.00000000000E+00 0.  1.
         21   -1    0    0  502  503 -0.00000000000E+00 -0.00000000000E+00 -0.10602256614E+03  0.10602256614E+03  0.00000000000E+00 0. -1.
         24    1    1    2    0    0 -0.74010179849E+01 -0.54771984335E+02 -0.30884753270E+02  0.10235149864E+03  0.80419002446E+02 0.  0.
          1    1    1    2  501    0  0.16575913010E+02  0.34535068285E+02  0.74985728053E+00  0.38314411382E+02  0.00000000000E+00 0. -1.
         -2    1    1    2    0  503 -0.91748950247E+01  0.20236916050E+02 -0.14636958451E+02  0.26607367826E+02  0.00000000000E+00 0.  1.
<mgrwt>
<rscale>  2 0.79053615E+02</rscale>
<asrwt>0</asrwt>
<pdfrwt beam="1">  1       21 0.94231865E-02 0.79053615E+02</pdfrwt>
<pdfrwt beam="2">  1       21 0.16311164E-01 0.79053615E+02</pdfrwt>
<totfact> 0.29356604E+06</totfact>
</mgrwt>
</event>
<event>
 5    1  0.1959123E+000  0.7291250E+02  0.7546771E-02  0.1350460E+00
         21   -1    0    0  503  502  0.00000000000E+00  0.00000000000E+00  0.38413281135E+03  0.38413281135E+03  0.00000000000E+00 0. -1.
         21   -1    0    0  501  503 -0.00000000000E+00 -0.00000000000E+00 -0.25032012658E+02  0.25032012658E+02  0.00000000000E+00 0. -1.
         24    1    1    2    0    0  0.23097206689E+02  0.23955439822E+02  0.21121253367E+03  0.22844100855E+03  0.80419002446E+02 0.  0.
          1    1    1    2  501    0  0.24590266370E+01 -0.31927659331E+02  0.16600092252E+01  0.32065212817E+02  0.00000000000E+00 0. -1.
         -2    1    1    2    0  502 -0.25556233326E+02  0.79722195097E+01  0.14622825580E+03  0.14865860264E+03  0.00000000000E+00 0.  1.
<mgrwt>
<rscale>  2 0.72912497E+02</rscale>
<asrwt>0</asrwt>
<pdfrwt beam="1">  1       21 0.59097351E-01 0.72912497E+02</pdfrwt>
<pdfrwt beam="2">  1       21 0.38510791E-02 0.72912497E+02</pdfrwt>
<totfact> 0.11095221E+06</totfact>
</mgrwt>
</event>
<event>
 5    1  0.1959123E+000  0.7129260E+02  0.7546771E-02  0.1355752E+00
         21   -1    0    0  501  502  0.00000000000E+00  0.00000000000E+00  0.93253376198E+02  0.93253376198E+02  0.00000000000E+00 0. -1.
         21   -1    0    0  502  503 -0.00000000000E+00 -0.00000000000E+00 -0.71349208916E+02  0.71349208916E+02  0.00000000000E+00 0.  1.
         24    1    1    2    0    0 -0.10942844569E+02  0.32929925449E+02 -0.15484385004E+02  0.88944409440E+02  0.80419002446E+02 0.  1.
          1    1    1    2  501    0  0.23756939266E+02 -0.50107778132E+01  0.37811822694E+02  0.44935887584E+02  0.00000000000E+00 0. -1.
         -2    1    1    2    0  503 -0.12814094697E+02 -0.27919147636E+02 -0.42327040698E+00  0.30722288089E+02  0.00000000000E+00 0.  1.
<mgrwt>
<rscale>  2 0.71292595E+02</rscale>
<asrwt>0</asrwt>
<pdfrwt beam="1">  1       21 0.14346673E-01 0.71292595E+02</pdfrwt>
<pdfrwt beam="2">  1       21 0.10976801E-01 0.71292595E+02</pdfrwt>
<totfact> 0.28175314E+06</totfact>
</mgrwt>
</event>
<event>
 5    1  0.1959123E+000  0.1035974E+03  0.7546771E-02  0.1272908E+00
         21   -1    0    0  501  502  0.00000000000E+00  0.00000000000E+00  0.52464791146E+02  0.52464791146E+02  0.00000000000E+00 0.  1.
         21   -1    0    0  502  503 -0.00000000000E+00 -0.00000000000E+00 -0.26048461308E+03  0.26048461308E+03  0.00000000000E+00 0.  1.
         24    1    1    2    0    0 -0.12388986273E+02 -0.69489513293E+02 -0.11292288038E+03  0.15556693835E+03  0.80419002446E+02 0.  1.
          1    1    1    2  501    0  0.32456806696E+02  0.52340349365E+01  0.83882427323E+01  0.33929368381E+02  0.00000000000E+00 0. -1.
         -2    1    1    2    0  503 -0.20067820423E+02  0.64255478357E+02 -0.10348518429E+03  0.12345309750E+03  0.00000000000E+00 0.  1.
<mgrwt>
<rscale>  2 0.10359737E+03</rscale>
<asrwt>0</asrwt>
<pdfrwt beam="1">  1       21 0.80715064E-02 0.10359737E+03</pdfrwt>
<pdfrwt beam="2">  1       21 0.40074556E-01 0.10359737E+03</pdfrwt>
<totfact> 0.71233356E+05</totfact>
</mgrwt>
</event>
<event>
 5    1  0.1959123E+000  0.7342392E+02  0.7546771E-02  0.1348822E+00
         21   -1    0    0  501  502  0.00000000000E+00  0.00000000000E+00  0.15581843253E+03  0.15581843253E+03  0.00000000000E+00 0.  1.
         21   -1    0    0  502  503 -0.00000000000E+00 -0.00000000000E+00 -0.42579154734E+02  0.42579154734E+02  0.00000000000E+00 0. -1.
         24    1    1    2    0    0  0.11236882051E+02 -0.19255093572E+02  0.34409930379E+02  0.90267853690E+02  0.80419002446E+02 0.  0.
          1    1    1    2  501    0 -0.34870382896E+02  0.19106540738E+02  0.74002094738E+02  0.84007818255E+02  0.00000000000E+00 0. -1.
         -2    1    1    2    0  503  0.23633500845E+02  0.14855283457E+00  0.48272526768E+01  0.24121915317E+02  0.00000000000E+00 0.  1.
<mgrwt>
<rscale>  2 0.73423919E+02</rscale>
<asrwt>0</asrwt>
<pdfrwt beam="1">  1       21 0.23972066E-01 0.73423919E+02</pdfrwt>
<pdfrwt beam="2">  1       21 0.65506393E-02 0.73423919E+02</pdfrwt>
<totfact> 0.26902586E+06</totfact>
</mgrwt>
</event>
<event>
 5    1  0.1959123E+000  0.9264703E+02  0.7546771E-02  0.1296565E+00
         21   -1    0    0  501  502  0.00000000000E+00  0.00000000000E+00  0.28552114743E+02  0.28552114743E+02  0.00000000000E+00 0. -1.
         21   -1    0    0  502  503 -0.00000000000E+00 -0.00000000000E+00 -0.41787423990E+03  0.41787423990E+03  0.00000000000E+00 0.  1.
         24    1    1    2    0    0  0.71168905887E+01 -0.30682399080E+02 -0.72532607302E+02  0.11278410713E+03  0.80419002446E+02 0. -1.
          1    1    1    2  501    0  0.43242788589E+02  0.93875755541E+01 -0.89143137688E+02  0.99521677722E+02  0.00000000000E+00 0. -1.
         -2    1    1    2    0  503 -0.50359679178E+02  0.21294823526E+02 -0.22764638017E+03  0.23412056979E+03  0.00000000000E+00 0.  1.
<mgrwt>
<rscale>  2 0.92647031E+02</rscale>
<asrwt>0</asrwt>
<pdfrwt beam="1">  1       21 0.43926334E-02 0.92647031E+02</pdfrwt>
<pdfrwt beam="2">  1       21 0.64288339E-01 0.92647031E+02</pdfrwt>
<totfact> 0.75133417E+05</totfact>
</mgrwt>
</event>
<event>
 5    1  0.1959123E+000  0.7839495E+02  0.7546771E-02  0.1333669E+00
         21   -1    0    0  503  502  0.00000000000E+00  0.00000000000E+00  0.12672805522E+02  0.12672805522E+02  0.00000000000E+00 0.  1.
         21   -1    0    0  501  503 -0.00000000000E+00 -0.00000000000E+00 -0.48623478893E+03  0.48623478893E+03  0.00000000000E+00 0. -1.
         24    1    1    2    0    0 -0.11296696826E+02  0.10807052901E+02 -0.25370246704E+03  0.26660188575E+03  0.80419002446E+02 0.  0.
          1    1    1    2  501    0  0.44514936739E+01  0.31598699842E+02 -0.86449278139E+02  0.92150807475E+02  0.00000000000E+00 0. -1.
         -2    1    1    2    0  502  0.68452031519E+01 -0.42405752743E+02 -0.13341023823E+03  0.14015490122E+03  0.00000000000E+00 0.  1.
<mgrwt>
<rscale>  2 0.78394948E+02</rscale>
<asrwt>0</asrwt>
<pdfrwt beam="1">  1       21 0.19496626E-02 0.78394948E+02</pdfrwt>
<pdfrwt beam="2">  1       21 0.74805343E-01 0.78394948E+02</pdfrwt>
<totfact> 0.20187722E+06</totfact>
</mgrwt>
</event>
<event>
 5    1  0.1959123E+000  0.9556130E+02  0.7546771E-02  0.1289917E+00
         21   -1    0    0  501  502  0.00000000000E+00  0.00000000000E+00  0.33778656463E+03  0.33778656463E+03  0.00000000000E+00 0. -1.
         21   -1    0    0  502  503 -0.00000000000E+00 -0.00000000000E+00 -0.36134566248E+02  0.36134566248E+02  0.00000000000E+00 0.  1.
         24    1    1    2    0    0 -0.18139315353E+02  0.24323377024E+02  0.77026645065E+02  0.11541655616E+03  0.80419002446E+02 0.  1.
          1    1    1    2  501    0 -0.25569376392E+02  0.27382774307E+02  0.16200466582E+03  0.16628024863E+03  0.00000000000E+00 0. -1.
         -2    1    1    2    0  503  0.43708691744E+02 -0.51706151331E+02  0.62620687499E+02  0.92224326088E+02  0.00000000000E+00 0.  1.
<mgrwt>
<rscale>  2 0.95561301E+02</rscale>
<asrwt>0</asrwt>
<pdfrwt beam="1">  1       21 0.51967162E-01 0.95561301E+02</pdfrwt>
<pdfrwt beam="2">  1       21 0.55591643E-02 0.95561301E+02</pdfrwt>
<totfact> 0.79221453E+05</totfact>
</mgrwt>
</event>
<event>
 5    1  0.1959123E+000  0.1040591E+03  0.7546771E-02  0.1271984E+00
         21   -1    0    0  503  502  0.00000000000E+00  0.00000000000E+00  0.15461062173E+03  0.15461062173E+03  0.00000000000E+00 0.  1.
         21   -1    0    0  501  503 -0.00000000000E+00 -0.00000000000E+00 -0.78342344788E+02  0.78342344788E+02  0.00000000000E+00 0. -1.
         24    1    1    2    0    0 -0.41820545851E+02 -0.20971360514E+02  0.17512134128E+01  0.93053955960E+02  0.80419002446E+02 0. -1.
          1    1    1    2  501    0  0.53072139893E+01  0.60809703004E+02  0.22978224396E+02  0.65222582716E+02  0.00000000000E+00 0. -1.
         -2    1    1    2    0  502  0.36513331862E+02 -0.39838342490E+02  0.51538839131E+02  0.74676427840E+02  0.00000000000E+00 0.  1.
<mgrwt>
<rscale>  2 0.10405915E+03</rscale>
<asrwt>0</asrwt>
<pdfrwt beam="1">  1       21 0.23786249E-01 0.10405915E+03</pdfrwt>
<pdfrwt beam="2">  1       21 0.12052668E-01 0.10405915E+03</pdfrwt>
<totfact> 0.96858312E+05</totfact>
</mgrwt>
</event>
<event>
 5    1  0.1959123E+000  0.7319493E+02  0.7546771E-02  0.1349554E+00
         21   -1    0    0  503  502  0.00000000000E+00  0.00000000000E+00  0.63764831353E+03  0.63764831353E+03  0.00000000000E+00 0. -1.
         21   -1    0    0  501  503 -0.00000000000E+00 -0.00000000000E+00 -0.15458896722E+02  0.15458896722E+02  0.00000000000E+00 0. -1.
         24    1    1    2    0    0  0.56619854359E+01  0.20521932328E+02  0.33008205561E+03  0.34040356516E+03  0.80419002446E+02 0. -1.
          1    1    1    2  501    0  0.25795424781E+02 -0.18373660615E+02  0.17288071982E+02  0.36081474151E+02  0.00000000000E+00 0. -1.
         -2    1    1    2    0  502 -0.31457410217E+02 -0.21482717130E+01  0.27481928922E+03  0.27662217094E+03  0.00000000000E+00 0.  1.
<mgrwt>
<rscale>  2 0.73194933E+02</rscale>
<asrwt>0</asrwt>
<pdfrwt beam="1">  1       21 0.98099720E-01 0.73194933E+02</pdfrwt>
<pdfrwt beam="2">  1       21 0.23782923E-02 0.73194933E+02</pdfrwt>
<totfact> 0.80257409E+05</totfact>
</mgrwt>
</event>
<event>
 5    1  0.1959123E+000  0.7450471E+02  0.7546771E-02  0.1345412E+00
         21   -1    0    0  501  502  0.00000000000E+00  0.00000000000E+00  0.10573990898E+03  0.10573990898E+03  0.00000000000E+00 0. -1.
         21   -1    0    0  502  503 -0.00000000000E+00 -0.00000000000E+00 -0.78593619929E+02  0.78593619929E+02  0.00000000000E+00 0.  1.
         24    1    1    2    0    0  0.25246787110E+02 -0.12843474341E+02 -0.25837460903E+02  0.89090658505E+02  0.80419002446E+02 0.  1.
          1    1    1    2  501    0  0.16969423807E+02  0.13249778591E+02  0.48155984002E+02  0.52749566560E+02  0.00000000000E+00 0. -1.
         -2    1    1    2    0  503 -0.42216210917E+02 -0.40630424985E+00  0.48277659494E+01  0.42493303842E+02  0.00000000000E+00 0.  1.
<mgrwt>
<rscale>  2 0.74504707E+02</rscale>
<asrwt>0</asrwt>
<pdfrwt beam="1">  1       21 0.16267678E-01 0.74504707E+02</pdfrwt>
<pdfrwt beam="2">  1       21 0.12091326E-01 0.74504707E+02</pdfrwt>
<totfact> 0.19095351E+06</totfact>
</mgrwt>
</event>
<event>
 5    1  0.1959123E+000  0.9190674E+02  0.7546771E-02  0.1298299E+00
         21   -1    0    0  501  502  0.00000000000E+00  0.00000000000E+00  0.11912102063E+04  0.11912102063E+04  0.00000000000E+00 0. -1.
         21   -1    0    0  502  503 -0.00000000000E+00 -0.00000000000E+00 -0.11457708798E+02  0.11457708798E+02  0.00000000000E+00 0. -1.
         24    1    1    2    0    0  0.38878596595E+01  0.71376060927E+02  0.28447950632E+03  0.30414710749E+03  0.80419002446E+02 0. -1.
          1    1    1    2  501    0  0.11302512795E+02 -0.25515847591E+02  0.35138968991E+03  0.35249612685E+03  0.00000000000E+00 0. -1.
         -2    1    1    2    0  503 -0.15190372454E+02 -0.45860213337E+02  0.54388330131E+03  0.54602468078E+03  0.00000000000E+00 0.  1.
<mgrwt>
<rscale>  2 0.91906743E+02</rscale>
<asrwt>0</asrwt>
<pdfrwt beam="1">  1       21 0.18326301E+00 0.91906743E+02</pdfrwt>
<pdfrwt beam="2">  1       21 0.17627254E-02 0.91906743E+02</pdfrwt>
<totfact> 0.27385526E+05</totfact>
</mgrwt>
</event>
<event>
 5    1  0.1959123E+000  0.7791808E+02  0.7546771E-02  0.1335066E+00
         21   -1    0    0  503  502  0.00000000000E+00  0.00000000000E+00  0.64042736695E+03  0.64042736695E+03  0.00000000000E+00 0.  1.
         21   -1    0    0  501  503 -0.00000000000E+00 -0.00000000000E+00 -0.65406591437E+02  0.65406591437E+02  0.00000000000E+00 0. -1.
         24    1    1    2    0    0  0.14804452433E+02  0.49582148435E+02  0.22006572643E+03  0.23994520449E+03  0.80419002446E+02 0.  0.
          1    1    1    2  501    0  0.87580978316E+01 -0.23394859602E+02 -0.51853920203E+02  0.57557386788E+02  0.00000000000E+00 0. -1.
         -2    1    1    2    0  502 -0.23562550264E+02 -0.26187288832E+02  0.40680896929E+03  0.40833136711E+03  0.00000000000E+00 0.  1.
<mgrwt>
<rscale>  2 0.77918085E+02</rscale>
<asrwt>0</asrwt>
<pdfrwt beam="1">  1       21 0.98527283E-01 0.77918085E+02</pdfrwt>
<pdfrwt beam="2">  1       21 0.10062553E-01 0.77918085E+02</pdfrwt>
<totfact> 0.72643010E+04</totfact>
</mgrwt>
</event>
<event>
 5    1  0.1959123E+000  0.7765097E+02  0.7546771E-02  0.1335853E+00
         21   -1    0    0  503  502  0.00000000000E+00  0.00000000000E+00  0.10613451520E+04  0.10613451520E+04  0.00000000000E+00 0. -1.
         21   -1    0    0  501  503 -0.00000000000E+00 -0.00000000000E+00 -0.12534840491E+02  0.12534840491E+02  0.00000000000E+00 0. -1.
         24    1    1    2    0    0 -0.50792085840E+02  0.24948169582E+02  0.66115098379E+03  0.66842358312E+03  0.80419002446E+02 0. -1.
          1    1    1    2  501    0  0.27747925975E+02 -0.17248844957E+02  0.22922603250E+02  0.39911349113E+02  0.00000000000E+00 0. -1.
         -2    1    1    2    0  502  0.23044159866E+02 -0.76993246243E+01  0.36473672450E+03  0.36554506029E+03  0.00000000000E+00 0.  1.
<mgrwt>
<rscale>  2 0.77650972E+02</rscale>
<asrwt>0</asrwt>
<pdfrwt beam="1">  1       21 0.16328380E+00 0.77650972E+02</pdfrwt>
<pdfrwt beam="2">  1       21 0.19284378E-02 0.77650972E+02</pdfrwt>
<totfact> 0.32535354E+05</totfact>
</mgrwt>
</event>
<event>
 5    1  0.1959123E+000  0.1380405E+03  0.7546771E-02  0.1215990E+00
         21   -1    0    0  503  502  0.00000000000E+00  0.00000000000E+00  0.11594041685E+03  0.11594041685E+03  0.00000000000E+00 0.  1.
         21   -1    0    0  501  503 -0.00000000000E+00 -0.00000000000E+00 -0.22068359919E+03  0.22068359919E+03  0.00000000000E+00 0. -1.
         24    1    1    2    0    0 -0.12473782568E+02 -0.47816357488E+01 -0.18736062050E+01  0.81542538877E+02  0.80419002446E+02 0.  1.
          1    1    1    2  501    0 -0.11876886111E+02 -0.93018647307E+02 -0.12057941443E+03  0.15275118446E+03  0.00000000000E+00 0. -1.
         -2    1    1    2    0  502  0.24350668679E+02  0.97800283056E+02  0.17709838298E+02  0.10233029270E+03  0.00000000000E+00 0.  1.
<mgrwt>
<rscale>  2 0.13804050E+03</rscale>
<asrwt>0</asrwt>
<pdfrwt beam="1">  1       21 0.17836987E-01 0.13804050E+03</pdfrwt>
<pdfrwt beam="2">  1       21 0.33951323E-01 0.13804050E+03</pdfrwt>
<totfact> 0.24187175E+05</totfact>
</mgrwt>
</event>
<event>
 5    1  0.1959123E+000  0.8433711E+02  0.7546771E-02  0.1317175E+00
         21   -1    0    0  501  502  0.00000000000E+00  0.00000000000E+00  0.19821831560E+04  0.19821831560E+04  0.00000000000E+00 0. -1.
         21   -1    0    0  502  503 -0.00000000000E+00 -0.00000000000E+00 -0.25680296348E+02  0.25680296348E+02  0.00000000000E+00 0.  1.
         24    1    1    2    0    0 -0.38624260663E+02  0.33571804462E+02  0.10713262222E+04  0.10755584549E+04  0.80419002446E+02 0.  0.
          1    1    1    2  501    0  0.18470417881E+02  0.13014002020E+02  0.88109293065E+03  0.88138259175E+03  0.00000000000E+00 0. -1.
         -2    1    1    2    0  503  0.20153842782E+02 -0.46585806482E+02  0.40837068270E+01  0.50922405736E+02  0.00000000000E+00 0.  1.
<mgrwt>
<rscale>  2 0.84337108E+02</rscale>
<asrwt>0</asrwt>
<pdfrwt beam="1">  1       21 0.30495113E+00 0.84337108E+02</pdfrwt>
<pdfrwt beam="2">  1       21 0.39508164E-02 0.84337108E+02</pdfrwt>
<totfact> 0.15012724E+04</totfact>
</mgrwt>
</event>
<event>
 5    1  0.1959123E+000  0.7285980E+02  0.7546771E-02  0.1350630E+00
         21   -1    0    0  503  502  0.00000000000E+00  0.00000000000E+00  0.20091675818E+03  0.20091675818E+03  0.00000000000E+00 0. -1.
         21   -1    0    0  501  503 -0.00000000000E+00 -0.00000000000E+00 -0.33009508714E+02  0.33009508714E+02  0.00000000000E+00 0.  1.
         24    1    1    2    0    0  0.55798369061E+01  0.48036273119E+02  0.10449005436E+03  0.14044217860E+03  0.80419002446E+02 0.  1.
          1    1    1    2  501    0  0.58980932134E+01 -0.29454949934E+02  0.41552870126E+01  0.30325698497E+02  0.00000000000E+00 0. -1.
         -2    1    1    2    0  502 -0.11477930119E+02 -0.18581323185E+02  0.59261908098E+02  0.63158389803E+02  0.00000000000E+00 0.  1.
<mgrwt>
<rscale>  2 0.72859798E+02</rscale>
<asrwt>0</asrwt>
<pdfrwt beam="1">  1       21 0.30910270E-01 0.72859798E+02</pdfrwt>
<pdfrwt beam="2">  1       21 0.50783861E-02 0.72859798E+02</pdfrwt>
<totfact> 0.25507948E+06</totfact>
</mgrwt>
</event>
<event>
 5    1  0.1959123E+000  0.9488045E+02  0.7546771E-02  0.1291446E+00
         21   -1    0    0  503  502  0.00000000000E+00  0.00000000000E+00  0.51847145512E+03  0.51847145512E+03  0.00000000000E+00 0.  1.
         21   -1    0    0  501  503 -0.00000000000E+00 -0.00000000000E+00 -0.32509442002E+02  0.32509442002E+02  0.00000000000E+00 0. -1.
         24    1    1    2    0    0 -0.32206401268E+02 -0.25826164283E+02  0.26687308630E+03  0.28176710807E+03  0.80419002446E+02 0.  0.
          1    1    1    2  501    0 -0.17824953843E+02  0.42935723739E+02  0.28193675373E+01  0.46574179390E+02  0.00000000000E+00 0. -1.
         -2    1    1    2    0  502  0.50031355111E+02 -0.17109559456E+02  0.21626955927E+03  0.22263960965E+03  0.00000000000E+00 0.  1.
<mgrwt>
<rscale>  2 0.94880454E+02</rscale>
<asrwt>0</asrwt>
<pdfrwt beam="1">  1       21 0.79764833E-01 0.94880454E+02</pdfrwt>
<pdfrwt beam="2">  1       21 0.50014530E-02 0.94880454E+02</pdfrwt>
<totfact> 0.37931316E+05</totfact>
</mgrwt>
</event>
<event>
 5    1  0.1959123E+000  0.8153531E+02  0.7546771E-02  0.1324750E+00
         21   -1    0    0  503  502  0.00000000000E+00  0.00000000000E+00  0.62679008881E+03  0.62679008881E+03  0.00000000000E+00 0.  1.
         21   -1    0    0  501  503 -0.00000000000E+00 -0.00000000000E+00 -0.24287731228E+02  0.24287731228E+02  0.00000000000E+00 0. -1.
         24    1    1    2    0    0 -0.17026458607E+02 -0.50017998325E+02  0.84530724706E+02  0.12807950587E+03  0.80419002446E+02 0. -1.
          1    1    1    2  501    0 -0.13415163621E+02  0.20095797452E+02  0.10110761494E+03  0.10395459340E+03  0.00000000000E+00 0. -1.
         -2    1    1    2    0  502  0.30441622229E+02  0.29922200873E+02  0.41686401794E+03  0.41904372078E+03  0.00000000000E+00 0.  1.
<mgrwt>
<rscale>  2 0.81535312E+02</rscale>
<asrwt>0</asrwt>
<pdfrwt beam="1">  1       21 0.96429232E-01 0.81535312E+02</pdfrwt>
<pdfrwt beam="2">  1       21 0.37365745E-02 0.81535312E+02</pdfrwt>
<totfact> 0.40164310E+05</totfact>
</mgrwt>
</event>
<event>
 5    1  0.1959123E+000  0.7826104E+02  0.7546771E-02  0.1334060E+00
         21   -1    0    0  503  502  0.00000000000E+00  0.00000000000E+00  0.13594975456E+02  0.13594975456E+02  0.00000000000E+00 0.  1.
         21   -1    0    0  501  503 -0.00000000000E+00 -0.00000000000E+00 -0.10720964099E+04  0.10720964099E+04  0.00000000000E+00 0.  1.
         24    1    1    2    0    0  0.12806031350E+02  0.19911460179E+02 -0.67549826869E+03  0.68068023891E+03  0.80419002446E+02 0.  1.
          1    1    1    2  501    0  0.27543910222E+02 -0.16704937893E+02 -0.35339687596E+03  0.35486204908E+03  0.00000000000E+00 0. -1.
         -2    1    1    2    0  502 -0.40349941573E+02 -0.32065222859E+01 -0.29606289773E+02  0.50149097342E+02  0.00000000000E+00 0.  1.
<mgrwt>
<rscale>  2 0.78261040E+02</rscale>
<asrwt>0</asrwt>
<pdfrwt beam="1">  1       21 0.20915345E-02 0.78261040E+02</pdfrwt>
<pdfrwt beam="2">  1       21 0.16493792E+00 0.78261040E+02</pdfrwt>
<totfact> 0.27836283E+05</totfact>
</mgrwt>
</event>
<event>
 5    1  0.1959123E+000  0.1955206E+03  0.7546771E-02  0.1153574E+00
         21   -1    0    0  501  502  0.00000000000E+00  0.00000000000E+00  0.42148701028E+03  0.42148701028E+03  0.00000000000E+00 0. -1.
         21   -1    0    0  502  503 -0.00000000000E+00 -0.00000000000E+00 -0.11919913785E+03  0.11919913785E+03  0.00000000000E+00 0. -1.
         24    1    1    2    0    0  0.18123104646E+03  0.29767642145E+02  0.25847270750E+03  0.32711796220E+03  0.80419002446E+02 0. -1.
          1    1    1    2  501    0 -0.16920736411E+03 -0.12719150775E+02  0.66951214468E+02  0.18241538856E+03  0.00000000000E+00 0. -1.
         -2    1    1    2    0  503 -0.12023682356E+02 -0.17048491370E+02 -0.23136049535E+02  0.31152797362E+02  0.00000000000E+00 0.  1.
<mgrwt>
<rscale>  2 0.19552055E+03</rscale>
<asrwt>0</asrwt>
<pdfrwt beam="1">  1       21 0.64844155E-01 0.19552055E+03</pdfrwt>
<pdfrwt beam="2">  1       21 0.18338329E-01 0.19552055E+03</pdfrwt>
<totfact> 0.59349580E+04</totfact>
</mgrwt>
</event>
<event>
 5    1  0.1959123E+000  0.6098673E+02  0.7546771E-02  0.1393737E+00
         21   -1    0    0  501  502  0.00000000000E+00  0.00000000000E+00  0.25211633409E+02  0.25211633409E+02  0.00000000000E+00 0. -1.
         21   -1    0    0  502  503 -0.00000000000E+00 -0.00000000000E+00 -0.16197760952E+03  0.16197760952E+03  0.00000000000E+00 0. -1.
         24    1    1    2    0    0 -0.42919368704E+01 -0.13370305577E+02 -0.11327086436E+03  0.13962338794E+03  0.80419002446E+02 0.  0.
          1    1    1    2  501    0 -0.15766481621E+02  0.12738234755E+02 -0.65529160775E+01  0.21302236420E+02  0.00000000000E+00 0. -1.
         -2    1    1    2    0  503  0.20058418491E+02  0.63207082168E+00 -0.16942195668E+02  0.26263618562E+02  0.00000000000E+00 0.  1.
<mgrwt>
<rscale>  2 0.60986732E+02</rscale>
<asrwt>0</asrwt>
<pdfrwt beam="1">  1       21 0.38787128E-02 0.60986732E+02</pdfrwt>
<pdfrwt beam="2">  1       21 0.24919633E-01 0.60986732E+02</pdfrwt>
<totfact> 0.58721256E+06</totfact>
</mgrwt>
</event>
<event>
 5    1  0.1959123E+000  0.7465719E+02  0.7546771E-02  0.1344936E+00
         21   -1    0    0  501  502  0.00000000000E+00  0.00000000000E+00  0.16557700699E+03  0.16557700699E+03  0.00000000000E+00 0. -1.
         21   -1    0    0  502  503 -0.00000000000E+00 -0.00000000000E+00 -0.62218185296E+02  0.62218185296E+02  0.00000000000E+00 0. -1.
         24    1    1    2    0    0  0.35432957668E+02 -0.39330912591E+02  0.11401737943E+03  0.14923000349E+03  0.80419002446E+02 0. -1.
          1    1    1    2  501    0 -0.17446925409E+02  0.16971770571E+02  0.23582065568E+02  0.33890264370E+02  0.00000000000E+00 0. -1.
         -2    1    1    2    0  503 -0.17986032259E+02  0.22359142020E+02 -0.34240623306E+02  0.44674924428E+02  0.00000000000E+00 0.  1.
<mgrwt>
<rscale>  2 0.74657191E+02</rscale>
<asrwt>0</asrwt>
<pdfrwt beam="1">  1       21 0.25473385E-01 0.74657191E+02</pdfrwt>
<pdfrwt beam="2">  1       21 0.95720286E-02 0.74657191E+02</pdfrwt>
<totfact> 0.12631318E+06</totfact>
</mgrwt>
</event>
<event>
 5    1  0.1959123E+000  0.1197720E+03  0.7546771E-02  0.1243474E+00
         21   -1    0    0  501  502  0.00000000000E+00  0.00000000000E+00  0.30646808534E+02  0.30646808534E+02  0.00000000000E+00 0.  1.
         21   -1    0    0  502  503 -0.00000000000E+00 -0.00000000000E+00 -0.71420943966E+03  0.71420943966E+03  0.00000000000E+00 0. -1.
         24    1    1    2    0    0  0.74743393612E+01  0.48035957396E+02 -0.17990621058E+03  0.20296989804E+03  0.80419002446E+02 0.  0.
          1    1    1    2  501    0 -0.42264224951E+02 -0.84928806424E+02 -0.11119538042E+03  0.14616285266E+03  0.00000000000E+00 0. -1.
         -2    1    1    2    0  503  0.34789885590E+02  0.36892849028E+02 -0.39246104012E+03  0.39572349749E+03  0.00000000000E+00 0.  1.
<mgrwt>
<rscale>  2 0.11977201E+03</rscale>
<asrwt>0</asrwt>
<pdfrwt beam="1">  1       21 0.47148939E-02 0.11977201E+03</pdfrwt>
<pdfrwt beam="2">  1       21 0.10987837E+00 0.11977201E+03</pdfrwt>
<totfact> 0.19937741E+05</totfact>
</mgrwt>
</event>
<event>
 5    1  0.1959123E+000  0.1422668E+03  0.7546771E-02  0.1210311E+00
         21   -1    0    0  501  502  0.00000000000E+00  0.00000000000E+00  0.23918728448E+03  0.23918728448E+03  0.00000000000E+00 0. -1.
         21   -1    0    0  502  503 -0.00000000000E+00 -0.00000000000E+00 -0.11907341832E+03  0.11907341832E+03  0.00000000000E+00 0. -1.
         24    1    1    2    0    0  0.44050886693E+01  0.10410068277E+03 -0.13929369018E+02  0.13235407147E+03  0.80419002446E+02 0. -1.
          1    1    1    2  501    0 -0.40558090880E+02 -0.10912114578E+03  0.14669634925E+03  0.18727573808E+03  0.00000000000E+00 0. -1.
         -2    1    1    2    0  503  0.36153002210E+02  0.50204630030E+01 -0.12653114068E+02  0.38630893249E+02  0.00000000000E+00 0.  1.
<mgrwt>
<rscale>  2 0.14226684E+03</rscale>
<asrwt>0</asrwt>
<pdfrwt beam="1">  1       21 0.36798043E-01 0.14226684E+03</pdfrwt>
<pdfrwt beam="2">  1       21 0.18318988E-01 0.14226684E+03</pdfrwt>
<totfact> 0.19632063E+05</totfact>
</mgrwt>
</event>
<event>
 5    1  0.1959123E+000  0.1305404E+03  0.7546771E-02  0.1226656E+00
         21   -1    0    0  503  502  0.00000000000E+00  0.00000000000E+00  0.69463941900E+02  0.69463941900E+02  0.00000000000E+00 0. -1.
         21   -1    0    0  501  503 -0.00000000000E+00 -0.00000000000E+00 -0.27331095750E+03  0.27331095750E+03  0.00000000000E+00 0.  1.
         24    1    1    2    0    0  0.73576887686E+01 -0.10475722143E+01 -0.19675942576E+02  0.83123953600E+02  0.80419002446E+02 0. -1.
          1    1    1    2  501    0  0.85002169671E+02 -0.15736772171E+02 -0.11064387446E+03  0.14041040489E+03  0.00000000000E+00 0. -1.
         -2    1    1    2    0  502 -0.92359858439E+02  0.16784344385E+02 -0.73527198572E+02  0.11924054091E+03  0.00000000000E+00 0.  1.
<mgrwt>
<rscale>  2 0.13054042E+03</rscale>
<asrwt>0</asrwt>
<pdfrwt beam="1">  1       21 0.10686760E-01 0.13054042E+03</pdfrwt>
<pdfrwt beam="2">  1       21 0.42047839E-01 0.13054042E+03</pdfrwt>
<totfact> 0.39687758E+05</totfact>
</mgrwt>
</event>
<event>
 5    1  0.1959123E+000  0.1060997E+03  0.7546771E-02  0.1267968E+00
         21   -1    0    0  501  502  0.00000000000E+00  0.00000000000E+00  0.56974375150E+02  0.56974375150E+02  0.00000000000E+00 0.  1.
         21   -1    0    0  502  503 -0.00000000000E+00 -0.00000000000E+00 -0.87168587081E+03  0.87168587081E+03  0.00000000000E+00 0.  1.
         24    1    1    2    0    0 -0.34969681171E+02 -0.41744850130E+02 -0.66167782843E+01  0.97347361664E+02  0.80419002446E+02 0.  1.
          1    1    1    2  501    0  0.70205389895E+02  0.17647145283E+02 -0.10858930600E+03  0.13050615267E+03  0.00000000000E+00 0. -1.
         -2    1    1    2    0  503 -0.35235708724E+02  0.24097704847E+02 -0.69950541138E+03  0.70080673163E+03  0.00000000000E+00 0.  1.
<mgrwt>
<rscale>  2 0.10609973E+03</rscale>
<asrwt>0</asrwt>
<pdfrwt beam="1">  1       21 0.87652892E-02 0.10609973E+03</pdfrwt>
<pdfrwt beam="2">  1       21 0.13410551E+00 0.10609973E+03</pdfrwt>
<totfact> 0.43196882E+04</totfact>
</mgrwt>
</event>
<event>
 5    1  0.1959123E+000  0.1178869E+03  0.7546771E-02  0.1246624E+00
         21   -1    0    0  503  502  0.00000000000E+00  0.00000000000E+00  0.85207049757E+03  0.85207049757E+03  0.00000000000E+00 0. -1.
         21   -1    0    0  501  503 -0.00000000000E+00 -0.00000000000E+00 -0.11417415657E+03  0.11417415657E+03  0.00000000000E+00 0. -1.
         24    1    1    2    0    0  0.81234304622E+02  0.65012255287E+02  0.51683979276E+03  0.53330684687E+03  0.80419002446E+02 0. -1.
          1    1    1    2  501    0 -0.30220425131E+02 -0.20006171904E+02 -0.99159485187E+02  0.10557520785E+03  0.00000000000E+00 0. -1.
         -2    1    1    2    0  502 -0.51013879491E+02 -0.45006083384E+02  0.32021603342E+03  0.32736259942E+03  0.00000000000E+00 0.  1.
<mgrwt>
<rscale>  2 0.11788692E+03</rscale>
<asrwt>0</asrwt>
<pdfrwt beam="1">  1       21 0.13108776E+00 0.11788692E+03</pdfrwt>
<pdfrwt beam="2">  1       21 0.17565255E-01 0.11788692E+03</pdfrwt>
<totfact> 0.13204728E+04</totfact>
</mgrwt>
</event>
<event>
 5    1  0.1959123E+000  0.7711870E+02  0.7546771E-02  0.1337433E+00
         21   -1    0    0  501  502  0.00000000000E+00  0.00000000000E+00  0.20764931939E+03  0.20764931939E+03  0.00000000000E+00 0. -1.
         21   -1    0    0  502  503 -0.00000000000E+00 -0.00000000000E+00 -0.11196173092E+03  0.11196173092E+03  0.00000000000E+00 0.  1.
         24    1    1    2    0    0  0.77637560911E+01  0.14559945278E+02  0.84295441528E+02  0.11766565060E+03  0.80419002446E+02 0.  0.
          1    1    1    2  501    0 -0.27407127196E+02  0.18935740294E+02  0.99892706532E+02  0.10530083428E+03  0.00000000000E+00 0. -1.
         -2    1    1    2    0  503  0.19643371105E+02 -0.33495685571E+02 -0.88500559585E+02  0.96644565430E+02  0.00000000000E+00 0.  1.
<mgrwt>
<rscale>  2 0.77118705E+02</rscale>
<asrwt>0</asrwt>
<pdfrwt beam="1">  1       21 0.31946049E-01 0.77118705E+02</pdfrwt>
<pdfrwt beam="2">  1       21 0.17224882E-01 0.77118705E+02</pdfrwt>
<totfact> 0.29363895E+05</totfact>
</mgrwt>
</event>
<event>
 5    1  0.1959123E+000  0.9102302E+02  0.7546771E-02  0.1300393E+00
         21   -1    0    0  503  502  0.00000000000E+00  0.00000000000E+00  0.73254366789E+03  0.73254366789E+03  0.00000000000E+00 0.  1.
         21   -1    0    0  501  503 -0.00000000000E+00 -0.00000000000E+00 -0.15504234036E+02  0.15504234036E+02  0.00000000000E+00 0. -1.
         24    1    1    2    0    0  0.32751513328E+02 -0.24145387479E+02  0.21394625875E+03  0.23215485985E+03  0.80419002446E+02 0. -1.
          1    1    1    2  501    0 -0.40201626223E+02  0.50490717743E+02  0.17267389399E+03  0.18434141421E+03  0.00000000000E+00 0. -1.
         -2    1    1    2    0  502  0.74501128951E+01 -0.26345330264E+02  0.33041928111E+03  0.33155162786E+03  0.00000000000E+00 0.  1.
<mgrwt>
<rscale>  2 0.91023016E+02</rscale>
<asrwt>0</asrwt>
<pdfrwt beam="1">  1       21 0.11269900E+00 0.91023016E+02</pdfrwt>
<pdfrwt beam="2">  1       21 0.23852673E-02 0.91023016E+02</pdfrwt>
<totfact> 0.57808665E+05</totfact>
</mgrwt>
</event>
<event>
 5    1  0.1959123E+000  0.1005235E+03  0.7546771E-02  0.1279199E+00
         21   -1    0    0  501  502  0.00000000000E+00  0.00000000000E+00  0.11526975591E+02  0.11526975591E+02  0.00000000000E+00 0.  1.
         21   -1    0    0  502  503 -0.00000000000E+00 -0.00000000000E+00 -0.10979675860E+04  0.10979675860E+04  0.00000000000E+00 0. -1.
         24    1    1    2    0    0 -0.17524834808E+02 -0.56983790678E+02 -0.32358062490E+03  0.33871213294E+03  0.80419002446E+02 0.  0.
          1    1    1    2  501    0  0.17267514018E+02  0.78016850632E+02 -0.43706704541E+03  0.44431115022E+03  0.00000000000E+00 0. -1.
         -2    1    1    2    0  503  0.25732079010E+00 -0.21033059954E+02 -0.32579294013E+03  0.32647127847E+03  0.00000000000E+00 0.  1.
<mgrwt>
<rscale>  2 0.10052347E+03</rscale>
<asrwt>0</asrwt>
<pdfrwt beam="1">  1       21 0.17733809E-02 0.10052347E+03</pdfrwt>
<pdfrwt beam="2">  1       21 0.16891808E+00 0.10052347E+03</pdfrwt>
<totfact> 0.33659586E+05</totfact>
</mgrwt>
</event>
<event>
 5    1  0.1959123E+000  0.8885586E+02  0.7546771E-02  0.1305646E+00
         21   -1    0    0  501  502  0.00000000000E+00  0.00000000000E+00  0.68920121773E+02  0.68920121773E+02  0.00000000000E+00 0. -1.
         21   -1    0    0  502  503 -0.00000000000E+00 -0.00000000000E+00 -0.23655252026E+03  0.23655252026E+03  0.00000000000E+00 0.  1.
         24    1    1    2    0    0 -0.23523231668E+02  0.21313293078E+02  0.22941701963E+02  0.89449072288E+02  0.80419002446E+02 0. -1.
          1    1    1    2  501    0  0.55653420006E+02 -0.19863015683E+02 -0.71892779776E+02  0.93061347155E+02  0.00000000000E+00 0. -1.
         -2    1    1    2    0  503 -0.32130188338E+02 -0.14502773947E+01 -0.11868132068E+03  0.12296222259E+03  0.00000000000E+00 0.  1.
<mgrwt>
<rscale>  2 0.88855864E+02</rscale>
<asrwt>0</asrwt>
<pdfrwt beam="1">  1       21 0.10603096E-01 0.88855864E+02</pdfrwt>
<pdfrwt beam="2">  1       21 0.36392696E-01 0.88855864E+02</pdfrwt>
<totfact> 0.53749256E+05</totfact>
</mgrwt>
</event>
<event>
 5    1  0.1959123E+000  0.7250545E+02  0.7546771E-02  0.1351775E+00
         21   -1    0    0  503  502  0.00000000000E+00  0.00000000000E+00  0.43039176584E+02  0.43039176584E+02  0.00000000000E+00 0.  1.
         21   -1    0    0  501  503 -0.00000000000E+00 -0.00000000000E+00 -0.20679146057E+03  0.20679146057E+03  0.00000000000E+00 0.  1.
         24    1    1    2    0    0 -0.27976239743E+02  0.65053311034E+01 -0.73059343806E+02  0.11238270772E+03  0.80419002446E+02 0. -1.
          1    1    1    2  501    0  0.29306742309E+02 -0.26539790216E+02 -0.10539178139E+03  0.11256408484E+03  0.00000000000E+00 0. -1.
         -2    1    1    2    0  502 -0.13305025662E+01  0.20034459112E+02  0.14698841213E+02  0.24883844598E+02  0.00000000000E+00 0.  1.
<mgrwt>
<rscale>  2 0.72505451E+02</rscale>
<asrwt>0</asrwt>
<pdfrwt beam="1">  1       21 0.66214118E-02 0.72505451E+02</pdfrwt>
<pdfrwt beam="2">  1       21 0.31814071E-01 0.72505451E+02</pdfrwt>
<totfact> 0.15509949E+06</totfact>
</mgrwt>
</event>
<event>
 5    1  0.1959123E+000  0.1232077E+03  0.7546771E-02  0.1237897E+00
         21   -1    0    0  501  502  0.00000000000E+00  0.00000000000E+00  0.50159565427E+02  0.50159565427E+02  0.00000000000E+00 0. -1.
         21   -1    0    0  502  503 -0.00000000000E+00 -0.00000000000E+00 -0.12028917570E+04  0.12028917570E+04  0.00000000000E+00 0.  1.
         24    1    1    2    0    0 -0.94267280256E+02  0.27705903956E+02 -0.69197424565E+03  0.70352648126E+03  0.80419002446E+02 0.  1.
          1    1    1    2  501    0  0.82118725731E+01 -0.32242090290E+02  0.33851281813E+02  0.47464687061E+02  0.00000000000E+00 0. -1.
         -2    1    1    2    0  503  0.86055407682E+02  0.45361863342E+01 -0.49460922778E+03  0.50206015415E+03  0.00000000000E+00 0.  1.
<mgrwt>
<rscale>  2 0.12320770E+03</rscale>
<asrwt>0</asrwt>
<pdfrwt beam="1">  1       21 0.77168570E-02 0.12320770E+03</pdfrwt>
<pdfrwt beam="2">  1       21 0.18506025E+00 0.12320770E+03</pdfrwt>
<totfact> 0.22738436E+04</totfact>
</mgrwt>
</event>
<event>
 5    1  0.1959123E+000  0.1164240E+03  0.7546771E-02  0.1249116E+00
         21   -1    0    0  503  502  0.00000000000E+00  0.00000000000E+00  0.45500876122E+03  0.45500876122E+03  0.00000000000E+00 0.  1.
         21   -1    0    0  501  503 -0.00000000000E+00 -0.00000000000E+00 -0.31667214349E+02  0.31667214349E+02  0.00000000000E+00 0.  1.
         24    1    1    2    0    0 -0.10286923367E+02 -0.93204684137E+02  0.16883910959E+03  0.20920515008E+03  0.80419002446E+02 0.  1.
          1    1    1    2  501    0 -0.23417187667E+02  0.38394178473E+02  0.12544694636E+03  0.13326445126E+03  0.00000000000E+00 0. -1.
         -2    1    1    2    0  502  0.33704111035E+02  0.54810505664E+02  0.12905549092E+03  0.14420637423E+03  0.00000000000E+00 0.  1.
<mgrwt>
<rscale>  2 0.11642400E+03</rscale>
<asrwt>0</asrwt>
<pdfrwt beam="1">  1       21 0.70001343E-01 0.11642400E+03</pdfrwt>
<pdfrwt beam="2">  1       21 0.48718795E-02 0.11642400E+03</pdfrwt>
<totfact> 0.52629123E+05</totfact>
</mgrwt>
</event>
<event>
 5    1  0.1959123E+000  0.1369410E+03  0.7546771E-02  0.1217505E+00
         21   -1    0    0  501  502  0.00000000000E+00  0.00000000000E+00  0.76148383448E+02  0.76148383448E+02  0.00000000000E+00 0.  1.
         21   -1    0    0  502  503 -0.00000000000E+00 -0.00000000000E+00 -0.24845547019E+03  0.24845547019E+03  0.00000000000E+00 0. -1.
         24    1    1    2    0    0 -0.60308099479E+02  0.10350551831E+03 -0.83743127366E+02  0.16682501767E+03  0.80419002446E+02 0. -1.
          1    1    1    2  501    0 -0.60639810317E+01 -0.29810265256E+02 -0.12941409989E+02  0.33059096677E+02  0.00000000000E+00 0. -1.
         -2    1    1    2    0  503  0.66372080511E+02 -0.73695253055E+02 -0.75622549390E+02  0.12471973930E+03  0.00000000000E+00 0.  1.
<mgrwt>
<rscale>  2 0.13694097E+03</rscale>
<asrwt>0</asrwt>
<pdfrwt beam="1">  1       21 0.11715136E-01 0.13694097E+03</pdfrwt>
<pdfrwt beam="2">  1       21 0.38223918E-01 0.13694097E+03</pdfrwt>
<totfact> 0.40811222E+05</totfact>
</mgrwt>
</event>
<event>
 5    1  0.1959123E+000  0.6148878E+02  0.7546771E-02  0.1391688E+00
         21   -1    0    0  503  502  0.00000000000E+00  0.00000000000E+00  0.16659698820E+02  0.16659698820E+02  0.00000000000E+00 0.  1.
         21   -1    0    0  501  503 -0.00000000000E+00 -0.00000000000E+00 -0.27401825046E+03  0.27401825046E+03  0.00000000000E+00 0.  1.
         24    1    1    2    0    0 -0.25610557037E+01 -0.12803235041E+01 -0.20267655063E+03  0.21806695844E+03  0.80419002446E+02 0.  1.
          1    1    1    2  501    0 -0.47142186233E+01 -0.19723713271E+02 -0.42903552373E+02  0.47454857798E+02  0.00000000000E+00 0. -1.
         -2    1    1    2    0  502  0.72752743270E+01  0.21004036775E+02 -0.11778448643E+02  0.25156133046E+02  0.00000000000E+00 0.  1.
<mgrwt>
<rscale>  2 0.61488784E+02</rscale>
<asrwt>0</asrwt>
<pdfrwt beam="1">  1       21 0.25630306E-02 0.61488784E+02</pdfrwt>
<pdfrwt beam="2">  1       21 0.42156654E-01 0.61488784E+02</pdfrwt>
<totfact> 0.42080892E+06</totfact>
</mgrwt>
</event>
<event>
 5    1  0.1959123E+000  0.8793439E+02  0.7546771E-02  0.1307932E+00
         21   -1    0    0  501  502  0.00000000000E+00  0.00000000000E+00  0.11394225078E+04  0.11394225078E+04  0.00000000000E+00 0.  1.
         21   -1    0    0  502  503 -0.00000000000E+00 -0.00000000000E+00 -0.10834853947E+02  0.10834853947E+02  0.00000000000E+00 0.  1.
         24    1    1    2    0    0 -0.33369488009E+02 -0.28039066075E+02  0.59111635115E+03  0.59815171028E+03  0.80419002446E+02 0.  0.
          1    1    1    2  501    0 -0.19132454162E+02 -0.79781376325E+01  0.40075831463E+03  0.40129406702E+03  0.00000000000E+00 0. -1.
         -2    1    1    2    0  503  0.52501942171E+02  0.36017203708E+02  0.13671298803E+03  0.15081158441E+03  0.00000000000E+00 0.  1.
<mgrwt>
<rscale>  2 0.87934386E+02</rscale>
<asrwt>0</asrwt>
<pdfrwt beam="1">  1       21 0.17529568E+00 0.87934386E+02</pdfrwt>
<pdfrwt beam="2">  1       21 0.16669015E-02 0.87934386E+02</pdfrwt>
<totfact> 0.33839535E+05</totfact>
</mgrwt>
</event>
<event>
 5    1  0.1959123E+000  0.1441745E+03  0.7546771E-02  0.1207820E+00
         21   -1    0    0  503  502  0.00000000000E+00  0.00000000000E+00  0.18642276953E+02  0.18642276953E+02  0.00000000000E+00 0. -1.
         21   -1    0    0  501  503 -0.00000000000E+00 -0.00000000000E+00 -0.17063272149E+04  0.17063272149E+04  0.00000000000E+00 0.  1.
         24    1    1    2    0    0 -0.99684624647E+02  0.73217129596E+02 -0.12633825814E+04  0.12719671911E+04  0.80419002446E+02 0.  1.
          1    1    1    2  501    0  0.10506073006E+03 -0.48842959630E+02 -0.40557162113E+03  0.42179584110E+03  0.00000000000E+00 0. -1.
         -2    1    1    2    0  502 -0.53761054152E+01 -0.24374169966E+02 -0.18730735433E+02  0.31206459601E+02  0.00000000000E+00 0.  1.
<mgrwt>
<rscale>  2 0.14417450E+03</rscale>
<asrwt>0</asrwt>
<pdfrwt beam="1">  1       21 0.28680421E-02 0.14417450E+03</pdfrwt>
<pdfrwt beam="2">  1       21 0.26251192E+00 0.14417450E+03</pdfrwt>
<totfact> 0.40013937E+04</totfact>
</mgrwt>
</event>
<event>
 5    1  0.1959123E+000  0.6891845E+02  0.7546771E-02  0.1363810E+00
         21   -1    0    0  503  502  0.00000000000E+00  0.00000000000E+00  0.15065283004E+03  0.15065283004E+03  0.00000000000E+00 0.  1.
         21   -1    0    0  501  503 -0.00000000000E+00 -0.00000000000E+00 -0.55637600876E+02  0.55637600876E+02  0.00000000000E+00 0. -1.
         24    1    1    2    0    0 -0.33198882073E+02  0.29507130556E+02  0.11621041611E+02  0.92601841704E+02  0.80419002446E+02 0.  0.
          1    1    1    2  501    0  0.18443425620E+02 -0.85305306001E+01 -0.55955110794E+01  0.21076993266E+02  0.00000000000E+00 0. -1.
         -2    1    1    2    0  502  0.14755456453E+02 -0.20976599955E+02  0.88989698635E+02  0.92611595948E+02  0.00000000000E+00 0.  1.
<mgrwt>
<rscale>  2 0.68918451E+02</rscale>
<asrwt>0</asrwt>
<pdfrwt beam="1">  1       21 0.23177358E-01 0.68918451E+02</pdfrwt>
<pdfrwt beam="2">  1       21 0.85596310E-02 0.68918451E+02</pdfrwt>
<totfact> 0.18157050E+06</totfact>
</mgrwt>
</event>
<event>
 5    1  0.1959123E+000  0.8140784E+02  0.7546771E-02  0.1325103E+00
         21   -1    0    0  501  502  0.00000000000E+00  0.00000000000E+00  0.88722260691E+02  0.88722260691E+02  0.00000000000E+00 0. -1.
         21   -1    0    0  502  503 -0.00000000000E+00 -0.00000000000E+00 -0.25610880688E+03  0.25610880688E+03  0.00000000000E+00 0. -1.
         24    1    1    2    0    0 -0.27750644228E+02  0.37059199402E+02 -0.91791187267E+02  0.13052325666E+03  0.80419002446E+02 0. -1.
          1    1    1    2  501    0  0.43150907609E+02 -0.21811611047E+02  0.59963058269E+02  0.77028018026E+02  0.00000000000E+00 0. -1.
         -2    1    1    2    0  503 -0.15400263381E+02 -0.15247588354E+02 -0.13555841719E+03  0.13727979289E+03  0.00000000000E+00 0.  1.
<mgrwt>
<rscale>  2 0.81407839E+02</rscale>
<asrwt>0</asrwt>
<pdfrwt beam="1">  1       21 0.13649579E-01 0.81407839E+02</pdfrwt>
<pdfrwt beam="2">  1       21 0.39401354E-01 0.81407839E+02</pdfrwt>
<totfact> 0.29562668E+05</totfact>
</mgrwt>
</event>
<event>
 5    1  0.1959123E+000  0.1630609E+03  0.7546771E-02  0.1185284E+00
         21   -1    0    0  503  502  0.00000000000E+00  0.00000000000E+00  0.75934293116E+02  0.75934293116E+02  0.00000000000E+00 0.  1.
         21   -1    0    0  501  503 -0.00000000000E+00 -0.00000000000E+00 -0.53791978708E+03  0.53791978708E+03  0.00000000000E+00 0. -1.
         24    1    1    2    0    0 -0.97248445760E+02  0.24608864066E+02 -0.93778342812E+02  0.15913657634E+03  0.80419002446E+02 0.  0.
          1    1    1    2  501    0  0.14322736014E+03  0.42087214759E+01 -0.37364926762E+03  0.40018191516E+03  0.00000000000E+00 0. -1.
         -2    1    1    2    0  502 -0.45978914375E+02 -0.28817585542E+02  0.54421164635E+01  0.54535588703E+02  0.00000000000E+00 0.  1.
<mgrwt>
<rscale>  2 0.16306094E+03</rscale>
<asrwt>0</asrwt>
<pdfrwt beam="1">  1       21 0.11682199E-01 0.16306094E+03</pdfrwt>
<pdfrwt beam="2">  1       21 0.82756891E-01 0.16306094E+03</pdfrwt>
<totfact> 0.79447105E+04</totfact>
</mgrwt>
</event>
<event>
 5    1  0.1959123E+000  0.9750595E+02  0.7546771E-02  0.1285630E+00
         21   -1    0    0  501  502  0.00000000000E+00  0.00000000000E+00  0.25022911205E+03  0.25022911205E+03  0.00000000000E+00 0. -1.
         21   -1    0    0  502  503 -0.00000000000E+00 -0.00000000000E+00 -0.50960135520E+02  0.50960135520E+02  0.00000000000E+00 0.  1.
         24    1    1    2    0    0 -0.37636789744E+02 -0.27885149799E+02  0.11990191225E+03  0.15178206099E+03  0.80419002446E+02 0.  1.
          1    1    1    2  501    0 -0.18411953129E+02 -0.20747572748E+02  0.69142880052E+02  0.74499662112E+02  0.00000000000E+00 0. -1.
         -2    1    1    2    0  503  0.56048742873E+02  0.48632722547E+02  0.10224184232E+02  0.74907524476E+02  0.00000000000E+00 0.  1.
<mgrwt>
<rscale>  2 0.97505954E+02</rscale>
<asrwt>0</asrwt>
<pdfrwt beam="1">  1       21 0.38496786E-01 0.97505954E+02</pdfrwt>
<pdfrwt beam="2">  1       21 0.78400210E-02 0.97505954E+02</pdfrwt>
<totfact> 0.81035916E+05</totfact>
</mgrwt>
</event>
<event>
 5    1  0.1959123E+000  0.8658713E+02  0.7546771E-02  0.1311333E+00
         21   -1    0    0  503  502  0.00000000000E+00  0.00000000000E+00  0.22252312695E+03  0.22252312695E+03  0.00000000000E+00 0. -1.
         21   -1    0    0  501  503 -0.00000000000E+00 -0.00000000000E+00 -0.89438313412E+02  0.89438313412E+02  0.00000000000E+00 0. -1.
         24    1    1    2    0    0 -0.32639722002E+02  0.54644695078E+02  0.10649516744E+03  0.14785070441E+03  0.80419002446E+02 0. -1.
          1    1    1    2  501    0  0.21223358565E+02 -0.81437989107E+01 -0.60553258545E+02  0.64679591293E+02  0.00000000000E+00 0. -1.
         -2    1    1    2    0  502  0.11416363437E+02 -0.46500896167E+02  0.87142904650E+02  0.99431144665E+02  0.00000000000E+00 0.  1.
<mgrwt>
<rscale>  2 0.86587132E+02</rscale>
<asrwt>0</asrwt>
<pdfrwt beam="1">  1       21 0.34234327E-01 0.86587132E+02</pdfrwt>
<pdfrwt beam="2">  1       21 0.13759741E-01 0.86587132E+02</pdfrwt>
<totfact> 0.38324697E+05</totfact>
</mgrwt>
</event>
<event>
 5    1  0.1959123E+000  0.9535432E+02  0.7546771E-02  0.1290380E+00
         21   -1    0    0  503  502  0.00000000000E+00  0.00000000000E+00  0.40445924806E+03  0.40445924806E+03  0.00000000000E+00 0.  1.
         21   -1    0    0  501  503 -0.00000000000E+00 -0.00000000000E+00 -0.40511624517E+02  0.40511624517E+02  0.00000000000E+00 0. -1.
         24    1    1    2    0    0  0.64742812789E+02  0.90692037494E+01  0.72867852952E+02  0.12669183957E+03  0.80419002446E+02 0. -1.
          1    1    1    2  501    0 -0.59409693381E+02 -0.29232877529E+02  0.70508871670E+02  0.96724215067E+02  0.00000000000E+00 0. -1.
         -2    1    1    2    0  502 -0.53331194079E+01  0.20163673779E+02  0.22057089892E+03  0.22155481794E+03  0.00000000000E+00 0.  1.
<mgrwt>
<rscale>  2 0.95354318E+02</rscale>
<asrwt>0</asrwt>
<pdfrwt beam="1">  1       21 0.62224497E-01 0.95354318E+02</pdfrwt>
<pdfrwt beam="2">  1       21 0.62325579E-02 0.95354318E+02</pdfrwt>
<totfact> 0.44887953E+05</totfact>
</mgrwt>
</event>
<event>
 5    1  0.1959123E+000  0.9055275E+02  0.7546771E-02  0.1301519E+00
         21   -1    0    0  501  502  0.00000000000E+00  0.00000000000E+00  0.89289826140E+03  0.89289826140E+03  0.00000000000E+00 0. -1.
         21   -1    0    0  502  503 -0.00000000000E+00 -0.00000000000E+00 -0.17829698268E+02  0.17829698268E+02  0.00000000000E+00 0.  1.
         24    1    1    2    0    0 -0.23842683383E+02  0.19561964371E+02  0.47802053014E+03  0.48571801201E+03  0.80419002446E+02 0. -1.
          1    1    1    2  501    0  0.29816052261E+02 -0.53106153054E+02  0.38356035784E+03  0.38836556048E+03  0.00000000000E+00 0. -1.
         -2    1    1    2    0  503 -0.59733688783E+01  0.33544188682E+02  0.13487675148E+02  0.36644387169E+02  0.00000000000E+00 0.  1.
<mgrwt>
<rscale>  2 0.90552745E+02</rscale>
<asrwt>0</asrwt>
<pdfrwt beam="1">  1       21 0.13736893E+00 0.90552745E+02</pdfrwt>
<pdfrwt beam="2">  1       21 0.27430312E-02 0.90552745E+02</pdfrwt>
<totfact> 0.28531201E+05</totfact>
</mgrwt>
</event>
<event>
 5    1  0.1959123E+000  0.8391904E+02  0.7546771E-02  0.1318284E+00
         21   -1    0    0  503  502  0.00000000000E+00  0.00000000000E+00  0.18884073891E+03  0.18884073891E+03  0.00000000000E+00 0. -1.
         21   -1    0    0  501  503 -0.00000000000E+00 -0.00000000000E+00 -0.38956090284E+02  0.38956090284E+02  0.00000000000E+00 0.  1.
         24    1    1    2    0    0 -0.11886822105E+02 -0.22226667038E+02  0.92915052801E+02  0.12544219489E+03  0.80419002446E+02 0. -1.
          1    1    1    2  501    0 -0.18908125881E+02 -0.22417355297E+02  0.11216214035E+02  0.31398383719E+02  0.00000000000E+00 0. -1.
         -2    1    1    2    0  502  0.30794947986E+02  0.44644022336E+02  0.45753381786E+02  0.70956250581E+02  0.00000000000E+00 0.  1.
<mgrwt>
<rscale>  2 0.83919042E+02</rscale>
<asrwt>0</asrwt>
<pdfrwt beam="1">  1       21 0.29052421E-01 0.83919042E+02</pdfrwt>
<pdfrwt beam="2">  1       21 0.59932447E-02 0.83919042E+02</pdfrwt>
<totfact> 0.21924975E+06</totfact>
</mgrwt>
</event>
<event>
 5    1  0.1959123E+000  0.6388095E+02  0.7546771E-02  0.1382231E+00
         21   -1    0    0  501  502  0.00000000000E+00  0.00000000000E+00  0.15266174029E+03  0.15266174029E+03  0.00000000000E+00 0. -1.
         21   -1    0    0  502  503 -0.00000000000E+00 -0.00000000000E+00 -0.27393709070E+02  0.27393709070E+02  0.00000000000E+00 0.  1.
         24    1    1    2    0    0  0.11930010451E+02 -0.70954241941E+01  0.93061903268E+02  0.12377561952E+03  0.80419002446E+02 0. -1.
          1    1    1    2  501    0 -0.93893393348E+01 -0.18333640255E+02  0.14303665293E+02  0.25077418108E+02  0.00000000000E+00 0. -1.
         -2    1    1    2    0  503 -0.25406711163E+01  0.25429064449E+02  0.17902462660E+02  0.31202411730E+02  0.00000000000E+00 0.  1.
<mgrwt>
<rscale>  2 0.63880952E+02</rscale>
<asrwt>0</asrwt>
<pdfrwt beam="1">  1       21 0.23486421E-01 0.63880952E+02</pdfrwt>
<pdfrwt beam="2">  1       21 0.42144169E-02 0.63880952E+02</pdfrwt>
<totfact> 0.57437651E+06</totfact>
</mgrwt>
</event>
<event>
 5    1  0.1959123E+000  0.7011477E+02  0.7546771E-02  0.1359703E+00
         21   -1    0    0  503  502  0.00000000000E+00  0.00000000000E+00  0.21516443384E+04  0.21516443384E+04  0.00000000000E+00 0. -1.
         21   -1    0    0  501  503 -0.00000000000E+00 -0.00000000000E+00 -0.38335899397E+01  0.38335899397E+01  0.00000000000E+00 0.  1.
         24    1    1    2    0    0 -0.83845815494E+00  0.43024740267E+02  0.10883123060E+04  0.10921276128E+04  0.80419002446E+02 0. -1.
          1    1    1    2  501    0  0.12161416088E+02 -0.22928943111E+02  0.92377929388E+02  0.95954772219E+02  0.00000000000E+00 0. -1.
         -2    1    1    2    0  502 -0.11322957933E+02 -0.20095797156E+02  0.96712051312E+03  0.96739554337E+03  0.00000000000E+00 0.  1.
<mgrwt>
<rscale>  2 0.70114769E+02</rscale>
<asrwt>0</asrwt>
<pdfrwt beam="1">  1       21 0.33102124E+00 0.70114769E+02</pdfrwt>
<pdfrwt beam="2">  1       21 0.58978479E-03 0.70114769E+02</pdfrwt>
<totfact> 0.22568995E+05</totfact>
</mgrwt>
</event>
<event>
 5    1  0.1959123E+000  0.7910535E+02  0.7546771E-02  0.1331610E+00
         21   -1    0    0  503  502  0.00000000000E+00  0.00000000000E+00  0.11054887466E+04  0.11054887466E+04  0.00000000000E+00 0. -1.
         21   -1    0    0  501  503 -0.00000000000E+00 -0.00000000000E+00 -0.17218497499E+02  0.17218497499E+02  0.00000000000E+00 0. -1.
         24    1    1    2    0    0 -0.11848358752E+02  0.19969886962E+02  0.93451069877E+03  0.93825190757E+03  0.80419002446E+02 0. -1.
          1    1    1    2  501    0 -0.29505265114E+02 -0.14226344572E+02  0.92520320644E+01  0.34037474152E+02  0.00000000000E+00 0. -1.
         -2    1    1    2    0  502  0.41353623867E+02 -0.57435423896E+01  0.14450751824E+03  0.15041786235E+03  0.00000000000E+00 0.  1.
<mgrwt>
<rscale>  2 0.79105350E+02</rscale>
<asrwt>0</asrwt>
<pdfrwt beam="1">  1       21 0.17007514E+00 0.79105350E+02</pdfrwt>
<pdfrwt beam="2">  1       21 0.26490005E-02 0.79105350E+02</pdfrwt>
<totfact> 0.17572464E+05</totfact>
</mgrwt>
</event>
<event>
 5    1  0.1959123E+000  0.6578171E+02  0.7546771E-02  0.1375055E+00
         21   -1    0    0  501  502  0.00000000000E+00  0.00000000000E+00  0.16582246012E+03  0.16582246012E+03  0.00000000000E+00 0. -1.
         21   -1    0    0  502  503 -0.00000000000E+00 -0.00000000000E+00 -0.41547875535E+02  0.41547875535E+02  0.00000000000E+00 0. -1.
         24    1    1    2    0    0  0.12061870198E+01  0.56329334318E+01  0.62529089116E+02  0.10203081773E+03  0.80419002446E+02 0.  0.
          1    1    1    2  501    0  0.24613683306E+02 -0.49672934925E+01  0.72975980622E+02  0.77175133030E+02  0.00000000000E+00 0. -1.
         -2    1    1    2    0  503 -0.25819870325E+02 -0.66563993933E+00 -0.11230485148E+02  0.28164384900E+02  0.00000000000E+00 0.  1.
<mgrwt>
<rscale>  2 0.65781709E+02</rscale>
<asrwt>0</asrwt>
<pdfrwt beam="1">  1       21 0.25511147E-01 0.65781709E+02</pdfrwt>
<pdfrwt beam="2">  1       21 0.63919809E-02 0.65781709E+02</pdfrwt>
<totfact> 0.24819021E+06</totfact>
</mgrwt>
</event>
<event>
 5    1  0.1959123E+000  0.6985379E+02  0.7546771E-02  0.1360591E+00
         21   -1    0    0  501  502  0.00000000000E+00  0.00000000000E+00  0.26126651203E+02  0.26126651203E+02  0.00000000000E+00 0. -1.
         21   -1    0    0  502  503 -0.00000000000E+00 -0.00000000000E+00 -0.49446535519E+03  0.49446535519E+03  0.00000000000E+00 0.  1.
         24    1    1    2    0    0 -0.33312826846E+02 -0.62114717952E+01 -0.43674006147E+03  0.44537335356E+03  0.80419002446E+02 0.  1.
          1    1    1    2  501    0  0.25643196868E+02 -0.15122225762E+02  0.68832234415E+01  0.30555425419E+02  0.00000000000E+00 0. -1.
         -2    1    1    2    0  503  0.76696299780E+01  0.21333697557E+02 -0.38481865962E+02  0.44663227418E+02  0.00000000000E+00 0.  1.
<mgrwt>
<rscale>  2 0.69853790E+02</rscale>
<asrwt>0</asrwt>
<pdfrwt beam="1">  1       21 0.40194846E-02 0.69853790E+02</pdfrwt>
<pdfrwt beam="2">  1       21 0.76071597E-01 0.69853790E+02</pdfrwt>
<totfact> 0.60444102E+05</totfact>
</mgrwt>
</event>
<event>
 5    1  0.1959123E+000  0.1007900E+03  0.7546771E-02  0.1278643E+00
         21   -1    0    0  501  502  0.00000000000E+00  0.00000000000E+00  0.82345990600E+02  0.82345990600E+02  0.00000000000E+00 0.  1.
         21   -1    0    0  502  503 -0.00000000000E+00 -0.00000000000E+00 -0.13393984065E+03  0.13393984065E+03  0.00000000000E+00 0. -1.
         24    1    1    2    0    0 -0.52560661792E+02  0.38115867746E+02 -0.40601622000E+02  0.11104571223E+03  0.80419002446E+02 0.  0.
          1    1    1    2  501    0  0.48341460054E+02  0.10463493478E+02  0.12643768294E+02  0.51051408723E+02  0.00000000000E+00 0. -1.
         -2    1    1    2    0  503  0.42192017379E+01 -0.48579361224E+02 -0.23635996346E+02  0.54188710295E+02  0.00000000000E+00 0.  1.
<mgrwt>
<rscale>  2 0.10079005E+03</rscale>
<asrwt>0</asrwt>
<pdfrwt beam="1">  1       21 0.12668614E-01 0.10079005E+03</pdfrwt>
<pdfrwt beam="2">  1       21 0.20606129E-01 0.10079005E+03</pdfrwt>
<totfact> 0.11570144E+06</totfact>
</mgrwt>
</event>
<event>
 5    1  0.1959123E+000  0.7785698E+02  0.7546771E-02  0.1335245E+00
         21   -1    0    0  501  502  0.00000000000E+00  0.00000000000E+00  0.95905528488E+03  0.95905528488E+03  0.00000000000E+00 0. -1.
         21   -1    0    0  502  503 -0.00000000000E+00 -0.00000000000E+00 -0.88130169160E+01  0.88130169160E+01  0.00000000000E+00 0. -1.
         24    1    1    2    0    0  0.21402818313E+02  0.30697856889E+02  0.27104874611E+03  0.28519305351E+03  0.80419002446E+02 0. -1.
          1    1    1    2  501    0  0.97305920330E+01 -0.34318122520E+02  0.43870864424E+03  0.44015644092E+03  0.00000000000E+00 0. -1.
         -2    1    1    2    0  503 -0.31133410346E+02  0.36202656311E+01  0.24048487762E+03  0.24251880736E+03  0.00000000000E+00 0.  1.
<mgrwt>
<rscale>  2 0.77856980E+02</rscale>
<asrwt>0</asrwt>
<pdfrwt beam="1">  1       21 0.14754688E+00 0.77856980E+02</pdfrwt>
<pdfrwt beam="2">  1       21 0.13558495E-02 0.77856980E+02</pdfrwt>
<totfact> 0.73622014E+05</totfact>
</mgrwt>
</event>
<event>
 5    1  0.1959123E+000  0.8713729E+02  0.7546771E-02  0.1309936E+00
         21   -1    0    0  503  502  0.00000000000E+00  0.00000000000E+00  0.33252332580E+02  0.33252332580E+02  0.00000000000E+00 0. -1.
         21   -1    0    0  501  503 -0.00000000000E+00 -0.00000000000E+00 -0.38599343540E+03  0.38599343540E+03  0.00000000000E+00 0.  1.
         24    1    1    2    0    0 -0.37662588474E+02  0.11350875046E+02 -0.15009196907E+03  0.17476306266E+03  0.80419002446E+02 0.  1.
          1    1    1    2  501    0 -0.15071438925E+02  0.18729676831E+02 -0.17691946743E+03  0.17854536404E+03  0.00000000000E+00 0. -1.
         -2    1    1    2    0  502  0.52734027399E+02 -0.30080551877E+02 -0.25729666327E+02  0.65937341288E+02  0.00000000000E+00 0.  1.
<mgrwt>
<rscale>  2 0.87137290E+02</rscale>
<asrwt>0</asrwt>
<pdfrwt beam="1">  1       21 0.51157432E-02 0.87137290E+02</pdfrwt>
<pdfrwt beam="2">  1       21 0.59383608E-01 0.87137290E+02</pdfrwt>
<totfact> 0.68957800E+05</totfact>
</mgrwt>
</event>
<event>
 5    1  0.1959123E+000  0.1034544E+03  0.7546771E-02  0.1273195E+00
         21   -1    0    0  501  502  0.00000000000E+00  0.00000000000E+00  0.60933562116E+01  0.60933562116E+01  0.00000000000E+00 0.  1.
         21   -1    0    0  502  503 -0.00000000000E+00 -0.00000000000E+00 -0.18371395367E+04  0.18371395367E+04  0.00000000000E+00 0.  1.
         24    1    1    2    0    0 -0.24977570273E+02 -0.32549244294E+02 -0.70795576572E+03  0.71368894799E+03  0.80419002446E+02 0.  1.
          1    1    1    2  501    0  0.29032809891E+02 -0.36960905597E+02 -0.31890009267E+03  0.32234497312E+03  0.00000000000E+00 0. -1.
         -2    1    1    2    0  503 -0.40552396175E+01  0.69510149891E+02 -0.80419032207E+03  0.80719897176E+03  0.00000000000E+00 0.  1.
<mgrwt>
<rscale>  2 0.10345443E+03</rscale>
<asrwt>0</asrwt>
<pdfrwt beam="1">  1       21 0.93743832E-03 0.10345443E+03</pdfrwt>
<pdfrwt beam="2">  1       21 0.28263718E+00 0.10345443E+03</pdfrwt>
<totfact> 0.19283274E+05</totfact>
</mgrwt>
</event>
<event>
 5    1  0.1959123E+000  0.8271149E+02  0.7546771E-02  0.1321528E+00
         21   -1    0    0  501  502  0.00000000000E+00  0.00000000000E+00  0.58659574578E+02  0.58659574578E+02  0.00000000000E+00 0.  1.
         21   -1    0    0  502  503 -0.00000000000E+00 -0.00000000000E+00 -0.13422656330E+03  0.13422656330E+03  0.00000000000E+00 0. -1.
         24    1    1    2    0    0 -0.18334309521E+02 -0.59348523737E+01 -0.10945923890E+02  0.83417016145E+02  0.80419002446E+02 0.  1.
          1    1    1    2  501    0  0.50077824460E+02 -0.15936675882E+01 -0.19443729888E+02  0.53743715084E+02  0.00000000000E+00 0. -1.
         -2    1    1    2    0  503 -0.31743514940E+02  0.75285199619E+01 -0.45177334939E+02  0.55725406645E+02  0.00000000000E+00 0.  1.
<mgrwt>
<rscale>  2 0.82711488E+02</rscale>
<asrwt>0</asrwt>
<pdfrwt beam="1">  1       21 0.90245501E-02 0.82711488E+02</pdfrwt>
<pdfrwt beam="2">  1       21 0.20650240E-01 0.82711488E+02</pdfrwt>
<totfact> 0.20675073E+06</totfact>
</mgrwt>
</event>
<event>
 5    1  0.1959123E+000  0.6137067E+02  0.7546771E-02  0.1392168E+00
         21   -1    0    0  501  502  0.00000000000E+00  0.00000000000E+00  0.38620976433E+01  0.38620976433E+01  0.00000000000E+00 0. -1.
         21   -1    0    0  502  503 -0.00000000000E+00 -0.00000000000E+00 -0.11290009405E+04  0.11290009405E+04  0.00000000000E+00 0. -1.
         24    1    1    2    0    0  0.11755983304E+02  0.26831520793E+01 -0.82374535510E+03  0.82774937538E+03  0.80419002446E+02 0.  0.
          1    1    1    2  501    0 -0.16297423200E+01 -0.20695575782E+02 -0.76300707428E+02  0.79074400858E+02  0.00000000000E+00 0. -1.
         -2    1    1    2    0  503 -0.10126240984E+02  0.18012423703E+02 -0.22509278036E+03  0.22603926193E+03  0.00000000000E+00 0.  1.
<mgrwt>
<rscale>  2 0.61370673E+02</rscale>
<asrwt>0</asrwt>
<pdfrwt beam="1">  1       21 0.59416906E-03 0.61370673E+02</pdfrwt>
<pdfrwt beam="2">  1       21 0.17369240E+00 0.61370673E+02</pdfrwt>
<totfact> 0.17354302E+06</totfact>
</mgrwt>
</event>
<event>
 5    1  0.1959123E+000  0.8709796E+02  0.7546771E-02  0.1310036E+00
         21   -1    0    0  503  502  0.00000000000E+00  0.00000000000E+00  0.22887769428E+04  0.22887769428E+04  0.00000000000E+00 0.  1.
         21   -1    0    0  501  503 -0.00000000000E+00 -0.00000000000E+00 -0.46308618027E+01  0.46308618027E+01  0.00000000000E+00 0. -1.
         24    1    1    2    0    0 -0.37601786584E+02  0.31278331189E+02  0.90025296265E+03  0.90516011902E+03  0.80419002446E+02 0.  1.
          1    1    1    2  501    0 -0.17541896664E+02 -0.13491286706E+02  0.78237723514E+02  0.81307283414E+02  0.00000000000E+00 0. -1.
         -2    1    1    2    0  502  0.55143683248E+02 -0.17787044483E+02  0.13056553948E+04  0.13069404022E+04  0.00000000000E+00 0.  1.
<mgrwt>
<rscale>  2 0.87097961E+02</rscale>
<asrwt>0</asrwt>
<pdfrwt beam="1">  1       21 0.35211863E+00 0.87097961E+02</pdfrwt>
<pdfrwt beam="2">  1       21 0.71244210E-03 0.87097961E+02</pdfrwt>
<totfact> 0.12464931E+05</totfact>
</mgrwt>
</event>
<event>
 5    1  0.1959123E+000  0.8196664E+02  0.7546771E-02  0.1323561E+00
         21   -1    0    0  503  502  0.00000000000E+00  0.00000000000E+00  0.13911719457E+02  0.13911719457E+02  0.00000000000E+00 0. -1.
         21   -1    0    0  501  503 -0.00000000000E+00 -0.00000000000E+00 -0.53308821262E+03  0.53308821262E+03  0.00000000000E+00 0.  1.
         24    1    1    2    0    0 -0.24942477443E+02  0.25895110461E+02 -0.19376903946E+03  0.21285286123E+03  0.80419002446E+02 0. -1.
          1    1    1    2  501    0  0.43961479336E+02 -0.30919222793E+00 -0.19612418160E+03  0.20099104924E+03  0.00000000000E+00 0. -1.
         -2    1    1    2    0  502 -0.19019001892E+02 -0.25585918233E+02 -0.12928327210E+03  0.13315602161E+03  0.00000000000E+00 0.  1.
<mgrwt>
<rscale>  2 0.81966644E+02</rscale>
<asrwt>0</asrwt>
<pdfrwt beam="1">  1       21 0.21402645E-02 0.81966644E+02</pdfrwt>
<pdfrwt beam="2">  1       21 0.82013573E-01 0.81966644E+02</pdfrwt>
<totfact> 0.14236294E+06</totfact>
</mgrwt>
</event>
<event>
 5    1  0.1959123E+000  0.8383911E+02  0.7546771E-02  0.1318497E+00
         21   -1    0    0  501  502  0.00000000000E+00  0.00000000000E+00  0.10741543407E+04  0.10741543407E+04  0.00000000000E+00 0. -1.
         21   -1    0    0  502  503 -0.00000000000E+00 -0.00000000000E+00 -0.30022165177E+02  0.30022165177E+02  0.00000000000E+00 0.  1.
         24    1    1    2    0    0 -0.27803372406E+02  0.13957685222E+02  0.23202788437E+03  0.24753181528E+03  0.80419002446E+02 0.  1.
          1    1    1    2  501    0  0.19202209369E+01  0.30203263005E+02  0.80429622778E+03  0.80486542128E+03  0.00000000000E+00 0. -1.
         -2    1    1    2    0  503  0.25883151469E+02 -0.44160948227E+02  0.78080633728E+01  0.51779269326E+02  0.00000000000E+00 0.  1.
<mgrwt>
<rscale>  2 0.83839107E+02</rscale>
<asrwt>0</asrwt>
<pdfrwt beam="1">  1       21 0.16525448E+00 0.83839107E+02</pdfrwt>
<pdfrwt beam="2">  1       21 0.46187955E-02 0.83839107E+02</pdfrwt>
<totfact> 0.76189605E+04</totfact>
</mgrwt>
</event>
<event>
 5    1  0.1959123E+000  0.8698736E+02  0.7546771E-02  0.1310316E+00
         21   -1    0    0  503  502  0.00000000000E+00  0.00000000000E+00  0.32676409514E+02  0.32676409514E+02  0.00000000000E+00 0. -1.
         21   -1    0    0  501  503 -0.00000000000E+00 -0.00000000000E+00 -0.39053128385E+03  0.39053128385E+03  0.00000000000E+00 0.  1.
         24    1    1    2    0    0 -0.37300357720E+02 -0.13838114849E+02 -0.16218455174E+03  0.18534792927E+03  0.80419002446E+02 0. -1.
          1    1    1    2  501    0 -0.11894291847E+02 -0.20887491343E+02 -0.17117118622E+03  0.17285061893E+03  0.00000000000E+00 0. -1.
         -2    1    1    2    0  502  0.49194649566E+02  0.34725606192E+02 -0.24499136380E+02  0.65009145162E+02  0.00000000000E+00 0.  1.
<mgrwt>
<rscale>  2 0.86987364E+02</rscale>
<asrwt>0</asrwt>
<pdfrwt beam="1">  1       21 0.50271402E-02 0.86987364E+02</pdfrwt>
<pdfrwt beam="2">  1       21 0.60081733E-01 0.86987364E+02</pdfrwt>
<totfact> 0.69271490E+05</totfact>
</mgrwt>
</event>
<event>
 5    1  0.1959123E+000  0.7767599E+02  0.7546771E-02  0.1335779E+00
         21   -1    0    0  501  502  0.00000000000E+00  0.00000000000E+00  0.18312013339E+02  0.18312013339E+02  0.00000000000E+00 0.  1.
         21   -1    0    0  502  503 -0.00000000000E+00 -0.00000000000E+00 -0.50852916418E+03  0.50852916418E+03  0.00000000000E+00 0. -1.
         24    1    1    2    0    0  0.15975421489E+02  0.44864826757E+02 -0.42736867649E+03  0.43746916276E+03  0.80419002446E+02 0.  0.
          1    1    1    2  501    0 -0.26176102466E+02 -0.14645364079E+02 -0.20391678661E+02  0.36269761344E+02  0.00000000000E+00 0. -1.
         -2    1    1    2    0  503  0.10200680978E+02 -0.30219462678E+02 -0.42456795697E+02  0.53102253415E+02  0.00000000000E+00 0.  1.
<mgrwt>
<rscale>  2 0.77675993E+02</rscale>
<asrwt>0</asrwt>
<pdfrwt beam="1">  1       21 0.28172325E-02 0.77675993E+02</pdfrwt>
<pdfrwt beam="2">  1       21 0.78235266E-01 0.77675993E+02</pdfrwt>
<totfact> 0.10143527E+06</totfact>
</mgrwt>
</event>
<event>
 5    1  0.1959123E+000  0.8674478E+02  0.7546771E-02  0.1310932E+00
         21   -1    0    0  503  502  0.00000000000E+00  0.00000000000E+00  0.73216540629E+02  0.73216540629E+02  0.00000000000E+00 0.  1.
         21   -1    0    0  501  503 -0.00000000000E+00 -0.00000000000E+00 -0.30796648055E+03  0.30796648055E+03  0.00000000000E+00 0. -1.
         24    1    1    2    0    0 -0.27483119727E+02 -0.57929092010E+02 -0.14069537823E+03  0.17427996724E+03  0.80419002446E+02 0. -1.
          1    1    1    2  501    0 -0.34619049122E+01  0.25797759048E+02 -0.14027319008E+03  0.14266771538E+03  0.00000000000E+00 0. -1.
         -2    1    1    2    0  502  0.30945024639E+02  0.32131332963E+02  0.46218628396E+02  0.64235338550E+02  0.00000000000E+00 0.  1.
<mgrwt>
<rscale>  2 0.86744781E+02</rscale>
<asrwt>0</asrwt>
<pdfrwt beam="1">  1       21 0.11264083E-01 0.86744781E+02</pdfrwt>
<pdfrwt beam="2">  1       21 0.47379458E-01 0.86744781E+02</pdfrwt>
<totfact> 0.28639002E+05</totfact>
</mgrwt>
</event>
<event>
 5    1  0.1959123E+000  0.7308188E+02  0.7546771E-02  0.1349916E+00
         21   -1    0    0  503  502  0.00000000000E+00  0.00000000000E+00  0.15891143020E+03  0.15891143020E+03  0.00000000000E+00 0.  1.
         21   -1    0    0  501  503 -0.00000000000E+00 -0.00000000000E+00 -0.41660209768E+02  0.41660209768E+02  0.00000000000E+00 0.  1.
         24    1    1    2    0    0  0.93597477150E+01 -0.15210881814E+02  0.10180771428E+03  0.13096183583E+03  0.80419002446E+02 0.  1.
          1    1    1    2  501    0  0.12386075276E+02 -0.19336782834E+02 -0.56669698772E+01  0.23652496247E+02  0.00000000000E+00 0. -1.
         -2    1    1    2    0  502 -0.21745822991E+02  0.34547664648E+02  0.21110476022E+02  0.45957307885E+02  0.00000000000E+00 0.  1.
<mgrwt>
<rscale>  2 0.73081879E+02</rscale>
<asrwt>0</asrwt>
<pdfrwt beam="1">  1       21 0.24447912E-01 0.73081879E+02</pdfrwt>
<pdfrwt beam="2">  1       21 0.64092632E-02 0.73081879E+02</pdfrwt>
<totfact> 0.26900011E+06</totfact>
</mgrwt>
</event>
<event>
 5    1  0.1959123E+000  0.8412347E+02  0.7546771E-02  0.1317741E+00
         21   -1    0    0  501  502  0.00000000000E+00  0.00000000000E+00  0.13055941751E+03  0.13055941751E+03  0.00000000000E+00 0. -1.
         21   -1    0    0  502  503 -0.00000000000E+00 -0.00000000000E+00 -0.16825270361E+03  0.16825270361E+03  0.00000000000E+00 0.  1.
         24    1    1    2    0    0 -0.23792110967E+02 -0.32448410463E+02  0.41553860678E+02  0.99060098816E+02  0.80419002446E+02 0. -1.
          1    1    1    2  501    0  0.22473126912E+02  0.53084514748E+02  0.45415222504E+02  0.73386303725E+02  0.00000000000E+00 0. -1.
         -2    1    1    2    0  503  0.13189840556E+01 -0.20636104285E+02 -0.12466236928E+03  0.12636571858E+03  0.00000000000E+00 0.  1.
<mgrwt>
<rscale>  2 0.84123466E+02</rscale>
<asrwt>0</asrwt>
<pdfrwt beam="1">  1       21 0.20086064E-01 0.84123466E+02</pdfrwt>
<pdfrwt beam="2">  1       21 0.25885031E-01 0.84123466E+02</pdfrwt>
<totfact> 0.33072739E+05</totfact>
</mgrwt>
</event>
<event>
 5    1  0.1959123E+000  0.9120674E+02  0.7546771E-02  0.1299955E+00
         21   -1    0    0  503  502  0.00000000000E+00  0.00000000000E+00  0.15390365279E+03  0.15390365279E+03  0.00000000000E+00 0. -1.
         21   -1    0    0  501  503 -0.00000000000E+00 -0.00000000000E+00 -0.76026052856E+02  0.76026052856E+02  0.00000000000E+00 0. -1.
         24    1    1    2    0    0  0.26637483517E+01 -0.26906507451E+02  0.35515869723E+02  0.91976348346E+02  0.80419002446E+02 0. -1.
          1    1    1    2  501    0  0.30653807624E+02  0.48853565672E+02 -0.22414239221E+02  0.61876691254E+02  0.00000000000E+00 0. -1.
         -2    1    1    2    0  502 -0.33317555976E+02 -0.21947058221E+02  0.64775969432E+02  0.76076666046E+02  0.00000000000E+00 0.  1.
<mgrwt>
<rscale>  2 0.91206736E+02</rscale>
<asrwt>0</asrwt>
<pdfrwt beam="1">  1       21 0.23677485E-01 0.91206736E+02</pdfrwt>
<pdfrwt beam="2">  1       21 0.11696316E-01 0.91206736E+02</pdfrwt>
<totfact> 0.10276450E+06</totfact>
</mgrwt>
</event>
<event>
 5    1  0.1959123E+000  0.8659398E+02  0.7546771E-02  0.1311316E+00
         21   -1    0    0  501  502  0.00000000000E+00  0.00000000000E+00  0.65040765766E+02  0.65040765766E+02  0.00000000000E+00 0.  1.
         21   -1    0    0  502  503 -0.00000000000E+00 -0.00000000000E+00 -0.43273715161E+03  0.43273715161E+03  0.00000000000E+00 0.  1.
         24    1    1    2    0    0 -0.88775264816E+01 -0.17840118389E+02 -0.22633203684E+02  0.85886891689E+02  0.80419002446E+02 0.  1.
          1    1    1    2  501    0 -0.37305217371E+02 -0.69106375152E+01  0.20135945662E+02  0.42952211371E+02  0.00000000000E+00 0. -1.
         -2    1    1    2    0  503  0.46182743852E+02  0.24750755904E+02 -0.36519912782E+03  0.36893881431E+03  0.00000000000E+00 0.  1.
<mgrwt>
<rscale>  2 0.86593976E+02</rscale>
<asrwt>0</asrwt>
<pdfrwt beam="1">  1       21 0.10006272E-01 0.86593976E+02</pdfrwt>
<pdfrwt beam="2">  1       21 0.66574944E-01 0.86593976E+02</pdfrwt>
<totfact> 0.17356872E+05</totfact>
</mgrwt>
</event>
<event>
 5    1  0.1959123E+000  0.7324243E+02  0.7546771E-02  0.1349402E+00
         21   -1    0    0  503  502  0.00000000000E+00  0.00000000000E+00  0.49750656999E+03  0.49750656999E+03  0.00000000000E+00 0.  1.
         21   -1    0    0  501  503 -0.00000000000E+00 -0.00000000000E+00 -0.28411874991E+02  0.28411874991E+02  0.00000000000E+00 0.  1.
         24    1    1    2    0    0 -0.23537515775E+02  0.10388241363E+02  0.53233328099E+02  0.99814494851E+02  0.80419002446E+02 0.  0.
          1    1    1    2  501    0 -0.17059282926E+02 -0.12882809700E+02  0.24010944143E+02  0.32148271468E+02  0.00000000000E+00 0. -1.
         -2    1    1    2    0  502  0.40596798701E+02  0.24945683366E+01  0.39185042276E+03  0.39395567867E+03  0.00000000000E+00 0.  1.
<mgrwt>
<rscale>  2 0.73242435E+02</rscale>
<asrwt>0</asrwt>
<pdfrwt beam="1">  1       21 0.76539466E-01 0.73242435E+02</pdfrwt>
<pdfrwt beam="2">  1       21 0.43710581E-02 0.73242435E+02</pdfrwt>
<totfact> 0.51996120E+05</totfact>
</mgrwt>
</event>
<event>
 5    1  0.1959123E+000  0.1138949E+03  0.7546771E-02  0.1253523E+00
         21   -1    0    0  501  502  0.00000000000E+00  0.00000000000E+00  0.80094655910E+02  0.80094655910E+02  0.00000000000E+00 0.  1.
         21   -1    0    0  502  503 -0.00000000000E+00 -0.00000000000E+00 -0.20219545251E+03  0.20219545251E+03  0.00000000000E+00 0.  1.
         24    1    1    2    0    0 -0.27104129902E+02  0.31017587367E+02 -0.97296420454E+02  0.13278002098E+03  0.80419002446E+02 0.  0.
          1    1    1    2  501    0 -0.16968138343E+02  0.45816948834E+02  0.16777367507E+02  0.51658402799E+02  0.00000000000E+00 0. -1.
         -2    1    1    2    0  503  0.44072268245E+02 -0.76834536201E+02 -0.41581743651E+02  0.97851684639E+02  0.00000000000E+00 0.  1.
<mgrwt>
<rscale>  2 0.11389487E+03</rscale>
<asrwt>0</asrwt>
<pdfrwt beam="1">  1       21 0.12322255E-01 0.11389487E+03</pdfrwt>
<pdfrwt beam="2">  1       21 0.31106992E-01 0.11389487E+03</pdfrwt>
<totfact> 0.55987786E+05</totfact>
</mgrwt>
</event>
<event>
 5    1  0.1959123E+000  0.1411699E+03  0.7546771E-02  0.1211763E+00
         21   -1    0    0  503  502  0.00000000000E+00  0.00000000000E+00  0.23540148269E+02  0.23540148269E+02  0.00000000000E+00 0.  1.
         21   -1    0    0  501  503 -0.00000000000E+00 -0.00000000000E+00 -0.10706732321E+04  0.10706732321E+04  0.00000000000E+00 0.  1.
         24    1    1    2    0    0 -0.95572732392E+02  0.53966761124E+02 -0.39801542534E+03  0.42063054246E+03  0.80419002446E+02 0.  1.
          1    1    1    2  501    0 -0.20059371752E+02 -0.48133939824E+01 -0.32965517951E+03  0.33029999172E+03  0.00000000000E+00 0. -1.
         -2    1    1    2    0  502  0.11563210414E+03 -0.49153367142E+02 -0.31946247899E+03  0.34328284620E+03  0.00000000000E+00 0.  1.
<mgrwt>
<rscale>  2 0.14116990E+03</rscale>
<asrwt>0</asrwt>
<pdfrwt beam="1">  1       21 0.36215611E-02 0.14116990E+03</pdfrwt>
<pdfrwt beam="2">  1       21 0.16471896E+00 0.14116990E+03</pdfrwt>
<totfact> 0.11050367E+05</totfact>
</mgrwt>
</event>
<event>
 5    1  0.1959123E+000  0.1309477E+03  0.7546771E-02  0.1226056E+00
         21   -1    0    0  503  502  0.00000000000E+00  0.00000000000E+00  0.29387517569E+03  0.29387517569E+03  0.00000000000E+00 0. -1.
         21   -1    0    0  501  503 -0.00000000000E+00 -0.00000000000E+00 -0.91950451680E+02  0.91950451680E+02  0.00000000000E+00 0.  1.
         24    1    1    2    0    0  0.93817365713E+02  0.18830807961E+02  0.71573394052E+02  0.14403563493E+03  0.80419002446E+02 0. -1.
          1    1    1    2  501    0  0.20608635532E+02 -0.74369709462E+01 -0.34455383897E+02  0.40831334473E+02  0.00000000000E+00 0. -1.
         -2    1    1    2    0  502 -0.11442600124E+03 -0.11393837015E+02  0.16480671385E+03  0.20095865797E+03  0.00000000000E+00 0.  1.
<mgrwt>
<rscale>  2 0.13094769E+03</rscale>
<asrwt>0</asrwt>
<pdfrwt beam="1">  1       21 0.45211565E-01 0.13094769E+03</pdfrwt>
<pdfrwt beam="2">  1       21 0.14146224E-01 0.13094769E+03</pdfrwt>
<totfact> 0.20824819E+05</totfact>
</mgrwt>
</event>
<event>
 5    1  0.1959123E+000  0.1081038E+03  0.7546771E-02  0.1264122E+00
         21   -1    0    0  501  502  0.00000000000E+00  0.00000000000E+00  0.70995323847E+03  0.70995323847E+03  0.00000000000E+00 0.  1.
         21   -1    0    0  502  503 -0.00000000000E+00 -0.00000000000E+00 -0.19158647021E+03  0.19158647021E+03  0.00000000000E+00 0.  1.
         24    1    1    2    0    0 -0.29851871687E+02  0.55575241471E+02  0.64943444112E+03  0.65742836186E+03  0.80419002446E+02 0.  1.
          1    1    1    2  501    0  0.56794950914E+02 -0.64191480382E+02  0.21970249482E+02  0.88481096655E+02  0.00000000000E+00 0. -1.
         -2    1    1    2    0  503 -0.26943079227E+02  0.86162389104E+01 -0.15303792234E+03  0.15563025016E+03  0.00000000000E+00 0.  1.
<mgrwt>
<rscale>  2 0.10810383E+03</rscale>
<asrwt>0</asrwt>
<pdfrwt beam="1">  1       21 0.10922357E+00 0.10810383E+03</pdfrwt>
<pdfrwt beam="2">  1       21 0.29474842E-01 0.10810383E+03</pdfrwt>
<totfact> 0.79052788E+03</totfact>
</mgrwt>
</event>
<event>
 5    1  0.1959123E+000  0.7851629E+02  0.7546771E-02  0.1333316E+00
         21   -1    0    0  501  502  0.00000000000E+00  0.00000000000E+00  0.47611280835E+03  0.47611280835E+03  0.00000000000E+00 0.  1.
         21   -1    0    0  502  503 -0.00000000000E+00 -0.00000000000E+00 -0.15854114867E+02  0.15854114867E+02  0.00000000000E+00 0. -1.
         24    1    1    2    0    0 -0.28755578473E+02 -0.22964336317E+02  0.24093189171E+03  0.25665080641E+03  0.80419002446E+02 0. -1.
          1    1    1    2  501    0  0.11466970867E+02 -0.19568775777E+02  0.15286115496E+03  0.15453465988E+03  0.00000000000E+00 0. -1.
         -2    1    1    2    0  503  0.17288607606E+02  0.42533112094E+02  0.66465646810E+02  0.80781456927E+02  0.00000000000E+00 0.  1.
<mgrwt>
<rscale>  2 0.78516288E+02</rscale>
<asrwt>0</asrwt>
<pdfrwt beam="1">  1       21 0.73248113E-01 0.78516288E+02</pdfrwt>
<pdfrwt beam="2">  1       21 0.24390950E-02 0.78516288E+02</pdfrwt>
<totfact> 0.14769404E+06</totfact>
</mgrwt>
</event>
<event>
 5    1  0.1959123E+000  0.7553756E+02  0.7546771E-02  0.1342214E+00
         21   -1    0    0  503  502  0.00000000000E+00  0.00000000000E+00  0.12513436282E+04  0.12513436282E+04  0.00000000000E+00 0. -1.
         21   -1    0    0  501  503 -0.00000000000E+00 -0.00000000000E+00 -0.71354392523E+01  0.71354392523E+01  0.00000000000E+00 0. -1.
         24    1    1    2    0    0  0.15321590834E+02  0.96208123248E+01  0.54020776637E+03  0.54646039012E+03  0.80419002446E+02 0.  1.
          1    1    1    2  501    0  0.82204107819E+01  0.25260134073E+02  0.49590995692E+02  0.56257589538E+02  0.00000000000E+00 0. -1.
         -2    1    1    2    0  502 -0.23542001616E+02 -0.34880946398E+02  0.65440942691E+03  0.65576108781E+03  0.00000000000E+00 0.  1.
<mgrwt>
<rscale>  2 0.75537562E+02</rscale>
<asrwt>0</asrwt>
<pdfrwt beam="1">  1       21 0.19251423E+00 0.75537562E+02</pdfrwt>
<pdfrwt beam="2">  1       21 0.10977609E-02 0.75537562E+02</pdfrwt>
<totfact> 0.50912089E+05</totfact>
</mgrwt>
</event>
<event>
 5    1  0.1959123E+000  0.2038495E+03  0.7546771E-02  0.1146531E+00
         21   -1    0    0  503  502  0.00000000000E+00  0.00000000000E+00  0.30618096558E+02  0.30618096558E+02  0.00000000000E+00 0. -1.
         21   -1    0    0  501  503 -0.00000000000E+00 -0.00000000000E+00 -0.15562425145E+04  0.15562425145E+04  0.00000000000E+00 0. -1.
         24    1    1    2    0    0 -0.39162558229E+02  0.17484951071E+03 -0.51988734119E+03  0.55574825312E+03  0.80419002446E+02 0. -1.
          1    1    1    2  501    0  0.77163557002E+02 -0.91490030241E+02 -0.74938003604E+03  0.75887751224E+03  0.00000000000E+00 0. -1.
         -2    1    1    2    0  502 -0.38000998773E+02 -0.83359480467E+02 -0.25635704070E+03  0.27223484569E+03  0.00000000000E+00 0.  1.
<mgrwt>
<rscale>  2 0.20384952E+03</rscale>
<asrwt>0</asrwt>
<pdfrwt beam="1">  1       21 0.47104759E-02 0.20384952E+03</pdfrwt>
<pdfrwt beam="2">  1       21 0.23942195E+00 0.20384952E+03</pdfrwt>
<totfact> 0.22641513E+04</totfact>
</mgrwt>
</event>
<event>
 5    1  0.1959123E+000  0.1069236E+03  0.7546771E-02  0.1266375E+00
         21   -1    0    0  503  502  0.00000000000E+00  0.00000000000E+00  0.43008102503E+02  0.43008102503E+02  0.00000000000E+00 0. -1.
         21   -1    0    0  501  503 -0.00000000000E+00 -0.00000000000E+00 -0.30856307679E+03  0.30856307679E+03  0.00000000000E+00 0. -1.
         24    1    1    2    0    0  0.37014255639E+02 -0.42500535145E+02 -0.10290962036E+03  0.14224611251E+03  0.80419002446E+02 0. -1.
          1    1    1    2  501    0 -0.18380301790E+02  0.75523551008E+02 -0.15070992659E+03  0.16957335941E+03  0.00000000000E+00 0. -1.
         -2    1    1    2    0  502 -0.18633953849E+02 -0.33023015863E+02 -0.11935427337E+02  0.39751707365E+02  0.00000000000E+00 0.  1.
<mgrwt>
<rscale>  2 0.10692363E+03</rscale>
<asrwt>0</asrwt>
<pdfrwt beam="1">  1       21 0.66166312E-02 0.10692363E+03</pdfrwt>
<pdfrwt beam="2">  1       21 0.47471242E-01 0.10692363E+03</pdfrwt>
<totfact> 0.71123803E+05</totfact>
</mgrwt>
</event>
<event>
 5    1  0.1959123E+000  0.8974930E+02  0.7546771E-02  0.1303460E+00
         21   -1    0    0  503  502  0.00000000000E+00  0.00000000000E+00  0.16058957928E+02  0.16058957928E+02  0.00000000000E+00 0. -1.
         21   -1    0    0  501  503 -0.00000000000E+00 -0.00000000000E+00 -0.57409283239E+03  0.57409283239E+03  0.00000000000E+00 0.  1.
         24    1    1    2    0    0  0.54432057565E+02 -0.69710736479E+01 -0.23207000312E+03  0.25166475133E+03  0.80419002446E+02 0.  0.
          1    1    1    2  501    0 -0.44851909942E+02  0.32160489879E+02 -0.27840960928E+03  0.28382723878E+03  0.00000000000E+00 0. -1.
         -2    1    1    2    0  502 -0.95801476231E+01 -0.25189416231E+02 -0.47554262055E+02  0.54659800202E+02  0.00000000000E+00 0.  1.
<mgrwt>
<rscale>  2 0.89749301E+02</rscale>
<asrwt>0</asrwt>
<pdfrwt beam="1">  1       21 0.24706093E-02 0.89749301E+02</pdfrwt>
<pdfrwt beam="2">  1       21 0.88321959E-01 0.89749301E+02</pdfrwt>
<totfact> 0.95965194E+05</totfact>
</mgrwt>
</event>
<event>
 5    1  0.1959123E+000  0.9452661E+02  0.7546771E-02  0.1292246E+00
         21   -1    0    0  501  502  0.00000000000E+00  0.00000000000E+00  0.19846300395E+03  0.19846300395E+03  0.00000000000E+00 0. -1.
         21   -1    0    0  502  503 -0.00000000000E+00 -0.00000000000E+00 -0.51542995642E+02  0.51542995642E+02  0.00000000000E+00 0.  1.
         24    1    1    2    0    0 -0.27751113445E+00 -0.86815918015E+01  0.10800424183E+03  0.13493546330E+03  0.80419002446E+02 0. -1.
          1    1    1    2  501    0  0.52950585009E+02  0.15206396014E+02  0.22569733201E+02  0.59534794778E+02  0.00000000000E+00 0. -1.
         -2    1    1    2    0  503 -0.52673073874E+02 -0.65248042129E+01  0.16346033276E+02  0.55535741512E+02  0.00000000000E+00 0.  1.
<mgrwt>
<rscale>  2 0.94526607E+02</rscale>
<asrwt>0</asrwt>
<pdfrwt beam="1">  1       21 0.30532770E-01 0.94526607E+02</pdfrwt>
<pdfrwt beam="2">  1       21 0.79296917E-02 0.94526607E+02</pdfrwt>
<totfact> 0.12464378E+06</totfact>
</mgrwt>
</event>
<event>
 5    1  0.1959123E+000  0.9156352E+02  0.7546771E-02  0.1299109E+00
         21   -1    0    0  501  502  0.00000000000E+00  0.00000000000E+00  0.14358521133E+04  0.14358521133E+04  0.00000000000E+00 0. -1.
         21   -1    0    0  502  503 -0.00000000000E+00 -0.00000000000E+00 -0.25842076376E+02  0.25842076376E+02  0.00000000000E+00 0.  1.
         24    1    1    2    0    0 -0.17959118285E+02 -0.30495994453E+02  0.11912678015E+03  0.14802344852E+03  0.80419002446E+02 0.  0.
          1    1    1    2  501    0  0.54077813859E+02  0.16645558555E+02  0.12668854259E+04  0.12681483222E+04  0.00000000000E+00 0. -1.
         -2    1    1    2    0  503 -0.36118695574E+02  0.13850435898E+02  0.23997830805E+02  0.45522418959E+02  0.00000000000E+00 0.  1.
<mgrwt>
<rscale>  2 0.91563521E+02</rscale>
<asrwt>0</asrwt>
<pdfrwt beam="1">  1       21 0.22090026E+00 0.91563521E+02</pdfrwt>
<pdfrwt beam="2">  1       21 0.39757052E-02 0.91563521E+02</pdfrwt>
<totfact> 0.43116084E+04</totfact>
</mgrwt>
</event>
<event>
 5    1  0.1959123E+000  0.1034003E+03  0.7546771E-02  0.1273304E+00
         21   -1    0    0  501  502  0.00000000000E+00  0.00000000000E+00  0.47107026845E+03  0.47107026845E+03  0.00000000000E+00 0.  1.
         21   -1    0    0  502  503 -0.00000000000E+00 -0.00000000000E+00 -0.24884422295E+02  0.24884422295E+02  0.00000000000E+00 0.  1.
         24    1    1    2    0    0  0.74490393727E+02  0.28854038216E+02  0.17137011146E+03  0.20546606858E+03  0.80419002446E+02 0.  1.
          1    1    1    2  501    0 -0.13612610095E+02 -0.29585423095E+02  0.11296969509E+03  0.11757020210E+03  0.00000000000E+00 0. -1.
         -2    1    1    2    0  503 -0.60877783631E+02  0.73138487879E+00  0.16184603960E+03  0.17291842006E+03  0.00000000000E+00 0.  1.
<mgrwt>
<rscale>  2 0.10340033E+03</rscale>
<asrwt>0</asrwt>
<pdfrwt beam="1">  1       21 0.72472342E-01 0.10340033E+03</pdfrwt>
<pdfrwt beam="2">  1       21 0.38283730E-02 0.10340033E+03</pdfrwt>
<totfact> 0.72868726E+05</totfact>
</mgrwt>
</event>
<event>
 5    1  0.1959123E+000  0.7075621E+02  0.7546771E-02  0.1357540E+00
         21   -1    0    0  501  502  0.00000000000E+00  0.00000000000E+00  0.11782086199E+03  0.11782086199E+03  0.00000000000E+00 0.  1.
         21   -1    0    0  502  503 -0.00000000000E+00 -0.00000000000E+00 -0.77298846229E+02  0.77298846229E+02  0.00000000000E+00 0.  1.
         24    1    1    2    0    0 -0.97666684833E+01  0.34682401773E+02  0.80440198811E+02  0.11931512203E+03  0.80419002446E+02 0.  1.
          1    1    1    2  501    0 -0.15368764912E+02 -0.14877056320E+02  0.36991167693E+01  0.21707353697E+02  0.00000000000E+00 0. -1.
         -2    1    1    2    0  503  0.25135433395E+02 -0.19805345453E+02 -0.43617299815E+02  0.54097232495E+02  0.00000000000E+00 0.  1.
<mgrwt>
<rscale>  2 0.70756212E+02</rscale>
<asrwt>0</asrwt>
<pdfrwt beam="1">  1       21 0.18126286E-01 0.70756212E+02</pdfrwt>
<pdfrwt beam="2">  1       21 0.11892130E-01 0.70756212E+02</pdfrwt>
<totfact> 0.16150456E+06</totfact>
</mgrwt>
</event>
<event>
 5    1  0.1959123E+000  0.8476506E+02  0.7546771E-02  0.1316048E+00
         21   -1    0    0  501  502  0.00000000000E+00  0.00000000000E+00  0.12225250308E+03  0.12225250308E+03  0.00000000000E+00 0.  1.
         21   -1    0    0  502  503 -0.00000000000E+00 -0.00000000000E+00 -0.96632159301E+02  0.96632159301E+02  0.00000000000E+00 0.  1.
         24    1    1    2    0    0 -0.64786955254E+02  0.55514125234E+01 -0.32282663340E+02  0.10833999289E+03  0.80419002446E+02 0.  1.
          1    1    1    2  501    0  0.24170905363E+02 -0.78961324902E+01  0.64498429554E+02  0.69329856406E+02  0.00000000000E+00 0. -1.
         -2    1    1    2    0  503  0.40616049891E+02  0.23447199669E+01 -0.65954224387E+01  0.41214813084E+02  0.00000000000E+00 0.  1.
<mgrwt>
<rscale>  2 0.84765065E+02</rscale>
<asrwt>0</asrwt>
<pdfrwt beam="1">  1       21 0.18808077E-01 0.84765065E+02</pdfrwt>
<pdfrwt beam="2">  1       21 0.14866486E-01 0.84765065E+02</pdfrwt>
<totfact> 0.10257280E+06</totfact>
</mgrwt>
</event>
<event>
 5    1  0.1959123E+000  0.6974770E+02  0.7546771E-02  0.1360953E+00
         21   -1    0    0  501  502  0.00000000000E+00  0.00000000000E+00  0.21980123188E+01  0.21980123188E+01  0.00000000000E+00 0.  1.
         21   -1    0    0  502  503 -0.00000000000E+00 -0.00000000000E+00 -0.23061684196E+04  0.23061684196E+04  0.00000000000E+00 0. -1.
         24    1    1    2    0    0 -0.20777369692E+01  0.28731202192E+02 -0.13622972634E+04  0.13649728382E+04  0.80419002446E+02 0.  1.
          1    1    1    2  501    0 -0.18586381440E+02 -0.27732222486E+02 -0.42622639403E+03  0.42753183356E+03  0.00000000000E+00 0. -1.
         -2    1    1    2    0  503  0.20664118409E+02 -0.99897970676E+00 -0.51544674979E+03  0.51586176018E+03  0.00000000000E+00 0.  1.
<mgrwt>
<rscale>  2 0.69747696E+02</rscale>
<asrwt>0</asrwt>
<pdfrwt beam="1">  1       21 0.33815640E-03 0.69747696E+02</pdfrwt>
<pdfrwt beam="2">  1       21 0.35479445E+00 0.69747696E+02</pdfrwt>
<totfact> 0.38892527E+05</totfact>
</mgrwt>
</event>
<event>
 5    1  0.1959123E+000  0.8262199E+02  0.7546771E-02  0.1321771E+00
         21   -1    0    0  503  502  0.00000000000E+00  0.00000000000E+00  0.20158969203E+02  0.20158969203E+02  0.00000000000E+00 0. -1.
         21   -1    0    0  501  503 -0.00000000000E+00 -0.00000000000E+00 -0.76574051666E+03  0.76574051666E+03  0.00000000000E+00 0. -1.
         24    1    1    2    0    0 -0.27766599234E+02  0.48654295319E+02 -0.68327719037E+03  0.69027035234E+03  0.80419002446E+02 0. -1.
          1    1    1    2  501    0  0.35945504521E+02 -0.29825040756E+02 -0.58317958464E+02  0.74716776100E+02  0.00000000000E+00 0. -1.
         -2    1    1    2    0  502 -0.81789052873E+01 -0.18829254563E+02 -0.39863986257E+01  0.20912357426E+02  0.00000000000E+00 0.  1.
<mgrwt>
<rscale>  2 0.82621986E+02</rscale>
<asrwt>0</asrwt>
<pdfrwt beam="1">  1       21 0.31013798E-02 0.82621986E+02</pdfrwt>
<pdfrwt beam="2">  1       21 0.11780624E+00 0.82621986E+02</pdfrwt>
<totfact> 0.34085725E+05</totfact>
</mgrwt>
</event>
<event>
 5    1  0.1959123E+000  0.7667703E+02  0.7546771E-02  0.1338755E+00
         21   -1    0    0  501  502  0.00000000000E+00  0.00000000000E+00  0.31833479201E+02  0.31833479201E+02  0.00000000000E+00 0. -1.
         21   -1    0    0  502  503 -0.00000000000E+00 -0.00000000000E+00 -0.19563644670E+03  0.19563644670E+03  0.00000000000E+00 0.  1.
         24    1    1    2    0    0 -0.28649804348E+02 -0.23558754938E+02 -0.88768920878E+02  0.12539124169E+03  0.80419002446E+02 0.  0.
          1    1    1    2  501    0  0.30340027544E+02 -0.94217799307E+01 -0.18943055878E+02  0.36988195068E+02  0.00000000000E+00 0. -1.
         -2    1    1    2    0  503 -0.16902231960E+01  0.32980534869E+02 -0.56090990743E+02  0.65090489146E+02  0.00000000000E+00 0.  1.
<mgrwt>
<rscale>  2 0.76677025E+02</rscale>
<asrwt>0</asrwt>
<pdfrwt beam="1">  1       21 0.48974583E-02 0.76677025E+02</pdfrwt>
<pdfrwt beam="2">  1       21 0.30097915E-01 0.76677025E+02</pdfrwt>
<totfact> 0.28574305E+06</totfact>
</mgrwt>
</event>
<event>
 5    1  0.1959123E+000  0.9047112E+02  0.7546771E-02  0.1301715E+00
         21   -1    0    0  501  502  0.00000000000E+00  0.00000000000E+00  0.32782628992E+02  0.32782628992E+02  0.00000000000E+00 0. -1.
         21   -1    0    0  502  503 -0.00000000000E+00 -0.00000000000E+00 -0.91537965094E+03  0.91537965094E+03  0.00000000000E+00 0.  1.
         24    1    1    2    0    0 -0.67617743815E+02  0.26350310477E+02 -0.33918042551E+03  0.35605768514E+03  0.80419002446E+02 0. -1.
          1    1    1    2  501    0  0.35604890667E+02 -0.12439956638E+02  0.88468485641E+01  0.38739224181E+02  0.00000000000E+00 0. -1.
         -2    1    1    2    0  503  0.32012853148E+02 -0.13910353839E+02 -0.55226344500E+03  0.55336537061E+03  0.00000000000E+00 0.  1.
<mgrwt>
<rscale>  2 0.90471122E+02</rscale>
<asrwt>0</asrwt>
<pdfrwt beam="1">  1       21 0.50434817E-02 0.90471122E+02</pdfrwt>
<pdfrwt beam="2">  1       21 0.14082763E+00 0.90471122E+02</pdfrwt>
<totfact> 0.98660358E+04</totfact>
</mgrwt>
</event>
<event>
 5    1  0.1959123E+000  0.8695422E+02  0.7546771E-02  0.1310400E+00
         21   -1    0    0  501  502  0.00000000000E+00  0.00000000000E+00  0.99754084034E+02  0.99754084034E+02  0.00000000000E+00 0. -1.
         21   -1    0    0  502  503 -0.00000000000E+00 -0.00000000000E+00 -0.26779859768E+03  0.26779859768E+03  0.00000000000E+00 0. -1.
         24    1    1    2    0    0  0.66098563930E+02  0.17321490119E+02 -0.48897724993E+02  0.11630673943E+03  0.80419002446E+02 0. -1.
          1    1    1    2  501    0 -0.24808444884E+02 -0.52032896537E+01  0.60986241948E+02  0.66044340164E+02  0.00000000000E+00 0. -1.
         -2    1    1    2    0  503 -0.41290119046E+02 -0.12118200465E+02 -0.18013303060E+03  0.18520160212E+03  0.00000000000E+00 0.  1.
<mgrwt>
<rscale>  2 0.86954218E+02</rscale>
<asrwt>0</asrwt>
<pdfrwt beam="1">  1       21 0.15346782E-01 0.86954218E+02</pdfrwt>
<pdfrwt beam="2">  1       21 0.41199784E-01 0.86954218E+02</pdfrwt>
<totfact> 0.21951560E+05</totfact>
</mgrwt>
</event>
<event>
 5    1  0.1959123E+000  0.1452200E+03  0.7546771E-02  0.1206473E+00
         21   -1    0    0  503  502  0.00000000000E+00  0.00000000000E+00  0.29683820062E+02  0.29683820062E+02  0.00000000000E+00 0. -1.
         21   -1    0    0  501  503 -0.00000000000E+00 -0.00000000000E+00 -0.73493181924E+03  0.73493181924E+03  0.00000000000E+00 0.  1.
         24    1    1    2    0    0 -0.92884990398E+02 -0.91238023219E+01 -0.36531252429E+03  0.38552732921E+03  0.80419002446E+02 0.  0.
          1    1    1    2  501    0  0.26125913190E+02 -0.63458051424E+02 -0.15469818931E+03  0.16923657230E+03  0.00000000000E+00 0. -1.
         -2    1    1    2    0  502  0.66759077209E+02  0.72581853746E+02 -0.18523728559E+03  0.20985173779E+03  0.00000000000E+00 0.  1.
<mgrwt>
<rscale>  2 0.14521998E+03</rscale>
<asrwt>0</asrwt>
<pdfrwt beam="1">  1       21 0.45667418E-02 0.14521998E+03</pdfrwt>
<pdfrwt beam="2">  1       21 0.11306643E+00 0.14521998E+03</pdfrwt>
<totfact> 0.19472028E+05</totfact>
</mgrwt>
</event>
<event>
 5    1  0.1959123E+000  0.7266625E+02  0.7546771E-02  0.1351254E+00
         21   -1    0    0  501  502  0.00000000000E+00  0.00000000000E+00  0.18420060305E+03  0.18420060305E+03  0.00000000000E+00 0. -1.
         21   -1    0    0  502  503 -0.00000000000E+00 -0.00000000000E+00 -0.14507579516E+03  0.14507579516E+03  0.00000000000E+00 0.  1.
         24    1    1    2    0    0 -0.10051102108E+02 -0.40712980807E+02 -0.12455083817E+03  0.15407367946E+03  0.80419002446E+02 0.  1.
          1    1    1    2  501    0  0.23088085451E+02  0.22500641209E+02  0.13511143170E+03  0.13890441865E+03  0.00000000000E+00 0. -1.
         -2    1    1    2    0  503 -0.13036983342E+02  0.18212339598E+02  0.28564214362E+02  0.36298300104E+02  0.00000000000E+00 0.  1.
<mgrwt>
<rscale>  2 0.72666248E+02</rscale>
<asrwt>0</asrwt>
<pdfrwt beam="1">  1       21 0.28338554E-01 0.72666248E+02</pdfrwt>
<pdfrwt beam="2">  1       21 0.22319353E-01 0.72666248E+02</pdfrwt>
<totfact> 0.23042675E+05</totfact>
</mgrwt>
</event>
<event>
 5    1  0.1959123E+000  0.7487911E+02  0.7546771E-02  0.1344246E+00
         21   -1    0    0  501  502  0.00000000000E+00  0.00000000000E+00  0.19548317795E+03  0.19548317795E+03  0.00000000000E+00 0.  1.
         21   -1    0    0  502  503 -0.00000000000E+00 -0.00000000000E+00 -0.37372569663E+02  0.37372569663E+02  0.00000000000E+00 0.  1.
         24    1    1    2    0    0  0.14920105680E+02 -0.34861350432E+02  0.14205112809E+03  0.16758180765E+03  0.80419002446E+02 0.  1.
          1    1    1    2  501    0 -0.24847711702E+02  0.25902984546E+00  0.15469449218E+02  0.29270799996E+02  0.00000000000E+00 0. -1.
         -2    1    1    2    0  503  0.99276060217E+01  0.34602320587E+02  0.59003097880E+00  0.36003139972E+02  0.00000000000E+00 0.  1.
<mgrwt>
<rscale>  2 0.74879108E+02</rscale>
<asrwt>0</asrwt>
<pdfrwt beam="1">  1       21 0.30074335E-01 0.74879108E+02</pdfrwt>
<pdfrwt beam="2">  1       21 0.57496262E-02 0.74879108E+02</pdfrwt>
<totfact> 0.21896140E+06</totfact>
</mgrwt>
</event>
<event>
 5    1  0.1959123E+000  0.8767037E+02  0.7546771E-02  0.1308593E+00
         21   -1    0    0  503  502  0.00000000000E+00  0.00000000000E+00  0.35632440210E+03  0.35632440210E+03  0.00000000000E+00 0.  1.
         21   -1    0    0  501  503 -0.00000000000E+00 -0.00000000000E+00 -0.14441707923E+03  0.14441707923E+03  0.00000000000E+00 0. -1.
         24    1    1    2    0    0 -0.58794801419E+01 -0.36083068283E+02  0.36735418792E+02  0.95672687073E+02  0.80419002446E+02 0. -1.
          1    1    1    2  501    0  0.39971713553E+02  0.34617197988E+02 -0.10778746589E+03  0.12005926072E+03  0.00000000000E+00 0. -1.
         -2    1    1    2    0  502 -0.34092233411E+02  0.14658702956E+01  0.28295936997E+03  0.28500953354E+03  0.00000000000E+00 0.  1.
<mgrwt>
<rscale>  2 0.87670373E+02</rscale>
<asrwt>0</asrwt>
<pdfrwt beam="1">  1       21 0.54819138E-01 0.87670373E+02</pdfrwt>
<pdfrwt beam="2">  1       21 0.22218012E-01 0.87670373E+02</pdfrwt>
<totfact> 0.62847194E+04</totfact>
</mgrwt>
</event>
<event>
 5    1  0.1959123E+000  0.8044695E+02  0.7546771E-02  0.1327788E+00
         21   -1    0    0  503  502  0.00000000000E+00  0.00000000000E+00  0.17021519250E+04  0.17021519250E+04  0.00000000000E+00 0. -1.
         21   -1    0    0  501  503 -0.00000000000E+00 -0.00000000000E+00 -0.52715099806E+01  0.52715099806E+01  0.00000000000E+00 0.  1.
         24    1    1    2    0    0  0.48696662894E+01 -0.14444310653E+02  0.10489373175E+04  0.10521259733E+04  0.80419002446E+02 0. -1.
          1    1    1    2  501    0 -0.35722047562E+02 -0.12737095167E+02  0.12222021026E+03  0.12796905123E+03  0.00000000000E+00 0. -1.
         -2    1    1    2    0  502  0.30852381273E+02  0.27181405820E+02  0.52572288725E+03  0.52732841041E+03  0.00000000000E+00 0.  1.
<mgrwt>
<rscale>  2 0.80446946E+02</rscale>
<asrwt>0</asrwt>
<pdfrwt beam="1">  1       21 0.26186909E+00 0.80446946E+02</pdfrwt>
<pdfrwt beam="2">  1       21 0.81100289E-03 0.80446946E+02</pdfrwt>
<totfact> 0.32279909E+05</totfact>
</mgrwt>
</event>
<event>
 5    1  0.1959123E+000  0.8872398E+02  0.7546771E-02  0.1305972E+00
         21   -1    0    0  501  502  0.00000000000E+00  0.00000000000E+00  0.26678614730E+03  0.26678614730E+03  0.00000000000E+00 0. -1.
         21   -1    0    0  502  503 -0.00000000000E+00 -0.00000000000E+00 -0.11599454322E+03  0.11599454322E+03  0.00000000000E+00 0.  1.
         24    1    1    2    0    0 -0.50684694277E+02  0.37376313367E+02  0.99025178689E+02  0.14226429279E+03  0.80419002446E+02 0.  0.
          1    1    1    2  501    0  0.52384490741E+02 -0.17314924492E+02  0.13975639868E+03  0.15025242911E+03  0.00000000000E+00 0. -1.
         -2    1    1    2    0  503 -0.16997964632E+01 -0.20061388874E+02 -0.87989973289E+02  0.90263968619E+02  0.00000000000E+00 0.  1.
<mgrwt>
<rscale>  2 0.88723978E+02</rscale>
<asrwt>0</asrwt>
<pdfrwt beam="1">  1       21 0.41044023E-01 0.88723978E+02</pdfrwt>
<pdfrwt beam="2">  1       21 0.17845314E-01 0.88723978E+02</pdfrwt>
<totfact> 0.16853731E+05</totfact>
</mgrwt>
</event>
<event>
 5    1  0.1959123E+000  0.9200193E+02  0.7546771E-02  0.1298075E+00
         21   -1    0    0  501  502  0.00000000000E+00  0.00000000000E+00  0.10838930391E+03  0.10838930391E+03  0.00000000000E+00 0. -1.
         21   -1    0    0  502  503 -0.00000000000E+00 -0.00000000000E+00 -0.82287596928E+02  0.82287596928E+02  0.00000000000E+00 0. -1.
         24    1    1    2    0    0  0.40858515585E+02 -0.58388193849E+02  0.25153482760E+02  0.11035630080E+03  0.80419002446E+02 0. -1.
          1    1    1    2  501    0 -0.37150347820E+02  0.29530206623E+02  0.12403835111E+02  0.49051366666E+02  0.00000000000E+00 0. -1.
         -2    1    1    2    0  503 -0.37081677647E+01  0.28857987227E+02 -0.11455610887E+02  0.31269233373E+02  0.00000000000E+00 0.  1.
<mgrwt>
<rscale>  2 0.92001933E+02</rscale>
<asrwt>0</asrwt>
<pdfrwt beam="1">  1       21 0.16675277E-01 0.92001933E+02</pdfrwt>
<pdfrwt beam="2">  1       21 0.12659630E-01 0.92001933E+02</pdfrwt>
<totfact> 0.16993658E+06</totfact>
</mgrwt>
</event>
<event>
 5    1  0.1959123E+000  0.1008716E+03  0.7546771E-02  0.1278474E+00
         21   -1    0    0  501  502  0.00000000000E+00  0.00000000000E+00  0.33111597972E+03  0.33111597972E+03  0.00000000000E+00 0.  1.
         21   -1    0    0  502  503 -0.00000000000E+00 -0.00000000000E+00 -0.31333866297E+02  0.31333866297E+02  0.00000000000E+00 0.  1.
         24    1    1    2    0    0  0.65113261984E+02 -0.15035904625E+02  0.15088739412E+03  0.18357569821E+03  0.80419002446E+02 0.  1.
          1    1    1    2  501    0 -0.22813339256E+02  0.41449271555E+02  0.90192740584E+02  0.10184901087E+03  0.00000000000E+00 0. -1.
         -2    1    1    2    0  503 -0.42299922728E+02 -0.26413366930E+02  0.58701978713E+02  0.77025136937E+02  0.00000000000E+00 0.  1.
<mgrwt>
<rscale>  2 0.10087157E+03</rscale>
<asrwt>0</asrwt>
<pdfrwt beam="1">  1       21 0.50940918E-01 0.10087157E+03</pdfrwt>
<pdfrwt beam="2">  1       21 0.48205950E-02 0.10087157E+03</pdfrwt>
<totfact> 0.10479427E+06</totfact>
</mgrwt>
</event>
<event>
 5    1  0.1959123E+000  0.1091159E+03  0.7546771E-02  0.1262216E+00
         21   -1    0    0  501  502  0.00000000000E+00  0.00000000000E+00  0.33508376730E+02  0.33508376730E+02  0.00000000000E+00 0.  1.
         21   -1    0    0  502  503 -0.00000000000E+00 -0.00000000000E+00 -0.41781852527E+03  0.41781852527E+03  0.00000000000E+00 0.  1.
         24    1    1    2    0    0  0.83539886201E+02 -0.34129817020E+02 -0.29367971557E+03  0.31758266370E+03  0.80419002446E+02 0.  1.
          1    1    1    2  501    0 -0.18806891887E+02 -0.76586022410E+01 -0.11673357344E+02  0.23422652335E+02  0.00000000000E+00 0. -1.
         -2    1    1    2    0  503 -0.64732994314E+02  0.41788419261E+02 -0.78957075633E+02  0.11032158596E+03  0.00000000000E+00 0.  1.
<mgrwt>
<rscale>  2 0.10911594E+03</rscale>
<asrwt>0</asrwt>
<pdfrwt beam="1">  1       21 0.51551347E-02 0.10911594E+03</pdfrwt>
<pdfrwt beam="2">  1       21 0.64279775E-01 0.10911594E+03</pdfrwt>
<totfact> 0.57572866E+05</totfact>
</mgrwt>
</event>
<event>
 5    1  0.1959123E+000  0.9134136E+02  0.7546771E-02  0.1299636E+00
         21   -1    0    0  503  502  0.00000000000E+00  0.00000000000E+00  0.16051741044E+04  0.16051741044E+04  0.00000000000E+00 0. -1.
         21   -1    0    0  501  503 -0.00000000000E+00 -0.00000000000E+00 -0.55823781703E+01  0.55823781703E+01  0.00000000000E+00 0. -1.
         24    1    1    2    0    0  0.65797007343E+02 -0.33402709260E+01  0.90273559096E+03  0.90870191302E+03  0.80419002446E+02 0. -1.
          1    1    1    2  501    0 -0.42294781688E+02 -0.18936779736E+02  0.26794376877E+03  0.27192152068E+03  0.00000000000E+00 0. -1.
         -2    1    1    2    0  502 -0.23502225654E+02  0.22277050662E+02  0.42891236653E+03  0.43013304891E+03  0.00000000000E+00 0.  1.
<mgrwt>
<rscale>  2 0.91341359E+02</rscale>
<asrwt>0</asrwt>
<pdfrwt beam="1">  1       21 0.24694949E+00 0.91341359E+02</pdfrwt>
<pdfrwt beam="2">  1       21 0.85882869E-03 0.91341359E+02</pdfrwt>
<totfact> 0.35360345E+05</totfact>
</mgrwt>
</event>
<event>
 5    1  0.1959123E+000  0.1293973E+03  0.7546771E-02  0.1228353E+00
         21   -1    0    0  503  502  0.00000000000E+00  0.00000000000E+00  0.18025320898E+03  0.18025320898E+03  0.00000000000E+00 0.  1.
         21   -1    0    0  501  503 -0.00000000000E+00 -0.00000000000E+00 -0.22488172461E+04  0.22488172461E+04  0.00000000000E+00 0. -1.
         24    1    1    2    0    0 -0.10859523068E+02 -0.99172218393E+02 -0.21357320555E+04  0.21395727814E+04  0.80419002446E+02 0. -1.
          1    1    1    2  501    0 -0.36774827709E+02  0.51298080632E+02 -0.94870527480E+02  0.11394866394E+03  0.00000000000E+00 0. -1.
         -2    1    1    2    0  502  0.47634350777E+02  0.47874137760E+02  0.16203854591E+03  0.17554900968E+03  0.00000000000E+00 0.  1.
<mgrwt>
<rscale>  2 0.12939726E+03</rscale>
<asrwt>0</asrwt>
<pdfrwt beam="1">  1       21 0.27731264E-01 0.12939726E+03</pdfrwt>
<pdfrwt beam="2">  1       21 0.34597188E+00 0.12939726E+03</pdfrwt>
<totfact> 0.25951154E+02</totfact>
</mgrwt>
</event>
<event>
 5    1  0.1959123E+000  0.8750243E+02  0.7546771E-02  0.1309015E+00
         21   -1    0    0  503  502  0.00000000000E+00  0.00000000000E+00  0.52942243366E+01  0.52942243366E+01  0.00000000000E+00 0.  1.
         21   -1    0    0  501  503 -0.00000000000E+00 -0.00000000000E+00 -0.22842736408E+04  0.22842736408E+04  0.00000000000E+00 0. -1.
         24    1    1    2    0    0  0.18921866124E+02  0.17273527471E+02 -0.63901092523E+03  0.64456077315E+03  0.80419002446E+02 0. -1.
          1    1    1    2  501    0 -0.89423388150E+01 -0.52876907297E+02 -0.14737597897E+04  0.14747351797E+04  0.00000000000E+00 0. -1.
         -2    1    1    2    0  502 -0.99795273089E+01  0.35603379826E+02 -0.16620870160E+03  0.17027191227E+03  0.00000000000E+00 0.  1.
<mgrwt>
<rscale>  2 0.87502432E+02</rscale>
<asrwt>0</asrwt>
<pdfrwt beam="1">  1       21 0.81449257E-03 0.87502432E+02</pdfrwt>
<pdfrwt beam="2">  1       21 0.35142822E+00 0.87502432E+02</pdfrwt>
<totfact> 0.10213319E+05</totfact>
</mgrwt>
</event>
<event>
 5    1  0.1959123E+000  0.6319926E+02  0.7546771E-02  0.1384876E+00
         21   -1    0    0  503  502  0.00000000000E+00  0.00000000000E+00  0.75536404595E+02  0.75536404595E+02  0.00000000000E+00 0. -1.
         21   -1    0    0  501  503 -0.00000000000E+00 -0.00000000000E+00 -0.69126524113E+02  0.69126524113E+02  0.00000000000E+00 0.  1.
         24    1    1    2    0    0 -0.19552267259E+02 -0.15453699596E+02  0.31675075191E+02  0.89953512043E+02  0.80419002446E+02 0. -1.
          1    1    1    2  501    0  0.20047776857E+02 -0.58601630796E+01 -0.26032699831E+02  0.33375984311E+02  0.00000000000E+00 0. -1.
         -2    1    1    2    0  502 -0.49550959834E+00  0.21313862675E+02  0.76750512259E+00  0.21333432354E+02  0.00000000000E+00 0.  1.
<mgrwt>
<rscale>  2 0.63199261E+02</rscale>
<asrwt>0</asrwt>
<pdfrwt beam="1">  1       21 0.11620985E-01 0.63199261E+02</pdfrwt>
<pdfrwt beam="2">  1       21 0.10634850E-01 0.63199261E+02</pdfrwt>
<totfact> 0.42671836E+06</totfact>
</mgrwt>
</event>
<event>
 5    1  0.1959123E+000  0.1076918E+03  0.7546771E-02  0.1264905E+00
         21   -1    0    0  501  502  0.00000000000E+00  0.00000000000E+00  0.35807690814E+02  0.35807690814E+02  0.00000000000E+00 0. -1.
         21   -1    0    0  502  503 -0.00000000000E+00 -0.00000000000E+00 -0.44079692624E+03  0.44079692624E+03  0.00000000000E+00 0. -1.
         24    1    1    2    0    0  0.94541904460E+01 -0.52925704944E+02 -0.25076496081E+03  0.26877647494E+03  0.80419002446E+02 0. -1.
          1    1    1    2  501    0 -0.39045115186E+01  0.85507790053E+02 -0.51448814657E+02  0.99868953632E+02  0.00000000000E+00 0. -1.
         -2    1    1    2    0  503 -0.55496789274E+01 -0.32582085109E+02 -0.10277545997E+03  0.10795918848E+03  0.00000000000E+00 0.  1.
<mgrwt>
<rscale>  2 0.10769179E+03</rscale>
<asrwt>0</asrwt>
<pdfrwt beam="1">  1       21 0.55088756E-02 0.10769179E+03</pdfrwt>
<pdfrwt beam="2">  1       21 0.67814911E-01 0.10769179E+03</pdfrwt>
<totfact> 0.45917413E+05</totfact>
</mgrwt>
</event>
<event>
 5    1  0.1959123E+000  0.1602348E+03  0.7546771E-02  0.1188432E+00
         21   -1    0    0  503  502  0.00000000000E+00  0.00000000000E+00  0.47207082797E+03  0.47207082797E+03  0.00000000000E+00 0.  1.
         21   -1    0    0  501  503 -0.00000000000E+00 -0.00000000000E+00 -0.74487254812E+02  0.74487254812E+02  0.00000000000E+00 0. -1.
         24    1    1    2    0    0  0.10757852384E+02  0.10059520338E+03  0.28612795566E+03  0.31396106334E+03  0.80419002446E+02 0.  1.
          1    1    1    2  501    0 -0.81744075511E+02 -0.86208993218E+02  0.27930433454E+02  0.12204176951E+03  0.00000000000E+00 0. -1.
         -2    1    1    2    0  502  0.70986223127E+02 -0.14386210163E+02  0.83525184041E+02  0.11055524992E+03  0.00000000000E+00 0.  1.
<mgrwt>
<rscale>  2 0.16023479E+03</rscale>
<asrwt>0</asrwt>
<pdfrwt beam="1">  1       21 0.72626280E-01 0.16023479E+03</pdfrwt>
<pdfrwt beam="2">  1       21 0.11459578E-01 0.16023479E+03</pdfrwt>
<totfact> 0.11022429E+05</totfact>
</mgrwt>
</event>
<event>
 5    1  0.1959123E+000  0.9282205E+02  0.7546771E-02  0.1296158E+00
         21   -1    0    0  503  502  0.00000000000E+00  0.00000000000E+00  0.41106236705E+03  0.41106236705E+03  0.00000000000E+00 0.  1.
         21   -1    0    0  501  503 -0.00000000000E+00 -0.00000000000E+00 -0.50280172706E+02  0.50280172706E+02  0.00000000000E+00 0. -1.
         24    1    1    2    0    0 -0.63223278882E+02 -0.39688328277E+02  0.11610463264E+03  0.15974932885E+03  0.80419002446E+02 0. -1.
          1    1    1    2  501    0  0.40511252357E+02  0.17374620562E+02 -0.97796699871E+01  0.45151754697E+02  0.00000000000E+00 0. -1.
         -2    1    1    2    0  502  0.22712026524E+02  0.22313707716E+02  0.25445723170E+03  0.25644145621E+03  0.00000000000E+00 0.  1.
<mgrwt>
<rscale>  2 0.92822052E+02</rscale>
<asrwt>0</asrwt>
<pdfrwt beam="1">  1       21 0.63240362E-01 0.92822052E+02</pdfrwt>
<pdfrwt beam="2">  1       21 0.77354115E-02 0.92822052E+02</pdfrwt>
<totfact> 0.30080061E+05</totfact>
</mgrwt>
</event>
<event>
 5    1  0.1959123E+000  0.9921258E+02  0.7546771E-02  0.1281961E+00
         21   -1    0    0  501  502  0.00000000000E+00  0.00000000000E+00  0.76101421497E+02  0.76101421497E+02  0.00000000000E+00 0. -1.
         21   -1    0    0  502  503 -0.00000000000E+00 -0.00000000000E+00 -0.18921002879E+03  0.18921002879E+03  0.00000000000E+00 0. -1.
         24    1    1    2    0    0 -0.81713674026E+02  0.13938861472E+02 -0.12773017408E+02  0.11619716997E+03  0.80419002446E+02 0. -1.
          1    1    1    2  501    0  0.26006859564E+02 -0.32500533400E+01  0.75076895853E+01  0.27263253547E+02  0.00000000000E+00 0. -1.
         -2    1    1    2    0  503  0.55706814463E+02 -0.10688808132E+02 -0.10784327947E+03  0.12185102677E+03  0.00000000000E+00 0.  1.
<mgrwt>
<rscale>  2 0.99212579E+02</rscale>
<asrwt>0</asrwt>
<pdfrwt beam="1">  1       21 0.11707911E-01 0.99212579E+02</pdfrwt>
<pdfrwt beam="2">  1       21 0.29109235E-01 0.99212579E+02</pdfrwt>
<totfact> 0.69582390E+05</totfact>
</mgrwt>
</event>
<event>
 5    1  0.1959123E+000  0.9040381E+02  0.7546771E-02  0.1301877E+00
         21   -1    0    0  501  502  0.00000000000E+00  0.00000000000E+00  0.13382131643E+03  0.13382131643E+03  0.00000000000E+00 0.  1.
         21   -1    0    0  502  503 -0.00000000000E+00 -0.00000000000E+00 -0.16460564322E+03  0.16460564322E+03  0.00000000000E+00 0.  1.
         24    1    1    2    0    0 -0.29538408104E+02  0.41238509236E+02  0.93321609937E+02  0.13322639015E+03  0.80419002446E+02 0.  1.
          1    1    1    2  501    0 -0.22323948239E+02 -0.63077151160E+01  0.31513102629E+01  0.23411037810E+02  0.00000000000E+00 0. -1.
         -2    1    1    2    0  503  0.51862356343E+02 -0.34930794120E+02 -0.12725724699E+03  0.14178953168E+03  0.00000000000E+00 0.  1.
<mgrwt>
<rscale>  2 0.90403813E+02</rscale>
<asrwt>0</asrwt>
<pdfrwt beam="1">  1       21 0.20587895E-01 0.90403813E+02</pdfrwt>
<pdfrwt beam="2">  1       21 0.25323945E-01 0.90403813E+02</pdfrwt>
<totfact> 0.32911950E+05</totfact>
</mgrwt>
</event>
<event>
 5    1  0.1959123E+000  0.7674403E+02  0.7546771E-02  0.1338554E+00
         21   -1    0    0  503  502  0.00000000000E+00  0.00000000000E+00  0.58868234106E+03  0.58868234106E+03  0.00000000000E+00 0. -1.
         21   -1    0    0  501  503 -0.00000000000E+00 -0.00000000000E+00 -0.15843132561E+02  0.15843132561E+02  0.00000000000E+00 0.  1.
         24    1    1    2    0    0  0.66880899705E+01 -0.20318723370E+02  0.13702323574E+03  0.16031270740E+03  0.80419002446E+02 0.  1.
          1    1    1    2  501    0 -0.34549280164E+02 -0.19519408446E+01  0.87791813339E+02  0.94365593954E+02  0.00000000000E+00 0. -1.
         -2    1    1    2    0  502  0.27861190193E+02  0.22270664215E+02  0.34802415942E+03  0.34984717227E+03  0.00000000000E+00 0.  1.
<mgrwt>
<rscale>  2 0.76744026E+02</rscale>
<asrwt>0</asrwt>
<pdfrwt beam="1">  1       21 0.90566497E-01 0.76744026E+02</pdfrwt>
<pdfrwt beam="2">  1       21 0.24374055E-02 0.76744026E+02</pdfrwt>
<totfact> 0.92530604E+05</totfact>
</mgrwt>
</event>
<event>
 5    1  0.1959123E+000  0.8851656E+02  0.7546771E-02  0.1306484E+00
         21   -1    0    0  503  502  0.00000000000E+00  0.00000000000E+00  0.97171476274E+02  0.97171476274E+02  0.00000000000E+00 0. -1.
         21   -1    0    0  501  503 -0.00000000000E+00 -0.00000000000E+00 -0.16217173667E+03  0.16217173667E+03  0.00000000000E+00 0. -1.
         24    1    1    2    0    0  0.28152120739E+02  0.33848662649E+02 -0.36219379433E+02  0.98576535069E+02  0.80419002446E+02 0. -1.
          1    1    1    2  501    0 -0.52624116305E+02 -0.30012210146E+02 -0.82066630750E+02  0.10200471684E+03  0.00000000000E+00 0. -1.
         -2    1    1    2    0  502  0.24471995566E+02 -0.38364525036E+01  0.53285749786E+02  0.58761961038E+02  0.00000000000E+00 0.  1.
<mgrwt>
<rscale>  2 0.88516561E+02</rscale>
<asrwt>0</asrwt>
<pdfrwt beam="1">  1       21 0.14949458E-01 0.88516561E+02</pdfrwt>
<pdfrwt beam="2">  1       21 0.24949498E-01 0.88516561E+02</pdfrwt>
<totfact> 0.60377351E+05</totfact>
</mgrwt>
</event>
<event>
 5    1  0.1959123E+000  0.1229670E+03  0.7546771E-02  0.1238281E+00
         21   -1    0    0  501  502  0.00000000000E+00  0.00000000000E+00  0.63116795416E+03  0.63116795416E+03  0.00000000000E+00 0.  1.
         21   -1    0    0  502  503 -0.00000000000E+00 -0.00000000000E+00 -0.44754602313E+02  0.44754602313E+02  0.00000000000E+00 0.  1.
         24    1    1    2    0    0  0.89370086058E+02  0.43562398969E+02  0.50298074240E+03  0.51898125021E+03  0.80419002446E+02 0.  1.
          1    1    1    2  501    0 -0.43599490252E+02  0.12812872994E+02  0.69441962150E+02  0.82989585924E+02  0.00000000000E+00 0. -1.
         -2    1    1    2    0  503 -0.45770595806E+02 -0.56375271963E+02  0.13990647292E+02  0.73951720339E+02  0.00000000000E+00 0.  1.
<mgrwt>
<rscale>  2 0.12296702E+03</rscale>
<asrwt>0</asrwt>
<pdfrwt beam="1">  1       21 0.97102755E-01 0.12296702E+03</pdfrwt>
<pdfrwt beam="2">  1       21 0.68853239E-02 0.12296702E+03</pdfrwt>
<totfact> 0.14055947E+05</totfact>
</mgrwt>
</event>
<event>
 5    1  0.1959123E+000  0.1254649E+03  0.7546771E-02  0.1234345E+00
         21   -1    0    0  501  502  0.00000000000E+00  0.00000000000E+00  0.31237653431E+03  0.31237653431E+03  0.00000000000E+00 0. -1.
         21   -1    0    0  502  503 -0.00000000000E+00 -0.00000000000E+00 -0.11993509391E+03  0.11993509391E+03  0.00000000000E+00 0.  1.
         24    1    1    2    0    0  0.36265916877E+02 -0.72736403925E+02 -0.47916941935E+01  0.11443765757E+03  0.80419002446E+02 0. -1.
          1    1    1    2  501    0 -0.25215948327E+02  0.10212663099E+03  0.24160741272E+03  0.26351439181E+03  0.00000000000E+00 0. -1.
         -2    1    1    2    0  503 -0.11049968550E+02 -0.29390227066E+02 -0.44374278127E+02  0.54359578836E+02  0.00000000000E+00 0.  1.
<mgrwt>
<rscale>  2 0.12546487E+03</rscale>
<asrwt>0</asrwt>
<pdfrwt beam="1">  1       21 0.48057928E-01 0.12546487E+03</pdfrwt>
<pdfrwt beam="2">  1       21 0.18451553E-01 0.12546487E+03</pdfrwt>
<totfact> 0.11374226E+05</totfact>
</mgrwt>
</event>
<event>
 5    1  0.1959123E+000  0.1199232E+03  0.7546771E-02  0.1243224E+00
         21   -1    0    0  503  502  0.00000000000E+00  0.00000000000E+00  0.16314811531E+02  0.16314811531E+02  0.00000000000E+00 0. -1.
         21   -1    0    0  501  503 -0.00000000000E+00 -0.00000000000E+00 -0.89691352937E+03  0.89691352937E+03  0.00000000000E+00 0. -1.
         24    1    1    2    0    0  0.99721172745E+02 -0.25012745524E+02 -0.47800092756E+03  0.49550181880E+03  0.80419002446E+02 0. -1.
          1    1    1    2  501    0 -0.45695335415E+02  0.30616927806E+02 -0.24271366570E+03  0.24886820501E+03  0.00000000000E+00 0. -1.
         -2    1    1    2    0  502 -0.54025837330E+02 -0.56041822819E+01 -0.15988412457E+03  0.16885831708E+03  0.00000000000E+00 0.  1.
<mgrwt>
<rscale>  2 0.11992320E+03</rscale>
<asrwt>0</asrwt>
<pdfrwt beam="1">  1       21 0.25099707E-02 0.11992320E+03</pdfrwt>
<pdfrwt beam="2">  1       21 0.13798671E+00 0.11992320E+03</pdfrwt>
<totfact> 0.32254081E+05</totfact>
</mgrwt>
</event>
<event>
 5    1  0.1959123E+000  0.6654093E+02  0.7546771E-02  0.1372267E+00
         21   -1    0    0  501  502  0.00000000000E+00  0.00000000000E+00  0.27710604670E+03  0.27710604670E+03  0.00000000000E+00 0.  1.
         21   -1    0    0  502  503 -0.00000000000E+00 -0.00000000000E+00 -0.25756585806E+02  0.25756585806E+02  0.00000000000E+00 0. -1.
         24    1    1    2    0    0 -0.86903616424E+01 -0.23092123647E+02  0.23504555516E+03  0.24964454233E+03  0.80419002446E+02 0.  0.
          1    1    1    2  501    0 -0.15261976547E+02  0.19469249923E+02  0.15059243664E+02  0.28961361163E+02  0.00000000000E+00 0. -1.
         -2    1    1    2    0  503  0.23952338189E+02  0.36228737236E+01  0.12446620704E+01  0.24256729013E+02  0.00000000000E+00 0.  1.
<mgrwt>
<rscale>  2 0.66540934E+02</rscale>
<asrwt>0</asrwt>
<pdfrwt beam="1">  1       21 0.42631697E-01 0.66540934E+02</pdfrwt>
<pdfrwt beam="2">  1       21 0.39625519E-02 0.66540934E+02</pdfrwt>
<totfact> 0.20464420E+06</totfact>
</mgrwt>
</event>
<event>
 5    1  0.1959123E+000  0.8971924E+02  0.7546771E-02  0.1303533E+00
         21   -1    0    0  503  502  0.00000000000E+00  0.00000000000E+00  0.54210612080E+02  0.54210612080E+02  0.00000000000E+00 0. -1.
         21   -1    0    0  501  503 -0.00000000000E+00 -0.00000000000E+00 -0.15017209766E+03  0.15017209766E+03  0.00000000000E+00 0.  1.
         24    1    1    2    0    0 -0.23941806326E+02  0.36704721980E+02 -0.56677016051E+02  0.10770304921E+03  0.80419002446E+02 0.  0.
          1    1    1    2  501    0  0.50767786429E+02 -0.13877059981E+02 -0.18536201321E+02  0.55799029490E+02  0.00000000000E+00 0. -1.
         -2    1    1    2    0  502 -0.26825980103E+02 -0.22827661999E+02 -0.20748268207E+02  0.40880631042E+02  0.00000000000E+00 0.  1.
<mgrwt>
<rscale>  2 0.89719243E+02</rscale>
<asrwt>0</asrwt>
<pdfrwt beam="1">  1       21 0.83400943E-02 0.89719243E+02</pdfrwt>
<pdfrwt beam="2">  1       21 0.23103399E-01 0.89719243E+02</pdfrwt>
<totfact> 0.19309488E+06</totfact>
</mgrwt>
</event>
<event>
 5    1  0.1959123E+000  0.1039480E+03  0.7546771E-02  0.1272206E+00
         21   -1    0    0  503  502  0.00000000000E+00  0.00000000000E+00  0.21421417836E+02  0.21421417836E+02  0.00000000000E+00 0. -1.
         21   -1    0    0  501  503 -0.00000000000E+00 -0.00000000000E+00 -0.52899788341E+03  0.52899788341E+03  0.00000000000E+00 0.  1.
         24    1    1    2    0    0 -0.58674218773E+02 -0.80461750080E+01 -0.22418427390E+03  0.24542454951E+03  0.80419002446E+02 0.  0.
          1    1    1    2  501    0  0.41941365006E+02  0.48574712997E+02 -0.20911758695E+03  0.21874356222E+03  0.00000000000E+00 0. -1.
         -2    1    1    2    0  502  0.16732853768E+02 -0.40528537989E+02 -0.74274604721E+02  0.86251189518E+02  0.00000000000E+00 0.  1.
<mgrwt>
<rscale>  2 0.10394805E+03</rscale>
<asrwt>0</asrwt>
<pdfrwt beam="1">  1       21 0.32956029E-02 0.10394805E+03</pdfrwt>
<pdfrwt beam="2">  1       21 0.81384285E-01 0.10394805E+03</pdfrwt>
<totfact> 0.72201376E+05</totfact>
</mgrwt>
</event>
<event>
 5    1  0.1959123E+000  0.7080809E+02  0.7546771E-02  0.1357366E+00
         21   -1    0    0  503  502  0.00000000000E+00  0.00000000000E+00  0.56531300991E+02  0.56531300991E+02  0.00000000000E+00 0.  1.
         21   -1    0    0  501  503 -0.00000000000E+00 -0.00000000000E+00 -0.20047554532E+03  0.20047554532E+03  0.00000000000E+00 0.  1.
         24    1    1    2    0    0 -0.44002635558E+01  0.11649942249E+02 -0.12489481183E+03  0.14906714410E+03  0.80419002446E+02 0.  1.
          1    1    1    2  501    0 -0.13766823349E+02 -0.30864428682E+02 -0.54248650773E+02  0.63914431028E+02  0.00000000000E+00 0. -1.
         -2    1    1    2    0  502  0.18167086905E+02  0.19214486433E+02  0.35199218274E+02  0.44025271181E+02  0.00000000000E+00 0.  1.
<mgrwt>
<rscale>  2 0.70808094E+02</rscale>
<asrwt>0</asrwt>
<pdfrwt beam="1">  1       21 0.86971233E-02 0.70808094E+02</pdfrwt>
<pdfrwt beam="2">  1       21 0.30842391E-01 0.70808094E+02</pdfrwt>
<totfact> 0.10365144E+06</totfact>
</mgrwt>
</event>
<event>
 5    1  0.1959123E+000  0.7272564E+02  0.7546771E-02  0.1351062E+00
         21   -1    0    0  503  502  0.00000000000E+00  0.00000000000E+00  0.10897884833E+02  0.10897884833E+02  0.00000000000E+00 0.  1.
         21   -1    0    0  501  503 -0.00000000000E+00 -0.00000000000E+00 -0.62307604501E+03  0.62307604501E+03  0.00000000000E+00 0.  1.
         24    1    1    2    0    0 -0.88856249418E+01 -0.37256502066E+02 -0.43356167330E+03  0.44261715035E+03  0.80419002446E+02 0.  1.
          1    1    1    2  501    0  0.22077790076E+02  0.66643628858E+01 -0.13234665640E+03  0.13434090966E+03  0.00000000000E+00 0. -1.
         -2    1    1    2    0  502 -0.13192165134E+02  0.30592139180E+02 -0.46269830477E+02  0.57015869834E+02  0.00000000000E+00 0.  1.
<mgrwt>
<rscale>  2 0.72725640E+02</rscale>
<asrwt>0</asrwt>
<pdfrwt beam="1">  1       21 0.16765971E-02 0.72725640E+02</pdfrwt>
<pdfrwt beam="2">  1       21 0.95857886E-01 0.72725640E+02</pdfrwt>
<totfact> 0.14752522E+06</totfact>
</mgrwt>
</event>
<event>
 5    1  0.1959123E+000  0.8408908E+02  0.7546771E-02  0.1317832E+00
         21   -1    0    0  503  502  0.00000000000E+00  0.00000000000E+00  0.17413242012E+03  0.17413242012E+03  0.00000000000E+00 0.  1.
         21   -1    0    0  501  503 -0.00000000000E+00 -0.00000000000E+00 -0.49882459694E+02  0.49882459694E+02  0.00000000000E+00 0. -1.
         24    1    1    2    0    0 -0.17192732820E+02 -0.23530778519E+02  0.92661824671E+02  0.12610597649E+03  0.80419002446E+02 0.  1.
          1    1    1    2  501    0 -0.92460417473E+01 -0.25396844536E+02 -0.96232950193E+01  0.28689663773E+02  0.00000000000E+00 0. -1.
         -2    1    1    2    0  502  0.26438774568E+02  0.48927623055E+02  0.41211430779E+02  0.69219239560E+02  0.00000000000E+00 0.  1.
<mgrwt>
<rscale>  2 0.84089080E+02</rscale>
<asrwt>0</asrwt>
<pdfrwt beam="1">  1       21 0.26789603E-01 0.84089080E+02</pdfrwt>
<pdfrwt beam="2">  1       21 0.76742246E-02 0.84089080E+02</pdfrwt>
<totfact> 0.16835895E+06</totfact>
</mgrwt>
</event>
<event>
 5    1  0.1959123E+000  0.8900093E+02  0.7546771E-02  0.1305289E+00
         21   -1    0    0  503  502  0.00000000000E+00  0.00000000000E+00  0.23580496020E+02  0.23580496020E+02  0.00000000000E+00 0.  1.
         21   -1    0    0  501  503 -0.00000000000E+00 -0.00000000000E+00 -0.82755648024E+03  0.82755648024E+03  0.00000000000E+00 0. -1.
         24    1    1    2    0    0  0.99975554015E+01  0.29197121352E+02 -0.29794939729E+03  0.31015074127E+03  0.80419002446E+02 0. -1.
          1    1    1    2  501    0 -0.48086465912E+02 -0.96212574023E+01 -0.49410533162E+03  0.49653293499E+03  0.00000000000E+00 0. -1.
         -2    1    1    2    0  502  0.38088910510E+02 -0.19575863950E+02 -0.11921255319E+02  0.44453300008E+02  0.00000000000E+00 0.  1.
<mgrwt>
<rscale>  2 0.89000928E+02</rscale>
<asrwt>0</asrwt>
<pdfrwt beam="1">  1       21 0.36277684E-02 0.89000928E+02</pdfrwt>
<pdfrwt beam="2">  1       21 0.12731639E+00 0.89000928E+02</pdfrwt>
<totfact> 0.21829582E+05</totfact>
</mgrwt>
</event>
<event>
 5    1  0.1959123E+000  0.1049682E+03  0.7546771E-02  0.1270182E+00
         21   -1    0    0  501  502  0.00000000000E+00  0.00000000000E+00  0.10436296468E+03  0.10436296468E+03  0.00000000000E+00 0.  1.
         21   -1    0    0  502  503 -0.00000000000E+00 -0.00000000000E+00 -0.10662045071E+03  0.10662045071E+03  0.00000000000E+00 0. -1.
         24    1    1    2    0    0  0.54801329789E+01 -0.17699089972E+02 -0.83583380157E+01  0.82947980157E+02  0.80419002446E+02 0.  0.
          1    1    1    2  501    0 -0.56576595892E+02 -0.24001957613E+02  0.84782539891E+01  0.62039390413E+02  0.00000000000E+00 0. -1.
         -2    1    1    2    0  503  0.51096462914E+02  0.41701047586E+02 -0.23774020074E+01  0.65996044823E+02  0.00000000000E+00 0.  1.
<mgrwt>
<rscale>  2 0.10496817E+03</rscale>
<asrwt>0</asrwt>
<pdfrwt beam="1">  1       21 0.16055841E-01 0.10496817E+03</pdfrwt>
<pdfrwt beam="2">  1       21 0.16403146E-01 0.10496817E+03</pdfrwt>
<totfact> 0.11499004E+06</totfact>
</mgrwt>
</event>
<event>
 5    1  0.1959123E+000  0.8878041E+02  0.7546771E-02  0.1305832E+00
         21   -1    0    0  501  502  0.00000000000E+00  0.00000000000E+00  0.41578130137E+03  0.41578130137E+03  0.00000000000E+00 0. -1.
         21   -1    0    0  502  503 -0.00000000000E+00 -0.00000000000E+00 -0.27156263572E+02  0.27156263572E+02  0.00000000000E+00 0.  1.
         24    1    1    2    0    0 -0.35116204268E+02 -0.58426884327E+02  0.26699982302E+03  0.28705917519E+03  0.80419002446E+02 0. -1.
          1    1    1    2  501    0  0.33269219055E+02  0.33747565886E+02  0.12225884464E+03  0.13112194413E+03  0.00000000000E+00 0. -1.
         -2    1    1    2    0  503  0.18469852129E+01  0.24679318440E+02 -0.63362986033E+00  0.24756445623E+02  0.00000000000E+00 0.  1.
<mgrwt>
<rscale>  2 0.88780415E+02</rscale>
<asrwt>0</asrwt>
<pdfrwt beam="1">  1       21 0.63966349E-01 0.88780415E+02</pdfrwt>
<pdfrwt beam="2">  1       21 0.41778870E-02 0.88780415E+02</pdfrwt>
<totfact> 0.82466848E+05</totfact>
</mgrwt>
</event>
<event>
 5    1  0.1959123E+000  0.6979105E+02  0.7546771E-02  0.1360805E+00
         21   -1    0    0  501  502  0.00000000000E+00  0.00000000000E+00  0.19120253237E+03  0.19120253237E+03  0.00000000000E+00 0.  1.
         21   -1    0    0  502  503 -0.00000000000E+00 -0.00000000000E+00 -0.34491141666E+02  0.34491141666E+02  0.00000000000E+00 0. -1.
         24    1    1    2    0    0  0.26564591112E+02 -0.13122921717E+02  0.12616012572E+03  0.15251715265E+03  0.80419002446E+02 0.  1.
          1    1    1    2  501    0 -0.32583355179E+02 -0.66108963636E+01  0.38676912645E+02  0.51002770094E+02  0.00000000000E+00 0. -1.
         -2    1    1    2    0  503  0.60187640671E+01  0.19733818080E+02 -0.81256476562E+01  0.22173751301E+02  0.00000000000E+00 0.  1.
<mgrwt>
<rscale>  2 0.69791045E+02</rscale>
<asrwt>0</asrwt>
<pdfrwt beam="1">  1       21 0.29415774E-01 0.69791045E+02</pdfrwt>
<pdfrwt beam="2">  1       21 0.53063296E-02 0.69791045E+02</pdfrwt>
<totfact> 0.25993952E+06</totfact>
</mgrwt>
</event>
<event>
 5    1  0.1959123E+000  0.6916047E+02  0.7546771E-02  0.1362971E+00
         21   -1    0    0  503  502  0.00000000000E+00  0.00000000000E+00  0.75927758080E+02  0.75927758080E+02  0.00000000000E+00 0. -1.
         21   -1    0    0  501  503 -0.00000000000E+00 -0.00000000000E+00 -0.79219966209E+02  0.79219966209E+02  0.00000000000E+00 0. -1.
         24    1    1    2    0    0  0.28494982544E+02 -0.59294160344E+01 -0.36249190794E+02  0.92888867967E+02  0.80419002446E+02 0. -1.
          1    1    1    2  501    0 -0.28282867939E+02 -0.14899239647E+02  0.19045048469E+02  0.37210507012E+02  0.00000000000E+00 0. -1.
         -2    1    1    2    0  502 -0.21211460587E+00  0.20828655682E+02  0.13911934195E+02  0.25048349310E+02  0.00000000000E+00 0.  1.
<mgrwt>
<rscale>  2 0.69160467E+02</rscale>
<asrwt>0</asrwt>
<pdfrwt beam="1">  1       21 0.11681194E-01 0.69160467E+02</pdfrwt>
<pdfrwt beam="2">  1       21 0.12187687E-01 0.69160467E+02</pdfrwt>
<totfact> 0.33609546E+06</totfact>
</mgrwt>
</event>
<event>
 5    1  0.1959123E+000  0.7839600E+02  0.7546771E-02  0.1333666E+00
         21   -1    0    0  503  502  0.00000000000E+00  0.00000000000E+00  0.38206064147E+03  0.38206064147E+03  0.00000000000E+00 0.  1.
         21   -1    0    0  501  503 -0.00000000000E+00 -0.00000000000E+00 -0.18413406349E+02  0.18413406349E+02  0.00000000000E+00 0.  1.
         24    1    1    2    0    0  0.25247477662E+02  0.15685099935E+02  0.26679842757E+03  0.28023574789E+03  0.80419002446E+02 0.  1.
          1    1    1    2  501    0  0.12701044393E+02 -0.28337581116E+02  0.37883310381E+02  0.48984489766E+02  0.00000000000E+00 0. -1.
         -2    1    1    2    0  502 -0.37948522055E+02  0.12652481182E+02  0.58965497172E+02  0.71253810164E+02  0.00000000000E+00 0.  1.
<mgrwt>
<rscale>  2 0.78396004E+02</rscale>
<asrwt>0</asrwt>
<pdfrwt beam="1">  1       21 0.58778555E-01 0.78396004E+02</pdfrwt>
<pdfrwt beam="2">  1       21 0.28328320E-02 0.78396004E+02</pdfrwt>
<totfact> 0.18521705E+06</totfact>
</mgrwt>
</event>
<event>
 5    1  0.1959123E+000  0.6416997E+02  0.7546771E-02  0.1381121E+00
         21   -1    0    0  503  502  0.00000000000E+00  0.00000000000E+00  0.25790595603E+02  0.25790595603E+02  0.00000000000E+00 0. -1.
         21   -1    0    0  501  503 -0.00000000000E+00 -0.00000000000E+00 -0.18714807543E+03  0.18714807543E+03  0.00000000000E+00 0.  1.
         24    1    1    2    0    0 -0.48375958997E+00 -0.52934848788E+01 -0.11979717728E+03  0.14438432963E+03  0.80419002446E+02 0.  1.
          1    1    1    2  501    0  0.13978315058E+02 -0.16801188670E+02 -0.35936691086E+02  0.42060896315E+02  0.00000000000E+00 0. -1.
         -2    1    1    2    0  502 -0.13494555468E+02  0.22094673549E+02 -0.56236114619E+01  0.26493445084E+02  0.00000000000E+00 0.  1.
<mgrwt>
<rscale>  2 0.64169971E+02</rscale>
<asrwt>0</asrwt>
<pdfrwt beam="1">  1       21 0.39677840E-02 0.64169971E+02</pdfrwt>
<pdfrwt beam="2">  1       21 0.28792012E-01 0.64169971E+02</pdfrwt>
<totfact> 0.43409881E+06</totfact>
</mgrwt>
</event>
<event>
 5    1  0.1959123E+000  0.8911293E+02  0.7546771E-02  0.1305014E+00
         21   -1    0    0  501  502  0.00000000000E+00  0.00000000000E+00  0.47766850677E+03  0.47766850677E+03  0.00000000000E+00 0. -1.
         21   -1    0    0  502  503 -0.00000000000E+00 -0.00000000000E+00 -0.10312782770E+03  0.10312782770E+03  0.00000000000E+00 0.  1.
         24    1    1    2    0    0 -0.59785432369E+02 -0.15345041685E+02  0.85530344302E+02  0.13263643534E+03  0.80419002446E+02 0.  0.
          1    1    1    2  501    0  0.56675509971E+01  0.21637937651E+02  0.35887028132E+03  0.35956668407E+03  0.00000000000E+00 0. -1.
         -2    1    1    2    0  503  0.54117881372E+02 -0.62928959656E+01 -0.69859946550E+02  0.88593215066E+02  0.00000000000E+00 0.  1.
<mgrwt>
<rscale>  2 0.89112927E+02</rscale>
<asrwt>0</asrwt>
<pdfrwt beam="1">  1       21 0.73487462E-01 0.89112927E+02</pdfrwt>
<pdfrwt beam="2">  1       21 0.15865820E-01 0.89112927E+02</pdfrwt>
<totfact> 0.62231295E+04</totfact>
</mgrwt>
</event>
<event>
 5    1  0.2555890E+000  0.1129736E+03  0.7546771E-02  0.1255160E+00
         21   -1    0    0  501  502  0.00000000000E+00  0.00000000000E+00  0.38733055362E+03  0.38733055362E+03  0.00000000000E+00 0. -1.
         21   -1    0    0  502  503 -0.00000000000E+00 -0.00000000000E+00 -0.15150465847E+03  0.15150465847E+03  0.00000000000E+00 0.  1.
         24    1    1    2    0    0  0.10797328734E+02 -0.58066186616E+02  0.14918793200E+03  0.17947846485E+03  0.80419002446E+02 0.  0.
          1    1    1    2  501    0  0.35934658560E+02 -0.15403743355E+02  0.20707887381E+03  0.21073736018E+03  0.00000000000E+00 0. -1.
         -2    1    1    2    0  503 -0.46731987294E+02  0.73469929971E+02 -0.12044091067E+03  0.14861938706E+03  0.00000000000E+00 0.  1.
<mgrwt>
<rscale>  2 0.11297358E+03</rscale>
<asrwt>0</asrwt>
<pdfrwt beam="1">  1       21 0.59589315E-01 0.11297358E+03</pdfrwt>
<pdfrwt beam="2">  1       21 0.23308409E-01 0.11297358E+03</pdfrwt>
<totfact> 0.47479727E+04</totfact>
</mgrwt>
</event>
<event>
 5    1  0.1959123E+000  0.1551504E+03  0.7546771E-02  0.1194283E+00
         21   -1    0    0  501  502  0.00000000000E+00  0.00000000000E+00  0.38033670369E+02  0.38033670369E+02  0.00000000000E+00 0. -1.
         21   -1    0    0  502  503 -0.00000000000E+00 -0.00000000000E+00 -0.82349143950E+03  0.82349143950E+03  0.00000000000E+00 0. -1.
         24    1    1    2    0    0 -0.11846087582E+03  0.80890139254E+02 -0.38378868935E+03  0.41753702561E+03  0.80419002446E+02 0. -1.
          1    1    1    2  501    0  0.98951527139E+02 -0.54295788290E+02 -0.13806895749E+03  0.17833248266E+03  0.00000000000E+00 0. -1.
         -2    1    1    2    0  503  0.19509348679E+02 -0.26594350963E+02 -0.26360012228E+03  0.26565560159E+03  0.00000000000E+00 0.  1.
<mgrwt>
<rscale>  2 0.15515043E+03</rscale>
<asrwt>0</asrwt>
<pdfrwt beam="1">  1       21 0.58513341E-02 0.15515043E+03</pdfrwt>
<pdfrwt beam="2">  1       21 0.12669099E+00 0.15515043E+03</pdfrwt>
<totfact> 0.96589487E+04</totfact>
</mgrwt>
</event>
<event>
 5    1  0.1959123E+000  0.8215223E+02  0.7546771E-02  0.1323052E+00
         21   -1    0    0  503  502  0.00000000000E+00  0.00000000000E+00  0.40738920339E+03  0.40738920339E+03  0.00000000000E+00 0.  1.
         21   -1    0    0  501  503 -0.00000000000E+00 -0.00000000000E+00 -0.26734495845E+02  0.26734495845E+02  0.00000000000E+00 0. -1.
         24    1    1    2    0    0  0.42801534139E+01 -0.38625775216E+02  0.12831018128E+03  0.15633614041E+03  0.80419002446E+02 0. -1.
          1    1    1    2  501    0  0.28977060056E+02  0.27418442326E+02  0.23567350184E+02  0.46334231231E+02  0.00000000000E+00 0. -1.
         -2    1    1    2    0  502 -0.33257213470E+02  0.11207332890E+02  0.22877717608E+03  0.23145332759E+03  0.00000000000E+00 0.  1.
<mgrwt>
<rscale>  2 0.82152233E+02</rscale>
<asrwt>0</asrwt>
<pdfrwt beam="1">  1       21 0.62675258E-01 0.82152233E+02</pdfrwt>
<pdfrwt beam="2">  1       21 0.41129997E-02 0.82152233E+02</pdfrwt>
<totfact> 0.88265358E+05</totfact>
</mgrwt>
</event>
<event>
 5    1  0.1959123E+000  0.7073852E+02  0.7546771E-02  0.1357600E+00
         21   -1    0    0  503  502  0.00000000000E+00  0.00000000000E+00  0.24109442660E+02  0.24109442660E+02  0.00000000000E+00 0.  1.
         21   -1    0    0  501  503 -0.00000000000E+00 -0.00000000000E+00 -0.44471933029E+03  0.44471933029E+03  0.00000000000E+00 0. -1.
         24    1    1    2    0    0  0.20205963639E+01 -0.90232447199E+01 -0.64256477285E+02  0.10335188717E+03  0.80419002446E+02 0.  1.
          1    1    1    2  501    0  0.11457877721E+02 -0.23048455715E+02 -0.28431954224E+03  0.28548225229E+03  0.00000000000E+00 0. -1.
         -2    1    1    2    0  502 -0.13478474085E+02  0.32071700435E+02 -0.72033868105E+02  0.79994633487E+02  0.00000000000E+00 0.  1.
<mgrwt>
<rscale>  2 0.70738524E+02</rscale>
<asrwt>0</asrwt>
<pdfrwt beam="1">  1       21 0.37091448E-02 0.70738524E+02</pdfrwt>
<pdfrwt beam="2">  1       21 0.68418362E-01 0.70738524E+02</pdfrwt>
<totfact> 0.86585901E+05</totfact>
</mgrwt>
</event>
<event>
 5    1  0.1959123E+000  0.1030449E+03  0.7546771E-02  0.1274020E+00
         21   -1    0    0  501  502  0.00000000000E+00  0.00000000000E+00  0.12472580862E+03  0.12472580862E+03  0.00000000000E+00 0. -1.
         21   -1    0    0  502  503 -0.00000000000E+00 -0.00000000000E+00 -0.93475214951E+02  0.93475214951E+02  0.00000000000E+00 0. -1.
         24    1    1    2    0    0 -0.14355210249E+02 -0.50012405718E+02 -0.15091303521E+02  0.96965334957E+02  0.80419002446E+02 0. -1.
          1    1    1    2  501    0  0.32480379883E+02  0.73664691820E+02  0.42941368906E+02  0.91243756289E+02  0.00000000000E+00 0. -1.
         -2    1    1    2    0  503 -0.18125169634E+02 -0.23652286103E+02  0.34005282864E+01  0.29991932328E+02  0.00000000000E+00 0.  1.
<mgrwt>
<rscale>  2 0.10304491E+03</rscale>
<asrwt>0</asrwt>
<pdfrwt beam="1">  1       21 0.19188586E-01 0.10304491E+03</pdfrwt>
<pdfrwt beam="2">  1       21 0.14380802E-01 0.10304491E+03</pdfrwt>
<totfact> 0.10532876E+06</totfact>
</mgrwt>
</event>
<event>
 5    1  0.1959123E+000  0.6418880E+02  0.7546771E-02  0.1381049E+00
         21   -1    0    0  501  502  0.00000000000E+00  0.00000000000E+00  0.40268842952E+02  0.40268842952E+02  0.00000000000E+00 0. -1.
         21   -1    0    0  502  503 -0.00000000000E+00 -0.00000000000E+00 -0.15315627082E+03  0.15315627082E+03  0.00000000000E+00 0. -1.
         24    1    1    2    0    0  0.10574071448E+02  0.52074294297E+00 -0.11513449753E+03  0.14083767478E+03  0.80419002446E+02 0. -1.
          1    1    1    2  501    0  0.44895695865E+01 -0.21205863052E+02  0.12498950249E+02  0.25021363276E+02  0.00000000000E+00 0. -1.
         -2    1    1    2    0  503 -0.15063641034E+02  0.20685120109E+02 -0.10251880588E+02  0.27566075722E+02  0.00000000000E+00 0.  1.
<mgrwt>
<rscale>  2 0.64188797E+02</rscale>
<asrwt>0</asrwt>
<pdfrwt beam="1">  1       21 0.61952065E-02 0.64188797E+02</pdfrwt>
<pdfrwt beam="2">  1       21 0.23562503E-01 0.64188797E+02</pdfrwt>
<totfact> 0.30242746E+06</totfact>
</mgrwt>
</event>
<event>
 5    1  0.1959123E+000  0.1011399E+03  0.7546771E-02  0.1277917E+00
         21   -1    0    0  501  502  0.00000000000E+00  0.00000000000E+00  0.22633645724E+04  0.22633645724E+04  0.00000000000E+00 0.  1.
         21   -1    0    0  502  503 -0.00000000000E+00 -0.00000000000E+00 -0.81934513097E+01  0.81934513097E+01  0.00000000000E+00 0.  1.
         24    1    1    2    0    0  0.45210620836E+02  0.65194513550E+02  0.12465779247E+04  0.12516860881E+04  0.80419002446E+02 0.  1.
          1    1    1    2  501    0 -0.23354466500E+02 -0.31929860128E+01  0.81651002551E+03  0.81685019926E+03  0.00000000000E+00 0. -1.
         -2    1    1    2    0  503 -0.21856154337E+02 -0.62001527537E+02  0.19208317094E+03  0.20302173642E+03  0.00000000000E+00 0.  1.
<mgrwt>
<rscale>  2 0.10113986E+03</rscale>
<asrwt>0</asrwt>
<pdfrwt beam="1">  1       21 0.34820944E+00 0.10113986E+03</pdfrwt>
<pdfrwt beam="2">  1       21 0.12605328E-02 0.10113986E+03</pdfrwt>
<totfact> 0.52397921E+04</totfact>
</mgrwt>
</event>
<event>
 5    1  0.1959123E+000  0.9524820E+02  0.7546771E-02  0.1290618E+00
         21   -1    0    0  503  502  0.00000000000E+00  0.00000000000E+00  0.33642443441E+03  0.33642443441E+03  0.00000000000E+00 0. -1.
         21   -1    0    0  501  503 -0.00000000000E+00 -0.00000000000E+00 -0.33924179149E+02  0.33924179149E+02  0.00000000000E+00 0. -1.
         24    1    1    2    0    0 -0.40171634589E+02 -0.36548881469E+02  0.14972430821E+03  0.17842131427E+03  0.80419002446E+02 0. -1.
          1    1    1    2  501    0  0.23932637248E+02  0.60190896179E+02  0.41299851075E+02  0.76820523347E+02  0.00000000000E+00 0. -1.
         -2    1    1    2    0  502  0.16238997341E+02 -0.23642014710E+02  0.11147609597E+03  0.11510677594E+03  0.00000000000E+00 0.  1.
<mgrwt>
<rscale>  2 0.95248198E+02</rscale>
<asrwt>0</asrwt>
<pdfrwt beam="1">  1       21 0.51757603E-01 0.95248198E+02</pdfrwt>
<pdfrwt beam="2">  1       21 0.52191047E-02 0.95248198E+02</pdfrwt>
<totfact> 0.88777173E+05</totfact>
</mgrwt>
</event>
<event>
 5    1  0.1959123E+000  0.6455639E+02  0.7546771E-02  0.1379648E+00
         21   -1    0    0  501  502  0.00000000000E+00  0.00000000000E+00  0.52586165643E+02  0.52586165643E+02  0.00000000000E+00 0. -1.
         21   -1    0    0  502  503 -0.00000000000E+00 -0.00000000000E+00 -0.30573295905E+03  0.30573295905E+03  0.00000000000E+00 0.  1.
         24    1    1    2    0    0  0.28639331373E+01  0.27204361640E+01 -0.32562869211E+02  0.86851363211E+02  0.80419002446E+02 0.  0.
          1    1    1    2  501    0  0.15916905566E+02 -0.18257990905E+02  0.18914551738E+02  0.30732106698E+02  0.00000000000E+00 0. -1.
         -2    1    1    2    0  503 -0.18780838703E+02  0.15537554741E+02 -0.23949847593E+03  0.24073565478E+03  0.00000000000E+00 0.  1.
<mgrwt>
<rscale>  2 0.64556392E+02</rscale>
<asrwt>0</asrwt>
<pdfrwt beam="1">  1       21 0.80901792E-02 0.64556392E+02</pdfrwt>
<pdfrwt beam="2">  1       21 0.47035840E-01 0.64556392E+02</pdfrwt>
<totfact> 0.51385104E+05</totfact>
</mgrwt>
</event>
<event>
 5    1  0.1959123E+000  0.1329259E+03  0.7546771E-02  0.1223178E+00
         21   -1    0    0  501  502  0.00000000000E+00  0.00000000000E+00  0.15034078327E+04  0.15034078327E+04  0.00000000000E+00 0.  1.
         21   -1    0    0  502  503 -0.00000000000E+00 -0.00000000000E+00 -0.15679027069E+02  0.15679027069E+02  0.00000000000E+00 0. -1.
         24    1    1    2    0    0 -0.90406240892E+02 -0.58313129972E+02  0.52213556049E+03  0.53913492653E+03  0.80419002446E+02 0. -1.
          1    1    1    2  501    0 -0.10602348943E+02  0.21599822664E+02  0.55514551084E+03  0.55566671697E+03  0.00000000000E+00 0. -1.
         -2    1    1    2    0  503  0.10100858984E+03  0.36713307308E+02  0.41044773429E+03  0.42428521626E+03  0.00000000000E+00 0.  1.
<mgrwt>
<rscale>  2 0.13292594E+03</rscale>
<asrwt>0</asrwt>
<pdfrwt beam="1">  1       21 0.23129340E+00 0.13292594E+03</pdfrwt>
<pdfrwt beam="2">  1       21 0.24121592E-02 0.13292594E+03</pdfrwt>
<totfact> 0.81317227E+04</totfact>
</mgrwt>
</event>
<event>
 5    1  0.1959123E+000  0.1199007E+03  0.7546771E-02  0.1243261E+00
         21   -1    0    0  503  502  0.00000000000E+00  0.00000000000E+00  0.94693676806E+02  0.94693676806E+02  0.00000000000E+00 0.  1.
         21   -1    0    0  501  503 -0.00000000000E+00 -0.00000000000E+00 -0.58566677474E+03  0.58566677474E+03  0.00000000000E+00 0. -1.
         24    1    1    2    0    0 -0.80705305196E+01 -0.98448098761E+02 -0.51191257285E+03  0.52752143066E+03  0.80419002446E+02 0. -1.
          1    1    1    2  501    0 -0.12772734038E+02  0.88345358961E+02 -0.32181495055E+02  0.94887795889E+02  0.00000000000E+00 0. -1.
         -2    1    1    2    0  502  0.20843264558E+02  0.10102739800E+02  0.53120969965E+02  0.57951225000E+02  0.00000000000E+00 0.  1.
<mgrwt>
<rscale>  2 0.11990074E+03</rscale>
<asrwt>0</asrwt>
<pdfrwt beam="1">  1       21 0.14568258E-01 0.11990074E+03</pdfrwt>
<pdfrwt beam="2">  1       21 0.90102579E-01 0.11990074E+03</pdfrwt>
<totfact> 0.45116602E+04</totfact>
</mgrwt>
</event>
<event>
 5    1  0.1959123E+000  0.7178025E+02  0.7546771E-02  0.1354142E+00
         21   -1    0    0  501  502  0.00000000000E+00  0.00000000000E+00  0.59495602081E+02  0.59495602081E+02  0.00000000000E+00 0. -1.
         21   -1    0    0  502  503 -0.00000000000E+00 -0.00000000000E+00 -0.23777619036E+03  0.23777619036E+03  0.00000000000E+00 0. -1.
         24    1    1    2    0    0  0.11642584645E+01 -0.11898828288E+02 -0.10969675311E+03  0.13654131686E+03  0.80419002446E+02 0. -1.
          1    1    1    2  501    0  0.24571464704E+02 -0.11813076227E+02  0.39007733542E+02  0.47591059283E+02  0.00000000000E+00 0. -1.
         -2    1    1    2    0  503 -0.25735723168E+02  0.23711904514E+02 -0.10759156871E+03  0.11313941630E+03  0.00000000000E+00 0.  1.
<mgrwt>
<rscale>  2 0.71780255E+02</rscale>
<asrwt>0</asrwt>
<pdfrwt beam="1">  1       21 0.91531697E-02 0.71780255E+02</pdfrwt>
<pdfrwt beam="2">  1       21 0.36580952E-01 0.71780255E+02</pdfrwt>
<totfact> 0.68455418E+05</totfact>
</mgrwt>
</event>
<event>
 5    1  0.1959123E+000  0.9381621E+02  0.7546771E-02  0.1293865E+00
         21   -1    0    0  501  502  0.00000000000E+00  0.00000000000E+00  0.10482517695E+02  0.10482517695E+02  0.00000000000E+00 0. -1.
         21   -1    0    0  502  503 -0.00000000000E+00 -0.00000000000E+00 -0.11794621492E+04  0.11794621492E+04  0.00000000000E+00 0.  1.
         24    1    1    2    0    0 -0.72330115507E+02 -0.25063315744E+02 -0.88326271346E+03  0.89021348695E+03  0.80419002446E+02 0.  1.
          1    1    1    2  501    0  0.50569236035E+02  0.18934188012E+02 -0.10971264852E+03  0.12228089120E+03  0.00000000000E+00 0. -1.
         -2    1    1    2    0  503  0.21760879472E+02  0.61291277323E+01 -0.17600426956E+03  0.17745028878E+03  0.00000000000E+00 0.  1.
<mgrwt>
<rscale>  2 0.93816214E+02</rscale>
<asrwt>0</asrwt>
<pdfrwt beam="1">  1       21 0.16126953E-02 0.93816214E+02</pdfrwt>
<pdfrwt beam="2">  1       21 0.18145568E+00 0.93816214E+02</pdfrwt>
<totfact> 0.32382402E+05</totfact>
</mgrwt>
</event>
<event>
 5    1  0.1959123E+000  0.7124068E+02  0.7546771E-02  0.1355924E+00
         21   -1    0    0  503  502  0.00000000000E+00  0.00000000000E+00  0.79839159464E+02  0.79839159464E+02  0.00000000000E+00 0. -1.
         21   -1    0    0  501  503 -0.00000000000E+00 -0.00000000000E+00 -0.18652963507E+03  0.18652963507E+03  0.00000000000E+00 0. -1.
         24    1    1    2    0    0  0.13971980974E+02 -0.17634812485E+02  0.47097746408E+02  0.95872918673E+02  0.80419002446E+02 0. -1.
          1    1    1    2  501    0 -0.26587495439E+02 -0.10150478666E+02 -0.12616516769E+03  0.12933513316E+03  0.00000000000E+00 0. -1.
         -2    1    1    2    0  502  0.12615514464E+02  0.27785291152E+02 -0.27623054320E+02  0.41160742699E+02  0.00000000000E+00 0.  1.
<mgrwt>
<rscale>  2 0.71240677E+02</rscale>
<asrwt>0</asrwt>
<pdfrwt beam="1">  1       21 0.12282948E-01 0.71240677E+02</pdfrwt>
<pdfrwt beam="2">  1       21 0.28696867E-01 0.71240677E+02</pdfrwt>
<totfact> 0.65514984E+05</totfact>
</mgrwt>
</event>
<event>
 5    1  0.1959123E+000  0.7737032E+02  0.7546771E-02  0.1336684E+00
         21   -1    0    0  503  502  0.00000000000E+00  0.00000000000E+00  0.30776012087E+03  0.30776012087E+03  0.00000000000E+00 0. -1.
         21   -1    0    0  501  503 -0.00000000000E+00 -0.00000000000E+00 -0.27933471510E+02  0.27933471510E+02  0.00000000000E+00 0.  1.
         24    1    1    2    0    0  0.22388187453E+02 -0.10740014100E+02  0.15314854721E+03  0.17475203091E+03  0.80419002446E+02 0. -1.
          1    1    1    2  501    0  0.22720022988E+02 -0.41035909705E+01 -0.25847175218E+01  0.23231867512E+02  0.00000000000E+00 0. -1.
         -2    1    1    2    0  502 -0.45108210441E+02  0.14843605070E+02  0.12926281968E+03  0.13770969396E+03  0.00000000000E+00 0.  1.
<mgrwt>
<rscale>  2 0.77370317E+02</rscale>
<asrwt>0</asrwt>
<pdfrwt beam="1">  1       21 0.47347708E-01 0.77370317E+02</pdfrwt>
<pdfrwt beam="2">  1       21 0.42974574E-02 0.77370317E+02</pdfrwt>
<totfact> 0.14621085E+06</totfact>
</mgrwt>
</event>
<event>
 5    1  0.1959123E+000  0.9365518E+02  0.7546771E-02  0.1294234E+00
         21   -1    0    0  503  502  0.00000000000E+00  0.00000000000E+00  0.47750071636E+02  0.47750071636E+02  0.00000000000E+00 0.  1.
         21   -1    0    0  501  503 -0.00000000000E+00 -0.00000000000E+00 -0.26600060680E+03  0.26600060680E+03  0.00000000000E+00 0.  1.
         24    1    1    2    0    0  0.63210510231E+02  0.33873995333E+02 -0.16526137026E+03  0.19728545972E+03  0.80419002446E+02 0.  1.
          1    1    1    2  501    0 -0.55486965906E+02 -0.12561947419E+02 -0.68465487373E+02  0.89017576184E+02  0.00000000000E+00 0. -1.
         -2    1    1    2    0  502 -0.77235443243E+01 -0.21312047915E+02  0.15476322469E+02  0.27447642529E+02  0.00000000000E+00 0.  1.
<mgrwt>
<rscale>  2 0.93655183E+02</rscale>
<asrwt>0</asrwt>
<pdfrwt beam="1">  1       21 0.73461648E-02 0.93655183E+02</pdfrwt>
<pdfrwt beam="2">  1       21 0.40923171E-01 0.93655183E+02</pdfrwt>
<totfact> 0.80195745E+05</totfact>
</mgrwt>
</event>
<event>
 5    1  0.1959123E+000  0.7040228E+02  0.7546771E-02  0.1358730E+00
         21   -1    0    0  501  502  0.00000000000E+00  0.00000000000E+00  0.10355480209E+03  0.10355480209E+03  0.00000000000E+00 0. -1.
         21   -1    0    0  502  503 -0.00000000000E+00 -0.00000000000E+00 -0.26441740914E+03  0.26441740914E+03  0.00000000000E+00 0.  1.
         24    1    1    2    0    0 -0.13211388791E+02  0.12818189734E+02 -0.77547886091E+01  0.82862533648E+02  0.80419002446E+02 0.  1.
          1    1    1    2  501    0 -0.20600499662E+02  0.32751336473E+01  0.62699182704E+02  0.66077943358E+02  0.00000000000E+00 0. -1.
         -2    1    1    2    0  503  0.33811888453E+02 -0.16093323381E+02 -0.21580700114E+03  0.21903173423E+03  0.00000000000E+00 0.  1.
<mgrwt>
<rscale>  2 0.70402283E+02</rscale>
<asrwt>0</asrwt>
<pdfrwt beam="1">  1       21 0.15931508E-01 0.70402283E+02</pdfrwt>
<pdfrwt beam="2">  1       21 0.40679601E-01 0.70402283E+02</pdfrwt>
<totfact> 0.21154170E+05</totfact>
</mgrwt>
</event>
<event>
 5    1  0.1959123E+000  0.7817496E+02  0.7546771E-02  0.1334312E+00
         21   -1    0    0  501  502  0.00000000000E+00  0.00000000000E+00  0.16628230732E+02  0.16628230732E+02  0.00000000000E+00 0.  1.
         21   -1    0    0  502  503 -0.00000000000E+00 -0.00000000000E+00 -0.51120643612E+03  0.51120643612E+03  0.00000000000E+00 0.  1.
         24    1    1    2    0    0 -0.50452723118E+01 -0.34788203055E+02 -0.19849202847E+03  0.21702989463E+03  0.80419002446E+02 0.  1.
          1    1    1    2  501    0  0.19687815346E+02 -0.95561745904E+01 -0.16663036937E+02  0.27506132877E+02  0.00000000000E+00 0. -1.
         -2    1    1    2    0  503 -0.14642543034E+02  0.44344377645E+02 -0.27942313998E+03  0.28329863934E+03  0.00000000000E+00 0.  1.
<mgrwt>
<rscale>  2 0.78174963E+02</rscale>
<asrwt>0</asrwt>
<pdfrwt beam="1">  1       21 0.25581897E-02 0.78174963E+02</pdfrwt>
<pdfrwt beam="2">  1       21 0.78647134E-01 0.78174963E+02</pdfrwt>
<totfact> 0.11715448E+06</totfact>
</mgrwt>
</event>
<event>
 5    1  0.1959123E+000  0.8791289E+02  0.7546771E-02  0.1307986E+00
         21   -1    0    0  503  502  0.00000000000E+00  0.00000000000E+00  0.79308440863E+02  0.79308440863E+02  0.00000000000E+00 0.  1.
         21   -1    0    0  501  503 -0.00000000000E+00 -0.00000000000E+00 -0.53087766031E+03  0.53087766031E+03  0.00000000000E+00 0. -1.
         24    1    1    2    0    0 -0.68620346651E+01 -0.37289903929E+02 -0.36467856157E+03  0.37536021856E+03  0.80419002446E+02 0. -1.
          1    1    1    2  501    0  0.16458940280E+01  0.61818054514E+02 -0.15251408869E+03  0.16457438464E+03  0.00000000000E+00 0. -1.
         -2    1    1    2    0  502  0.52161406371E+01 -0.24528150585E+02  0.65623430817E+02  0.70251497966E+02  0.00000000000E+00 0.  1.
<mgrwt>
<rscale>  2 0.87912890E+02</rscale>
<asrwt>0</asrwt>
<pdfrwt beam="1">  1       21 0.12201299E-01 0.87912890E+02</pdfrwt>
<pdfrwt beam="2">  1       21 0.81673483E-01 0.87912890E+02</pdfrwt>
<totfact> 0.78702428E+04</totfact>
</mgrwt>
</event>
<event>
 5    1  0.1959123E+000  0.1385254E+03  0.7546771E-02  0.1215327E+00
         21   -1    0    0  501  502  0.00000000000E+00  0.00000000000E+00  0.42181016219E+03  0.42181016219E+03  0.00000000000E+00 0.  1.
         21   -1    0    0  502  503 -0.00000000000E+00 -0.00000000000E+00 -0.14005556643E+03  0.14005556643E+03  0.00000000000E+00 0.  1.
         24    1    1    2    0    0  0.10632399687E+03 -0.69094000353E+02  0.17446857212E+03  0.23018529885E+03  0.80419002446E+02 0.  1.
          1    1    1    2  501    0 -0.24025293503E+02  0.13199018960E+02  0.19628857706E+03  0.19819342652E+03  0.00000000000E+00 0. -1.
         -2    1    1    2    0  503 -0.82298703369E+02  0.55894981393E+02 -0.89002553416E+02  0.13348700325E+03  0.00000000000E+00 0.  1.
<mgrwt>
<rscale>  2 0.13852536E+03</rscale>
<asrwt>0</asrwt>
<pdfrwt beam="1">  1       21 0.64893871E-01 0.13852536E+03</pdfrwt>
<pdfrwt beam="2">  1       21 0.21547010E-01 0.13852536E+03</pdfrwt>
<totfact> 0.45147645E+04</totfact>
</mgrwt>
</event>
<event>
 5    1  0.1959123E+000  0.8927631E+02  0.7546771E-02  0.1304614E+00
         21   -1    0    0  501  502  0.00000000000E+00  0.00000000000E+00  0.22047264991E+03  0.22047264991E+03  0.00000000000E+00 0.  1.
         21   -1    0    0  502  503 -0.00000000000E+00 -0.00000000000E+00 -0.42597285313E+02  0.42597285313E+02  0.00000000000E+00 0. -1.
         24    1    1    2    0    0  0.14262682128E+02 -0.75900072989E+01  0.37182744085E+02  0.90060006242E+02  0.80419002446E+02 0.  0.
          1    1    1    2  501    0  0.13917583107E+02  0.46469318653E+02  0.95285949165E+02  0.10692291057E+03  0.00000000000E+00 0. -1.
         -2    1    1    2    0  503 -0.28180265235E+02 -0.38879311354E+02  0.45406671347E+02  0.66087018414E+02  0.00000000000E+00 0.  1.
<mgrwt>
<rscale>  2 0.89276313E+02</rscale>
<asrwt>0</asrwt>
<pdfrwt beam="1">  1       21 0.33918868E-01 0.89276313E+02</pdfrwt>
<pdfrwt beam="2">  1       21 0.65534287E-02 0.89276313E+02</pdfrwt>
<totfact> 0.14050287E+06</totfact>
</mgrwt>
</event>
<event>
 5    1  0.1959123E+000  0.7609241E+02  0.7546771E-02  0.1340521E+00
         21   -1    0    0  501  502  0.00000000000E+00  0.00000000000E+00  0.11630405998E+03  0.11630405998E+03  0.00000000000E+00 0. -1.
         21   -1    0    0  502  503 -0.00000000000E+00 -0.00000000000E+00 -0.10327703157E+03  0.10327703157E+03  0.00000000000E+00 0.  1.
         24    1    1    2    0    0  0.25817756734E+00 -0.14119801424E+02  0.29037866073E+02  0.86659385345E+02  0.80419002446E+02 0. -1.
          1    1    1    2  501    0  0.31184779606E+02  0.21946072787E+02  0.47924486188E+02  0.61244403550E+02  0.00000000000E+00 0. -1.
         -2    1    1    2    0  503 -0.31442957173E+02 -0.78262713633E+01 -0.63935323851E+02  0.71677302650E+02  0.00000000000E+00 0.  1.
<mgrwt>
<rscale>  2 0.76092407E+02</rscale>
<asrwt>0</asrwt>
<pdfrwt beam="1">  1       21 0.17892932E-01 0.76092407E+02</pdfrwt>
<pdfrwt beam="2">  1       21 0.15888774E-01 0.76092407E+02</pdfrwt>
<totfact> 0.99465899E+05</totfact>
</mgrwt>
</event>
<event>
 5    1  0.1959123E+000  0.8481900E+02  0.7546771E-02  0.1315907E+00
         21   -1    0    0  503  502  0.00000000000E+00  0.00000000000E+00  0.15002765583E+03  0.15002765583E+03  0.00000000000E+00 0.  1.
         21   -1    0    0  501  503 -0.00000000000E+00 -0.00000000000E+00 -0.11704106724E+03  0.11704106724E+03  0.00000000000E+00 0. -1.
         24    1    1    2    0    0 -0.47612594535E+01 -0.11891237338E+02 -0.12431954062E+02  0.82376213516E+02  0.80419002446E+02 0.  0.
          1    1    1    2  501    0 -0.40830639221E+02 -0.94249572718E+00 -0.58004176741E+02  0.70940213678E+02  0.00000000000E+00 0. -1.
         -2    1    1    2    0  502  0.45591898675E+02  0.12833733065E+02  0.10342271940E+03  0.11375229588E+03  0.00000000000E+00 0.  1.
<mgrwt>
<rscale>  2 0.84818996E+02</rscale>
<asrwt>0</asrwt>
<pdfrwt beam="1">  1       21 0.23081178E-01 0.84818996E+02</pdfrwt>
<pdfrwt beam="2">  1       21 0.18006318E-01 0.84818996E+02</pdfrwt>
<totfact> 0.49951997E+05</totfact>
</mgrwt>
</event>
<event>
 5    1  0.1959123E+000  0.1335052E+03  0.7546771E-02  0.1222345E+00
         21   -1    0    0  501  502  0.00000000000E+00  0.00000000000E+00  0.34952825860E+02  0.34952825860E+02  0.00000000000E+00 0. -1.
         21   -1    0    0  502  503 -0.00000000000E+00 -0.00000000000E+00 -0.12413324379E+04  0.12413324379E+04  0.00000000000E+00 0.  1.
         24    1    1    2    0    0 -0.33366822461E+02  0.10068155492E+03 -0.94011238784E+03  0.94948861924E+03  0.80419002446E+02 0.  1.
          1    1    1    2  501    0  0.60146049270E+02 -0.79896239649E+02 -0.57626549851E+02  0.11541999654E+03  0.00000000000E+00 0. -1.
         -2    1    1    2    0  503 -0.26779226808E+02 -0.20785315269E+02 -0.20864067430E+03  0.21137664794E+03  0.00000000000E+00 0.  1.
<mgrwt>
<rscale>  2 0.13350524E+03</rscale>
<asrwt>0</asrwt>
<pdfrwt beam="1">  1       21 0.53773588E-02 0.13350524E+03</pdfrwt>
<pdfrwt beam="2">  1       21 0.19097419E+00 0.13350524E+03</pdfrwt>
<totfact> 0.38138977E+04</totfact>
</mgrwt>
</event>
<event>
 5    1  0.1959123E+000  0.1141631E+03  0.7546771E-02  0.1253049E+00
         21   -1    0    0  503  502  0.00000000000E+00  0.00000000000E+00  0.73028031316E+01  0.73028031316E+01  0.00000000000E+00 0.  1.
         21   -1    0    0  501  503 -0.00000000000E+00 -0.00000000000E+00 -0.27708549787E+04  0.27708549787E+04  0.00000000000E+00 0. -1.
         24    1    1    2    0    0 -0.79993867771E+02  0.31945908471E+02 -0.67506068039E+03  0.68526906986E+03  0.80419002446E+02 0.  1.
          1    1    1    2  501    0  0.55916279656E+02  0.14852223123E+02 -0.16832583586E+04  0.16842523328E+04  0.00000000000E+00 0. -1.
         -2    1    1    2    0  502  0.24077588116E+02 -0.46798131594E+02 -0.40523313663E+03  0.40863637918E+03  0.00000000000E+00 0.  1.
<mgrwt>
<rscale>  2 0.11416308E+03</rscale>
<asrwt>0</asrwt>
<pdfrwt beam="1">  1       21 0.11235074E-02 0.11416308E+03</pdfrwt>
<pdfrwt beam="2">  1       21 0.42628567E+00 0.11416308E+03</pdfrwt>
<totfact> 0.20950798E+04</totfact>
</mgrwt>
</event>
<event>
 5    1  0.1959123E+000  0.1056773E+03  0.7546771E-02  0.1268791E+00
         21   -1    0    0  501  502  0.00000000000E+00  0.00000000000E+00  0.26891493399E+03  0.26891493399E+03  0.00000000000E+00 0. -1.
         21   -1    0    0  502  503 -0.00000000000E+00 -0.00000000000E+00 -0.49681246071E+02  0.49681246071E+02  0.00000000000E+00 0. -1.
         24    1    1    2    0    0  0.57274472515E+02  0.63508315606E+02  0.75591823766E+02  0.13962453627E+03  0.80419002446E+02 0. -1.
          1    1    1    2  501    0 -0.59664706961E+02 -0.43565634744E+02  0.14036650772E+03  0.15862092635E+03  0.00000000000E+00 0. -1.
         -2    1    1    2    0  503  0.23902344456E+01 -0.19942680862E+02  0.32753564334E+01  0.20350717442E+02  0.00000000000E+00 0.  1.
<mgrwt>
<rscale>  2 0.10567732E+03</rscale>
<asrwt>0</asrwt>
<pdfrwt beam="1">  1       21 0.41371527E-01 0.10567732E+03</pdfrwt>
<pdfrwt beam="2">  1       21 0.76432688E-02 0.10567732E+03</pdfrwt>
<totfact> 0.73404176E+05</totfact>
</mgrwt>
</event>
<event>
 5    1  0.1959123E+000  0.6422906E+02  0.7546771E-02  0.1380895E+00
         21   -1    0    0  503  502  0.00000000000E+00  0.00000000000E+00  0.52812497484E+02  0.52812497484E+02  0.00000000000E+00 0.  1.
         21   -1    0    0  501  503 -0.00000000000E+00 -0.00000000000E+00 -0.12087188735E+03  0.12087188735E+03  0.00000000000E+00 0. -1.
         24    1    1    2    0    0  0.94767608534E+01  0.23116058139E+01  0.10517193520E+02  0.81688309027E+02  0.80419002446E+02 0.  1.
          1    1    1    2  501    0 -0.31614750165E+01 -0.24334589456E+02 -0.46500813779E+02  0.52578444732E+02  0.00000000000E+00 0. -1.
         -2    1    1    2    0  502 -0.63152858369E+01  0.22022983642E+02 -0.32075769606E+02  0.39417631074E+02  0.00000000000E+00 0.  1.
<mgrwt>
<rscale>  2 0.64229060E+02</rscale>
<asrwt>0</asrwt>
<pdfrwt beam="1">  1       21 0.81249997E-02 0.64229060E+02</pdfrwt>
<pdfrwt beam="2">  1       21 0.18595675E-01 0.64229060E+02</pdfrwt>
<totfact> 0.29507102E+06</totfact>
</mgrwt>
</event>
<event>
 5    1  0.1959123E+000  0.1032011E+03  0.7546771E-02  0.1273705E+00
         21   -1    0    0  503  502  0.00000000000E+00  0.00000000000E+00  0.25863950227E+03  0.25863950227E+03  0.00000000000E+00 0.  1.
         21   -1    0    0  501  503 -0.00000000000E+00 -0.00000000000E+00 -0.49738238560E+02  0.49738238560E+02  0.00000000000E+00 0. -1.
         24    1    1    2    0    0 -0.25516859832E+01 -0.59698714041E+01  0.70315729634E+02  0.10702181205E+03  0.80419002446E+02 0.  0.
          1    1    1    2  501    0  0.60873832493E+02 -0.16740382761E+02  0.18252224206E+02  0.65719156916E+02  0.00000000000E+00 0. -1.
         -2    1    1    2    0  502 -0.58322146509E+02  0.22710254165E+02  0.12033330987E+03  0.13563677186E+03  0.00000000000E+00 0.  1.
<mgrwt>
<rscale>  2 0.10320105E+03</rscale>
<asrwt>0</asrwt>
<pdfrwt beam="1">  1       21 0.39790692E-01 0.10320105E+03</pdfrwt>
<pdfrwt beam="2">  1       21 0.76520369E-02 0.10320105E+03</pdfrwt>
<totfact> 0.79158116E+05</totfact>
</mgrwt>
</event>
<event>
 5    1  0.2475161E+000  0.9087133E+02  0.7546771E-02  0.1300755E+00
         21   -1    0    0  501  502  0.00000000000E+00  0.00000000000E+00  0.83937740448E+02  0.83937740448E+02  0.00000000000E+00 0. -1.
         21   -1    0    0  502  503 -0.00000000000E+00 -0.00000000000E+00 -0.45342098431E+03  0.45342098431E+03  0.00000000000E+00 0. -1.
         24    1    1    2    0    0 -0.27919475429E+02  0.50572682085E+02  0.43329724291E+02  0.10808225684E+03  0.80419002446E+02 0. -1.
          1    1    1    2  501    0 -0.79988917638E+01 -0.45798388543E+02 -0.66884962529E+02  0.81455956658E+02  0.00000000000E+00 0. -1.
         -2    1    1    2    0  503  0.35918367193E+02 -0.47742935425E+01 -0.34592800562E+03  0.34782051126E+03  0.00000000000E+00 0.  1.
<mgrwt>
<rscale>  2 0.90871327E+02</rscale>
<asrwt>0</asrwt>
<pdfrwt beam="1">  1       21 0.12913499E-01 0.90871327E+02</pdfrwt>
<pdfrwt beam="2">  1       21 0.69757073E-01 0.90871327E+02</pdfrwt>
<totfact> 0.10036505E+05</totfact>
</mgrwt>
</event>
<event>
 5    1  0.1959123E+000  0.7261732E+02  0.7546771E-02  0.1351412E+00
         21   -1    0    0  503  502  0.00000000000E+00  0.00000000000E+00  0.15932120058E+04  0.15932120058E+04  0.00000000000E+00 0. -1.
         21   -1    0    0  501  503 -0.00000000000E+00 -0.00000000000E+00 -0.41567494665E+01  0.41567494665E+01  0.00000000000E+00 0. -1.
         24    1    1    2    0    0 -0.13610550591E+02  0.45909921511E+02  0.11634616053E+04  0.11672202409E+04  0.80419002446E+02 0. -1.
          1    1    1    2  501    0 -0.32140519641E+01 -0.22951945501E+02  0.77447826848E+02  0.80841127007E+02  0.00000000000E+00 0. -1.
         -2    1    1    2    0  502  0.16824602555E+02 -0.22957976010E+02  0.34814582428E+03  0.34930738738E+03  0.00000000000E+00 0.  1.
<mgrwt>
<rscale>  2 0.72617316E+02</rscale>
<asrwt>0</asrwt>
<pdfrwt beam="1">  1       21 0.24510905E+00 0.72617316E+02</pdfrwt>
<pdfrwt beam="2">  1       21 0.63950119E-03 0.72617316E+02</pdfrwt>
<totfact> 0.58056873E+05</totfact>
</mgrwt>
</event>
<event>
 5    1  0.1959123E+000  0.1167019E+03  0.7546771E-02  0.1248639E+00
         21   -1    0    0  501  502  0.00000000000E+00  0.00000000000E+00  0.29722597373E+03  0.29722597373E+03  0.00000000000E+00 0.  1.
         21   -1    0    0  502  503 -0.00000000000E+00 -0.00000000000E+00 -0.10264518211E+03  0.10264518211E+03  0.00000000000E+00 0.  1.
         24    1    1    2    0    0 -0.80685460304E+02 -0.20275667194E+02  0.13115481945E+03  0.17490011093E+03  0.80419002446E+02 0.  1.
          1    1    1    2  501    0  0.88311616996E+02 -0.77496372759E+01  0.12711331175E+03  0.15497352225E+03  0.00000000000E+00 0. -1.
         -2    1    1    2    0  503 -0.76261566925E+01  0.28025304470E+02 -0.63687339577E+02  0.69997522663E+02  0.00000000000E+00 0.  1.
<mgrwt>
<rscale>  2 0.11670195E+03</rscale>
<asrwt>0</asrwt>
<pdfrwt beam="1">  1       21 0.45727072E-01 0.11670195E+03</pdfrwt>
<pdfrwt beam="2">  1       21 0.15791567E-01 0.11670195E+03</pdfrwt>
<totfact> 0.16761674E+05</totfact>
</mgrwt>
</event>
<event>
 5    1  0.1959123E+000  0.7073282E+02  0.7546771E-02  0.1357619E+00
         21   -1    0    0  501  502  0.00000000000E+00  0.00000000000E+00  0.16449340648E+03  0.16449340648E+03  0.00000000000E+00 0. -1.
         21   -1    0    0  502  503 -0.00000000000E+00 -0.00000000000E+00 -0.12029024714E+03  0.12029024714E+03  0.00000000000E+00 0.  1.
         24    1    1    2    0    0  0.89177992545E+01  0.32380120878E+02 -0.11615865755E+00  0.87150609974E+02  0.80419002446E+02 0.  0.
          1    1    1    2  501    0  0.14388320877E+02 -0.26694901904E+02  0.11711961967E+03  0.12098201055E+03  0.00000000000E+00 0. -1.
         -2    1    1    2    0  503 -0.23306120131E+02 -0.56852189739E+01 -0.72800301674E+02  0.76651033093E+02  0.00000000000E+00 0.  1.
<mgrwt>
<rscale>  2 0.70732821E+02</rscale>
<asrwt>0</asrwt>
<pdfrwt beam="1">  1       21 0.25306678E-01 0.70732821E+02</pdfrwt>
<pdfrwt beam="2">  1       21 0.18506192E-01 0.70732821E+02</pdfrwt>
<totfact> 0.40067589E+05</totfact>
</mgrwt>
</event>
<event>
 5    1  0.1959123E+000  0.8385811E+02  0.7546771E-02  0.1318446E+00
         21   -1    0    0  503  502  0.00000000000E+00  0.00000000000E+00  0.36327285853E+03  0.36327285853E+03  0.00000000000E+00 0.  1.
         21   -1    0    0  501  503 -0.00000000000E+00 -0.00000000000E+00 -0.11520492601E+03  0.11520492601E+03  0.00000000000E+00 0. -1.
         24    1    1    2    0    0  0.22437837378E+02  0.21501314010E+02  0.60894509892E+02  0.10555150563E+03  0.80419002446E+02 0.  1.
          1    1    1    2  501    0  0.13149759132E+02  0.21796117444E+02 -0.88255325468E+02  0.91853085819E+02  0.00000000000E+00 0. -1.
         -2    1    1    2    0  502 -0.35587596510E+02 -0.43297431455E+02  0.27542874810E+03  0.28107319309E+03  0.00000000000E+00 0.  1.
<mgrwt>
<rscale>  2 0.83858114E+02</rscale>
<asrwt>0</asrwt>
<pdfrwt beam="1">  1       21 0.55888131E-01 0.83858114E+02</pdfrwt>
<pdfrwt beam="2">  1       21 0.17723835E-01 0.83858114E+02</pdfrwt>
<totfact> 0.91467940E+04</totfact>
</mgrwt>
</event>
<event>
 5    1  0.1959123E+000  0.8666335E+02  0.7546771E-02  0.1311139E+00
         21   -1    0    0  501  502  0.00000000000E+00  0.00000000000E+00  0.98962623135E+02  0.98962623135E+02  0.00000000000E+00 0. -1.
         21   -1    0    0  502  503 -0.00000000000E+00 -0.00000000000E+00 -0.75669679339E+03  0.75669679339E+03  0.00000000000E+00 0. -1.
         24    1    1    2    0    0 -0.48739391640E+02  0.41481057284E+02 -0.55283807027E+03  0.56231072754E+03  0.80419002446E+02 0. -1.
          1    1    1    2  501    0  0.41980318667E+02 -0.17239951003E+02  0.87896275732E+02  0.98920768059E+02  0.00000000000E+00 0. -1.
         -2    1    1    2    0  503  0.67590729732E+01 -0.24241106281E+02 -0.19279237572E+03  0.19442792093E+03  0.00000000000E+00 0.  1.
<mgrwt>
<rscale>  2 0.86663348E+02</rscale>
<asrwt>0</asrwt>
<pdfrwt beam="1">  1       21 0.15225019E-01 0.86663348E+02</pdfrwt>
<pdfrwt beam="2">  1       21 0.11641489E+00 0.86663348E+02</pdfrwt>
<totfact> 0.23580925E+04</totfact>
</mgrwt>
</event>
<event>
 5    1  0.1959123E+000  0.9358993E+02  0.7546771E-02  0.1294384E+00
         21   -1    0    0  503  502  0.00000000000E+00  0.00000000000E+00  0.53668541582E+02  0.53668541582E+02  0.00000000000E+00 0. -1.
         21   -1    0    0  501  503 -0.00000000000E+00 -0.00000000000E+00 -0.32693933311E+03  0.32693933311E+03  0.00000000000E+00 0. -1.
         24    1    1    2    0    0 -0.74503132668E+02 -0.14663984499E+02 -0.25674831288E+02  0.11354365740E+03  0.80419002446E+02 0. -1.
          1    1    1    2  501    0  0.53340959304E+02  0.15008264082E+02 -0.23700637988E+03  0.24339788420E+03  0.00000000000E+00 0. -1.
         -2    1    1    2    0  502  0.21162173364E+02 -0.34427958224E+00 -0.10589580359E+02  0.23666333093E+02  0.00000000000E+00 0.  1.
<mgrwt>
<rscale>  2 0.93589928E+02</rscale>
<asrwt>0</asrwt>
<pdfrwt beam="1">  1       21 0.82566986E-02 0.93589928E+02</pdfrwt>
<pdfrwt beam="2">  1       21 0.50298359E-01 0.93589928E+02</pdfrwt>
<totfact> 0.43343167E+05</totfact>
</mgrwt>
</event>
<event>
 5    1  0.1959123E+000  0.1684901E+03  0.7546771E-02  0.1179432E+00
         21   -1    0    0  501  502  0.00000000000E+00  0.00000000000E+00  0.13290578778E+04  0.13290578778E+04  0.00000000000E+00 0. -1.
         21   -1    0    0  502  503 -0.00000000000E+00 -0.00000000000E+00 -0.36730823916E+02  0.36730823916E+02  0.00000000000E+00 0.  1.
         24    1    1    2    0    0  0.10104189635E+03  0.44212142488E+02  0.77384183320E+03  0.78578787031E+03  0.80419002446E+02 0. -1.
          1    1    1    2  501    0 -0.14826590587E+03 -0.31440916138E+02  0.50778797773E+03  0.52992446667E+03  0.00000000000E+00 0. -1.
         -2    1    1    2    0  503  0.47224009521E+02 -0.12771226350E+02  0.10697242947E+02  0.50076364728E+02  0.00000000000E+00 0.  1.
<mgrwt>
<rscale>  2 0.16849011E+03</rscale>
<asrwt>0</asrwt>
<pdfrwt beam="1">  1       21 0.20447041E+00 0.16849011E+03</pdfrwt>
<pdfrwt beam="2">  1       21 0.56508970E-02 0.16849011E+03</pdfrwt>
<totfact> 0.27974692E+04</totfact>
</mgrwt>
</event>
<event>
 5    1  0.1959123E+000  0.7189981E+02  0.7546771E-02  0.1353749E+00
         21   -1    0    0  501  502  0.00000000000E+00  0.00000000000E+00  0.34372058960E+03  0.34372058960E+03  0.00000000000E+00 0. -1.
         21   -1    0    0  502  503 -0.00000000000E+00 -0.00000000000E+00 -0.17776829618E+03  0.17776829618E+03  0.00000000000E+00 0.  1.
         24    1    1    2    0    0 -0.45287504767E+02 -0.92035584414E+01 -0.16189397914E+03  0.18658118880E+03  0.80419002446E+02 0.  1.
          1    1    1    2  501    0  0.19303055566E+02  0.14974450244E+02  0.27143288732E+03  0.27253009821E+03  0.00000000000E+00 0. -1.
         -2    1    1    2    0  503  0.25984449201E+02 -0.57708918024E+01  0.56413385248E+02  0.62377598764E+02  0.00000000000E+00 0.  1.
<mgrwt>
<rscale>  2 0.71899813E+02</rscale>
<asrwt>0</asrwt>
<pdfrwt beam="1">  1       21 0.52880091E-01 0.71899813E+02</pdfrwt>
<pdfrwt beam="2">  1       21 0.27348969E-01 0.71899813E+02</pdfrwt>
<totfact> 0.46556680E+04</totfact>
</mgrwt>
</event>
<event>
 5    1  0.1959123E+000  0.7032228E+02  0.7546771E-02  0.1359001E+00
         21   -1    0    0  503  502  0.00000000000E+00  0.00000000000E+00  0.36880337916E+02  0.36880337916E+02  0.00000000000E+00 0. -1.
         21   -1    0    0  501  503 -0.00000000000E+00 -0.00000000000E+00 -0.16598142065E+03  0.16598142065E+03  0.00000000000E+00 0.  1.
         24    1    1    2    0    0  0.33302140792E+02 -0.23599225897E+01 -0.48935072170E+02  0.99882225939E+02  0.80419002446E+02 0. -1.
          1    1    1    2  501    0 -0.12448905608E+02 -0.19643349878E+02 -0.65095801947E+02  0.69125247749E+02  0.00000000000E+00 0. -1.
         -2    1    1    2    0  502 -0.20853235183E+02  0.22003272468E+02 -0.15070208619E+02  0.33854284880E+02  0.00000000000E+00 0.  1.
<mgrwt>
<rscale>  2 0.70322280E+02</rscale>
<asrwt>0</asrwt>
<pdfrwt beam="1">  1       21 0.56738981E-02 0.70322280E+02</pdfrwt>
<pdfrwt beam="2">  1       21 0.25535603E-01 0.70322280E+02</pdfrwt>
<totfact> 0.30339191E+06</totfact>
</mgrwt>
</event>
<event>
 5    1  0.1959123E+000  0.6510954E+02  0.7546771E-02  0.1377560E+00
         21   -1    0    0  503  502  0.00000000000E+00  0.00000000000E+00  0.12603648559E+03  0.12603648559E+03  0.00000000000E+00 0.  1.
         21   -1    0    0  501  503 -0.00000000000E+00 -0.00000000000E+00 -0.33883092756E+02  0.33883092756E+02  0.00000000000E+00 0. -1.
         24    1    1    2    0    0 -0.22449319432E+02  0.22994175708E+02  0.55295106090E+02  0.10274954390E+03  0.80419002446E+02 0.  0.
          1    1    1    2  501    0  0.12726471643E+01 -0.22395745487E+02  0.17170882511E+02  0.28249393850E+02  0.00000000000E+00 0. -1.
         -2    1    1    2    0  502  0.21176672268E+02 -0.59843022071E+00  0.19687404235E+02  0.28920640598E+02  0.00000000000E+00 0.  1.
<mgrwt>
<rscale>  2 0.65109540E+02</rscale>
<asrwt>0</asrwt>
<pdfrwt beam="1">  1       21 0.19390228E-01 0.65109540E+02</pdfrwt>
<pdfrwt beam="2">  1       21 0.52127836E-02 0.65109540E+02</pdfrwt>
<totfact> 0.57529473E+06</totfact>
</mgrwt>
</event>
<event>
 5    1  0.1959123E+000  0.6266955E+02  0.7546771E-02  0.1386958E+00
         21   -1    0    0  501  502  0.00000000000E+00  0.00000000000E+00  0.25224933627E+02  0.25224933627E+02  0.00000000000E+00 0. -1.
         21   -1    0    0  502  503 -0.00000000000E+00 -0.00000000000E+00 -0.62867619473E+03  0.62867619473E+03  0.00000000000E+00 0.  1.
         24    1    1    2    0    0  0.34944483136E+01 -0.23125367812E-01 -0.48730556136E+02  0.94096199495E+02  0.80419002446E+02 0. -1.
          1    1    1    2  501    0 -0.15583435317E+02  0.17602452528E+02 -0.57413695468E+02  0.62040488542E+02  0.00000000000E+00 0. -1.
         -2    1    1    2    0  503  0.12088987003E+02 -0.17579327160E+02 -0.49730700950E+03  0.49776444032E+03  0.00000000000E+00 0.  1.
<mgrwt>
<rscale>  2 0.62669555E+02</rscale>
<asrwt>0</asrwt>
<pdfrwt beam="1">  1       21 0.38807590E-02 0.62669555E+02</pdfrwt>
<pdfrwt beam="2">  1       21 0.96719416E-01 0.62669555E+02</pdfrwt>
<totfact> 0.37594278E+05</totfact>
</mgrwt>
</event>
<event>
 5    1  0.1959123E+000  0.6374750E+02  0.7546771E-02  0.1382746E+00
         21   -1    0    0  501  502  0.00000000000E+00  0.00000000000E+00  0.47854771785E+02  0.47854771785E+02  0.00000000000E+00 0.  1.
         21   -1    0    0  502  503 -0.00000000000E+00 -0.00000000000E+00 -0.91894597607E+02  0.91894597607E+02  0.00000000000E+00 0. -1.
         24    1    1    2    0    0  0.94427025758E+01  0.24589847008E-01 -0.15061728698E+02  0.82360408343E+02  0.80419002446E+02 0.  1.
          1    1    1    2  501    0 -0.14168954289E+02  0.20801064552E+02 -0.57126477985E+01  0.25808484981E+02  0.00000000000E+00 0. -1.
         -2    1    1    2    0  503  0.47262517130E+01 -0.20825654399E+02 -0.23265449325E+02  0.31580476069E+02  0.00000000000E+00 0.  1.
<mgrwt>
<rscale>  2 0.63747503E+02</rscale>
<asrwt>0</asrwt>
<pdfrwt beam="1">  1       21 0.73622728E-02 0.63747503E+02</pdfrwt>
<pdfrwt beam="2">  1       21 0.14137630E-01 0.63747503E+02</pdfrwt>
<totfact> 0.56709433E+06</totfact>
</mgrwt>
</event>
<event>
 5    1  0.1959123E+000  0.8903741E+02  0.7546771E-02  0.1305200E+00
         21   -1    0    0  501  502  0.00000000000E+00  0.00000000000E+00  0.22004909612E+03  0.22004909612E+03  0.00000000000E+00 0.  1.
         21   -1    0    0  502  503 -0.00000000000E+00 -0.00000000000E+00 -0.36658911672E+02  0.36658911672E+02  0.00000000000E+00 0.  1.
         24    1    1    2    0    0 -0.68577285113E+02 -0.43890646777E+01  0.12096728813E+03  0.16069352405E+03  0.80419002446E+02 0.  1.
          1    1    1    2  501    0  0.46490831458E+02  0.13488089955E+02  0.47666122464E+02  0.67936626433E+02  0.00000000000E+00 0. -1.
         -2    1    1    2    0  503  0.22086453656E+02 -0.90990252773E+01  0.14756773857E+02  0.28077857303E+02  0.00000000000E+00 0.  1.
<mgrwt>
<rscale>  2 0.89037413E+02</rscale>
<asrwt>0</asrwt>
<pdfrwt beam="1">  1       21 0.33853707E-01 0.89037413E+02</pdfrwt>
<pdfrwt beam="2">  1       21 0.56398327E-02 0.89037413E+02</pdfrwt>
<totfact> 0.18149143E+06</totfact>
</mgrwt>
</event>
<event>
 5    1  0.1959123E+000  0.7167404E+02  0.7546771E-02  0.1354491E+00
         21   -1    0    0  503  502  0.00000000000E+00  0.00000000000E+00  0.21755569287E+03  0.21755569287E+03  0.00000000000E+00 0. -1.
         21   -1    0    0  501  503 -0.00000000000E+00 -0.00000000000E+00 -0.61152972168E+02  0.61152972168E+02  0.00000000000E+00 0. -1.
         24    1    1    2    0    0 -0.20531626622E+02 -0.44349394779E+02  0.62691637385E+02  0.11307463845E+03  0.80419002446E+02 0.  0.
          1    1    1    2  501    0  0.13566250569E+02  0.22121511299E+02 -0.30047655542E+02  0.39702216817E+02  0.00000000000E+00 0. -1.
         -2    1    1    2    0  502  0.69653760530E+01  0.22227883480E+02  0.12375873886E+03  0.12593180977E+03  0.00000000000E+00 0.  1.
<mgrwt>
<rscale>  2 0.71674041E+02</rscale>
<asrwt>0</asrwt>
<pdfrwt beam="1">  1       21 0.33470106E-01 0.71674041E+02</pdfrwt>
<pdfrwt beam="2">  1       21 0.94081497E-02 0.71674041E+02</pdfrwt>
<totfact> 0.77534081E+05</totfact>
</mgrwt>
</event>
<event>
 5    1  0.1959123E+000  0.9635967E+02  0.7546771E-02  0.1288143E+00
         21   -1    0    0  501  502  0.00000000000E+00  0.00000000000E+00  0.41871694943E+03  0.41871694943E+03  0.00000000000E+00 0. -1.
         21   -1    0    0  502  503 -0.00000000000E+00 -0.00000000000E+00 -0.30728249602E+02  0.30728249602E+02  0.00000000000E+00 0.  1.
         24    1    1    2    0    0  0.15689585486E+02  0.57255728577E+01  0.10171241108E+03  0.13073475360E+03  0.80419002446E+02 0.  0.
          1    1    1    2  501    0 -0.36149578259E+02 -0.50065058006E+02  0.25095973778E+03  0.25844553010E+03  0.00000000000E+00 0. -1.
         -2    1    1    2    0  503  0.20459992773E+02  0.44339485148E+02  0.35316550970E+02  0.60264915331E+02  0.00000000000E+00 0.  1.
<mgrwt>
<rscale>  2 0.96359668E+02</rscale>
<asrwt>0</asrwt>
<pdfrwt beam="1">  1       21 0.64417988E-01 0.96359668E+02</pdfrwt>
<pdfrwt beam="2">  1       21 0.47274233E-02 0.96359668E+02</pdfrwt>
<totfact> 0.66236395E+05</totfact>
</mgrwt>
</event>
<event>
 5    1  0.1959123E+000  0.1209159E+03  0.7546771E-02  0.1241594E+00
         21   -1    0    0  501  502  0.00000000000E+00  0.00000000000E+00  0.58419361365E+02  0.58419361365E+02  0.00000000000E+00 0. -1.
         21   -1    0    0  502  503 -0.00000000000E+00 -0.00000000000E+00 -0.67634906295E+03  0.67634906295E+03  0.00000000000E+00 0.  1.
         24    1    1    2    0    0 -0.62009587972E+02  0.36452594026E+01 -0.12500154856E+03  0.16109338910E+03  0.80419002446E+02 0.  1.
          1    1    1    2  501    0 -0.19824212290E+02 -0.44525895354E+02  0.19978087028E+02  0.52675219138E+02  0.00000000000E+00 0. -1.
         -2    1    1    2    0  503  0.81833800261E+02  0.40880635951E+02 -0.51290624005E+03  0.52099981607E+03  0.00000000000E+00 0.  1.
<mgrwt>
<rscale>  2 0.12091592E+03</rscale>
<asrwt>0</asrwt>
<pdfrwt beam="1">  1       21 0.89875942E-02 0.12091592E+03</pdfrwt>
<pdfrwt beam="2">  1       21 0.10405370E+00 0.12091592E+03</pdfrwt>
<totfact> 0.75671329E+04</totfact>
</mgrwt>
</event>
<event>
 5    1  0.1959123E+000  0.8031576E+02  0.7546771E-02  0.1328158E+00
         21   -1    0    0  501  502  0.00000000000E+00  0.00000000000E+00  0.85063744809E+02  0.85063744809E+02  0.00000000000E+00 0.  1.
         21   -1    0    0  502  503 -0.00000000000E+00 -0.00000000000E+00 -0.98127654310E+02  0.98127654310E+02  0.00000000000E+00 0. -1.
         24    1    1    2    0    0  0.33489446002E+02  0.16403454516E+01  0.20018820827E+02  0.89399121184E+02  0.80419002446E+02 0.  1.
          1    1    1    2  501    0 -0.52805056261E+02 -0.74597774904E+01  0.19515456182E+01  0.53365070760E+02  0.00000000000E+00 0. -1.
         -2    1    1    2    0  503  0.19315610259E+02  0.58194320389E+01 -0.35034275946E+02  0.40427207175E+02  0.00000000000E+00 0.  1.
<mgrwt>
<rscale>  2 0.80315758E+02</rscale>
<asrwt>0</asrwt>
<pdfrwt beam="1">  1       21 0.13086730E-01 0.80315758E+02</pdfrwt>
<pdfrwt beam="2">  1       21 0.15096562E-01 0.80315758E+02</pdfrwt>
<totfact> 0.19053063E+06</totfact>
</mgrwt>
</event>
<event>
 5    1  0.1959123E+000  0.9300222E+02  0.7546771E-02  0.1295740E+00
         21   -1    0    0  503  502  0.00000000000E+00  0.00000000000E+00  0.13563916010E+03  0.13563916010E+03  0.00000000000E+00 0.  1.
         21   -1    0    0  501  503 -0.00000000000E+00 -0.00000000000E+00 -0.32395743236E+03  0.32395743236E+03  0.00000000000E+00 0.  1.
         24    1    1    2    0    0  0.83448396583E+01 -0.69485424198E+02 -0.28001623904E+03  0.29962338127E+03  0.80419002446E+02 0.  1.
          1    1    1    2  501    0 -0.20775203329E+02  0.21781692032E+02 -0.21176445923E+02  0.36803437925E+02  0.00000000000E+00 0. -1.
         -2    1    1    2    0  502  0.12430363671E+02  0.47703732166E+02  0.11287441270E+03  0.12316977326E+03  0.00000000000E+00 0.  1.
<mgrwt>
<rscale>  2 0.93002225E+02</rscale>
<asrwt>0</asrwt>
<pdfrwt beam="1">  1       21 0.20867564E-01 0.93002225E+02</pdfrwt>
<pdfrwt beam="2">  1       21 0.49839604E-01 0.93002225E+02</pdfrwt>
<totfact> 0.85517460E+04</totfact>
</mgrwt>
</event>
<event>
 5    1  0.1959123E+000  0.8021497E+02  0.7546771E-02  0.1328442E+00
         21   -1    0    0  503  502  0.00000000000E+00  0.00000000000E+00  0.17230235631E+03  0.17230235631E+03  0.00000000000E+00 0. -1.
         21   -1    0    0  501  503 -0.00000000000E+00 -0.00000000000E+00 -0.50132438971E+02  0.50132438971E+02  0.00000000000E+00 0. -1.
         24    1    1    2    0    0  0.30891018863E+01 -0.34534419133E+02  0.11769128931E+03  0.14669909403E+03  0.80419002446E+02 0. -1.
          1    1    1    2  501    0 -0.33590429909E+02  0.19647202325E+02 -0.77139856568E+01  0.39671590785E+02  0.00000000000E+00 0. -1.
         -2    1    1    2    0  502  0.30501328023E+02  0.14887216808E+02  0.12192613690E+02  0.36064110470E+02  0.00000000000E+00 0.  1.
<mgrwt>
<rscale>  2 0.80214975E+02</rscale>
<asrwt>0</asrwt>
<pdfrwt beam="1">  1       21 0.26508055E-01 0.80214975E+02</pdfrwt>
<pdfrwt beam="2">  1       21 0.77126830E-02 0.80214975E+02</pdfrwt>
<totfact> 0.16998504E+06</totfact>
</mgrwt>
</event>
<event>
 5    1  0.1959123E+000  0.9963252E+02  0.7546771E-02  0.1281071E+00
         21   -1    0    0  503  502  0.00000000000E+00  0.00000000000E+00  0.62292347623E+02  0.62292347623E+02  0.00000000000E+00 0.  1.
         21   -1    0    0  501  503 -0.00000000000E+00 -0.00000000000E+00 -0.20809156969E+03  0.20809156969E+03  0.00000000000E+00 0.  1.
         24    1    1    2    0    0 -0.69139222584E+02 -0.44554943617E+02 -0.12266067516E+03  0.16816132815E+03  0.80419002446E+02 0.  1.
          1    1    1    2  501    0  0.12148020620E+02  0.17091292229E+02 -0.32085531458E+02  0.38329727418E+02  0.00000000000E+00 0. -1.
         -2    1    1    2    0  502  0.56991201964E+02  0.27463651387E+02  0.89469845548E+01  0.63892861741E+02  0.00000000000E+00 0.  1.
<mgrwt>
<rscale>  2 0.99632520E+02</rscale>
<asrwt>0</asrwt>
<pdfrwt beam="1">  1       21 0.95834381E-02 0.99632520E+02</pdfrwt>
<pdfrwt beam="2">  1       21 0.32014088E-01 0.99632520E+02</pdfrwt>
<totfact> 0.82208335E+05</totfact>
</mgrwt>
</event>
<event>
 5    1  0.1959123E+000  0.7391991E+02  0.7546771E-02  0.1347249E+00
         21   -1    0    0  501  502  0.00000000000E+00  0.00000000000E+00  0.72245820859E+02  0.72245820859E+02  0.00000000000E+00 0.  1.
         21   -1    0    0  502  503 -0.00000000000E+00 -0.00000000000E+00 -0.11774552036E+03  0.11774552036E+03  0.00000000000E+00 0.  1.
         24    1    1    2    0    0 -0.26924755477E+02 -0.14867608480E+02  0.10752866510E+02  0.86768821197E+02  0.80419002446E+02 0.  1.
          1    1    1    2  501    0 -0.14778145867E+02  0.13497586240E+02  0.11919422301E+02  0.23294871915E+02  0.00000000000E+00 0. -1.
         -2    1    1    2    0  503  0.41702901344E+02  0.13700222408E+01 -0.68171988310E+02  0.79927648105E+02  0.00000000000E+00 0.  1.
<mgrwt>
<rscale>  2 0.73919911E+02</rscale>
<asrwt>0</asrwt>
<pdfrwt beam="1">  1       21 0.11114742E-01 0.73919911E+02</pdfrwt>
<pdfrwt beam="2">  1       21 0.18114695E-01 0.73919911E+02</pdfrwt>
<totfact> 0.18221658E+06</totfact>
</mgrwt>
</event>
<event>
 5    1  0.1959123E+000  0.1205187E+03  0.7546771E-02  0.1242244E+00
         21   -1    0    0  503  502  0.00000000000E+00  0.00000000000E+00  0.38809228095E+03  0.38809228095E+03  0.00000000000E+00 0.  1.
         21   -1    0    0  501  503 -0.00000000000E+00 -0.00000000000E+00 -0.93859017516E+02  0.93859017516E+02  0.00000000000E+00 0. -1.
         24    1    1    2    0    0 -0.12579009457E+02 -0.94287958524E+02  0.31143754873E+02  0.12839626172E+03  0.80419002446E+02 0. -1.
          1    1    1    2  501    0  0.32497924255E+02  0.17027371423E+02 -0.31497518845E+02  0.48354318855E+02  0.00000000000E+00 0. -1.
         -2    1    1    2    0  502 -0.19918914798E+02  0.77260587101E+02  0.29458702741E+03  0.30520071789E+03  0.00000000000E+00 0.  1.
<mgrwt>
<rscale>  2 0.12051869E+03</rscale>
<asrwt>0</asrwt>
<pdfrwt beam="1">  1       21 0.59706504E-01 0.12051869E+03</pdfrwt>
<pdfrwt beam="2">  1       21 0.14439849E-01 0.12051869E+03</pdfrwt>
<totfact> 0.11312023E+05</totfact>
</mgrwt>
</event>
<event>
 5    1  0.1959123E+000  0.6908907E+02  0.7546771E-02  0.1363218E+00
         21   -1    0    0  503  502  0.00000000000E+00  0.00000000000E+00  0.17080014591E+03  0.17080014591E+03  0.00000000000E+00 0. -1.
         21   -1    0    0  501  503 -0.00000000000E+00 -0.00000000000E+00 -0.42559205928E+02  0.42559205928E+02  0.00000000000E+00 0.  1.
         24    1    1    2    0    0  0.30113230125E+02  0.46744489840E+01  0.84317086520E+02  0.12043771891E+03  0.80419002446E+02 0. -1.
          1    1    1    2  501    0 -0.90205992779E+01 -0.22704179821E+02 -0.14382111696E+02  0.28349534908E+02  0.00000000000E+00 0. -1.
         -2    1    1    2    0  502 -0.21092630847E+02  0.18029730837E+02  0.58305965163E+02  0.64572098028E+02  0.00000000000E+00 0.  1.
<mgrwt>
<rscale>  2 0.69089067E+02</rscale>
<asrwt>0</asrwt>
<pdfrwt beam="1">  1       21 0.26276945E-01 0.69089067E+02</pdfrwt>
<pdfrwt beam="2">  1       21 0.65475703E-02 0.69089067E+02</pdfrwt>
<totfact> 0.22623606E+06</totfact>
</mgrwt>
</event>
<event>
 5    1  0.1959123E+000  0.6570320E+02  0.7546771E-02  0.1375346E+00
         21   -1    0    0  501  502  0.00000000000E+00  0.00000000000E+00  0.11718783823E+03  0.11718783823E+03  0.00000000000E+00 0. -1.
         21   -1    0    0  502  503 -0.00000000000E+00 -0.00000000000E+00 -0.63172202768E+02  0.63172202768E+02  0.00000000000E+00 0.  1.
         24    1    1    2    0    0 -0.21351166950E+02 -0.12659173528E+02  0.37316468379E+01  0.84245285607E+02  0.80419002446E+02 0.  1.
          1    1    1    2  501    0  0.15297210257E+02 -0.13494445818E+02  0.63137610955E+02  0.66351055957E+02  0.00000000000E+00 0. -1.
         -2    1    1    2    0  503  0.60539566933E+01  0.26153619346E+02 -0.12853622336E+02  0.29763699429E+02  0.00000000000E+00 0.  1.
<mgrwt>
<rscale>  2 0.65703198E+02</rscale>
<asrwt>0</asrwt>
<pdfrwt beam="1">  1       21 0.18028898E-01 0.65703198E+02</pdfrwt>
<pdfrwt beam="2">  1       21 0.97188004E-02 0.65703198E+02</pdfrwt>
<totfact> 0.23024064E+06</totfact>
</mgrwt>
</event>
<event>
 5    1  0.1959123E+000  0.1317517E+03  0.7546771E-02  0.1224879E+00
         21   -1    0    0  501  502  0.00000000000E+00  0.00000000000E+00  0.45982603311E+03  0.45982603311E+03  0.00000000000E+00 0. -1.
         21   -1    0    0  502  503 -0.00000000000E+00 -0.00000000000E+00 -0.11605717423E+03  0.11605717423E+03  0.00000000000E+00 0.  1.
         24    1    1    2    0    0  0.11133517032E+03 -0.11814222344E+02  0.25110297682E+02  0.14011723307E+03  0.80419002446E+02 0.  1.
          1    1    1    2  501    0 -0.26819048256E+02 -0.21937332101E+02  0.34043249034E+03  0.34219115764E+03  0.00000000000E+00 0. -1.
         -2    1    1    2    0  503 -0.84516122065E+02  0.33751554445E+02 -0.21773929146E+02  0.93574816627E+02  0.00000000000E+00 0.  1.
<mgrwt>
<rscale>  2 0.13175175E+03</rscale>
<asrwt>0</asrwt>
<pdfrwt beam="1">  1       21 0.70742466E-01 0.13175175E+03</pdfrwt>
<pdfrwt beam="2">  1       21 0.17854950E-01 0.13175175E+03</pdfrwt>
<totfact> 0.53175929E+04</totfact>
</mgrwt>
</event>
<event>
 5    1  0.1959123E+000  0.6318607E+02  0.7546771E-02  0.1384928E+00
         21   -1    0    0  501  502  0.00000000000E+00  0.00000000000E+00  0.23191241144E+01  0.23191241144E+01  0.00000000000E+00 0.  1.
         21   -1    0    0  502  503 -0.00000000000E+00 -0.00000000000E+00 -0.20400714756E+04  0.20400714756E+04  0.00000000000E+00 0. -1.
         24    1    1    2    0    0  0.48168555144E+01 -0.40304768468E+00 -0.14262180140E+04  0.14284916534E+04  0.80419002446E+02 0. -1.
          1    1    1    2  501    0  0.34439766018E+01 -0.21824743781E+02 -0.13680548928E+03  0.13857821731E+03  0.00000000000E+00 0. -1.
         -2    1    1    2    0  503 -0.82608321162E+01  0.22227791466E+02 -0.47472884825E+03  0.47532072900E+03  0.00000000000E+00 0.  1.
<mgrwt>
<rscale>  2 0.63186074E+02</rscale>
<asrwt>0</asrwt>
<pdfrwt beam="1">  1       21 0.35678892E-03 0.63186074E+02</pdfrwt>
<pdfrwt beam="2">  1       21 0.31385662E+00 0.63186074E+02</pdfrwt>
<totfact> 0.60660332E+05</totfact>
</mgrwt>
</event>
<event>
 5    1  0.1959123E+000  0.1230745E+03  0.7546771E-02  0.1238110E+00
         21   -1    0    0  501  502  0.00000000000E+00  0.00000000000E+00  0.18424161849E+03  0.18424161849E+03  0.00000000000E+00 0.  1.
         21   -1    0    0  502  503 -0.00000000000E+00 -0.00000000000E+00 -0.13685923055E+03  0.13685923055E+03  0.00000000000E+00 0.  1.
         24    1    1    2    0    0 -0.23322425284E+02 -0.98563808590E+02  0.90125873637E+02  0.15763454234E+03  0.80419002446E+02 0.  1.
          1    1    1    2  501    0  0.38708382565E+02  0.37670534242E+02  0.34362854838E+02  0.64017293159E+02  0.00000000000E+00 0. -1.
         -2    1    1    2    0  503 -0.15385957281E+02  0.60893274349E+02 -0.77106340542E+02  0.99449013540E+02  0.00000000000E+00 0.  1.
<mgrwt>
<rscale>  2 0.12307449E+03</rscale>
<asrwt>0</asrwt>
<pdfrwt beam="1">  1       21 0.28344864E-01 0.12307449E+03</pdfrwt>
<pdfrwt beam="2">  1       21 0.21055266E-01 0.12307449E+03</pdfrwt>
<totfact> 0.25350699E+05</totfact>
</mgrwt>
</event>
<event>
 5    1  0.1959123E+000  0.1039701E+03  0.7546771E-02  0.1272162E+00
         21   -1    0    0  503  502  0.00000000000E+00  0.00000000000E+00  0.97516457198E+02  0.97516457198E+02  0.00000000000E+00 0. -1.
         21   -1    0    0  501  503 -0.00000000000E+00 -0.00000000000E+00 -0.14574516963E+03  0.14574516963E+03  0.00000000000E+00 0. -1.
         24    1    1    2    0    0 -0.34035757671E+02  0.41084046234E+02 -0.51253212897E+02  0.10927231782E+03  0.80419002446E+02 0. -1.
          1    1    1    2  501    0  0.38476417725E+02  0.24555159490E+02 -0.35434058155E+02  0.57783761178E+02  0.00000000000E+00 0. -1.
         -2    1    1    2    0  502 -0.44406600545E+01 -0.65639205725E+02  0.38458558616E+02  0.76205547834E+02  0.00000000000E+00 0.  1.
<mgrwt>
<rscale>  2 0.10397007E+03</rscale>
<asrwt>0</asrwt>
<pdfrwt beam="1">  1       21 0.15002532E-01 0.10397007E+03</pdfrwt>
<pdfrwt beam="2">  1       21 0.22422334E-01 0.10397007E+03</pdfrwt>
<totfact> 0.73276108E+05</totfact>
</mgrwt>
</event>
<event>
 5    1  0.1959123E+000  0.7978595E+02  0.7546771E-02  0.1329660E+00
         21   -1    0    0  501  502  0.00000000000E+00  0.00000000000E+00  0.28780318383E+02  0.28780318383E+02  0.00000000000E+00 0.  1.
         21   -1    0    0  502  503 -0.00000000000E+00 -0.00000000000E+00 -0.37843366195E+03  0.37843366195E+03  0.00000000000E+00 0. -1.
         24    1    1    2    0    0  0.60975097863E+01 -0.56367459666E+02 -0.14727534018E+03  0.17712061403E+03  0.80419002446E+02 0.  1.
          1    1    1    2  501    0 -0.14871098257E+02  0.32280171969E+02 -0.11286492996E+02  0.37289998523E+02  0.00000000000E+00 0. -1.
         -2    1    1    2    0  503  0.87735884711E+01  0.24087287697E+02 -0.19109151040E+03  0.19280336778E+03  0.00000000000E+00 0.  1.
<mgrwt>
<rscale>  2 0.79785950E+02</rscale>
<asrwt>0</asrwt>
<pdfrwt beam="1">  1       21 0.44277414E-02 0.79785950E+02</pdfrwt>
<pdfrwt beam="2">  1       21 0.58220563E-01 0.79785950E+02</pdfrwt>
<totfact> 0.91203640E+05</totfact>
</mgrwt>
</event>
<event>
 5    1  0.1959123E+000  0.7020460E+02  0.7546771E-02  0.1359399E+00
         21   -1    0    0  503  502  0.00000000000E+00  0.00000000000E+00  0.24603305539E+03  0.24603305539E+03  0.00000000000E+00 0. -1.
         21   -1    0    0  501  503 -0.00000000000E+00 -0.00000000000E+00 -0.22450502093E+02  0.22450502093E+02  0.00000000000E+00 0.  1.
         24    1    1    2    0    0  0.23765345329E+02  0.18042827003E+01  0.16600032052E+03  0.18598755185E+03  0.80419002446E+02 0.  0.
          1    1    1    2  501    0 -0.20351709267E+02  0.23449366560E+02  0.19469628221E+02  0.36648755575E+02  0.00000000000E+00 0. -1.
         -2    1    1    2    0  502 -0.34136360628E+01 -0.25253649261E+02  0.38112604555E+02  0.45847250061E+02  0.00000000000E+00 0.  1.
<mgrwt>
<rscale>  2 0.70204595E+02</rscale>
<asrwt>0</asrwt>
<pdfrwt beam="1">  1       21 0.37851237E-01 0.70204595E+02</pdfrwt>
<pdfrwt beam="2">  1       21 0.34539236E-02 0.70204595E+02</pdfrwt>
<totfact> 0.32419658E+06</totfact>
</mgrwt>
</event>
<event>
 5    1  0.1959123E+000  0.6735730E+02  0.7546771E-02  0.1369317E+00
         21   -1    0    0  503  502  0.00000000000E+00  0.00000000000E+00  0.99822298449E+02  0.99822298449E+02  0.00000000000E+00 0. -1.
         21   -1    0    0  501  503 -0.00000000000E+00 -0.00000000000E+00 -0.48458467060E+02  0.48458467060E+02  0.00000000000E+00 0.  1.
         24    1    1    2    0    0 -0.63762818005E+01  0.25295069827E+01  0.13236699489E+02  0.81789250779E+02  0.80419002446E+02 0.  1.
          1    1    1    2  501    0 -0.16127882712E+02  0.17556065969E+02  0.12537958203E+02  0.26935561049E+02  0.00000000000E+00 0. -1.
         -2    1    1    2    0  502  0.22504164512E+02 -0.20085572952E+02  0.25589173696E+02  0.39555953682E+02  0.00000000000E+00 0.  1.
<mgrwt>
<rscale>  2 0.67357298E+02</rscale>
<asrwt>0</asrwt>
<pdfrwt beam="1">  1       21 0.15357277E-01 0.67357298E+02</pdfrwt>
<pdfrwt beam="2">  1       21 0.74551488E-02 0.67357298E+02</pdfrwt>
<totfact> 0.48186507E+06</totfact>
</mgrwt>
</event>
<event>
 5    1  0.1959123E+000  0.7657197E+02  0.7546771E-02  0.1339071E+00
         21   -1    0    0  503  502  0.00000000000E+00  0.00000000000E+00  0.71287675504E+02  0.71287675504E+02  0.00000000000E+00 0. -1.
         21   -1    0    0  501  503 -0.00000000000E+00 -0.00000000000E+00 -0.88262015837E+02  0.88262015837E+02  0.00000000000E+00 0.  1.
         24    1    1    2    0    0  0.13488817759E+02  0.11828122413E+01  0.68651215343E+01  0.81839434855E+02  0.80419002446E+02 0.  0.
          1    1    1    2  501    0 -0.19886914232E+02 -0.33331728254E+02 -0.22586230336E+02  0.44906917806E+02  0.00000000000E+00 0. -1.
         -2    1    1    2    0  502  0.63980964724E+01  0.32148916013E+02 -0.12532315302E+01  0.32803338680E+02  0.00000000000E+00 0.  1.
<mgrwt>
<rscale>  2 0.76571974E+02</rscale>
<asrwt>0</asrwt>
<pdfrwt beam="1">  1       21 0.10967335E-01 0.76571974E+02</pdfrwt>
<pdfrwt beam="2">  1       21 0.13578772E-01 0.76571974E+02</pdfrwt>
<totfact> 0.31229651E+06</totfact>
</mgrwt>
</event>
<event>
 5    1  0.1959123E+000  0.1057972E+03  0.7546771E-02  0.1268557E+00
         21   -1    0    0  501  502  0.00000000000E+00  0.00000000000E+00  0.98487304706E+02  0.98487304706E+02  0.00000000000E+00 0. -1.
         21   -1    0    0  502  503 -0.00000000000E+00 -0.00000000000E+00 -0.22179343269E+03  0.22179343269E+03  0.00000000000E+00 0.  1.
         24    1    1    2    0    0 -0.22940819953E+02 -0.47637576989E+02 -0.58942137271E+02  0.11285836904E+03  0.80419002446E+02 0.  1.
          1    1    1    2  501    0 -0.40912515177E+02  0.14461138124E+02  0.53771753669E+02  0.69096743096E+02  0.00000000000E+00 0. -1.
         -2    1    1    2    0  503  0.63853335130E+02  0.33176438865E+02 -0.11813574438E+03  0.13832562526E+03  0.00000000000E+00 0.  1.
<mgrwt>
<rscale>  2 0.10579725E+03</rscale>
<asrwt>0</asrwt>
<pdfrwt beam="1">  1       21 0.15151893E-01 0.10579725E+03</pdfrwt>
<pdfrwt beam="2">  1       21 0.34122067E-01 0.10579725E+03</pdfrwt>
<totfact> 0.32400811E+05</totfact>
</mgrwt>
</event>
<event>
 5    1  0.1959123E+000  0.6527964E+02  0.7546771E-02  0.1376923E+00
         21   -1    0    0  501  502  0.00000000000E+00  0.00000000000E+00  0.10566695798E+04  0.10566695798E+04  0.00000000000E+00 0.  1.
         21   -1    0    0  502  503 -0.00000000000E+00 -0.00000000000E+00 -0.40566878805E+01  0.40566878805E+01  0.00000000000E+00 0. -1.
         24    1    1    2    0    0  0.13707974596E+02  0.11049225674E+02  0.70190204044E+03  0.70671329709E+03  0.80419002446E+02 0. -1.
          1    1    1    2  501    0 -0.19631156486E+02  0.12948920065E+02  0.17336942367E+03  0.17495717733E+03  0.00000000000E+00 0. -1.
         -2    1    1    2    0  503  0.59231818900E+01 -0.23998145739E+02  0.17734142785E+03  0.17905579330E+03  0.00000000000E+00 0.  1.
<mgrwt>
<rscale>  2 0.65279643E+02</rscale>
<asrwt>0</asrwt>
<pdfrwt beam="1">  1       21 0.16256433E+00 0.65279643E+02</pdfrwt>
<pdfrwt beam="2">  1       21 0.62410667E-03 0.65279643E+02</pdfrwt>
<totfact> 0.19135965E+06</totfact>
</mgrwt>
</event>
<event>
 5    1  0.1959123E+000  0.2025438E+03  0.7546771E-02  0.1147610E+00
         21   -1    0    0  503  502  0.00000000000E+00  0.00000000000E+00  0.23933721137E+03  0.23933721137E+03  0.00000000000E+00 0.  1.
         21   -1    0    0  501  503 -0.00000000000E+00 -0.00000000000E+00 -0.29704778217E+03  0.29704778217E+03  0.00000000000E+00 0. -1.
         24    1    1    2    0    0 -0.18060098426E+02 -0.65283097182E+02 -0.49343514602E+02  0.11614666728E+03  0.80419002446E+02 0.  1.
          1    1    1    2  501    0 -0.10584007487E+03 -0.61714552446E+02 -0.14966944491E+03  0.19342117302E+03  0.00000000000E+00 0. -1.
         -2    1    1    2    0  502  0.12390017329E+03  0.12699764963E+03  0.14130238871E+03  0.22681715325E+03  0.00000000000E+00 0.  1.
<mgrwt>
<rscale>  2 0.20254385E+03</rscale>
<asrwt>0</asrwt>
<pdfrwt beam="1">  1       21 0.36821109E-01 0.20254385E+03</pdfrwt>
<pdfrwt beam="2">  1       21 0.45699659E-01 0.20254385E+03</pdfrwt>
<totfact> 0.32481351E+04</totfact>
</mgrwt>
</event>
<event>
 5    1  0.1959123E+000  0.7527820E+02  0.7546771E-02  0.1343012E+00
         21   -1    0    0  501  502  0.00000000000E+00  0.00000000000E+00  0.40429014020E+02  0.40429014020E+02  0.00000000000E+00 0. -1.
         21   -1    0    0  502  503 -0.00000000000E+00 -0.00000000000E+00 -0.27452694374E+03  0.27452694374E+03  0.00000000000E+00 0.  1.
         24    1    1    2    0    0  0.47391538316E+02 -0.10673944950E+02 -0.29413899732E+02  0.98449400489E+02  0.80419002446E+02 0. -1.
          1    1    1    2  501    0 -0.25962576708E+02 -0.90346615903E+01 -0.35827516145E+02  0.45158514286E+02  0.00000000000E+00 0. -1.
         -2    1    1    2    0  503 -0.21428961608E+02  0.19708606540E+02 -0.16885651384E+03  0.17134804298E+03  0.00000000000E+00 0.  1.
<mgrwt>
<rscale>  2 0.75278203E+02</rscale>
<asrwt>0</asrwt>
<pdfrwt beam="1">  1       21 0.62198484E-02 0.75278203E+02</pdfrwt>
<pdfrwt beam="2">  1       21 0.42234914E-01 0.75278203E+02</pdfrwt>
<totfact> 0.99404637E+05</totfact>
</mgrwt>
</event>
<event>
 5    1  0.1959123E+000  0.6992159E+02  0.7546771E-02  0.1360360E+00
         21   -1    0    0  501  502  0.00000000000E+00  0.00000000000E+00  0.52580780781E+02  0.52580780781E+02  0.00000000000E+00 0. -1.
         21   -1    0    0  502  503 -0.00000000000E+00 -0.00000000000E+00 -0.11255036241E+04  0.11255036241E+04  0.00000000000E+00 0. -1.
         24    1    1    2    0    0  0.19599997926E+02  0.41649125724E+02 -0.63855534410E+03  0.64524332854E+03  0.80419002446E+02 0. -1.
          1    1    1    2  501    0 -0.67031976517E+01 -0.26268240556E+02  0.45279176811E+02  0.52774588329E+02  0.00000000000E+00 0. -1.
         -2    1    1    2    0  503 -0.12896800275E+02 -0.15380885168E+02 -0.47964667604E+03  0.48006648802E+03  0.00000000000E+00 0.  1.
<mgrwt>
<rscale>  2 0.69921589E+02</rscale>
<asrwt>0</asrwt>
<pdfrwt beam="1">  1       21 0.80893500E-02 0.69921589E+02</pdfrwt>
<pdfrwt beam="2">  1       21 0.17315442E+00 0.69921589E+02</pdfrwt>
<totfact> 0.26805614E+04</totfact>
</mgrwt>
</event>
<event>
 5    1  0.1959123E+000  0.7837666E+02  0.7546771E-02  0.1333722E+00
         21   -1    0    0  503  502  0.00000000000E+00  0.00000000000E+00  0.11969183656E+03  0.11969183656E+03  0.00000000000E+00 0.  1.
         21   -1    0    0  501  503 -0.00000000000E+00 -0.00000000000E+00 -0.55447311527E+02  0.55447311527E+02  0.00000000000E+00 0.  1.
         24    1    1    2    0    0  0.52470888919E+02  0.10258962828E+02  0.23448616952E+02  0.99375520595E+02  0.80419002446E+02 0.  1.
          1    1    1    2  501    0 -0.26804899246E+02  0.88031921392E+01  0.66491208901E+01  0.28986369625E+02  0.00000000000E+00 0. -1.
         -2    1    1    2    0  502 -0.25665989673E+02 -0.19062154967E+02  0.34146787186E+02  0.46777257861E+02  0.00000000000E+00 0.  1.
<mgrwt>
<rscale>  2 0.78376663E+02</rscale>
<asrwt>0</asrwt>
<pdfrwt beam="1">  1       21 0.18414129E-01 0.78376663E+02</pdfrwt>
<pdfrwt beam="2">  1       21 0.85303556E-02 0.78376663E+02</pdfrwt>
<totfact> 0.27978202E+06</totfact>
</mgrwt>
</event>
<event>
 5    1  0.1959123E+000  0.1756996E+03  0.7546771E-02  0.1172031E+00
         21   -1    0    0  501  502  0.00000000000E+00  0.00000000000E+00  0.15269075959E+03  0.15269075959E+03  0.00000000000E+00 0. -1.
         21   -1    0    0  502  503 -0.00000000000E+00 -0.00000000000E+00 -0.72145901103E+03  0.72145901103E+03  0.00000000000E+00 0. -1.
         24    1    1    2    0    0  0.99015414626E+02  0.13194696403E+03 -0.43209791251E+03  0.46945700080E+03  0.80419002446E+02 0. -1.
          1    1    1    2  501    0 -0.64539513921E+02 -0.10828658138E+03  0.10214183444E+03  0.16224760986E+03  0.00000000000E+00 0. -1.
         -2    1    1    2    0  503 -0.34475900705E+02 -0.23660382646E+02 -0.23881217337E+03  0.24244515996E+03  0.00000000000E+00 0.  1.
<mgrwt>
<rscale>  2 0.17569965E+03</rscale>
<asrwt>0</asrwt>
<pdfrwt beam="1">  1       21 0.23490886E-01 0.17569965E+03</pdfrwt>
<pdfrwt beam="2">  1       21 0.11099369E+00 0.17569965E+03</pdfrwt>
<totfact> 0.11029802E+04</totfact>
</mgrwt>
</event>
<event>
 5    1  0.1959123E+000  0.7289892E+02  0.7546771E-02  0.1350504E+00
         21   -1    0    0  503  502  0.00000000000E+00  0.00000000000E+00  0.13364074559E+03  0.13364074559E+03  0.00000000000E+00 0. -1.
         21   -1    0    0  501  503 -0.00000000000E+00 -0.00000000000E+00 -0.49879254869E+02  0.49879254869E+02  0.00000000000E+00 0.  1.
         24    1    1    2    0    0  0.41262253545E+02  0.24424038634E+02  0.29778002329E+02  0.98249949658E+02  0.80419002446E+02 0.  1.
          1    1    1    2  501    0 -0.24802750112E+02 -0.27514012290E+01  0.15747225655E+00  0.24955388584E+02  0.00000000000E+00 0. -1.
         -2    1    1    2    0  502 -0.16459503433E+02 -0.21672637405E+02  0.53826016134E+02  0.60314662215E+02  0.00000000000E+00 0.  1.
<mgrwt>
<rscale>  2 0.72898922E+02</rscale>
<asrwt>0</asrwt>
<pdfrwt beam="1">  1       21 0.20560114E-01 0.72898922E+02</pdfrwt>
<pdfrwt beam="2">  1       21 0.76737316E-02 0.72898922E+02</pdfrwt>
<totfact> 0.27306628E+06</totfact>
</mgrwt>
</event>
<event>
 5    1  0.1959123E+000  0.1019632E+03  0.7546771E-02  0.1276221E+00
         21   -1    0    0  501  502  0.00000000000E+00  0.00000000000E+00  0.23571423022E+03  0.23571423022E+03  0.00000000000E+00 0. -1.
         21   -1    0    0  502  503 -0.00000000000E+00 -0.00000000000E+00 -0.46940585951E+02  0.46940585951E+02  0.00000000000E+00 0. -1.
         24    1    1    2    0    0 -0.30358982671E+02 -0.52549767781E+02  0.58674336210E+02  0.11658919164E+03  0.80419002446E+02 0. -1.
          1    1    1    2  501    0  0.18563636946E+02  0.75298166242E+02  0.99528559164E+02  0.12617589526E+03  0.00000000000E+00 0. -1.
         -2    1    1    2    0  503  0.11795345724E+02 -0.22748398461E+02  0.30570748898E+02  0.39889729273E+02  0.00000000000E+00 0.  1.
<mgrwt>
<rscale>  2 0.10196315E+03</rscale>
<asrwt>0</asrwt>
<pdfrwt beam="1">  1       21 0.36263727E-01 0.10196315E+03</pdfrwt>
<pdfrwt beam="2">  1       21 0.72216287E-02 0.10196315E+03</pdfrwt>
<totfact> 0.10491410E+06</totfact>
</mgrwt>
</event>
<event>
 5    1  0.1959123E+000  0.2009777E+03  0.7546771E-02  0.1148917E+00
         21   -1    0    0  503  502  0.00000000000E+00  0.00000000000E+00  0.40632886482E+03  0.40632886482E+03  0.00000000000E+00 0.  1.
         21   -1    0    0  501  503 -0.00000000000E+00 -0.00000000000E+00 -0.30035437465E+03  0.30035437465E+03  0.00000000000E+00 0. -1.
         24    1    1    2    0    0  0.17981138882E+03 -0.66653842476E+02 -0.24530195232E+01  0.20796178381E+03  0.80419002446E+02 0.  1.
          1    1    1    2  501    0 -0.93709882768E+02  0.19061805054E+02 -0.17460564411E+03  0.19907793825E+03  0.00000000000E+00 0. -1.
         -2    1    1    2    0  502 -0.86101506054E+02  0.47592037422E+02  0.28303315381E+03  0.29964351741E+03  0.00000000000E+00 0.  1.
<mgrwt>
<rscale>  2 0.20097774E+03</rscale>
<asrwt>0</asrwt>
<pdfrwt beam="1">  1       21 0.62512133E-01 0.20097774E+03</pdfrwt>
<pdfrwt beam="2">  1       21 0.46208365E-01 0.20097774E+03</pdfrwt>
<totfact> 0.10583460E+04</totfact>
</mgrwt>
</event>
<event>
 5    1  0.1959123E+000  0.9280411E+02  0.7546771E-02  0.1296200E+00
         21   -1    0    0  501  502  0.00000000000E+00  0.00000000000E+00  0.24238883406E+03  0.24238883406E+03  0.00000000000E+00 0. -1.
         21   -1    0    0  502  503 -0.00000000000E+00 -0.00000000000E+00 -0.12645249475E+03  0.12645249475E+03  0.00000000000E+00 0.  1.
         24    1    1    2    0    0 -0.35432063621E+02  0.58696235161E+01  0.16935584540E+02  0.89687867578E+02  0.80419002446E+02 0. -1.
          1    1    1    2  501    0  0.64566453563E+02  0.83683056605E+01  0.18026299868E+03  0.19166012668E+03  0.00000000000E+00 0. -1.
         -2    1    1    2    0  503 -0.29134389941E+02 -0.14237929177E+02 -0.81262243917E+02  0.87493334551E+02  0.00000000000E+00 0.  1.
<mgrwt>
<rscale>  2 0.92804107E+02</rscale>
<asrwt>0</asrwt>
<pdfrwt beam="1">  1       21 0.37290590E-01 0.92804107E+02</pdfrwt>
<pdfrwt beam="2">  1       21 0.19454230E-01 0.92804107E+02</pdfrwt>
<totfact> 0.17380918E+05</totfact>
</mgrwt>
</event>
<event>
 5    1  0.1959123E+000  0.1503183E+03  0.7546771E-02  0.1200082E+00
         21   -1    0    0  501  502  0.00000000000E+00  0.00000000000E+00  0.11465707601E+03  0.11465707601E+03  0.00000000000E+00 0. -1.
         21   -1    0    0  502  503 -0.00000000000E+00 -0.00000000000E+00 -0.39782447001E+03  0.39782447001E+03  0.00000000000E+00 0. -1.
         24    1    1    2    0    0  0.86121324430E+02  0.35094603266E+02 -0.26060918964E+03  0.28815426316E+03  0.80419002446E+02 0. -1.
          1    1    1    2  501    0 -0.12333732454E+03  0.44107444443E+01  0.50471856874E+02  0.13333776145E+03  0.00000000000E+00 0. -1.
         -2    1    1    2    0  503  0.37216000109E+02 -0.39505347710E+02 -0.73030061237E+02  0.90989521408E+02  0.00000000000E+00 0.  1.
<mgrwt>
<rscale>  2 0.15031827E+03</rscale>
<asrwt>0</asrwt>
<pdfrwt beam="1">  1       21 0.17639550E-01 0.15031827E+03</pdfrwt>
<pdfrwt beam="2">  1       21 0.61203764E-01 0.15031827E+03</pdfrwt>
<totfact> 0.73711691E+04</totfact>
</mgrwt>
</event>
<event>
 5    1  0.1959123E+000  0.1045280E+03  0.7546771E-02  0.1271052E+00
         21   -1    0    0  503  502  0.00000000000E+00  0.00000000000E+00  0.17870031201E+03  0.17870031201E+03  0.00000000000E+00 0. -1.
         21   -1    0    0  501  503 -0.00000000000E+00 -0.00000000000E+00 -0.76873132808E+02  0.76873132808E+02  0.00000000000E+00 0. -1.
         24    1    1    2    0    0 -0.23237100002E+02  0.84935016986E+02  0.72519954334E+02  0.13957177242E+03  0.80419002446E+02 0. -1.
          1    1    1    2  501    0  0.24756833688E+02 -0.61168338193E+02 -0.13183154267E+02  0.67292361885E+02  0.00000000000E+00 0. -1.
         -2    1    1    2    0  502 -0.15197336868E+01 -0.23766678792E+02  0.42490379135E+02  0.48709310510E+02  0.00000000000E+00 0.  1.
<mgrwt>
<rscale>  2 0.10452800E+03</rscale>
<asrwt>0</asrwt>
<pdfrwt beam="1">  1       21 0.27492356E-01 0.10452800E+03</pdfrwt>
<pdfrwt beam="2">  1       21 0.11826636E-01 0.10452800E+03</pdfrwt>
<totfact> 0.76242928E+05</totfact>
</mgrwt>
</event>
<event>
 5    1  0.1959123E+000  0.9613364E+02  0.7546771E-02  0.1288643E+00
         21   -1    0    0  503  502  0.00000000000E+00  0.00000000000E+00  0.87316328245E+03  0.87316328245E+03  0.00000000000E+00 0.  1.
         21   -1    0    0  501  503 -0.00000000000E+00 -0.00000000000E+00 -0.15246527753E+02  0.15246527753E+02  0.00000000000E+00 0.  1.
         24    1    1    2    0    0  0.62075110150E+02 -0.14189619189E+02  0.22802563480E+03  0.25003513887E+03  0.80419002446E+02 0.  1.
          1    1    1    2  501    0 -0.54911563630E+01  0.30351505556E+02  0.87045073738E+02  0.92348316443E+02  0.00000000000E+00 0. -1.
         -2    1    1    2    0  502 -0.56583953787E+02 -0.16161886367E+02  0.54284604616E+03  0.54602635489E+03  0.00000000000E+00 0.  1.
<mgrwt>
<rscale>  2 0.96133645E+02</rscale>
<asrwt>0</asrwt>
<pdfrwt beam="1">  1       21 0.13433277E+00 0.96133645E+02</pdfrwt>
<pdfrwt beam="2">  1       21 0.23456203E-02 0.96133645E+02</pdfrwt>
<totfact> 0.38763614E+05</totfact>
</mgrwt>
</event>
<event>
 5    1  0.1959123E+000  0.1032033E+03  0.7546771E-02  0.1273700E+00
         21   -1    0    0  503  502  0.00000000000E+00  0.00000000000E+00  0.39112114155E+03  0.39112114155E+03  0.00000000000E+00 0. -1.
         21   -1    0    0  501  503 -0.00000000000E+00 -0.00000000000E+00 -0.34542157648E+02  0.34542157648E+02  0.00000000000E+00 0. -1.
         24    1    1    2    0    0 -0.14369961914E+02 -0.64809356965E+02  0.10561191171E+03  0.14841779006E+03  0.80419002446E+02 0. -1.
          1    1    1    2  501    0 -0.17435656465E+02  0.67965664571E+02  0.95377147994E+02  0.11840664693E+03  0.00000000000E+00 0. -1.
         -2    1    1    2    0  502  0.31805618379E+02 -0.31563076059E+01  0.15558992420E+03  0.15883886222E+03  0.00000000000E+00 0.  1.
<mgrwt>
<rscale>  2 0.10320331E+03</rscale>
<asrwt>0</asrwt>
<pdfrwt beam="1">  1       21 0.60172480E-01 0.10320331E+03</pdfrwt>
<pdfrwt beam="2">  1       21 0.53141783E-02 0.10320331E+03</pdfrwt>
<totfact> 0.62964161E+05</totfact>
</mgrwt>
</event>
<event>
 5    1  0.1959123E+000  0.6952351E+02  0.7546771E-02  0.1361721E+00
         21   -1    0    0  503  502  0.00000000000E+00  0.00000000000E+00  0.37579276750E+02  0.37579276750E+02  0.00000000000E+00 0.  1.
         21   -1    0    0  501  503 -0.00000000000E+00 -0.00000000000E+00 -0.13043089220E+03  0.13043089220E+03  0.00000000000E+00 0. -1.
         24    1    1    2    0    0 -0.90559807154E+01 -0.14710508873E+02 -0.45083721968E+02  0.93798549023E+02  0.80419002446E+02 0.  0.
          1    1    1    2  501    0  0.31496207646E+02  0.34442230241E+01 -0.26833836069E+02  0.41520218286E+02  0.00000000000E+00 0. -1.
         -2    1    1    2    0  502 -0.22440226931E+02  0.11266285849E+02 -0.20934057416E+02  0.32691401644E+02  0.00000000000E+00 0.  1.
<mgrwt>
<rscale>  2 0.69523505E+02</rscale>
<asrwt>0</asrwt>
<pdfrwt beam="1">  1       21 0.57814272E-02 0.69523505E+02</pdfrwt>
<pdfrwt beam="2">  1       21 0.20066291E-01 0.69523505E+02</pdfrwt>
<totfact> 0.45768485E+06</totfact>
</mgrwt>
</event>
<event>
 5    1  0.1959123E+000  0.1560206E+03  0.7546771E-02  0.1193264E+00
         21   -1    0    0  501  502  0.00000000000E+00  0.00000000000E+00  0.47248939075E+02  0.47248939075E+02  0.00000000000E+00 0.  1.
         21   -1    0    0  502  503 -0.00000000000E+00 -0.00000000000E+00 -0.11756262721E+04  0.11756262721E+04  0.00000000000E+00 0.  1.
         24    1    1    2    0    0 -0.86798124234E+02 -0.10893038010E+02 -0.45831740086E+03  0.47347083177E+03  0.80419002446E+02 0.  1.
          1    1    1    2  501    0  0.31667867737E+02 -0.80486563316E+02 -0.17588658582E+02  0.88262685389E+02  0.00000000000E+00 0. -1.
         -2    1    1    2    0  503  0.55130256497E+02  0.91379601325E+02 -0.65247127354E+03  0.66114169398E+03  0.00000000000E+00 0.  1.
<mgrwt>
<rscale>  2 0.15602055E+03</rscale>
<asrwt>0</asrwt>
<pdfrwt beam="1">  1       21 0.72690680E-02 0.15602055E+03</pdfrwt>
<pdfrwt beam="2">  1       21 0.18086557E+00 0.15602055E+03</pdfrwt>
<totfact> 0.26132322E+04</totfact>
</mgrwt>
</event>
<event>
 5    1  0.1959123E+000  0.7686380E+02  0.7546771E-02  0.1338195E+00
         21   -1    0    0  501  502  0.00000000000E+00  0.00000000000E+00  0.16521020818E+03  0.16521020818E+03  0.00000000000E+00 0.  1.
         21   -1    0    0  502  503 -0.00000000000E+00 -0.00000000000E+00 -0.41525436992E+02  0.41525436992E+02  0.00000000000E+00 0. -1.
         24    1    1    2    0    0  0.38386672850E+02  0.11112714893E+02  0.80908763004E+02  0.12087378943E+03  0.80419002446E+02 0.  0.
          1    1    1    2  501    0 -0.14984165326E+02  0.20002655334E+02  0.39562609687E+02  0.46795635653E+02  0.00000000000E+00 0. -1.
         -2    1    1    2    0  503 -0.23402507524E+02 -0.31115370227E+02  0.32133984999E+01  0.39066220097E+02  0.00000000000E+00 0.  1.
<mgrwt>
<rscale>  2 0.76863803E+02</rscale>
<asrwt>0</asrwt>
<pdfrwt beam="1">  1       21 0.25416955E-01 0.76863803E+02</pdfrwt>
<pdfrwt beam="2">  1       21 0.63885289E-02 0.76863803E+02</pdfrwt>
<totfact> 0.25228910E+06</totfact>
</mgrwt>
</event>
<event>
 5    1  0.1959123E+000  0.1702411E+03  0.7546771E-02  0.1177597E+00
         21   -1    0    0  503  502  0.00000000000E+00  0.00000000000E+00  0.46011222641E+03  0.46011222641E+03  0.00000000000E+00 0.  1.
         21   -1    0    0  501  503 -0.00000000000E+00 -0.00000000000E+00 -0.41447654402E+03  0.41447654402E+03  0.00000000000E+00 0.  1.
         24    1    1    2    0    0 -0.11239166854E+03  0.11046706048E+03 -0.28962653914E+03  0.33939005103E+03  0.80419002446E+02 0.  1.
          1    1    1    2  501    0  0.66364861052E+02 -0.34655424105E+02 -0.80586459785E+02  0.10999759408E+03  0.00000000000E+00 0. -1.
         -2    1    1    2    0  502  0.46026807490E+02 -0.75811636375E+02  0.41584868132E+03  0.42520112532E+03  0.00000000000E+00 0.  1.
<mgrwt>
<rscale>  2 0.17024109E+03</rscale>
<asrwt>0</asrwt>
<pdfrwt beam="1">  1       21 0.70786496E-01 0.17024109E+03</pdfrwt>
<pdfrwt beam="2">  1       21 0.63765622E-01 0.17024109E+03</pdfrwt>
<totfact> 0.41855827E+03</totfact>
</mgrwt>
</event>
<event>
 5    1  0.1959123E+000  0.8358069E+02  0.7546771E-02  0.1319186E+00
         21   -1    0    0  503  502  0.00000000000E+00  0.00000000000E+00  0.43281439321E+03  0.43281439321E+03  0.00000000000E+00 0.  1.
         21   -1    0    0  501  503 -0.00000000000E+00 -0.00000000000E+00 -0.54919457649E+02  0.54919457649E+02  0.00000000000E+00 0. -1.
         24    1    1    2    0    0 -0.23550760502E+02 -0.15793494445E+02  0.67730335093E+02  0.10889759884E+03  0.80419002446E+02 0. -1.
          1    1    1    2  501    0 -0.23781293684E+02  0.24073069716E+02 -0.23839786248E+02  0.41393212284E+02  0.00000000000E+00 0. -1.
         -2    1    1    2    0  502  0.47332054186E+02 -0.82795752706E+01  0.33400438672E+03  0.33744303973E+03  0.00000000000E+00 0.  1.
<mgrwt>
<rscale>  2 0.83580689E+02</rscale>
<asrwt>0</asrwt>
<pdfrwt beam="1">  1       21 0.66586828E-01 0.83580689E+02</pdfrwt>
<pdfrwt beam="2">  1       21 0.84491476E-02 0.83580689E+02</pdfrwt>
<totfact> 0.23233148E+05</totfact>
</mgrwt>
</event>
<event>
 5    1  0.1959123E+000  0.1295474E+03  0.7546771E-02  0.1228129E+00
         21   -1    0    0  503  502  0.00000000000E+00  0.00000000000E+00  0.14548952115E+03  0.14548952115E+03  0.00000000000E+00 0. -1.
         21   -1    0    0  501  503 -0.00000000000E+00 -0.00000000000E+00 -0.17339014277E+03  0.17339014277E+03  0.00000000000E+00 0.  1.
         24    1    1    2    0    0 -0.98915556410E+02 -0.62609793892E+02 -0.10359046313E+03  0.17579099408E+03  0.80419002446E+02 0.  1.
          1    1    1    2  501    0  0.28731532608E+02  0.18646270833E+02  0.58348872483E+01  0.34745219688E+02  0.00000000000E+00 0. -1.
         -2    1    1    2    0  502  0.70184023803E+02  0.43963523059E+02  0.69854954264E+02  0.10834345016E+03  0.00000000000E+00 0.  1.
<mgrwt>
<rscale>  2 0.12954737E+03</rscale>
<asrwt>0</asrwt>
<pdfrwt beam="1">  1       21 0.22383003E-01 0.12954737E+03</pdfrwt>
<pdfrwt beam="2">  1       21 0.26675406E-01 0.12954737E+03</pdfrwt>
<totfact> 0.25366782E+05</totfact>
</mgrwt>
</event>
<event>
 5    1  0.1959123E+000  0.1049126E+03  0.7546771E-02  0.1270292E+00
         21   -1    0    0  501  502  0.00000000000E+00  0.00000000000E+00  0.83272463151E+03  0.83272463151E+03  0.00000000000E+00 0. -1.
         21   -1    0    0  502  503 -0.00000000000E+00 -0.00000000000E+00 -0.54737964463E+02  0.54737964463E+02  0.00000000000E+00 0. -1.
         24    1    1    2    0    0 -0.63590289111E+02 -0.16794474506E+02  0.26927524075E+03  0.28862111926E+03  0.80419002446E+02 0. -1.
          1    1    1    2  501    0  0.34181605584E+02 -0.33380866351E+02  0.53348941567E+03  0.53562451496E+03  0.00000000000E+00 0. -1.
         -2    1    1    2    0  503  0.29408683528E+02  0.50175340857E+02 -0.24777989370E+02  0.63216961760E+02  0.00000000000E+00 0.  1.
<mgrwt>
<rscale>  2 0.10491264E+03</rscale>
<asrwt>0</asrwt>
<pdfrwt beam="1">  1       21 0.12811147E+00 0.10491264E+03</pdfrwt>
<pdfrwt beam="2">  1       21 0.84212259E-02 0.10491264E+03</pdfrwt>
<totfact> 0.51866750E+04</totfact>
</mgrwt>
</event>
<event>
 5    1  0.1959123E+000  0.1038921E+03  0.7546771E-02  0.1272318E+00
         21   -1    0    0  501  502  0.00000000000E+00  0.00000000000E+00  0.17353020310E+02  0.17353020310E+02  0.00000000000E+00 0. -1.
         21   -1    0    0  502  503 -0.00000000000E+00 -0.00000000000E+00 -0.10391561161E+04  0.10391561161E+04  0.00000000000E+00 0. -1.
         24    1    1    2    0    0 -0.45693537898E+00  0.32074013728E+02 -0.45605772625E+03  0.46420342176E+03  0.80419002446E+02 0. -1.
          1    1    1    2  501    0 -0.40677636491E+02  0.27287989144E+02 -0.44807345757E+02  0.66385259628E+02  0.00000000000E+00 0. -1.
         -2    1    1    2    0  503  0.41134571870E+02 -0.59362002872E+02 -0.52093802379E+03  0.52592045503E+03  0.00000000000E+00 0.  1.
<mgrwt>
<rscale>  2 0.10389215E+03</rscale>
<asrwt>0</asrwt>
<pdfrwt beam="1">  1       21 0.26696952E-02 0.10389215E+03</pdfrwt>
<pdfrwt beam="2">  1       21 0.15987018E+00 0.10389215E+03</pdfrwt>
<totfact> 0.20118688E+05</totfact>
</mgrwt>
</event>
<event>
 5    1  0.1959123E+000  0.7697481E+02  0.7546771E-02  0.1337862E+00
         21   -1    0    0  501  502  0.00000000000E+00  0.00000000000E+00  0.15125812486E+03  0.15125812486E+03  0.00000000000E+00 0. -1.
         21   -1    0    0  502  503 -0.00000000000E+00 -0.00000000000E+00 -0.43841801683E+02  0.43841801683E+02  0.00000000000E+00 0.  1.
         24    1    1    2    0    0  0.52648489558E+02 -0.23338325426E+01  0.70478008786E+02  0.11921273382E+03  0.80419002446E+02 0. -1.
          1    1    1    2  501    0 -0.31895214945E+02 -0.10285177971E+02  0.39107019891E+02  0.51501928382E+02  0.00000000000E+00 0. -1.
         -2    1    1    2    0  503 -0.20753274613E+02  0.12619010513E+02 -0.21687055024E+01  0.24385264342E+02  0.00000000000E+00 0.  1.
<mgrwt>
<rscale>  2 0.76974812E+02</rscale>
<asrwt>0</asrwt>
<pdfrwt beam="1">  1       21 0.23270480E-01 0.76974812E+02</pdfrwt>
<pdfrwt beam="2">  1       21 0.67448927E-02 0.76974812E+02</pdfrwt>
<totfact> 0.27130206E+06</totfact>
</mgrwt>
</event>
<event>
 5    1  0.1959123E+000  0.1248607E+03  0.7546771E-02  0.1235287E+00
         21   -1    0    0  501  502  0.00000000000E+00  0.00000000000E+00  0.98539322672E+02  0.98539322672E+02  0.00000000000E+00 0.  1.
         21   -1    0    0  502  503 -0.00000000000E+00 -0.00000000000E+00 -0.15966944181E+03  0.15966944181E+03  0.00000000000E+00 0.  1.
         24    1    1    2    0    0 -0.74847362177E+02  0.36808640385E+02 -0.17729185048E+02  0.11721153351E+03  0.80419002446E+02 0.  1.
          1    1    1    2  501    0  0.26606850131E+02  0.37066729444E+02 -0.10409610731E+02  0.46799860055E+02  0.00000000000E+00 0. -1.
         -2    1    1    2    0  503  0.48240512046E+02 -0.73875369830E+02 -0.32991323359E+02  0.94197370913E+02  0.00000000000E+00 0.  1.
<mgrwt>
<rscale>  2 0.12486073E+03</rscale>
<asrwt>0</asrwt>
<pdfrwt beam="1">  1       21 0.15159896E-01 0.12486073E+03</pdfrwt>
<pdfrwt beam="2">  1       21 0.24564529E-01 0.12486073E+03</pdfrwt>
<totfact> 0.60638771E+05</totfact>
</mgrwt>
</event>
<event>
 5    1  0.1959123E+000  0.1718492E+03  0.7546771E-02  0.1175933E+00
         21   -1    0    0  503  502  0.00000000000E+00  0.00000000000E+00  0.24411478455E+03  0.24411478455E+03  0.00000000000E+00 0. -1.
         21   -1    0    0  501  503 -0.00000000000E+00 -0.00000000000E+00 -0.15508457613E+03  0.15508457613E+03  0.00000000000E+00 0. -1.
         24    1    1    2    0    0  0.10730289113E+03  0.82833677272E+02 -0.18772127234E+02  0.15872913170E+03  0.80419002446E+02 0. -1.
          1    1    1    2  501    0 -0.10361437357E+03 -0.44835935183E+00 -0.14025897321E+01  0.10362483628E+03  0.00000000000E+00 0. -1.
         -2    1    1    2    0  502 -0.36885175568E+01 -0.82385317920E+02  0.10920492539E+03  0.13684539269E+03  0.00000000000E+00 0.  1.
<mgrwt>
<rscale>  2 0.17184918E+03</rscale>
<asrwt>0</asrwt>
<pdfrwt beam="1">  1       21 0.37556121E-01 0.17184918E+03</pdfrwt>
<pdfrwt beam="2">  1       21 0.23859165E-01 0.17184918E+03</pdfrwt>
<totfact> 0.11406615E+05</totfact>
</mgrwt>
</event>
<event>
 5    1  0.1959123E+000  0.1039778E+03  0.7546771E-02  0.1272147E+00
         21   -1    0    0  501  502  0.00000000000E+00  0.00000000000E+00  0.61724996283E+02  0.61724996283E+02  0.00000000000E+00 0.  1.
         21   -1    0    0  502  503 -0.00000000000E+00 -0.00000000000E+00 -0.20366308599E+03  0.20366308599E+03  0.00000000000E+00 0.  1.
         24    1    1    2    0    0  0.67732272738E+02  0.20385764335E+02 -0.12127112711E+03  0.16179351774E+03  0.80419002446E+02 0.  1.
          1    1    1    2  501    0 -0.97834355374E+01  0.25259759439E+02 -0.10836516289E+02  0.29175351637E+02  0.00000000000E+00 0. -1.
         -2    1    1    2    0  503 -0.57948837201E+02 -0.45645523774E+02 -0.98304463062E+01  0.74419212897E+02  0.00000000000E+00 0.  1.
<mgrwt>
<rscale>  2 0.10397775E+03</rscale>
<asrwt>0</asrwt>
<pdfrwt beam="1">  1       21 0.94961531E-02 0.10397775E+03</pdfrwt>
<pdfrwt beam="2">  1       21 0.31332783E-01 0.10397775E+03</pdfrwt>
<totfact> 0.87099131E+05</totfact>
</mgrwt>
</event>
<event>
 5    1  0.1959123E+000  0.1121352E+03  0.7546771E-02  0.1256666E+00
         21   -1    0    0  501  502  0.00000000000E+00  0.00000000000E+00  0.20649966375E+03  0.20649966375E+03  0.00000000000E+00 0. -1.
         21   -1    0    0  502  503 -0.00000000000E+00 -0.00000000000E+00 -0.24777047911E+03  0.24777047911E+03  0.00000000000E+00 0.  1.
         24    1    1    2    0    0  0.53665654600E+02 -0.52062125392E+02 -0.15086287183E+03  0.18659391586E+03  0.80419002446E+02 0.  1.
          1    1    1    2  501    0  0.18144408865E+02 -0.89517541338E+01  0.15968281770E+03  0.16095948479E+03  0.00000000000E+00 0. -1.
         -2    1    1    2    0  503 -0.71810063465E+02  0.61013879525E+02 -0.50090761222E+02  0.10671674222E+03  0.00000000000E+00 0.  1.
<mgrwt>
<rscale>  2 0.11213521E+03</rscale>
<asrwt>0</asrwt>
<pdfrwt beam="1">  1       21 0.31769179E-01 0.11213521E+03</pdfrwt>
<pdfrwt beam="2">  1       21 0.38118535E-01 0.11213521E+03</pdfrwt>
<totfact> 0.65669342E+04</totfact>
</mgrwt>
</event>
<event>
 5    1  0.1959123E+000  0.8211693E+02  0.7546771E-02  0.1323149E+00
         21   -1    0    0  501  502  0.00000000000E+00  0.00000000000E+00  0.24125302597E+03  0.24125302597E+03  0.00000000000E+00 0.  1.
         21   -1    0    0  502  503 -0.00000000000E+00 -0.00000000000E+00 -0.11266457008E+03  0.11266457008E+03  0.00000000000E+00 0. -1.
         24    1    1    2    0    0  0.60456812682E+01 -0.25684121109E+02  0.17815185717E+03  0.19723469397E+03  0.80419002446E+02 0.  1.
          1    1    1    2  501    0  0.18797045252E+02 -0.20092019345E+02  0.42663392378E+02  0.50765964984E+02  0.00000000000E+00 0. -1.
         -2    1    1    2    0  503 -0.24842726520E+02  0.45776140455E+02 -0.92226793651E+02  0.10591693709E+03  0.00000000000E+00 0.  1.
<mgrwt>
<rscale>  2 0.82116927E+02</rscale>
<asrwt>0</asrwt>
<pdfrwt beam="1">  1       21 0.37115850E-01 0.82116927E+02</pdfrwt>
<pdfrwt beam="2">  1       21 0.17333011E-01 0.82116927E+02</pdfrwt>
<totfact> 0.21700054E+05</totfact>
</mgrwt>
</event>
<event>
 5    1  0.1959123E+000  0.1317992E+03  0.7546771E-02  0.1224810E+00
         21   -1    0    0  501  502  0.00000000000E+00  0.00000000000E+00  0.13505302546E+02  0.13505302546E+02  0.00000000000E+00 0. -1.
         21   -1    0    0  502  503 -0.00000000000E+00 -0.00000000000E+00 -0.14778373810E+04  0.14778373810E+04  0.00000000000E+00 0. -1.
         24    1    1    2    0    0 -0.83780608476E+02  0.24174313717E+02 -0.82927740288E+03  0.83771821914E+03  0.80419002446E+02 0. -1.
          1    1    1    2  501    0  0.96017316015E+02 -0.55809489963E+02 -0.36710191248E+03  0.38353336007E+03  0.00000000000E+00 0. -1.
         -2    1    1    2    0  503 -0.12236707539E+02  0.31635176247E+02 -0.26795276310E+03  0.27009110434E+03  0.00000000000E+00 0.  1.
<mgrwt>
<rscale>  2 0.13179920E+03</rscale>
<asrwt>0</asrwt>
<pdfrwt beam="1">  1       21 0.20777381E-02 0.13179920E+03</pdfrwt>
<pdfrwt beam="2">  1       21 0.22735968E+00 0.13179920E+03</pdfrwt>
<totfact> 0.10937968E+05</totfact>
</mgrwt>
</event>
<event>
 5    1  0.3764018E+000  0.7570788E+02  0.7546771E-02  0.1341693E+00
         21   -1    0    0  503  502  0.00000000000E+00  0.00000000000E+00  0.13291409167E+03  0.13291409167E+03  0.00000000000E+00 0.  1.
         21   -1    0    0  501  503 -0.00000000000E+00 -0.00000000000E+00 -0.86848077692E+03  0.86848077692E+03  0.00000000000E+00 0. -1.
         24    1    1    2    0    0 -0.22002505385E+02 -0.35783214882E+02  0.10779643714E+03  0.14089654547E+03  0.80419002446E+02 0.  1.
          1    1    1    2  501    0  0.30285650227E+02  0.74791348823E+01 -0.82535362681E+03  0.82594295648E+03  0.00000000000E+00 0. -1.
         -2    1    1    2    0  502 -0.82831448414E+01  0.28304079999E+02 -0.18009495576E+02  0.34555366645E+02  0.00000000000E+00 0.  1.
<mgrwt>
<rscale>  2 0.75707882E+02</rscale>
<asrwt>0</asrwt>
<pdfrwt beam="1">  1       21 0.20448322E-01 0.75707882E+02</pdfrwt>
<pdfrwt beam="2">  1       21 0.13361243E+00 0.75707882E+02</pdfrwt>
<totfact> 0.10071930E+04</totfact>
</mgrwt>
</event>
<event>
 5    1  0.1959123E+000  0.7441251E+02  0.7546771E-02  0.1345700E+00
         21   -1    0    0  503  502  0.00000000000E+00  0.00000000000E+00  0.16099411607E+03  0.16099411607E+03  0.00000000000E+00 0.  1.
         21   -1    0    0  501  503 -0.00000000000E+00 -0.00000000000E+00 -0.58587022542E+02  0.58587022542E+02  0.00000000000E+00 0. -1.
         24    1    1    2    0    0  0.25314435181E+01  0.36548193320E+02  0.39338423785E+02  0.96731102452E+02  0.80419002446E+02 0. -1.
          1    1    1    2  501    0 -0.22521579702E+02 -0.49427476909E+01 -0.20780121743E+02  0.31039744952E+02  0.00000000000E+00 0. -1.
         -2    1    1    2    0  502  0.19990136184E+02 -0.31605445629E+02  0.83848791489E+02  0.91810291210E+02  0.00000000000E+00 0.  1.
<mgrwt>
<rscale>  2 0.74412510E+02</rscale>
<asrwt>0</asrwt>
<pdfrwt beam="1">  1       21 0.24768325E-01 0.74412510E+02</pdfrwt>
<pdfrwt beam="2">  1       21 0.90133881E-02 0.74412510E+02</pdfrwt>
<totfact> 0.14752881E+06</totfact>
</mgrwt>
</event>
<event>
 5    1  0.2338733E+000  0.1406794E+03  0.7546771E-02  0.1212418E+00
         21   -1    0    0  503  502  0.00000000000E+00  0.00000000000E+00  0.30605006259E+03  0.30605006259E+03  0.00000000000E+00 0.  1.
         21   -1    0    0  501  503 -0.00000000000E+00 -0.00000000000E+00 -0.20904820347E+03  0.20904820347E+03  0.00000000000E+00 0. -1.
         24    1    1    2    0    0  0.54763913893E+02 -0.28940559337E+02  0.38766064329E+02  0.10865848304E+03  0.80419002446E+02 0. -1.
          1    1    1    2  501    0 -0.10714155659E+03  0.56002738906E+02 -0.14848468091E+03  0.19147668364E+03  0.00000000000E+00 0. -1.
         -2    1    1    2    0  502  0.52377642693E+02 -0.27062179569E+02  0.20672047570E+03  0.21496309937E+03  0.00000000000E+00 0.  1.
<mgrwt>
<rscale>  2 0.14067937E+03</rscale>
<asrwt>0</asrwt>
<pdfrwt beam="1">  1       21 0.47084625E-01 0.14067937E+03</pdfrwt>
<pdfrwt beam="2">  1       21 0.32161262E-01 0.14067937E+03</pdfrwt>
<totfact> 0.41246914E+04</totfact>
</mgrwt>
</event>
<event>
 5    1  0.1959123E+000  0.1216586E+03  0.7546771E-02  0.1240386E+00
         21   -1    0    0  501  502  0.00000000000E+00  0.00000000000E+00  0.22413122670E+03  0.22413122670E+03  0.00000000000E+00 0.  1.
         21   -1    0    0  502  503 -0.00000000000E+00 -0.00000000000E+00 -0.69582188599E+02  0.69582188599E+02  0.00000000000E+00 0.  1.
         24    1    1    2    0    0 -0.31550188568E+02 -0.31732725578E+02  0.91528329967E+02  0.12979611478E+03  0.80419002446E+02 0.  1.
          1    1    1    2  501    0 -0.13826761422E+02 -0.53213411603E+02  0.24519532906E+02  0.60200116277E+02  0.00000000000E+00 0. -1.
         -2    1    1    2    0  503  0.45376949989E+02  0.84946137181E+02  0.38501175224E+02  0.10371718424E+03  0.00000000000E+00 0.  1.
<mgrwt>
<rscale>  2 0.12165859E+03</rscale>
<asrwt>0</asrwt>
<pdfrwt beam="1">  1       21 0.34481727E-01 0.12165859E+03</pdfrwt>
<pdfrwt beam="2">  1       21 0.10704952E-01 0.12165859E+03</pdfrwt>
<totfact> 0.58702720E+05</totfact>
</mgrwt>
</event>
<event>
 5    1  0.1959123E+000  0.6660867E+02  0.7546771E-02  0.1372020E+00
         21   -1    0    0  501  502  0.00000000000E+00  0.00000000000E+00  0.48098692865E+03  0.48098692865E+03  0.00000000000E+00 0. -1.
         21   -1    0    0  502  503 -0.00000000000E+00 -0.00000000000E+00 -0.34399861634E+02  0.34399861634E+02  0.00000000000E+00 0.  1.
         24    1    1    2    0    0  0.34568896845E+02 -0.43603188757E-01  0.24271597549E+03  0.25801796690E+03  0.80419002446E+02 0.  0.
          1    1    1    2  501    0 -0.20695470033E+02 -0.14741019942E+02  0.22596103741E+03  0.22738511512E+03  0.00000000000E+00 0. -1.
         -2    1    1    2    0  503 -0.13873426812E+02  0.14784623131E+02 -0.22089945882E+02  0.29983708271E+02  0.00000000000E+00 0.  1.
<mgrwt>
<rscale>  2 0.66608675E+02</rscale>
<asrwt>0</asrwt>
<pdfrwt beam="1">  1       21 0.73997984E-01 0.66608675E+02</pdfrwt>
<pdfrwt beam="2">  1       21 0.52922868E-02 0.66608675E+02</pdfrwt>
<totfact> 0.40807122E+05</totfact>
</mgrwt>
</event>
<event>
 5    1  0.1959123E+000  0.6503726E+02  0.7546771E-02  0.1377831E+00
         21   -1    0    0  503  502  0.00000000000E+00  0.00000000000E+00  0.58104728404E+03  0.58104728404E+03  0.00000000000E+00 0. -1.
         21   -1    0    0  501  503 -0.00000000000E+00 -0.00000000000E+00 -0.12345220699E+02  0.12345220699E+02  0.00000000000E+00 0. -1.
         24    1    1    2    0    0 -0.32993345424E+01 -0.66870014128E+01  0.46274872185E+03  0.46974375687E+03  0.80419002446E+02 0. -1.
          1    1    1    2  501    0 -0.58573315310E+01 -0.20134462126E+02  0.93236521094E+01  0.22948537784E+02  0.00000000000E+00 0. -1.
         -2    1    1    2    0  502  0.91566660734E+01  0.26821463539E+02  0.96629689379E+02  0.10070021008E+03  0.00000000000E+00 0.  1.
<mgrwt>
<rscale>  2 0.65037256E+02</rscale>
<asrwt>0</asrwt>
<pdfrwt beam="1">  1       21 0.89391869E-01 0.65037256E+02</pdfrwt>
<pdfrwt beam="2">  1       21 0.18992652E-02 0.65037256E+02</pdfrwt>
<totfact> 0.14128259E+06</totfact>
</mgrwt>
</event>
<event>
 5    1  0.1959123E+000  0.9445247E+02  0.7546771E-02  0.1292414E+00
         21   -1    0    0  503  502  0.00000000000E+00  0.00000000000E+00  0.76663191608E+02  0.76663191608E+02  0.00000000000E+00 0.  1.
         21   -1    0    0  501  503 -0.00000000000E+00 -0.00000000000E+00 -0.28606671878E+03  0.28606671878E+03  0.00000000000E+00 0.  1.
         24    1    1    2    0    0  0.28121757668E+02  0.50377283601E+02 -0.13076537601E+03  0.16399848620E+03  0.80419002446E+02 0.  1.
          1    1    1    2  501    0 -0.45421831928E+02 -0.10728190911E+02 -0.12613186886E+03  0.13448972168E+03  0.00000000000E+00 0. -1.
         -2    1    1    2    0  502  0.17300074260E+02 -0.39649092690E+02  0.47493717698E+02  0.64241702510E+02  0.00000000000E+00 0.  1.
<mgrwt>
<rscale>  2 0.94452474E+02</rscale>
<asrwt>0</asrwt>
<pdfrwt beam="1">  1       21 0.11794337E-01 0.94452474E+02</pdfrwt>
<pdfrwt beam="2">  1       21 0.44010264E-01 0.94452474E+02</pdfrwt>
<totfact> 0.30617149E+05</totfact>
</mgrwt>
</event>
<event>
 5    1  0.1959123E+000  0.6541147E+02  0.7546771E-02  0.1376430E+00
         21   -1    0    0  501  502  0.00000000000E+00  0.00000000000E+00  0.65658059645E+01  0.65658059645E+01  0.00000000000E+00 0. -1.
         21   -1    0    0  502  503 -0.00000000000E+00 -0.00000000000E+00 -0.99103131128E+03  0.99103131128E+03  0.00000000000E+00 0. -1.
         24    1    1    2    0    0 -0.37671679518E+01  0.52503051782E+00 -0.57953772413E+03  0.58510311643E+03  0.80419002446E+02 0. -1.
          1    1    1    2  501    0  0.23438266139E+02  0.12654217987E+02 -0.48934513205E+02  0.55714164582E+02  0.00000000000E+00 0. -1.
         -2    1    1    2    0  503 -0.19671098187E+02 -0.13179248505E+02 -0.35599326797E+03  0.35677983623E+03  0.00000000000E+00 0.  1.
<mgrwt>
<rscale>  2 0.65411466E+02</rscale>
<asrwt>0</asrwt>
<pdfrwt beam="1">  1       21 0.10101239E-02 0.65411466E+02</pdfrwt>
<pdfrwt beam="2">  1       21 0.15246637E+00 0.65411466E+02</pdfrwt>
<totfact> 0.10736642E+06</totfact>
</mgrwt>
</event>
<event>
 5    1  0.1959123E+000  0.7249629E+02  0.7546771E-02  0.1351804E+00
         21   -1    0    0  501  502  0.00000000000E+00  0.00000000000E+00  0.27927557052E+02  0.27927557052E+02  0.00000000000E+00 0.  1.
         21   -1    0    0  502  503 -0.00000000000E+00 -0.00000000000E+00 -0.34167104001E+03  0.34167104001E+03  0.00000000000E+00 0.  1.
         24    1    1    2    0    0  0.14789419967E+02  0.42260394634E+02 -0.62660973070E+02  0.11134757024E+03  0.80419002446E+02 0.  1.
          1    1    1    2  501    0 -0.19144791842E+02 -0.12481705197E+02 -0.50595483574E+02  0.55517735702E+02  0.00000000000E+00 0. -1.
         -2    1    1    2    0  503  0.43553718756E+01 -0.29778689437E+02 -0.20048702631E+03  0.20273329112E+03  0.00000000000E+00 0.  1.
<mgrwt>
<rscale>  2 0.72496290E+02</rscale>
<asrwt>0</asrwt>
<pdfrwt beam="1">  1       21 0.42965472E-02 0.72496290E+02</pdfrwt>
<pdfrwt beam="2">  1       21 0.52564776E-01 0.72496290E+02</pdfrwt>
<totfact> 0.11806478E+06</totfact>
</mgrwt>
</event>
<event>
 5    1  0.1959123E+000  0.9826602E+02  0.7546771E-02  0.1283985E+00
         21   -1    0    0  503  502  0.00000000000E+00  0.00000000000E+00  0.18136167052E+03  0.18136167052E+03  0.00000000000E+00 0.  1.
         21   -1    0    0  501  503 -0.00000000000E+00 -0.00000000000E+00 -0.69366960646E+02  0.69366960646E+02  0.00000000000E+00 0. -1.
         24    1    1    2    0    0  0.71218521890E+02  0.22589238531E+02  0.12081608220E+03  0.16323631100E+03  0.80419002446E+02 0.  0.
          1    1    1    2  501    0 -0.55465319702E+02 -0.35957158676E+02 -0.97222614529E+01  0.66811984834E+02  0.00000000000E+00 0. -1.
         -2    1    1    2    0  502 -0.15753202187E+02  0.13367920145E+02  0.90088912935E+00  0.20680335330E+02  0.00000000000E+00 0.  1.
<mgrwt>
<rscale>  2 0.98266025E+02</rscale>
<asrwt>0</asrwt>
<pdfrwt beam="1">  1       21 0.27901795E-01 0.98266025E+02</pdfrwt>
<pdfrwt beam="2">  1       21 0.10671840E-01 0.98266025E+02</pdfrwt>
<totfact> 0.88698054E+05</totfact>
</mgrwt>
</event>
<event>
 5    1  0.1959123E+000  0.9373127E+02  0.7546771E-02  0.1294059E+00
         21   -1    0    0  501  502  0.00000000000E+00  0.00000000000E+00  0.23032845837E+03  0.23032845837E+03  0.00000000000E+00 0. -1.
         21   -1    0    0  502  503 -0.00000000000E+00 -0.00000000000E+00 -0.26129094207E+03  0.26129094207E+03  0.00000000000E+00 0.  1.
         24    1    1    2    0    0  0.41657697914E+02 -0.20918454214E+02 -0.40246073290E+00  0.92953340183E+02  0.80419002446E+02 0.  0.
          1    1    1    2  501    0  0.24791026810E+02 -0.18177813056E+00  0.17750662641E+03  0.17922954688E+03  0.00000000000E+00 0. -1.
         -2    1    1    2    0  503 -0.66448724724E+02  0.21100232345E+02 -0.20806664938E+03  0.21943651338E+03  0.00000000000E+00 0.  1.
<mgrwt>
<rscale>  2 0.93731272E+02</rscale>
<asrwt>0</asrwt>
<pdfrwt beam="1">  1       21 0.35435148E-01 0.93731272E+02</pdfrwt>
<pdfrwt beam="2">  1       21 0.40198606E-01 0.93731272E+02</pdfrwt>
<totfact> 0.48381135E+04</totfact>
</mgrwt>
</event>
<event>
 5    1  0.1959123E+000  0.7851685E+02  0.7546771E-02  0.1333314E+00
         21   -1    0    0  501  502  0.00000000000E+00  0.00000000000E+00  0.14230257106E+03  0.14230257106E+03  0.00000000000E+00 0.  1.
         21   -1    0    0  502  503 -0.00000000000E+00 -0.00000000000E+00 -0.58366794053E+02  0.58366794053E+02  0.00000000000E+00 0. -1.
         24    1    1    2    0    0 -0.52433974536E+02  0.17986177543E+02  0.51431362255E+01  0.97808445816E+02  0.80419002446E+02 0. -1.
          1    1    1    2  501    0  0.23751035270E+02 -0.19364301302E+02  0.63074014837E+02  0.70124312396E+02  0.00000000000E+00 0. -1.
         -2    1    1    2    0  503  0.28682939266E+02  0.13781237591E+01  0.15718625949E+02  0.32736606906E+02  0.00000000000E+00 0.  1.
<mgrwt>
<rscale>  2 0.78516849E+02</rscale>
<asrwt>0</asrwt>
<pdfrwt beam="1">  1       21 0.21892703E-01 0.78516849E+02</pdfrwt>
<pdfrwt beam="2">  1       21 0.89795068E-02 0.78516849E+02</pdfrwt>
<totfact> 0.18692321E+06</totfact>
</mgrwt>
</event>
<event>
 5    1  0.1959123E+000  0.6809709E+02  0.7546771E-02  0.1366686E+00
         21   -1    0    0  503  502  0.00000000000E+00  0.00000000000E+00  0.18179326454E+03  0.18179326454E+03  0.00000000000E+00 0.  1.
         21   -1    0    0  501  503 -0.00000000000E+00 -0.00000000000E+00 -0.41335970534E+02  0.41335970534E+02  0.00000000000E+00 0. -1.
         24    1    1    2    0    0 -0.66474297318E+01  0.16176753942E+01  0.92782512149E+02  0.12297404487E+03  0.80419002446E+02 0.  1.
          1    1    1    2  501    0 -0.23876640404E+02 -0.60738067452E+01 -0.16017379390E+02  0.29386077110E+02  0.00000000000E+00 0. -1.
         -2    1    1    2    0  502  0.30524070136E+02  0.44561313510E+01  0.63692161250E+02  0.70769113101E+02  0.00000000000E+00 0.  1.
<mgrwt>
<rscale>  2 0.68097089E+02</rscale>
<asrwt>0</asrwt>
<pdfrwt beam="1">  1       21 0.27968194E-01 0.68097089E+02</pdfrwt>
<pdfrwt beam="2">  1       21 0.63593802E-02 0.68097089E+02</pdfrwt>
<totfact> 0.21121532E+06</totfact>
</mgrwt>
</event>
<event>
 5    1  0.1959123E+000  0.1250414E+03  0.7546771E-02  0.1235005E+00
         21   -1    0    0  501  502  0.00000000000E+00  0.00000000000E+00  0.11853598155E+04  0.11853598155E+04  0.00000000000E+00 0. -1.
         21   -1    0    0  502  503 -0.00000000000E+00 -0.00000000000E+00 -0.13602665593E+02  0.13602665593E+02  0.00000000000E+00 0. -1.
         24    1    1    2    0    0 -0.10382340696E+03  0.59145540974E+01  0.52822432339E+03  0.54433669135E+03  0.80419002446E+02 0. -1.
          1    1    1    2  501    0  0.80780104568E+02 -0.29169765407E+02  0.50698159656E+03  0.51420486167E+03  0.00000000000E+00 0. -1.
         -2    1    1    2    0  503  0.23043302390E+02  0.23255211310E+02  0.13655122999E+03  0.14042092811E+03  0.00000000000E+00 0.  1.
<mgrwt>
<rscale>  2 0.12504142E+03</rscale>
<asrwt>0</asrwt>
<pdfrwt beam="1">  1       21 0.18236297E+00 0.12504142E+03</pdfrwt>
<pdfrwt beam="2">  1       21 0.20927187E-02 0.12504142E+03</pdfrwt>
<totfact> 0.20700670E+05</totfact>
</mgrwt>
</event>
<event>
 5    1  0.1959123E+000  0.1292310E+03  0.7546771E-02  0.1228601E+00
         21   -1    0    0  501  502  0.00000000000E+00  0.00000000000E+00  0.34712131981E+03  0.34712131981E+03  0.00000000000E+00 0.  1.
         21   -1    0    0  502  503 -0.00000000000E+00 -0.00000000000E+00 -0.13918278634E+03  0.13918278634E+03  0.00000000000E+00 0.  1.
         24    1    1    2    0    0 -0.26116576182E+02 -0.97355489793E+02  0.17036989419E+03  0.21366629061E+03  0.80419002446E+02 0.  1.
          1    1    1    2  501    0  0.55765032629E+02  0.63027124338E+02  0.13845442752E+03  0.16202402836E+03  0.00000000000E+00 0. -1.
         -2    1    1    2    0  503 -0.29648456447E+02  0.34328365455E+02 -0.10088578823E+03  0.11061378717E+03  0.00000000000E+00 0.  1.
<mgrwt>
<rscale>  2 0.12923104E+03</rscale>
<asrwt>0</asrwt>
<pdfrwt beam="1">  1       21 0.53403280E-01 0.12923104E+03</pdfrwt>
<pdfrwt beam="2">  1       21 0.21412736E-01 0.12923104E+03</pdfrwt>
<totfact> 0.69367646E+04</totfact>
</mgrwt>
</event>
<event>
 5    1  0.1959123E+000  0.7849475E+02  0.7546771E-02  0.1333378E+00
         21   -1    0    0  501  502  0.00000000000E+00  0.00000000000E+00  0.12967776061E+03  0.12967776061E+03  0.00000000000E+00 0. -1.
         21   -1    0    0  502  503 -0.00000000000E+00 -0.00000000000E+00 -0.97267419342E+02  0.97267419342E+02  0.00000000000E+00 0. -1.
         24    1    1    2    0    0 -0.40383963639E+02 -0.23882309619E+02 -0.55704478599E+02  0.10849624013E+03  0.80419002446E+02 0. -1.
          1    1    1    2  501    0  0.38907593059E+02 -0.10375916052E+01  0.84749390773E+02  0.93259512279E+02  0.00000000000E+00 0. -1.
         -2    1    1    2    0  503  0.14763705800E+01  0.24919901224E+02  0.33654290980E+01  0.25189427546E+02  0.00000000000E+00 0.  1.
<mgrwt>
<rscale>  2 0.78494754E+02</rscale>
<asrwt>0</asrwt>
<pdfrwt beam="1">  1       21 0.19950425E-01 0.78494754E+02</pdfrwt>
<pdfrwt beam="2">  1       21 0.14964218E-01 0.78494754E+02</pdfrwt>
<totfact> 0.90917139E+05</totfact>
</mgrwt>
</event>
<event>
 5    1  0.1959123E+000  0.7128626E+02  0.7546771E-02  0.1355773E+00
         21   -1    0    0  501  502  0.00000000000E+00  0.00000000000E+00  0.60900374074E+03  0.60900374074E+03  0.00000000000E+00 0.  1.
         21   -1    0    0  502  503 -0.00000000000E+00 -0.00000000000E+00 -0.52319521989E+02  0.52319521989E+02  0.00000000000E+00 0.  1.
         24    1    1    2    0    0 -0.11086559274E+01 -0.45763926350E+02  0.22774009897E+03  0.24582175394E+03  0.80419002446E+02 0.  1.
          1    1    1    2  501    0 -0.95619333507E+01  0.21846753146E+02  0.36783896268E+03  0.36861119579E+03  0.00000000000E+00 0. -1.
         -2    1    1    2    0  503  0.10670589278E+02  0.23917173204E+02 -0.38894842903E+02  0.46890313008E+02  0.00000000000E+00 0.  1.
<mgrwt>
<rscale>  2 0.71286260E+02</rscale>
<asrwt>0</asrwt>
<pdfrwt beam="1">  1       21 0.93692878E-01 0.71286260E+02</pdfrwt>
<pdfrwt beam="2">  1       21 0.80491577E-02 0.71286260E+02</pdfrwt>
<totfact> 0.11989761E+05</totfact>
</mgrwt>
</event>
<event>
 5    1  0.1959123E+000  0.7521011E+02  0.7546771E-02  0.1343222E+00
         21   -1    0    0  503  502  0.00000000000E+00  0.00000000000E+00  0.13484134930E+02  0.13484134930E+02  0.00000000000E+00 0. -1.
         21   -1    0    0  501  503 -0.00000000000E+00 -0.00000000000E+00 -0.10884162134E+04  0.10884162134E+04  0.00000000000E+00 0. -1.
         24    1    1    2    0    0 -0.52803910846E+01 -0.23047318612E+02 -0.24276714902E+03  0.25683100674E+03  0.80419002446E+02 0. -1.
          1    1    1    2  501    0  0.30338405365E+02 -0.29599843045E+01 -0.78535807329E+03  0.78594941544E+03  0.00000000000E+00 0. -1.
         -2    1    1    2    0  502 -0.25058014280E+02  0.26007302916E+02 -0.46806856166E+02  0.59119926157E+02  0.00000000000E+00 0.  1.
<mgrwt>
<rscale>  2 0.75210112E+02</rscale>
<asrwt>0</asrwt>
<pdfrwt beam="1">  1       21 0.20744820E-02 0.75210112E+02</pdfrwt>
<pdfrwt beam="2">  1       21 0.16744867E+00 0.75210112E+02</pdfrwt>
<totfact> 0.27153987E+05</totfact>
</mgrwt>
</event>
<event>
 5    1  0.1959123E+000  0.1012452E+03  0.7546771E-02  0.1277699E+00
         21   -1    0    0  501  502  0.00000000000E+00  0.00000000000E+00  0.80226643205E+02  0.80226643205E+02  0.00000000000E+00 0. -1.
         21   -1    0    0  502  503 -0.00000000000E+00 -0.00000000000E+00 -0.20123936588E+03  0.20123936588E+03  0.00000000000E+00 0.  1.
         24    1    1    2    0    0 -0.56845922417E+02 -0.40962665187E+02 -0.26495561685E+02  0.10990281879E+03  0.80419002446E+02 0.  1.
          1    1    1    2  501    0  0.15089222946E+02 -0.18056895678E+02  0.23439249472E+02  0.33213469353E+02  0.00000000000E+00 0. -1.
         -2    1    1    2    0  503  0.41756699471E+02  0.59019560864E+02 -0.11795641046E+03  0.13834972094E+03  0.00000000000E+00 0.  1.
<mgrwt>
<rscale>  2 0.10124516E+03</rscale>
<asrwt>0</asrwt>
<pdfrwt beam="1">  1       21 0.12342561E-01 0.10124516E+03</pdfrwt>
<pdfrwt beam="2">  1       21 0.30959902E-01 0.10124516E+03</pdfrwt>
<totfact> 0.56350415E+05</totfact>
</mgrwt>
</event>
<event>
 5    1  0.1959123E+000  0.9734007E+02  0.7546771E-02  0.1285991E+00
         21   -1    0    0  503  502  0.00000000000E+00  0.00000000000E+00  0.10282601992E+03  0.10282601992E+03  0.00000000000E+00 0.  1.
         21   -1    0    0  501  503 -0.00000000000E+00 -0.00000000000E+00 -0.15102808595E+03  0.15102808595E+03  0.00000000000E+00 0. -1.
         24    1    1    2    0    0  0.13757431316E+02 -0.31534084190E+02  0.86778422121E+01  0.87898727419E+02  0.80419002446E+02 0.  0.
          1    1    1    2  501    0 -0.57128365491E+02  0.28206849837E+02 -0.90710568496E+02  0.11084982525E+03  0.00000000000E+00 0. -1.
         -2    1    1    2    0  502  0.43370934175E+02  0.33272343524E+01  0.33830660259E+02  0.55105553197E+02  0.00000000000E+00 0.  1.
<mgrwt>
<rscale>  2 0.97340071E+02</rscale>
<asrwt>0</asrwt>
<pdfrwt beam="1">  1       21 0.15819388E-01 0.97340071E+02</pdfrwt>
<pdfrwt beam="2">  1       21 0.23235090E-01 0.97340071E+02</pdfrwt>
<totfact> 0.62335831E+05</totfact>
</mgrwt>
</event>
<event>
 5    1  0.1959123E+000  0.1226294E+03  0.7546771E-02  0.1238821E+00
         21   -1    0    0  503  502  0.00000000000E+00  0.00000000000E+00  0.32283961114E+03  0.32283961114E+03  0.00000000000E+00 0.  1.
         21   -1    0    0  501  503 -0.00000000000E+00 -0.00000000000E+00 -0.53418911837E+02  0.53418911837E+02  0.00000000000E+00 0. -1.
         24    1    1    2    0    0 -0.77342621075E+02 -0.29371864978E+02  0.60556442622E+02  0.13030305516E+03  0.80419002446E+02 0. -1.
          1    1    1    2  501    0 -0.11650796474E+02 -0.23597916943E+02  0.41787660210E+02  0.49384322293E+02  0.00000000000E+00 0. -1.
         -2    1    1    2    0  502  0.88993417549E+02  0.52969781921E+02  0.16707659647E+03  0.19657114552E+03  0.00000000000E+00 0.  1.
<mgrwt>
<rscale>  2 0.12262937E+03</rscale>
<asrwt>0</asrwt>
<pdfrwt beam="1">  1       21 0.49667631E-01 0.12262937E+03</pdfrwt>
<pdfrwt beam="2">  1       21 0.82182944E-02 0.12262937E+03</pdfrwt>
<totfact> 0.44709689E+05</totfact>
</mgrwt>
</event>
<event>
 5    1  0.1959123E+000  0.8927598E+02  0.7546771E-02  0.1304615E+00
         21   -1    0    0  501  502  0.00000000000E+00  0.00000000000E+00  0.31121115058E+02  0.31121115058E+02  0.00000000000E+00 0. -1.
         21   -1    0    0  502  503 -0.00000000000E+00 -0.00000000000E+00 -0.36025017582E+03  0.36025017582E+03  0.00000000000E+00 0.  1.
         24    1    1    2    0    0 -0.10287846810E+02  0.28355307743E+02 -0.14707593014E+03  0.17031854993E+03  0.80419002446E+02 0. -1.
          1    1    1    2  501    0 -0.33971566423E+01 -0.59001454314E+02 -0.31829509866E+02  0.67125479385E+02  0.00000000000E+00 0. -1.
         -2    1    1    2    0  503  0.13685003453E+02  0.30646146570E+02 -0.15022362076E+03  0.15392726157E+03  0.00000000000E+00 0.  1.
<mgrwt>
<rscale>  2 0.89275980E+02</rscale>
<asrwt>0</asrwt>
<pdfrwt beam="1">  1       21 0.47878642E-02 0.89275980E+02</pdfrwt>
<pdfrwt beam="2">  1       21 0.55423100E-01 0.89275980E+02</pdfrwt>
<totfact> 0.88921261E+05</totfact>
</mgrwt>
</event>
<event>
 5    1  0.1959123E+000  0.8466094E+02  0.7546771E-02  0.1316322E+00
         21   -1    0    0  503  502  0.00000000000E+00  0.00000000000E+00  0.78640054879E+02  0.78640054879E+02  0.00000000000E+00 0. -1.
         21   -1    0    0  501  503 -0.00000000000E+00 -0.00000000000E+00 -0.92973918177E+02  0.92973918177E+02  0.00000000000E+00 0. -1.
         24    1    1    2    0    0  0.19688726606E+02  0.24962014064E+02 -0.15819173911E+02  0.87910240126E+02  0.80419002446E+02 0. -1.
          1    1    1    2  501    0 -0.46460793075E+02 -0.30406999908E+02 -0.45911467051E+01  0.55715972258E+02  0.00000000000E+00 0. -1.
         -2    1    1    2    0  502  0.26772066469E+02  0.54449858441E+01  0.60764573181E+01  0.27987760671E+02  0.00000000000E+00 0.  1.
<mgrwt>
<rscale>  2 0.84660938E+02</rscale>
<asrwt>0</asrwt>
<pdfrwt beam="1">  1       21 0.12098470E-01 0.84660938E+02</pdfrwt>
<pdfrwt beam="2">  1       21 0.14303680E-01 0.84660938E+02</pdfrwt>
<totfact> 0.24128348E+06</totfact>
</mgrwt>
</event>
<event>
 5    1  0.1959123E+000  0.7112203E+02  0.7546771E-02  0.1356319E+00
         21   -1    0    0  501  502  0.00000000000E+00  0.00000000000E+00  0.10359257828E+02  0.10359257828E+02  0.00000000000E+00 0.  1.
         21   -1    0    0  502  503 -0.00000000000E+00 -0.00000000000E+00 -0.50649870417E+03  0.50649870417E+03  0.00000000000E+00 0. -1.
         24    1    1    2    0    0 -0.23819326835E+02 -0.82072221652E+00 -0.26493314476E+03  0.27789354268E+03  0.80419002446E+02 0.  0.
          1    1    1    2  501    0 -0.26510688773E+01  0.23415612599E+02 -0.64649730146E+02  0.68810658241E+02  0.00000000000E+00 0. -1.
         -2    1    1    2    0  503  0.26470395713E+02 -0.22594890382E+02 -0.16655657143E+03  0.17015376107E+03  0.00000000000E+00 0.  1.
<mgrwt>
<rscale>  2 0.71122031E+02</rscale>
<asrwt>0</asrwt>
<pdfrwt beam="1">  1       21 0.15937318E-02 0.71122031E+02</pdfrwt>
<pdfrwt beam="2">  1       21 0.77922887E-01 0.71122031E+02</pdfrwt>
<totfact> 0.25321144E+06</totfact>
</mgrwt>
</event>
<event>
 5    1  0.1959123E+000  0.1593274E+03  0.7546771E-02  0.1189458E+00
         21   -1    0    0  501  502  0.00000000000E+00  0.00000000000E+00  0.21568436834E+03  0.21568436834E+03  0.00000000000E+00 0.  1.
         21   -1    0    0  502  503 -0.00000000000E+00 -0.00000000000E+00 -0.17598620878E+03  0.17598620878E+03  0.00000000000E+00 0. -1.
         24    1    1    2    0    0  0.81183174718E+02  0.48314026992E+02 -0.90506289637E+02  0.15356938979E+03  0.80419002446E+02 0. -1.
          1    1    1    2  501    0 -0.88397699900E+01 -0.10332745978E+03  0.94987221203E+02  0.14063170933E+03  0.00000000000E+00 0. -1.
         -2    1    1    2    0  503 -0.72343404728E+02  0.55013432784E+02  0.35217227994E+02  0.97469478001E+02  0.00000000000E+00 0.  1.
<mgrwt>
<rscale>  2 0.15932744E+03</rscale>
<asrwt>0</asrwt>
<pdfrwt beam="1">  1       21 0.33182211E-01 0.15932744E+03</pdfrwt>
<pdfrwt beam="2">  1       21 0.27074801E-01 0.15932744E+03</pdfrwt>
<totfact> 0.11510851E+05</totfact>
</mgrwt>
</event>
<event>
 5    1  0.1959123E+000  0.7327714E+02  0.7546771E-02  0.1349291E+00
         21   -1    0    0  503  502  0.00000000000E+00  0.00000000000E+00  0.18395366075E+02  0.18395366075E+02  0.00000000000E+00 0. -1.
         21   -1    0    0  501  503 -0.00000000000E+00 -0.00000000000E+00 -0.45919649781E+03  0.45919649781E+03  0.00000000000E+00 0.  1.
         24    1    1    2    0    0 -0.37294306166E+01  0.26853474851E+02 -0.16625621906E+03  0.18666377285E+03  0.80419002446E+02 0. -1.
          1    1    1    2  501    0 -0.25524203920E+02 -0.17607779009E+02 -0.24923242606E+03  0.25115397880E+03  0.00000000000E+00 0. -1.
         -2    1    1    2    0  502  0.29253634537E+02 -0.92456958418E+01 -0.25312486605E+02  0.39774112226E+02  0.00000000000E+00 0.  1.
<mgrwt>
<rscale>  2 0.73277136E+02</rscale>
<asrwt>0</asrwt>
<pdfrwt beam="1">  1       21 0.28300561E-02 0.73277136E+02</pdfrwt>
<pdfrwt beam="2">  1       21 0.70645620E-01 0.73277136E+02</pdfrwt>
<totfact> 0.12546068E+06</totfact>
</mgrwt>
</event>
<event>
 5    1  0.1959123E+000  0.1005641E+03  0.7546771E-02  0.1279114E+00
         21   -1    0    0  503  502  0.00000000000E+00  0.00000000000E+00  0.72237576182E+03  0.72237576182E+03  0.00000000000E+00 0.  1.
         21   -1    0    0  501  503 -0.00000000000E+00 -0.00000000000E+00 -0.72387302467E+02  0.72387302467E+02  0.00000000000E+00 0. -1.
         24    1    1    2    0    0 -0.78037759549E+02 -0.47730477670E+01  0.10968231994E+03  0.15687606944E+03  0.80419002446E+02 0.  1.
          1    1    1    2  501    0  0.30327419973E+02  0.22824927299E+02 -0.40116321607E+02  0.55227248417E+02  0.00000000000E+00 0. -1.
         -2    1    1    2    0  502  0.47710339577E+02 -0.18051879532E+02  0.58042246102E+03  0.58265974643E+03  0.00000000000E+00 0.  1.
<mgrwt>
<rscale>  2 0.10056415E+03</rscale>
<asrwt>0</asrwt>
<pdfrwt beam="1">  1       21 0.11113473E+00 0.10056415E+03</pdfrwt>
<pdfrwt beam="2">  1       21 0.11136509E-01 0.10056415E+03</pdfrwt>
<totfact> 0.45165816E+04</totfact>
</mgrwt>
</event>
<event>
 5    1  0.1959123E+000  0.9477412E+02  0.7546771E-02  0.1291686E+00
         21   -1    0    0  501  502  0.00000000000E+00  0.00000000000E+00  0.13982555014E+02  0.13982555014E+02  0.00000000000E+00 0. -1.
         21   -1    0    0  502  503 -0.00000000000E+00 -0.00000000000E+00 -0.85043892882E+03  0.85043892882E+03  0.00000000000E+00 0.  1.
         24    1    1    2    0    0  0.26223932606E+02  0.67648987197E+02 -0.59927164954E+03  0.60898095701E+03  0.80419002446E+02 0.  1.
          1    1    1    2  501    0  0.81034023948E+01 -0.26170386889E+02 -0.26983321575E+02  0.38453269348E+02  0.00000000000E+00 0. -1.
         -2    1    1    2    0  503 -0.34327335001E+02 -0.41478600308E+02 -0.21020140269E+03  0.21698725747E+03  0.00000000000E+00 0.  1.
<mgrwt>
<rscale>  2 0.94774116E+02</rscale>
<asrwt>0</asrwt>
<pdfrwt beam="1">  1       21 0.21511618E-02 0.94774116E+02</pdfrwt>
<pdfrwt beam="2">  1       21 0.13083679E+00 0.94774116E+02</pdfrwt>
<totfact> 0.47566601E+05</totfact>
</mgrwt>
</event>
<event>
 5    1  0.1959123E+000  0.8351669E+02  0.7546771E-02  0.1319358E+00
         21   -1    0    0  501  502  0.00000000000E+00  0.00000000000E+00  0.29735722734E+03  0.29735722734E+03  0.00000000000E+00 0. -1.
         21   -1    0    0  502  503 -0.00000000000E+00 -0.00000000000E+00 -0.81972076981E+02  0.81972076981E+02  0.00000000000E+00 0.  1.
         24    1    1    2    0    0  0.13317492492E+02 -0.26036542218E+02  0.20280347992E+03  0.22011752443E+03  0.80419002446E+02 0.  0.
          1    1    1    2  501    0  0.21814350975E+02 -0.15722838734E+02  0.73000778776E+02  0.77795804953E+02  0.00000000000E+00 0. -1.
         -2    1    1    2    0  503 -0.35131843467E+02  0.41759380952E+02 -0.60419108340E+02  0.81415974941E+02  0.00000000000E+00 0.  1.
<mgrwt>
<rscale>  2 0.83516689E+02</rscale>
<asrwt>0</asrwt>
<pdfrwt beam="1">  1       21 0.45747265E-01 0.83516689E+02</pdfrwt>
<pdfrwt beam="2">  1       21 0.12611089E-01 0.83516689E+02</pdfrwt>
<totfact> 0.25238720E+05</totfact>
</mgrwt>
</event>
<event>
 5    1  0.1959123E+000  0.1246653E+03  0.7546771E-02  0.1235593E+00
         21   -1    0    0  503  502  0.00000000000E+00  0.00000000000E+00  0.50534476389E+03  0.50534476389E+03  0.00000000000E+00 0.  1.
         21   -1    0    0  501  503 -0.00000000000E+00 -0.00000000000E+00 -0.35484059752E+02  0.35484059752E+02  0.00000000000E+00 0.  1.
         24    1    1    2    0    0  0.68040799706E+02 -0.87572534916E+02  0.34386878825E+03  0.37015058934E+03  0.80419002446E+02 0.  1.
          1    1    1    2  501    0 -0.35160930910E+02  0.30834012441E+02  0.34509890532E+02  0.58120219633E+02  0.00000000000E+00 0. -1.
         -2    1    1    2    0  502 -0.32879868796E+02  0.56738522475E+02  0.91482025353E+02  0.11255801467E+03  0.00000000000E+00 0.  1.
<mgrwt>
<rscale>  2 0.12466535E+03</rscale>
<asrwt>0</asrwt>
<pdfrwt beam="1">  1       21 0.77745343E-01 0.12466535E+03</pdfrwt>
<pdfrwt beam="2">  1       21 0.54590865E-02 0.12466535E+03</pdfrwt>
<totfact> 0.34484975E+05</totfact>
</mgrwt>
</event>
<event>
 5    1  0.1959123E+000  0.6531989E+02  0.7546771E-02  0.1376772E+00
         21   -1    0    0  503  502  0.00000000000E+00  0.00000000000E+00  0.10273405605E+03  0.10273405605E+03  0.00000000000E+00 0. -1.
         21   -1    0    0  501  503 -0.00000000000E+00 -0.00000000000E+00 -0.12195654376E+03  0.12195654376E+03  0.00000000000E+00 0. -1.
         24    1    1    2    0    0 -0.40473477658E+01 -0.12068521121E+02  0.28239412433E+02  0.86178365005E+02  0.80419002446E+02 0. -1.
          1    1    1    2  501    0  0.15498303749E+02 -0.13912654157E+02 -0.87211434896E+02  0.89663781659E+02  0.00000000000E+00 0. -1.
         -2    1    1    2    0  502 -0.11450955983E+02  0.25981175278E+02  0.39749534750E+02  0.48848453145E+02  0.00000000000E+00 0.  1.
<mgrwt>
<rscale>  2 0.65319891E+02</rscale>
<asrwt>0</asrwt>
<pdfrwt beam="1">  1       21 0.15805239E-01 0.65319891E+02</pdfrwt>
<pdfrwt beam="2">  1       21 0.18762545E-01 0.65319891E+02</pdfrwt>
<totfact> 0.91783787E+05</totfact>
</mgrwt>
</event>
<event>
 5    1  0.1959123E+000  0.6798600E+02  0.7546771E-02  0.1367079E+00
         21   -1    0    0  501  502  0.00000000000E+00  0.00000000000E+00  0.32807947894E+03  0.32807947894E+03  0.00000000000E+00 0. -1.
         21   -1    0    0  502  503 -0.00000000000E+00 -0.00000000000E+00 -0.50929791493E+02  0.50929791493E+02  0.00000000000E+00 0. -1.
         24    1    1    2    0    0  0.60849941037E+01  0.32535230806E+02  0.43913131455E+00  0.86965379247E+02  0.80419002446E+02 0. -1.
          1    1    1    2  501    0  0.13134333379E+02 -0.25235322158E+02  0.26834385550E+03  0.26984765514E+03  0.00000000000E+00 0. -1.
         -2    1    1    2    0  503 -0.19219327482E+02 -0.72999086484E+01  0.83667006264E+01  0.22196236044E+02  0.00000000000E+00 0.  1.
<mgrwt>
<rscale>  2 0.67986002E+02</rscale>
<asrwt>0</asrwt>
<pdfrwt beam="1">  1       21 0.50473765E-01 0.67986002E+02</pdfrwt>
<pdfrwt beam="2">  1       21 0.78353527E-02 0.67986002E+02</pdfrwt>
<totfact> 0.47072894E+05</totfact>
</mgrwt>
</event>
<event>
 5    1  0.1959123E+000  0.6538366E+02  0.7546771E-02  0.1376534E+00
         21   -1    0    0  501  502  0.00000000000E+00  0.00000000000E+00  0.12425083837E+03  0.12425083837E+03  0.00000000000E+00 0. -1.
         21   -1    0    0  502  503 -0.00000000000E+00 -0.00000000000E+00 -0.54455014608E+03  0.54455014608E+03  0.00000000000E+00 0.  1.
         24    1    1    2    0    0 -0.26716174492E+01 -0.64378619296E+01 -0.82126528807E+02  0.11515453223E+03  0.80419002446E+02 0. -1.
          1    1    1    2  501    0 -0.20672781131E+02 -0.84783858714E+01  0.10614229167E+03  0.10846858065E+03  0.00000000000E+00 0. -1.
         -2    1    1    2    0  503  0.23344398580E+02  0.14916247801E+02 -0.44431507058E+03  0.44517787157E+03  0.00000000000E+00 0.  1.
<mgrwt>
<rscale>  2 0.65383661E+02</rscale>
<asrwt>0</asrwt>
<pdfrwt beam="1">  1       21 0.19115513E-01 0.65383661E+02</pdfrwt>
<pdfrwt beam="2">  1       21 0.83776946E-01 0.65383661E+02</pdfrwt>
<totfact> 0.34138161E+04</totfact>
</mgrwt>
</event>
<event>
 5    1  0.1959123E+000  0.9671648E+02  0.7546771E-02  0.1287356E+00
         21   -1    0    0  503  502  0.00000000000E+00  0.00000000000E+00  0.25778142559E+03  0.25778142559E+03  0.00000000000E+00 0.  1.
         21   -1    0    0  501  503 -0.00000000000E+00 -0.00000000000E+00 -0.65496404559E+02  0.65496404559E+02  0.00000000000E+00 0. -1.
         24    1    1    2    0    0 -0.35389257834E+02 -0.52044870006E+02  0.11075610769E+03  0.15064925957E+03  0.80419002446E+02 0.  0.
          1    1    1    2  501    0  0.33934044612E+02 -0.49564452261E+01 -0.31159334737E+02  0.46335622088E+02  0.00000000000E+00 0. -1.
         -2    1    1    2    0  502  0.14552132214E+01  0.57001315232E+02  0.11268824808E+03  0.12629294849E+03  0.00000000000E+00 0.  1.
<mgrwt>
<rscale>  2 0.96716482E+02</rscale>
<asrwt>0</asrwt>
<pdfrwt beam="1">  1       21 0.39658680E-01 0.96716482E+02</pdfrwt>
<pdfrwt beam="2">  1       21 0.10076370E-01 0.96716482E+02</pdfrwt>
<totfact> 0.49587507E+05</totfact>
</mgrwt>
</event>
<event>
 5    1  0.1959123E+000  0.1437596E+03  0.7546771E-02  0.1208358E+00
         21   -1    0    0  503  502  0.00000000000E+00  0.00000000000E+00  0.85819848604E+02  0.85819848604E+02  0.00000000000E+00 0. -1.
         21   -1    0    0  501  503 -0.00000000000E+00 -0.00000000000E+00 -0.28604835401E+03  0.28604835401E+03  0.00000000000E+00 0. -1.
         24    1    1    2    0    0 -0.43979030720E+02  0.99738932137E+02 -0.26385133898E+02  0.13800507589E+03  0.80419002446E+02 0. -1.
          1    1    1    2  501    0  0.58891947459E+01 -0.11191608098E+03 -0.15021485842E+03  0.18741503538E+03  0.00000000000E+00 0. -1.
         -2    1    1    2    0  502  0.38089835974E+02  0.12177148841E+02 -0.23628513084E+02  0.46448091338E+02  0.00000000000E+00 0.  1.
<mgrwt>
<rscale>  2 0.14375961E+03</rscale>
<asrwt>0</asrwt>
<pdfrwt beam="1">  1       21 0.13203054E-01 0.14375961E+03</pdfrwt>
<pdfrwt beam="2">  1       21 0.44007439E-01 0.14375961E+03</pdfrwt>
<totfact> 0.24819615E+05</totfact>
</mgrwt>
</event>
<event>
 5    1  0.1959123E+000  0.8002778E+02  0.7546771E-02  0.1328973E+00
         21   -1    0    0  501  502  0.00000000000E+00  0.00000000000E+00  0.10651945749E+03  0.10651945749E+03  0.00000000000E+00 0. -1.
         21   -1    0    0  502  503 -0.00000000000E+00 -0.00000000000E+00 -0.75375939559E+02  0.75375939559E+02  0.00000000000E+00 0. -1.
         24    1    1    2    0    0 -0.73365877343E+01 -0.50331491345E+02  0.66159723758E+01  0.95383811968E+02  0.80419002446E+02 0. -1.
          1    1    1    2  501    0  0.23055270584E+02  0.19106820102E+02  0.38578417189E+02  0.48835543909E+02  0.00000000000E+00 0. -1.
         -2    1    1    2    0  503 -0.15718682850E+02  0.31224671243E+02 -0.14050871633E+02  0.37676041172E+02  0.00000000000E+00 0.  1.
<mgrwt>
<rscale>  2 0.80027785E+02</rscale>
<asrwt>0</asrwt>
<pdfrwt beam="1">  1       21 0.16387609E-01 0.80027785E+02</pdfrwt>
<pdfrwt beam="2">  1       21 0.11596298E-01 0.80027785E+02</pdfrwt>
<totfact> 0.20335504E+06</totfact>
</mgrwt>
</event>
<event>
 5    1  0.1959123E+000  0.7313907E+02  0.7546771E-02  0.1349733E+00
         21   -1    0    0  501  502  0.00000000000E+00  0.00000000000E+00  0.10139202692E+03  0.10139202692E+03  0.00000000000E+00 0.  1.
         21   -1    0    0  502  503 -0.00000000000E+00 -0.00000000000E+00 -0.14143976115E+03  0.14143976115E+03  0.00000000000E+00 0. -1.
         24    1    1    2    0    0  0.47959036990E+01  0.25107650864E+02  0.59623695283E+02  0.10332277492E+03  0.80419002446E+02 0.  1.
          1    1    1    2  501    0  0.23553848815E+02  0.68996212403E+00  0.82628406250E+01  0.24970670334E+02  0.00000000000E+00 0. -1.
         -2    1    1    2    0  503 -0.28349752514E+02 -0.25797612988E+02 -0.10793427014E+03  0.11453834281E+03  0.00000000000E+00 0.  1.
<mgrwt>
<rscale>  2 0.73139069E+02</rscale>
<asrwt>0</asrwt>
<pdfrwt beam="1">  1       21 0.15598773E-01 0.73139069E+02</pdfrwt>
<pdfrwt beam="2">  1       21 0.21759963E-01 0.73139069E+02</pdfrwt>
<totfact> 0.71950307E+05</totfact>
</mgrwt>
</event>
<event>
 5    1  0.1959123E+000  0.9499747E+02  0.7546771E-02  0.1291182E+00
         21   -1    0    0  501  502  0.00000000000E+00  0.00000000000E+00  0.46947932981E+02  0.46947932981E+02  0.00000000000E+00 0.  1.
         21   -1    0    0  502  503 -0.00000000000E+00 -0.00000000000E+00 -0.34027648397E+03  0.34027648397E+03  0.00000000000E+00 0.  1.
         24    1    1    2    0    0  0.46660880384E+02 -0.39184416501E+02 -0.41726273988E+02  0.10918312209E+03  0.80419002446E+02 0.  1.
          1    1    1    2  501    0 -0.56349676385E+02  0.85812547018E+01 -0.56291848391E+02  0.80110524629E+02  0.00000000000E+00 0. -1.
         -2    1    1    2    0  503  0.96887960016E+01  0.30603161799E+02 -0.19531042861E+03  0.19793077023E+03  0.00000000000E+00 0.  1.
<mgrwt>
<rscale>  2 0.94997470E+02</rscale>
<asrwt>0</asrwt>
<pdfrwt beam="1">  1       21 0.72227589E-02 0.94997470E+02</pdfrwt>
<pdfrwt beam="2">  1       21 0.52350229E-01 0.94997470E+02</pdfrwt>
<totfact> 0.50163270E+05</totfact>
</mgrwt>
</event>
<event>
 5    1  0.1959123E+000  0.7152505E+02  0.7546771E-02  0.1354983E+00
         21   -1    0    0  503  502  0.00000000000E+00  0.00000000000E+00  0.38238214628E+03  0.38238214628E+03  0.00000000000E+00 0. -1.
         21   -1    0    0  501  503 -0.00000000000E+00 -0.00000000000E+00 -0.16717770633E+02  0.16717770633E+02  0.00000000000E+00 0. -1.
         24    1    1    2    0    0  0.16758400261E+02 -0.15963856037E+02  0.24424995119E+03  0.25818780624E+03  0.80419002446E+02 0. -1.
          1    1    1    2  501    0 -0.14796620394E+02 -0.19148689754E+02  0.14156414959E+02  0.28035983644E+02  0.00000000000E+00 0. -1.
         -2    1    1    2    0  502 -0.19617798675E+01  0.35112545791E+02  0.10725800950E+03  0.11287612703E+03  0.00000000000E+00 0.  1.
<mgrwt>
<rscale>  2 0.71525047E+02</rscale>
<asrwt>0</asrwt>
<pdfrwt beam="1">  1       21 0.58828016E-01 0.71525047E+02</pdfrwt>
<pdfrwt beam="2">  1       21 0.25719650E-02 0.71525047E+02</pdfrwt>
<totfact> 0.21520927E+06</totfact>
</mgrwt>
</event>
<event>
 5    1  0.1959123E+000  0.1168729E+03  0.7546771E-02  0.1248347E+00
         21   -1    0    0  503  502  0.00000000000E+00  0.00000000000E+00  0.33107131260E+03  0.33107131260E+03  0.00000000000E+00 0.  1.
         21   -1    0    0  501  503 -0.00000000000E+00 -0.00000000000E+00 -0.19785554131E+03  0.19785554131E+03  0.00000000000E+00 0. -1.
         24    1    1    2    0    0 -0.50559550410E+02  0.52664723920E+02 -0.82363512589E+02  0.13631142815E+03  0.80419002446E+02 0.  0.
          1    1    1    2  501    0 -0.30857408671E+02 -0.22970972991E+02 -0.77753047126E+02  0.86748957385E+02  0.00000000000E+00 0. -1.
         -2    1    1    2    0  502  0.81416959082E+02 -0.29693750929E+02  0.29333233100E+03  0.30586646838E+03  0.00000000000E+00 0.  1.
<mgrwt>
<rscale>  2 0.11687291E+03</rscale>
<asrwt>0</asrwt>
<pdfrwt beam="1">  1       21 0.50934048E-01 0.11687291E+03</pdfrwt>
<pdfrwt beam="2">  1       21 0.30439314E-01 0.11687291E+03</pdfrwt>
<totfact> 0.39603330E+04</totfact>
</mgrwt>
</event>
<event>
 5    1  0.1959123E+000  0.8349904E+02  0.7546771E-02  0.1319405E+00
         21   -1    0    0  501  502  0.00000000000E+00  0.00000000000E+00  0.46255227393E+02  0.46255227393E+02  0.00000000000E+00 0. -1.
         21   -1    0    0  502  503 -0.00000000000E+00 -0.00000000000E+00 -0.34905958895E+03  0.34905958895E+03  0.00000000000E+00 0. -1.
         24    1    1    2    0    0 -0.35562501016E+02  0.32695813511E+02 -0.14545983173E+03  0.17308808827E+03  0.80419002446E+02 0. -1.
          1    1    1    2  501    0  0.14358047988E+02 -0.45975458378E+02  0.13132491868E+02  0.49923528098E+02  0.00000000000E+00 0. -1.
         -2    1    1    2    0  503  0.21204453028E+02  0.13279644867E+02 -0.17047702169E+03  0.17230319998E+03  0.00000000000E+00 0.  1.
<mgrwt>
<rscale>  2 0.83499044E+02</rscale>
<asrwt>0</asrwt>
<pdfrwt beam="1">  1       21 0.71161887E-02 0.83499044E+02</pdfrwt>
<pdfrwt beam="2">  1       21 0.53701476E-01 0.83499044E+02</pdfrwt>
<totfact> 0.48830101E+05</totfact>
</mgrwt>
</event>
<event>
 5    1  0.1959123E+000  0.6536167E+02  0.7546771E-02  0.1376616E+00
         21   -1    0    0  503  502  0.00000000000E+00  0.00000000000E+00  0.28527254459E+03  0.28527254459E+03  0.00000000000E+00 0. -1.
         21   -1    0    0  501  503 -0.00000000000E+00 -0.00000000000E+00 -0.15117290619E+02  0.15117290619E+02  0.00000000000E+00 0. -1.
         24    1    1    2    0    0 -0.19458299539E+01 -0.20744844007E+02  0.17079232512E+03  0.18992464054E+03  0.80419002446E+02 0. -1.
          1    1    1    2  501    0 -0.19773262752E+02  0.15956036450E+02  0.44118603543E+02  0.50911965172E+02  0.00000000000E+00 0. -1.
         -2    1    1    2    0  502  0.21719092706E+02  0.47888075571E+01  0.55244325307E+02  0.59553229504E+02  0.00000000000E+00 0.  1.
<mgrwt>
<rscale>  2 0.65361671E+02</rscale>
<asrwt>0</asrwt>
<pdfrwt beam="1">  1       21 0.43888080E-01 0.65361671E+02</pdfrwt>
<pdfrwt beam="2">  1       21 0.23257372E-02 0.65361671E+02</pdfrwt>
<totfact> 0.45583850E+06</totfact>
</mgrwt>
</event>
<event>
 5    1  0.1959123E+000  0.7377833E+02  0.7546771E-02  0.1347696E+00
         21   -1    0    0  503  502  0.00000000000E+00  0.00000000000E+00  0.98205463690E+02  0.98205463690E+02  0.00000000000E+00 0.  1.
         21   -1    0    0  501  503 -0.00000000000E+00 -0.00000000000E+00 -0.92356650593E+02  0.92356650593E+02  0.00000000000E+00 0. -1.
         24    1    1    2    0    0 -0.36770849561E+02 -0.21747176140E+02  0.70616579006E+01  0.91335195922E+02  0.80419002446E+02 0. -1.
          1    1    1    2  501    0  0.11878621736E+02  0.28353225639E+02 -0.41357748182E+02  0.51531256468E+02  0.00000000000E+00 0. -1.
         -2    1    1    2    0  502  0.24892227825E+02 -0.66060494991E+01  0.40144903378E+02  0.47695661892E+02  0.00000000000E+00 0.  1.
<mgrwt>
<rscale>  2 0.73778328E+02</rscale>
<asrwt>0</asrwt>
<pdfrwt beam="1">  1       21 0.15108533E-01 0.73778328E+02</pdfrwt>
<pdfrwt beam="2">  1       21 0.14208715E-01 0.73778328E+02</pdfrwt>
<totfact> 0.16399141E+06</totfact>
</mgrwt>
</event>
<event>
 5    1  0.1959123E+000  0.7298707E+02  0.7546771E-02  0.1350220E+00
         21   -1    0    0  503  502  0.00000000000E+00  0.00000000000E+00  0.11920947977E+04  0.11920947977E+04  0.00000000000E+00 0.  1.
         21   -1    0    0  501  503 -0.00000000000E+00 -0.00000000000E+00 -0.99376156740E+01  0.99376156740E+01  0.00000000000E+00 0.  1.
         24    1    1    2    0    0 -0.85898739124E+01 -0.99702038688E+01  0.43274371975E+03  0.44034933159E+03  0.80419002446E+02 0.  0.
          1    1    1    2  501    0 -0.55601874773E+01  0.35158111527E+02  0.48426528282E+02  0.60101057665E+02  0.00000000000E+00 0. -1.
         -2    1    1    2    0  502  0.14150061390E+02 -0.25187907659E+02  0.70098693401E+03  0.70158202413E+03  0.00000000000E+00 0.  1.
<mgrwt>
<rscale>  2 0.72987075E+02</rscale>
<asrwt>0</asrwt>
<pdfrwt beam="1">  1       21 0.18339909E+00 0.72987075E+02</pdfrwt>
<pdfrwt beam="2">  1       21 0.15288649E-02 0.72987075E+02</pdfrwt>
<totfact> 0.34621360E+05</totfact>
</mgrwt>
</event>
<event>
 5    1  0.1959123E+000  0.9235164E+02  0.7546771E-02  0.1297255E+00
         21   -1    0    0  501  502  0.00000000000E+00  0.00000000000E+00  0.31598413906E+03  0.31598413906E+03  0.00000000000E+00 0. -1.
         21   -1    0    0  502  503 -0.00000000000E+00 -0.00000000000E+00 -0.32442785155E+02  0.32442785155E+02  0.00000000000E+00 0.  1.
         24    1    1    2    0    0  0.27325366363E+02 -0.76415886521E+01  0.67709192547E+02  0.10888902715E+03  0.80419002446E+02 0.  1.
          1    1    1    2  501    0 -0.39795486368E+02 -0.36229348926E+02  0.15072908443E+03  0.16004844064E+03  0.00000000000E+00 0. -1.
         -2    1    1    2    0  503  0.12470120005E+02  0.43870937578E+02  0.65103076927E+02  0.79489456423E+02  0.00000000000E+00 0.  1.
<mgrwt>
<rscale>  2 0.92351643E+02</rscale>
<asrwt>0</asrwt>
<pdfrwt beam="1">  1       21 0.48612942E-01 0.92351643E+02</pdfrwt>
<pdfrwt beam="2">  1       21 0.49911979E-02 0.92351643E+02</pdfrwt>
<totfact> 0.10867819E+06</totfact>
</mgrwt>
</event>
<event>
 5    1  0.1959123E+000  0.7509843E+02  0.7546771E-02  0.1343566E+00
         21   -1    0    0  503  502  0.00000000000E+00  0.00000000000E+00  0.48989928599E+03  0.48989928599E+03  0.00000000000E+00 0. -1.
         21   -1    0    0  501  503 -0.00000000000E+00 -0.00000000000E+00 -0.36119784330E+02  0.36119784330E+02  0.00000000000E+00 0.  1.
         24    1    1    2    0    0 -0.38128872152E+02  0.36835822065E+01  0.42021225864E+03  0.42954969205E+03  0.80419002446E+02 0. -1.
          1    1    1    2  501    0  0.10112881315E+02 -0.24310615426E+02 -0.19674345261E+02  0.32868773210E+02  0.00000000000E+00 0. -1.
         -2    1    1    2    0  502  0.28015990838E+02  0.20627033220E+02  0.53241588281E+02  0.63600605066E+02  0.00000000000E+00 0.  1.
<mgrwt>
<rscale>  2 0.75098433E+02</rscale>
<asrwt>0</asrwt>
<pdfrwt beam="1">  1       21 0.75369116E-01 0.75098433E+02</pdfrwt>
<pdfrwt beam="2">  1       21 0.55568902E-02 0.75098433E+02</pdfrwt>
<totfact> 0.36145025E+05</totfact>
</mgrwt>
</event>
<event>
 5    1  0.1959123E+000  0.1252631E+03  0.7546771E-02  0.1234659E+00
         21   -1    0    0  503  502  0.00000000000E+00  0.00000000000E+00  0.12071379684E+03  0.12071379684E+03  0.00000000000E+00 0. -1.
         21   -1    0    0  501  503 -0.00000000000E+00 -0.00000000000E+00 -0.22608834519E+03  0.22608834519E+03  0.00000000000E+00 0. -1.
         24    1    1    2    0    0 -0.34150002913E+02  0.10679149617E+03  0.80181798330E+01  0.13821054053E+03  0.80419002446E+02 0. -1.
          1    1    1    2  501    0  0.20540833120E+02 -0.48146802955E+02 -0.13487028409E+03  0.14467216038E+03  0.00000000000E+00 0. -1.
         -2    1    1    2    0  502  0.13609169793E+02 -0.58644693211E+02  0.21477555910E+02  0.63919441113E+02  0.00000000000E+00 0.  1.
<mgrwt>
<rscale>  2 0.12526311E+03</rscale>
<asrwt>0</asrwt>
<pdfrwt beam="1">  1       21 0.18571353E-01 0.12526311E+03</pdfrwt>
<pdfrwt beam="2">  1       21 0.34782822E-01 0.12526311E+03</pdfrwt>
<totfact> 0.21486135E+05</totfact>
</mgrwt>
</event>
<event>
 5    1  0.1959123E+000  0.1101966E+03  0.7546771E-02  0.1260206E+00
         21   -1    0    0  503  502  0.00000000000E+00  0.00000000000E+00  0.44386661761E+03  0.44386661761E+03  0.00000000000E+00 0.  1.
         21   -1    0    0  501  503 -0.00000000000E+00 -0.00000000000E+00 -0.33074048728E+02  0.33074048728E+02  0.00000000000E+00 0. -1.
         24    1    1    2    0    0 -0.78165998141E+01 -0.20650097699E+02  0.25480760067E+03  0.26810754388E+03  0.80419002446E+02 0.  1.
          1    1    1    2  501    0 -0.57127708077E+02  0.39405291664E+02  0.61985566895E+02  0.93051397327E+02  0.00000000000E+00 0. -1.
         -2    1    1    2    0  502  0.64944307891E+02 -0.18755193965E+02  0.93999401316E+02  0.11578172514E+03  0.00000000000E+00 0.  1.
<mgrwt>
<rscale>  2 0.11019663E+03</rscale>
<asrwt>0</asrwt>
<pdfrwt beam="1">  1       21 0.68287168E-01 0.11019663E+03</pdfrwt>
<pdfrwt beam="2">  1       21 0.50883155E-02 0.11019663E+03</pdfrwt>
<totfact> 0.51668365E+05</totfact>
</mgrwt>
</event>
<event>
 5    1  0.1959123E+000  0.8293861E+02  0.7546771E-02  0.1320913E+00
         21   -1    0    0  501  502  0.00000000000E+00  0.00000000000E+00  0.20028057282E+03  0.20028057282E+03  0.00000000000E+00 0. -1.
         21   -1    0    0  502  503 -0.00000000000E+00 -0.00000000000E+00 -0.24214707259E+03  0.24214707259E+03  0.00000000000E+00 0. -1.
         24    1    1    2    0    0 -0.27243781993E+02  0.11553354466E+02 -0.11591267383E+03  0.14414807514E+03  0.80419002446E+02 0. -1.
          1    1    1    2  501    0 -0.20316333825E+02 -0.23584151567E+02  0.17939108372E+03  0.18207176207E+03  0.00000000000E+00 0. -1.
         -2    1    1    2    0  503  0.47560115817E+02  0.12030797102E+02 -0.10534490966E+03  0.11620780820E+03  0.00000000000E+00 0.  1.
<mgrwt>
<rscale>  2 0.82938613E+02</rscale>
<asrwt>0</asrwt>
<pdfrwt beam="1">  1       21 0.30812396E-01 0.82938613E+02</pdfrwt>
<pdfrwt beam="2">  1       21 0.37253396E-01 0.82938613E+02</pdfrwt>
<totfact> 0.74159066E+04</totfact>
</mgrwt>
</event>
<event>
 5    1  0.1959123E+000  0.1063602E+03  0.7546771E-02  0.1267463E+00
         21   -1    0    0  501  502  0.00000000000E+00  0.00000000000E+00  0.10144205723E+04  0.10144205723E+04  0.00000000000E+00 0. -1.
         21   -1    0    0  502  503 -0.00000000000E+00 -0.00000000000E+00 -0.13205682207E+02  0.13205682207E+02  0.00000000000E+00 0.  1.
         24    1    1    2    0    0  0.29936535371E+02 -0.82262723078E+02  0.62726648947E+03  0.63843074528E+03  0.80419002446E+02 0. -1.
          1    1    1    2  501    0 -0.27679750300E+02  0.27429054299E+02  0.25786857814E+03  0.26079632894E+03  0.00000000000E+00 0. -1.
         -2    1    1    2    0  503 -0.22567850718E+01  0.54833668779E+02  0.11607982253E+03  0.12839918033E+03  0.00000000000E+00 0.  1.
<mgrwt>
<rscale>  2 0.10636018E+03</rscale>
<asrwt>0</asrwt>
<pdfrwt beam="1">  1       21 0.15606464E+00 0.10636018E+03</pdfrwt>
<pdfrwt beam="2">  1       21 0.20316442E-02 0.10636018E+03</pdfrwt>
<totfact> 0.33271452E+05</totfact>
</mgrwt>
</event>
<event>
 5    1  0.1959123E+000  0.6763066E+02  0.7546771E-02  0.1368341E+00
         21   -1    0    0  501  502  0.00000000000E+00  0.00000000000E+00  0.82924863344E+02  0.82924863344E+02  0.00000000000E+00 0. -1.
         21   -1    0    0  502  503 -0.00000000000E+00 -0.00000000000E+00 -0.77992272935E+02  0.77992272935E+02  0.00000000000E+00 0. -1.
         24    1    1    2    0    0  0.19185467718E+02  0.13598383554E+02 -0.21611967250E+02  0.86529135496E+02  0.80419002446E+02 0. -1.
          1    1    1    2  501    0 -0.25868451583E+01 -0.28830388950E+02  0.39060064810E+02  0.48616579043E+02  0.00000000000E+00 0. -1.
         -2    1    1    2    0  503 -0.16598622560E+02  0.15232005396E+02 -0.12515507150E+02  0.25771421740E+02  0.00000000000E+00 0.  1.
<mgrwt>
<rscale>  2 0.67630658E+02</rscale>
<asrwt>0</asrwt>
<pdfrwt beam="1">  1       21 0.12757671E-01 0.67630658E+02</pdfrwt>
<pdfrwt beam="2">  1       21 0.11998811E-01 0.67630658E+02</pdfrwt>
<totfact> 0.29575574E+06</totfact>
</mgrwt>
</event>
<event>
 5    1  0.1959123E+000  0.2295495E+03  0.7546771E-02  0.1126957E+00
         21   -1    0    0  501  502  0.00000000000E+00  0.00000000000E+00  0.87004440487E+03  0.87004440487E+03  0.00000000000E+00 0.  1.
         21   -1    0    0  502  503 -0.00000000000E+00 -0.00000000000E+00 -0.10876977445E+03  0.10876977445E+03  0.00000000000E+00 0.  1.
         24    1    1    2    0    0  0.18722602651E+03  0.69732622505E+01  0.45320742427E+03  0.49695713775E+03  0.80419002446E+02 0.  1.
          1    1    1    2  501    0 -0.12229710489E+03 -0.88522532136E+02  0.34068057313E+03  0.37263396714E+03  0.00000000000E+00 0. -1.
         -2    1    1    2    0  503 -0.64928921614E+02  0.81549269885E+02 -0.32613366981E+02  0.10922307442E+03  0.00000000000E+00 0.  1.
<mgrwt>
<rscale>  2 0.22954954E+03</rscale>
<asrwt>0</asrwt>
<pdfrwt beam="1">  1       21 0.13385298E+00 0.22954954E+03</pdfrwt>
<pdfrwt beam="2">  1       21 0.16733812E-01 0.22954954E+03</pdfrwt>
<totfact> 0.12576831E+04</totfact>
</mgrwt>
</event>
<event>
 5    1  0.1959123E+000  0.9014623E+02  0.7546771E-02  0.1302498E+00
         21   -1    0    0  503  502  0.00000000000E+00  0.00000000000E+00  0.52675655644E+02  0.52675655644E+02  0.00000000000E+00 0. -1.
         21   -1    0    0  501  503 -0.00000000000E+00 -0.00000000000E+00 -0.32185201816E+03  0.32185201816E+03  0.00000000000E+00 0. -1.
         24    1    1    2    0    0  0.16622013355E+02 -0.39209263119E+02 -0.44129682957E+02  0.10113507065E+03  0.80419002446E+02 0. -1.
          1    1    1    2  501    0 -0.44065203924E+02  0.43024406150E+02 -0.23577148638E+03  0.24368224291E+03  0.00000000000E+00 0. -1.
         -2    1    1    2    0  502  0.27443190569E+02 -0.38151430311E+01  0.10724806816E+02  0.29710360250E+02  0.00000000000E+00 0.  1.
<mgrwt>
<rscale>  2 0.90146234E+02</rscale>
<asrwt>0</asrwt>
<pdfrwt beam="1">  1       21 0.81039469E-02 0.90146234E+02</pdfrwt>
<pdfrwt beam="2">  1       21 0.49515696E-01 0.90146234E+02</pdfrwt>
<totfact> 0.46218798E+05</totfact>
</mgrwt>
</event>
<event>
 5    1  0.1959123E+000  0.1177116E+03  0.7546771E-02  0.1246921E+00
         21   -1    0    0  501  502  0.00000000000E+00  0.00000000000E+00  0.74885838768E+03  0.74885838768E+03  0.00000000000E+00 0. -1.
         21   -1    0    0  502  503 -0.00000000000E+00 -0.00000000000E+00 -0.25093707276E+03  0.25093707276E+03  0.00000000000E+00 0.  1.
         24    1    1    2    0    0  0.11202712620E+02 -0.20576079043E+02 -0.63495861845E+02  0.10510859253E+03  0.80419002446E+02 0.  0.
          1    1    1    2  501    0  0.58977826284E+02 -0.29013826974E+02  0.71536551536E+03  0.71837873487E+03  0.00000000000E+00 0. -1.
         -2    1    1    2    0  503 -0.70180538904E+02  0.49589906017E+02 -0.15394833859E+03  0.17630813304E+03  0.00000000000E+00 0.  1.
<mgrwt>
<rscale>  2 0.11771158E+03</rscale>
<asrwt>0</asrwt>
<pdfrwt beam="1">  1       21 0.11520898E+00 0.11771158E+03</pdfrwt>
<pdfrwt beam="2">  1       21 0.38605704E-01 0.11771158E+03</pdfrwt>
<totfact> 0.40665576E+03</totfact>
</mgrwt>
</event>
<event>
 5    1  0.1959123E+000  0.1140987E+03  0.7546771E-02  0.1253163E+00
         21   -1    0    0  503  502  0.00000000000E+00  0.00000000000E+00  0.23094569200E+03  0.23094569200E+03  0.00000000000E+00 0.  1.
         21   -1    0    0  501  503 -0.00000000000E+00 -0.00000000000E+00 -0.11555634581E+03  0.11555634581E+03  0.00000000000E+00 0. -1.
         24    1    1    2    0    0 -0.81575195759E+01  0.13592514399E+02  0.12259747912E+03  0.14747426695E+03  0.80419002446E+02 0.  1.
          1    1    1    2  501    0 -0.37844077527E+02 -0.66257863523E+02 -0.71108964315E+02  0.10430131106E+03  0.00000000000E+00 0. -1.
         -2    1    1    2    0  502  0.46001597102E+02  0.52665349124E+02  0.63900831384E+02  0.94726459798E+02  0.00000000000E+00 0.  1.
<mgrwt>
<rscale>  2 0.11409871E+03</rscale>
<asrwt>0</asrwt>
<pdfrwt beam="1">  1       21 0.35530106E-01 0.11409871E+03</pdfrwt>
<pdfrwt beam="2">  1       21 0.17777899E-01 0.11409871E+03</pdfrwt>
<totfact> 0.22384906E+05</totfact>
</mgrwt>
</event>
<event>
 5    1  0.1959123E+000  0.1413508E+03  0.7546771E-02  0.1211523E+00
         21   -1    0    0  501  502  0.00000000000E+00  0.00000000000E+00  0.20056329982E+03  0.20056329982E+03  0.00000000000E+00 0. -1.
         21   -1    0    0  502  503 -0.00000000000E+00 -0.00000000000E+00 -0.84097508227E+03  0.84097508227E+03  0.00000000000E+00 0.  1.
         24    1    1    2    0    0 -0.49356153598E+02  0.82876687510E+02 -0.87297051481E+02  0.15294628594E+03  0.80419002446E+02 0.  1.
          1    1    1    2  501    0 -0.61490036484E+01  0.30376401790E+02  0.16073019103E+03  0.16369095986E+03  0.00000000000E+00 0. -1.
         -2    1    1    2    0  503  0.55505157246E+02 -0.11325308930E+03 -0.71384492200E+03  0.72490113628E+03  0.00000000000E+00 0.  1.
<mgrwt>
<rscale>  2 0.14135080E+03</rscale>
<asrwt>0</asrwt>
<pdfrwt beam="1">  1       21 0.30855893E-01 0.14135080E+03</pdfrwt>
<pdfrwt beam="2">  1       21 0.12938078E+00 0.14135080E+03</pdfrwt>
<totfact> 0.46250668E+03</totfact>
</mgrwt>
</event>
<event>
 5    1  0.1959123E+000  0.8477668E+02  0.7546771E-02  0.1316018E+00
         21   -1    0    0  503  502  0.00000000000E+00  0.00000000000E+00  0.59797077198E+03  0.59797077198E+03  0.00000000000E+00 0. -1.
         21   -1    0    0  501  503 -0.00000000000E+00 -0.00000000000E+00 -0.27167132055E+02  0.27167132055E+02  0.00000000000E+00 0. -1.
         24    1    1    2    0    0 -0.63887511778E+02  0.70697850299E+01  0.28984174417E+03  0.30758258832E+03  0.80419002446E+02 0. -1.
          1    1    1    2  501    0  0.19560692602E+02 -0.10395443519E+02 -0.92162814012E+01  0.23992202565E+02  0.00000000000E+00 0. -1.
         -2    1    1    2    0  502  0.44326819176E+02  0.33256584894E+01  0.29017817716E+03  0.29356311315E+03  0.00000000000E+00 0.  1.
<mgrwt>
<rscale>  2 0.84776682E+02</rscale>
<asrwt>0</asrwt>
<pdfrwt beam="1">  1       21 0.91995494E-01 0.84776682E+02</pdfrwt>
<pdfrwt beam="2">  1       21 0.41795592E-02 0.84776682E+02</pdfrwt>
<totfact> 0.37173212E+05</totfact>
</mgrwt>
</event>
<event>
 5    1  0.1959123E+000  0.8836694E+02  0.7546771E-02  0.1306855E+00
         21   -1    0    0  501  502  0.00000000000E+00  0.00000000000E+00  0.11863775984E+03  0.11863775984E+03  0.00000000000E+00 0. -1.
         21   -1    0    0  502  503 -0.00000000000E+00 -0.00000000000E+00 -0.73555167769E+02  0.73555167769E+02  0.00000000000E+00 0. -1.
         24    1    1    2    0    0 -0.29493092064E+01  0.52536105481E+02  0.11773190997E+02  0.96822336186E+02  0.80419002446E+02 0. -1.
          1    1    1    2  501    0 -0.16534225726E+02 -0.58068202691E+02  0.41774153257E+02  0.73419184581E+02  0.00000000000E+00 0. -1.
         -2    1    1    2    0  503  0.19483534932E+02  0.55320972109E+01 -0.84647521799E+01  0.21951406845E+02  0.00000000000E+00 0.  1.
<mgrwt>
<rscale>  2 0.88366938E+02</rscale>
<asrwt>0</asrwt>
<pdfrwt beam="1">  1       21 0.18251963E-01 0.88366938E+02</pdfrwt>
<pdfrwt beam="2">  1       21 0.11316180E-01 0.88366938E+02</pdfrwt>
<totfact> 0.17546609E+06</totfact>
</mgrwt>
</event>
<event>
 5    1  0.1959123E+000  0.1571209E+03  0.7546771E-02  0.1191986E+00
         21   -1    0    0  501  502  0.00000000000E+00  0.00000000000E+00  0.12641707563E+03  0.12641707563E+03  0.00000000000E+00 0. -1.
         21   -1    0    0  502  503 -0.00000000000E+00 -0.00000000000E+00 -0.44139220555E+03  0.44139220555E+03  0.00000000000E+00 0.  1.
         24    1    1    2    0    0 -0.73974702074E+02  0.97003089458E+02 -0.21092070543E+03  0.25658646855E+03  0.80419002446E+02 0. -1.
          1    1    1    2  501    0  0.17494117737E+02 -0.10899417163E+03  0.68058366835E+02  0.12968313268E+03  0.00000000000E+00 0. -1.
         -2    1    1    2    0  503  0.56480584337E+02  0.11991082172E+02 -0.17211279133E+03  0.18153967995E+03  0.00000000000E+00 0.  1.
<mgrwt>
<rscale>  2 0.15712092E+03</rscale>
<asrwt>0</asrwt>
<pdfrwt beam="1">  1       21 0.19448781E-01 0.15712092E+03</pdfrwt>
<pdfrwt beam="2">  1       21 0.67906494E-01 0.15712092E+03</pdfrwt>
<totfact> 0.49038163E+04</totfact>
</mgrwt>
</event>
<event>
 5    1  0.1959123E+000  0.1095847E+03  0.7546771E-02  0.1261341E+00
         21   -1    0    0  503  502  0.00000000000E+00  0.00000000000E+00  0.23768177960E+02  0.23768177960E+02  0.00000000000E+00 0.  1.
         21   -1    0    0  501  503 -0.00000000000E+00 -0.00000000000E+00 -0.79146496155E+03  0.79146496155E+03  0.00000000000E+00 0. -1.
         24    1    1    2    0    0 -0.42720716645E+02  0.50288528651E+02 -0.53735382880E+03  0.54733020109E+03  0.80419002446E+02 0. -1.
          1    1    1    2  501    0 -0.53423311187E+01  0.25141647479E+02 -0.13400045703E+03  0.13644326816E+03  0.00000000000E+00 0. -1.
         -2    1    1    2    0  502  0.48063047764E+02 -0.75430176130E+02 -0.96342497749E+02  0.13145967026E+03  0.00000000000E+00 0.  1.
<mgrwt>
<rscale>  2 0.10958473E+03</rscale>
<asrwt>0</asrwt>
<pdfrwt beam="1">  1       21 0.36566428E-02 0.10958473E+03</pdfrwt>
<pdfrwt beam="2">  1       21 0.12176384E+00 0.10958473E+03</pdfrwt>
<totfact> 0.23832645E+05</totfact>
</mgrwt>
</event>
<event>
 5    1  0.1959123E+000  0.7049085E+02  0.7546771E-02  0.1358432E+00
         21   -1    0    0  501  502  0.00000000000E+00  0.00000000000E+00  0.55211132473E+02  0.55211132473E+02  0.00000000000E+00 0. -1.
         21   -1    0    0  502  503 -0.00000000000E+00 -0.00000000000E+00 -0.13948238174E+03  0.13948238174E+03  0.00000000000E+00 0. -1.
         24    1    1    2    0    0  0.10552209379E+02 -0.45637870443E+02 -0.97891371979E+02  0.13507072593E+03  0.80419002446E+02 0. -1.
          1    1    1    2  501    0 -0.25259054582E+00  0.23470690867E+02  0.23540799580E+02  0.33243140294E+02  0.00000000000E+00 0. -1.
         -2    1    1    2    0  503 -0.10299618833E+02  0.22167179576E+02 -0.99206768679E+01  0.26379647988E+02  0.00000000000E+00 0.  1.
<mgrwt>
<rscale>  2 0.70490852E+02</rscale>
<asrwt>0</asrwt>
<pdfrwt beam="1">  1       21 0.84940205E-02 0.70490852E+02</pdfrwt>
<pdfrwt beam="2">  1       21 0.21458828E-01 0.70490852E+02</pdfrwt>
<totfact> 0.21214483E+06</totfact>
</mgrwt>
</event>
<event>
 5    1  0.1959123E+000  0.6766432E+02  0.7546771E-02  0.1368221E+00
         21   -1    0    0  501  502  0.00000000000E+00  0.00000000000E+00  0.50621194573E+01  0.50621194573E+01  0.00000000000E+00 0.  1.
         21   -1    0    0  502  503 -0.00000000000E+00 -0.00000000000E+00 -0.93019105915E+03  0.93019105915E+03  0.00000000000E+00 0. -1.
         24    1    1    2    0    0  0.26677166628E+02  0.24341063924E+01 -0.51804374793E+03  0.52493250692E+03  0.80419002446E+02 0.  1.
          1    1    1    2  501    0 -0.30721239258E+01 -0.20569780228E+02 -0.13181924018E+03  0.13344986282E+03  0.00000000000E+00 0. -1.
         -2    1    1    2    0  503 -0.23605042702E+02  0.18135673836E+02 -0.27526595158E+03  0.27687080887E+03  0.00000000000E+00 0.  1.
<mgrwt>
<rscale>  2 0.67664321E+02</rscale>
<asrwt>0</asrwt>
<pdfrwt beam="1">  1       21 0.77878787E-03 0.67664321E+02</pdfrwt>
<pdfrwt beam="2">  1       21 0.14310627E+00 0.67664321E+02</pdfrwt>
<totfact> 0.18814988E+06</totfact>
</mgrwt>
</event>
<event>
 5    1  0.1959123E+000  0.1252215E+03  0.7546771E-02  0.1234724E+00
         21   -1    0    0  503  502  0.00000000000E+00  0.00000000000E+00  0.97138947316E+02  0.97138947316E+02  0.00000000000E+00 0. -1.
         21   -1    0    0  501  503 -0.00000000000E+00 -0.00000000000E+00 -0.17562370518E+03  0.17562370518E+03  0.00000000000E+00 0. -1.
         24    1    1    2    0    0 -0.44195693821E+02  0.10323250572E+03 -0.49365136202E+02  0.14667768138E+03  0.80419002446E+02 0. -1.
          1    1    1    2  501    0  0.36519631156E+02 -0.82841619394E+02 -0.43025380930E+02  0.10023772128E+03  0.00000000000E+00 0. -1.
         -2    1    1    2    0  502  0.76760626645E+01 -0.20390886323E+02  0.13905759268E+02  0.25847249833E+02  0.00000000000E+00 0.  1.
<mgrwt>
<rscale>  2 0.12522148E+03</rscale>
<asrwt>0</asrwt>
<pdfrwt beam="1">  1       21 0.14944454E-01 0.12522148E+03</pdfrwt>
<pdfrwt beam="2">  1       21 0.27019031E-01 0.12522148E+03</pdfrwt>
<totfact> 0.51952043E+05</totfact>
</mgrwt>
</event>
<event>
 5    1  0.1959123E+000  0.8427650E+02  0.7546771E-02  0.1317335E+00
         21   -1    0    0  503  502  0.00000000000E+00  0.00000000000E+00  0.21698358604E+02  0.21698358604E+02  0.00000000000E+00 0. -1.
         21   -1    0    0  501  503 -0.00000000000E+00 -0.00000000000E+00 -0.48146985250E+03  0.48146985250E+03  0.00000000000E+00 0. -1.
         24    1    1    2    0    0  0.30119988681E+02  0.63931726925E+01 -0.11760380919E+03  0.14575993368E+03  0.80419002446E+02 0. -1.
          1    1    1    2  501    0 -0.43534327593E+02 -0.31663129600E+02 -0.30879020811E+03  0.31344725885E+03  0.00000000000E+00 0. -1.
         -2    1    1    2    0  502  0.13414338912E+02  0.25269956908E+02 -0.33377476596E+02  0.43961018578E+02  0.00000000000E+00 0.  1.
<mgrwt>
<rscale>  2 0.84276496E+02</rscale>
<asrwt>0</asrwt>
<pdfrwt beam="1">  1       21 0.33382093E-02 0.84276496E+02</pdfrwt>
<pdfrwt beam="2">  1       21 0.74072280E-01 0.84276496E+02</pdfrwt>
<totfact> 0.86880989E+05</totfact>
</mgrwt>
</event>
<event>
 5    1  0.1959123E+000  0.7459051E+02  0.7546771E-02  0.1345144E+00
         21   -1    0    0  501  502  0.00000000000E+00  0.00000000000E+00  0.45892311539E+02  0.45892311539E+02  0.00000000000E+00 0.  1.
         21   -1    0    0  502  503 -0.00000000000E+00 -0.00000000000E+00 -0.21526454267E+03  0.21526454267E+03  0.00000000000E+00 0.  1.
         24    1    1    2    0    0  0.15322543271E+02  0.37365124617E+02 -0.21900733506E+02  0.92616364388E+02  0.80419002446E+02 0.  1.
          1    1    1    2  501    0 -0.25135742456E+02 -0.53404089957E+01 -0.10885091438E+02  0.27907180665E+02  0.00000000000E+00 0. -1.
         -2    1    1    2    0  503  0.98131991847E+01 -0.32024715622E+02 -0.13658640619E+03  0.14063330915E+03  0.00000000000E+00 0.  1.
<mgrwt>
<rscale>  2 0.74590506E+02</rscale>
<asrwt>0</asrwt>
<pdfrwt beam="1">  1       21 0.70603557E-02 0.74590506E+02</pdfrwt>
<pdfrwt beam="2">  1       21 0.33117622E-01 0.74590506E+02</pdfrwt>
<totfact> 0.12905248E+06</totfact>
</mgrwt>
</event>
<event>
 5    1  0.1959123E+000  0.8619052E+02  0.7546771E-02  0.1312348E+00
         21   -1    0    0  503  502  0.00000000000E+00  0.00000000000E+00  0.65189129436E+03  0.65189129436E+03  0.00000000000E+00 0.  1.
         21   -1    0    0  501  503 -0.00000000000E+00 -0.00000000000E+00 -0.11866732580E+02  0.11866732580E+02  0.00000000000E+00 0. -1.
         24    1    1    2    0    0  0.17389086172E+02 -0.26497826335E+02  0.25682624198E+03  0.27098237884E+03  0.80419002446E+02 0.  0.
          1    1    1    2  501    0  0.13418996829E+02 -0.23588912074E+02  0.10710876745E+03  0.11049341298E+03  0.00000000000E+00 0. -1.
         -2    1    1    2    0  502 -0.30808083001E+02  0.50086738410E+02  0.27608955236E+03  0.28228223512E+03  0.00000000000E+00 0.  1.
<mgrwt>
<rscale>  2 0.86190525E+02</rscale>
<asrwt>0</asrwt>
<pdfrwt beam="1">  1       21 0.10029094E+00 0.86190525E+02</pdfrwt>
<pdfrwt beam="2">  1       21 0.18256517E-02 0.86190525E+02</pdfrwt>
<totfact> 0.11658450E+06</totfact>
</mgrwt>
</event>
<event>
 5    1  0.1959123E+000  0.7340386E+02  0.7546771E-02  0.1348886E+00
         21   -1    0    0  501  502  0.00000000000E+00  0.00000000000E+00  0.12428727263E+03  0.12428727263E+03  0.00000000000E+00 0. -1.
         21   -1    0    0  502  503 -0.00000000000E+00 -0.00000000000E+00 -0.13361025610E+03  0.13361025610E+03  0.00000000000E+00 0.  1.
         24    1    1    2    0    0 -0.25906403964E+02  0.54925549603E+01 -0.11016998440E+03  0.13894585759E+03  0.80419002446E+02 0.  1.
          1    1    1    2  501    0  0.30166367744E+02  0.20065258321E+02  0.68650108207E+02  0.77623847439E+02  0.00000000000E+00 0. -1.
         -2    1    1    2    0  503 -0.42599637801E+01 -0.25557813281E+02  0.32196892715E+02  0.41327823698E+02  0.00000000000E+00 0.  1.
<mgrwt>
<rscale>  2 0.73403855E+02</rscale>
<asrwt>0</asrwt>
<pdfrwt beam="1">  1       21 0.19121119E-01 0.73403855E+02</pdfrwt>
<pdfrwt beam="2">  1       21 0.20555424E-01 0.73403855E+02</pdfrwt>
<totfact> 0.55404354E+05</totfact>
</mgrwt>
</event>
<event>
 5    1  0.1959123E+000  0.8855941E+02  0.7546771E-02  0.1306378E+00
         21   -1    0    0  503  502  0.00000000000E+00  0.00000000000E+00  0.24419533908E+02  0.24419533908E+02  0.00000000000E+00 0. -1.
         21   -1    0    0  501  503 -0.00000000000E+00 -0.00000000000E+00 -0.41243442605E+03  0.41243442605E+03  0.00000000000E+00 0. -1.
         24    1    1    2    0    0  0.15311701459E+02 -0.67901900307E+02 -0.16637261661E+03  0.19746437598E+03  0.80419002446E+02 0. -1.
          1    1    1    2  501    0  0.66809277202E+00  0.24501564267E+02 -0.16236620489E+03  0.16420583878E+03  0.00000000000E+00 0. -1.
         -2    1    1    2    0  502 -0.15979794231E+02  0.43400336040E+02 -0.59276070641E+02  0.75183745202E+02  0.00000000000E+00 0.  1.
<mgrwt>
<rscale>  2 0.88559414E+02</rscale>
<asrwt>0</asrwt>
<pdfrwt beam="1">  1       21 0.37568514E-02 0.88559414E+02</pdfrwt>
<pdfrwt beam="2">  1       21 0.63451450E-01 0.88559414E+02</pdfrwt>
<totfact> 0.99904221E+05</totfact>
</mgrwt>
</event>
<event>
 5    1  0.1959123E+000  0.6285374E+02  0.7546771E-02  0.1386232E+00
         21   -1    0    0  503  502  0.00000000000E+00  0.00000000000E+00  0.34029604156E+03  0.34029604156E+03  0.00000000000E+00 0. -1.
         21   -1    0    0  501  503 -0.00000000000E+00 -0.00000000000E+00 -0.14026963086E+02  0.14026963086E+02  0.00000000000E+00 0.  1.
         24    1    1    2    0    0  0.11964051813E+01 -0.41826566910E+01  0.16802042573E+03  0.18632499944E+03  0.80419002446E+02 0.  1.
          1    1    1    2  501    0  0.21869986848E+02  0.29931409068E+01  0.27688464370E+02  0.35410539058E+02  0.00000000000E+00 0. -1.
         -2    1    1    2    0  502 -0.23066392029E+02  0.11895157841E+01  0.13056018838E+03  0.13258746615E+03  0.00000000000E+00 0.  1.
<mgrwt>
<rscale>  2 0.62853744E+02</rscale>
<asrwt>0</asrwt>
<pdfrwt beam="1">  1       21 0.52353231E-01 0.62853744E+02</pdfrwt>
<pdfrwt beam="2">  1       21 0.21579946E-02 0.62853744E+02</pdfrwt>
<totfact> 0.35944261E+06</totfact>
</mgrwt>
</event>
<event>
 5    1  0.1959123E+000  0.8376210E+02  0.7546771E-02  0.1318702E+00
         21   -1    0    0  503  502  0.00000000000E+00  0.00000000000E+00  0.70961356852E+03  0.70961356852E+03  0.00000000000E+00 0.  1.
         21   -1    0    0  501  503 -0.00000000000E+00 -0.00000000000E+00 -0.28120945779E+02  0.28120945779E+02  0.00000000000E+00 0. -1.
         24    1    1    2    0    0  0.19962495009E+02 -0.52637455600E+02  0.28495209893E+03  0.30138698972E+03  0.80419002446E+02 0.  1.
          1    1    1    2  501    0  0.12381922706E+02  0.19129070973E+02 -0.11592447513E+02  0.25565957943E+02  0.00000000000E+00 0. -1.
         -2    1    1    2    0  502 -0.32344417716E+02  0.33508384627E+02  0.40813297133E+03  0.41078156663E+03  0.00000000000E+00 0.  1.
<mgrwt>
<rscale>  2 0.83762096E+02</rscale>
<asrwt>0</asrwt>
<pdfrwt beam="1">  1       21 0.10917130E+00 0.83762096E+02</pdfrwt>
<pdfrwt beam="2">  1       21 0.43262999E-02 0.83762096E+02</pdfrwt>
<totfact> 0.23658515E+05</totfact>
</mgrwt>
</event>
<event>
 5    1  0.1959123E+000  0.9450953E+02  0.7546771E-02  0.1292285E+00
         21   -1    0    0  503  502  0.00000000000E+00  0.00000000000E+00  0.92478349366E+03  0.92478349366E+03  0.00000000000E+00 0. -1.
         21   -1    0    0  501  503 -0.00000000000E+00 -0.00000000000E+00 -0.19939644593E+02  0.19939644593E+02  0.00000000000E+00 0. -1.
         24    1    1    2    0    0 -0.67118700342E+01  0.38119881386E+02  0.61454948847E+03  0.62099634804E+03  0.80419002446E+02 0. -1.
          1    1    1    2  501    0  0.44789713164E+02  0.15050354943E+01  0.22114805199E+02  0.49974474946E+02  0.00000000000E+00 0. -1.
         -2    1    1    2    0  502 -0.38077843130E+02 -0.39624916880E+02  0.26817955540E+03  0.27375231526E+03  0.00000000000E+00 0.  1.
<mgrwt>
<rscale>  2 0.94509533E+02</rscale>
<asrwt>0</asrwt>
<pdfrwt beam="1">  1       21 0.14227435E+00 0.94509533E+02</pdfrwt>
<pdfrwt beam="2">  1       21 0.30676384E-02 0.94509533E+02</pdfrwt>
<totfact> 0.21750988E+05</totfact>
</mgrwt>
</event>
<event>
 5    1  0.1959123E+000  0.7109718E+02  0.7546771E-02  0.1356401E+00
         21   -1    0    0  503  502  0.00000000000E+00  0.00000000000E+00  0.14983890472E+03  0.14983890472E+03  0.00000000000E+00 0. -1.
         21   -1    0    0  501  503 -0.00000000000E+00 -0.00000000000E+00 -0.36297148254E+02  0.36297148254E+02  0.00000000000E+00 0.  1.
         24    1    1    2    0    0  0.22019844110E+02 -0.11663626033E+02  0.77920161684E+02  0.11471565394E+03  0.80419002446E+02 0.  1.
          1    1    1    2  501    0 -0.10084833389E+02  0.32479220441E+02  0.82007411137E+01  0.34983650178E+02  0.00000000000E+00 0. -1.
         -2    1    1    2    0  502 -0.11935010720E+02 -0.20815594408E+02  0.27420853664E+02  0.36436748855E+02  0.00000000000E+00 0.  1.
<mgrwt>
<rscale>  2 0.71097176E+02</rscale>
<asrwt>0</asrwt>
<pdfrwt beam="1">  1       21 0.23052139E-01 0.71097176E+02</pdfrwt>
<pdfrwt beam="2">  1       21 0.55841768E-02 0.71097176E+02</pdfrwt>
<totfact> 0.37679821E+06</totfact>
</mgrwt>
</event>
<event>
 5    1  0.1959123E+000  0.8203838E+02  0.7546771E-02  0.1323364E+00
         21   -1    0    0  501  502  0.00000000000E+00  0.00000000000E+00  0.41525959807E+02  0.41525959807E+02  0.00000000000E+00 0.  1.
         21   -1    0    0  502  503 -0.00000000000E+00 -0.00000000000E+00 -0.32782637771E+03  0.32782637771E+03  0.00000000000E+00 0.  1.
         24    1    1    2    0    0 -0.11167668417E+02  0.30143627701E+02 -0.22741624290E+02  0.89541903814E+02  0.80419002446E+02 0.  1.
          1    1    1    2  501    0 -0.24666630455E+02 -0.33364054266E+02 -0.59104287613E+02  0.72214400152E+02  0.00000000000E+00 0. -1.
         -2    1    1    2    0  503  0.35834298872E+02  0.32204265651E+01 -0.20445450600E+03  0.20759603356E+03  0.00000000000E+00 0.  1.
<mgrwt>
<rscale>  2 0.82038378E+02</rscale>
<asrwt>0</asrwt>
<pdfrwt beam="1">  1       21 0.63886094E-02 0.82038378E+02</pdfrwt>
<pdfrwt beam="2">  1       21 0.50434825E-01 0.82038378E+02</pdfrwt>
<totfact> 0.66608445E+05</totfact>
</mgrwt>
</event>
<event>
 5    1  0.1959123E+000  0.8580578E+02  0.7546771E-02  0.1313339E+00
         21   -1    0    0  501  502  0.00000000000E+00  0.00000000000E+00  0.10491091851E+03  0.10491091851E+03  0.00000000000E+00 0. -1.
         21   -1    0    0  502  503 -0.00000000000E+00 -0.00000000000E+00 -0.57800683354E+03  0.57800683354E+03  0.00000000000E+00 0.  1.
         24    1    1    2    0    0  0.22366146962E+02 -0.52547597620E+02  0.17375335458E+01  0.98649528751E+02  0.80419002446E+02 0. -1.
          1    1    1    2  501    0 -0.34393008054E+02  0.23826951894E+02  0.46185690972E+02  0.62319504893E+02  0.00000000000E+00 0. -1.
         -2    1    1    2    0  503  0.12026861091E+02  0.28720645726E+02 -0.52101913954E+03  0.52194871841E+03  0.00000000000E+00 0.  1.
<mgrwt>
<rscale>  2 0.85805780E+02</rscale>
<asrwt>0</asrwt>
<pdfrwt beam="1">  1       21 0.16140141E-01 0.85805780E+02</pdfrwt>
<pdfrwt beam="2">  1       21 0.88924129E-01 0.85805780E+02</pdfrwt>
<totfact> 0.39686141E+04</totfact>
</mgrwt>
</event>
<event>
 5    1  0.1959123E+000  0.1144186E+03  0.7546771E-02  0.1252599E+00
         21   -1    0    0  503  502  0.00000000000E+00  0.00000000000E+00  0.83103806609E+03  0.83103806609E+03  0.00000000000E+00 0. -1.
         21   -1    0    0  501  503 -0.00000000000E+00 -0.00000000000E+00 -0.32815493441E+02  0.32815493441E+02  0.00000000000E+00 0. -1.
         24    1    1    2    0    0  0.28328646947E+01 -0.94944605740E+02  0.51100422992E+03  0.52594205216E+03  0.80419002446E+02 0. -1.
          1    1    1    2  501    0  0.19060976970E+02  0.61666038934E+02  0.19758145752E+02  0.67501152023E+02  0.00000000000E+00 0. -1.
         -2    1    1    2    0  502 -0.21893841665E+02  0.33278566807E+02  0.26746019699E+03  0.27041035535E+03  0.00000000000E+00 0.  1.
<mgrwt>
<rscale>  2 0.11441856E+03</rscale>
<asrwt>0</asrwt>
<pdfrwt beam="1">  1       21 0.12785199E+00 0.11441856E+03</pdfrwt>
<pdfrwt beam="2">  1       21 0.50485381E-02 0.11441856E+03</pdfrwt>
<totfact> 0.12347417E+05</totfact>
</mgrwt>
</event>
<event>
 5    1  0.1959123E+000  0.7265640E+02  0.7546771E-02  0.1351286E+00
         21   -1    0    0  503  502  0.00000000000E+00  0.00000000000E+00  0.72685579569E+02  0.72685579569E+02  0.00000000000E+00 0. -1.
         21   -1    0    0  501  503 -0.00000000000E+00 -0.00000000000E+00 -0.79911844616E+02  0.79911844616E+02  0.00000000000E+00 0. -1.
         24    1    1    2    0    0 -0.17021731622E+02  0.60233769551E+00  0.17771748110E+02  0.84102040067E+02  0.80419002446E+02 0. -1.
          1    1    1    2  501    0  0.14964243924E+02  0.29425337990E+02 -0.17976999939E+02  0.37589248979E+02  0.00000000000E+00 0. -1.
         -2    1    1    2    0  502  0.20574876976E+01 -0.30027675685E+02 -0.70210132177E+01  0.30906135140E+02  0.00000000000E+00 0.  1.
<mgrwt>
<rscale>  2 0.72656397E+02</rscale>
<asrwt>0</asrwt>
<pdfrwt beam="1">  1       21 0.11182397E-01 0.72656397E+02</pdfrwt>
<pdfrwt beam="2">  1       21 0.12294130E-01 0.72656397E+02</pdfrwt>
<totfact> 0.35828056E+06</totfact>
</mgrwt>
</event>
<event>
 5    1  0.1959123E+000  0.1034035E+03  0.7546771E-02  0.1273297E+00
         21   -1    0    0  501  502  0.00000000000E+00  0.00000000000E+00  0.49033080934E+02  0.49033080934E+02  0.00000000000E+00 0. -1.
         21   -1    0    0  502  503 -0.00000000000E+00 -0.00000000000E+00 -0.28145447939E+03  0.28145447939E+03  0.00000000000E+00 0.  1.
         24    1    1    2    0    0 -0.49622184136E+02  0.26998817995E+02 -0.16417308296E+03  0.19134083322E+03  0.80419002446E+02 0.  1.
          1    1    1    2  501    0  0.41519539743E+02  0.29830880149E+02 -0.15517371217E+01  0.51148425968E+02  0.00000000000E+00 0. -1.
         -2    1    1    2    0  503  0.81026443930E+01 -0.56829698144E+02 -0.66696578376E+02  0.87998301145E+02  0.00000000000E+00 0.  1.
<mgrwt>
<rscale>  2 0.10340352E+03</rscale>
<asrwt>0</asrwt>
<pdfrwt beam="1">  1       21 0.75435510E-02 0.10340352E+03</pdfrwt>
<pdfrwt beam="2">  1       21 0.43300689E-01 0.10340352E+03</pdfrwt>
<totfact> 0.68514403E+05</totfact>
</mgrwt>
</event>
<event>
 5    1  0.1959123E+000  0.8013154E+02  0.7546771E-02  0.1328679E+00
         21   -1    0    0  501  502  0.00000000000E+00  0.00000000000E+00  0.10069168855E+03  0.10069168855E+03  0.00000000000E+00 0.  1.
         21   -1    0    0  502  503 -0.00000000000E+00 -0.00000000000E+00 -0.99675084774E+02  0.99675084774E+02  0.00000000000E+00 0. -1.
         24    1    1    2    0    0 -0.34669822391E+02  0.15342805238E+02  0.38550181025E+01  0.88991434285E+02  0.80419002446E+02 0. -1.
          1    1    1    2  501    0 -0.11126775675E+02 -0.22406411214E+02  0.40711924927E+02  0.47784026951E+02  0.00000000000E+00 0. -1.
         -2    1    1    2    0  503  0.45796598066E+02  0.70636059763E+01 -0.43550339254E+02  0.63591312087E+02  0.00000000000E+00 0.  1.
<mgrwt>
<rscale>  2 0.80131538E+02</rscale>
<asrwt>0</asrwt>
<pdfrwt beam="1">  1       21 0.15491029E-01 0.80131538E+02</pdfrwt>
<pdfrwt beam="2">  1       21 0.15334628E-01 0.80131538E+02</pdfrwt>
<totfact> 0.13741215E+06</totfact>
</mgrwt>
</event>
<event>
 5    1  0.1959123E+000  0.6660611E+02  0.7546771E-02  0.1372030E+00
         21   -1    0    0  501  502  0.00000000000E+00  0.00000000000E+00  0.51512779450E+03  0.51512779450E+03  0.00000000000E+00 0. -1.
         21   -1    0    0  502  503 -0.00000000000E+00 -0.00000000000E+00 -0.12623798552E+02  0.12623798552E+02  0.00000000000E+00 0. -1.
         24    1    1    2    0    0  0.21653175224E+01  0.38458947965E+02  0.19160945072E+03  0.21134137513E+03  0.80419002446E+02 0. -1.
          1    1    1    2  501    0 -0.11575328379E+02 -0.16517284599E+02  0.25277165121E+03  0.25357507088E+03  0.00000000000E+00 0. -1.
         -2    1    1    2    0  503  0.94100108567E+01 -0.21941663367E+02  0.58122894014E+02  0.62835147045E+02  0.00000000000E+00 0.  1.
<mgrwt>
<rscale>  2 0.66606107E+02</rscale>
<asrwt>0</asrwt>
<pdfrwt beam="1">  1       21 0.79250414E-01 0.66606107E+02</pdfrwt>
<pdfrwt beam="2">  1       21 0.19421232E-02 0.66606107E+02</pdfrwt>
<totfact> 0.17803774E+06</totfact>
</mgrwt>
</event>
<event>
 5    1  0.1959123E+000  0.7965071E+02  0.7546771E-02  0.1330046E+00
         21   -1    0    0  503  502  0.00000000000E+00  0.00000000000E+00  0.14480413885E+02  0.14480413885E+02  0.00000000000E+00 0. -1.
         21   -1    0    0  501  503 -0.00000000000E+00 -0.00000000000E+00 -0.63806936771E+03  0.63806936771E+03  0.00000000000E+00 0. -1.
         24    1    1    2    0    0  0.41351499438E+02  0.45220882400E+01 -0.15986281414E+03  0.18372188516E+03  0.80419002446E+02 0. -1.
          1    1    1    2  501    0 -0.14927098679E+02 -0.29079547780E+02 -0.20203940280E+03  0.20466645709E+03  0.00000000000E+00 0. -1.
         -2    1    1    2    0  502 -0.26424400760E+02  0.24557459540E+02 -0.26168673688E+03  0.26416143934E+03  0.00000000000E+00 0.  1.
<mgrwt>
<rscale>  2 0.79650711E+02</rscale>
<asrwt>0</asrwt>
<pdfrwt beam="1">  1       21 0.22277563E-02 0.79650711E+02</pdfrwt>
<pdfrwt beam="2">  1       21 0.98164504E-01 0.79650711E+02</pdfrwt>
<totfact> 0.89050456E+05</totfact>
</mgrwt>
</event>
<event>
 5    1  0.1959123E+000  0.6760440E+02  0.7546771E-02  0.1368434E+00
         21   -1    0    0  501  502  0.00000000000E+00  0.00000000000E+00  0.19636802963E+03  0.19636802963E+03  0.00000000000E+00 0. -1.
         21   -1    0    0  502  503 -0.00000000000E+00 -0.00000000000E+00 -0.28151053929E+02  0.28151053929E+02  0.00000000000E+00 0. -1.
         24    1    1    2    0    0 -0.23067595136E+02 -0.25603301302E+02  0.66481368961E+02  0.10988462748E+03  0.80419002446E+02 0. -1.
          1    1    1    2  501    0  0.26872950555E+02  0.57230913390E+01  0.81526320430E+02  0.86031681193E+02  0.00000000000E+00 0. -1.
         -2    1    1    2    0  503 -0.38053554193E+01  0.19880209963E+02  0.20209286307E+02  0.28602774884E+02  0.00000000000E+00 0.  1.
<mgrwt>
<rscale>  2 0.67604398E+02</rscale>
<asrwt>0</asrwt>
<pdfrwt beam="1">  1       21 0.30210465E-01 0.67604398E+02</pdfrwt>
<pdfrwt beam="2">  1       21 0.43309315E-02 0.67604398E+02</pdfrwt>
<totfact> 0.34477501E+06</totfact>
</mgrwt>
</event>
<event>
 5    1  0.1959123E+000  0.7490806E+02  0.7546771E-02  0.1344156E+00
         21   -1    0    0  501  502  0.00000000000E+00  0.00000000000E+00  0.80805738999E+01  0.80805738999E+01  0.00000000000E+00 0. -1.
         21   -1    0    0  502  503 -0.00000000000E+00 -0.00000000000E+00 -0.11757826975E+04  0.11757826975E+04  0.00000000000E+00 0. -1.
         24    1    1    2    0    0  0.50022735426E+01  0.30887899781E+02 -0.79969453895E+03  0.80433678063E+03  0.80419002446E+02 0. -1.
          1    1    1    2  501    0 -0.25746782456E+02 -0.33892841299E+02 -0.78800666163E+02  0.89560965190E+02  0.00000000000E+00 0. -1.
         -2    1    1    2    0  503  0.20744508913E+02  0.30049415174E+01 -0.28920691844E+03  0.28996552553E+03  0.00000000000E+00 0.  1.
<mgrwt>
<rscale>  2 0.74908059E+02</rscale>
<asrwt>0</asrwt>
<pdfrwt beam="1">  1       21 0.12431653E-02 0.74908059E+02</pdfrwt>
<pdfrwt beam="2">  1       21 0.18088964E+00 0.74908059E+02</pdfrwt>
<totfact> 0.49683371E+05</totfact>
</mgrwt>
</event>
<event>
 5    1  0.1959123E+000  0.1044183E+03  0.7546771E-02  0.1271270E+00
         21   -1    0    0  503  502  0.00000000000E+00  0.00000000000E+00  0.10829544101E+03  0.10829544101E+03  0.00000000000E+00 0.  1.
         21   -1    0    0  501  503 -0.00000000000E+00 -0.00000000000E+00 -0.21415320910E+03  0.21415320910E+03  0.00000000000E+00 0. -1.
         24    1    1    2    0    0  0.33626724965E+01  0.49362185672E+02  0.88121348884E+01  0.94830388675E+02  0.80419002446E+02 0.  0.
          1    1    1    2  501    0  0.47175683223E+02 -0.42345886029E+02 -0.15180661219E+03  0.16451129644E+03  0.00000000000E+00 0. -1.
         -2    1    1    2    0  502 -0.50538355719E+02 -0.70162996434E+01  0.37136709208E+02  0.63106964990E+02  0.00000000000E+00 0.  1.
<mgrwt>
<rscale>  2 0.10441825E+03</rscale>
<asrwt>0</asrwt>
<pdfrwt beam="1">  1       21 0.16660837E-01 0.10441825E+03</pdfrwt>
<pdfrwt beam="2">  1       21 0.32946647E-01 0.10441825E+03</pdfrwt>
<totfact> 0.29239505E+05</totfact>
</mgrwt>
</event>
<event>
 5    1  0.1959123E+000  0.1233176E+03  0.7546771E-02  0.1237722E+00
         21   -1    0    0  501  502  0.00000000000E+00  0.00000000000E+00  0.23229848750E+03  0.23229848750E+03  0.00000000000E+00 0.  1.
         21   -1    0    0  502  503 -0.00000000000E+00 -0.00000000000E+00 -0.67757169356E+02  0.67757169356E+02  0.00000000000E+00 0. -1.
         24    1    1    2    0    0  0.41651409536E+02  0.75643321216E+02  0.52727581129E+02  0.12924459651E+03  0.80419002446E+02 0.  0.
          1    1    1    2  501    0  0.20885238594E+02  0.95402058069E+01  0.25957188170E+02  0.34655220900E+02  0.00000000000E+00 0. -1.
         -2    1    1    2    0  503 -0.62536648130E+02 -0.85183527023E+02  0.85856548844E+02  0.13615583944E+03  0.00000000000E+00 0.  1.
<mgrwt>
<rscale>  2 0.12331761E+03</rscale>
<asrwt>0</asrwt>
<pdfrwt beam="1">  1       21 0.35738228E-01 0.12331761E+03</pdfrwt>
<pdfrwt beam="2">  1       21 0.10424180E-01 0.12331761E+03</pdfrwt>
<totfact> 0.57328143E+05</totfact>
</mgrwt>
</event>
<event>
 5    1  0.1959123E+000  0.9100676E+02  0.7546771E-02  0.1300432E+00
         21   -1    0    0  503  502  0.00000000000E+00  0.00000000000E+00  0.10124777124E+04  0.10124777124E+04  0.00000000000E+00 0.  1.
         21   -1    0    0  501  503 -0.00000000000E+00 -0.00000000000E+00 -0.46440586999E+02  0.46440586999E+02  0.00000000000E+00 0. -1.
         24    1    1    2    0    0  0.31505371459E+02 -0.44216153238E+02  0.42265511546E+02  0.10583593935E+03  0.80419002446E+02 0. -1.
          1    1    1    2  501    0 -0.20093660560E+02  0.61260306623E+02  0.56963260522E+02  0.86031351329E+02  0.00000000000E+00 0. -1.
         -2    1    1    2    0  502 -0.11411710899E+02 -0.17044153385E+02  0.86680835330E+03  0.86705100868E+03  0.00000000000E+00 0.  1.
<mgrwt>
<rscale>  2 0.91006762E+02</rscale>
<asrwt>0</asrwt>
<pdfrwt beam="1">  1       21 0.15576579E+00 0.91006762E+02</pdfrwt>
<pdfrwt beam="2">  1       21 0.71447064E-02 0.91006762E+02</pdfrwt>
<totfact> 0.42503470E+04</totfact>
</mgrwt>
</event>
<event>
 5    1  0.1959123E+000  0.7657822E+02  0.7546771E-02  0.1339052E+00
         21   -1    0    0  503  502  0.00000000000E+00  0.00000000000E+00  0.69397823374E+02  0.69397823374E+02  0.00000000000E+00 0. -1.
         21   -1    0    0  501  503 -0.00000000000E+00 -0.00000000000E+00 -0.95518628339E+02  0.95518628339E+02  0.00000000000E+00 0.  1.
         24    1    1    2    0    0 -0.19574094251E+02  0.19818533058E+01  0.62025576799E+01  0.83022651032E+02  0.80419002446E+02 0. -1.
          1    1    1    2  501    0 -0.21491605942E+02  0.14703307265E+02 -0.26558656206E+02  0.37194604312E+02  0.00000000000E+00 0. -1.
         -2    1    1    2    0  502  0.41065700193E+02 -0.16685160570E+02 -0.57647064392E+01  0.44699196368E+02  0.00000000000E+00 0.  1.
<mgrwt>
<rscale>  2 0.76578221E+02</rscale>
<asrwt>0</asrwt>
<pdfrwt beam="1">  1       21 0.10676588E-01 0.76578221E+02</pdfrwt>
<pdfrwt beam="2">  1       21 0.14695174E-01 0.76578221E+02</pdfrwt>
<totfact> 0.28452239E+06</totfact>
</mgrwt>
</event>
<event>
 5    1  0.1959123E+000  0.7928392E+02  0.7546771E-02  0.1331096E+00
         21   -1    0    0  501  502  0.00000000000E+00  0.00000000000E+00  0.14500314453E+04  0.14500314453E+04  0.00000000000E+00 0.  1.
         21   -1    0    0  502  503 -0.00000000000E+00 -0.00000000000E+00 -0.67069956574E+01  0.67069956574E+01  0.00000000000E+00 0.  1.
         24    1    1    2    0    0  0.21731951619E+02 -0.63044154395E+01  0.72381663922E+03  0.72862182684E+03  0.80419002446E+02 0.  1.
          1    1    1    2  501    0  0.72083866515E+01 -0.28709177652E+02  0.59233840845E+03  0.59307753949E+03  0.00000000000E+00 0. -1.
         -2    1    1    2    0  503 -0.28940338271E+02  0.35013593092E+02  0.12716940200E+03  0.13503907466E+03  0.00000000000E+00 0.  1.
<mgrwt>
<rscale>  2 0.79283924E+02</rscale>
<asrwt>0</asrwt>
<pdfrwt beam="1">  1       21 0.22308151E+00 0.79283924E+02</pdfrwt>
<pdfrwt beam="2">  1       21 0.10318466E-02 0.79283924E+02</pdfrwt>
<totfact> 0.36704950E+05</totfact>
</mgrwt>
</event>
<event>
 5    1  0.1959123E+000  0.9528435E+02  0.7546771E-02  0.1290537E+00
         21   -1    0    0  503  502  0.00000000000E+00  0.00000000000E+00  0.23498309535E+02  0.23498309535E+02  0.00000000000E+00 0. -1.
         21   -1    0    0  501  503 -0.00000000000E+00 -0.00000000000E+00 -0.60300051680E+03  0.60300051680E+03  0.00000000000E+00 0.  1.
         24    1    1    2    0    0  0.33452930973E+02 -0.62787574830E+02 -0.13568377160E+03  0.17302797454E+03  0.80419002446E+02 0. -1.
          1    1    1    2  501    0 -0.24425691118E+02  0.52854556076E+01 -0.24601770229E+03  0.24728376466E+03  0.00000000000E+00 0. -1.
         -2    1    1    2    0  502 -0.90272398541E+01  0.57502119223E+02 -0.19780073338E+03  0.20618708713E+03  0.00000000000E+00 0.  1.
<mgrwt>
<rscale>  2 0.95284348E+02</rscale>
<asrwt>0</asrwt>
<pdfrwt beam="1">  1       21 0.36151249E-02 0.95284348E+02</pdfrwt>
<pdfrwt beam="2">  1       21 0.92769301E-01 0.95284348E+02</pdfrwt>
<totfact> 0.46223131E+05</totfact>
</mgrwt>
</event>
<event>
 5    1  0.1959123E+000  0.8820675E+02  0.7546771E-02  0.1307253E+00
         21   -1    0    0  501  502  0.00000000000E+00  0.00000000000E+00  0.41036547451E+02  0.41036547451E+02  0.00000000000E+00 0. -1.
         21   -1    0    0  502  503 -0.00000000000E+00 -0.00000000000E+00 -0.20677588290E+03  0.20677588290E+03  0.00000000000E+00 0. -1.
         24    1    1    2    0    0 -0.22633897799E+02 -0.62332309179E+02 -0.12780085091E+03  0.16491780845E+03  0.80419002446E+02 0. -1.
          1    1    1    2  501    0  0.27555608832E+02  0.35710029250E+02 -0.15383129321E+02  0.47656672511E+02  0.00000000000E+00 0. -1.
         -2    1    1    2    0  503 -0.49217110324E+01  0.26622279930E+02 -0.22555355224E+02  0.35237949393E+02  0.00000000000E+00 0.  1.
<mgrwt>
<rscale>  2 0.88206753E+02</rscale>
<asrwt>0</asrwt>
<pdfrwt beam="1">  1       21 0.63133149E-02 0.88206753E+02</pdfrwt>
<pdfrwt beam="2">  1       21 0.31811675E-01 0.88206753E+02</pdfrwt>
<totfact> 0.16926810E+06</totfact>
</mgrwt>
</event>
<event>
 5    1  0.1959123E+000  0.6892087E+02  0.7546771E-02  0.1363802E+00
         21   -1    0    0  501  502  0.00000000000E+00  0.00000000000E+00  0.15037767053E+04  0.15037767053E+04  0.00000000000E+00 0.  1.
         21   -1    0    0  502  503 -0.00000000000E+00 -0.00000000000E+00 -0.55126212970E+01  0.55126212970E+01  0.00000000000E+00 0.  1.
         24    1    1    2    0    0 -0.17368882427E+02  0.53527200665E+01  0.97821174849E+03  0.98168007545E+03  0.80419002446E+02 0.  1.
          1    1    1    2  501    0 -0.63831786116E+01  0.19797580714E+02  0.43888345153E+03  0.43937611815E+03  0.00000000000E+00 0. -1.
         -2    1    1    2    0  503  0.23752061038E+02 -0.25150300781E+02  0.81168884005E+02  0.88233133026E+02  0.00000000000E+00 0.  1.
<mgrwt>
<rscale>  2 0.68920867E+02</rscale>
<asrwt>0</asrwt>
<pdfrwt beam="1">  1       21 0.23134994E+00 0.68920867E+02</pdfrwt>
<pdfrwt beam="2">  1       21 0.84809678E-03 0.68920867E+02</pdfrwt>
<totfact> 0.45020235E+05</totfact>
</mgrwt>
</event>
<event>
 5    1  0.1959123E+000  0.6526603E+02  0.7546771E-02  0.1376974E+00
         21   -1    0    0  503  502  0.00000000000E+00  0.00000000000E+00  0.54787576525E+02  0.54787576525E+02  0.00000000000E+00 0.  1.
         21   -1    0    0  501  503 -0.00000000000E+00 -0.00000000000E+00 -0.12582343779E+03  0.12582343779E+03  0.00000000000E+00 0. -1.
         24    1    1    2    0    0  0.35136991355E+01  0.26230379098E+02  0.88180219661E+01  0.85119635426E+02  0.80419002446E+02 0.  1.
          1    1    1    2  501    0 -0.20518602899E+02 -0.12614823421E+02 -0.64470965169E+02  0.68823340406E+02  0.00000000000E+00 0. -1.
         -2    1    1    2    0  502  0.17004903763E+02 -0.13615555677E+02 -0.15382918062E+02  0.26668038482E+02  0.00000000000E+00 0.  1.
<mgrwt>
<rscale>  2 0.65266029E+02</rscale>
<asrwt>0</asrwt>
<pdfrwt beam="1">  1       21 0.84288580E-02 0.65266029E+02</pdfrwt>
<pdfrwt beam="2">  1       21 0.19357452E-01 0.65266029E+02</pdfrwt>
<totfact> 0.25814580E+06</totfact>
</mgrwt>
</event>
<event>
 5    1  0.4799584E+000  0.7457250E+02  0.7546771E-02  0.1345200E+00
         21   -1    0    0  503  502  0.00000000000E+00  0.00000000000E+00  0.75722728648E+03  0.75722728648E+03  0.00000000000E+00 0.  1.
         21   -1    0    0  501  503 -0.00000000000E+00 -0.00000000000E+00 -0.10622471089E+03  0.10622471089E+03  0.00000000000E+00 0. -1.
         24    1    1    2    0    0 -0.41125954068E+02 -0.77610211785E+00  0.62638562708E+03  0.63286500630E+03  0.80419002446E+02 0.  0.
          1    1    1    2  501    0  0.26864560203E+02  0.20980374658E+02 -0.98904863726E+02  0.10461382693E+03  0.00000000000E+00 0. -1.
         -2    1    1    2    0  502  0.14261393865E+02 -0.20204272540E+02  0.12352181224E+03  0.12597316413E+03  0.00000000000E+00 0.  1.
<mgrwt>
<rscale>  2 0.74572500E+02</rscale>
<asrwt>0</asrwt>
<pdfrwt beam="1">  1       21 0.11649650E+00 0.74572500E+02</pdfrwt>
<pdfrwt beam="2">  1       21 0.16342264E-01 0.74572500E+02</pdfrwt>
<totfact> 0.21049874E+04</totfact>
</mgrwt>
</event>
<event>
 5    1  0.1959123E+000  0.7919235E+02  0.7546771E-02  0.1331359E+00
         21   -1    0    0  501  502  0.00000000000E+00  0.00000000000E+00  0.10505335942E+03  0.10505335942E+03  0.00000000000E+00 0. -1.
         21   -1    0    0  502  503 -0.00000000000E+00 -0.00000000000E+00 -0.17148443542E+03  0.17148443542E+03  0.00000000000E+00 0.  1.
         24    1    1    2    0    0  0.35686089581E+02  0.30503742400E+02 -0.10815538750E+03  0.14271923167E+03  0.80419002446E+02 0.  0.
          1    1    1    2  501    0 -0.79944729372E+01 -0.36133547026E+02  0.78884888932E+02  0.87134209815E+02  0.00000000000E+00 0. -1.
         -2    1    1    2    0  503 -0.27691616644E+02  0.56298046266E+01 -0.37160577432E+02  0.46684353349E+02  0.00000000000E+00 0.  1.
<mgrwt>
<rscale>  2 0.79192348E+02</rscale>
<asrwt>0</asrwt>
<pdfrwt beam="1">  1       21 0.16162055E-01 0.79192348E+02</pdfrwt>
<pdfrwt beam="2">  1       21 0.26382221E-01 0.79192348E+02</pdfrwt>
<totfact> 0.47291008E+05</totfact>
</mgrwt>
</event>
<event>
 5    1  0.1959123E+000  0.8613815E+02  0.7546771E-02  0.1312483E+00
         21   -1    0    0  503  502  0.00000000000E+00  0.00000000000E+00  0.17280204290E+02  0.17280204290E+02  0.00000000000E+00 0.  1.
         21   -1    0    0  501  503 -0.00000000000E+00 -0.00000000000E+00 -0.46963901507E+03  0.46963901507E+03  0.00000000000E+00 0. -1.
         24    1    1    2    0    0 -0.28783987022E+02 -0.35702948349E+02 -0.30552303010E+03  0.31924090638E+03  0.80419002446E+02 0.  1.
          1    1    1    2  501    0  0.17646892692E+02 -0.17791055474E+02 -0.60753472769E+02  0.65718482408E+02  0.00000000000E+00 0. -1.
         -2    1    1    2    0  502  0.11137094331E+02  0.53494003823E+02 -0.86082307908E+02  0.10195983057E+03  0.00000000000E+00 0.  1.
<mgrwt>
<rscale>  2 0.86138151E+02</rscale>
<asrwt>0</asrwt>
<pdfrwt beam="1">  1       21 0.26584933E-02 0.86138151E+02</pdfrwt>
<pdfrwt beam="2">  1       21 0.72252146E-01 0.86138151E+02</pdfrwt>
<totfact> 0.13273305E+06</totfact>
</mgrwt>
</event>
<event>
 5    1  0.1959123E+000  0.1286015E+03  0.7546771E-02  0.1229546E+00
         21   -1    0    0  501  502  0.00000000000E+00  0.00000000000E+00  0.18778908496E+03  0.18778908496E+03  0.00000000000E+00 0.  1.
         21   -1    0    0  502  503 -0.00000000000E+00 -0.00000000000E+00 -0.11362805306E+03  0.11362805306E+03  0.00000000000E+00 0.  1.
         24    1    1    2    0    0  0.91924242614E+02  0.42641299084E+02  0.70796367588E+02  0.14747097472E+03  0.80419002446E+02 0.  1.
          1    1    1    2  501    0 -0.44403307342E+02  0.20421274395E+02  0.43446160714E+02  0.65393050331E+02  0.00000000000E+00 0. -1.
         -2    1    1    2    0  503 -0.47520935271E+02 -0.63062573479E+02 -0.40081496397E+02  0.88553112968E+02  0.00000000000E+00 0.  1.
<mgrwt>
<rscale>  2 0.12860149E+03</rscale>
<asrwt>0</asrwt>
<pdfrwt beam="1">  1       21 0.28890628E-01 0.12860149E+03</pdfrwt>
<pdfrwt beam="2">  1       21 0.17481239E-01 0.12860149E+03</pdfrwt>
<totfact> 0.34385180E+05</totfact>
</mgrwt>
</event>
<event>
 5    1  0.1959123E+000  0.3082851E+03  0.7546771E-02  0.1081171E+00
         21   -1    0    0  503  502  0.00000000000E+00  0.00000000000E+00  0.87767088464E+02  0.87767088464E+02  0.00000000000E+00 0.  1.
         21   -1    0    0  501  503 -0.00000000000E+00 -0.00000000000E+00 -0.15291070835E+04  0.15291070835E+04  0.00000000000E+00 0. -1.
         24    1    1    2    0    0  0.76025310161E+02  0.18126200433E+03 -0.62110540965E+03  0.65641062442E+03  0.80419002446E+02 0. -1.
          1    1    1    2  501    0  0.78069015778E+02 -0.22975069547E+03 -0.74258906268E+03  0.78122894807E+03  0.00000000000E+00 0. -1.
         -2    1    1    2    0  502 -0.15409432594E+03  0.48488691144E+02 -0.77645522722E+02  0.17923459949E+03  0.00000000000E+00 0.  1.
<mgrwt>
<rscale>  2 0.30828509E+03</rscale>
<asrwt>0</asrwt>
<pdfrwt beam="1">  1       21 0.13502630E-01 0.30828509E+03</pdfrwt>
<pdfrwt beam="2">  1       21 0.23524722E+00 0.30828509E+03</pdfrwt>
<totfact> 0.35100123E+03</totfact>
</mgrwt>
</event>
<event>
 5    1  0.1959123E+000  0.7731785E+02  0.7546771E-02  0.1336840E+00
         21   -1    0    0  501  502  0.00000000000E+00  0.00000000000E+00  0.23467811305E+02  0.23467811305E+02  0.00000000000E+00 0. -1.
         21   -1    0    0  502  503 -0.00000000000E+00 -0.00000000000E+00 -0.36592126804E+03  0.36592126804E+03  0.00000000000E+00 0.  1.
         24    1    1    2    0    0  0.23248081848E+02 -0.20435089654E+02 -0.28760487565E+03  0.30023631801E+03  0.80419002446E+02 0.  0.
          1    1    1    2  501    0  0.75587868063E+00 -0.20767255532E+02 -0.78913649775E+01  0.22228897771E+02  0.00000000000E+00 0. -1.
         -2    1    1    2    0  503 -0.24003960529E+02  0.41202345186E+02 -0.46957216104E+02  0.66923863562E+02  0.00000000000E+00 0.  1.
<mgrwt>
<rscale>  2 0.77317854E+02</rscale>
<asrwt>0</asrwt>
<pdfrwt beam="1">  1       21 0.36104329E-02 0.77317854E+02</pdfrwt>
<pdfrwt beam="2">  1       21 0.56295573E-01 0.77317854E+02</pdfrwt>
<totfact> 0.13658128E+06</totfact>
</mgrwt>
</event>
<event>
 5    1  0.1959123E+000  0.7140266E+02  0.7546771E-02  0.1355387E+00
         21   -1    0    0  501  502  0.00000000000E+00  0.00000000000E+00  0.19459729828E+03  0.19459729828E+03  0.00000000000E+00 0. -1.
         21   -1    0    0  502  503 -0.00000000000E+00 -0.00000000000E+00 -0.39237297937E+02  0.39237297937E+02  0.00000000000E+00 0. -1.
         24    1    1    2    0    0 -0.43886352298E+02 -0.16603562022E+00  0.34641369409E+02  0.97945290416E+02  0.80419002446E+02 0. -1.
          1    1    1    2  501    0  0.17494937046E+02  0.13046314819E+02  0.92932573738E+02  0.95460685175E+02  0.00000000000E+00 0. -1.
         -2    1    1    2    0  503  0.26391415251E+02 -0.12880279199E+02  0.27786057200E+02  0.40428620628E+02  0.00000000000E+00 0.  1.
<mgrwt>
<rscale>  2 0.71402662E+02</rscale>
<asrwt>0</asrwt>
<pdfrwt beam="1">  1       21 0.29938045E-01 0.71402662E+02</pdfrwt>
<pdfrwt beam="2">  1       21 0.60365075E-02 0.71402662E+02</pdfrwt>
<totfact> 0.20313833E+06</totfact>
</mgrwt>
</event>
<event>
 5    1  0.1959123E+000  0.1513374E+03  0.7546771E-02  0.1198839E+00
         21   -1    0    0  503  502  0.00000000000E+00  0.00000000000E+00  0.71151093532E+03  0.71151093532E+03  0.00000000000E+00 0.  1.
         21   -1    0    0  501  503 -0.00000000000E+00 -0.00000000000E+00 -0.38567579482E+02  0.38567579482E+02  0.00000000000E+00 0. -1.
         24    1    1    2    0    0 -0.79693537280E+02 -0.27031842633E+01  0.18053244809E+03  0.21311393163E+03  0.80419002446E+02 0. -1.
          1    1    1    2  501    0  0.29530718669E+02  0.86698937682E+02  0.11466169762E+03  0.14675174289E+03  0.00000000000E+00 0. -1.
         -2    1    1    2    0  502  0.50162818611E+02 -0.83995753419E+02  0.37774921013E+03  0.39021284028E+03  0.00000000000E+00 0.  1.
<mgrwt>
<rscale>  2 0.15133742E+03</rscale>
<asrwt>0</asrwt>
<pdfrwt beam="1">  1       21 0.10946321E+00 0.15133742E+03</pdfrwt>
<pdfrwt beam="2">  1       21 0.59334743E-02 0.15133742E+03</pdfrwt>
<totfact> 0.13498940E+05</totfact>
</mgrwt>
</event>
<event>
 5    1  0.1959123E+000  0.7391296E+02  0.7546771E-02  0.1347271E+00
         21   -1    0    0  501  502  0.00000000000E+00  0.00000000000E+00  0.75537157321E+03  0.75537157321E+03  0.00000000000E+00 0. -1.
         21   -1    0    0  502  503 -0.00000000000E+00 -0.00000000000E+00 -0.90159633894E+01  0.90159633894E+01  0.00000000000E+00 0.  1.
         24    1    1    2    0    0 -0.90153589866E+01 -0.30095314215E+02  0.40536186785E+03  0.41445441788E+03  0.80419002446E+02 0.  1.
          1    1    1    2  501    0  0.31267088521E+02  0.19429849431E+02  0.29875762102E+03  0.30101705266E+03  0.00000000000E+00 0. -1.
         -2    1    1    2    0  503 -0.22251729534E+02  0.10665464783E+02  0.42236120944E+02  0.48916066059E+02  0.00000000000E+00 0.  1.
<mgrwt>
<rscale>  2 0.73912959E+02</rscale>
<asrwt>0</asrwt>
<pdfrwt beam="1">  1       21 0.11621096E+00 0.73912959E+02</pdfrwt>
<pdfrwt beam="2">  1       21 0.13870719E-02 0.73912959E+02</pdfrwt>
<totfact> 0.12725025E+06</totfact>
</mgrwt>
</event>
<event>
 5    1  0.1959123E+000  0.7420531E+02  0.7546771E-02  0.1346350E+00
         21   -1    0    0  501  502  0.00000000000E+00  0.00000000000E+00  0.26329837162E+02  0.26329837162E+02  0.00000000000E+00 0. -1.
         21   -1    0    0  502  503 -0.00000000000E+00 -0.00000000000E+00 -0.38391854756E+03  0.38391854756E+03  0.00000000000E+00 0.  1.
         24    1    1    2    0    0  0.15826640223E+02  0.23753989812E+02 -0.59539217432E+02  0.10405224140E+03  0.80419002446E+02 0. -1.
          1    1    1    2  501    0  0.14570105229E+01 -0.39600728281E+02 -0.11468320730E+03  0.12133663336E+03  0.00000000000E+00 0. -1.
         -2    1    1    2    0  503 -0.17283650746E+02  0.15846738469E+02 -0.18336628567E+03  0.18485950997E+03  0.00000000000E+00 0.  1.
<mgrwt>
<rscale>  2 0.74205307E+02</rscale>
<asrwt>0</asrwt>
<pdfrwt beam="1">  1       21 0.40507442E-02 0.74205307E+02</pdfrwt>
<pdfrwt beam="2">  1       21 0.59064391E-01 0.74205307E+02</pdfrwt>
<totfact> 0.10231064E+06</totfact>
</mgrwt>
</event>
<event>
 5    1  0.1959123E+000  0.7960950E+02  0.7546771E-02  0.1330163E+00
         21   -1    0    0  501  502  0.00000000000E+00  0.00000000000E+00  0.17198207482E+03  0.17198207482E+03  0.00000000000E+00 0.  1.
         21   -1    0    0  502  503 -0.00000000000E+00 -0.00000000000E+00 -0.37499983797E+02  0.37499983797E+02  0.00000000000E+00 0.  1.
         24    1    1    2    0    0 -0.58163271767E+02 -0.83889085632E+01  0.88174947748E+02  0.13302397278E+03  0.80419002446E+02 0.  1.
          1    1    1    2  501    0  0.26359002263E+02 -0.12368680989E+01  0.28180223611E+02  0.38606370534E+02  0.00000000000E+00 0. -1.
         -2    1    1    2    0  503  0.31804269504E+02  0.96257766620E+01  0.18126919666E+02  0.37851715306E+02  0.00000000000E+00 0.  1.
<mgrwt>
<rscale>  2 0.79609502E+02</rscale>
<asrwt>0</asrwt>
<pdfrwt beam="1">  1       21 0.26458780E-01 0.79609502E+02</pdfrwt>
<pdfrwt beam="2">  1       21 0.57692284E-02 0.79609502E+02</pdfrwt>
<totfact> 0.27808826E+06</totfact>
</mgrwt>
</event>
<event>
 5    1  0.1959123E+000  0.1019184E+03  0.7546771E-02  0.1276313E+00
         21   -1    0    0  501  502  0.00000000000E+00  0.00000000000E+00  0.23054132647E+03  0.23054132647E+03  0.00000000000E+00 0. -1.
         21   -1    0    0  502  503 -0.00000000000E+00 -0.00000000000E+00 -0.30475518733E+03  0.30475518733E+03  0.00000000000E+00 0. -1.
         24    1    1    2    0    0  0.78202456074E+02  0.33859362456E+02 -0.19150274740E+03  0.22450523107E+03  0.80419002446E+02 0. -1.
          1    1    1    2  501    0 -0.57172418930E+02 -0.32084380163E+02  0.20777695536E+03  0.21787463394E+03  0.00000000000E+00 0. -1.
         -2    1    1    2    0  503 -0.21030037144E+02 -0.17749822924E+01 -0.90488068817E+02  0.92916648791E+02  0.00000000000E+00 0.  1.
<mgrwt>
<rscale>  2 0.10191837E+03</rscale>
<asrwt>0</asrwt>
<pdfrwt beam="1">  1       21 0.35467896E-01 0.10191837E+03</pdfrwt>
<pdfrwt beam="2">  1       21 0.46885413E-01 0.10191837E+03</pdfrwt>
<totfact> 0.35247355E+04</totfact>
</mgrwt>
</event>
<event>
 5    1  0.1959123E+000  0.1144283E+03  0.7546771E-02  0.1252582E+00
         21   -1    0    0  503  502  0.00000000000E+00  0.00000000000E+00  0.67214480052E+03  0.67214480052E+03  0.00000000000E+00 0.  1.
         21   -1    0    0  501  503 -0.00000000000E+00 -0.00000000000E+00 -0.32302363008E+02  0.32302363008E+02  0.00000000000E+00 0. -1.
         24    1    1    2    0    0 -0.61695618535E+02  0.41146958501E+02  0.47977120382E+03  0.49208438861E+03  0.80419002446E+02 0.  0.
          1    1    1    2  501    0  0.80210699399E+02 -0.54204302797E+02  0.69945538785E+02  0.11943299852E+03  0.00000000000E+00 0. -1.
         -2    1    1    2    0  502 -0.18515080864E+02  0.13057344296E+02  0.90125694904E+02  0.92929776398E+02  0.00000000000E+00 0.  1.
<mgrwt>
<rscale>  2 0.11442834E+03</rscale>
<asrwt>0</asrwt>
<pdfrwt beam="1">  1       21 0.10340688E+00 0.11442834E+03</pdfrwt>
<pdfrwt beam="2">  1       21 0.49695948E-02 0.11442834E+03</pdfrwt>
<totfact> 0.21119832E+05</totfact>
</mgrwt>
</event>
<event>
 5    1  0.1959123E+000  0.6946834E+02  0.7546771E-02  0.1361910E+00
         21   -1    0    0  501  502  0.00000000000E+00  0.00000000000E+00  0.14654510727E+03  0.14654510727E+03  0.00000000000E+00 0.  1.
         21   -1    0    0  502  503 -0.00000000000E+00 -0.00000000000E+00 -0.72789560713E+02  0.72789560713E+02  0.00000000000E+00 0. -1.
         24    1    1    2    0    0  0.94582539570E+01 -0.29643651848E+02 -0.10939860261E+02  0.86920084904E+02  0.80419002446E+02 0. -1.
          1    1    1    2  501    0  0.14720195822E+02  0.23552050226E+02  0.99576649736E+02  0.10337742697E+03  0.00000000000E+00 0. -1.
         -2    1    1    2    0  503 -0.24178449779E+02  0.60916016218E+01 -0.14881242917E+02  0.29037156107E+02  0.00000000000E+00 0.  1.
<mgrwt>
<rscale>  2 0.69468343E+02</rscale>
<asrwt>0</asrwt>
<pdfrwt beam="1">  1       21 0.22545401E-01 0.69468343E+02</pdfrwt>
<pdfrwt beam="2">  1       21 0.11198394E-01 0.69468343E+02</pdfrwt>
<totfact> 0.12046739E+06</totfact>
</mgrwt>
</event>
<event>
 5    1  0.1959123E+000  0.6870187E+02  0.7546771E-02  0.1364564E+00
         21   -1    0    0  501  502  0.00000000000E+00  0.00000000000E+00  0.10508830224E+02  0.10508830224E+02  0.00000000000E+00 0.  1.
         21   -1    0    0  502  503 -0.00000000000E+00 -0.00000000000E+00 -0.49319731550E+03  0.49319731550E+03  0.00000000000E+00 0. -1.
         24    1    1    2    0    0 -0.34491575553E+02 -0.13454312123E+02 -0.35177978493E+03  0.36274911487E+03  0.80419002446E+02 0.  0.
          1    1    1    2  501    0  0.16486724421E+02  0.23151280836E+02 -0.50095235493E+02  0.57596236904E+02  0.00000000000E+00 0. -1.
         -2    1    1    2    0  503  0.18004851132E+02 -0.96969687124E+01 -0.80813464854E+02  0.83360793951E+02  0.00000000000E+00 0.  1.
<mgrwt>
<rscale>  2 0.68701865E+02</rscale>
<asrwt>0</asrwt>
<pdfrwt beam="1">  1       21 0.16167437E-02 0.68701865E+02</pdfrwt>
<pdfrwt beam="2">  1       21 0.75876482E-01 0.68701865E+02</pdfrwt>
<totfact> 0.26187526E+06</totfact>
</mgrwt>
</event>
<event>
 5    1  0.1959123E+000  0.1297205E+03  0.7546771E-02  0.1227871E+00
         21   -1    0    0  503  502  0.00000000000E+00  0.00000000000E+00  0.16972165176E+04  0.16972165176E+04  0.00000000000E+00 0. -1.
         21   -1    0    0  501  503 -0.00000000000E+00 -0.00000000000E+00 -0.27367536913E+02  0.27367536913E+02  0.00000000000E+00 0. -1.
         24    1    1    2    0    0  0.60235223957E+01  0.97149183178E+02  0.12141421706E+04  0.12206894253E+04  0.80419002446E+02 0. -1.
          1    1    1    2  501    0  0.31659981738E+02 -0.89222745039E+02  0.73769037550E+02  0.12002051315E+03  0.00000000000E+00 0. -1.
         -2    1    1    2    0  502 -0.37683504134E+02 -0.79264381394E+01  0.38193777253E+03  0.38387411607E+03  0.00000000000E+00 0.  1.
<mgrwt>
<rscale>  2 0.12972051E+03</rscale>
<asrwt>0</asrwt>
<pdfrwt beam="1">  1       21 0.26111015E+00 0.12972051E+03</pdfrwt>
<pdfrwt beam="2">  1       21 0.42103916E-02 0.12972051E+03</pdfrwt>
<totfact> 0.21947334E+04</totfact>
</mgrwt>
</event>
<event>
 5    1  0.1959123E+000  0.2368333E+03  0.7546771E-02  0.1121921E+00
         21   -1    0    0  503  502  0.00000000000E+00  0.00000000000E+00  0.25798150875E+03  0.25798150875E+03  0.00000000000E+00 0.  1.
         21   -1    0    0  501  503 -0.00000000000E+00 -0.00000000000E+00 -0.94065846952E+03  0.94065846952E+03  0.00000000000E+00 0.  1.
         24    1    1    2    0    0 -0.17200678540E+03 -0.14697199019E+03 -0.73211086733E+03  0.77048078376E+03  0.80419002446E+02 0.  1.
          1    1    1    2  501    0  0.34641296091E+02  0.33290438184E+01 -0.14559788863E+03  0.14969918871E+03  0.00000000000E+00 0. -1.
         -2    1    1    2    0  502  0.13736548930E+03  0.14364294637E+03  0.19503179520E+03  0.27846000580E+03  0.00000000000E+00 0.  1.
<mgrwt>
<rscale>  2 0.23683328E+03</rscale>
<asrwt>0</asrwt>
<pdfrwt beam="1">  1       21 0.39689463E-01 0.23683328E+03</pdfrwt>
<pdfrwt beam="2">  1       21 0.14471669E+00 0.23683328E+03</pdfrwt>
<totfact> 0.19323410E+03</totfact>
</mgrwt>
</event>
<event>
 5    1  0.1959123E+000  0.9695848E+02  0.7546771E-02  0.1286825E+00
         21   -1    0    0  503  502  0.00000000000E+00  0.00000000000E+00  0.77676559403E+02  0.77676559403E+02  0.00000000000E+00 0.  1.
         21   -1    0    0  501  503 -0.00000000000E+00 -0.00000000000E+00 -0.43796694146E+03  0.43796694146E+03  0.00000000000E+00 0. -1.
         24    1    1    2    0    0 -0.22467054621E+02  0.22574867128E+02 -0.15010353989E+03  0.17324168612E+03  0.80419002446E+02 0.  1.
          1    1    1    2  501    0 -0.32836714438E+01  0.39802155653E+02 -0.25711962314E+03  0.26020279532E+03  0.00000000000E+00 0. -1.
         -2    1    1    2    0  502  0.25750726065E+02 -0.62377022781E+02  0.46932780966E+02  0.82199019417E+02  0.00000000000E+00 0.  1.
<mgrwt>
<rscale>  2 0.96958475E+02</rscale>
<asrwt>0</asrwt>
<pdfrwt beam="1">  1       21 0.11950240E-01 0.96958475E+02</pdfrwt>
<pdfrwt beam="2">  1       21 0.67379530E-01 0.96958475E+02</pdfrwt>
<totfact> 0.12357646E+05</totfact>
</mgrwt>
</event>
<event>
 5    1  0.1959123E+000  0.6405029E+02  0.7546771E-02  0.1381580E+00
         21   -1    0    0  503  502  0.00000000000E+00  0.00000000000E+00  0.79146085701E+01  0.79146085701E+01  0.00000000000E+00 0. -1.
         21   -1    0    0  501  503 -0.00000000000E+00 -0.00000000000E+00 -0.86855046465E+03  0.86855046465E+03  0.00000000000E+00 0. -1.
         24    1    1    2    0    0  0.56310160692E+01  0.69961653243E+01 -0.23560578714E+03  0.24911434635E+03  0.80419002446E+02 0. -1.
          1    1    1    2  501    0  0.19918868277E+02  0.21713767333E+01 -0.42688186492E+03  0.42735184893E+03  0.00000000000E+00 0. -1.
         -2    1    1    2    0  502 -0.25549884346E+02 -0.91675420576E+01 -0.19814820402E+03  0.19999887793E+03  0.00000000000E+00 0.  1.
<mgrwt>
<rscale>  2 0.64050295E+02</rscale>
<asrwt>0</asrwt>
<pdfrwt beam="1">  1       21 0.12176313E-02 0.64050295E+02</pdfrwt>
<pdfrwt beam="2">  1       21 0.13362323E+00 0.64050295E+02</pdfrwt>
<totfact> 0.11132311E+06</totfact>
</mgrwt>
</event>
<event>
 5    1  0.1959123E+000  0.9084841E+02  0.7546771E-02  0.1300810E+00
         21   -1    0    0  501  502  0.00000000000E+00  0.00000000000E+00  0.97938874181E+01  0.97938874181E+01  0.00000000000E+00 0.  1.
         21   -1    0    0  502  503 -0.00000000000E+00 -0.00000000000E+00 -0.13577413030E+04  0.13577413030E+04  0.00000000000E+00 0. -1.
         24    1    1    2    0    0 -0.30870579951E+02 -0.41278777941E+02 -0.27510751787E+03  0.29121863361E+03  0.80419002446E+02 0.  0.
          1    1    1    2  501    0  0.49581386032E+02  0.11323970524E+02 -0.59124655402E+03  0.59342988953E+03  0.00000000000E+00 0. -1.
         -2    1    1    2    0  503 -0.18710806080E+02  0.29954807416E+02 -0.48159334370E+03  0.48288666729E+03  0.00000000000E+00 0.  1.
<mgrwt>
<rscale>  2 0.90848415E+02</rscale>
<asrwt>0</asrwt>
<pdfrwt beam="1">  1       21 0.15067505E-02 0.90848415E+02</pdfrwt>
<pdfrwt beam="2">  1       21 0.20888347E+00 0.90848415E+02</pdfrwt>
<totfact> 0.24334109E+05</totfact>
</mgrwt>
</event>
<event>
 5    1  0.1959123E+000  0.8416105E+02  0.7546771E-02  0.1317641E+00
         21   -1    0    0  503  502  0.00000000000E+00  0.00000000000E+00  0.33136364606E+03  0.33136364606E+03  0.00000000000E+00 0. -1.
         21   -1    0    0  501  503 -0.00000000000E+00 -0.00000000000E+00 -0.22508640203E+02  0.22508640203E+02  0.00000000000E+00 0. -1.
         24    1    1    2    0    0  0.32885048209E+02  0.50959267020E+02  0.21744400043E+03  0.23964011051E+03  0.80419002446E+02 0. -1.
          1    1    1    2  501    0 -0.31697593884E+01 -0.32416514104E+02  0.34825074734E+02  0.47682948645E+02  0.00000000000E+00 0. -1.
         -2    1    1    2    0  502 -0.29715288821E+02 -0.18542752916E+02  0.56585930699E+02  0.66549227106E+02  0.00000000000E+00 0.  1.
<mgrwt>
<rscale>  2 0.84161050E+02</rscale>
<asrwt>0</asrwt>
<pdfrwt beam="1">  1       21 0.50979019E-01 0.84161050E+02</pdfrwt>
<pdfrwt beam="2">  1       21 0.34628680E-02 0.84161050E+02</pdfrwt>
<totfact> 0.17976189E+06</totfact>
</mgrwt>
</event>
<event>
 5    1  0.1959123E+000  0.8433518E+02  0.7546771E-02  0.1317180E+00
         21   -1    0    0  503  502  0.00000000000E+00  0.00000000000E+00  0.53042787141E+03  0.53042787141E+03  0.00000000000E+00 0. -1.
         21   -1    0    0  501  503 -0.00000000000E+00 -0.00000000000E+00 -0.38701222157E+02  0.38701222157E+02  0.00000000000E+00 0. -1.
         24    1    1    2    0    0 -0.30334936205E+02  0.43596605992E+02  0.41749447872E+03  0.42847371930E+03  0.80419002446E+02 0. -1.
          1    1    1    2  501    0  0.35172310341E+02 -0.76110357778E+01 -0.18934320050E+02  0.40663592513E+02  0.00000000000E+00 0. -1.
         -2    1    1    2    0  502 -0.48373741365E+01 -0.35985570214E+02  0.93166490575E+02  0.99991781754E+02  0.00000000000E+00 0.  1.
<mgrwt>
<rscale>  2 0.84335176E+02</rscale>
<asrwt>0</asrwt>
<pdfrwt beam="1">  1       21 0.81604283E-01 0.84335176E+02</pdfrwt>
<pdfrwt beam="2">  1       21 0.59540345E-02 0.84335176E+02</pdfrwt>
<totfact> 0.27007301E+05</totfact>
</mgrwt>
</event>
<event>
 5    1  0.1959123E+000  0.9695411E+02  0.7546771E-02  0.1286835E+00
         21   -1    0    0  501  502  0.00000000000E+00  0.00000000000E+00  0.21692617106E+03  0.21692617106E+03  0.00000000000E+00 0. -1.
         21   -1    0    0  502  503 -0.00000000000E+00 -0.00000000000E+00 -0.57588466288E+03  0.57588466288E+03  0.00000000000E+00 0.  1.
         24    1    1    2    0    0 -0.13725996665E+02  0.84210477550E+01 -0.20082344752E+03  0.21692530986E+03  0.80419002446E+02 0. -1.
          1    1    1    2  501    0  0.62631019827E+02 -0.62037493892E+01  0.20244230584E+03  0.21200004327E+03  0.00000000000E+00 0. -1.
         -2    1    1    2    0  503 -0.48905023162E+02 -0.22172983659E+01 -0.36057735015E+03  0.36388548080E+03  0.00000000000E+00 0.  1.
<mgrwt>
<rscale>  2 0.96954112E+02</rscale>
<asrwt>0</asrwt>
<pdfrwt beam="1">  1       21 0.33373257E-01 0.96954112E+02</pdfrwt>
<pdfrwt beam="2">  1       21 0.88597640E-01 0.96954112E+02</pdfrwt>
<totfact> 0.10237742E+04</totfact>
</mgrwt>
</event>
<event>
 5    1  0.1959123E+000  0.8991724E+02  0.7546771E-02  0.1303052E+00
         21   -1    0    0  503  502  0.00000000000E+00  0.00000000000E+00  0.11509767259E+04  0.11509767259E+04  0.00000000000E+00 0.  1.
         21   -1    0    0  501  503 -0.00000000000E+00 -0.00000000000E+00 -0.12932304398E+02  0.12932304398E+02  0.00000000000E+00 0.  1.
         24    1    1    2    0    0  0.42553700508E+02  0.46446257800E+02  0.10016739110E+04  0.10068693620E+04  0.80419002446E+02 0.  1.
          1    1    1    2  501    0 -0.32082377572E+02 -0.21392111676E+01  0.61960314974E+02  0.69806416659E+02  0.00000000000E+00 0. -1.
         -2    1    1    2    0  502 -0.10471322936E+02 -0.44307046632E+02  0.74410195521E+02  0.87233251589E+02  0.00000000000E+00 0.  1.
<mgrwt>
<rscale>  2 0.89917242E+02</rscale>
<asrwt>0</asrwt>
<pdfrwt beam="1">  1       21 0.17707326E+00 0.89917242E+02</pdfrwt>
<pdfrwt beam="2">  1       21 0.19895862E-02 0.89917242E+02</pdfrwt>
<totfact> 0.24812819E+05</totfact>
</mgrwt>
</event>
<event>
 5    1  0.1959123E+000  0.7817546E+02  0.7546771E-02  0.1334310E+00
         21   -1    0    0  501  502  0.00000000000E+00  0.00000000000E+00  0.24657746826E+03  0.24657746826E+03  0.00000000000E+00 0. -1.
         21   -1    0    0  502  503 -0.00000000000E+00 -0.00000000000E+00 -0.57876593543E+02  0.57876593543E+02  0.00000000000E+00 0.  1.
         24    1    1    2    0    0 -0.17656834857E+02  0.75599023452E+01  0.11929776561E+03  0.14514850594E+03  0.80419002446E+02 0.  0.
          1    1    1    2  501    0 -0.13362339766E+02 -0.31676016346E+02  0.10238738216E+03  0.10800508396E+03  0.00000000000E+00 0. -1.
         -2    1    1    2    0  503  0.31019174623E+02  0.24116114001E+02 -0.32984273057E+02  0.51300471907E+02  0.00000000000E+00 0.  1.
<mgrwt>
<rscale>  2 0.78175458E+02</rscale>
<asrwt>0</asrwt>
<pdfrwt beam="1">  1       21 0.37934995E-01 0.78175458E+02</pdfrwt>
<pdfrwt beam="2">  1       21 0.89040914E-02 0.78175458E+02</pdfrwt>
<totfact> 0.66937003E+05</totfact>
</mgrwt>
</event>
<event>
 5    1  0.1959123E+000  0.6818453E+02  0.7546771E-02  0.1366378E+00
         21   -1    0    0  503  502  0.00000000000E+00  0.00000000000E+00  0.87745052435E+03  0.87745052435E+03  0.00000000000E+00 0.  1.
         21   -1    0    0  501  503 -0.00000000000E+00 -0.00000000000E+00 -0.12082877139E+02  0.12082877139E+02  0.00000000000E+00 0. -1.
         24    1    1    2    0    0 -0.24936790992E+01  0.37764283985E+02  0.19660739636E+03  0.21576386129E+03  0.80419002446E+02 0. -1.
          1    1    1    2  501    0  0.15619364095E+02 -0.21897747387E+02  0.75432552178E+02  0.80084616522E+02  0.00000000000E+00 0. -1.
         -2    1    1    2    0  502 -0.13125684996E+02 -0.15866536597E+02  0.59332769867E+03  0.59368492368E+03  0.00000000000E+00 0.  1.
<mgrwt>
<rscale>  2 0.68184533E+02</rscale>
<asrwt>0</asrwt>
<pdfrwt beam="1">  1       21 0.13499234E+00 0.68184533E+02</pdfrwt>
<pdfrwt beam="2">  1       21 0.18589049E-02 0.68184533E+02</pdfrwt>
<totfact> 0.55873721E+05</totfact>
</mgrwt>
</event>
<event>
 5    1  0.1959123E+000  0.6596732E+02  0.7546771E-02  0.1374369E+00
         21   -1    0    0  501  502  0.00000000000E+00  0.00000000000E+00  0.94190266593E+01  0.94190266593E+01  0.00000000000E+00 0. -1.
         21   -1    0    0  502  503 -0.00000000000E+00 -0.00000000000E+00 -0.96974131300E+03  0.96974131300E+03  0.00000000000E+00 0.  1.
         24    1    1    2    0    0 -0.48700914597E+01 -0.40294890150E+02 -0.30529100072E+03  0.31830363968E+03  0.80419002446E+02 0.  1.
          1    1    1    2  501    0  0.75166487284E+01  0.19631516816E+02 -0.37625738223E+02  0.43099798578E+02  0.00000000000E+00 0. -1.
         -2    1    1    2    0  503 -0.26465572687E+01  0.20663373334E+02 -0.61740554740E+03  0.61775690139E+03  0.00000000000E+00 0.  1.
<mgrwt>
<rscale>  2 0.65967322E+02</rscale>
<asrwt>0</asrwt>
<pdfrwt beam="1">  1       21 0.14490802E-02 0.65967322E+02</pdfrwt>
<pdfrwt beam="2">  1       21 0.14919106E+00 0.65967322E+02</pdfrwt>
<totfact> 0.64586243E+05</totfact>
</mgrwt>
</event>
<event>
 5    1  0.1959123E+000  0.1290899E+03  0.7546771E-02  0.1228812E+00
         21   -1    0    0  501  502  0.00000000000E+00  0.00000000000E+00  0.15299889827E+04  0.15299889827E+04  0.00000000000E+00 0.  1.
         21   -1    0    0  502  503 -0.00000000000E+00 -0.00000000000E+00 -0.12836221500E+02  0.12836221500E+02  0.00000000000E+00 0.  1.
         24    1    1    2    0    0  0.40632698159E+01 -0.10198905381E+03  0.97784003899E+03  0.98643633098E+03  0.80419002446E+02 0.  1.
          1    1    1    2  501    0 -0.36552593149E+02  0.23940288921E+02  0.28656277875E+03  0.28987489658E+03  0.00000000000E+00 0. -1.
         -2    1    1    2    0  503  0.32489323333E+02  0.78048764892E+02  0.25274994347E+03  0.26651397666E+03  0.00000000000E+00 0.  1.
<mgrwt>
<rscale>  2 0.12908992E+03</rscale>
<asrwt>0</asrwt>
<pdfrwt beam="1">  1       21 0.23538278E+00 0.12908992E+03</pdfrwt>
<pdfrwt beam="2">  1       21 0.19748045E-02 0.12908992E+03</pdfrwt>
<totfact> 0.10673185E+05</totfact>
</mgrwt>
</event>
<event>
 5    1  0.1959123E+000  0.6900026E+02  0.7546771E-02  0.1363526E+00
         21   -1    0    0  501  502  0.00000000000E+00  0.00000000000E+00  0.77223016968E+02  0.77223016968E+02  0.00000000000E+00 0. -1.
         21   -1    0    0  502  503 -0.00000000000E+00 -0.00000000000E+00 -0.83715920227E+02  0.83715920227E+02  0.00000000000E+00 0. -1.
         24    1    1    2    0    0  0.68207399449E+01 -0.23841894337E+01  0.33457992467E+02  0.87400572463E+02  0.80419002446E+02 0. -1.
          1    1    1    2  501    0  0.22031040836E+02  0.14057379484E+02 -0.47688919050E+01  0.26565372353E+02  0.00000000000E+00 0. -1.
         -2    1    1    2    0  503 -0.28851780780E+02 -0.11673190050E+02 -0.35182003821E+02  0.46972992378E+02  0.00000000000E+00 0.  1.
<mgrwt>
<rscale>  2 0.69000264E+02</rscale>
<asrwt>0</asrwt>
<pdfrwt beam="1">  1       21 0.11880464E-01 0.69000264E+02</pdfrwt>
<pdfrwt beam="2">  1       21 0.12879372E-01 0.69000264E+02</pdfrwt>
<totfact> 0.29631787E+06</totfact>
</mgrwt>
</event>
<event>
 5    1  0.1959123E+000  0.1190383E+03  0.7546771E-02  0.1244692E+00
         21   -1    0    0  503  502  0.00000000000E+00  0.00000000000E+00  0.21939285495E+04  0.21939285495E+04  0.00000000000E+00 0.  1.
         21   -1    0    0  501  503 -0.00000000000E+00 -0.00000000000E+00 -0.49816409781E+02  0.49816409781E+02  0.00000000000E+00 0.  1.
         24    1    1    2    0    0  0.68607265087E+02 -0.16205183981E+02  0.20708115409E+04  0.20735711270E+04  0.80419002446E+02 0.  1.
          1    1    1    2  501    0 -0.91429860109E+02  0.38521627366E+02  0.10552216110E+02  0.99773164525E+02  0.00000000000E+00 0. -1.
         -2    1    1    2    0  502  0.22822595022E+02 -0.22316443386E+02  0.62748382697E+02  0.70400667752E+02  0.00000000000E+00 0.  1.
<mgrwt>
<rscale>  2 0.11903830E+03</rscale>
<asrwt>0</asrwt>
<pdfrwt beam="1">  1       21 0.33752739E+00 0.11903830E+03</pdfrwt>
<pdfrwt beam="2">  1       21 0.76640647E-02 0.11903830E+03</pdfrwt>
<totfact> 0.30148972E+03</totfact>
</mgrwt>
</event>
<event>
 5    1  0.1959123E+000  0.9324718E+02  0.7546771E-02  0.1295173E+00
         21   -1    0    0  501  502  0.00000000000E+00  0.00000000000E+00  0.52969359966E+03  0.52969359966E+03  0.00000000000E+00 0. -1.
         21   -1    0    0  502  503 -0.00000000000E+00 -0.00000000000E+00 -0.20884432171E+02  0.20884432171E+02  0.00000000000E+00 0. -1.
         24    1    1    2    0    0 -0.62350888399E+02 -0.30054673808E+02  0.18570933731E+03  0.21388335751E+03  0.80419002446E+02 0. -1.
          1    1    1    2  501    0  0.56553501716E+02  0.74360961596E+01  0.29351206707E+03  0.29900322340E+03  0.00000000000E+00 0. -1.
         -2    1    1    2    0  503  0.57973866833E+01  0.22618577649E+02  0.29587763108E+02  0.37691450926E+02  0.00000000000E+00 0.  1.
<mgrwt>
<rscale>  2 0.93247180E+02</rscale>
<asrwt>0</asrwt>
<pdfrwt beam="1">  1       21 0.81491313E-01 0.93247180E+02</pdfrwt>
<pdfrwt beam="2">  1       21 0.32129900E-02 0.93247180E+02</pdfrwt>
<totfact> 0.75037681E+05</totfact>
</mgrwt>
</event>
<event>
 5    1  0.1959123E+000  0.7748140E+02  0.7546771E-02  0.1336355E+00
         21   -1    0    0  503  502  0.00000000000E+00  0.00000000000E+00  0.32799441214E+02  0.32799441214E+02  0.00000000000E+00 0. -1.
         21   -1    0    0  501  503 -0.00000000000E+00 -0.00000000000E+00 -0.30929046657E+03  0.30929046657E+03  0.00000000000E+00 0. -1.
         24    1    1    2    0    0  0.81762447158E+01  0.55435511727E+02 -0.10861642991E+03  0.14630342354E+03  0.80419002446E+02 0. -1.
          1    1    1    2  501    0  0.28288155085E+00 -0.32495007068E+02 -0.16822361342E+03  0.17133356244E+03  0.00000000000E+00 0. -1.
         -2    1    1    2    0  502 -0.84591262666E+01 -0.22940504660E+02  0.34901797680E+00  0.24452921805E+02  0.00000000000E+00 0.  1.
<mgrwt>
<rscale>  2 0.77481403E+02</rscale>
<asrwt>0</asrwt>
<pdfrwt beam="1">  1       21 0.50460680E-02 0.77481403E+02</pdfrwt>
<pdfrwt beam="2">  1       21 0.47583148E-01 0.77481403E+02</pdfrwt>
<totfact> 0.11103547E+06</totfact>
</mgrwt>
</event>
<event>
 5    1  0.1959123E+000  0.1207695E+03  0.7546771E-02  0.1241833E+00
         21   -1    0    0  503  502  0.00000000000E+00  0.00000000000E+00  0.29491595745E+03  0.29491595745E+03  0.00000000000E+00 0.  1.
         21   -1    0    0  501  503 -0.00000000000E+00 -0.00000000000E+00 -0.16877353317E+03  0.16877353317E+03  0.00000000000E+00 0. -1.
         24    1    1    2    0    0  0.67348984876E+02  0.16539038287E+02  0.12794888901E+02  0.10695957502E+03  0.80419002446E+02 0.  1.
          1    1    1    2  501    0  0.31954758152E+02  0.82374236989E+01 -0.10796594388E+03  0.11289644261E+03  0.00000000000E+00 0. -1.
         -2    1    1    2    0  502 -0.99303743028E+02 -0.24776461986E+02  0.22131347926E+03  0.24383347299E+03  0.00000000000E+00 0.  1.
<mgrwt>
<rscale>  2 0.12076946E+03</rscale>
<asrwt>0</asrwt>
<pdfrwt beam="1">  1       21 0.45371686E-01 0.12076946E+03</pdfrwt>
<pdfrwt beam="2">  1       21 0.25965159E-01 0.12076946E+03</pdfrwt>
<totfact> 0.67829684E+04</totfact>
</mgrwt>
</event>
<event>
 5    1  0.1959123E+000  0.8109756E+02  0.7546771E-02  0.1325965E+00
         21   -1    0    0  501  502  0.00000000000E+00  0.00000000000E+00  0.36681731558E+03  0.36681731558E+03  0.00000000000E+00 0.  1.
         21   -1    0    0  502  503 -0.00000000000E+00 -0.00000000000E+00 -0.78852723229E+02  0.78852723229E+02  0.00000000000E+00 0.  1.
         24    1    1    2    0    0  0.44367989753E+01 -0.10494707528E+02  0.14405692993E+03  0.16537665823E+03  0.80419002446E+02 0.  1.
          1    1    1    2  501    0  0.33370875571E+02 -0.13713903453E+02  0.20294409399E+03  0.20612615499E+03  0.00000000000E+00 0. -1.
         -2    1    1    2    0  503 -0.37807674546E+02  0.24208610981E+02 -0.59036431568E+02  0.74167225595E+02  0.00000000000E+00 0.  1.
<mgrwt>
<rscale>  2 0.81097561E+02</rscale>
<asrwt>0</asrwt>
<pdfrwt beam="1">  1       21 0.56433432E-01 0.81097561E+02</pdfrwt>
<pdfrwt beam="2">  1       21 0.12131188E-01 0.81097561E+02</pdfrwt>
<totfact> 0.17612523E+05</totfact>
</mgrwt>
</event>
<event>
 5    1  0.1959123E+000  0.1331273E+03  0.7546771E-02  0.1222888E+00
         21   -1    0    0  503  502  0.00000000000E+00  0.00000000000E+00  0.28592073943E+04  0.28592073943E+04  0.00000000000E+00 0.  1.
         21   -1    0    0  501  503 -0.00000000000E+00 -0.00000000000E+00 -0.10212397289E+02  0.10212397289E+02  0.00000000000E+00 0.  1.
         24    1    1    2    0    0  0.83367089427E+02  0.84151319477E+02  0.14540179870E+04  0.14610499782E+04  0.80419002446E+02 0.  1.
          1    1    1    2  501    0 -0.34973579403E+01 -0.20923186174E+02  0.18554733449E+02  0.28183139740E+02  0.00000000000E+00 0. -1.
         -2    1    1    2    0  502 -0.79869731487E+02 -0.63228133303E+02  0.13764222765E+04  0.13801866737E+04  0.00000000000E+00 0.  1.
<mgrwt>
<rscale>  2 0.13312733E+03</rscale>
<asrwt>0</asrwt>
<pdfrwt beam="1">  1       21 0.43987742E+00 0.13312733E+03</pdfrwt>
<pdfrwt beam="2">  1       21 0.15711403E-02 0.13312733E+03</pdfrwt>
<totfact> 0.96955831E+03</totfact>
</mgrwt>
</event>
<event>
 5    1  0.1959123E+000  0.6782780E+02  0.7546771E-02  0.1367639E+00
         21   -1    0    0  501  502  0.00000000000E+00  0.00000000000E+00  0.82631336493E+02  0.82631336493E+02  0.00000000000E+00 0.  1.
         21   -1    0    0  502  503 -0.00000000000E+00 -0.00000000000E+00 -0.19405895594E+03  0.19405895594E+03  0.00000000000E+00 0.  1.
         24    1    1    2    0    0  0.13582845038E+02 -0.30044071903E+02 -0.17552900274E+03  0.19586931024E+03  0.80419002446E+02 0.  1.
          1    1    1    2  501    0 -0.23751281587E+02  0.90577453160E+01  0.27753123118E+02  0.37635116183E+02  0.00000000000E+00 0. -1.
         -2    1    1    2    0  503  0.10168436549E+02  0.20986326587E+02  0.36348260174E+02  0.43185866012E+02  0.00000000000E+00 0.  1.
<mgrwt>
<rscale>  2 0.67827804E+02</rscale>
<asrwt>0</asrwt>
<pdfrwt beam="1">  1       21 0.12712514E-01 0.67827804E+02</pdfrwt>
<pdfrwt beam="2">  1       21 0.29855224E-01 0.67827804E+02</pdfrwt>
<totfact> 0.57213687E+05</totfact>
</mgrwt>
</event>
<event>
 5    1  0.1959123E+000  0.1036676E+03  0.7546771E-02  0.1272767E+00
         21   -1    0    0  503  502  0.00000000000E+00  0.00000000000E+00  0.55888619029E+03  0.55888619029E+03  0.00000000000E+00 0.  1.
         21   -1    0    0  501  503 -0.00000000000E+00 -0.00000000000E+00 -0.23163202890E+02  0.23163202890E+02  0.00000000000E+00 0.  1.
         24    1    1    2    0    0 -0.71956408352E+02 -0.42043637679E+02  0.17828322232E+03  0.21259707309E+03  0.80419002446E+02 0.  1.
          1    1    1    2  501    0  0.25509315205E+02 -0.43460194619E+01  0.70495157932E+02  0.75094476090E+02  0.00000000000E+00 0. -1.
         -2    1    1    2    0  502  0.46447093147E+02  0.46389657141E+02  0.28694460715E+03  0.29435784399E+03  0.00000000000E+00 0.  1.
<mgrwt>
<rscale>  2 0.10366760E+03</rscale>
<asrwt>0</asrwt>
<pdfrwt beam="1">  1       21 0.85982481E-01 0.10366760E+03</pdfrwt>
<pdfrwt beam="2">  1       21 0.35635701E-02 0.10366760E+03</pdfrwt>
<totfact> 0.56159011E+05</totfact>
</mgrwt>
</event>
<event>
 5    1  0.1959123E+000  0.8419253E+02  0.7546771E-02  0.1317558E+00
         21   -1    0    0  503  502  0.00000000000E+00  0.00000000000E+00  0.11024333037E+02  0.11024333037E+02  0.00000000000E+00 0. -1.
         21   -1    0    0  501  503 -0.00000000000E+00 -0.00000000000E+00 -0.67304333678E+03  0.67304333678E+03  0.00000000000E+00 0.  1.
         24    1    1    2    0    0 -0.19918950440E+02  0.22359359521E+02 -0.40245180812E+03  0.41149894211E+03  0.80419002446E+02 0.  1.
          1    1    1    2  501    0  0.49611184849E+02 -0.16688311081E+02 -0.17987000411E+03  0.18733122475E+03  0.00000000000E+00 0. -1.
         -2    1    1    2    0  502 -0.29692234409E+02 -0.56710484404E+01 -0.79697191516E+02  0.85237502956E+02  0.00000000000E+00 0.  1.
<mgrwt>
<rscale>  2 0.84192527E+02</rscale>
<asrwt>0</asrwt>
<pdfrwt beam="1">  1       21 0.16960512E-02 0.84192527E+02</pdfrwt>
<pdfrwt beam="2">  1       21 0.10354513E+00 0.84192527E+02</pdfrwt>
<totfact> 0.12165389E+06</totfact>
</mgrwt>
</event>
<event>
 5    1  0.1959123E+000  0.6745998E+02  0.7546771E-02  0.1368950E+00
         21   -1    0    0  501  502  0.00000000000E+00  0.00000000000E+00  0.11802985504E+03  0.11802985504E+03  0.00000000000E+00 0. -1.
         21   -1    0    0  502  503 -0.00000000000E+00 -0.00000000000E+00 -0.11981787607E+03  0.11981787607E+03  0.00000000000E+00 0.  1.
         24    1    1    2    0    0  0.10395822279E+02 -0.87087288890E+01  0.32875350901E+02  0.87931335319E+02  0.80419002446E+02 0.  1.
          1    1    1    2  501    0  0.48451007738E+01 -0.20152760048E+02  0.52713828869E+02  0.56642355999E+02  0.00000000000E+00 0. -1.
         -2    1    1    2    0  503 -0.15240923053E+02  0.28861488937E+02 -0.87377200804E+02  0.93274039794E+02  0.00000000000E+00 0.  1.
<mgrwt>
<rscale>  2 0.67459983E+02</rscale>
<asrwt>0</asrwt>
<pdfrwt beam="1">  1       21 0.18158439E-01 0.67459983E+02</pdfrwt>
<pdfrwt beam="2">  1       21 0.18433519E-01 0.67459983E+02</pdfrwt>
<totfact> 0.74000090E+05</totfact>
</mgrwt>
</event>
<event>
 5    1  0.1959123E+000  0.1997862E+03  0.7546771E-02  0.1149920E+00
         21   -1    0    0  501  502  0.00000000000E+00  0.00000000000E+00  0.14521907729E+03  0.14521907729E+03  0.00000000000E+00 0.  1.
         21   -1    0    0  502  503 -0.00000000000E+00 -0.00000000000E+00 -0.11621102729E+04  0.11621102729E+04  0.00000000000E+00 0.  1.
         24    1    1    2    0    0 -0.28379860528E+02 -0.11721289103E+03  0.22853379489E+02  0.14674389669E+03  0.80419002446E+02 0.  1.
          1    1    1    2  501    0  0.60391114153E+02 -0.53652006922E+02  0.22781848299E+02  0.83932336601E+02  0.00000000000E+00 0. -1.
         -2    1    1    2    0  503 -0.32011253625E+02  0.17086489795E+03 -0.10625264234E+04  0.10766531169E+04  0.00000000000E+00 0.  1.
<mgrwt>
<rscale>  2 0.19978621E+03</rscale>
<asrwt>0</asrwt>
<pdfrwt beam="1">  1       21 0.22341397E-01 0.19978621E+03</pdfrwt>
<pdfrwt beam="2">  1       21 0.17878619E+00 0.19978621E+03</pdfrwt>
<totfact> 0.34545226E+03</totfact>
</mgrwt>
</event>
<event>
 5    1  0.1959123E+000  0.9637075E+02  0.7546771E-02  0.1288118E+00
         21   -1    0    0  503  502  0.00000000000E+00  0.00000000000E+00  0.59948617364E+03  0.59948617364E+03  0.00000000000E+00 0.  1.
         21   -1    0    0  501  503 -0.00000000000E+00 -0.00000000000E+00 -0.23099424055E+02  0.23099424055E+02  0.00000000000E+00 0.  1.
         24    1    1    2    0    0 -0.69992591967E+02 -0.33521772247E+02  0.14860592098E+03  0.18593979630E+03  0.80419002446E+02 0.  1.
          1    1    1    2  501    0  0.23452233036E+02 -0.29550077215E+00  0.60508192893E+02  0.64894806897E+02  0.00000000000E+00 0. -1.
         -2    1    1    2    0  502  0.46540358931E+02  0.33817273019E+02  0.36727263571E+03  0.37175099449E+03  0.00000000000E+00 0.  1.
<mgrwt>
<rscale>  2 0.96370749E+02</rscale>
<asrwt>0</asrwt>
<pdfrwt beam="1">  1       21 0.92228630E-01 0.96370749E+02</pdfrwt>
<pdfrwt beam="2">  1       21 0.35537580E-02 0.96370749E+02</pdfrwt>
<totfact> 0.48170120E+05</totfact>
</mgrwt>
</event>
<event>
 5    1  0.1959123E+000  0.1250291E+03  0.7546771E-02  0.1235024E+00
         21   -1    0    0  501  502  0.00000000000E+00  0.00000000000E+00  0.27784651524E+02  0.27784651524E+02  0.00000000000E+00 0.  1.
         21   -1    0    0  502  503 -0.00000000000E+00 -0.00000000000E+00 -0.89831129226E+03  0.89831129226E+03  0.00000000000E+00 0.  1.
         24    1    1    2    0    0 -0.14915057019E+02  0.10581521319E+03 -0.21367615815E+03  0.25207942158E+03  0.80419002446E+02 0.  1.
          1    1    1    2  501    0 -0.90787122076E+01 -0.82035696315E+02 -0.20625110744E+03  0.22215264529E+03  0.00000000000E+00 0. -1.
         -2    1    1    2    0  503  0.23993769227E+02 -0.23779516878E+02 -0.45059937514E+03  0.45186387692E+03  0.00000000000E+00 0.  1.
<mgrwt>
<rscale>  2 0.12502912E+03</rscale>
<asrwt>0</asrwt>
<pdfrwt beam="1">  1       21 0.42745616E-02 0.12502912E+03</pdfrwt>
<pdfrwt beam="2">  1       21 0.13820174E+00 0.12502912E+03</pdfrwt>
<totfact> 0.13358551E+05</totfact>
</mgrwt>
</event>
<event>
 5    1  0.1959123E+000  0.6374168E+02  0.7546771E-02  0.1382768E+00
         21   -1    0    0  501  502  0.00000000000E+00  0.00000000000E+00  0.40494645989E+01  0.40494645989E+01  0.00000000000E+00 0.  1.
         21   -1    0    0  502  503 -0.00000000000E+00 -0.00000000000E+00 -0.20665922023E+04  0.20665922023E+04  0.00000000000E+00 0.  1.
         24    1    1    2    0    0  0.13714401498E+01 -0.13400589334E+01 -0.45410927456E+03  0.46117906046E+03  0.80419002446E+02 0.  1.
          1    1    1    2  501    0  0.18426036437E+02  0.14347584142E+02 -0.33686316713E+03  0.33767168279E+03  0.00000000000E+00 0. -1.
         -2    1    1    2    0  503 -0.19797476587E+02 -0.13007525209E+02 -0.12715702960E+04  0.12717909236E+04  0.00000000000E+00 0.  1.
<mgrwt>
<rscale>  2 0.63741682E+02</rscale>
<asrwt>0</asrwt>
<pdfrwt beam="1">  1       21 0.62299347E-03 0.63741682E+02</pdfrwt>
<pdfrwt beam="2">  1       21 0.31793782E+00 0.63741682E+02</pdfrwt>
<totfact> 0.24738222E+05</totfact>
</mgrwt>
</event>
<event>
 5    1  0.1959123E+000  0.1141465E+03  0.7546771E-02  0.1253078E+00
         21   -1    0    0  501  502  0.00000000000E+00  0.00000000000E+00  0.55727860010E+03  0.55727860010E+03  0.00000000000E+00 0.  1.
         21   -1    0    0  502  503 -0.00000000000E+00 -0.00000000000E+00 -0.32947103535E+02  0.32947103535E+02  0.00000000000E+00 0. -1.
         24    1    1    2    0    0  0.43584631157E+02  0.17190226114E+02  0.14782879167E+03  0.17468741096E+03  0.80419002446E+02 0.  1.
          1    1    1    2  501    0 -0.75354465255E+02 -0.49301794848E+02  0.35361198657E+03  0.36489779316E+03  0.00000000000E+00 0. -1.
         -2    1    1    2    0  503  0.31769834098E+02  0.32111568734E+02  0.22890718320E+02  0.50640499507E+02  0.00000000000E+00 0.  1.
<mgrwt>
<rscale>  2 0.11414654E+03</rscale>
<asrwt>0</asrwt>
<pdfrwt beam="1">  1       21 0.85735162E-01 0.11414654E+03</pdfrwt>
<pdfrwt beam="2">  1       21 0.50687856E-02 0.11414654E+03</pdfrwt>
<totfact> 0.31452053E+05</totfact>
</mgrwt>
</event>
<event>
 5    1  0.3518174E+000  0.8136613E+02  0.7546771E-02  0.1325219E+00
         21   -1    0    0  501  502  0.00000000000E+00  0.00000000000E+00  0.20840365126E+03  0.20840365126E+03  0.00000000000E+00 0.  1.
         21   -1    0    0  502  503 -0.00000000000E+00 -0.00000000000E+00 -0.27710890341E+03  0.27710890341E+03  0.00000000000E+00 0.  1.
         24    1    1    2    0    0 -0.51237624373E+02  0.21786257929E+02  0.15871402892E+03  0.18643308214E+03  0.80419002446E+02 0.  1.
          1    1    1    2  501    0  0.31597771673E+02  0.47017039724E+01  0.27429742925E+02  0.42106008976E+02  0.00000000000E+00 0. -1.
         -2    1    1    2    0  503  0.19639852700E+02 -0.26487961902E+02 -0.25484902400E+03  0.25697346356E+03  0.00000000000E+00 0.  1.
<mgrwt>
<rscale>  2 0.81366126E+02</rscale>
<asrwt>0</asrwt>
<pdfrwt beam="1">  1       21 0.32062100E-01 0.81366126E+02</pdfrwt>
<pdfrwt beam="2">  1       21 0.42632139E-01 0.81366126E+02</pdfrwt>
<totfact> 0.52733412E+04</totfact>
</mgrwt>
</event>
<event>
 5    1  0.1959123E+000  0.7446658E+02  0.7546771E-02  0.1345531E+00
         21   -1    0    0  503  502  0.00000000000E+00  0.00000000000E+00  0.27790209066E+03  0.27790209066E+03  0.00000000000E+00 0.  1.
         21   -1    0    0  501  503 -0.00000000000E+00 -0.00000000000E+00 -0.56120237650E+02  0.56120237650E+02  0.00000000000E+00 0.  1.
         24    1    1    2    0    0  0.60612879221E+01  0.32921878105E+01  0.77608352826E+01  0.81086523113E+02  0.80419002446E+02 0.  1.
          1    1    1    2  501    0 -0.34101618274E+02 -0.15716839798E+02  0.83860425124E+00  0.37558523390E+02  0.00000000000E+00 0. -1.
         -2    1    1    2    0  502  0.28040330352E+02  0.12424651988E+02  0.21318241348E+03  0.21537728181E+03  0.00000000000E+00 0.  1.
<mgrwt>
<rscale>  2 0.74466579E+02</rscale>
<asrwt>0</asrwt>
<pdfrwt beam="1">  1       21 0.42754167E-01 0.74466579E+02</pdfrwt>
<pdfrwt beam="2">  1       21 0.86338829E-02 0.74466579E+02</pdfrwt>
<totfact> 0.55720139E+05</totfact>
</mgrwt>
</event>
<event>
 5    1  0.1959123E+000  0.6584368E+02  0.7546771E-02  0.1374826E+00
         21   -1    0    0  501  502  0.00000000000E+00  0.00000000000E+00  0.45851314979E+02  0.45851314979E+02  0.00000000000E+00 0. -1.
         21   -1    0    0  502  503 -0.00000000000E+00 -0.00000000000E+00 -0.52117833175E+03  0.52117833175E+03  0.00000000000E+00 0. -1.
         24    1    1    2    0    0 -0.17663903772E+02  0.10355911560E+02 -0.27107389641E+03  0.28349167831E+03  0.80419002446E+02 0. -1.
          1    1    1    2  501    0 -0.10064123052E+02 -0.17393589735E+02  0.36192198438E+02  0.41396844862E+02  0.00000000000E+00 0. -1.
         -2    1    1    2    0  503  0.27728026825E+02  0.70376781756E+01 -0.24044531880E+03  0.24214112356E+03  0.00000000000E+00 0.  1.
<mgrwt>
<rscale>  2 0.65843677E+02</rscale>
<asrwt>0</asrwt>
<pdfrwt beam="1">  1       21 0.70540485E-02 0.65843677E+02</pdfrwt>
<pdfrwt beam="2">  1       21 0.80181281E-01 0.65843677E+02</pdfrwt>
<totfact> 0.21233599E+05</totfact>
</mgrwt>
</event>
<event>
 5    1  0.1959123E+000  0.6902046E+02  0.7546771E-02  0.1363456E+00
         21   -1    0    0  503  502  0.00000000000E+00  0.00000000000E+00  0.42713172880E+03  0.42713172880E+03  0.00000000000E+00 0. -1.
         21   -1    0    0  501  503 -0.00000000000E+00 -0.00000000000E+00 -0.14256906830E+02  0.14256906830E+02  0.00000000000E+00 0. -1.
         24    1    1    2    0    0  0.72746459358E+01 -0.22531689164E+01  0.30104778615E+03  0.31169694054E+03  0.80419002446E+02 0. -1.
          1    1    1    2  501    0 -0.30175072500E+01  0.29515533709E+02  0.25699734583E+02  0.39252368562E+02  0.00000000000E+00 0. -1.
         -2    1    1    2    0  502 -0.42571386858E+01 -0.27262364792E+02  0.86127301237E+02  0.90439326525E+02  0.00000000000E+00 0.  1.
<mgrwt>
<rscale>  2 0.69020460E+02</rscale>
<asrwt>0</asrwt>
<pdfrwt beam="1">  1       21 0.65712564E-01 0.69020460E+02</pdfrwt>
<pdfrwt beam="2">  1       21 0.21933706E-02 0.69020460E+02</pdfrwt>
<totfact> 0.21977176E+06</totfact>
</mgrwt>
</event>
<event>
 5    1  0.1959123E+000  0.7184580E+02  0.7546771E-02  0.1353926E+00
         21   -1    0    0  501  502  0.00000000000E+00  0.00000000000E+00  0.27469064658E+03  0.27469064658E+03  0.00000000000E+00 0.  1.
         21   -1    0    0  502  503 -0.00000000000E+00 -0.00000000000E+00 -0.48731903175E+02  0.48731903175E+02  0.00000000000E+00 0.  1.
         24    1    1    2    0    0 -0.39621449010E+02  0.25019427762E+02  0.15594541082E+03  0.18160952094E+03  0.80419002446E+02 0.  1.
          1    1    1    2  501    0  0.27740333890E+02 -0.63034785675E+01  0.10031345560E+03  0.10426911979E+03  0.00000000000E+00 0. -1.
         -2    1    1    2    0  503  0.11881115120E+02 -0.18715949195E+02 -0.30300123011E+02  0.37543909030E+02  0.00000000000E+00 0.  1.
<mgrwt>
<rscale>  2 0.71845802E+02</rscale>
<asrwt>0</asrwt>
<pdfrwt beam="1">  1       21 0.42260099E-01 0.71845802E+02</pdfrwt>
<pdfrwt beam="2">  1       21 0.74972160E-02 0.71845802E+02</pdfrwt>
<totfact> 0.72432844E+05</totfact>
</mgrwt>
</event>
<event>
 5    1  0.1959123E+000  0.1347360E+03  0.7546771E-02  0.1220593E+00
         21   -1    0    0  501  502  0.00000000000E+00  0.00000000000E+00  0.66007432633E+02  0.66007432633E+02  0.00000000000E+00 0. -1.
         21   -1    0    0  502  503 -0.00000000000E+00 -0.00000000000E+00 -0.49887656670E+03  0.49887656670E+03  0.00000000000E+00 0.  1.
         24    1    1    2    0    0  0.85752566538E+01  0.56294457364E+02 -0.10183864585E+03  0.14170718648E+03  0.80419002446E+02 0. -1.
          1    1    1    2  501    0 -0.83736978898E+02 -0.44579826461E+02 -0.12494321122E+02  0.95683596413E+02  0.00000000000E+00 0. -1.
         -2    1    1    2    0  503  0.75161722244E+02 -0.11714630904E+02 -0.31853616709E+03  0.32749321644E+03  0.00000000000E+00 0.  1.
<mgrwt>
<rscale>  2 0.13473595E+03</rscale>
<asrwt>0</asrwt>
<pdfrwt beam="1">  1       21 0.10154990E-01 0.13473595E+03</pdfrwt>
<pdfrwt beam="2">  1       21 0.76750239E-01 0.13473595E+03</pdfrwt>
<totfact> 0.12183392E+05</totfact>
</mgrwt>
</event>
<event>
 5    1  0.1959123E+000  0.7143803E+02  0.7546771E-02  0.1355270E+00
         21   -1    0    0  503  502  0.00000000000E+00  0.00000000000E+00  0.30240103907E+02  0.30240103907E+02  0.00000000000E+00 0. -1.
         21   -1    0    0  501  503 -0.00000000000E+00 -0.00000000000E+00 -0.37406527031E+03  0.37406527031E+03  0.00000000000E+00 0. -1.
         24    1    1    2    0    0  0.20269737021E+02  0.43639687402E+02 -0.52399736287E+02  0.10736960870E+03  0.80419002446E+02 0. -1.
          1    1    1    2  501    0 -0.16095766835E+02 -0.22809454788E+02 -0.23484541892E+03  0.23649887045E+03  0.00000000000E+00 0. -1.
         -2    1    1    2    0  502 -0.41739701864E+01 -0.20830232614E+02 -0.56580011197E+02  0.60436895064E+02  0.00000000000E+00 0.  1.
<mgrwt>
<rscale>  2 0.71438027E+02</rscale>
<asrwt>0</asrwt>
<pdfrwt beam="1">  1       21 0.46523237E-02 0.71438027E+02</pdfrwt>
<pdfrwt beam="2">  1       21 0.57548503E-01 0.71438027E+02</pdfrwt>
<totfact> 0.85940721E+05</totfact>
</mgrwt>
</event>
<event>
 5    1  0.1959123E+000  0.6124962E+02  0.7546771E-02  0.1392661E+00
         21   -1    0    0  503  502  0.00000000000E+00  0.00000000000E+00  0.15555509470E+03  0.15555509470E+03  0.00000000000E+00 0.  1.
         21   -1    0    0  501  503 -0.00000000000E+00 -0.00000000000E+00 -0.71144160998E+02  0.71144160998E+02  0.00000000000E+00 0.  1.
         24    1    1    2    0    0  0.10699470439E+02  0.45436993329E+00 -0.39753392523E+02  0.90345078954E+02  0.80419002446E+02 0.  1.
          1    1    1    2  501    0 -0.55271048837E+01  0.19752883545E+02  0.15509113109E+02  0.25714935080E+02  0.00000000000E+00 0. -1.
         -2    1    1    2    0  502 -0.51723655549E+01 -0.20207253479E+02  0.10865521311E+03  0.11063924166E+03  0.00000000000E+00 0.  1.
<mgrwt>
<rscale>  2 0.61249616E+02</rscale>
<asrwt>0</asrwt>
<pdfrwt beam="1">  1       21 0.23931553E-01 0.61249616E+02</pdfrwt>
<pdfrwt beam="2">  1       21 0.10945256E-01 0.61249616E+02</pdfrwt>
<totfact> 0.11180235E+06</totfact>
</mgrwt>
</event>
<event>
 5    1  0.1959123E+000  0.9062334E+02  0.7546771E-02  0.1301349E+00
         21   -1    0    0  501  502  0.00000000000E+00  0.00000000000E+00  0.43694923322E+02  0.43694923322E+02  0.00000000000E+00 0.  1.
         21   -1    0    0  502  503 -0.00000000000E+00 -0.00000000000E+00 -0.24368861373E+03  0.24368861373E+03  0.00000000000E+00 0. -1.
         24    1    1    2    0    0 -0.21022069685E+02 -0.30247748366E+01 -0.53842508936E+02  0.99082331420E+02  0.80419002446E+02 0.  1.
          1    1    1    2  501    0 -0.38427012275E+02 -0.14392458795E+01 -0.10095060511E+02  0.39756973574E+02  0.00000000000E+00 0. -1.
         -2    1    1    2    0  503  0.59449081960E+02  0.44640207160E+01 -0.13605612096E+03  0.14854423206E+03  0.00000000000E+00 0.  1.
<mgrwt>
<rscale>  2 0.90623339E+02</rscale>
<asrwt>0</asrwt>
<pdfrwt beam="1">  1       21 0.67222959E-02 0.90623339E+02</pdfrwt>
<pdfrwt beam="2">  1       21 0.37490556E-01 0.90623339E+02</pdfrwt>
<totfact> 0.11077600E+06</totfact>
</mgrwt>
</event>
<event>
 5    1  0.1959123E+000  0.9459750E+02  0.7546771E-02  0.1292085E+00
         21   -1    0    0  501  502  0.00000000000E+00  0.00000000000E+00  0.62503343071E+01  0.62503343071E+01  0.00000000000E+00 0. -1.
         21   -1    0    0  502  503 -0.00000000000E+00 -0.00000000000E+00 -0.23484787165E+04  0.23484787165E+04  0.00000000000E+00 0. -1.
         24    1    1    2    0    0 -0.72965143162E+02  0.25794211252E+02 -0.18737594395E+04  0.18770804209E+04  0.80419002446E+02 0. -1.
          1    1    1    2  501    0  0.52326299276E+02 -0.21101254084E+02 -0.18553367808E+03  0.19392279448E+03  0.00000000000E+00 0. -1.
         -2    1    1    2    0  503  0.20638843886E+02 -0.46929571680E+01 -0.28293526462E+03  0.28372583543E+03  0.00000000000E+00 0.  1.
<mgrwt>
<rscale>  2 0.94597504E+02</rscale>
<asrwt>0</asrwt>
<pdfrwt beam="1">  1       21 0.96159054E-03 0.94597504E+02</pdfrwt>
<pdfrwt beam="2">  1       21 0.36130417E+00 0.94597504E+02</pdfrwt>
<totfact> 0.68336253E+04</totfact>
</mgrwt>
</event>
<event>
 5    1  0.1959123E+000  0.9352440E+02  0.7546771E-02  0.1294535E+00
         21   -1    0    0  503  502  0.00000000000E+00  0.00000000000E+00  0.41700113886E+02  0.41700113886E+02  0.00000000000E+00 0. -1.
         21   -1    0    0  501  503 -0.00000000000E+00 -0.00000000000E+00 -0.29400221712E+03  0.29400221712E+03  0.00000000000E+00 0. -1.
         24    1    1    2    0    0  0.49379250666E+02 -0.25979817322E+02 -0.17795704317E+03  0.20309895734E+03  0.80419002446E+02 0. -1.
          1    1    1    2  501    0 -0.28171882381E+02  0.49836988901E+02 -0.81781777142E+02  0.99828049626E+02  0.00000000000E+00 0. -1.
         -2    1    1    2    0  502 -0.21207368285E+02 -0.23857171579E+02  0.74367170750E+01  0.32775324043E+02  0.00000000000E+00 0.  1.
<mgrwt>
<rscale>  2 0.93524402E+02</rscale>
<asrwt>0</asrwt>
<pdfrwt beam="1">  1       21 0.64154021E-02 0.93524402E+02</pdfrwt>
<pdfrwt beam="2">  1       21 0.45231111E-01 0.93524402E+02</pdfrwt>
<totfact> 0.82579491E+05</totfact>
</mgrwt>
</event>
<event>
 5    1  0.1959123E+000  0.1323075E+03  0.7546771E-02  0.1224071E+00
         21   -1    0    0  501  502  0.00000000000E+00  0.00000000000E+00  0.48722047754E+02  0.48722047754E+02  0.00000000000E+00 0. -1.
         21   -1    0    0  502  503 -0.00000000000E+00 -0.00000000000E+00 -0.58180638926E+03  0.58180638926E+03  0.00000000000E+00 0. -1.
         24    1    1    2    0    0 -0.10356414517E+03  0.36560747379E+02 -0.18654954112E+03  0.23093325369E+03  0.80419002446E+02 0. -1.
          1    1    1    2  501    0  0.79915979738E+02 -0.56244290772E+02 -0.67266614571E+02  0.11863718430E+03  0.00000000000E+00 0. -1.
         -2    1    1    2    0  503  0.23648165433E+02  0.19683543393E+02 -0.27926818581E+03  0.28095799902E+03  0.00000000000E+00 0.  1.
<mgrwt>
<rscale>  2 0.13230751E+03</rscale>
<asrwt>0</asrwt>
<pdfrwt beam="1">  1       21 0.74956994E-02 0.13230751E+03</pdfrwt>
<pdfrwt beam="2">  1       21 0.89508679E-01 0.13230751E+03</pdfrwt>
<totfact> 0.14607757E+05</totfact>
</mgrwt>
</event>
<event>
 5    1  0.1959123E+000  0.7419756E+02  0.7546771E-02  0.1346374E+00
         21   -1    0    0  501  502  0.00000000000E+00  0.00000000000E+00  0.28525187993E+03  0.28525187993E+03  0.00000000000E+00 0.  1.
         21   -1    0    0  502  503 -0.00000000000E+00 -0.00000000000E+00 -0.22713491788E+02  0.22713491788E+02  0.00000000000E+00 0.  1.
         24    1    1    2    0    0 -0.51987541086E+01  0.23682190833E+02  0.17574582612E+03  0.19478625352E+03  0.80419002446E+02 0. -1.
          1    1    1    2  501    0  0.26001254084E+02 -0.32657682572E+02  0.78764202269E+02  0.89142520740E+02  0.00000000000E+00 0. -1.
         -2    1    1    2    0  503 -0.20802499976E+02  0.89754917383E+01  0.80283597577E+01  0.24036597463E+02  0.00000000000E+00 0.  1.
<mgrwt>
<rscale>  2 0.74197557E+02</rscale>
<asrwt>0</asrwt>
<pdfrwt beam="1">  1       21 0.43884902E-01 0.74197557E+02</pdfrwt>
<pdfrwt beam="2">  1       21 0.34943835E-02 0.74197557E+02</pdfrwt>
<totfact> 0.23842740E+06</totfact>
</mgrwt>
</event>
<event>
 5    1  0.1959123E+000  0.9900265E+02  0.7546771E-02  0.1282407E+00
         21   -1    0    0  503  502  0.00000000000E+00  0.00000000000E+00  0.96903179537E+02  0.96903179537E+02  0.00000000000E+00 0.  1.
         21   -1    0    0  501  503 -0.00000000000E+00 -0.00000000000E+00 -0.10786201496E+03  0.10786201496E+03  0.00000000000E+00 0. -1.
         24    1    1    2    0    0  0.52227025643E+02 -0.17718198433E+01  0.11277439457E+02  0.96567065546E+02  0.80419002446E+02 0.  0.
          1    1    1    2  501    0 -0.77114746760E+02 -0.41000558682E+00 -0.28880667617E+02  0.82346494974E+02  0.00000000000E+00 0. -1.
         -2    1    1    2    0  502  0.24887721117E+02  0.21818254301E+01  0.66443927342E+01  0.25851633980E+02  0.00000000000E+00 0.  1.
<mgrwt>
<rscale>  2 0.99002653E+02</rscale>
<asrwt>0</asrwt>
<pdfrwt beam="1">  1       21 0.14908182E-01 0.99002653E+02</pdfrwt>
<pdfrwt beam="2">  1       21 0.16594156E-01 0.99002653E+02</pdfrwt>
<totfact> 0.12849210E+06</totfact>
</mgrwt>
</event>
<event>
 5    1  0.1959123E+000  0.1289065E+03  0.7546771E-02  0.1229087E+00
         21   -1    0    0  501  502  0.00000000000E+00  0.00000000000E+00  0.48429148666E+02  0.48429148666E+02  0.00000000000E+00 0. -1.
         21   -1    0    0  502  503 -0.00000000000E+00 -0.00000000000E+00 -0.74133805329E+03  0.74133805329E+03  0.00000000000E+00 0.  1.
         24    1    1    2    0    0 -0.71345474865E+02 -0.38977543297E+02 -0.78381064750E+02  0.13863705468E+03  0.80419002446E+02 0. -1.
          1    1    1    2  501    0  0.25800932993E+02 -0.42730471496E+02 -0.28086650298E+02  0.57275136513E+02  0.00000000000E+00 0. -1.
         -2    1    1    2    0  503  0.45544541871E+02  0.81708014793E+02 -0.58644118957E+03  0.59385501076E+03  0.00000000000E+00 0.  1.
<mgrwt>
<rscale>  2 0.12890651E+03</rscale>
<asrwt>0</asrwt>
<pdfrwt beam="1">  1       21 0.74506390E-02 0.12890651E+03</pdfrwt>
<pdfrwt beam="2">  1       21 0.11405200E+00 0.12890651E+03</pdfrwt>
<totfact> 0.83695973E+04</totfact>
</mgrwt>
</event>
<event>
 5    1  0.1959123E+000  0.7845831E+02  0.7546771E-02  0.1333484E+00
         21   -1    0    0  501  502  0.00000000000E+00  0.00000000000E+00  0.19539722796E+02  0.19539722796E+02  0.00000000000E+00 0.  1.
         21   -1    0    0  502  503 -0.00000000000E+00 -0.00000000000E+00 -0.52400683548E+03  0.52400683548E+03  0.00000000000E+00 0. -1.
         24    1    1    2    0    0  0.33394610133E+02  0.42828155493E+02 -0.14310899940E+03  0.17290706334E+03  0.80419002446E+02 0.  0.
          1    1    1    2  501    0 -0.32766890260E+01 -0.24292388528E+02 -0.37149414199E+02  0.44507705026E+02  0.00000000000E+00 0. -1.
         -2    1    1    2    0  503 -0.30117921107E+02 -0.18535766965E+02 -0.32420869908E+03  0.32613178991E+03  0.00000000000E+00 0.  1.
<mgrwt>
<rscale>  2 0.78458309E+02</rscale>
<asrwt>0</asrwt>
<pdfrwt beam="1">  1       21 0.30061111E-02 0.78458309E+02</pdfrwt>
<pdfrwt beam="2">  1       21 0.80616440E-01 0.78458309E+02</pdfrwt>
<totfact> 0.85521455E+05</totfact>
</mgrwt>
</event>
<event>
 5    1  0.1959123E+000  0.1252281E+03  0.7546771E-02  0.1234713E+00
         21   -1    0    0  503  502  0.00000000000E+00  0.00000000000E+00  0.80886337348E+03  0.80886337348E+03  0.00000000000E+00 0.  1.
         21   -1    0    0  501  503 -0.00000000000E+00 -0.00000000000E+00 -0.55429425412E+02  0.55429425412E+02  0.00000000000E+00 0.  1.
         24    1    1    2    0    0  0.70441536983E+02  0.76169410153E+02  0.15988320117E+03  0.20686624458E+03  0.80419002446E+02 0.  1.
          1    1    1    2  501    0 -0.65028854641E+02 -0.28140661459E+02  0.96288865474E+01  0.71507791320E+02  0.00000000000E+00 0. -1.
         -2    1    1    2    0  502 -0.54126823413E+01 -0.48028748695E+02  0.58392186036E+03  0.58591876300E+03  0.00000000000E+00 0.  1.
<mgrwt>
<rscale>  2 0.12522812E+03</rscale>
<asrwt>0</asrwt>
<pdfrwt beam="1">  1       21 0.12444051E+00 0.12522812E+03</pdfrwt>
<pdfrwt beam="2">  1       21 0.85276045E-02 0.12522812E+03</pdfrwt>
<totfact> 0.53763301E+04</totfact>
</mgrwt>
</event>
<event>
 5    1  0.1959123E+000  0.7517608E+02  0.7546771E-02  0.1343327E+00
         21   -1    0    0  503  502  0.00000000000E+00  0.00000000000E+00  0.92828873025E+02  0.92828873025E+02  0.00000000000E+00 0.  1.
         21   -1    0    0  501  503 -0.00000000000E+00 -0.00000000000E+00 -0.77016354299E+02  0.77016354299E+02  0.00000000000E+00 0. -1.
         24    1    1    2    0    0  0.21316434472E+02  0.37974768705E+02 -0.25167743151E+02  0.94853068935E+02  0.80419002446E+02 0.  0.
          1    1    1    2  501    0 -0.28674321304E+02 -0.10629528382E+02  0.81743053606E+01  0.31654744415E+02  0.00000000000E+00 0. -1.
         -2    1    1    2    0  502  0.73578868319E+01 -0.27345240323E+02  0.32805956516E+02  0.43337413973E+02  0.00000000000E+00 0.  1.
<mgrwt>
<rscale>  2 0.75176079E+02</rscale>
<asrwt>0</asrwt>
<pdfrwt beam="1">  1       21 0.14281365E-01 0.75176079E+02</pdfrwt>
<pdfrwt beam="2">  1       21 0.11848670E-01 0.75176079E+02</pdfrwt>
<totfact> 0.24948714E+06</totfact>
</mgrwt>
</event>
<event>
 5    1  0.2690381E+000  0.1674105E+03  0.7546771E-02  0.1180575E+00
         21   -1    0    0  501  502  0.00000000000E+00  0.00000000000E+00  0.41744708095E+03  0.41744708095E+03  0.00000000000E+00 0.  1.
         21   -1    0    0  502  503 -0.00000000000E+00 -0.00000000000E+00 -0.22768922479E+03  0.22768922479E+03  0.00000000000E+00 0.  1.
         24    1    1    2    0    0  0.11672352510E+03 -0.32648606569E+02  0.31184850737E+03  0.34410321173E+03  0.80419002446E+02 0.  1.
          1    1    1    2  501    0 -0.19187209892E+02 -0.54988847556E+02  0.55386074710E+02  0.80371261348E+02  0.00000000000E+00 0. -1.
         -2    1    1    2    0  503 -0.97536315211E+02  0.87637454124E+02 -0.17747672591E+03  0.22066183265E+03  0.00000000000E+00 0.  1.
<mgrwt>
<rscale>  2 0.16741054E+03</rscale>
<asrwt>0</asrwt>
<pdfrwt beam="1">  1       21 0.64222628E-01 0.16741054E+03</pdfrwt>
<pdfrwt beam="2">  1       21 0.35029112E-01 0.16741054E+03</pdfrwt>
<totfact> 0.17860264E+04</totfact>
</mgrwt>
</event>
<event>
 5    1  0.1959123E+000  0.9114910E+02  0.7546771E-02  0.1300093E+00
         21   -1    0    0  501  502  0.00000000000E+00  0.00000000000E+00  0.14087736290E+03  0.14087736290E+03  0.00000000000E+00 0. -1.
         21   -1    0    0  502  503 -0.00000000000E+00 -0.00000000000E+00 -0.12998947740E+03  0.12998947740E+03  0.00000000000E+00 0.  1.
         24    1    1    2    0    0  0.56839947463E+00 -0.34308695460E+02  0.50996146121E+02  0.10121873609E+03  0.80419002446E+02 0.  0.
          1    1    1    2  501    0  0.27290097767E+02  0.54166738438E+02  0.46565592598E+02  0.76466590111E+02  0.00000000000E+00 0. -1.
         -2    1    1    2    0  503 -0.27858497242E+02 -0.19858042978E+02 -0.86673853214E+02  0.93181514103E+02  0.00000000000E+00 0.  1.
<mgrwt>
<rscale>  2 0.91149099E+02</rscale>
<asrwt>0</asrwt>
<pdfrwt beam="1">  1       21 0.21673440E-01 0.91149099E+02</pdfrwt>
<pdfrwt beam="2">  1       21 0.19998381E-01 0.91149099E+02</pdfrwt>
<totfact> 0.46361647E+05</totfact>
</mgrwt>
</event>
<event>
 5    1  0.1959123E+000  0.1260773E+03  0.7546771E-02  0.1233395E+00
         21   -1    0    0  503  502  0.00000000000E+00  0.00000000000E+00  0.16935511228E+04  0.16935511228E+04  0.00000000000E+00 0. -1.
         21   -1    0    0  501  503 -0.00000000000E+00 -0.00000000000E+00 -0.26170400420E+02  0.26170400420E+02  0.00000000000E+00 0. -1.
         24    1    1    2    0    0  0.73160083657E+02  0.28231192866E+02  0.12853723439E+03  0.17069983794E+03  0.80419002446E+02 0. -1.
          1    1    1    2  501    0 -0.57725045142E+02 -0.72659038211E+02  0.46612253086E+03  0.47527016574E+03  0.00000000000E+00 0. -1.
         -2    1    1    2    0  502 -0.15435038515E+02  0.44427845345E+02  0.10727209571E+04  0.10737515195E+04  0.00000000000E+00 0.  1.
<mgrwt>
<rscale>  2 0.12607732E+03</rscale>
<asrwt>0</asrwt>
<pdfrwt beam="1">  1       21 0.26054624E+00 0.12607732E+03</pdfrwt>
<pdfrwt beam="2">  1       21 0.40262168E-02 0.12607732E+03</pdfrwt>
<totfact> 0.23924770E+04</totfact>
</mgrwt>
</event>
<event>
 5    1  0.1959123E+000  0.1056896E+03  0.7546771E-02  0.1268767E+00
         21   -1    0    0  503  502  0.00000000000E+00  0.00000000000E+00  0.12567733670E+04  0.12567733670E+04  0.00000000000E+00 0. -1.
         21   -1    0    0  501  503 -0.00000000000E+00 -0.00000000000E+00 -0.14722256155E+02  0.14722256155E+02  0.00000000000E+00 0. -1.
         24    1    1    2    0    0  0.21915387315E+02 -0.29346444761E+02  0.87262327577E+03  0.87708613910E+03  0.80419002446E+02 0. -1.
          1    1    1    2  501    0 -0.70650307533E+02  0.19509668575E+02  0.12438291205E+03  0.14437174908E+03  0.00000000000E+00 0. -1.
         -2    1    1    2    0  502  0.48734920218E+02  0.98367761851E+01  0.24504492304E+03  0.25003773500E+03  0.00000000000E+00 0.  1.
<mgrwt>
<rscale>  2 0.10568962E+03</rscale>
<asrwt>0</asrwt>
<pdfrwt beam="1">  1       21 0.19334966E+00 0.10568962E+03</pdfrwt>
<pdfrwt beam="2">  1       21 0.22649635E-02 0.10568962E+03</pdfrwt>
<totfact> 0.15650611E+05</totfact>
</mgrwt>
</event>
<event>
 5    1  0.1959123E+000  0.1295541E+03  0.7546771E-02  0.1228119E+00
         21   -1    0    0  501  502  0.00000000000E+00  0.00000000000E+00  0.39339761005E+02  0.39339761005E+02  0.00000000000E+00 0. -1.
         21   -1    0    0  502  503 -0.00000000000E+00 -0.00000000000E+00 -0.49353259453E+03  0.49353259453E+03  0.00000000000E+00 0. -1.
         24    1    1    2    0    0  0.29402920707E+02 -0.92049217179E+02 -0.16158922602E+03  0.20473369056E+03  0.80419002446E+02 0. -1.
          1    1    1    2  501    0 -0.59974596303E+01  0.10598256293E+03 -0.15500037954E+03  0.18786535291E+03  0.00000000000E+00 0. -1.
         -2    1    1    2    0  503 -0.23405461076E+02 -0.13933345749E+02 -0.13760322796E+03  0.14027331206E+03  0.00000000000E+00 0.  1.
<mgrwt>
<rscale>  2 0.12955406E+03</rscale>
<asrwt>0</asrwt>
<pdfrwt beam="1">  1       21 0.60522708E-02 0.12955406E+03</pdfrwt>
<pdfrwt beam="2">  1       21 0.75928094E-01 0.12955406E+03</pdfrwt>
<totfact> 0.30495044E+05</totfact>
</mgrwt>
</event>
<event>
 5    1  0.1959123E+000  0.8583332E+02  0.7546771E-02  0.1313268E+00
         21   -1    0    0  501  502  0.00000000000E+00  0.00000000000E+00  0.85545586880E+03  0.85545586880E+03  0.00000000000E+00 0.  1.
         21   -1    0    0  502  503 -0.00000000000E+00 -0.00000000000E+00 -0.19705399389E+02  0.19705399389E+02  0.00000000000E+00 0.  1.
         24    1    1    2    0    0  0.28420577777E+02 -0.15135178400E+02  0.53674864998E+03  0.54369396914E+03  0.80419002446E+02 0.  1.
          1    1    1    2  501    0 -0.56045588338E+02  0.94426720233E+01  0.29786508156E+03  0.30323897975E+03  0.00000000000E+00 0. -1.
         -2    1    1    2    0  503  0.27625010560E+02  0.56925063769E+01  0.11367378649E+01  0.28228319296E+02  0.00000000000E+00 0.  1.
<mgrwt>
<rscale>  2 0.85833322E+02</rscale>
<asrwt>0</asrwt>
<pdfrwt beam="1">  1       21 0.13160857E+00 0.85833322E+02</pdfrwt>
<pdfrwt beam="2">  1       21 0.30316006E-02 0.85833322E+02</pdfrwt>
<totfact> 0.27011909E+05</totfact>
</mgrwt>
</event>
<event>
 5    1  0.1959123E+000  0.6618604E+02  0.7546771E-02  0.1373565E+00
         21   -1    0    0  503  502  0.00000000000E+00  0.00000000000E+00  0.92897544225E+03  0.92897544225E+03  0.00000000000E+00 0. -1.
         21   -1    0    0  501  503 -0.00000000000E+00 -0.00000000000E+00 -0.91984087864E+01  0.91984087864E+01  0.00000000000E+00 0.  1.
         24    1    1    2    0    0  0.75781810128E+01 -0.10940032405E+02  0.31788512799E+03  0.32816959592E+03  0.80419002446E+02 0.  1.
          1    1    1    2  501    0 -0.27842372451E+02  0.12531877832E+02  0.56404269779E+02  0.64138033295E+02  0.00000000000E+00 0. -1.
         -2    1    1    2    0  502  0.20264191438E+02 -0.15918454267E+01  0.54548763569E+03  0.54586622182E+03  0.00000000000E+00 0.  1.
<mgrwt>
<rscale>  2 0.66186036E+02</rscale>
<asrwt>0</asrwt>
<pdfrwt beam="1">  1       21 0.14291922E+00 0.66186036E+02</pdfrwt>
<pdfrwt beam="2">  1       21 0.14151406E-02 0.66186036E+02</pdfrwt>
<totfact> 0.74614434E+05</totfact>
</mgrwt>
</event>
<event>
 5    1  0.1959123E+000  0.1630091E+03  0.7546771E-02  0.1185341E+00
         21   -1    0    0  503  502  0.00000000000E+00  0.00000000000E+00  0.20124431954E+04  0.20124431954E+04  0.00000000000E+00 0.  1.
         21   -1    0    0  501  503 -0.00000000000E+00 -0.00000000000E+00 -0.39765796674E+02  0.39765796674E+02  0.00000000000E+00 0.  1.
         24    1    1    2    0    0  0.14486476059E+03 -0.14719243800E+02  0.17249891299E+03  0.23963627842E+03  0.80419002446E+02 0.  1.
          1    1    1    2  501    0 -0.30833669270E+02  0.31890947573E+02  0.11206561929E+03  0.12052572640E+03  0.00000000000E+00 0. -1.
         -2    1    1    2    0  502 -0.11403109132E+03 -0.17171703773E+02  0.16881128664E+04  0.16920469872E+04  0.00000000000E+00 0.  1.
<mgrwt>
<rscale>  2 0.16300905E+03</rscale>
<asrwt>0</asrwt>
<pdfrwt beam="1">  1       21 0.30960657E+00 0.16300905E+03</pdfrwt>
<pdfrwt beam="2">  1       21 0.61178164E-02 0.16300905E+03</pdfrwt>
<totfact> 0.59473313E+03</totfact>
</mgrwt>
</event>
<event>
 5    1  0.1959123E+000  0.8211591E+02  0.7546771E-02  0.1323152E+00
         21   -1    0    0  501  502  0.00000000000E+00  0.00000000000E+00  0.11970366778E+03  0.11970366778E+03  0.00000000000E+00 0.  1.
         21   -1    0    0  502  503 -0.00000000000E+00 -0.00000000000E+00 -0.10113779441E+03  0.10113779441E+03  0.00000000000E+00 0.  1.
         24    1    1    2    0    0  0.92127407109E+01  0.60924587365E+02 -0.34010381467E+01  0.10136795821E+03  0.80419002446E+02 0.  1.
          1    1    1    2  501    0  0.29343142988E-02 -0.40651616910E+02  0.61721806448E+02  0.73906260609E+02  0.00000000000E+00 0. -1.
         -2    1    1    2    0  503 -0.92156750252E+01 -0.20272970455E+02 -0.39754894934E+02  0.45567243371E+02  0.00000000000E+00 0.  1.
<mgrwt>
<rscale>  2 0.82115905E+02</rscale>
<asrwt>0</asrwt>
<pdfrwt beam="1">  1       21 0.18415949E-01 0.82115905E+02</pdfrwt>
<pdfrwt beam="2">  1       21 0.15559661E-01 0.82115905E+02</pdfrwt>
<totfact> 0.98180686E+05</totfact>
</mgrwt>
</event>
<event>
 5    1  0.1959123E+000  0.1953527E+03  0.7546771E-02  0.1153720E+00
         21   -1    0    0  503  502  0.00000000000E+00  0.00000000000E+00  0.72858561975E+03  0.72858561975E+03  0.00000000000E+00 0.  1.
         21   -1    0    0  501  503 -0.00000000000E+00 -0.00000000000E+00 -0.12560982499E+03  0.12560982499E+03  0.00000000000E+00 0. -1.
         24    1    1    2    0    0  0.38791157332E+02  0.16415169841E+03  0.84329837700E+02  0.20501041792E+03  0.80419002446E+02 0.  1.
          1    1    1    2  501    0 -0.31655472674E+02  0.71001262566E+01 -0.47578824344E+02  0.57586676141E+02  0.00000000000E+00 0. -1.
         -2    1    1    2    0  502 -0.71356846581E+01 -0.17125182466E+03  0.56622478140E+03  0.59159835067E+03  0.00000000000E+00 0.  1.
<mgrwt>
<rscale>  2 0.19535265E+03</rscale>
<asrwt>0</asrwt>
<pdfrwt beam="1">  1       21 0.11209009E+00 0.19535265E+03</pdfrwt>
<pdfrwt beam="2">  1       21 0.19324589E-01 0.19535265E+03</pdfrwt>
<totfact> 0.15329208E+04</totfact>
</mgrwt>
</event>
<event>
 5    1  0.1959123E+000  0.8448953E+02  0.7546771E-02  0.1316773E+00
         21   -1    0    0  501  502  0.00000000000E+00  0.00000000000E+00  0.43383889207E+02  0.43383889207E+02  0.00000000000E+00 0. -1.
         21   -1    0    0  502  503 -0.00000000000E+00 -0.00000000000E+00 -0.16480443894E+03  0.16480443894E+03  0.00000000000E+00 0.  1.
         24    1    1    2    0    0  0.50195492695E+02 -0.36208471459E+02 -0.69948549790E+02  0.12325038119E+03  0.80419002446E+02 0.  1.
          1    1    1    2  501    0 -0.27348027612E+02  0.34544219090E+01 -0.19201669050E+02  0.33593924142E+02  0.00000000000E+00 0. -1.
         -2    1    1    2    0  503 -0.22847465084E+02  0.32754049550E+02 -0.32270330897E+02  0.51344022815E+02  0.00000000000E+00 0.  1.
<mgrwt>
<rscale>  2 0.84489534E+02</rscale>
<asrwt>0</asrwt>
<pdfrwt beam="1">  1       21 0.66744445E-02 0.84489534E+02</pdfrwt>
<pdfrwt beam="2">  1       21 0.25354529E-01 0.84489534E+02</pdfrwt>
<totfact> 0.23650374E+06</totfact>
</mgrwt>
</event>
<event>
 5    1  0.1959123E+000  0.9808761E+02  0.7546771E-02  0.1284370E+00
         21   -1    0    0  501  502  0.00000000000E+00  0.00000000000E+00  0.88836155131E+02  0.88836155131E+02  0.00000000000E+00 0. -1.
         21   -1    0    0  502  503 -0.00000000000E+00 -0.00000000000E+00 -0.19446075854E+03  0.19446075854E+03  0.00000000000E+00 0.  1.
         24    1    1    2    0    0 -0.51120824366E+01 -0.11138935451E+02  0.42467937284E+02  0.91765739366E+02  0.80419002446E+02 0. -1.
          1    1    1    2  501    0 -0.10457316675E+02 -0.50336509654E+02 -0.36065225435E+02  0.62799842053E+02  0.00000000000E+00 0. -1.
         -2    1    1    2    0  503  0.15569399112E+02  0.61475445105E+02 -0.11202731526E+03  0.12873133225E+03  0.00000000000E+00 0.  1.
<mgrwt>
<rscale>  2 0.98087606E+02</rscale>
<asrwt>0</asrwt>
<pdfrwt beam="1">  1       21 0.13667101E-01 0.98087606E+02</pdfrwt>
<pdfrwt beam="2">  1       21 0.29917040E-01 0.98087606E+02</pdfrwt>
<totfact> 0.50246449E+05</totfact>
</mgrwt>
</event>
<event>
 5    1  0.1959123E+000  0.6869683E+02  0.7546771E-02  0.1364581E+00
         21   -1    0    0  501  502  0.00000000000E+00  0.00000000000E+00  0.21808551439E+03  0.21808551439E+03  0.00000000000E+00 0.  1.
         21   -1    0    0  502  503 -0.00000000000E+00 -0.00000000000E+00 -0.22555976947E+02  0.22555976947E+02  0.00000000000E+00 0. -1.
         24    1    1    2    0    0 -0.17701266731E+02  0.14717036753E+02  0.13361708490E+03  0.15764094439E+03  0.80419002446E+02 0.  0.
          1    1    1    2  501    0  0.32170894050E+02  0.12520101602E+01  0.46284512160E+02  0.56380759300E+02  0.00000000000E+00 0. -1.
         -2    1    1    2    0  503 -0.14469627319E+02 -0.15969046914E+02  0.15627940383E+02  0.26619787653E+02  0.00000000000E+00 0.  1.
<mgrwt>
<rscale>  2 0.68696830E+02</rscale>
<asrwt>0</asrwt>
<pdfrwt beam="1">  1       21 0.33551616E-01 0.68696830E+02</pdfrwt>
<pdfrwt beam="2">  1       21 0.34701505E-02 0.68696830E+02</pdfrwt>
<totfact> 0.40564404E+06</totfact>
</mgrwt>
</event>
<event>
 5    1  0.1959123E+000  0.1058224E+03  0.7546771E-02  0.1268508E+00
         21   -1    0    0  503  502  0.00000000000E+00  0.00000000000E+00  0.81185211632E+01  0.81185211632E+01  0.00000000000E+00 0. -1.
         21   -1    0    0  501  503 -0.00000000000E+00 -0.00000000000E+00 -0.14611442152E+04  0.14611442152E+04  0.00000000000E+00 0.  1.
         24    1    1    2    0    0 -0.28079970363E+02 -0.23687560081E+02 -0.56079218034E+03  0.56771883069E+03  0.80419002446E+02 0. -1.
          1    1    1    2  501    0  0.36383548230E+02 -0.42830351266E+02 -0.54571815183E+03  0.54860414035E+03  0.00000000000E+00 0. -1.
         -2    1    1    2    0  502 -0.83035778667E+01  0.66517911347E+02 -0.34651536186E+03  0.35293976531E+03  0.00000000000E+00 0.  1.
<mgrwt>
<rscale>  2 0.10582237E+03</rscale>
<asrwt>0</asrwt>
<pdfrwt beam="1">  1       21 0.12490035E-02 0.10582237E+03</pdfrwt>
<pdfrwt beam="2">  1       21 0.22479138E+00 0.10582237E+03</pdfrwt>
<totfact> 0.26048527E+05</totfact>
</mgrwt>
</event>
<event>
 5    1  0.1959123E+000  0.7651716E+02  0.7546771E-02  0.1339236E+00
         21   -1    0    0  501  502  0.00000000000E+00  0.00000000000E+00  0.54979742026E+02  0.54979742026E+02  0.00000000000E+00 0. -1.
         21   -1    0    0  502  503 -0.00000000000E+00 -0.00000000000E+00 -0.15057300613E+03  0.15057300613E+03  0.00000000000E+00 0.  1.
         24    1    1    2    0    0 -0.30450372019E+02 -0.22596287901E+02 -0.42855628483E+02  0.98699737741E+02  0.80419002446E+02 0.  1.
          1    1    1    2  501    0  0.20945046547E+01  0.33631457185E+02  0.11637150844E+02  0.35649476040E+02  0.00000000000E+00 0. -1.
         -2    1    1    2    0  503  0.28355867364E+02 -0.11035169285E+02 -0.64374786466E+02  0.71203534376E+02  0.00000000000E+00 0.  1.
<mgrwt>
<rscale>  2 0.76517163E+02</rscale>
<asrwt>0</asrwt>
<pdfrwt beam="1">  1       21 0.84584219E-02 0.76517163E+02</pdfrwt>
<pdfrwt beam="2">  1       21 0.23165078E-01 0.76517163E+02</pdfrwt>
<totfact> 0.18636994E+06</totfact>
</mgrwt>
</event>
<event>
 5    1  0.1959123E+000  0.7071400E+02  0.7546771E-02  0.1357682E+00
         21   -1    0    0  503  502  0.00000000000E+00  0.00000000000E+00  0.19061637737E+03  0.19061637737E+03  0.00000000000E+00 0.  1.
         21   -1    0    0  501  503 -0.00000000000E+00 -0.00000000000E+00 -0.18395001772E+03  0.18395001772E+03  0.00000000000E+00 0. -1.
         24    1    1    2    0    0 -0.33204000345E+02  0.33933827546E+02  0.95681321969E+02  0.13370168892E+03  0.80419002446E+02 0. -1.
          1    1    1    2  501    0  0.18767377896E+02 -0.13934137678E+02 -0.16207571698E+03  0.16375259601E+03  0.00000000000E+00 0. -1.
         -2    1    1    2    0  502  0.14436622449E+02 -0.19999689868E+02  0.73060754657E+02  0.77112110162E+02  0.00000000000E+00 0.  1.
<mgrwt>
<rscale>  2 0.70714002E+02</rscale>
<asrwt>0</asrwt>
<pdfrwt beam="1">  1       21 0.29325597E-01 0.70714002E+02</pdfrwt>
<pdfrwt beam="2">  1       21 0.28300003E-01 0.70714002E+02</pdfrwt>
<totfact> 0.13899489E+05</totfact>
</mgrwt>
</event>
<event>
 5    1  0.1959123E+000  0.8320234E+02  0.7546771E-02  0.1320202E+00
         21   -1    0    0  503  502  0.00000000000E+00  0.00000000000E+00  0.19911465028E+03  0.19911465028E+03  0.00000000000E+00 0.  1.
         21   -1    0    0  501  503 -0.00000000000E+00 -0.00000000000E+00 -0.57727590749E+02  0.57727590749E+02  0.00000000000E+00 0.  1.
         24    1    1    2    0    0 -0.75830508108E+00  0.52945263778E+02  0.15259006415E+03  0.18042926486E+03  0.80419002446E+02 0.  1.
          1    1    1    2  501    0 -0.21723620318E+02 -0.35676782394E+02 -0.20565491844E+02  0.46558435718E+02  0.00000000000E+00 0. -1.
         -2    1    1    2    0  502  0.22481925399E+02 -0.17268481384E+02  0.93624872213E+01  0.29854540457E+02  0.00000000000E+00 0.  1.
<mgrwt>
<rscale>  2 0.83202338E+02</rscale>
<asrwt>0</asrwt>
<pdfrwt beam="1">  1       21 0.30633023E-01 0.83202338E+02</pdfrwt>
<pdfrwt beam="2">  1       21 0.88811679E-02 0.83202338E+02</pdfrwt>
<totfact> 0.10172304E+06</totfact>
</mgrwt>
</event>
<event>
 5    1  0.1959123E+000  0.1076683E+03  0.7546771E-02  0.1264950E+00
         21   -1    0    0  503  502  0.00000000000E+00  0.00000000000E+00  0.25755252578E+03  0.25755252578E+03  0.00000000000E+00 0.  1.
         21   -1    0    0  501  503 -0.00000000000E+00 -0.00000000000E+00 -0.15571903142E+03  0.15571903142E+03  0.00000000000E+00 0. -1.
         24    1    1    2    0    0 -0.31201882953E+02  0.51938183913E+02  0.27317101909E+02  0.10432915441E+03  0.80419002446E+02 0.  1.
          1    1    1    2  501    0 -0.18460895570E+02 -0.61378949474E+02 -0.10468442194E+03  0.12274774255E+03  0.00000000000E+00 0. -1.
         -2    1    1    2    0  502  0.49662778522E+02  0.94407655617E+01  0.17920081440E+03  0.18619466025E+03  0.00000000000E+00 0.  1.
<mgrwt>
<rscale>  2 0.10766830E+03</rscale>
<asrwt>0</asrwt>
<pdfrwt beam="1">  1       21 0.39623466E-01 0.10766830E+03</pdfrwt>
<pdfrwt beam="2">  1       21 0.23956774E-01 0.10766830E+03</pdfrwt>
<totfact> 0.10428312E+05</totfact>
</mgrwt>
</event>
<event>
 5    1  0.1959123E+000  0.8769296E+02  0.7546771E-02  0.1308537E+00
         21   -1    0    0  503  502  0.00000000000E+00  0.00000000000E+00  0.53471619702E+02  0.53471619702E+02  0.00000000000E+00 0. -1.
         21   -1    0    0  501  503 -0.00000000000E+00 -0.00000000000E+00 -0.18304767156E+03  0.18304767156E+03  0.00000000000E+00 0. -1.
         24    1    1    2    0    0 -0.61091642151E+01  0.36573663153E+02 -0.63233448205E+02  0.10881470328E+03  0.80419002446E+02 0. -1.
          1    1    1    2  501    0 -0.12109523345E+01 -0.61162544525E+02 -0.78329301327E+02  0.99387135509E+02  0.00000000000E+00 0. -1.
         -2    1    1    2    0  502  0.73201165495E+01  0.24588881372E+02  0.11986697674E+02  0.28317452472E+02  0.00000000000E+00 0.  1.
<mgrwt>
<rscale>  2 0.87692958E+02</rscale>
<asrwt>0</asrwt>
<pdfrwt beam="1">  1       21 0.82264032E-02 0.87692958E+02</pdfrwt>
<pdfrwt beam="2">  1       21 0.28161180E-01 0.87692958E+02</pdfrwt>
<totfact> 0.13628958E+06</totfact>
</mgrwt>
</event>
<event>
 5    1  0.1959123E+000  0.7283534E+02  0.7546771E-02  0.1350708E+00
         21   -1    0    0  503  502  0.00000000000E+00  0.00000000000E+00  0.23538936431E+03  0.23538936431E+03  0.00000000000E+00 0.  1.
         21   -1    0    0  501  503 -0.00000000000E+00 -0.00000000000E+00 -0.71744487759E+02  0.71744487759E+02  0.00000000000E+00 0.  1.
         24    1    1    2    0    0  0.17216908420E+02 -0.16351916576E+02 -0.17481992302E+02  0.85654206671E+02  0.80419002446E+02 0.  1.
          1    1    1    2  501    0  0.19627778522E+02  0.15424253710E+02 -0.99556489489E+01  0.26875123036E+02  0.00000000000E+00 0. -1.
         -2    1    1    2    0  502 -0.36844686942E+02  0.92766286596E+00  0.19108251780E+03  0.19460452236E+03  0.00000000000E+00 0.  1.
<mgrwt>
<rscale>  2 0.72835339E+02</rscale>
<asrwt>0</asrwt>
<pdfrwt beam="1">  1       21 0.36213748E-01 0.72835339E+02</pdfrwt>
<pdfrwt beam="2">  1       21 0.11037614E-01 0.72835339E+02</pdfrwt>
<totfact> 0.50576219E+05</totfact>
</mgrwt>
</event>
<event>
 5    1  0.1959123E+000  0.1168433E+03  0.7546771E-02  0.1248397E+00
         21   -1    0    0  501  502  0.00000000000E+00  0.00000000000E+00  0.83023176920E+03  0.83023176920E+03  0.00000000000E+00 0.  1.
         21   -1    0    0  502  503 -0.00000000000E+00 -0.00000000000E+00 -0.27605209039E+02  0.27605209039E+02  0.00000000000E+00 0.  1.
         24    1    1    2    0    0 -0.16891628774E+02 -0.97279906917E+02  0.69229246673E+03  0.70390679984E+03  0.80419002446E+02 0.  1.
          1    1    1    2  501    0  0.29887451585E+02  0.64748404047E+02  0.63824497926E+02  0.95703616047E+02  0.00000000000E+00 0. -1.
         -2    1    1    2    0  503 -0.12995822812E+02  0.32531502871E+02  0.46509595501E+02  0.58226562351E+02  0.00000000000E+00 0.  1.
<mgrwt>
<rscale>  2 0.11684327E+03</rscale>
<asrwt>0</asrwt>
<pdfrwt beam="1">  1       21 0.12772795E+00 0.11684327E+03</pdfrwt>
<pdfrwt beam="2">  1       21 0.42469559E-02 0.11684327E+03</pdfrwt>
<totfact> 0.16497723E+05</totfact>
</mgrwt>
</event>
<event>
 5    1  0.1959123E+000  0.8936128E+02  0.7546771E-02  0.1304406E+00
         21   -1    0    0  501  502  0.00000000000E+00  0.00000000000E+00  0.13408250665E+02  0.13408250665E+02  0.00000000000E+00 0. -1.
         21   -1    0    0  502  503 -0.00000000000E+00 -0.00000000000E+00 -0.14352565367E+04  0.14352565367E+04  0.00000000000E+00 0.  1.
         24    1    1    2    0    0  0.32592601793E+02 -0.77140457091E+01 -0.26130384816E+03  0.27544273672E+03  0.80419002446E+02 0.  0.
          1    1    1    2  501    0 -0.36363842508E+02 -0.33964679195E+02 -0.98512797922E+02  0.11036620782E+03  0.00000000000E+00 0. -1.
         -2    1    1    2    0  503  0.37712407148E+01  0.41678724904E+02 -0.10620316399E+04  0.10628558428E+04  0.00000000000E+00 0.  1.
<mgrwt>
<rscale>  2 0.89361282E+02</rscale>
<asrwt>0</asrwt>
<pdfrwt beam="1">  1       21 0.20628073E-02 0.89361282E+02</pdfrwt>
<pdfrwt beam="2">  1       21 0.22080875E+00 0.89361282E+02</pdfrwt>
<totfact> 0.12553213E+05</totfact>
</mgrwt>
</event>
<event>
 5    1  0.1959123E+000  0.8056751E+02  0.7546771E-02  0.1327449E+00
         21   -1    0    0  503  502  0.00000000000E+00  0.00000000000E+00  0.45405684952E+03  0.45405684952E+03  0.00000000000E+00 0.  1.
         21   -1    0    0  501  503 -0.00000000000E+00 -0.00000000000E+00 -0.24339649063E+02  0.24339649063E+02  0.00000000000E+00 0.  1.
         24    1    1    2    0    0 -0.33359545817E+02  0.21261108094E+02  0.37970431519E+03  0.39013776662E+03  0.80419002446E+02 0.  1.
          1    1    1    2  501    0  0.23865188763E+02  0.18775788853E+02  0.13439615530E+02  0.33206938241E+02  0.00000000000E+00 0. -1.
         -2    1    1    2    0  502  0.94943570537E+01 -0.40036896947E+02  0.36573269741E+02  0.55051793727E+02  0.00000000000E+00 0.  1.
<mgrwt>
<rscale>  2 0.80567508E+02</rscale>
<asrwt>0</asrwt>
<pdfrwt beam="1">  1       21 0.69854893E-01 0.80567508E+02</pdfrwt>
<pdfrwt beam="2">  1       21 0.37445617E-02 0.80567508E+02</pdfrwt>
<totfact> 0.81704076E+05</totfact>
</mgrwt>
</event>
<event>
 5    1  0.1959123E+000  0.7272185E+02  0.7546771E-02  0.1351074E+00
         21   -1    0    0  503  502  0.00000000000E+00  0.00000000000E+00  0.10169384166E+03  0.10169384166E+03  0.00000000000E+00 0. -1.
         21   -1    0    0  501  503 -0.00000000000E+00 -0.00000000000E+00 -0.70422805122E+02  0.70422805122E+02  0.00000000000E+00 0. -1.
         24    1    1    2    0    0  0.15148399938E+02 -0.93705688533E+01 -0.24299969062E+01  0.82403898091E+02  0.80419002446E+02 0.  0.
          1    1    1    2  501    0 -0.35619557434E+02 -0.76748875924E+01 -0.10663216932E+02  0.37965259998E+02  0.00000000000E+00 0. -1.
         -2    1    1    2    0  502  0.20471157496E+02  0.17045456446E+02  0.44364250377E+02  0.51747488695E+02  0.00000000000E+00 0.  1.
<mgrwt>
<rscale>  2 0.72721851E+02</rscale>
<asrwt>0</asrwt>
<pdfrwt beam="1">  1       21 0.15645206E-01 0.72721851E+02</pdfrwt>
<pdfrwt beam="2">  1       21 0.10834278E-01 0.72721851E+02</pdfrwt>
<totfact> 0.24744195E+06</totfact>
</mgrwt>
</event>
<event>
 5    1  0.1959123E+000  0.9350989E+02  0.7546771E-02  0.1294568E+00
         21   -1    0    0  503  502  0.00000000000E+00  0.00000000000E+00  0.79068142116E+02  0.79068142116E+02  0.00000000000E+00 0. -1.
         21   -1    0    0  501  503 -0.00000000000E+00 -0.00000000000E+00 -0.20961157925E+03  0.20961157925E+03  0.00000000000E+00 0.  1.
         24    1    1    2    0    0  0.63690081346E+02 -0.14661633861E+02 -0.16240904097E+03  0.19265332209E+03  0.80419002446E+02 0.  1.
          1    1    1    2  501    0 -0.35638068341E+02 -0.18339334614E+02 -0.33282584413E+01  0.40217911600E+02  0.00000000000E+00 0. -1.
         -2    1    1    2    0  502 -0.28052013005E+02  0.33000968475E+02  0.35193862282E+02  0.55808487672E+02  0.00000000000E+00 0.  1.
<mgrwt>
<rscale>  2 0.93509891E+02</rscale>
<asrwt>0</asrwt>
<pdfrwt beam="1">  1       21 0.12164330E-01 0.93509891E+02</pdfrwt>
<pdfrwt beam="2">  1       21 0.32247935E-01 0.93509891E+02</pdfrwt>
<totfact> 0.53453586E+05</totfact>
</mgrwt>
</event>
<event>
 5    1  0.1959123E+000  0.7365238E+02  0.7546771E-02  0.1348096E+00
         21   -1    0    0  501  502  0.00000000000E+00  0.00000000000E+00  0.12873991980E+02  0.12873991980E+02  0.00000000000E+00 0. -1.
         21   -1    0    0  502  503 -0.00000000000E+00 -0.00000000000E+00 -0.45073229316E+03  0.45073229316E+03  0.00000000000E+00 0. -1.
         24    1    1    2    0    0  0.48736988987E+02 -0.16213712510E+02 -0.30861593748E+03  0.32303125451E+03  0.80419002446E+02 0. -1.
          1    1    1    2  501    0 -0.18006483960E+02  0.97607962535E+01 -0.28812032205E+02  0.35350244807E+02  0.00000000000E+00 0. -1.
         -2    1    1    2    0  503 -0.30730505027E+02  0.64529162565E+01 -0.10043033149E+03  0.10522478582E+03  0.00000000000E+00 0.  1.
<mgrwt>
<rscale>  2 0.73652377E+02</rscale>
<asrwt>0</asrwt>
<pdfrwt beam="1">  1       21 0.19806146E-02 0.73652377E+02</pdfrwt>
<pdfrwt beam="2">  1       21 0.69343415E-01 0.73652377E+02</pdfrwt>
<totfact> 0.23127361E+06</totfact>
</mgrwt>
</event>
<event>
 5    1  0.1959123E+000  0.9578438E+02  0.7546771E-02  0.1289419E+00
         21   -1    0    0  503  502  0.00000000000E+00  0.00000000000E+00  0.28297774419E+02  0.28297774419E+02  0.00000000000E+00 0. -1.
         21   -1    0    0  501  503 -0.00000000000E+00 -0.00000000000E+00 -0.33616424526E+03  0.33616424526E+03  0.00000000000E+00 0. -1.
         24    1    1    2    0    0 -0.56816512956E+02 -0.46226536716E+02 -0.17445222978E+03  0.20558649097E+03  0.80419002446E+02 0. -1.
          1    1    1    2  501    0  0.48719933505E+02  0.15664266305E+02 -0.10295961104E+03  0.11497687882E+03  0.00000000000E+00 0. -1.
         -2    1    1    2    0  502  0.80965794514E+01  0.30562270411E+02 -0.30454630028E+02  0.43898649884E+02  0.00000000000E+00 0.  1.
<mgrwt>
<rscale>  2 0.95784385E+02</rscale>
<asrwt>0</asrwt>
<pdfrwt beam="1">  1       21 0.43535036E-02 0.95784385E+02</pdfrwt>
<pdfrwt beam="2">  1       21 0.51717578E-01 0.95784385E+02</pdfrwt>
<totfact> 0.12022432E+06</totfact>
</mgrwt>
</event>
<event>
 5    1  0.1959123E+000  0.9312288E+02  0.7546771E-02  0.1295461E+00
         21   -1    0    0  501  502  0.00000000000E+00  0.00000000000E+00  0.37641456388E+02  0.37641456388E+02  0.00000000000E+00 0. -1.
         21   -1    0    0  502  503 -0.00000000000E+00 -0.00000000000E+00 -0.47558924202E+03  0.47558924202E+03  0.00000000000E+00 0.  1.
         24    1    1    2    0    0 -0.51718425110E+02  0.31938829289E+02 -0.21510790168E+03  0.23755738177E+03  0.80419002446E+02 0. -1.
          1    1    1    2  501    0  0.25763052009E+02 -0.48310828125E+02 -0.42235408886E+01  0.54913652770E+02  0.00000000000E+00 0. -1.
         -2    1    1    2    0  503  0.25955373101E+02  0.16371998836E+02 -0.21861634306E+03  0.22075966387E+03  0.00000000000E+00 0.  1.
<mgrwt>
<rscale>  2 0.93122876E+02</rscale>
<asrwt>0</asrwt>
<pdfrwt beam="1">  1       21 0.57909937E-02 0.93122876E+02</pdfrwt>
<pdfrwt beam="2">  1       21 0.73167570E-01 0.93122876E+02</pdfrwt>
<totfact> 0.35886121E+05</totfact>
</mgrwt>
</event>
<event>
 5    1  0.1959123E+000  0.9389538E+02  0.7546771E-02  0.1293684E+00
         21   -1    0    0  503  502  0.00000000000E+00  0.00000000000E+00  0.56583807398E+01  0.56583807398E+01  0.00000000000E+00 0.  1.
         21   -1    0    0  501  503 -0.00000000000E+00 -0.00000000000E+00 -0.25584082835E+04  0.25584082835E+04  0.00000000000E+00 0. -1.
         24    1    1    2    0    0 -0.14747943620E+02  0.55996888692E+02 -0.18642077448E+04  0.18668398124E+04  0.80419002446E+02 0. -1.
          1    1    1    2  501    0 -0.23576566341E+02 -0.41478202909E+02 -0.56612466359E+03  0.56813152572E+03  0.00000000000E+00 0. -1.
         -2    1    1    2    0  502  0.38324509961E+02 -0.14518685783E+02 -0.12241749438E+03  0.12909532614E+03  0.00000000000E+00 0.  1.
<mgrwt>
<rscale>  2 0.93895379E+02</rscale>
<asrwt>0</asrwt>
<pdfrwt beam="1">  1       21 0.87051685E-03 0.93895379E+02</pdfrwt>
<pdfrwt beam="2">  1       21 0.39360275E+00 0.93895379E+02</pdfrwt>
<totfact> 0.51770536E+04</totfact>
</mgrwt>
</event>
<event>
 5    1  0.1959123E+000  0.1084499E+03  0.7546771E-02  0.1263468E+00
         21   -1    0    0  501  502  0.00000000000E+00  0.00000000000E+00  0.53797389643E+02  0.53797389643E+02  0.00000000000E+00 0. -1.
         21   -1    0    0  502  503 -0.00000000000E+00 -0.00000000000E+00 -0.22861048075E+03  0.22861048075E+03  0.00000000000E+00 0. -1.
         24    1    1    2    0    0  0.62584057236E+02  0.16589957142E+02 -0.53939768457E+02  0.11648478645E+03  0.80419002446E+02 0. -1.
          1    1    1    2  501    0 -0.81296440338E+02  0.91757960998E+01 -0.88002665514E+02  0.12015729517E+03  0.00000000000E+00 0. -1.
         -2    1    1    2    0  503  0.18712383102E+02 -0.25765753242E+02 -0.32870657137E+02  0.45765788773E+02  0.00000000000E+00 0.  1.
<mgrwt>
<rscale>  2 0.10844993E+03</rscale>
<asrwt>0</asrwt>
<pdfrwt beam="1">  1       21 0.82765216E-02 0.10844993E+03</pdfrwt>
<pdfrwt beam="2">  1       21 0.35170843E-01 0.10844993E+03</pdfrwt>
<totfact> 0.88282162E+05</totfact>
</mgrwt>
</event>
<event>
 5    1  0.1959123E+000  0.7400664E+02  0.7546771E-02  0.1346975E+00
         21   -1    0    0  503  502  0.00000000000E+00  0.00000000000E+00  0.84830801335E+01  0.84830801335E+01  0.00000000000E+00 0. -1.
         21   -1    0    0  501  503 -0.00000000000E+00 -0.00000000000E+00 -0.67327441821E+03  0.67327441821E+03  0.00000000000E+00 0.  1.
         24    1    1    2    0    0 -0.27550474046E+01  0.15969985006E+02 -0.29921190316E+03  0.31025410498E+03  0.80419002446E+02 0. -1.
          1    1    1    2  501    0  0.25449296810E+02 -0.29966105509E+02 -0.20763356454E+03  0.21132281304E+03  0.00000000000E+00 0. -1.
         -2    1    1    2    0  502 -0.22694249405E+02  0.13996120503E+02 -0.15794587037E+03  0.16018058032E+03  0.00000000000E+00 0.  1.
<mgrwt>
<rscale>  2 0.74006643E+02</rscale>
<asrwt>0</asrwt>
<pdfrwt beam="1">  1       21 0.13050894E-02 0.74006643E+02</pdfrwt>
<pdfrwt beam="2">  1       21 0.10358067E+00 0.74006643E+02</pdfrwt>
<totfact> 0.18328920E+06</totfact>
</mgrwt>
</event>
<event>
 5    1  0.1959123E+000  0.8676924E+02  0.7546771E-02  0.1310870E+00
         21   -1    0    0  501  502  0.00000000000E+00  0.00000000000E+00  0.46642925542E+03  0.46642925542E+03  0.00000000000E+00 0. -1.
         21   -1    0    0  502  503 -0.00000000000E+00 -0.00000000000E+00 -0.15522015039E+03  0.15522015039E+03  0.00000000000E+00 0.  1.
         24    1    1    2    0    0 -0.23550015667E+02  0.16750588125E+02 -0.13321273095E+02  0.86486170638E+02  0.80419002446E+02 0.  0.
          1    1    1    2  501    0  0.45284538366E+02  0.16638484982E+02  0.42466373587E+03  0.42739538739E+03  0.00000000000E+00 0. -1.
         -2    1    1    2    0  503 -0.21734522700E+02 -0.33389073107E+02 -0.10013335776E+03  0.10776784778E+03  0.00000000000E+00 0.  1.
<mgrwt>
<rscale>  2 0.86769241E+02</rscale>
<asrwt>0</asrwt>
<pdfrwt beam="1">  1       21 0.71758346E-01 0.86769241E+02</pdfrwt>
<pdfrwt beam="2">  1       21 0.23880023E-01 0.86769241E+02</pdfrwt>
<totfact> 0.31129416E+04</totfact>
</mgrwt>
</event>
<event>
 5    1  0.1959123E+000  0.6712944E+02  0.7546771E-02  0.1370136E+00
         21   -1    0    0  503  502  0.00000000000E+00  0.00000000000E+00  0.27700683627E+02  0.27700683627E+02  0.00000000000E+00 0.  1.
         21   -1    0    0  501  503 -0.00000000000E+00 -0.00000000000E+00 -0.36757793347E+03  0.36757793347E+03  0.00000000000E+00 0.  1.
         24    1    1    2    0    0 -0.59003686857E+01  0.38253028467E+01 -0.30672049961E+03  0.31716577389E+03  0.80419002446E+02 0.  1.
          1    1    1    2  501    0  0.19826407189E+02  0.18567462923E+02 -0.42242016766E+02  0.50221759048E+02  0.00000000000E+00 0. -1.
         -2    1    1    2    0  502 -0.13926038503E+02 -0.22392765770E+02  0.90852665370E+01  0.27891084154E+02  0.00000000000E+00 0.  1.
<mgrwt>
<rscale>  2 0.67129444E+02</rscale>
<asrwt>0</asrwt>
<pdfrwt beam="1">  1       21 0.42616440E-02 0.67129444E+02</pdfrwt>
<pdfrwt beam="2">  1       21 0.56550447E-01 0.67129444E+02</pdfrwt>
<totfact> 0.10276695E+06</totfact>
</mgrwt>
</event>
<event>
 5    1  0.1959123E+000  0.1125613E+03  0.7546771E-02  0.1255899E+00
         21   -1    0    0  501  502  0.00000000000E+00  0.00000000000E+00  0.43268249145E+02  0.43268249145E+02  0.00000000000E+00 0.  1.
         21   -1    0    0  502  503 -0.00000000000E+00 -0.00000000000E+00 -0.37243609484E+03  0.37243609484E+03  0.00000000000E+00 0.  1.
         24    1    1    2    0    0 -0.10634067227E+02 -0.40929602895E+02 -0.20649882662E+03  0.22560429324E+03  0.80419002446E+02 0.  1.
          1    1    1    2  501    0 -0.50132595262E+02  0.52293839004E+02 -0.29351096848E+02  0.78162712285E+02  0.00000000000E+00 0. -1.
         -2    1    1    2    0  503  0.60766662489E+02 -0.11364236110E+02 -0.93317922230E+02  0.11193733846E+03  0.00000000000E+00 0.  1.
<mgrwt>
<rscale>  2 0.11256134E+03</rscale>
<asrwt>0</asrwt>
<pdfrwt beam="1">  1       21 0.66566537E-02 0.11256134E+03</pdfrwt>
<pdfrwt beam="2">  1       21 0.57297861E-01 0.11256134E+03</pdfrwt>
<totfact> 0.47708855E+05</totfact>
</mgrwt>
</event>
<event>
 5    1  0.1959123E+000  0.7519877E+02  0.7546771E-02  0.1343257E+00
         21   -1    0    0  501  502  0.00000000000E+00  0.00000000000E+00  0.52395061797E+01  0.52395061797E+01  0.00000000000E+00 0. -1.
         21   -1    0    0  502  503 -0.00000000000E+00 -0.00000000000E+00 -0.23086173332E+04  0.23086173332E+04  0.00000000000E+00 0. -1.
         24    1    1    2    0    0 -0.20862921735E+02 -0.34577515127E+02 -0.14250042336E+04  0.14278428302E+04  0.80419002446E+02 0. -1.
          1    1    1    2  501    0  0.30371427851E+02  0.69033791465E+01 -0.64619404265E+02  0.71733867043E+02  0.00000000000E+00 0. -1.
         -2    1    1    2    0  503 -0.95085061162E+01  0.27674135981E+02 -0.81375418909E+03  0.81428014206E+03  0.00000000000E+00 0.  1.
<mgrwt>
<rscale>  2 0.75198769E+02</rscale>
<asrwt>0</asrwt>
<pdfrwt beam="1">  1       21 0.80607991E-03 0.75198769E+02</pdfrwt>
<pdfrwt beam="2">  1       21 0.35517100E+00 0.75198769E+02</pdfrwt>
<totfact> 0.10149845E+05</totfact>
</mgrwt>
</event>
<event>
 5    1  0.1959123E+000  0.9374681E+02  0.7546771E-02  0.1294024E+00
         21   -1    0    0  501  502  0.00000000000E+00  0.00000000000E+00  0.29530758473E+02  0.29530758473E+02  0.00000000000E+00 0. -1.
         21   -1    0    0  502  503 -0.00000000000E+00 -0.00000000000E+00 -0.41865056958E+03  0.41865056958E+03  0.00000000000E+00 0. -1.
         24    1    1    2    0    0  0.13236757323E+02 -0.34459337838E+02 -0.19706214304E+03  0.21601704072E+03  0.80419002446E+02 0. -1.
          1    1    1    2  501    0  0.39775468072E+02  0.13547322789E+02 -0.12588317117E+02  0.43864376696E+02  0.00000000000E+00 0. -1.
         -2    1    1    2    0  503 -0.53012225395E+02  0.20912015049E+02 -0.17946935095E+03  0.18829991063E+03  0.00000000000E+00 0.  1.
<mgrwt>
<rscale>  2 0.93746810E+02</rscale>
<asrwt>0</asrwt>
<pdfrwt beam="1">  1       21 0.45431937E-02 0.93746810E+02</pdfrwt>
<pdfrwt beam="2">  1       21 0.64407778E-01 0.93746810E+02</pdfrwt>
<totfact> 0.70776379E+05</totfact>
</mgrwt>
</event>
<event>
 5    1  0.1959123E+000  0.7186485E+02  0.7546771E-02  0.1353864E+00
         21   -1    0    0  501  502  0.00000000000E+00  0.00000000000E+00  0.26356113366E+03  0.26356113366E+03  0.00000000000E+00 0. -1.
         21   -1    0    0  502  503 -0.00000000000E+00 -0.00000000000E+00 -0.31174519548E+02  0.31174519548E+02  0.00000000000E+00 0.  1.
         24    1    1    2    0    0  0.45833755306E+01  0.23180403773E+02  0.76303036331E+02  0.11334772939E+03  0.80419002446E+02 0.  0.
          1    1    1    2  501    0  0.24541141689E+02 -0.35691794850E+01  0.14101542776E+03  0.14317945923E+03  0.00000000000E+00 0. -1.
         -2    1    1    2    0  503 -0.29124517220E+02 -0.19611224288E+02  0.15068150019E+02  0.38208464590E+02  0.00000000000E+00 0.  1.
<mgrwt>
<rscale>  2 0.71864848E+02</rscale>
<asrwt>0</asrwt>
<pdfrwt beam="1">  1       21 0.40547865E-01 0.71864848E+02</pdfrwt>
<pdfrwt beam="2">  1       21 0.47960801E-02 0.71864848E+02</pdfrwt>
<totfact> 0.16572100E+06</totfact>
</mgrwt>
</event>
<event>
 5    1  0.1959123E+000  0.7118571E+02  0.7546771E-02  0.1356107E+00
         21   -1    0    0  501  502  0.00000000000E+00  0.00000000000E+00  0.19453730319E+03  0.19453730319E+03  0.00000000000E+00 0. -1.
         21   -1    0    0  502  503 -0.00000000000E+00 -0.00000000000E+00 -0.14492985028E+03  0.14492985028E+03  0.00000000000E+00 0. -1.
         24    1    1    2    0    0  0.33316362994E+02 -0.32873183902E+02 -0.61386571955E+02  0.11147265779E+03  0.80419002446E+02 0. -1.
          1    1    1    2  501    0 -0.10600488666E+02  0.21385232342E+02  0.16582960459E+03  0.16753852178E+03  0.00000000000E+00 0. -1.
         -2    1    1    2    0  503 -0.22715874328E+02  0.11487951561E+02 -0.54835579726E+02  0.60455973910E+02  0.00000000000E+00 0.  1.
<mgrwt>
<rscale>  2 0.71185707E+02</rscale>
<asrwt>0</asrwt>
<pdfrwt beam="1">  1       21 0.29928816E-01 0.71185707E+02</pdfrwt>
<pdfrwt beam="2">  1       21 0.22296900E-01 0.71185707E+02</pdfrwt>
<totfact> 0.20829063E+05</totfact>
</mgrwt>
</event>
<event>
 5    1  0.1959123E+000  0.1208714E+03  0.7546771E-02  0.1241666E+00
         21   -1    0    0  503  502  0.00000000000E+00  0.00000000000E+00  0.62500410657E+02  0.62500410657E+02  0.00000000000E+00 0.  1.
         21   -1    0    0  501  503 -0.00000000000E+00 -0.00000000000E+00 -0.32049010081E+03  0.32049010081E+03  0.00000000000E+00 0. -1.
         24    1    1    2    0    0  0.17760740736E+02  0.94285864857E+02 -0.21380526451E+03  0.24776031827E+03  0.80419002446E+02 0. -1.
          1    1    1    2  501    0  0.15370948762E+02 -0.78248720764E+02 -0.54992293405E+02  0.96867335573E+02  0.00000000000E+00 0. -1.
         -2    1    1    2    0  502 -0.33131689498E+02 -0.16037144093E+02  0.10807867760E+02  0.38362857625E+02  0.00000000000E+00 0.  1.
<mgrwt>
<rscale>  2 0.12087144E+03</rscale>
<asrwt>0</asrwt>
<pdfrwt beam="1">  1       21 0.96154479E-02 0.12087144E+03</pdfrwt>
<pdfrwt beam="2">  1       21 0.49306169E-01 0.12087144E+03</pdfrwt>
<totfact> 0.34581783E+05</totfact>
</mgrwt>
</event>
<event>
 5    1  0.1959123E+000  0.6827375E+02  0.7546771E-02  0.1366064E+00
         21   -1    0    0  503  502  0.00000000000E+00  0.00000000000E+00  0.86640834224E+01  0.86640834224E+01  0.00000000000E+00 0.  1.
         21   -1    0    0  501  503 -0.00000000000E+00 -0.00000000000E+00 -0.57277779277E+03  0.57277779277E+03  0.00000000000E+00 0. -1.
         24    1    1    2    0    0  0.38313458801E+01 -0.22175990407E+02 -0.27166247446E+03  0.28420796918E+03  0.80419002446E+02 0.  0.
          1    1    1    2  501    0 -0.24544689970E+02  0.20983053280E+02 -0.18526669468E+03  0.18805977371E+03  0.00000000000E+00 0. -1.
         -2    1    1    2    0  502  0.20713344090E+02  0.11929371265E+01 -0.10718454021E+03  0.10917413330E+03  0.00000000000E+00 0.  1.
<mgrwt>
<rscale>  2 0.68273752E+02</rscale>
<asrwt>0</asrwt>
<pdfrwt beam="1">  1       21 0.13329357E-02 0.68273752E+02</pdfrwt>
<pdfrwt beam="2">  1       21 0.88119672E-01 0.68273752E+02</pdfrwt>
<totfact> 0.25519713E+06</totfact>
</mgrwt>
</event>
<event>
 5    1  0.1959123E+000  0.1270431E+03  0.7546771E-02  0.1231910E+00
         21   -1    0    0  501  502  0.00000000000E+00  0.00000000000E+00  0.11645846895E+03  0.11645846895E+03  0.00000000000E+00 0. -1.
         21   -1    0    0  502  503 -0.00000000000E+00 -0.00000000000E+00 -0.30503894947E+03  0.30503894947E+03  0.00000000000E+00 0.  1.
         24    1    1    2    0    0 -0.53899226009E+01 -0.10884573777E+03  0.10236888159E+01  0.13544264391E+03  0.80419002446E+02 0. -1.
          1    1    1    2  501    0  0.26286119642E+02  0.63007854511E+02  0.19473210564E+02  0.70994054297E+02  0.00000000000E+00 0. -1.
         -2    1    1    2    0  503 -0.20896197041E+02  0.45837883262E+02 -0.20907737990E+03  0.21506072021E+03  0.00000000000E+00 0.  1.
<mgrwt>
<rscale>  2 0.12704307E+03</rscale>
<asrwt>0</asrwt>
<pdfrwt beam="1">  1       21 0.17916688E-01 0.12704307E+03</pdfrwt>
<pdfrwt beam="2">  1       21 0.46929068E-01 0.12704307E+03</pdfrwt>
<totfact> 0.12594485E+05</totfact>
</mgrwt>
</event>
<event>
 5    1  0.1959123E+000  0.7547859E+02  0.7546771E-02  0.1342395E+00
         21   -1    0    0  501  502  0.00000000000E+00  0.00000000000E+00  0.10997479866E+04  0.10997479866E+04  0.00000000000E+00 0.  1.
         21   -1    0    0  502  503 -0.00000000000E+00 -0.00000000000E+00 -0.69283974641E+01  0.69283974641E+01  0.00000000000E+00 0.  1.
         24    1    1    2    0    0 -0.44326323045E+02 -0.30800974591E+02  0.88966977479E+03  0.89492628025E+03  0.80419002446E+02 0.  1.
          1    1    1    2  501    0  0.21808868232E+02  0.12912760576E+02  0.14112353417E+03  0.14338137262E+03  0.00000000000E+00 0. -1.
         -2    1    1    2    0  503  0.22517454812E+02  0.17888214014E+02  0.62026280157E+02  0.68368731171E+02  0.00000000000E+00 0.  1.
<mgrwt>
<rscale>  2 0.75478591E+02</rscale>
<asrwt>0</asrwt>
<pdfrwt beam="1">  1       21 0.16919186E+00 0.75478591E+02</pdfrwt>
<pdfrwt beam="2">  1       21 0.10659082E-02 0.75478591E+02</pdfrwt>
<totfact> 0.75470819E+05</totfact>
</mgrwt>
</event>
<event>
 5    1  0.1959123E+000  0.9311909E+02  0.7546771E-02  0.1295469E+00
         21   -1    0    0  503  502  0.00000000000E+00  0.00000000000E+00  0.10624069221E+03  0.10624069221E+03  0.00000000000E+00 0. -1.
         21   -1    0    0  501  503 -0.00000000000E+00 -0.00000000000E+00 -0.27823487811E+03  0.27823487811E+03  0.00000000000E+00 0. -1.
         24    1    1    2    0    0  0.30912734101E+02 -0.17157198313E+02 -0.29405603377E+02  0.92638394027E+02  0.80419002446E+02 0. -1.
          1    1    1    2  501    0 -0.63267362700E+02  0.37816006519E+01 -0.20811073060E+03  0.21754800821E+03  0.00000000000E+00 0. -1.
         -2    1    1    2    0  502  0.32354628599E+02  0.13375597661E+02  0.65522148079E+02  0.74289168076E+02  0.00000000000E+00 0.  1.
<mgrwt>
<rscale>  2 0.93119091E+02</rscale>
<asrwt>0</asrwt>
<pdfrwt beam="1">  1       21 0.16344722E-01 0.93119091E+02</pdfrwt>
<pdfrwt beam="2">  1       21 0.42805366E-01 0.93119091E+02</pdfrwt>
<totfact> 0.18135602E+05</totfact>
</mgrwt>
</event>
<event>
 5    1  0.1959123E+000  0.1056426E+03  0.7546771E-02  0.1268859E+00
         21   -1    0    0  501  502  0.00000000000E+00  0.00000000000E+00  0.20384916899E+03  0.20384916899E+03  0.00000000000E+00 0.  1.
         21   -1    0    0  502  503 -0.00000000000E+00 -0.00000000000E+00 -0.58554423537E+02  0.58554423537E+02  0.00000000000E+00 0. -1.
         24    1    1    2    0    0 -0.34958070910E+02  0.20991067143E+02  0.95090049431E+02  0.13104207369E+03  0.80419002446E+02 0.  0.
          1    1    1    2  501    0  0.32353221088E+02 -0.67333859223E+02  0.35196517713E+02  0.82579503338E+02  0.00000000000E+00 0. -1.
         -2    1    1    2    0  503  0.26048498224E+01  0.46342792079E+02  0.15008178314E+02  0.48782015503E+02  0.00000000000E+00 0.  1.
<mgrwt>
<rscale>  2 0.10564261E+03</rscale>
<asrwt>0</asrwt>
<pdfrwt beam="1">  1       21 0.31361410E-01 0.10564261E+03</pdfrwt>
<pdfrwt beam="2">  1       21 0.90083730E-02 0.10564261E+03</pdfrwt>
<totfact> 0.95275141E+05</totfact>
</mgrwt>
</event>
<event>
 5    1  0.1959123E+000  0.8865673E+02  0.7546771E-02  0.1306138E+00
         21   -1    0    0  503  502  0.00000000000E+00  0.00000000000E+00  0.68037557608E+02  0.68037557608E+02  0.00000000000E+00 0.  1.
         21   -1    0    0  501  503 -0.00000000000E+00 -0.00000000000E+00 -0.12065567696E+03  0.12065567696E+03  0.00000000000E+00 0. -1.
         24    1    1    2    0    0 -0.45506528025E+02 -0.34191785797E+01 -0.36422686905E+02  0.99379892085E+02  0.80419002446E+02 0.  0.
          1    1    1    2  501    0  0.25023009573E+00  0.31557119583E+02 -0.17344709974E+02  0.36010462029E+02  0.00000000000E+00 0. -1.
         -2    1    1    2    0  502  0.45256297930E+02 -0.28137941003E+02  0.11492775238E+01  0.53302880457E+02  0.00000000000E+00 0.  1.
<mgrwt>
<rscale>  2 0.88656732E+02</rscale>
<asrwt>0</asrwt>
<pdfrwt beam="1">  1       21 0.10467317E-01 0.88656732E+02</pdfrwt>
<pdfrwt beam="2">  1       21 0.18562412E-01 0.88656732E+02</pdfrwt>
<totfact> 0.19495628E+06</totfact>
</mgrwt>
</event>
<event>
 5    1  0.1959123E+000  0.1575079E+03  0.7546771E-02  0.1191539E+00
         21   -1    0    0  501  502  0.00000000000E+00  0.00000000000E+00  0.13722118211E+03  0.13722118211E+03  0.00000000000E+00 0. -1.
         21   -1    0    0  502  503 -0.00000000000E+00 -0.00000000000E+00 -0.33311129276E+03  0.33311129276E+03  0.00000000000E+00 0.  1.
         24    1    1    2    0    0 -0.12364369607E+03 -0.11655032858E+02 -0.97925620616E+02  0.17742673558E+03  0.80419002446E+02 0.  1.
          1    1    1    2  501    0  0.11312577031E+03  0.52621244575E+02  0.53422317718E+02  0.13572169804E+03  0.00000000000E+00 0. -1.
         -2    1    1    2    0  503  0.10517925769E+02 -0.40966211717E+02 -0.15138680775E+03  0.15718404126E+03  0.00000000000E+00 0.  1.
<mgrwt>
<rscale>  2 0.15750793E+03</rscale>
<asrwt>0</asrwt>
<pdfrwt beam="1">  1       21 0.21110951E-01 0.15750793E+03</pdfrwt>
<pdfrwt beam="2">  1       21 0.51247891E-01 0.15750793E+03</pdfrwt>
<totfact> 0.76654591E+04</totfact>
</mgrwt>
</event>
<event>
 5    1  0.1959123E+000  0.8840453E+02  0.7546771E-02  0.1306762E+00
         21   -1    0    0  503  502  0.00000000000E+00  0.00000000000E+00  0.54315825600E+02  0.54315825600E+02  0.00000000000E+00 0. -1.
         21   -1    0    0  501  503 -0.00000000000E+00 -0.00000000000E+00 -0.16444785886E+03  0.16444785886E+03  0.00000000000E+00 0. -1.
         24    1    1    2    0    0  0.26683393760E+02  0.56296594256E+02 -0.30141238736E+02  0.10609910581E+03  0.80419002446E+02 0. -1.
          1    1    1    2  501    0 -0.10080054315E+01 -0.48127024755E+02 -0.67651200655E+02  0.83029582299E+02  0.00000000000E+00 0. -1.
         -2    1    1    2    0  502 -0.25675388328E+02 -0.81695695007E+01 -0.12339593869E+02  0.29634996347E+02  0.00000000000E+00 0.  1.
<mgrwt>
<rscale>  2 0.88404534E+02</rscale>
<asrwt>0</asrwt>
<pdfrwt beam="1">  1       21 0.83562809E-02 0.88404534E+02</pdfrwt>
<pdfrwt beam="2">  1       21 0.25299670E-01 0.88404534E+02</pdfrwt>
<totfact> 0.16239437E+06</totfact>
</mgrwt>
</event>
<event>
 5    1  0.1959123E+000  0.8059055E+02  0.7546771E-02  0.1327384E+00
         21   -1    0    0  503  502  0.00000000000E+00  0.00000000000E+00  0.23512814318E+02  0.23512814318E+02  0.00000000000E+00 0.  1.
         21   -1    0    0  501  503 -0.00000000000E+00 -0.00000000000E+00 -0.99272411826E+03  0.99272411826E+03  0.00000000000E+00 0.  1.
         24    1    1    2    0    0 -0.19339201701E+02  0.30243088831E+02 -0.61501984993E+03  0.62129323263E+03  0.80419002446E+02 0.  1.
          1    1    1    2  501    0  0.11006129612E+02  0.19653845135E+02 -0.34221734773E+03  0.34295790063E+03  0.00000000000E+00 0. -1.
         -2    1    1    2    0  502  0.83330720894E+01 -0.49896933965E+02 -0.11974106278E+02  0.51985799318E+02  0.00000000000E+00 0.  1.
<mgrwt>
<rscale>  2 0.80590552E+02</rscale>
<asrwt>0</asrwt>
<pdfrwt beam="1">  1       21 0.36173561E-02 0.80590552E+02</pdfrwt>
<pdfrwt beam="2">  1       21 0.15272679E+00 0.80590552E+02</pdfrwt>
<totfact> 0.13999049E+05</totfact>
</mgrwt>
</event>
<event>
 5    1  0.1959123E+000  0.7957458E+02  0.7546771E-02  0.1330263E+00
         21   -1    0    0  503  502  0.00000000000E+00  0.00000000000E+00  0.41207127297E+03  0.41207127297E+03  0.00000000000E+00 0. -1.
         21   -1    0    0  501  503 -0.00000000000E+00 -0.00000000000E+00 -0.61723367449E+02  0.61723367449E+02  0.00000000000E+00 0. -1.
         24    1    1    2    0    0 -0.10481584374E+02  0.57545484873E+02  0.37155633805E+03  0.38463316906E+03  0.80419002446E+02 0. -1.
          1    1    1    2  501    0  0.81916883744E+00 -0.36943607759E+02 -0.43657258977E+02  0.57196655962E+02  0.00000000000E+00 0. -1.
         -2    1    1    2    0  502  0.96624155365E+01 -0.20601877114E+02  0.22448826447E+02  0.31964815398E+02  0.00000000000E+00 0.  1.
<mgrwt>
<rscale>  2 0.79574575E+02</rscale>
<asrwt>0</asrwt>
<pdfrwt beam="1">  1       21 0.63395579E-01 0.79574575E+02</pdfrwt>
<pdfrwt beam="2">  1       21 0.94959029E-02 0.79574575E+02</pdfrwt>
<totfact> 0.21129950E+05</totfact>
</mgrwt>
</event>
<event>
 5    1  0.1959123E+000  0.1397310E+03  0.7546771E-02  0.1213691E+00
         21   -1    0    0  501  502  0.00000000000E+00  0.00000000000E+00  0.98000116091E+02  0.98000116091E+02  0.00000000000E+00 0. -1.
         21   -1    0    0  502  503 -0.00000000000E+00 -0.00000000000E+00 -0.12506550961E+04  0.12506550961E+04  0.00000000000E+00 0.  1.
         24    1    1    2    0    0  0.59491132821E+01  0.78306320651E+02 -0.82047134603E+02  0.13916256700E+03  0.80419002446E+02 0. -1.
          1    1    1    2  501    0  0.26364700328E+02 -0.11510513141E+03  0.18290088902E+02  0.11949400007E+03  0.00000000000E+00 0. -1.
         -2    1    1    2    0  503 -0.32313813610E+02  0.36798810764E+02 -0.10888979343E+04  0.10899986451E+04  0.00000000000E+00 0.  1.
<mgrwt>
<rscale>  2 0.13973099E+03</rscale>
<asrwt>0</asrwt>
<pdfrwt beam="1">  1       21 0.15076941E-01 0.13973099E+03</pdfrwt>
<pdfrwt beam="2">  1       21 0.19240847E+00 0.13973099E+03</pdfrwt>
<totfact> 0.61589721E+03</totfact>
</mgrwt>
</event>
<event>
 5    1  0.1959123E+000  0.8482730E+02  0.7546771E-02  0.1315885E+00
         21   -1    0    0  503  502  0.00000000000E+00  0.00000000000E+00  0.13817563961E+03  0.13817563961E+03  0.00000000000E+00 0.  1.
         21   -1    0    0  501  503 -0.00000000000E+00 -0.00000000000E+00 -0.16064958089E+03  0.16064958089E+03  0.00000000000E+00 0. -1.
         24    1    1    2    0    0 -0.32688615236E+02  0.28206776335E+02  0.10027645759E+03  0.13559775698E+03  0.80419002446E+02 0.  1.
          1    1    1    2  501    0  0.29638838452E+02  0.16260610385E+02 -0.11253064016E+03  0.11749899221E+03  0.00000000000E+00 0. -1.
         -2    1    1    2    0  502  0.30497767838E+01 -0.44467386721E+02 -0.10219758713E+02  0.45728471310E+02  0.00000000000E+00 0.  1.
<mgrwt>
<rscale>  2 0.84827298E+02</rscale>
<asrwt>0</asrwt>
<pdfrwt beam="1">  1       21 0.21257791E-01 0.84827298E+02</pdfrwt>
<pdfrwt beam="2">  1       21 0.24715320E-01 0.84827298E+02</pdfrwt>
<totfact> 0.32497404E+05</totfact>
</mgrwt>
</event>
<event>
 5    1  0.1959123E+000  0.7146199E+02  0.7546771E-02  0.1355191E+00
         21   -1    0    0  501  502  0.00000000000E+00  0.00000000000E+00  0.15583754222E+02  0.15583754222E+02  0.00000000000E+00 0.  1.
         21   -1    0    0  502  503 -0.00000000000E+00 -0.00000000000E+00 -0.61341152984E+03  0.61341152984E+03  0.00000000000E+00 0.  1.
         24    1    1    2    0    0 -0.11439417990E+01 -0.19290639851E+02 -0.24510816821E+03  0.25868642691E+03  0.80419002446E+02 0.  1.
          1    1    1    2  501    0  0.23112722678E+02 -0.86450534574E+01 -0.11467222085E+02  0.27210881669E+02  0.00000000000E+00 0. -1.
         -2    1    1    2    0  503 -0.21968780879E+02  0.27935693308E+02 -0.34125238532E+03  0.34309797548E+03  0.00000000000E+00 0.  1.
<mgrwt>
<rscale>  2 0.71461993E+02</rscale>
<asrwt>0</asrwt>
<pdfrwt beam="1">  1       21 0.23975006E-02 0.71461993E+02</pdfrwt>
<pdfrwt beam="2">  1       21 0.94371005E-01 0.71461993E+02</pdfrwt>
<totfact> 0.86501605E+05</totfact>
</mgrwt>
</event>
<event>
 5    1  0.1959123E+000  0.9613172E+02  0.7546771E-02  0.1288647E+00
         21   -1    0    0  501  502  0.00000000000E+00  0.00000000000E+00  0.50989068129E+03  0.50989068129E+03  0.00000000000E+00 0. -1.
         21   -1    0    0  502  503 -0.00000000000E+00 -0.00000000000E+00 -0.84855916890E+02  0.84855916890E+02  0.00000000000E+00 0.  1.
         24    1    1    2    0    0  0.21731534733E+02 -0.75324794857E+02  0.28031197453E+03  0.30197367988E+03  0.80419002446E+02 0. -1.
          1    1    1    2  501    0 -0.21207041627E+02  0.46308276200E+02  0.21277749859E+03  0.21878861708E+03  0.00000000000E+00 0. -1.
         -2    1    1    2    0  503 -0.52449310623E+00  0.29016518657E+02 -0.68054708717E+02  0.73984301217E+02  0.00000000000E+00 0.  1.
<mgrwt>
<rscale>  2 0.96131725E+02</rscale>
<asrwt>0</asrwt>
<pdfrwt beam="1">  1       21 0.78444718E-01 0.96131725E+02</pdfrwt>
<pdfrwt beam="2">  1       21 0.13054757E-01 0.96131725E+02</pdfrwt>
<totfact> 0.75986255E+04</totfact>
</mgrwt>
</event>
<event>
 5    1  0.1959123E+000  0.8289469E+02  0.7546771E-02  0.1321032E+00
         21   -1    0    0  501  502  0.00000000000E+00  0.00000000000E+00  0.66010418838E+02  0.66010418838E+02  0.00000000000E+00 0. -1.
         21   -1    0    0  502  503 -0.00000000000E+00 -0.00000000000E+00 -0.19301727616E+03  0.19301727616E+03  0.00000000000E+00 0.  1.
         24    1    1    2    0    0  0.37067046070E+02  0.17431410960E+02 -0.21117474119E+01  0.90274555795E+02  0.80419002446E+02 0. -1.
          1    1    1    2  501    0 -0.50289181281E+02  0.39026537812E+01 -0.10351168980E+02  0.51491544546E+02  0.00000000000E+00 0. -1.
         -2    1    1    2    0  503  0.13222135211E+02 -0.21334064742E+02 -0.11454394093E+03  0.11726159466E+03  0.00000000000E+00 0.  1.
<mgrwt>
<rscale>  2 0.82894693E+02</rscale>
<asrwt>0</asrwt>
<pdfrwt beam="1">  1       21 0.10155449E-01 0.82894693E+02</pdfrwt>
<pdfrwt beam="2">  1       21 0.29694965E-01 0.82894693E+02</pdfrwt>
<totfact> 0.85665914E+05</totfact>
</mgrwt>
</event>
<event>
 5    1  0.1959123E+000  0.6567676E+02  0.7546771E-02  0.1375444E+00
         21   -1    0    0  503  502  0.00000000000E+00  0.00000000000E+00  0.26601081766E+03  0.26601081766E+03  0.00000000000E+00 0.  1.
         21   -1    0    0  501  503 -0.00000000000E+00 -0.00000000000E+00 -0.13338432558E+03  0.13338432558E+03  0.00000000000E+00 0. -1.
         24    1    1    2    0    0  0.97856788743E+01 -0.20174327224E+01  0.19387409865E+02  0.83324169132E+02  0.80419002446E+02 0.  0.
          1    1    1    2  501    0 -0.25164705026E+02 -0.13425258063E+02 -0.98841038240E+02  0.10287395576E+03  0.00000000000E+00 0. -1.
         -2    1    1    2    0  502  0.15379026151E+02  0.15442690786E+02  0.21208012045E+03  0.21319701835E+03  0.00000000000E+00 0.  1.
<mgrwt>
<rscale>  2 0.65676761E+02</rscale>
<asrwt>0</asrwt>
<pdfrwt beam="1">  1       21 0.40924741E-01 0.65676761E+02</pdfrwt>
<pdfrwt beam="2">  1       21 0.20520666E-01 0.65676761E+02</pdfrwt>
<totfact> 0.13283572E+05</totfact>
</mgrwt>
</event>
<event>
 5    1  0.1959123E+000  0.7617682E+02  0.7546771E-02  0.1340265E+00
         21   -1    0    0  501  502  0.00000000000E+00  0.00000000000E+00  0.14194127422E+03  0.14194127422E+03  0.00000000000E+00 0. -1.
         21   -1    0    0  502  503 -0.00000000000E+00 -0.00000000000E+00 -0.10648146060E+03  0.10648146060E+03  0.00000000000E+00 0.  1.
         24    1    1    2    0    0  0.65953793877E+01  0.38611136305E+01  0.10954476918E+03  0.13610907257E+03  0.80419002446E+02 0. -1.
          1    1    1    2  501    0  0.81155262093E+01  0.31893388629E+02 -0.51966382538E+01  0.33317488697E+02  0.00000000000E+00 0. -1.
         -2    1    1    2    0  503 -0.14710905597E+02 -0.35754502260E+02 -0.68888317297E+02  0.78996173549E+02  0.00000000000E+00 0.  1.
<mgrwt>
<rscale>  2 0.76176818E+02</rscale>
<asrwt>0</asrwt>
<pdfrwt beam="1">  1       21 0.21837119E-01 0.76176818E+02</pdfrwt>
<pdfrwt beam="2">  1       21 0.16381763E-01 0.76176818E+02</pdfrwt>
<totfact> 0.65545375E+05</totfact>
</mgrwt>
</event>
<event>
 5    1  0.2460776E+000  0.9013096E+02  0.7546771E-02  0.1302535E+00
         21   -1    0    0  501  502  0.00000000000E+00  0.00000000000E+00  0.92072556773E+03  0.92072556773E+03  0.00000000000E+00 0. -1.
         21   -1    0    0  502  503 -0.00000000000E+00 -0.00000000000E+00 -0.53641139360E+02  0.53641139360E+02  0.00000000000E+00 0.  1.
         24    1    1    2    0    0  0.37921979519E+01  0.31326736829E+02  0.66106461629E+03  0.66668537413E+03  0.80419002446E+02 0. -1.
          1    1    1    2  501    0 -0.11279131544E+02  0.30021350726E+02  0.23657402203E+03  0.23873786505E+03  0.00000000000E+00 0. -1.
         -2    1    1    2    0  503  0.74869335918E+01 -0.61348087555E+02 -0.30554209959E+02  0.68943467910E+02  0.00000000000E+00 0.  1.
<mgrwt>
<rscale>  2 0.90130962E+02</rscale>
<asrwt>0</asrwt>
<pdfrwt beam="1">  1       21 0.14165008E+00 0.90130962E+02</pdfrwt>
<pdfrwt beam="2">  1       21 0.82524837E-02 0.90130962E+02</pdfrwt>
<totfact> 0.42371570E+04</totfact>
</mgrwt>
</event>
<event>
 5    1  0.2037261E+000  0.1577037E+03  0.7546771E-02  0.1191314E+00
         21   -1    0    0  503  502  0.00000000000E+00  0.00000000000E+00  0.41696591519E+03  0.41696591519E+03  0.00000000000E+00 0.  1.
         21   -1    0    0  501  503 -0.00000000000E+00 -0.00000000000E+00 -0.15155080284E+03  0.15155080284E+03  0.00000000000E+00 0. -1.
         24    1    1    2    0    0  0.42371132949E+02  0.68935675633E+02  0.12477317175E+03  0.16906507807E+03  0.80419002446E+02 0.  0.
          1    1    1    2  501    0 -0.39167279380E+02  0.60379586792E+02 -0.10179279005E+03  0.12466572256E+03  0.00000000000E+00 0. -1.
         -2    1    1    2    0  502 -0.32038535684E+01 -0.12931526243E+03  0.24243473065E+03  0.27478591739E+03  0.00000000000E+00 0.  1.
<mgrwt>
<rscale>  2 0.15770368E+03</rscale>
<asrwt>0</asrwt>
<pdfrwt beam="1">  1       21 0.64148602E-01 0.15770368E+03</pdfrwt>
<pdfrwt beam="2">  1       21 0.23315508E-01 0.15770368E+03</pdfrwt>
<totfact> 0.39520734E+04</totfact>
</mgrwt>
</event>
<event>
 5    1  0.1959123E+000  0.8952390E+02  0.7546771E-02  0.1304009E+00
         21   -1    0    0  503  502  0.00000000000E+00  0.00000000000E+00  0.12002615683E+03  0.12002615683E+03  0.00000000000E+00 0. -1.
         21   -1    0    0  501  503 -0.00000000000E+00 -0.00000000000E+00 -0.99750502159E+02  0.99750502159E+02  0.00000000000E+00 0.  1.
         24    1    1    2    0    0  0.60483238468E+02 -0.36328564003E+02  0.15705405822E+02  0.10812891576E+03  0.80419002446E+02 0. -1.
          1    1    1    2  501    0 -0.19242282500E+02  0.19874549358E+02 -0.40065739131E+02  0.48688053977E+02  0.00000000000E+00 0. -1.
         -2    1    1    2    0  502 -0.41240955967E+02  0.16454014645E+02  0.44635987978E+02  0.62959689245E+02  0.00000000000E+00 0.  1.
<mgrwt>
<rscale>  2 0.89523898E+02</rscale>
<asrwt>0</asrwt>
<pdfrwt beam="1">  1       21 0.18465563E-01 0.89523898E+02</pdfrwt>
<pdfrwt beam="2">  1       21 0.15346231E-01 0.89523898E+02</pdfrwt>
<totfact> 0.10033633E+06</totfact>
</mgrwt>
</event>
<event>
 5    1  0.1959123E+000  0.7303603E+02  0.7546771E-02  0.1350063E+00
         21   -1    0    0  503  502  0.00000000000E+00  0.00000000000E+00  0.24447583670E+03  0.24447583670E+03  0.00000000000E+00 0. -1.
         21   -1    0    0  501  503 -0.00000000000E+00 -0.00000000000E+00 -0.31113150847E+02  0.31113150847E+02  0.00000000000E+00 0.  1.
         24    1    1    2    0    0 -0.26092494965E+02  0.36297317367E+02  0.73003234493E+02  0.11745212532E+03  0.80419002446E+02 0.  0.
          1    1    1    2  501    0  0.20775329256E+02 -0.37822848460E+01  0.94318491783E+01  0.23127467723E+02  0.00000000000E+00 0. -1.
         -2    1    1    2    0  502  0.53171657084E+01 -0.32515032521E+02  0.13092760218E+03  0.13500939450E+03  0.00000000000E+00 0.  1.
<mgrwt>
<rscale>  2 0.73036025E+02</rscale>
<asrwt>0</asrwt>
<pdfrwt beam="1">  1       21 0.37611666E-01 0.73036025E+02</pdfrwt>
<pdfrwt beam="2">  1       21 0.47866388E-02 0.73036025E+02</pdfrwt>
<totfact> 0.19277696E+06</totfact>
</mgrwt>
</event>
<event>
 5    1  0.1959123E+000  0.7590334E+02  0.7546771E-02  0.1341096E+00
         21   -1    0    0  503  502  0.00000000000E+00  0.00000000000E+00  0.59373832790E+02  0.59373832790E+02  0.00000000000E+00 0. -1.
         21   -1    0    0  501  503 -0.00000000000E+00 -0.00000000000E+00 -0.10768232074E+03  0.10768232074E+03  0.00000000000E+00 0.  1.
         24    1    1    2    0    0 -0.18544914042E+02  0.16683117676E+02 -0.43378696522E+02  0.94716247384E+02  0.80419002446E+02 0.  1.
          1    1    1    2  501    0  0.38482960600E+02 -0.25122302062E+02 -0.15161295285E+02  0.48393524279E+02  0.00000000000E+00 0. -1.
         -2    1    1    2    0  502 -0.19938046558E+02  0.84391843858E+01  0.10231503853E+02  0.23946381872E+02  0.00000000000E+00 0.  1.
<mgrwt>
<rscale>  2 0.75903342E+02</rscale>
<asrwt>0</asrwt>
<pdfrwt beam="1">  1       21 0.91344360E-02 0.75903342E+02</pdfrwt>
<pdfrwt beam="2">  1       21 0.16566510E-01 0.75903342E+02</pdfrwt>
<totfact> 0.30052274E+06</totfact>
</mgrwt>
</event>
<event>
 5    1  0.1959123E+000  0.9826588E+02  0.7546771E-02  0.1283985E+00
         21   -1    0    0  503  502  0.00000000000E+00  0.00000000000E+00  0.18974632495E+03  0.18974632495E+03  0.00000000000E+00 0.  1.
         21   -1    0    0  501  503 -0.00000000000E+00 -0.00000000000E+00 -0.19085506657E+03  0.19085506657E+03  0.00000000000E+00 0. -1.
         24    1    1    2    0    0 -0.82365796080E+01 -0.18296146814E+02  0.35549685757E+02  0.90186397775E+02  0.80419002446E+02 0.  0.
          1    1    1    2  501    0 -0.39401331808E+02 -0.27117557954E+02 -0.15104919306E+03  0.15844142647E+03  0.00000000000E+00 0. -1.
         -2    1    1    2    0  502  0.47637911416E+02  0.45413704767E+02  0.11439076569E+03  0.13197356728E+03  0.00000000000E+00 0.  1.
<mgrwt>
<rscale>  2 0.98265875E+02</rscale>
<asrwt>0</asrwt>
<pdfrwt beam="1">  1       21 0.29191742E-01 0.98265875E+02</pdfrwt>
<pdfrwt beam="2">  1       21 0.29362318E-01 0.98265875E+02</pdfrwt>
<totfact> 0.12916460E+05</totfact>
</mgrwt>
</event>
<event>
 5    1  0.1959123E+000  0.7341369E+02  0.7546771E-02  0.1348855E+00
         21   -1    0    0  501  502  0.00000000000E+00  0.00000000000E+00  0.25419296594E+03  0.25419296594E+03  0.00000000000E+00 0. -1.
         21   -1    0    0  502  503 -0.00000000000E+00 -0.00000000000E+00 -0.50908633056E+02  0.50908633056E+02  0.00000000000E+00 0. -1.
         24    1    1    2    0    0 -0.37790381387E+02  0.28470858750E+02  0.15827932857E+03  0.18373422253E+03  0.80419002446E+02 0. -1.
          1    1    1    2  501    0  0.58711773469E+01 -0.19501901332E+02  0.74351152540E+02  0.77090134019E+02  0.00000000000E+00 0. -1.
         -2    1    1    2    0  503  0.31919204040E+02 -0.89689574181E+01 -0.29346148219E+02  0.44277242450E+02  0.00000000000E+00 0.  1.
<mgrwt>
<rscale>  2 0.73413692E+02</rscale>
<asrwt>0</asrwt>
<pdfrwt beam="1">  1       21 0.39106609E-01 0.73413692E+02</pdfrwt>
<pdfrwt beam="2">  1       21 0.78320975E-02 0.73413692E+02</pdfrwt>
<totfact> 0.78404133E+05</totfact>
</mgrwt>
</event>
<event>
 5    1  0.1959123E+000  0.7226585E+02  0.7546771E-02  0.1352553E+00
         21   -1    0    0  503  502  0.00000000000E+00  0.00000000000E+00  0.56200757846E+02  0.56200757846E+02  0.00000000000E+00 0.  1.
         21   -1    0    0  501  503 -0.00000000000E+00 -0.00000000000E+00 -0.41399557600E+03  0.41399557600E+03  0.00000000000E+00 0. -1.
         24    1    1    2    0    0 -0.27989630391E+02 -0.49350004862E+01 -0.15110905242E+03  0.17351926497E+03  0.80419002446E+02 0.  0.
          1    1    1    2  501    0 -0.60557036973E+01  0.20810247135E+02 -0.24327454517E+03  0.24423808520E+03  0.00000000000E+00 0. -1.
         -2    1    1    2    0  502  0.34045334088E+02 -0.15875246649E+02  0.36588779430E+02  0.52438983681E+02  0.00000000000E+00 0.  1.
<mgrwt>
<rscale>  2 0.72265854E+02</rscale>
<asrwt>0</asrwt>
<pdfrwt beam="1">  1       21 0.86462703E-02 0.72265854E+02</pdfrwt>
<pdfrwt beam="2">  1       21 0.63691628E-01 0.72265854E+02</pdfrwt>
<totfact> 0.24618113E+05</totfact>
</mgrwt>
</event>
<event>
 5    1  0.1959123E+000  0.6392722E+02  0.7546771E-02  0.1382053E+00
         21   -1    0    0  503  502  0.00000000000E+00  0.00000000000E+00  0.38615304873E+02  0.38615304873E+02  0.00000000000E+00 0.  1.
         21   -1    0    0  501  503 -0.00000000000E+00 -0.00000000000E+00 -0.17015355513E+03  0.17015355513E+03  0.00000000000E+00 0. -1.
         24    1    1    2    0    0 -0.10531310302E+02 -0.19070056429E+02 -0.28936422870E+02  0.88199252104E+02  0.80419002446E+02 0.  1.
          1    1    1    2  501    0  0.22261330262E+02  0.13344755518E+00 -0.94147888952E+02  0.96744041819E+02  0.00000000000E+00 0. -1.
         -2    1    1    2    0  502 -0.11730019961E+02  0.18936608873E+02 -0.84539384334E+01  0.23825566078E+02  0.00000000000E+00 0.  1.
<mgrwt>
<rscale>  2 0.63927217E+02</rscale>
<asrwt>0</asrwt>
<pdfrwt beam="1">  1       21 0.59408162E-02 0.63927217E+02</pdfrwt>
<pdfrwt beam="2">  1       21 0.26177470E-01 0.63927217E+02</pdfrwt>
<totfact> 0.26683997E+06</totfact>
</mgrwt>
</event>
<event>
 5    1  0.1959123E+000  0.1028645E+03  0.7546771E-02  0.1274385E+00
         21   -1    0    0  501  502  0.00000000000E+00  0.00000000000E+00  0.11448584958E+04  0.11448584958E+04  0.00000000000E+00 0. -1.
         21   -1    0    0  502  503 -0.00000000000E+00 -0.00000000000E+00 -0.63621661232E+02  0.63621661232E+02  0.00000000000E+00 0.  1.
         24    1    1    2    0    0 -0.46527660202E+02 -0.23770862553E+02  0.19415911335E+03  0.21655219769E+03  0.80419002446E+02 0. -1.
          1    1    1    2  501    0  0.27862077981E+02 -0.36964299779E+02  0.91945235976E+03  0.92061680232E+03  0.00000000000E+00 0. -1.
         -2    1    1    2    0  503  0.18665582221E+02  0.60735162332E+02 -0.32374638507E+02  0.71311157062E+02  0.00000000000E+00 0.  1.
<mgrwt>
<rscale>  2 0.10286449E+03</rscale>
<asrwt>0</asrwt>
<pdfrwt beam="1">  1       21 0.17613206E+00 0.10286449E+03</pdfrwt>
<pdfrwt beam="2">  1       21 0.97879487E-02 0.10286449E+03</pdfrwt>
<totfact> 0.17660494E+04</totfact>
</mgrwt>
</event>
<event>
 5    1  0.1959123E+000  0.1003156E+03  0.7546771E-02  0.1279634E+00
         21   -1    0    0  501  502  0.00000000000E+00  0.00000000000E+00  0.77083917983E+02  0.77083917983E+02  0.00000000000E+00 0. -1.
         21   -1    0    0  502  503 -0.00000000000E+00 -0.00000000000E+00 -0.45719325785E+03  0.45719325785E+03  0.00000000000E+00 0.  1.
         24    1    1    2    0    0  0.27289408011E+02  0.20207433701E+01 -0.76980780602E+02  0.11463878807E+03  0.80419002446E+02 0.  1.
          1    1    1    2  501    0  0.20073956299E+02 -0.46538384134E+02  0.43608238589E+02  0.66861524004E+02  0.00000000000E+00 0. -1.
         -2    1    1    2    0  503 -0.47363364310E+02  0.44517640764E+02 -0.34673679786E+03  0.35277686376E+03  0.00000000000E+00 0.  1.
<mgrwt>
<rscale>  2 0.10031556E+03</rscale>
<asrwt>0</asrwt>
<pdfrwt beam="1">  1       21 0.11859064E-01 0.10031556E+03</pdfrwt>
<pdfrwt beam="2">  1       21 0.70337425E-01 0.10031556E+03</pdfrwt>
<totfact> 0.11398889E+05</totfact>
</mgrwt>
</event>
<event>
 5    1  0.1959123E+000  0.8256481E+02  0.7546771E-02  0.1321927E+00
         21   -1    0    0  501  502  0.00000000000E+00  0.00000000000E+00  0.71372737193E+02  0.71372737193E+02  0.00000000000E+00 0. -1.
         21   -1    0    0  502  503 -0.00000000000E+00 -0.00000000000E+00 -0.14409068788E+03  0.14409068788E+03  0.00000000000E+00 0.  1.
         24    1    1    2    0    0 -0.21037307046E+01 -0.60865540265E+02 -0.84540752379E+01  0.10123105757E+03  0.80419002446E+02 0.  1.
          1    1    1    2  501    0  0.10695939875E+02  0.22184337594E+02  0.12668428634E+02  0.27695433709E+02  0.00000000000E+00 0. -1.
         -2    1    1    2    0  503 -0.85922091708E+01  0.38681202671E+02 -0.76932304079E+02  0.86536933788E+02  0.00000000000E+00 0.  1.
<mgrwt>
<rscale>  2 0.82564812E+02</rscale>
<asrwt>0</asrwt>
<pdfrwt beam="1">  1       21 0.10980421E-01 0.82564812E+02</pdfrwt>
<pdfrwt beam="2">  1       21 0.22167798E-01 0.82564812E+02</pdfrwt>
<totfact> 0.12930157E+06</totfact>
</mgrwt>
</event>
<event>
 5    1  0.1959123E+000  0.1030137E+03  0.7546771E-02  0.1274083E+00
         21   -1    0    0  501  502  0.00000000000E+00  0.00000000000E+00  0.15770220844E+04  0.15770220844E+04  0.00000000000E+00 0. -1.
         21   -1    0    0  502  503 -0.00000000000E+00 -0.00000000000E+00 -0.10014958847E+02  0.10014958847E+02  0.00000000000E+00 0.  1.
         24    1    1    2    0    0 -0.14624607232E+02  0.72303943440E+02  0.46500126527E+03  0.47763493594E+03  0.80419002446E+02 0.  1.
          1    1    1    2  501    0  0.39524067869E+02 -0.46786840305E+02  0.98924574773E+03  0.99113990424E+03  0.00000000000E+00 0. -1.
         -2    1    1    2    0  503 -0.24899460637E+02 -0.25517103135E+02  0.11276011258E+03  0.11826220310E+03  0.00000000000E+00 0.  1.
<mgrwt>
<rscale>  2 0.10301372E+03</rscale>
<asrwt>0</asrwt>
<pdfrwt beam="1">  1       21 0.24261858E+00 0.10301372E+03</pdfrwt>
<pdfrwt beam="2">  1       21 0.15407642E-02 0.10301372E+03</pdfrwt>
<totfact> 0.14764830E+05</totfact>
</mgrwt>
</event>
<event>
 5    1  0.1959123E+000  0.9967741E+02  0.7546771E-02  0.1280976E+00
         21   -1    0    0  503  502  0.00000000000E+00  0.00000000000E+00  0.54332879360E+02  0.54332879360E+02  0.00000000000E+00 0. -1.
         21   -1    0    0  501  503 -0.00000000000E+00 -0.00000000000E+00 -0.22862496721E+03  0.22862496721E+03  0.00000000000E+00 0.  1.
         24    1    1    2    0    0 -0.45746392736E+02  0.17354490098E+02 -0.14176144020E+03  0.17016883574E+03  0.80419002446E+02 0.  0.
          1    1    1    2  501    0 -0.27155095858E+02 -0.17525859285E+02 -0.22080604425E+02  0.39142152042E+02  0.00000000000E+00 0. -1.
         -2    1    1    2    0  502  0.72901488594E+02  0.17136918657E+00 -0.10450043232E+02  0.73646858794E+02  0.00000000000E+00 0.  1.
<mgrwt>
<rscale>  2 0.99677412E+02</rscale>
<asrwt>0</asrwt>
<pdfrwt beam="1">  1       21 0.83589045E-02 0.99677412E+02</pdfrwt>
<pdfrwt beam="2">  1       21 0.35173072E-01 0.99677412E+02</pdfrwt>
<totfact> 0.86700416E+05</totfact>
</mgrwt>
</event>
<event>
 5    1  0.1959123E+000  0.1617794E+03  0.7546771E-02  0.1186702E+00
         21   -1    0    0  501  502  0.00000000000E+00  0.00000000000E+00  0.23402311647E+03  0.23402311647E+03  0.00000000000E+00 0. -1.
         21   -1    0    0  502  503 -0.00000000000E+00 -0.00000000000E+00 -0.11607823085E+03  0.11607823085E+03  0.00000000000E+00 0. -1.
         24    1    1    2    0    0 -0.15144603611E+03  0.57522638125E+01  0.87578103982E+02  0.19262951655E+03  0.80419002446E+02 0. -1.
          1    1    1    2  501    0  0.10107179979E+03 -0.92448261730E+01  0.33500161784E+02  0.10687954137E+03  0.00000000000E+00 0. -1.
         -2    1    1    2    0  503  0.50374236318E+02  0.34925623604E+01 -0.31333801434E+01  0.50592289409E+02  0.00000000000E+00 0.  1.
<mgrwt>
<rscale>  2 0.16177936E+03</rscale>
<asrwt>0</asrwt>
<pdfrwt beam="1">  1       21 0.36003556E-01 0.16177936E+03</pdfrwt>
<pdfrwt beam="2">  1       21 0.17858189E-01 0.16177936E+03</pdfrwt>
<totfact> 0.21381799E+05</totfact>
</mgrwt>
</event>
<event>
 5    1  0.1959123E+000  0.7110582E+02  0.7546771E-02  0.1356373E+00
         21   -1    0    0  501  502  0.00000000000E+00  0.00000000000E+00  0.43442217173E+02  0.43442217173E+02  0.00000000000E+00 0. -1.
         21   -1    0    0  502  503 -0.00000000000E+00 -0.00000000000E+00 -0.11661751046E+03  0.11661751046E+03  0.00000000000E+00 0. -1.
         24    1    1    2    0    0 -0.26052835759E+02 -0.84707908718E+01 -0.46994270936E+02  0.97088526635E+02  0.80419002446E+02 0. -1.
          1    1    1    2  501    0  0.34982250399E+02 -0.10300776300E+02 -0.17393289983E+02  0.40402851036E+02  0.00000000000E+00 0. -1.
         -2    1    1    2    0  503 -0.89294146401E+01  0.18771567172E+02 -0.87877323716E+01  0.22568349965E+02  0.00000000000E+00 0.  1.
<mgrwt>
<rscale>  2 0.71105815E+02</rscale>
<asrwt>0</asrwt>
<pdfrwt beam="1">  1       21 0.66834182E-02 0.71105815E+02</pdfrwt>
<pdfrwt beam="2">  1       21 0.17941155E-01 0.71105815E+02</pdfrwt>
<totfact> 0.44049625E+06</totfact>
</mgrwt>
</event>
<event>
 5    1  0.1959123E+000  0.7033557E+02  0.7546771E-02  0.1358956E+00
         21   -1    0    0  503  502  0.00000000000E+00  0.00000000000E+00  0.27088170512E+02  0.27088170512E+02  0.00000000000E+00 0.  1.
         21   -1    0    0  501  503 -0.00000000000E+00 -0.00000000000E+00 -0.45480650023E+03  0.45480650023E+03  0.00000000000E+00 0. -1.
         24    1    1    2    0    0 -0.38232405429E+02  0.20606549447E+01 -0.18994963053E+03  0.20979523640E+03  0.80419002446E+02 0. -1.
          1    1    1    2  501    0  0.16757671071E+02 -0.18199632334E+02 -0.24339858126E+03  0.24465264257E+03  0.00000000000E+00 0. -1.
         -2    1    1    2    0  502  0.21474734358E+02  0.16138977389E+02  0.56298820648E+01  0.27446791779E+02  0.00000000000E+00 0.  1.
<mgrwt>
<rscale>  2 0.70335574E+02</rscale>
<asrwt>0</asrwt>
<pdfrwt beam="1">  1       21 0.41674111E-02 0.70335574E+02</pdfrwt>
<pdfrwt beam="2">  1       21 0.69970227E-01 0.70335574E+02</pdfrwt>
<totfact> 0.68224872E+05</totfact>
</mgrwt>
</event>
<event>
 5    1  0.1959123E+000  0.7348603E+02  0.7546771E-02  0.1348624E+00
         21   -1    0    0  503  502  0.00000000000E+00  0.00000000000E+00  0.25418987889E+03  0.25418987889E+03  0.00000000000E+00 0. -1.
         21   -1    0    0  501  503 -0.00000000000E+00 -0.00000000000E+00 -0.25645141873E+02  0.25645141873E+02  0.00000000000E+00 0.  1.
         24    1    1    2    0    0 -0.24233583562E+01 -0.19993190978E+02  0.85997896867E+02  0.11945063655E+03  0.80419002446E+02 0.  1.
          1    1    1    2  501    0 -0.18408208424E+02 -0.14730544445E+02  0.18719615978E+02  0.30104403322E+02  0.00000000000E+00 0. -1.
         -2    1    1    2    0  502  0.20831566780E+02  0.34723735423E+02  0.12382722417E+03  0.13027998089E+03  0.00000000000E+00 0.  1.
<mgrwt>
<rscale>  2 0.73486027E+02</rscale>
<asrwt>0</asrwt>
<pdfrwt beam="1">  1       21 0.39106134E-01 0.73486027E+02</pdfrwt>
<pdfrwt beam="2">  1       21 0.39454066E-02 0.73486027E+02</pdfrwt>
<totfact> 0.24550827E+06</totfact>
</mgrwt>
</event>
<event>
 5    1  0.1959123E+000  0.8547118E+02  0.7546771E-02  0.1314205E+00
         21   -1    0    0  503  502  0.00000000000E+00  0.00000000000E+00  0.73978085095E+02  0.73978085095E+02  0.00000000000E+00 0. -1.
         21   -1    0    0  501  503 -0.00000000000E+00 -0.00000000000E+00 -0.11737352039E+03  0.11737352039E+03  0.00000000000E+00 0. -1.
         24    1    1    2    0    0  0.30865018133E+02 -0.56771553645E+01 -0.38952630952E+02  0.94706931372E+02  0.80419002446E+02 0.  0.
          1    1    1    2  501    0 -0.56899269918E+02  0.11230215140E+02 -0.24856070569E+02  0.63098881872E+02  0.00000000000E+00 0. -1.
         -2    1    1    2    0  502  0.26034251785E+02 -0.55530597755E+01  0.20413266228E+02  0.33545792239E+02  0.00000000000E+00 0.  1.
<mgrwt>
<rscale>  2 0.85471175E+02</rscale>
<asrwt>0</asrwt>
<pdfrwt beam="1">  1       21 0.11381244E-01 0.85471175E+02</pdfrwt>
<pdfrwt beam="2">  1       21 0.18057465E-01 0.85471175E+02</pdfrwt>
<totfact> 0.17689545E+06</totfact>
</mgrwt>
</event>
<event>
 5    1  0.1959123E+000  0.1013805E+03  0.7546771E-02  0.1277419E+00
         21   -1    0    0  503  502  0.00000000000E+00  0.00000000000E+00  0.56673377914E+03  0.56673377914E+03  0.00000000000E+00 0.  1.
         21   -1    0    0  501  503 -0.00000000000E+00 -0.00000000000E+00 -0.33257984033E+02  0.33257984033E+02  0.00000000000E+00 0. -1.
         24    1    1    2    0    0  0.43090242875E+01  0.81863775620E+02  0.17893336770E+03  0.21261376127E+03  0.80419002446E+02 0. -1.
          1    1    1    2  501    0 -0.18188832165E+02 -0.45360544489E+02  0.23837161221E+02  0.54374836707E+02  0.00000000000E+00 0. -1.
         -2    1    1    2    0  502  0.13879807878E+02 -0.36503231131E+02  0.33070526618E+03  0.33300316519E+03  0.00000000000E+00 0.  1.
<mgrwt>
<rscale>  2 0.10138052E+03</rscale>
<asrwt>0</asrwt>
<pdfrwt beam="1">  1       21 0.87189805E-01 0.10138052E+03</pdfrwt>
<pdfrwt beam="2">  1       21 0.51166133E-02 0.10138052E+03</pdfrwt>
<totfact> 0.29895959E+05</totfact>
</mgrwt>
</event>
<event>
 5    1  0.1959123E+000  0.9667470E+02  0.7546771E-02  0.1287448E+00
         21   -1    0    0  501  502  0.00000000000E+00  0.00000000000E+00  0.40267855330E+03  0.40267855330E+03  0.00000000000E+00 0.  1.
         21   -1    0    0  502  503 -0.00000000000E+00 -0.00000000000E+00 -0.78168640897E+02  0.78168640897E+02  0.00000000000E+00 0.  1.
         24    1    1    2    0    0  0.49833973612E+01 -0.63714975655E+02  0.33270918826E+03  0.34820547422E+03  0.80419002446E+02 0.  1.
          1    1    1    2  501    0 -0.29577569702E+02  0.58404931205E+02  0.41095536375E+02  0.77296906332E+02  0.00000000000E+00 0. -1.
         -2    1    1    2    0  503  0.24594172341E+02  0.53100444505E+01 -0.49294812227E+02  0.55344813647E+02  0.00000000000E+00 0.  1.
<mgrwt>
<rscale>  2 0.96674703E+02</rscale>
<asrwt>0</asrwt>
<pdfrwt beam="1">  1       21 0.61950545E-01 0.96674703E+02</pdfrwt>
<pdfrwt beam="2">  1       21 0.12025945E-01 0.96674703E+02</pdfrwt>
<totfact> 0.14620303E+05</totfact>
</mgrwt>
</event>
<event>
 5    1  0.1959123E+000  0.8871065E+02  0.7546771E-02  0.1306004E+00
         21   -1    0    0  501  502  0.00000000000E+00  0.00000000000E+00  0.44732294793E+03  0.44732294793E+03  0.00000000000E+00 0.  1.
         21   -1    0    0  502  503 -0.00000000000E+00 -0.00000000000E+00 -0.22495113704E+02  0.22495113704E+02  0.00000000000E+00 0. -1.
         24    1    1    2    0    0 -0.66897678414E+01 -0.69316789641E+02  0.13765227276E+03  0.17396819959E+03  0.80419002446E+02 0. -1.
          1    1    1    2  501    0 -0.40459024641E+01  0.30489051533E+02  0.13105727750E+03  0.13461783528E+03  0.00000000000E+00 0. -1.
         -2    1    1    2    0  503  0.10735670305E+02  0.38827738108E+02  0.15611828397E+03  0.16123202676E+03  0.00000000000E+00 0.  1.
<mgrwt>
<rscale>  2 0.88710648E+02</rscale>
<asrwt>0</asrwt>
<pdfrwt beam="1">  1       21 0.68818908E-01 0.88710648E+02</pdfrwt>
<pdfrwt beam="2">  1       21 0.34607871E-02 0.88710648E+02</pdfrwt>
<totfact> 0.96095490E+05</totfact>
</mgrwt>
</event>
<event>
 5    1  0.1959123E+000  0.6817228E+02  0.7546771E-02  0.1366421E+00
         21   -1    0    0  503  502  0.00000000000E+00  0.00000000000E+00  0.20035577311E+02  0.20035577311E+02  0.00000000000E+00 0.  1.
         21   -1    0    0  501  503 -0.00000000000E+00 -0.00000000000E+00 -0.50792515598E+03  0.50792515598E+03  0.00000000000E+00 0.  1.
         24    1    1    2    0    0 -0.43112760562E+01  0.42959943582E+02 -0.14624735130E+03  0.17239387336E+03  0.80419002446E+02 0.  1.
          1    1    1    2  501    0  0.87178448893E+01 -0.22297381345E+02 -0.33108371856E+03  0.33194819284E+03  0.00000000000E+00 0. -1.
         -2    1    1    2    0  502 -0.44065688332E+01 -0.20662562237E+02 -0.10558508809E+02  0.23618667095E+02  0.00000000000E+00 0.  1.
<mgrwt>
<rscale>  2 0.68172277E+02</rscale>
<asrwt>0</asrwt>
<pdfrwt beam="1">  1       21 0.30823966E-02 0.68172277E+02</pdfrwt>
<pdfrwt beam="2">  1       21 0.78142331E-01 0.68172277E+02</pdfrwt>
<totfact> 0.87737334E+05</totfact>
</mgrwt>
</event>
<event>
 5    1  0.3096749E+000  0.2099287E+03  0.7546771E-02  0.1141622E+00
         21   -1    0    0  501  502  0.00000000000E+00  0.00000000000E+00  0.10766496078E+03  0.10766496078E+03  0.00000000000E+00 0.  1.
         21   -1    0    0  502  503 -0.00000000000E+00 -0.00000000000E+00 -0.57770568316E+03  0.57770568316E+03  0.00000000000E+00 0.  1.
         24    1    1    2    0    0 -0.39867923751E+02  0.19055902505E+03 -0.56375843079E+02  0.21805422493E+03  0.80419002446E+02 0.  1.
          1    1    1    2  501    0  0.23450083698E+02 -0.63731430222E+01 -0.16969282012E+02  0.29639161753E+02  0.00000000000E+00 0. -1.
         -2    1    1    2    0  503  0.16417840053E+02 -0.18418588202E+03 -0.39669559729E+03  0.43767725726E+03  0.00000000000E+00 0.  1.
<mgrwt>
<rscale>  2 0.20992866E+03</rscale>
<asrwt>0</asrwt>
<pdfrwt beam="1">  1       21 0.16563840E-01 0.20992866E+03</pdfrwt>
<pdfrwt beam="2">  1       21 0.88877798E-01 0.20992866E+03</pdfrwt>
<totfact> 0.35060792E+04</totfact>
</mgrwt>
</event>
<event>
 5    1  0.1959123E+000  0.6648231E+02  0.7546771E-02  0.1372481E+00
         21   -1    0    0  501  502  0.00000000000E+00  0.00000000000E+00  0.17479674329E+02  0.17479674329E+02  0.00000000000E+00 0. -1.
         21   -1    0    0  502  503 -0.00000000000E+00 -0.00000000000E+00 -0.30795116348E+03  0.30795116348E+03  0.00000000000E+00 0.  1.
         24    1    1    2    0    0 -0.22095021432E+01 -0.24270758442E+02 -0.24307928314E+03  0.25719390634E+03  0.80419002446E+02 0.  1.
          1    1    1    2  501    0 -0.19881223142E+02  0.77059150920E+01 -0.17936615912E+02  0.27863351403E+02  0.00000000000E+00 0. -1.
         -2    1    1    2    0  503  0.22090725285E+02  0.16564843350E+02 -0.29455590097E+02  0.40373580059E+02  0.00000000000E+00 0.  1.
<mgrwt>
<rscale>  2 0.66482313E+02</rscale>
<asrwt>0</asrwt>
<pdfrwt beam="1">  1       21 0.26891807E-02 0.66482313E+02</pdfrwt>
<pdfrwt beam="2">  1       21 0.47377101E-01 0.66482313E+02</pdfrwt>
<totfact> 0.31052662E+06</totfact>
</mgrwt>
</event>
<event>
 5    1  0.1959123E+000  0.7406092E+02  0.7546771E-02  0.1346804E+00
         21   -1    0    0  503  502  0.00000000000E+00  0.00000000000E+00  0.11512313151E+02  0.11512313151E+02  0.00000000000E+00 0. -1.
         21   -1    0    0  501  503 -0.00000000000E+00 -0.00000000000E+00 -0.88118367756E+03  0.88118367756E+03  0.00000000000E+00 0. -1.
         24    1    1    2    0    0  0.25916856340E+02  0.13816077520E+02 -0.75821583532E+03  0.76303409906E+03  0.80419002446E+02 0. -1.
          1    1    1    2  501    0  0.61107641152E+01 -0.27139784277E+02 -0.71658053360E+02  0.76868627801E+02  0.00000000000E+00 0. -1.
         -2    1    1    2    0  502 -0.32027620455E+02  0.13323706757E+02 -0.39797475733E+02  0.52793263855E+02  0.00000000000E+00 0.  1.
<mgrwt>
<rscale>  2 0.74060923E+02</rscale>
<asrwt>0</asrwt>
<pdfrwt beam="1">  1       21 0.17711246E-02 0.74060923E+02</pdfrwt>
<pdfrwt beam="2">  1       21 0.13556676E+00 0.74060923E+02</pdfrwt>
<totfact> 0.59660705E+05</totfact>
</mgrwt>
</event>
<event>
 5    1  0.1959123E+000  0.7163166E+02  0.7546771E-02  0.1354631E+00
         21   -1    0    0  501  502  0.00000000000E+00  0.00000000000E+00  0.10054022564E+03  0.10054022564E+03  0.00000000000E+00 0. -1.
         21   -1    0    0  502  503 -0.00000000000E+00 -0.00000000000E+00 -0.74378930259E+03  0.74378930259E+03  0.00000000000E+00 0.  1.
         24    1    1    2    0    0 -0.16597896671E+02 -0.28598699103E+02 -0.13940129560E+03  0.16429641789E+03  0.80419002446E+02 0.  0.
          1    1    1    2  501    0 -0.26040016375E+01  0.35732622414E+02  0.84264201872E+02  0.91564495555E+02  0.00000000000E+00 0. -1.
         -2    1    1    2    0  503  0.19201898309E+02 -0.71339233109E+01 -0.58811198323E+03  0.58846861478E+03  0.00000000000E+00 0.  1.
<mgrwt>
<rscale>  2 0.71631662E+02</rscale>
<asrwt>0</asrwt>
<pdfrwt beam="1">  1       21 0.15467727E-01 0.71631662E+02</pdfrwt>
<pdfrwt beam="2">  1       21 0.11442912E+00 0.71631662E+02</pdfrwt>
<totfact> 0.24313163E+04</totfact>
</mgrwt>
</event>
<event>
 5    1  0.1959123E+000  0.7383854E+02  0.7546771E-02  0.1347506E+00
         21   -1    0    0  501  502  0.00000000000E+00  0.00000000000E+00  0.28334535830E+03  0.28334535830E+03  0.00000000000E+00 0. -1.
         21   -1    0    0  502  503 -0.00000000000E+00 -0.00000000000E+00 -0.54228480254E+02  0.54228480254E+02  0.00000000000E+00 0.  1.
         24    1    1    2    0    0  0.43858036475E+02  0.13947441537E+02  0.80371585420E+02  0.12265751582E+03  0.80419002446E+02 0. -1.
          1    1    1    2  501    0 -0.29556018495E+02  0.63108066351E+01  0.17570551610E+03  0.17828576190E+03  0.00000000000E+00 0. -1.
         -2    1    1    2    0  503 -0.14302017980E+02 -0.20258248172E+02 -0.26960223474E+02  0.36630560835E+02  0.00000000000E+00 0.  1.
<mgrwt>
<rscale>  2 0.73838540E+02</rscale>
<asrwt>0</asrwt>
<pdfrwt beam="1">  1       21 0.43591593E-01 0.73838540E+02</pdfrwt>
<pdfrwt beam="2">  1       21 0.83428433E-02 0.73838540E+02</pdfrwt>
<totfact> 0.56834850E+05</totfact>
</mgrwt>
</event>
<event>
 5    1  0.1959123E+000  0.2017359E+03  0.7546771E-02  0.1148283E+00
         21   -1    0    0  503  502  0.00000000000E+00  0.00000000000E+00  0.24830620823E+03  0.24830620823E+03  0.00000000000E+00 0.  1.
         21   -1    0    0  501  503 -0.00000000000E+00 -0.00000000000E+00 -0.12258742566E+04  0.12258742566E+04  0.00000000000E+00 0. -1.
         24    1    1    2    0    0 -0.69544578721E+02 -0.16223096206E+03 -0.77392782200E+03  0.79786391265E+03  0.80419002446E+02 0. -1.
          1    1    1    2  501    0  0.43594446489E+02  0.17516736063E+03 -0.42045795996E+03  0.45756854797E+03  0.00000000000E+00 0. -1.
         -2    1    1    2    0  502  0.25950132232E+02 -0.12936398568E+02  0.21681773357E+03  0.21874800425E+03  0.00000000000E+00 0.  1.
<mgrwt>
<rscale>  2 0.20173590E+03</rscale>
<asrwt>0</asrwt>
<pdfrwt beam="1">  1       21 0.38200955E-01 0.20173590E+03</pdfrwt>
<pdfrwt beam="2">  1       21 0.18859604E+00 0.20173590E+03</pdfrwt>
<totfact> 0.10425658E+03</totfact>
</mgrwt>
</event>
<event>
 5    1  0.1959123E+000  0.1624886E+03  0.7546771E-02  0.1185915E+00
         21   -1    0    0  501  502  0.00000000000E+00  0.00000000000E+00  0.90771016024E+03  0.90771016024E+03  0.00000000000E+00 0. -1.
         21   -1    0    0  502  503 -0.00000000000E+00 -0.00000000000E+00 -0.45181818602E+02  0.45181818602E+02  0.00000000000E+00 0.  1.
         24    1    1    2    0    0 -0.91758729297E+02 -0.10711910903E+03  0.23117401262E+03  0.28249390787E+03  0.80419002446E+02 0.  1.
          1    1    1    2  501    0  0.10063831002E+03  0.65538847081E+02  0.61201739994E+03  0.62368959246E+03  0.00000000000E+00 0. -1.
         -2    1    1    2    0  503 -0.88795807253E+01  0.41580261951E+02  0.19336929083E+02  0.46708478504E+02  0.00000000000E+00 0.  1.
<mgrwt>
<rscale>  2 0.16248861E+03</rscale>
<asrwt>0</asrwt>
<pdfrwt beam="1">  1       21 0.13964770E+00 0.16248861E+03</pdfrwt>
<pdfrwt beam="2">  1       21 0.69510497E-02 0.16248861E+03</pdfrwt>
<totfact> 0.56072566E+04</totfact>
</mgrwt>
</event>
<event>
 5    1  0.1959123E+000  0.9038008E+02  0.7546771E-02  0.1301934E+00
         21   -1    0    0  501  502  0.00000000000E+00  0.00000000000E+00  0.32497796505E+02  0.32497796505E+02  0.00000000000E+00 0. -1.
         21   -1    0    0  502  503 -0.00000000000E+00 -0.00000000000E+00 -0.40764643087E+03  0.40764643087E+03  0.00000000000E+00 0.  1.
         24    1    1    2    0    0 -0.42798429061E+02  0.23487854877E+02 -0.18317106036E+03  0.20591803749E+03  0.80419002446E+02 0.  1.
          1    1    1    2  501    0  0.94683785633E+01  0.25630462159E+02  0.56285255660E+01  0.27897151882E+02  0.00000000000E+00 0. -1.
         -2    1    1    2    0  503  0.33330050498E+02 -0.49118317036E+02 -0.19760609957E+03  0.20632903800E+03  0.00000000000E+00 0.  1.
<mgrwt>
<rscale>  2 0.90380084E+02</rscale>
<asrwt>0</asrwt>
<pdfrwt beam="1">  1       21 0.49996609E-02 0.90380084E+02</pdfrwt>
<pdfrwt beam="2">  1       21 0.62714837E-01 0.90380084E+02</pdfrwt>
<totfact> 0.63875964E+05</totfact>
</mgrwt>
</event>
<event>
 5    1  0.1959123E+000  0.8613706E+02  0.7546771E-02  0.1312486E+00
         21   -1    0    0  503  502  0.00000000000E+00  0.00000000000E+00  0.56768462804E+02  0.56768462804E+02  0.00000000000E+00 0. -1.
         21   -1    0    0  501  503 -0.00000000000E+00 -0.00000000000E+00 -0.30309599933E+03  0.30309599933E+03  0.00000000000E+00 0.  1.
         24    1    1    2    0    0  0.65901807928E+02  0.62677314814E-01 -0.21843756513E+03  0.24191990003E+03  0.80419002446E+02 0.  0.
          1    1    1    2  501    0 -0.25586003260E+02 -0.87867785185E+01 -0.59904389536E+02  0.65729650275E+02  0.00000000000E+00 0. -1.
         -2    1    1    2    0  502 -0.40315804668E+02  0.87241012037E+01  0.32014418143E+02  0.52214911825E+02  0.00000000000E+00 0.  1.
<mgrwt>
<rscale>  2 0.86137056E+02</rscale>
<asrwt>0</asrwt>
<pdfrwt beam="1">  1       21 0.87336097E-02 0.86137056E+02</pdfrwt>
<pdfrwt beam="2">  1       21 0.46630154E-01 0.86137056E+02</pdfrwt>
<totfact> 0.45933416E+05</totfact>
</mgrwt>
</event>
<event>
 5    1  0.1959123E+000  0.6781714E+02  0.7546771E-02  0.1367677E+00
         21   -1    0    0  503  502  0.00000000000E+00  0.00000000000E+00  0.34676020791E+03  0.34676020791E+03  0.00000000000E+00 0.  1.
         21   -1    0    0  501  503 -0.00000000000E+00 -0.00000000000E+00 -0.63038792402E+02  0.63038792402E+02  0.00000000000E+00 0. -1.
         24    1    1    2    0    0 -0.62548602344E+01  0.97042454094E+00  0.74255971500E+01  0.81008767721E+02  0.80419002446E+02 0.  0.
          1    1    1    2  501    0  0.19751041542E+02 -0.22260208674E+02 -0.17094054865E+02  0.34319487816E+02  0.00000000000E+00 0. -1.
         -2    1    1    2    0  502 -0.13496181307E+02  0.21289784133E+02  0.29338987322E+03  0.29447074477E+03  0.00000000000E+00 0.  1.
<mgrwt>
<rscale>  2 0.67817137E+02</rscale>
<asrwt>0</asrwt>
<pdfrwt beam="1">  1       21 0.53347723E-01 0.67817137E+02</pdfrwt>
<pdfrwt beam="2">  1       21 0.96982760E-02 0.67817137E+02</pdfrwt>
<totfact> 0.29244277E+05</totfact>
</mgrwt>
</event>
<event>
 5    1  0.1959123E+000  0.1006148E+03  0.7546771E-02  0.1279008E+00
         21   -1    0    0  503  502  0.00000000000E+00  0.00000000000E+00  0.76764868260E+02  0.76764868260E+02  0.00000000000E+00 0.  1.
         21   -1    0    0  501  503 -0.00000000000E+00 -0.00000000000E+00 -0.16059917088E+03  0.16059917088E+03  0.00000000000E+00 0. -1.
         24    1    1    2    0    0 -0.28637443977E+02  0.26733940466E+02 -0.80851027455E+02  0.12057740819E+03  0.80419002446E+02 0. -1.
          1    1    1    2  501    0 -0.35554959477E+02 -0.31370720040E+02 -0.17966791441E+02  0.50705845954E+02  0.00000000000E+00 0. -1.
         -2    1    1    2    0  502  0.64192403454E+02  0.46367795736E+01  0.14983516277E+02  0.66080784998E+02  0.00000000000E+00 0.  1.
<mgrwt>
<rscale>  2 0.10061484E+03</rscale>
<asrwt>0</asrwt>
<pdfrwt beam="1">  1       21 0.11809980E-01 0.10061484E+03</pdfrwt>
<pdfrwt beam="2">  1       21 0.24707564E-01 0.10061484E+03</pdfrwt>
<totfact> 0.93450120E+05</totfact>
</mgrwt>
</event>
<event>
 5    1  0.1959123E+000  0.1023308E+03  0.7546771E-02  0.1275469E+00
         21   -1    0    0  503  502  0.00000000000E+00  0.00000000000E+00  0.27105040572E+03  0.27105040572E+03  0.00000000000E+00 0. -1.
         21   -1    0    0  501  503 -0.00000000000E+00 -0.00000000000E+00 -0.43259436510E+02  0.43259436510E+02  0.00000000000E+00 0.  1.
         24    1    1    2    0    0  0.21468738211E+02 -0.54823100808E+02  0.12482626882E+03  0.15973506955E+03  0.80419002446E+02 0. -1.
          1    1    1    2  501    0  0.33899417734E+02  0.16858678667E+02  0.86985748344E+01  0.38846502716E+02  0.00000000000E+00 0. -1.
         -2    1    1    2    0  502 -0.55368155946E+02  0.37964422141E+02  0.94266125558E+02  0.11572826996E+03  0.00000000000E+00 0.  1.
<mgrwt>
<rscale>  2 0.10233084E+03</rscale>
<asrwt>0</asrwt>
<pdfrwt beam="1">  1       21 0.41700062E-01 0.10233084E+03</pdfrwt>
<pdfrwt beam="2">  1       21 0.66552981E-02 0.10233084E+03</pdfrwt>
<totfact> 0.91435265E+05</totfact>
</mgrwt>
</event>
<event>
 5    1  0.1959123E+000  0.8032906E+02  0.7546771E-02  0.1328120E+00
         21   -1    0    0  501  502  0.00000000000E+00  0.00000000000E+00  0.24723016266E+02  0.24723016266E+02  0.00000000000E+00 0. -1.
         21   -1    0    0  502  503 -0.00000000000E+00 -0.00000000000E+00 -0.35968593529E+03  0.35968593529E+03  0.00000000000E+00 0.  1.
         24    1    1    2    0    0  0.53364926511E+02  0.27159448950E+02 -0.21470281908E+03  0.23695984370E+03  0.80419002446E+02 0.  0.
          1    1    1    2  501    0 -0.31130656453E+02 -0.20146973354E+02 -0.15609023565E+02  0.40232572913E+02  0.00000000000E+00 0. -1.
         -2    1    1    2    0  503 -0.22234270058E+02 -0.70124755958E+01 -0.10465107637E+03  0.10721653494E+03  0.00000000000E+00 0.  1.
<mgrwt>
<rscale>  2 0.80329060E+02</rscale>
<asrwt>0</asrwt>
<pdfrwt beam="1">  1       21 0.38035412E-02 0.80329060E+02</pdfrwt>
<pdfrwt beam="2">  1       21 0.55336295E-01 0.80329060E+02</pdfrwt>
<totfact> 0.13009980E+06</totfact>
</mgrwt>
</event>
<event>
 5    1  0.1959123E+000  0.1493505E+03  0.7546771E-02  0.1201273E+00
         21   -1    0    0  501  502  0.00000000000E+00  0.00000000000E+00  0.11185416123E+03  0.11185416123E+03  0.00000000000E+00 0.  1.
         21   -1    0    0  502  503 -0.00000000000E+00 -0.00000000000E+00 -0.44481110724E+03  0.44481110724E+03  0.00000000000E+00 0. -1.
         24    1    1    2    0    0  0.11043144101E+02  0.92645878111E+02  0.44212626776E+02  0.13087086033E+03  0.80419002446E+02 0.  1.
          1    1    1    2  501    0 -0.41353983077E+02 -0.12471821301E+03 -0.17484605114E+03  0.21871425690E+03  0.00000000000E+00 0. -1.
         -2    1    1    2    0  503  0.30310838976E+02  0.32072334902E+02 -0.20232352165E+03  0.20708015124E+03  0.00000000000E+00 0.  1.
<mgrwt>
<rscale>  2 0.14935054E+03</rscale>
<asrwt>0</asrwt>
<pdfrwt beam="1">  1       21 0.17208333E-01 0.14935054E+03</pdfrwt>
<pdfrwt beam="2">  1       21 0.68432478E-01 0.14935054E+03</pdfrwt>
<totfact> 0.60629671E+04</totfact>
</mgrwt>
</event>
<event>
 5    1  0.1959123E+000  0.7835396E+02  0.7546771E-02  0.1333789E+00
         21   -1    0    0  501  502  0.00000000000E+00  0.00000000000E+00  0.41981587505E+02  0.41981587505E+02  0.00000000000E+00 0. -1.
         21   -1    0    0  502  503 -0.00000000000E+00 -0.00000000000E+00 -0.22125738852E+03  0.22125738852E+03  0.00000000000E+00 0.  1.
         24    1    1    2    0    0 -0.40204253447E+02 -0.18961239772E+02 -0.46358329326E+02  0.10291851758E+03  0.80419002446E+02 0. -1.
          1    1    1    2  501    0  0.34497967371E+02 -0.95093789477E+01 -0.14864797739E+02  0.38749196799E+02  0.00000000000E+00 0. -1.
         -2    1    1    2    0  503  0.57062860752E+01  0.28470618720E+02 -0.11805267395E+03  0.12157126165E+03  0.00000000000E+00 0.  1.
<mgrwt>
<rscale>  2 0.78353965E+02</rscale>
<asrwt>0</asrwt>
<pdfrwt beam="1">  1       21 0.64587058E-02 0.78353965E+02</pdfrwt>
<pdfrwt beam="2">  1       21 0.34039598E-01 0.78353965E+02</pdfrwt>
<totfact> 0.14243135E+06</totfact>
</mgrwt>
</event>
<event>
 5    1  0.1959123E+000  0.6869717E+02  0.7546771E-02  0.1364580E+00
         21   -1    0    0  503  502  0.00000000000E+00  0.00000000000E+00  0.19178390344E+03  0.19178390344E+03  0.00000000000E+00 0.  1.
         21   -1    0    0  501  503 -0.00000000000E+00 -0.00000000000E+00 -0.30143587205E+02  0.30143587205E+02  0.00000000000E+00 0. -1.
         24    1    1    2    0    0  0.91250159146E+01  0.30335724501E+01  0.13386320805E+03  0.15645779911E+03  0.80419002446E+02 0.  1.
          1    1    1    2  501    0 -0.26524282866E+02 -0.19127141345E+02  0.59282449707E+01  0.33234458112E+02  0.00000000000E+00 0. -1.
         -2    1    1    2    0  502  0.17399266951E+02  0.16093568895E+02  0.21848863206E+02  0.32235233420E+02  0.00000000000E+00 0.  1.
<mgrwt>
<rscale>  2 0.68697167E+02</rscale>
<asrwt>0</asrwt>
<pdfrwt beam="1">  1       21 0.29505215E-01 0.68697167E+02</pdfrwt>
<pdfrwt beam="2">  1       21 0.46374751E-02 0.68697167E+02</pdfrwt>
<totfact> 0.32255563E+06</totfact>
</mgrwt>
</event>
<event>
 5    1  0.1959123E+000  0.7687144E+02  0.7546771E-02  0.1338172E+00
         21   -1    0    0  503  502  0.00000000000E+00  0.00000000000E+00  0.32426849574E+02  0.32426849574E+02  0.00000000000E+00 0. -1.
         21   -1    0    0  501  503 -0.00000000000E+00 -0.00000000000E+00 -0.22818466612E+03  0.22818466612E+03  0.00000000000E+00 0.  1.
         24    1    1    2    0    0  0.31577757644E+01  0.59902297911E+01 -0.58322089036E+02  0.99571765198E+02  0.80419002446E+02 0. -1.
          1    1    1    2  501    0 -0.37962916795E+02 -0.40844235031E+01 -0.11073015978E+03  0.11712827948E+03  0.00000000000E+00 0. -1.
         -2    1    1    2    0  502  0.34805141031E+02 -0.19058062881E+01 -0.26705567730E+02  0.43911471025E+02  0.00000000000E+00 0.  1.
<mgrwt>
<rscale>  2 0.76871441E+02</rscale>
<asrwt>0</asrwt>
<pdfrwt beam="1">  1       21 0.49887461E-02 0.76871441E+02</pdfrwt>
<pdfrwt beam="2">  1       21 0.35105333E-01 0.76871441E+02</pdfrwt>
<totfact> 0.20631527E+06</totfact>
</mgrwt>
</event>
<event>
 5    1  0.1959123E+000  0.1072581E+03  0.7546771E-02  0.1265733E+00
         21   -1    0    0  503  502  0.00000000000E+00  0.00000000000E+00  0.11391257913E+03  0.11391257913E+03  0.00000000000E+00 0.  1.
         21   -1    0    0  501  503 -0.00000000000E+00 -0.00000000000E+00 -0.10818425199E+03  0.10818425199E+03  0.00000000000E+00 0.  1.
         24    1    1    2    0    0 -0.39407382340E+02  0.59608444689E+02 -0.22417108065E+02  0.10989017768E+03  0.80419002446E+02 0.  1.
          1    1    1    2  501    0  0.16127521481E+02  0.19018519212E+02 -0.15757310348E+01  0.24985674904E+02  0.00000000000E+00 0. -1.
         -2    1    1    2    0  502  0.23279860859E+02 -0.78626963901E+02  0.29721166246E+02  0.87220978537E+02  0.00000000000E+00 0.  1.
<mgrwt>
<rscale>  2 0.10725812E+03</rscale>
<asrwt>0</asrwt>
<pdfrwt beam="1">  1       21 0.17525012E-01 0.10725812E+03</pdfrwt>
<pdfrwt beam="2">  1       21 0.16643731E-01 0.10725812E+03</pdfrwt>
<totfact> 0.95625340E+05</totfact>
</mgrwt>
</event>
<event>
 5    1  0.1959123E+000  0.9483189E+02  0.7546771E-02  0.1291555E+00
         21   -1    0    0  503  502  0.00000000000E+00  0.00000000000E+00  0.49212556252E+03  0.49212556252E+03  0.00000000000E+00 0.  1.
         21   -1    0    0  501  503 -0.00000000000E+00 -0.00000000000E+00 -0.38188278990E+03  0.38188278990E+03  0.00000000000E+00 0. -1.
         24    1    1    2    0    0 -0.68149388082E+02  0.14032054524E+02 -0.13635016228E+03  0.17291564521E+03  0.80419002446E+02 0. -1.
          1    1    1    2  501    0  0.25302968407E+02 -0.28488591755E+02 -0.22456254812E+03  0.22777220657E+03  0.00000000000E+00 0. -1.
         -2    1    1    2    0  502  0.42846419676E+02  0.14456537231E+02  0.47115548302E+03  0.47332050064E+03  0.00000000000E+00 0.  1.
<mgrwt>
<rscale>  2 0.94831888E+02</rscale>
<asrwt>0</asrwt>
<pdfrwt beam="1">  1       21 0.75711626E-01 0.94831888E+02</pdfrwt>
<pdfrwt beam="2">  1       21 0.58751198E-01 0.94831888E+02</pdfrwt>
<totfact> 0.46661472E+03</totfact>
</mgrwt>
</event>
<event>
 5    1  0.1959123E+000  0.9785932E+02  0.7546771E-02  0.1284863E+00
         21   -1    0    0  501  502  0.00000000000E+00  0.00000000000E+00  0.71032973936E+03  0.71032973936E+03  0.00000000000E+00 0.  1.
         21   -1    0    0  502  503 -0.00000000000E+00 -0.00000000000E+00 -0.14992103034E+02  0.14992103034E+02  0.00000000000E+00 0.  1.
         24    1    1    2    0    0 -0.23090228876E+02  0.77689906848E+02  0.38124687057E+03  0.39797647238E+03  0.80419002446E+02 0.  1.
          1    1    1    2  501    0  0.20210175914E+02 -0.53637554143E+02  0.27820761454E+03  0.28405090250E+03  0.00000000000E+00 0. -1.
         -2    1    1    2    0  503  0.28800529619E+01 -0.24052352705E+02  0.35883151218E+02  0.43294467510E+02  0.00000000000E+00 0.  1.
<mgrwt>
<rscale>  2 0.97859319E+02</rscale>
<asrwt>0</asrwt>
<pdfrwt beam="1">  1       21 0.10928147E+00 0.97859319E+02</pdfrwt>
<pdfrwt beam="2">  1       21 0.23064779E-02 0.97859319E+02</pdfrwt>
<totfact> 0.65591155E+05</totfact>
</mgrwt>
</event>
<event>
 5    1  0.1959123E+000  0.7716162E+02  0.7546771E-02  0.1337305E+00
         21   -1    0    0  501  502  0.00000000000E+00  0.00000000000E+00  0.47882219835E+02  0.47882219835E+02  0.00000000000E+00 0.  1.
         21   -1    0    0  502  503 -0.00000000000E+00 -0.00000000000E+00 -0.23320684297E+03  0.23320684297E+03  0.00000000000E+00 0. -1.
         24    1    1    2    0    0  0.23780685316E+02 -0.41346370573E+02 -0.10665051478E+03  0.14183297082E+03  0.80419002446E+02 0. -1.
          1    1    1    2  501    0  0.82149995916E+01  0.21879214356E+02  0.21842491359E+02  0.31988758462E+02  0.00000000000E+00 0. -1.
         -2    1    1    2    0  503 -0.31995684907E+02  0.19467156217E+02 -0.10051659972E+03  0.10726733353E+03  0.00000000000E+00 0.  1.
<mgrwt>
<rscale>  2 0.77161617E+02</rscale>
<asrwt>0</asrwt>
<pdfrwt beam="1">  1       21 0.73664953E-02 0.77161617E+02</pdfrwt>
<pdfrwt beam="2">  1       21 0.35877976E-01 0.77161617E+02</pdfrwt>
<totfact> 0.10301250E+06</totfact>
</mgrwt>
</event>
<event>
 5    1  0.1959123E+000  0.7746176E+02  0.7546771E-02  0.1336413E+00
         21   -1    0    0  501  502  0.00000000000E+00  0.00000000000E+00  0.85769481871E+02  0.85769481871E+02  0.00000000000E+00 0. -1.
         21   -1    0    0  502  503 -0.00000000000E+00 -0.00000000000E+00 -0.13720460473E+03  0.13720460473E+03  0.00000000000E+00 0.  1.
         24    1    1    2    0    0  0.65475735449E+00  0.27583271438E+02  0.33519114306E+02  0.91389345925E+02  0.80419002446E+02 0. -1.
          1    1    1    2  501    0 -0.25314137131E+02 -0.35857360538E+02 -0.12262758540E+01  0.43909675425E+02  0.00000000000E+00 0. -1.
         -2    1    1    2    0  503  0.24659379776E+02  0.82740891004E+01 -0.83727961312E+02  0.87675065252E+02  0.00000000000E+00 0.  1.
<mgrwt>
<rscale>  2 0.77461758E+02</rscale>
<asrwt>0</asrwt>
<pdfrwt beam="1">  1       21 0.13195305E-01 0.77461758E+02</pdfrwt>
<pdfrwt beam="2">  1       21 0.21108400E-01 0.77461758E+02</pdfrwt>
<totfact> 0.10241883E+06</totfact>
</mgrwt>
</event>
<event>
 5    1  0.1959123E+000  0.9912401E+02  0.7546771E-02  0.1282149E+00
         21   -1    0    0  503  502  0.00000000000E+00  0.00000000000E+00  0.29748019649E+02  0.29748019649E+02  0.00000000000E+00 0.  1.
         21   -1    0    0  501  503 -0.00000000000E+00 -0.00000000000E+00 -0.47576463871E+03  0.47576463871E+03  0.00000000000E+00 0. -1.
         24    1    1    2    0    0  0.78654285822E+02 -0.74410322030E+01 -0.15866902779E+03  0.19464054555E+03  0.80419002446E+02 0.  1.
          1    1    1    2  501    0 -0.56209959144E+02  0.20159887219E+02 -0.27651980998E+03  0.28289430159E+03  0.00000000000E+00 0. -1.
         -2    1    1    2    0  502 -0.22444326678E+02 -0.12718855016E+02 -0.10827781292E+02  0.27977811219E+02  0.00000000000E+00 0.  1.
<mgrwt>
<rscale>  2 0.99124006E+02</rscale>
<asrwt>0</asrwt>
<pdfrwt beam="1">  1       21 0.45766185E-02 0.99124006E+02</pdfrwt>
<pdfrwt beam="2">  1       21 0.73194558E-01 0.99124006E+02</pdfrwt>
<totfact> 0.53077013E+05</totfact>
</mgrwt>
</event>
<event>
 5    1  0.1959123E+000  0.7069901E+02  0.7546771E-02  0.1357732E+00
         21   -1    0    0  501  502  0.00000000000E+00  0.00000000000E+00  0.14686370541E+03  0.14686370541E+03  0.00000000000E+00 0.  1.
         21   -1    0    0  502  503 -0.00000000000E+00 -0.00000000000E+00 -0.65745348869E+02  0.65745348869E+02  0.00000000000E+00 0.  1.
         24    1    1    2    0    0 -0.13736346486E+02  0.13069620459E+02  0.62400074485E+02  0.10353978677E+03  0.80419002446E+02 0.  1.
          1    1    1    2  501    0 -0.17824128807E+02  0.92860207902E+01  0.53439744386E+02  0.57094098030E+02  0.00000000000E+00 0. -1.
         -2    1    1    2    0  503  0.31560475293E+02 -0.22355641249E+02 -0.34721462329E+02  0.51975169482E+02  0.00000000000E+00 0.  1.
<mgrwt>
<rscale>  2 0.70699014E+02</rscale>
<asrwt>0</asrwt>
<pdfrwt beam="1">  1       21 0.22594416E-01 0.70699014E+02</pdfrwt>
<pdfrwt beam="2">  1       21 0.10114669E-01 0.70699014E+02</pdfrwt>
<totfact> 0.14314578E+06</totfact>
</mgrwt>
</event>
<event>
 5    1  0.1959123E+000  0.8071682E+02  0.7546771E-02  0.1327029E+00
         21   -1    0    0  501  502  0.00000000000E+00  0.00000000000E+00  0.85858374315E+02  0.85858374315E+02  0.00000000000E+00 0.  1.
         21   -1    0    0  502  503 -0.00000000000E+00 -0.00000000000E+00 -0.13617319810E+03  0.13617319810E+03  0.00000000000E+00 0. -1.
         24    1    1    2    0    0  0.22344738501E+02  0.25674579119E+02 -0.97441605121E+02  0.13084553380E+03  0.80419002446E+02 0. -1.
          1    1    1    2  501    0  0.22852210797E+02 -0.15975264434E+02  0.32234581904E+02  0.42620427996E+02  0.00000000000E+00 0. -1.
         -2    1    1    2    0  503 -0.45196949298E+02 -0.96993146845E+01  0.14892199431E+02  0.48565610622E+02  0.00000000000E+00 0.  1.
<mgrwt>
<rscale>  2 0.80716818E+02</rscale>
<asrwt>0</asrwt>
<pdfrwt beam="1">  1       21 0.13208981E-01 0.80716818E+02</pdfrwt>
<pdfrwt beam="2">  1       21 0.20949723E-01 0.80716818E+02</pdfrwt>
<totfact> 0.10375486E+06</totfact>
</mgrwt>
</event>
<event>
 5    1  0.1959123E+000  0.1197040E+03  0.7546771E-02  0.1243586E+00
         21   -1    0    0  503  502  0.00000000000E+00  0.00000000000E+00  0.47663569242E+03  0.47663569242E+03  0.00000000000E+00 0.  1.
         21   -1    0    0  501  503 -0.00000000000E+00 -0.00000000000E+00 -0.11990216856E+03  0.11990216856E+03  0.00000000000E+00 0.  1.
         24    1    1    2    0    0  0.45865576343E+02 -0.52213616425E+02 -0.50178395036E+02  0.11753722864E+03  0.80419002446E+02 0.  1.
          1    1    1    2  501    0 -0.14832182694E+02  0.85985217429E+02  0.20179691923E+02  0.89558200216E+02  0.00000000000E+00 0. -1.
         -2    1    1    2    0  502 -0.31033393649E+02 -0.33771601004E+02  0.38673222698E+03  0.38944243213E+03  0.00000000000E+00 0.  1.
<mgrwt>
<rscale>  2 0.11970399E+03</rscale>
<asrwt>0</asrwt>
<pdfrwt beam="1">  1       21 0.73328567E-01 0.11970399E+03</pdfrwt>
<pdfrwt beam="2">  1       21 0.18446488E-01 0.11970399E+03</pdfrwt>
<totfact> 0.46632044E+04</totfact>
</mgrwt>
</event>
<event>
 5    1  0.1959123E+000  0.1009339E+03  0.7546771E-02  0.1278344E+00
         21   -1    0    0  501  502  0.00000000000E+00  0.00000000000E+00  0.17603598810E+03  0.17603598810E+03  0.00000000000E+00 0.  1.
         21   -1    0    0  502  503 -0.00000000000E+00 -0.00000000000E+00 -0.99641220755E+02  0.99641220755E+02  0.00000000000E+00 0.  1.
         24    1    1    2    0    0 -0.96148070775E+01  0.53402630971E+02  0.69271062945E+02  0.11920562749E+03  0.80419002446E+02 0.  1.
          1    1    1    2  501    0  0.57847652747E+01  0.25353867079E+02  0.57359179417E+02  0.62979024672E+02  0.00000000000E+00 0. -1.
         -2    1    1    2    0  503  0.38300418028E+01 -0.78756498050E+02 -0.50235475021E+02  0.93492556688E+02  0.00000000000E+00 0.  1.
<mgrwt>
<rscale>  2 0.10093395E+03</rscale>
<asrwt>0</asrwt>
<pdfrwt beam="1">  1       21 0.27082460E-01 0.10093395E+03</pdfrwt>
<pdfrwt beam="2">  1       21 0.15329419E-01 0.10093395E+03</pdfrwt>
<totfact> 0.49473355E+05</totfact>
</mgrwt>
</event>
<event>
 5    1  0.1959123E+000  0.1205000E+03  0.7546771E-02  0.1242274E+00
         21   -1    0    0  501  502  0.00000000000E+00  0.00000000000E+00  0.96284624480E+03  0.96284624480E+03  0.00000000000E+00 0. -1.
         21   -1    0    0  502  503 -0.00000000000E+00 -0.00000000000E+00 -0.78314326993E+02  0.78314326993E+02  0.00000000000E+00 0.  1.
         24    1    1    2    0    0 -0.48775624298E+02  0.32082646356E+02  0.12082115969E+03  0.15643952923E+03  0.80419002446E+02 0.  1.
          1    1    1    2  501    0  0.45830777935E+01  0.49035434908E+02  0.78773514880E+03  0.78927317396E+03  0.00000000000E+00 0. -1.
         -2    1    1    2    0  503  0.44192546505E+02 -0.81118081264E+02 -0.24024390675E+02  0.95447868609E+02  0.00000000000E+00 0.  1.
<mgrwt>
<rscale>  2 0.12049999E+03</rscale>
<asrwt>0</asrwt>
<pdfrwt beam="1">  1       21 0.14813018E+00 0.12049999E+03</pdfrwt>
<pdfrwt beam="2">  1       21 0.12048359E-01 0.12049999E+03</pdfrwt>
<totfact> 0.19023952E+04</totfact>
</mgrwt>
</event>
<event>
 5    1  0.1959123E+000  0.7564976E+02  0.7546771E-02  0.1341871E+00
         21   -1    0    0  501  502  0.00000000000E+00  0.00000000000E+00  0.19218447142E+02  0.19218447142E+02  0.00000000000E+00 0. -1.
         21   -1    0    0  502  503 -0.00000000000E+00 -0.00000000000E+00 -0.47982437689E+03  0.47982437689E+03  0.00000000000E+00 0. -1.
         24    1    1    2    0    0 -0.23644471657E+02  0.35137279315E+01 -0.18744201833E+03  0.20536098343E+03  0.80419002446E+02 0.  1.
          1    1    1    2  501    0 -0.21768621564E+02  0.81666076409E+00 -0.59224401607E+01  0.22574656521E+02  0.00000000000E+00 0. -1.
         -2    1    1    2    0  503  0.45413093221E+02 -0.43303886956E+01 -0.26724147126E+03  0.27110718408E+03  0.00000000000E+00 0.  1.
<mgrwt>
<rscale>  2 0.75649764E+02</rscale>
<asrwt>0</asrwt>
<pdfrwt beam="1">  1       21 0.29566842E-02 0.75649764E+02</pdfrwt>
<pdfrwt beam="2">  1       21 0.73819135E-01 0.75649764E+02</pdfrwt>
<totfact> 0.10642041E+06</totfact>
</mgrwt>
</event>
<event>
 5    1  0.1959123E+000  0.1774369E+03  0.7546771E-02  0.1170307E+00
         21   -1    0    0  503  502  0.00000000000E+00  0.00000000000E+00  0.33380826503E+02  0.33380826503E+02  0.00000000000E+00 0. -1.
         21   -1    0    0  501  503 -0.00000000000E+00 -0.00000000000E+00 -0.16755070803E+04  0.16755070803E+04  0.00000000000E+00 0. -1.
         24    1    1    2    0    0 -0.14545293992E+03 -0.84518793051E+02 -0.28699260767E+03  0.34224546297E+03  0.80419002446E+02 0. -1.
          1    1    1    2  501    0  0.70679413912E+02  0.45671393389E+02 -0.88725261974E+03  0.89123435019E+03  0.00000000000E+00 0. -1.
         -2    1    1    2    0  502  0.74773526004E+02  0.38847399662E+02 -0.46788102639E+03  0.47540809365E+03  0.00000000000E+00 0.  1.
<mgrwt>
<rscale>  2 0.17743686E+03</rscale>
<asrwt>0</asrwt>
<pdfrwt beam="1">  1       21 0.51355115E-02 0.17743686E+03</pdfrwt>
<pdfrwt beam="2">  1       21 0.25777033E+00 0.17743686E+03</pdfrwt>
<totfact> 0.15615739E+04</totfact>
</mgrwt>
</event>
<event>
 5    1  0.1959123E+000  0.8281461E+02  0.7546771E-02  0.1321249E+00
         21   -1    0    0  503  502  0.00000000000E+00  0.00000000000E+00  0.78804196562E+01  0.78804196562E+01  0.00000000000E+00 0.  1.
         21   -1    0    0  501  503 -0.00000000000E+00 -0.00000000000E+00 -0.10563871489E+04  0.10563871489E+04  0.00000000000E+00 0. -1.
         24    1    1    2    0    0  0.90660382992E+01  0.23546700721E+02 -0.65704720740E+03  0.66243104462E+03  0.80419002446E+02 0. -1.
          1    1    1    2  501    0 -0.29873842902E+02 -0.43332164087E+02 -0.32783721822E+03  0.33203518576E+03  0.00000000000E+00 0. -1.
         -2    1    1    2    0  502  0.20807804603E+02  0.19785463366E+02 -0.63622303633E+02  0.69801338186E+02  0.00000000000E+00 0.  1.
<mgrwt>
<rscale>  2 0.82814605E+02</rscale>
<asrwt>0</asrwt>
<pdfrwt beam="1">  1       21 0.12123731E-02 0.82814605E+02</pdfrwt>
<pdfrwt beam="2">  1       21 0.16252099E+00 0.82814605E+02</pdfrwt>
<totfact> 0.68448065E+05</totfact>
</mgrwt>
</event>
<event>
 5    1  0.1959123E+000  0.7343943E+02  0.7546771E-02  0.1348773E+00
         21   -1    0    0  503  502  0.00000000000E+00  0.00000000000E+00  0.12011024870E+03  0.12011024870E+03  0.00000000000E+00 0. -1.
         21   -1    0    0  501  503 -0.00000000000E+00 -0.00000000000E+00 -0.45193463095E+02  0.45193463095E+02  0.00000000000E+00 0.  1.
         24    1    1    2    0    0 -0.13278120714E+02  0.80830011152E+01  0.36872184437E+02  0.89824369390E+02  0.80419002446E+02 0.  0.
          1    1    1    2  501    0  0.29236671758E+02 -0.27293771240E+02  0.20384718030E+02  0.44891754846E+02  0.00000000000E+00 0. -1.
         -2    1    1    2    0  502 -0.15958551044E+02  0.19210770125E+02  0.17659883136E+02  0.30587587557E+02  0.00000000000E+00 0.  1.
<mgrwt>
<rscale>  2 0.73439428E+02</rscale>
<asrwt>0</asrwt>
<pdfrwt beam="1">  1       21 0.18478500E-01 0.73439428E+02</pdfrwt>
<pdfrwt beam="2">  1       21 0.69528405E-02 0.73439428E+02</pdfrwt>
<totfact> 0.39172699E+06</totfact>
</mgrwt>
</event>
<event>
 5    1  0.1959123E+000  0.8298635E+02  0.7546771E-02  0.1320784E+00
         21   -1    0    0  503  502  0.00000000000E+00  0.00000000000E+00  0.66874436228E+02  0.66874436228E+02  0.00000000000E+00 0. -1.
         21   -1    0    0  501  503 -0.00000000000E+00 -0.00000000000E+00 -0.11662831479E+03  0.11662831479E+03  0.00000000000E+00 0. -1.
         24    1    1    2    0    0 -0.45983224019E+02 -0.12290279589E+02 -0.65622515909E+01  0.93679170384E+02  0.80419002446E+02 0. -1.
          1    1    1    2  501    0  0.26526986264E+02  0.34161124722E+02 -0.42359637859E+02  0.60539262980E+02  0.00000000000E+00 0. -1.
         -2    1    1    2    0  502  0.19456237755E+02 -0.21870845133E+02 -0.83198910828E+00  0.29284317651E+02  0.00000000000E+00 0.  1.
<mgrwt>
<rscale>  2 0.82986354E+02</rscale>
<asrwt>0</asrwt>
<pdfrwt beam="1">  1       21 0.10288375E-01 0.82986354E+02</pdfrwt>
<pdfrwt beam="2">  1       21 0.17942818E-01 0.82986354E+02</pdfrwt>
<totfact> 0.21301617E+06</totfact>
</mgrwt>
</event>
<event>
 5    1  0.1959123E+000  0.7133010E+02  0.7546771E-02  0.1355628E+00
         21   -1    0    0  503  502  0.00000000000E+00  0.00000000000E+00  0.15674840991E+03  0.15674840991E+03  0.00000000000E+00 0.  1.
         21   -1    0    0  501  503 -0.00000000000E+00 -0.00000000000E+00 -0.10615397241E+03  0.10615397241E+03  0.00000000000E+00 0.  1.
         24    1    1    2    0    0 -0.46293068607E+02  0.14936202677E+02  0.12485726264E+02  0.94811643094E+02  0.80419002446E+02 0.  1.
          1    1    1    2  501    0  0.24725330553E+02 -0.70618500776E+01 -0.61083839514E+02  0.66275539585E+02  0.00000000000E+00 0. -1.
         -2    1    1    2    0  502  0.21567738054E+02 -0.78743525989E+01  0.99192550754E+02  0.10181519964E+03  0.00000000000E+00 0.  1.
<mgrwt>
<rscale>  2 0.71330103E+02</rscale>
<asrwt>0</asrwt>
<pdfrwt beam="1">  1       21 0.24115140E-01 0.71330103E+02</pdfrwt>
<pdfrwt beam="2">  1       21 0.16331380E-01 0.71330103E+02</pdfrwt>
<totfact> 0.54841089E+05</totfact>
</mgrwt>
</event>
<event>
 5    1  0.1959123E+000  0.8804982E+02  0.7546771E-02  0.1307644E+00
         21   -1    0    0  501  502  0.00000000000E+00  0.00000000000E+00  0.13393559894E+02  0.13393559894E+02  0.00000000000E+00 0. -1.
         21   -1    0    0  502  503 -0.00000000000E+00 -0.00000000000E+00 -0.12190698332E+04  0.12190698332E+04  0.00000000000E+00 0. -1.
         24    1    1    2    0    0 -0.12669514292E+02 -0.41847688797E+02 -0.89608076041E+03  0.90074396516E+03  0.80419002446E+02 0. -1.
          1    1    1    2  501    0 -0.15285247864E+02  0.52475334062E+02 -0.63369805241E+02  0.83684118585E+02  0.00000000000E+00 0. -1.
         -2    1    1    2    0  503  0.27954762156E+02 -0.10627645265E+02 -0.24622570764E+03  0.24803530933E+03  0.00000000000E+00 0.  1.
<mgrwt>
<rscale>  2 0.88049821E+02</rscale>
<asrwt>0</asrwt>
<pdfrwt beam="1">  1       21 0.20605473E-02 0.88049821E+02</pdfrwt>
<pdfrwt beam="2">  1       21 0.18754924E+00 0.88049821E+02</pdfrwt>
<totfact> 0.20080997E+05</totfact>
</mgrwt>
</event>
<event>
 5    1  0.1959123E+000  0.1068379E+03  0.7546771E-02  0.1266540E+00
         21   -1    0    0  501  502  0.00000000000E+00  0.00000000000E+00  0.30956937050E+02  0.30956937050E+02  0.00000000000E+00 0. -1.
         21   -1    0    0  502  503 -0.00000000000E+00 -0.00000000000E+00 -0.39349469457E+03  0.39349469457E+03  0.00000000000E+00 0.  1.
         24    1    1    2    0    0 -0.71001723008E+02  0.17238295892E+02 -0.13236335202E+03  0.17124741291E+03  0.80419002446E+02 0. -1.
          1    1    1    2  501    0 -0.13614056905E+02 -0.15167099362E+02 -0.35682432791E+02  0.41092815167E+02  0.00000000000E+00 0. -1.
         -2    1    1    2    0  503  0.84615779913E+02 -0.20711965297E+01 -0.19449197271E+03  0.21211140355E+03  0.00000000000E+00 0.  1.
<mgrwt>
<rscale>  2 0.10683788E+03</rscale>
<asrwt>0</asrwt>
<pdfrwt beam="1">  1       21 0.47626058E-02 0.10683788E+03</pdfrwt>
<pdfrwt beam="2">  1       21 0.60537643E-01 0.10683788E+03</pdfrwt>
<totfact> 0.74663024E+05</totfact>
</mgrwt>
</event>
<event>
 5    1  0.1959123E+000  0.6468169E+02  0.7546771E-02  0.1379173E+00
         21   -1    0    0  501  502  0.00000000000E+00  0.00000000000E+00  0.37173430939E+03  0.37173430939E+03  0.00000000000E+00 0.  1.
         21   -1    0    0  502  503 -0.00000000000E+00 -0.00000000000E+00 -0.31672506991E+02  0.31672506991E+02  0.00000000000E+00 0.  1.
         24    1    1    2    0    0  0.21804650690E+02 -0.63056297643E+01  0.29705718503E+03  0.30858611584E+03  0.80419002446E+02 0.  1.
          1    1    1    2  501    0 -0.28039728422E+01  0.21370885305E+02  0.60953378500E+02  0.64652079263E+02  0.00000000000E+00 0. -1.
         -2    1    1    2    0  503 -0.19000677848E+02 -0.15065255541E+02 -0.17948761134E+02  0.30168621272E+02  0.00000000000E+00 0.  1.
<mgrwt>
<rscale>  2 0.64681690E+02</rscale>
<asrwt>0</asrwt>
<pdfrwt beam="1">  1       21 0.57189891E-01 0.64681690E+02</pdfrwt>
<pdfrwt beam="2">  1       21 0.48726936E-02 0.64681690E+02</pdfrwt>
<totfact> 0.80507809E+05</totfact>
</mgrwt>
</event>
<event>
 5    1  0.1959123E+000  0.7383068E+02  0.7546771E-02  0.1347531E+00
         21   -1    0    0  501  502  0.00000000000E+00  0.00000000000E+00  0.57768531846E+03  0.57768531846E+03  0.00000000000E+00 0. -1.
         21   -1    0    0  502  503 -0.00000000000E+00 -0.00000000000E+00 -0.17163933958E+02  0.17163933958E+02  0.00000000000E+00 0.  1.
         24    1    1    2    0    0 -0.10785167478E+02  0.27053321552E+02  0.42742166090E+03  0.43589527894E+03  0.80419002446E+02 0. -1.
          1    1    1    2  501    0 -0.10929175853E+02 -0.36756881220E+02  0.12930235621E+03  0.13486887901E+03  0.00000000000E+00 0. -1.
         -2    1    1    2    0  503  0.21714343331E+02  0.97035596683E+01  0.37973673892E+01  0.24085094470E+02  0.00000000000E+00 0.  1.
<mgrwt>
<rscale>  2 0.73830685E+02</rscale>
<asrwt>0</asrwt>
<pdfrwt beam="1">  1       21 0.88874649E-01 0.73830685E+02</pdfrwt>
<pdfrwt beam="2">  1       21 0.26406057E-02 0.73830685E+02</pdfrwt>
<totfact> 0.84835393E+05</totfact>
</mgrwt>
</event>
<event>
 5    1  0.1959123E+000  0.6759605E+02  0.7546771E-02  0.1368464E+00
         21   -1    0    0  503  502  0.00000000000E+00  0.00000000000E+00  0.20704636586E+03  0.20704636586E+03  0.00000000000E+00 0. -1.
         21   -1    0    0  501  503 -0.00000000000E+00 -0.00000000000E+00 -0.24159679559E+02  0.24159679559E+02  0.00000000000E+00 0. -1.
         24    1    1    2    0    0 -0.34001329589E+02 -0.93981187254E+01  0.12481744513E+03  0.15261397581E+03  0.80419002446E+02 0.  0.
          1    1    1    2  501    0  0.17569609901E+02  0.20911236651E+02  0.15193275001E+02  0.31253905606E+02  0.00000000000E+00 0. -1.
         -2    1    1    2    0  502  0.16431719687E+02 -0.11513117926E+02  0.42875966173E+02  0.47338164007E+02  0.00000000000E+00 0.  1.
<mgrwt>
<rscale>  2 0.67596047E+02</rscale>
<asrwt>0</asrwt>
<pdfrwt beam="1">  1       21 0.31853286E-01 0.67596047E+02</pdfrwt>
<pdfrwt beam="2">  1       21 0.37168739E-02 0.67596047E+02</pdfrwt>
<totfact> 0.40022733E+06</totfact>
</mgrwt>
</event>
<event>
 5    1  0.1959123E+000  0.8868150E+02  0.7546771E-02  0.1306076E+00
         21   -1    0    0  503  502  0.00000000000E+00  0.00000000000E+00  0.37392561632E+02  0.37392561632E+02  0.00000000000E+00 0.  1.
         21   -1    0    0  501  503 -0.00000000000E+00 -0.00000000000E+00 -0.23423240682E+03  0.23423240682E+03  0.00000000000E+00 0. -1.
         24    1    1    2    0    0 -0.10834929467E+02 -0.31712314008E+01 -0.52911279307E+02  0.96924051904E+02  0.80419002446E+02 0.  0.
          1    1    1    2  501    0 -0.42580392755E+02  0.36650689384E+01 -0.43689980965E+02  0.61117403530E+02  0.00000000000E+00 0. -1.
         -2    1    1    2    0  502  0.53415322222E+02 -0.49383753767E+00 -0.10023858492E+03  0.11358351302E+03  0.00000000000E+00 0.  1.
<mgrwt>
<rscale>  2 0.88681502E+02</rscale>
<asrwt>0</asrwt>
<pdfrwt beam="1">  1       21 0.57527018E-02 0.88681502E+02</pdfrwt>
<pdfrwt beam="2">  1       21 0.36035755E-01 0.88681502E+02</pdfrwt>
<totfact> 0.15547733E+06</totfact>
</mgrwt>
</event>
<event>
 5    1  0.1959123E+000  0.9226835E+02  0.7546771E-02  0.1297450E+00
         21   -1    0    0  503  502  0.00000000000E+00  0.00000000000E+00  0.16309576703E+03  0.16309576703E+03  0.00000000000E+00 0. -1.
         21   -1    0    0  501  503 -0.00000000000E+00 -0.00000000000E+00 -0.64340964929E+02  0.64340964929E+02  0.00000000000E+00 0.  1.
         24    1    1    2    0    0 -0.69178406991E+02  0.19198454459E+02  0.33888492804E+02  0.11300388731E+03  0.80419002446E+02 0.  1.
          1    1    1    2  501    0  0.38911129276E+02 -0.24533993879E+02  0.39087142342E+01  0.46165689469E+02  0.00000000000E+00 0. -1.
         -2    1    1    2    0  502  0.30267277715E+02  0.53355394200E+01  0.60957595062E+02  0.68267155184E+02  0.00000000000E+00 0.  1.
<mgrwt>
<rscale>  2 0.92268351E+02</rscale>
<asrwt>0</asrwt>
<pdfrwt beam="1">  1       21 0.25091656E-01 0.92268351E+02</pdfrwt>
<pdfrwt beam="2">  1       21 0.98986100E-02 0.92268351E+02</pdfrwt>
<totfact> 0.12335692E+06</totfact>
</mgrwt>
</event>
<event>
 5    1  0.1959123E+000  0.7235167E+02  0.7546771E-02  0.1352274E+00
         21   -1    0    0  501  502  0.00000000000E+00  0.00000000000E+00  0.67068616548E+02  0.67068616548E+02  0.00000000000E+00 0. -1.
         21   -1    0    0  502  503 -0.00000000000E+00 -0.00000000000E+00 -0.34946373883E+03  0.34946373883E+03  0.00000000000E+00 0. -1.
         24    1    1    2    0    0  0.11104486354E+02 -0.95844544246E+01 -0.18818796645E+03  0.20517577355E+03  0.80419002446E+02 0. -1.
          1    1    1    2  501    0  0.20727473901E+02 -0.12509056499E+02  0.53462168377E+02  0.58688228090E+02  0.00000000000E+00 0. -1.
         -2    1    1    2    0  503 -0.31831960255E+02  0.22093510924E+02 -0.14766932421E+03  0.15266835373E+03  0.00000000000E+00 0.  1.
<mgrwt>
<rscale>  2 0.72351666E+02</rscale>
<asrwt>0</asrwt>
<pdfrwt beam="1">  1       21 0.10318249E-01 0.72351666E+02</pdfrwt>
<pdfrwt beam="2">  1       21 0.53763652E-01 0.72351666E+02</pdfrwt>
<totfact> 0.25852589E+05</totfact>
</mgrwt>
</event>
<event>
 5    1  0.1959123E+000  0.7873660E+02  0.7546771E-02  0.1332675E+00
         21   -1    0    0  503  502  0.00000000000E+00  0.00000000000E+00  0.57645220019E+02  0.57645220019E+02  0.00000000000E+00 0.  1.
         21   -1    0    0  501  503 -0.00000000000E+00 -0.00000000000E+00 -0.23107779045E+03  0.23107779045E+03  0.00000000000E+00 0. -1.
         24    1    1    2    0    0 -0.38787584663E+02  0.12225728458E+02 -0.18769898619E+03  0.20821160038E+03  0.80419002446E+02 0. -1.
          1    1    1    2  501    0  0.22440896769E+02 -0.33625965703E+02 -0.12726808224E+02  0.42382438165E+02  0.00000000000E+00 0. -1.
         -2    1    1    2    0  502  0.16346687894E+02  0.21400237245E+02  0.26993223983E+02  0.38128971928E+02  0.00000000000E+00 0.  1.
<mgrwt>
<rscale>  2 0.78736601E+02</rscale>
<asrwt>0</asrwt>
<pdfrwt beam="1">  1       21 0.88684955E-02 0.78736601E+02</pdfrwt>
<pdfrwt beam="2">  1       21 0.35550429E-01 0.78736601E+02</pdfrwt>
<totfact> 0.76490694E+05</totfact>
</mgrwt>
</event>
<event>
 5    1  0.1959123E+000  0.1036662E+03  0.7546771E-02  0.1272770E+00
         21   -1    0    0  501  502  0.00000000000E+00  0.00000000000E+00  0.36706741226E+02  0.36706741226E+02  0.00000000000E+00 0.  1.
         21   -1    0    0  502  503 -0.00000000000E+00 -0.00000000000E+00 -0.30831141477E+03  0.30831141477E+03  0.00000000000E+00 0.  1.
         24    1    1    2    0    0  0.26779760472E+02  0.83799090648E+02 -0.18045062650E+03  0.21626161870E+03  0.80419002446E+02 0.  1.
          1    1    1    2  501    0 -0.85300823118E+01 -0.35453510939E+02 -0.22574003330E+02  0.42887053623E+02  0.00000000000E+00 0. -1.
         -2    1    1    2    0  503 -0.18249678161E+02 -0.48345579709E+02 -0.68580043716E+02  0.85869483674E+02  0.00000000000E+00 0.  1.
<mgrwt>
<rscale>  2 0.10366616E+03</rscale>
<asrwt>0</asrwt>
<pdfrwt beam="1">  1       21 0.56471909E-02 0.10366616E+03</pdfrwt>
<pdfrwt beam="2">  1       21 0.47432526E-01 0.10366616E+03</pdfrwt>
<totfact> 0.93074252E+05</totfact>
</mgrwt>
</event>
<event>
 5    1  0.1959123E+000  0.6669620E+02  0.7546771E-02  0.1371702E+00
         21   -1    0    0  501  502  0.00000000000E+00  0.00000000000E+00  0.27831489685E+03  0.27831489685E+03  0.00000000000E+00 0. -1.
         21   -1    0    0  502  503 -0.00000000000E+00 -0.00000000000E+00 -0.41505205154E+02  0.41505205154E+02  0.00000000000E+00 0.  1.
         24    1    1    2    0    0  0.36141100954E+02  0.18985883446E+02  0.66845584720E+02  0.11225948111E+03  0.80419002446E+02 0. -1.
          1    1    1    2  501    0 -0.22271441173E+02 -0.37218685192E+01  0.18219070557E+03  0.18358464694E+03  0.00000000000E+00 0. -1.
         -2    1    1    2    0  503 -0.13869659781E+02 -0.15264014927E+02 -0.12226598587E+02  0.23975973956E+02  0.00000000000E+00 0.  1.
<mgrwt>
<rscale>  2 0.66696198E+02</rscale>
<asrwt>0</asrwt>
<pdfrwt beam="1">  1       21 0.42817675E-01 0.66696198E+02</pdfrwt>
<pdfrwt beam="2">  1       21 0.63854164E-02 0.66696198E+02</pdfrwt>
<totfact> 0.92293000E+05</totfact>
</mgrwt>
</event>
<event>
 5    1  0.1959123E+000  0.1057059E+03  0.7546771E-02  0.1268735E+00
         21   -1    0    0  501  502  0.00000000000E+00  0.00000000000E+00  0.82597567292E+03  0.82597567292E+03  0.00000000000E+00 0. -1.
         21   -1    0    0  502  503 -0.00000000000E+00 -0.00000000000E+00 -0.76671038460E+02  0.76671038460E+02  0.00000000000E+00 0.  1.
         24    1    1    2    0    0 -0.12891500076E+02  0.68183835192E+02  0.69277464974E+02  0.12681407360E+03  0.80419002446E+02 0.  1.
          1    1    1    2  501    0  0.24520310491E+02  0.97563196007E+01  0.69510033730E+03  0.69560111437E+03  0.00000000000E+00 0. -1.
         -2    1    1    2    0  503 -0.11628810415E+02 -0.77940154792E+02 -0.15073167813E+02  0.80231523410E+02  0.00000000000E+00 0.  1.
<mgrwt>
<rscale>  2 0.10570586E+03</rscale>
<asrwt>0</asrwt>
<pdfrwt beam="1">  1       21 0.12707317E+00 0.10570586E+03</pdfrwt>
<pdfrwt beam="2">  1       21 0.11795545E-01 0.10570586E+03</pdfrwt>
<totfact> 0.29422394E+04</totfact>
</mgrwt>
</event>
<event>
 5    1  0.1959123E+000  0.8053024E+02  0.7546771E-02  0.1327553E+00
         21   -1    0    0  501  502  0.00000000000E+00  0.00000000000E+00  0.96144543477E+03  0.96144543477E+03  0.00000000000E+00 0. -1.
         21   -1    0    0  502  503 -0.00000000000E+00 -0.00000000000E+00 -0.17622354240E+02  0.17622354240E+02  0.00000000000E+00 0.  1.
         24    1    1    2    0    0 -0.19330606241E+02 -0.25913004632E+02  0.18011043321E+03  0.19988031482E+03  0.80419002446E+02 0.  1.
          1    1    1    2  501    0 -0.24178047943E+02  0.88793895212E+00  0.68753692165E+03  0.68796248812E+03  0.00000000000E+00 0. -1.
         -2    1    1    2    0  503  0.43508654184E+02  0.25025065680E+02  0.76175725669E+02  0.91224986064E+02  0.00000000000E+00 0.  1.
<mgrwt>
<rscale>  2 0.80530244E+02</rscale>
<asrwt>0</asrwt>
<pdfrwt beam="1">  1       21 0.14791464E+00 0.80530244E+02</pdfrwt>
<pdfrwt beam="2">  1       21 0.27111322E-02 0.80530244E+02</pdfrwt>
<totfact> 0.24251527E+05</totfact>
</mgrwt>
</event>
<event>
 5    1  0.1959123E+000  0.7088458E+02  0.7546771E-02  0.1357111E+00
         21   -1    0    0  503  502  0.00000000000E+00  0.00000000000E+00  0.61217487501E+02  0.61217487501E+02  0.00000000000E+00 0.  1.
         21   -1    0    0  501  503 -0.00000000000E+00 -0.00000000000E+00 -0.12011311172E+03  0.12011311172E+03  0.00000000000E+00 0.  1.
         24    1    1    2    0    0 -0.24599047196E+02 -0.22552570820E-02  0.11258863401E+02  0.84847457755E+02  0.80419002446E+02 0.  1.
          1    1    1    2  501    0  0.20165533183E+02 -0.25090966846E+02 -0.61775023737E+02  0.69658875267E+02  0.00000000000E+00 0. -1.
         -2    1    1    2    0  502  0.44335140124E+01  0.25093222103E+02 -0.83794638808E+01  0.26824266196E+02  0.00000000000E+00 0.  1.
<mgrwt>
<rscale>  2 0.70884579E+02</rscale>
<asrwt>0</asrwt>
<pdfrwt beam="1">  1       21 0.94180750E-02 0.70884579E+02</pdfrwt>
<pdfrwt beam="2">  1       21 0.18478940E-01 0.70884579E+02</pdfrwt>
<totfact> 0.23340994E+06</totfact>
</mgrwt>
</event>
<event>
 5    1  0.1959123E+000  0.1132846E+03  0.7546771E-02  0.1254605E+00
         21   -1    0    0  503  502  0.00000000000E+00  0.00000000000E+00  0.61601692255E+03  0.61601692255E+03  0.00000000000E+00 0.  1.
         21   -1    0    0  501  503 -0.00000000000E+00 -0.00000000000E+00 -0.82318323342E+02  0.82318323342E+02  0.00000000000E+00 0.  1.
         24    1    1    2    0    0 -0.93676471008E+02 -0.13447758049E+02  0.61715175640E+02  0.13867985534E+03  0.80419002446E+02 0.  1.
          1    1    1    2  501    0  0.36586162734E+02  0.24761635026E+02 -0.30582563090E+02  0.53730615462E+02  0.00000000000E+00 0. -1.
         -2    1    1    2    0  502  0.57090308275E+02 -0.11313876977E+02  0.50256598666E+03  0.50592477510E+03  0.00000000000E+00 0.  1.
<mgrwt>
<rscale>  2 0.11328460E+03</rscale>
<asrwt>0</asrwt>
<pdfrwt beam="1">  1       21 0.94771831E-01 0.11328460E+03</pdfrwt>
<pdfrwt beam="2">  1       21 0.12664358E-01 0.11328460E+03</pdfrwt>
<totfact> 0.51810692E+04</totfact>
</mgrwt>
</event>
<event>
 5    1  0.1959123E+000  0.1028662E+03  0.7546771E-02  0.1274382E+00
         21   -1    0    0  503  502  0.00000000000E+00  0.00000000000E+00  0.69641413155E+02  0.69641413155E+02  0.00000000000E+00 0.  1.
         21   -1    0    0  501  503 -0.00000000000E+00 -0.00000000000E+00 -0.10580853580E+04  0.10580853580E+04  0.00000000000E+00 0. -1.
         24    1    1    2    0    0 -0.85230386247E+02 -0.17232492671E+02 -0.86210503575E+03  0.87020312925E+03  0.80419002446E+02 0. -1.
          1    1    1    2  501    0  0.41060104189E+02  0.44057444815E+01 -0.18124965050E+03  0.18589453609E+03  0.00000000000E+00 0. -1.
         -2    1    1    2    0  502  0.44170282059E+02  0.12826748190E+02  0.54910741373E+02  0.71629105847E+02  0.00000000000E+00 0.  1.
<mgrwt>
<rscale>  2 0.10286615E+03</rscale>
<asrwt>0</asrwt>
<pdfrwt beam="1">  1       21 0.10714063E-01 0.10286615E+03</pdfrwt>
<pdfrwt beam="2">  1       21 0.16278237E+00 0.10286615E+03</pdfrwt>
<totfact> 0.18623567E+04</totfact>
</mgrwt>
</event>
<event>
 5    1  0.1959123E+000  0.6441861E+02  0.7546771E-02  0.1380172E+00
         21   -1    0    0  501  502  0.00000000000E+00  0.00000000000E+00  0.43840636300E+02  0.43840636300E+02  0.00000000000E+00 0.  1.
         21   -1    0    0  502  503 -0.00000000000E+00 -0.00000000000E+00 -0.10106469936E+03  0.10106469936E+03  0.00000000000E+00 0. -1.
         24    1    1    2    0    0  0.61751622182E+01 -0.10111056927E+02 -0.22011952237E+02  0.84214654878E+02  0.80419002446E+02 0.  1.
          1    1    1    2  501    0 -0.20109105198E+02 -0.10488917041E+02 -0.85720252804E+01  0.24246094736E+02  0.00000000000E+00 0. -1.
         -2    1    1    2    0  503  0.13933942979E+02  0.20599973969E+02 -0.26640085547E+02  0.36444586051E+02  0.00000000000E+00 0.  1.
<mgrwt>
<rscale>  2 0.64418608E+02</rscale>
<asrwt>0</asrwt>
<pdfrwt beam="1">  1       21 0.67447133E-02 0.64418608E+02</pdfrwt>
<pdfrwt beam="2">  1       21 0.15548415E-01 0.64418608E+02</pdfrwt>
<totfact> 0.55587069E+06</totfact>
</mgrwt>
</event>
<event>
 5    1  0.1959123E+000  0.7233779E+02  0.7546771E-02  0.1352319E+00
         21   -1    0    0  503  502  0.00000000000E+00  0.00000000000E+00  0.16804694503E+03  0.16804694503E+03  0.00000000000E+00 0.  1.
         21   -1    0    0  501  503 -0.00000000000E+00 -0.00000000000E+00 -0.19090609470E+03  0.19090609470E+03  0.00000000000E+00 0. -1.
         24    1    1    2    0    0  0.21280180348E+02 -0.48504915340E+01 -0.49135378472E+02  0.96736108645E+02  0.80419002446E+02 0. -1.
          1    1    1    2  501    0 -0.41016006593E+02 -0.34341049803E-01 -0.11364819711E+03  0.12082312147E+03  0.00000000000E+00 0. -1.
         -2    1    1    2    0  502  0.19735826245E+02  0.48848325838E+01  0.13992442592E+03  0.14139380961E+03  0.00000000000E+00 0.  1.
<mgrwt>
<rscale>  2 0.72337794E+02</rscale>
<asrwt>0</asrwt>
<pdfrwt beam="1">  1       21 0.25853376E-01 0.72337794E+02</pdfrwt>
<pdfrwt beam="2">  1       21 0.29370168E-01 0.72337794E+02</pdfrwt>
<totfact> 0.16408078E+05</totfact>
</mgrwt>
</event>
<event>
 5    1  0.1959123E+000  0.7102604E+02  0.7546771E-02  0.1356638E+00
         21   -1    0    0  503  502  0.00000000000E+00  0.00000000000E+00  0.74366908398E+03  0.74366908398E+03  0.00000000000E+00 0.  1.
         21   -1    0    0  501  503 -0.00000000000E+00 -0.00000000000E+00 -0.96585650856E+02  0.96585650856E+02  0.00000000000E+00 0. -1.
         24    1    1    2    0    0 -0.63999718593E+01  0.20357877473E+02  0.51923403583E+02  0.98074760306E+02  0.80419002446E+02 0.  1.
          1    1    1    2  501    0  0.30221041846E+02 -0.53380302069E+01 -0.69996019534E+02  0.76428062172E+02  0.00000000000E+00 0. -1.
         -2    1    1    2    0  502 -0.23821069987E+02 -0.15019847266E+02  0.66515604908E+03  0.66575191236E+03  0.00000000000E+00 0.  1.
<mgrwt>
<rscale>  2 0.71026042E+02</rscale>
<asrwt>0</asrwt>
<pdfrwt beam="1">  1       21 0.11441062E+00 0.71026042E+02</pdfrwt>
<pdfrwt beam="2">  1       21 0.14859331E-01 0.71026042E+02</pdfrwt>
<totfact> 0.26137933E+04</totfact>
</mgrwt>
</event>
<event>
 5    1  0.1959123E+000  0.8768553E+02  0.7546771E-02  0.1308555E+00
         21   -1    0    0  501  502  0.00000000000E+00  0.00000000000E+00  0.79691870020E+02  0.79691870020E+02  0.00000000000E+00 0. -1.
         21   -1    0    0  502  503 -0.00000000000E+00 -0.00000000000E+00 -0.21520049812E+03  0.21520049812E+03  0.00000000000E+00 0.  1.
         24    1    1    2    0    0  0.36516303715E+02  0.58694727484E+02  0.46112149915E+01  0.10614608203E+03  0.80419002446E+02 0. -1.
          1    1    1    2  501    0 -0.25405531403E+02 -0.36064047366E+02  0.22403395012E+01  0.44170982096E+02  0.00000000000E+00 0. -1.
         -2    1    1    2    0  503 -0.11110772312E+02 -0.22630680118E+02 -0.14236018260E+03  0.14457530402E+03  0.00000000000E+00 0.  1.
<mgrwt>
<rscale>  2 0.87685527E+02</rscale>
<asrwt>0</asrwt>
<pdfrwt beam="1">  1       21 0.12260288E-01 0.87685527E+02</pdfrwt>
<pdfrwt beam="2">  1       21 0.33107769E-01 0.87685527E+02</pdfrwt>
<totfact> 0.50110656E+05</totfact>
</mgrwt>
</event>
<event>
 5    1  0.1959123E+000  0.9150528E+02  0.7546771E-02  0.1299247E+00
         21   -1    0    0  501  502  0.00000000000E+00  0.00000000000E+00  0.12537651035E+02  0.12537651035E+02  0.00000000000E+00 0. -1.
         21   -1    0    0  502  503 -0.00000000000E+00 -0.00000000000E+00 -0.10144112768E+04  0.10144112768E+04  0.00000000000E+00 0. -1.
         24    1    1    2    0    0 -0.15217260968E+02 -0.71434900372E+02 -0.26753559891E+03  0.28875079681E+03  0.80419002446E+02 0. -1.
          1    1    1    2  501    0  0.12467592668E+02  0.25773104192E+02 -0.22606316956E+03  0.22786893250E+03  0.00000000000E+00 0. -1.
         -2    1    1    2    0  503  0.27496683002E+01  0.45661796180E+02 -0.50827485727E+03  0.51032919849E+03  0.00000000000E+00 0.  1.
<mgrwt>
<rscale>  2 0.91505277E+02</rscale>
<asrwt>0</asrwt>
<pdfrwt beam="1">  1       21 0.19288696E-02 0.91505277E+02</pdfrwt>
<pdfrwt beam="2">  1       21 0.15606325E+00 0.91505277E+02</pdfrwt>
<totfact> 0.36363535E+05</totfact>
</mgrwt>
</event>
<event>
 5    1  0.1959123E+000  0.8437710E+02  0.7546771E-02  0.1317070E+00
         21   -1    0    0  501  502  0.00000000000E+00  0.00000000000E+00  0.10072589714E+03  0.10072589714E+03  0.00000000000E+00 0.  1.
         21   -1    0    0  502  503 -0.00000000000E+00 -0.00000000000E+00 -0.79334578390E+02  0.79334578390E+02  0.00000000000E+00 0.  1.
         24    1    1    2    0    0 -0.36232620598E+02 -0.11419127577E+02 -0.17835350788E+02  0.90711162280E+02  0.80419002446E+02 0.  1.
          1    1    1    2  501    0  0.60271876775E+00  0.36332593268E+02  0.22658647498E+02  0.42823298681E+02  0.00000000000E+00 0. -1.
         -2    1    1    2    0  503  0.35629901831E+02 -0.24913465691E+02  0.16568022039E+02  0.46526014567E+02  0.00000000000E+00 0.  1.
<mgrwt>
<rscale>  2 0.84377100E+02</rscale>
<asrwt>0</asrwt>
<pdfrwt beam="1">  1       21 0.15496292E-01 0.84377100E+02</pdfrwt>
<pdfrwt beam="2">  1       21 0.12205320E-01 0.84377100E+02</pdfrwt>
<totfact> 0.20598154E+06</totfact>
</mgrwt>
</event>
<event>
 5    1  0.1959123E+000  0.6875970E+02  0.7546771E-02  0.1364362E+00
         21   -1    0    0  501  502  0.00000000000E+00  0.00000000000E+00  0.27232465602E+02  0.27232465602E+02  0.00000000000E+00 0. -1.
         21   -1    0    0  502  503 -0.00000000000E+00 -0.00000000000E+00 -0.18122602961E+03  0.18122602961E+03  0.00000000000E+00 0. -1.
         24    1    1    2    0    0  0.34863400337E+01 -0.45097840470E+02 -0.87114921110E+02  0.12689442547E+03  0.80419002446E+02 0. -1.
          1    1    1    2  501    0 -0.22391378915E+01  0.20265933077E+02 -0.20338521230E+02  0.28798910184E+02  0.00000000000E+00 0. -1.
         -2    1    1    2    0  503 -0.12472021422E+01  0.24831907393E+02 -0.46540121671E+02  0.52765159558E+02  0.00000000000E+00 0.  1.
<mgrwt>
<rscale>  2 0.68759696E+02</rscale>
<asrwt>0</asrwt>
<pdfrwt beam="1">  1       21 0.41896100E-02 0.68759696E+02</pdfrwt>
<pdfrwt beam="2">  1       21 0.27880928E-01 0.68759696E+02</pdfrwt>
<totfact> 0.42402006E+06</totfact>
</mgrwt>
</event>
<event>
 5    1  0.1959123E+000  0.8792747E+02  0.7546771E-02  0.1307950E+00
         21   -1    0    0  501  502  0.00000000000E+00  0.00000000000E+00  0.26186379927E+03  0.26186379927E+03  0.00000000000E+00 0. -1.
         21   -1    0    0  502  503 -0.00000000000E+00 -0.00000000000E+00 -0.12228126795E+03  0.12228126795E+03  0.00000000000E+00 0.  1.
         24    1    1    2    0    0 -0.22235751187E+02 -0.15669198470E+02  0.30342249820E+01  0.84949248891E+02  0.80419002446E+02 0. -1.
          1    1    1    2  501    0  0.49471391453E+02 -0.13269801339E+02  0.20974428345E+03  0.21590778272E+03  0.00000000000E+00 0. -1.
         -2    1    1    2    0  503 -0.27235640265E+02  0.28938999809E+02 -0.73195977111E+02  0.83288035611E+02  0.00000000000E+00 0.  1.
<mgrwt>
<rscale>  2 0.87927471E+02</rscale>
<asrwt>0</asrwt>
<pdfrwt beam="1">  1       21 0.40286738E-01 0.87927471E+02</pdfrwt>
<pdfrwt beam="2">  1       21 0.18812503E-01 0.87927471E+02</pdfrwt>
<totfact> 0.15895070E+05</totfact>
</mgrwt>
</event>
<event>
 5    1  0.1959123E+000  0.6747675E+02  0.7546771E-02  0.1368890E+00
         21   -1    0    0  503  502  0.00000000000E+00  0.00000000000E+00  0.90723042772E+01  0.90723042772E+01  0.00000000000E+00 0. -1.
         21   -1    0    0  501  503 -0.00000000000E+00 -0.00000000000E+00 -0.65649310399E+03  0.65649310399E+03  0.00000000000E+00 0.  1.
         24    1    1    2    0    0  0.36685455860E+01 -0.10425214380E+02 -0.24905179036E+03  0.26194685254E+03  0.80419002446E+02 0. -1.
          1    1    1    2  501    0 -0.15768221691E+02 -0.17372653142E+02 -0.29402245788E+03  0.29495703353E+03  0.00000000000E+00 0. -1.
         -2    1    1    2    0  502  0.12099676105E+02  0.27797867522E+02 -0.10434655148E+03  0.10866152219E+03  0.00000000000E+00 0.  1.
<mgrwt>
<rscale>  2 0.67476752E+02</rscale>
<asrwt>0</asrwt>
<pdfrwt beam="1">  1       21 0.13957391E-02 0.67476752E+02</pdfrwt>
<pdfrwt beam="2">  1       21 0.10099894E+00 0.67476752E+02</pdfrwt>
<totfact> 0.17436582E+06</totfact>
</mgrwt>
</event>
<event>
 5    1  0.1959123E+000  0.9597695E+02  0.7546771E-02  0.1288991E+00
         21   -1    0    0  501  502  0.00000000000E+00  0.00000000000E+00  0.67853368118E+01  0.67853368118E+01  0.00000000000E+00 0. -1.
         21   -1    0    0  502  503 -0.00000000000E+00 -0.00000000000E+00 -0.14361450159E+04  0.14361450159E+04  0.00000000000E+00 0. -1.
         24    1    1    2    0    0  0.32536921625E+02  0.14713096521E+01 -0.81198459152E+03  0.81660701004E+03  0.80419002446E+02 0. -1.
          1    1    1    2  501    0 -0.66606547210E+02  0.13524640620E+02 -0.37565403567E+03  0.38175293391E+03  0.00000000000E+00 0. -1.
         -2    1    1    2    0  503  0.34069625585E+02 -0.14995950272E+02 -0.24172105193E+03  0.24457040880E+03  0.00000000000E+00 0.  1.
<mgrwt>
<rscale>  2 0.95976953E+02</rscale>
<asrwt>0</asrwt>
<pdfrwt beam="1">  1       21 0.10438963E-02 0.95976953E+02</pdfrwt>
<pdfrwt beam="2">  1       21 0.22094574E+00 0.95976953E+02</pdfrwt>
<totfact> 0.36643337E+05</totfact>
</mgrwt>
</event>
<event>
 5    1  0.1959123E+000  0.8567147E+02  0.7546771E-02  0.1313686E+00
         21   -1    0    0  503  502  0.00000000000E+00  0.00000000000E+00  0.13528880259E+04  0.13528880259E+04  0.00000000000E+00 0.  1.
         21   -1    0    0  501  503 -0.00000000000E+00 -0.00000000000E+00 -0.19562463584E+02  0.19562463584E+02  0.00000000000E+00 0.  1.
         24    1    1    2    0    0 -0.39809516366E+02 -0.33192013744E+02  0.10734143665E+03  0.14379119357E+03  0.80419002446E+02 0.  1.
          1    1    1    2  501    0  0.34439214290E+01  0.38730144609E+02  0.40803855350E+03  0.40988699155E+03  0.00000000000E+00 0. -1.
         -2    1    1    2    0  502  0.36365594937E+02 -0.55381308648E+01  0.81794557220E+03  0.81877230441E+03  0.00000000000E+00 0.  1.
<mgrwt>
<rscale>  2 0.85671467E+02</rscale>
<asrwt>0</asrwt>
<pdfrwt beam="1">  1       21 0.20813655E+00 0.85671467E+02</pdfrwt>
<pdfrwt beam="2">  1       21 0.30096108E-02 0.85671467E+02</pdfrwt>
<totfact> 0.81503536E+04</totfact>
</mgrwt>
</event>
<event>
 5    1  0.1959123E+000  0.1013963E+03  0.7546771E-02  0.1277387E+00
         21   -1    0    0  503  502  0.00000000000E+00  0.00000000000E+00  0.28086500026E+02  0.28086500026E+02  0.00000000000E+00 0.  1.
         21   -1    0    0  501  503 -0.00000000000E+00 -0.00000000000E+00 -0.52262191931E+03  0.52262191931E+03  0.00000000000E+00 0.  1.
         24    1    1    2    0    0 -0.33654578056E+02  0.77950131730E+02 -0.32988283100E+03  0.34999821686E+03  0.80419002446E+02 0.  1.
          1    1    1    2  501    0  0.13636040864E+02 -0.47406205667E+02 -0.15539373687E+03  0.16303528270E+03  0.00000000000E+00 0. -1.
         -2    1    1    2    0  502  0.20018537191E+02 -0.30543926063E+02 -0.92588514096E+01  0.37674919775E+02  0.00000000000E+00 0.  1.
<mgrwt>
<rscale>  2 0.10139630E+03</rscale>
<asrwt>0</asrwt>
<pdfrwt beam="1">  1       21 0.43210000E-02 0.10139630E+03</pdfrwt>
<pdfrwt beam="2">  1       21 0.80403372E-01 0.10139630E+03</pdfrwt>
<totfact> 0.47478504E+05</totfact>
</mgrwt>
</event>
<event>
 5    1  0.1959123E+000  0.1295819E+03  0.7546771E-02  0.1228077E+00
         21   -1    0    0  503  502  0.00000000000E+00  0.00000000000E+00  0.90968729411E+02  0.90968729411E+02  0.00000000000E+00 0. -1.
         21   -1    0    0  501  503 -0.00000000000E+00 -0.00000000000E+00 -0.26381824792E+03  0.26381824792E+03  0.00000000000E+00 0.  1.
         24    1    1    2    0    0 -0.89689477744E+02  0.14240110048E+02 -0.46326863147E+02  0.12984751579E+03  0.80419002446E+02 0.  0.
          1    1    1    2  501    0  0.36996826679E+02 -0.58385681678E+02 -0.13884869898E+03  0.15510194782E+03  0.00000000000E+00 0. -1.
         -2    1    1    2    0  502  0.52692651065E+02  0.44145571630E+02  0.12326043626E+02  0.69837513717E+02  0.00000000000E+00 0.  1.
<mgrwt>
<rscale>  2 0.12958191E+03</rscale>
<asrwt>0</asrwt>
<pdfrwt beam="1">  1       21 0.13995189E-01 0.12958191E+03</pdfrwt>
<pdfrwt beam="2">  1       21 0.40587423E-01 0.12958191E+03</pdfrwt>
<totfact> 0.26404237E+05</totfact>
</mgrwt>
</event>
<event>
 5    1  0.1959123E+000  0.7333018E+02  0.7546771E-02  0.1349121E+00
         21   -1    0    0  503  502  0.00000000000E+00  0.00000000000E+00  0.66006758583E+03  0.66006758583E+03  0.00000000000E+00 0. -1.
         21   -1    0    0  501  503 -0.00000000000E+00 -0.00000000000E+00 -0.95588833501E+01  0.95588833501E+01  0.00000000000E+00 0. -1.
         24    1    1    2    0    0 -0.22799697547E+02 -0.27587806985E+02  0.48513982809E+03  0.49306062716E+03  0.80419002446E+02 0. -1.
          1    1    1    2  501    0  0.32040517385E+02  0.27764620266E+01  0.61812909665E+02  0.69678829618E+02  0.00000000000E+00 0. -1.
         -2    1    1    2    0  502 -0.92408198380E+01  0.24811344958E+02  0.10355596472E+03  0.10688701240E+03  0.00000000000E+00 0.  1.
<mgrwt>
<rscale>  2 0.73330185E+02</rscale>
<asrwt>0</asrwt>
<pdfrwt beam="1">  1       21 0.10154882E+00 0.73330185E+02</pdfrwt>
<pdfrwt beam="2">  1       21 0.14705980E-02 0.73330185E+02</pdfrwt>
<totfact> 0.15902267E+06</totfact>
</mgrwt>
</event>
<event>
 5    1  0.1959123E+000  0.1026130E+03  0.7546771E-02  0.1274895E+00
         21   -1    0    0  501  502  0.00000000000E+00  0.00000000000E+00  0.46587908153E+02  0.46587908153E+02  0.00000000000E+00 0.  1.
         21   -1    0    0  502  503 -0.00000000000E+00 -0.00000000000E+00 -0.32320182477E+03  0.32320182477E+03  0.00000000000E+00 0. -1.
         24    1    1    2    0    0 -0.59978983567E+01 -0.64275740177E+02 -0.54299172932E+02  0.11654596387E+03  0.80419002446E+02 0.  1.
          1    1    1    2  501    0 -0.24885117685E+02 -0.57743612628E+01 -0.98018979518E+01  0.27362191682E+02  0.00000000000E+00 0. -1.
         -2    1    1    2    0  503  0.30883016041E+02  0.70050101440E+02 -0.21251284574E+03  0.22588157737E+03  0.00000000000E+00 0.  1.
<mgrwt>
<rscale>  2 0.10261300E+03</rscale>
<asrwt>0</asrwt>
<pdfrwt beam="1">  1       21 0.71673703E-02 0.10261300E+03</pdfrwt>
<pdfrwt beam="2">  1       21 0.49723359E-01 0.10261300E+03</pdfrwt>
<totfact> 0.56475500E+05</totfact>
</mgrwt>
</event>
<event>
 5    1  0.1959123E+000  0.1869468E+03  0.7546771E-02  0.1161244E+00
         21   -1    0    0  501  502  0.00000000000E+00  0.00000000000E+00  0.34036842883E+03  0.34036842883E+03  0.00000000000E+00 0. -1.
         21   -1    0    0  502  503 -0.00000000000E+00 -0.00000000000E+00 -0.33509747952E+03  0.33509747952E+03  0.00000000000E+00 0. -1.
         24    1    1    2    0    0  0.15709371909E+03  0.74797659371E+02 -0.27370476832E+03  0.33414763591E+03  0.80419002446E+02 0. -1.
          1    1    1    2  501    0 -0.59855833111E+02 -0.52661728300E+00  0.15925547157E+03  0.17013319285E+03  0.00000000000E+00 0. -1.
         -2    1    1    2    0  503 -0.97237885975E+02 -0.74271042088E+02  0.11972024607E+03  0.17118507961E+03  0.00000000000E+00 0.  1.
<mgrwt>
<rscale>  2 0.18694675E+03</rscale>
<asrwt>0</asrwt>
<pdfrwt beam="1">  1       21 0.52364374E-01 0.18694675E+03</pdfrwt>
<pdfrwt beam="2">  1       21 0.51553458E-01 0.18694675E+03</pdfrwt>
<totfact> 0.12411367E+04</totfact>
</mgrwt>
</event>
<event>
 5    1  0.1959123E+000  0.8374028E+02  0.7546771E-02  0.1318760E+00
         21   -1    0    0  503  502  0.00000000000E+00  0.00000000000E+00  0.10553907002E+04  0.10553907002E+04  0.00000000000E+00 0. -1.
         21   -1    0    0  501  503 -0.00000000000E+00 -0.00000000000E+00 -0.25418739657E+02  0.25418739657E+02  0.00000000000E+00 0. -1.
         24    1    1    2    0    0 -0.39976551848E+02  0.88235913024E+01  0.85713335254E+03  0.86187051258E+03  0.80419002446E+02 0. -1.
          1    1    1    2  501    0  0.42291759092E+02  0.21075583070E+02  0.39594598221E+01  0.47417827986E+02  0.00000000000E+00 0. -1.
         -2    1    1    2    0  502 -0.23152072440E+01 -0.29899174373E+02  0.16887914822E+03  0.17152109934E+03  0.00000000000E+00 0.  1.
<mgrwt>
<rscale>  2 0.83740284E+02</rscale>
<asrwt>0</asrwt>
<pdfrwt beam="1">  1       21 0.16236777E+00 0.83740284E+02</pdfrwt>
<pdfrwt beam="2">  1       21 0.39105762E-02 0.83740284E+02</pdfrwt>
<totfact> 0.10496999E+05</totfact>
</mgrwt>
</event>
<event>
 5    1  0.1959123E+000  0.9207203E+02  0.7546771E-02  0.1297910E+00
         21   -1    0    0  501  502  0.00000000000E+00  0.00000000000E+00  0.12771784259E+03  0.12771784259E+03  0.00000000000E+00 0. -1.
         21   -1    0    0  502  503 -0.00000000000E+00 -0.00000000000E+00 -0.10456901350E+03  0.10456901350E+03  0.00000000000E+00 0.  1.
         24    1    1    2    0    0  0.90157471840E+01 -0.24270415052E+02  0.13951847610E+02  0.85628305777E+02  0.80419002446E+02 0. -1.
          1    1    1    2  501    0  0.34364225346E+02  0.40705252614E+02  0.58392446484E+02  0.79041099312E+02  0.00000000000E+00 0. -1.
         -2    1    1    2    0  503 -0.43379972530E+02 -0.16434837562E+02 -0.49195465010E+02  0.67617451001E+02  0.00000000000E+00 0.  1.
<mgrwt>
<rscale>  2 0.92072032E+02</rscale>
<asrwt>0</asrwt>
<pdfrwt beam="1">  1       21 0.19648899E-01 0.92072032E+02</pdfrwt>
<pdfrwt beam="2">  1       21 0.16087541E-01 0.92072032E+02</pdfrwt>
<totfact> 0.82371295E+05</totfact>
</mgrwt>
</event>
<event>
 5    1  0.1959123E+000  0.7217034E+02  0.7546771E-02  0.1352864E+00
         21   -1    0    0  501  502  0.00000000000E+00  0.00000000000E+00  0.22689459415E+02  0.22689459415E+02  0.00000000000E+00 0.  1.
         21   -1    0    0  502  503 -0.00000000000E+00 -0.00000000000E+00 -0.31502388301E+03  0.31502388301E+03  0.00000000000E+00 0. -1.
         24    1    1    2    0    0  0.12329313345E+02 -0.34731551931E+01 -0.84453424059E+02  0.11731867526E+03  0.80419002446E+02 0.  0.
          1    1    1    2  501    0  0.10471183616E+02 -0.24603708155E+02 -0.36545088262E+02  0.45282796042E+02  0.00000000000E+00 0. -1.
         -2    1    1    2    0  503 -0.22800496961E+02  0.28076863348E+02 -0.17133591128E+03  0.17511187113E+03  0.00000000000E+00 0.  1.
<mgrwt>
<rscale>  2 0.72170336E+02</rscale>
<asrwt>0</asrwt>
<pdfrwt beam="1">  1       21 0.34906861E-02 0.72170336E+02</pdfrwt>
<pdfrwt beam="2">  1       21 0.48465212E-01 0.72170336E+02</pdfrwt>
<totfact> 0.19546466E+06</totfact>
</mgrwt>
</event>
<event>
 5    1  0.1959123E+000  0.1080944E+03  0.7546771E-02  0.1264140E+00
         21   -1    0    0  503  502  0.00000000000E+00  0.00000000000E+00  0.73630065295E+01  0.73630065295E+01  0.00000000000E+00 0.  1.
         21   -1    0    0  501  503 -0.00000000000E+00 -0.00000000000E+00 -0.17387187053E+04  0.17387187053E+04  0.00000000000E+00 0.  1.
         24    1    1    2    0    0 -0.11770158062E+02 -0.92334238850E+02 -0.98352303821E+03  0.99118561881E+03  0.80419002446E+02 0.  1.
          1    1    1    2  501    0  0.62238718643E+01  0.32664017127E+02 -0.44189856327E+03  0.44314784758E+03  0.00000000000E+00 0. -1.
         -2    1    1    2    0  502  0.55462861974E+01  0.59670221723E+02 -0.30593409730E+03  0.31174824545E+03  0.00000000000E+00 0.  1.
<mgrwt>
<rscale>  2 0.10809436E+03</rscale>
<asrwt>0</asrwt>
<pdfrwt beam="1">  1       21 0.11327690E-02 0.10809436E+03</pdfrwt>
<pdfrwt beam="2">  1       21 0.26749547E+00 0.10809436E+03</pdfrwt>
<totfact> 0.17302261E+05</totfact>
</mgrwt>
</event>
<event>
 5    1  0.1959123E+000  0.7383034E+02  0.7546771E-02  0.1347532E+00
         21   -1    0    0  501  502  0.00000000000E+00  0.00000000000E+00  0.31228105448E+02  0.31228105448E+02  0.00000000000E+00 0.  1.
         21   -1    0    0  502  503 -0.00000000000E+00 -0.00000000000E+00 -0.20017288434E+03  0.20017288434E+03  0.00000000000E+00 0. -1.
         24    1    1    2    0    0 -0.44238301257E+02  0.64478523362E+01 -0.13372178657E+03  0.16231861956E+03  0.80419002446E+02 0. -1.
          1    1    1    2  501    0  0.28706605614E+02 -0.20041570044E+02 -0.98407308505E+01  0.36367206648E+02  0.00000000000E+00 0. -1.
         -2    1    1    2    0  503  0.15531695643E+02  0.13593717708E+02 -0.25382261467E+02  0.32715163576E+02  0.00000000000E+00 0.  1.
<mgrwt>
<rscale>  2 0.73830339E+02</rscale>
<asrwt>0</asrwt>
<pdfrwt beam="1">  1       21 0.48043240E-02 0.73830339E+02</pdfrwt>
<pdfrwt beam="2">  1       21 0.30795828E-01 0.73830339E+02</pdfrwt>
<totfact> 0.28178401E+06</totfact>
</mgrwt>
</event>
<event>
 5    1  0.1959123E+000  0.7168096E+02  0.7546771E-02  0.1354468E+00
         21   -1    0    0  503  502  0.00000000000E+00  0.00000000000E+00  0.88847038825E+01  0.88847038825E+01  0.00000000000E+00 0. -1.
         21   -1    0    0  501  503 -0.00000000000E+00 -0.00000000000E+00 -0.91343401494E+03  0.91343401494E+03  0.00000000000E+00 0. -1.
         24    1    1    2    0    0  0.10488078435E+01 -0.96626420107E+00 -0.21899964090E+03  0.23330257679E+03  0.80419002446E+02 0. -1.
          1    1    1    2  501    0 -0.28128738050E+02 -0.14603261900E+02 -0.48641363855E+03  0.48744508299E+03  0.00000000000E+00 0. -1.
         -2    1    1    2    0  502  0.27079930206E+02  0.15569526101E+02 -0.19913603160E+03  0.20157105904E+03  0.00000000000E+00 0.  1.
<mgrwt>
<rscale>  2 0.71680959E+02</rscale>
<asrwt>0</asrwt>
<pdfrwt beam="1">  1       21 0.13668781E-02 0.71680959E+02</pdfrwt>
<pdfrwt beam="2">  1       21 0.14052825E+00 0.71680959E+02</pdfrwt>
<totfact> 0.82151879E+05</totfact>
</mgrwt>
</event>
<event>
 5    1  0.1959123E+000  0.7926394E+02  0.7546771E-02  0.1331153E+00
         21   -1    0    0  501  502  0.00000000000E+00  0.00000000000E+00  0.12086302949E+03  0.12086302949E+03  0.00000000000E+00 0.  1.
         21   -1    0    0  502  503 -0.00000000000E+00 -0.00000000000E+00 -0.25225125301E+03  0.25225125301E+03  0.00000000000E+00 0.  1.
         24    1    1    2    0    0 -0.21679684754E+02 -0.32781291458E+02 -0.22118311404E+01  0.89536193531E+02  0.80419002446E+02 0.  1.
          1    1    1    2  501    0  0.40886829027E+02  0.17500024624E+02  0.69979024457E+02  0.82915906277E+02  0.00000000000E+00 0. -1.
         -2    1    1    2    0  503 -0.19207144273E+02  0.15281266834E+02 -0.19915541684E+03  0.20066218269E+03  0.00000000000E+00 0.  1.
<mgrwt>
<rscale>  2 0.79263939E+02</rscale>
<asrwt>0</asrwt>
<pdfrwt beam="1">  1       21 0.18594312E-01 0.79263939E+02</pdfrwt>
<pdfrwt beam="2">  1       21 0.38807885E-01 0.79263939E+02</pdfrwt>
<totfact> 0.17532876E+05</totfact>
</mgrwt>
</event>
<event>
 5    1  0.1959123E+000  0.9032479E+02  0.7546771E-02  0.1302067E+00
         21   -1    0    0  503  502  0.00000000000E+00  0.00000000000E+00  0.23269877076E+02  0.23269877076E+02  0.00000000000E+00 0.  1.
         21   -1    0    0  501  503 -0.00000000000E+00 -0.00000000000E+00 -0.43798332119E+03  0.43798332119E+03  0.00000000000E+00 0.  1.
         24    1    1    2    0    0 -0.30384182499E+02 -0.34067614771E+02 -0.15654586424E+03  0.18181755825E+03  0.80419002446E+02 0.  1.
          1    1    1    2  501    0 -0.24210262012E+02  0.20981808255E+02 -0.18208668356E+03  0.18488356713E+03  0.00000000000E+00 0. -1.
         -2    1    1    2    0  502  0.54594444512E+02  0.13085806516E+02 -0.76080896309E+02  0.94552072885E+02  0.00000000000E+00 0.  1.
<mgrwt>
<rscale>  2 0.90324793E+02</rscale>
<asrwt>0</asrwt>
<pdfrwt beam="1">  1       21 0.35799814E-02 0.90324793E+02</pdfrwt>
<pdfrwt beam="2">  1       21 0.67382043E-01 0.90324793E+02</pdfrwt>
<totfact> 0.95151536E+05</totfact>
</mgrwt>
</event>
<event>
 5    1  0.1959123E+000  0.8131003E+02  0.7546771E-02  0.1325374E+00
         21   -1    0    0  501  502  0.00000000000E+00  0.00000000000E+00  0.10021938112E+03  0.10021938112E+03  0.00000000000E+00 0. -1.
         21   -1    0    0  502  503 -0.00000000000E+00 -0.00000000000E+00 -0.28669843544E+03  0.28669843544E+03  0.00000000000E+00 0.  1.
         24    1    1    2    0    0 -0.29840456973E+01 -0.10451435451E+01 -0.24751166466E+02  0.84201146367E+02  0.80419002446E+02 0.  0.
          1    1    1    2  501    0 -0.23831160814E+02  0.32821130164E+02  0.62587090796E+02  0.74580793407E+02  0.00000000000E+00 0. -1.
         -2    1    1    2    0  503  0.26815206511E+02 -0.31775986619E+02 -0.22431497866E+03  0.22813587678E+03  0.00000000000E+00 0.  1.
<mgrwt>
<rscale>  2 0.81310028E+02</rscale>
<asrwt>0</asrwt>
<pdfrwt beam="1">  1       21 0.15418367E-01 0.81310028E+02</pdfrwt>
<pdfrwt beam="2">  1       21 0.44107450E-01 0.81310028E+02</pdfrwt>
<totfact> 0.19036464E+05</totfact>
</mgrwt>
</event>
<event>
 5    1  0.1959123E+000  0.6906618E+02  0.7546771E-02  0.1363298E+00
         21   -1    0    0  503  502  0.00000000000E+00  0.00000000000E+00  0.25042946835E+03  0.25042946835E+03  0.00000000000E+00 0. -1.
         21   -1    0    0  501  503 -0.00000000000E+00 -0.00000000000E+00 -0.79361533117E+02  0.79361533117E+02  0.00000000000E+00 0. -1.
         24    1    1    2    0    0  0.43047192920E+02 -0.11461394236E+02  0.20642996080E+03  0.22597559391E+03  0.80419002446E+02 0. -1.
          1    1    1    2  501    0 -0.18311064241E+02  0.11194731145E+02 -0.63099384716E+02  0.66649451840E+02  0.00000000000E+00 0. -1.
         -2    1    1    2    0  502 -0.24736128678E+02  0.26666309055E+00  0.27737359148E+02  0.37165955708E+02  0.00000000000E+00 0.  1.
<mgrwt>
<rscale>  2 0.69066180E+02</rscale>
<asrwt>0</asrwt>
<pdfrwt beam="1">  1       21 0.38527610E-01 0.69066180E+02</pdfrwt>
<pdfrwt beam="2">  1       21 0.12209467E-01 0.69066180E+02</pdfrwt>
<totfact> 0.37613911E+05</totfact>
</mgrwt>
</event>
<event>
 5    1  0.1959123E+000  0.7540325E+02  0.7546771E-02  0.1342627E+00
         21   -1    0    0  501  502  0.00000000000E+00  0.00000000000E+00  0.69606078860E+02  0.69606078860E+02  0.00000000000E+00 0.  1.
         21   -1    0    0  502  503 -0.00000000000E+00 -0.00000000000E+00 -0.83517777097E+02  0.83517777097E+02  0.00000000000E+00 0.  1.
         24    1    1    2    0    0  0.30315712581E+02  0.43093033997E+02  0.18763964363E+01  0.96160224762E+02  0.80419002446E+02 0.  1.
          1    1    1    2  501    0 -0.22467465426E+02 -0.19327838486E+02 -0.71499033311E+01  0.30487267192E+02  0.00000000000E+00 0. -1.
         -2    1    1    2    0  503 -0.78482471549E+01 -0.23765195511E+02 -0.86381913432E+01  0.26476364002E+02  0.00000000000E+00 0.  1.
<mgrwt>
<rscale>  2 0.75403250E+02</rscale>
<asrwt>0</asrwt>
<pdfrwt beam="1">  1       21 0.10708628E-01 0.75403250E+02</pdfrwt>
<pdfrwt beam="2">  1       21 0.12848889E-01 0.75403250E+02</pdfrwt>
<totfact> 0.35839260E+06</totfact>
</mgrwt>
</event>
<event>
 5    1  0.1959123E+000  0.7397983E+02  0.7546771E-02  0.1347060E+00
         21   -1    0    0  503  502  0.00000000000E+00  0.00000000000E+00  0.24326869362E+03  0.24326869362E+03  0.00000000000E+00 0. -1.
         21   -1    0    0  501  503 -0.00000000000E+00 -0.00000000000E+00 -0.34735497392E+02  0.34735497392E+02  0.00000000000E+00 0.  1.
         24    1    1    2    0    0  0.49911654706E-01  0.33295647470E+02  0.18415053837E+03  0.20368416573E+03  0.80419002446E+02 0.  0.
          1    1    1    2  501    0  0.24081460574E+02 -0.66733194242E+01 -0.77014590594E+01  0.26148850972E+02  0.00000000000E+00 0. -1.
         -2    1    1    2    0  502 -0.24131372229E+02 -0.26622328046E+02  0.32084116917E+02  0.48171174312E+02  0.00000000000E+00 0.  1.
<mgrwt>
<rscale>  2 0.73979829E+02</rscale>
<asrwt>0</asrwt>
<pdfrwt beam="1">  1       21 0.37425952E-01 0.73979829E+02</pdfrwt>
<pdfrwt beam="2">  1       21 0.53439228E-02 0.73979829E+02</pdfrwt>
<totfact> 0.16228917E+06</totfact>
</mgrwt>
</event>
<event>
 5    1  0.1959123E+000  0.1219196E+03  0.7546771E-02  0.1239963E+00
         21   -1    0    0  503  502  0.00000000000E+00  0.00000000000E+00  0.98769335173E+03  0.98769335173E+03  0.00000000000E+00 0.  1.
         21   -1    0    0  501  503 -0.00000000000E+00 -0.00000000000E+00 -0.17315932123E+02  0.17315932123E+02  0.00000000000E+00 0.  1.
         24    1    1    2    0    0  0.63309033917E+02 -0.60235784551E+02  0.37246992016E+03  0.39094429385E+03  0.80419002446E+02 0.  1.
          1    1    1    2  501    0 -0.22259509395E+02 -0.23164132538E+02  0.58812773132E+02  0.67014961600E+02  0.00000000000E+00 0. -1.
         -2    1    1    2    0  502 -0.41049524522E+02  0.83399917089E+02  0.53909472631E+03  0.54705002840E+03  0.00000000000E+00 0.  1.
<mgrwt>
<rscale>  2 0.12191960E+03</rscale>
<asrwt>0</asrwt>
<pdfrwt beam="1">  1       21 0.15195278E+00 0.12191960E+03</pdfrwt>
<pdfrwt beam="2">  1       21 0.26639903E-02 0.12191960E+03</pdfrwt>
<totfact> 0.22857397E+05</totfact>
</mgrwt>
</event>
<event>
 5    1  0.1959123E+000  0.9697830E+02  0.7546771E-02  0.1286782E+00
         21   -1    0    0  501  502  0.00000000000E+00  0.00000000000E+00  0.51804388390E+03  0.51804388390E+03  0.00000000000E+00 0. -1.
         21   -1    0    0  502  503 -0.00000000000E+00 -0.00000000000E+00 -0.62660211506E+03  0.62660211506E+03  0.00000000000E+00 0.  1.
         24    1    1    2    0    0  0.51530953286E+01 -0.77778064645E+02 -0.44816914170E+02  0.12063064901E+03  0.80419002446E+02 0.  1.
          1    1    1    2  501    0 -0.12098095208E+02  0.17449657446E+02  0.47820557975E+03  0.47867674997E+03  0.00000000000E+00 0. -1.
         -2    1    1    2    0  503  0.69449998794E+01  0.60328407198E+02 -0.54194689674E+03  0.54533859998E+03  0.00000000000E+00 0.  1.
<mgrwt>
<rscale>  2 0.96978298E+02</rscale>
<asrwt>0</asrwt>
<pdfrwt beam="1">  1       21 0.79699059E-01 0.96978298E+02</pdfrwt>
<pdfrwt beam="2">  1       21 0.96400326E-01 0.96978298E+02</pdfrwt>
<totfact> 0.14027223E+03</totfact>
</mgrwt>
</event>
