<event>
 5    1  0.1281005E-004  0.1872028E+03  0.7546771E-02  0.1161009E+00
         21   -1    0    0  501  502  0.00000000000E+00  0.00000000000E+00  0.76412418404E+03  0.76412418404E+03  0.00000000000E+00 0. -1.
         21   -1    0    0  502  503 -0.00000000000E+00 -0.00000000000E+00 -0.54153477343E+02  0.54153477343E+02  0.00000000000E+00 0. -1.
         24    1    1    2    0    0  0.71264547578E+02 -0.55363229369E+01  0.13604529858E+03  0.17344977899E+03  0.80419002446E+02 0. -1.
          1    1    1    2  501    0 -0.15960871718E+03  0.50863946177E+02  0.47904630189E+03  0.50749132305E+03  0.00000000000E+00 0. -1.
         -2    1    1    2    0  503  0.88344169605E+02 -0.45327623240E+02  0.94879106233E+02  0.13733655934E+03  0.00000000000E+00 0.  1.
<mgrwt>
<rscale>  2 0.18720275E+03</rscale>
<asrwt>0</asrwt>
<pdfrwt beam="1">  1       21 0.11755756E+00 0.18720275E+03</pdfrwt>
<pdfrwt beam="2">  1       21 0.83313048E-02 0.18720275E+03</pdfrwt>
<totfact> 0.62284211E+04</totfact>
</mgrwt>
</event>
<event>
 5    1  0.1281005E-004  0.1061569E+03  0.7546771E-02  0.1267857E+00
         21   -1    0    0  501  502  0.00000000000E+00  0.00000000000E+00  0.31691628636E+02  0.31691628636E+02  0.00000000000E+00 0. -1.
         21   -1    0    0  502  503 -0.00000000000E+00 -0.00000000000E+00 -0.36635670447E+03  0.36635670447E+03  0.00000000000E+00 0.  1.
         24    1    1    2    0    0  0.32534924175E+02 -0.43158023450E+02 -0.17834918889E+03  0.20296991257E+03  0.80419002446E+02 0.  0.
          1    1    1    2  501    0 -0.56260214760E+02 -0.10060605385E+02 -0.62966389011E+02  0.85036425670E+02  0.00000000000E+00 0. -1.
         -2    1    1    2    0  503  0.23725290586E+02  0.53218628835E+02 -0.93349497936E+02  0.11004199486E+03  0.00000000000E+00 0.  1.
<mgrwt>
<rscale>  2 0.10615688E+03</rscale>
<asrwt>0</asrwt>
<pdfrwt beam="1">  1       21 0.48756349E-02 0.10615688E+03</pdfrwt>
<pdfrwt beam="2">  1       21 0.56362574E-01 0.10615688E+03</pdfrwt>
<totfact> 0.83435898E+05</totfact>
</mgrwt>
</event>
<event>
 5    1  0.1281005E-004  0.1343168E+03  0.7546771E-02  0.1221187E+00
         21   -1    0    0  503  502  0.00000000000E+00  0.00000000000E+00  0.24110365299E+03  0.24110365299E+03  0.00000000000E+00 0. -1.
         21   -1    0    0  501  503 -0.00000000000E+00 -0.00000000000E+00 -0.78506971868E+02  0.78506971868E+02  0.00000000000E+00 0.  1.
         24    1    1    2    0    0 -0.39542614488E+02  0.23605366531E+02  0.88130768073E+02  0.12788698106E+03  0.80419002446E+02 0. -1.
          1    1    1    2  501    0 -0.53836463625E+02  0.36379997788E+02  0.35861646134E+02  0.74215407552E+02  0.00000000000E+00 0. -1.
         -2    1    1    2    0  502  0.93379078113E+02 -0.59985364319E+02  0.38604266919E+02  0.11750823625E+03  0.00000000000E+00 0.  1.
<mgrwt>
<rscale>  2 0.13431682E+03</rscale>
<asrwt>0</asrwt>
<pdfrwt beam="1">  1       21 0.37092869E-01 0.13431682E+03</pdfrwt>
<pdfrwt beam="2">  1       21 0.12077996E-01 0.13431682E+03</pdfrwt>
<totfact> 0.41052777E+05</totfact>
</mgrwt>
</event>
<event>
 5    1  0.1281005E-004  0.2229478E+03  0.7546771E-02  0.1131704E+00
         21   -1    0    0  501  502  0.00000000000E+00  0.00000000000E+00  0.24759838950E+03  0.24759838950E+03  0.00000000000E+00 0. -1.
         21   -1    0    0  502  503 -0.00000000000E+00 -0.00000000000E+00 -0.22483826288E+03  0.22483826288E+03  0.00000000000E+00 0.  1.
         24    1    1    2    0    0  0.72510493661E+02  0.87960519335E+02 -0.57007010560E+02  0.15070447857E+03  0.80419002446E+02 0.  1.
          1    1    1    2  501    0  0.10999319718E+03 -0.45362480977E+02  0.60089100500E+02  0.13329275339E+03  0.00000000000E+00 0. -1.
         -2    1    1    2    0  503 -0.18250369084E+03 -0.42598038358E+02  0.19678036679E+02  0.18843942043E+03  0.00000000000E+00 0.  1.
<mgrwt>
<rscale>  2 0.22294782E+03</rscale>
<asrwt>0</asrwt>
<pdfrwt beam="1">  1       21 0.38092060E-01 0.22294782E+03</pdfrwt>
<pdfrwt beam="2">  1       21 0.34590502E-01 0.22294782E+03</pdfrwt>
<totfact> 0.52790442E+04</totfact>
</mgrwt>
</event>
<event>
 5    1  0.1281005E-004  0.1478468E+03  0.7546771E-02  0.1203144E+00
         21   -1    0    0  501  502  0.00000000000E+00  0.00000000000E+00  0.70411801561E+03  0.70411801561E+03  0.00000000000E+00 0.  1.
         21   -1    0    0  502  503 -0.00000000000E+00 -0.00000000000E+00 -0.34269189471E+02  0.34269189471E+02  0.00000000000E+00 0. -1.
         24    1    1    2    0    0  0.10946335968E+02  0.36257072582E+02  0.10980258722E+03  0.14127357042E+03  0.80419002446E+02 0.  0.
          1    1    1    2  501    0  0.54710681793E+02  0.65722908413E+02  0.21581355030E+03  0.23213842397E+03  0.00000000000E+00 0. -1.
         -2    1    1    2    0  503 -0.65657017761E+02 -0.10197998100E+03  0.34423268862E+03  0.36497521069E+03  0.00000000000E+00 0.  1.
<mgrwt>
<rscale>  2 0.14784681E+03</rscale>
<asrwt>0</asrwt>
<pdfrwt beam="1">  1       21 0.10832584E+00 0.14784681E+03</pdfrwt>
<pdfrwt beam="2">  1       21 0.52721835E-02 0.14784681E+03</pdfrwt>
<totfact> 0.16931543E+05</totfact>
</mgrwt>
</event>
<event>
 5    1  0.1281005E-004  0.1438442E+03  0.7546771E-02  0.1208248E+00
         21   -1    0    0  503  502  0.00000000000E+00  0.00000000000E+00  0.73782296388E+03  0.73782296388E+03  0.00000000000E+00 0.  1.
         21   -1    0    0  501  503 -0.00000000000E+00 -0.00000000000E+00 -0.37030401310E+02  0.37030401310E+02  0.00000000000E+00 0. -1.
         24    1    1    2    0    0  0.41932227427E+02 -0.63550797196E+02  0.13247677470E+03  0.17266825797E+03  0.80419002446E+02 0.  0.
          1    1    1    2  501    0  0.49875717691E+02 -0.19105639301E+02  0.66008612173E+02  0.84910244078E+02  0.00000000000E+00 0. -1.
         -2    1    1    2    0  502 -0.91807945118E+02  0.82656436497E+02  0.50230717569E+03  0.51727486314E+03  0.00000000000E+00 0.  1.
<mgrwt>
<rscale>  2 0.14384420E+03</rscale>
<asrwt>0</asrwt>
<pdfrwt beam="1">  1       21 0.11351121E+00 0.14384420E+03</pdfrwt>
<pdfrwt beam="2">  1       21 0.56969854E-02 0.14384420E+03</pdfrwt>
<totfact> 0.13292370E+05</totfact>
</mgrwt>
</event>
<event>
 5    1  0.1393814E-004  0.2538361E+03  0.7546771E-02  0.1110904E+00
         21   -1    0    0  501  502  0.00000000000E+00  0.00000000000E+00  0.32721273201E+03  0.32721273201E+03  0.00000000000E+00 0.  1.
         21   -1    0    0  502  503 -0.00000000000E+00 -0.00000000000E+00 -0.33749310818E+03  0.33749310818E+03  0.00000000000E+00 0. -1.
         24    1    1    2    0    0  0.11528388929E+03  0.56852099127E+02 -0.17052515112E+03  0.22818540581E+03  0.80419002446E+02 0. -1.
          1    1    1    2  501    0  0.87802541280E+02 -0.11510715223E+03 -0.34890838834E+02  0.14891713597E+03  0.00000000000E+00 0. -1.
         -2    1    1    2    0  503 -0.20308643057E+03  0.58255053103E+02  0.19513561378E+03  0.28760329842E+03  0.00000000000E+00 0.  1.
<mgrwt>
<rscale>  2 0.25383612E+03</rscale>
<asrwt>0</asrwt>
<pdfrwt beam="1">  1       21 0.50340420E-01 0.25383612E+03</pdfrwt>
<pdfrwt beam="2">  1       21 0.51922017E-01 0.25383612E+03</pdfrwt>
<totfact> 0.12760451E+04</totfact>
</mgrwt>
</event>
<event>
 5    1  0.1281005E-004  0.2023626E+03  0.7546771E-02  0.1147761E+00
         21   -1    0    0  503  502  0.00000000000E+00  0.00000000000E+00  0.15912431408E+03  0.15912431408E+03  0.00000000000E+00 0.  1.
         21   -1    0    0  501  503 -0.00000000000E+00 -0.00000000000E+00 -0.26208053564E+03  0.26208053564E+03  0.00000000000E+00 0. -1.
         24    1    1    2    0    0 -0.44704773955E+01  0.12609466039E+03 -0.13458863359E+02  0.15022717964E+03  0.80419002446E+02 0.  1.
          1    1    1    2  501    0  0.11257625590E+03 -0.76867053975E+02 -0.57581461390E+02  0.14797831623E+03  0.00000000000E+00 0. -1.
         -2    1    1    2    0  502 -0.10810577850E+03 -0.49227606411E+02 -0.31915896804E+02  0.12299935385E+03  0.00000000000E+00 0.  1.
<mgrwt>
<rscale>  2 0.20236258E+03</rscale>
<asrwt>0</asrwt>
<pdfrwt beam="1">  1       21 0.24480664E-01 0.20236258E+03</pdfrwt>
<pdfrwt beam="2">  1       21 0.40320082E-01 0.20236258E+03</pdfrwt>
<totfact> 0.93072428E+04</totfact>
</mgrwt>
</event>
<event>
 5    1  0.1281005E-004  0.2130868E+03  0.7546771E-02  0.1139145E+00
         21   -1    0    0  503  502  0.00000000000E+00  0.00000000000E+00  0.12395868909E+03  0.12395868909E+03  0.00000000000E+00 0.  1.
         21   -1    0    0  501  503 -0.00000000000E+00 -0.00000000000E+00 -0.37167840315E+03  0.37167840315E+03  0.00000000000E+00 0. -1.
         24    1    1    2    0    0 -0.17820769843E+02 -0.94374006569E+02 -0.46895103844E+02  0.13375499868E+03  0.80419002446E+02 0. -1.
          1    1    1    2  501    0  0.13000627975E+03 -0.29991112016E+02 -0.83647733329E+02  0.15747394345E+03  0.00000000000E+00 0. -1.
         -2    1    1    2    0  502 -0.11218550991E+03  0.12436511859E+03 -0.11717687688E+03  0.20440815011E+03  0.00000000000E+00 0.  1.
<mgrwt>
<rscale>  2 0.21308680E+03</rscale>
<asrwt>0</asrwt>
<pdfrwt beam="1">  1       21 0.19070567E-01 0.21308680E+03</pdfrwt>
<pdfrwt beam="2">  1       21 0.57181293E-01 0.21308680E+03</pdfrwt>
<totfact> 0.71795641E+04</totfact>
</mgrwt>
</event>
<event>
 5    1  0.1281005E-004  0.1339600E+03  0.7546771E-02  0.1221695E+00
         21   -1    0    0  501  502  0.00000000000E+00  0.00000000000E+00  0.52111025639E+02  0.52111025639E+02  0.00000000000E+00 0. -1.
         21   -1    0    0  502  503 -0.00000000000E+00 -0.00000000000E+00 -0.35520705159E+03  0.35520705159E+03  0.00000000000E+00 0. -1.
         24    1    1    2    0    0 -0.15319257373E+02  0.63878152408E+02 -0.14909300422E+03  0.18168939943E+03  0.80419002446E+02 0. -1.
          1    1    1    2  501    0  0.79451953420E+02 -0.60493255208E+02 -0.82616793470E+02  0.12960548365E+03  0.00000000000E+00 0. -1.
         -2    1    1    2    0  503 -0.64132696047E+02 -0.33848971998E+01 -0.71386228261E+02  0.96023194159E+02  0.00000000000E+00 0.  1.
<mgrwt>
<rscale>  2 0.13396001E+03</rscale>
<asrwt>0</asrwt>
<pdfrwt beam="1">  1       21 0.80170812E-02 0.13396001E+03</pdfrwt>
<pdfrwt beam="2">  1       21 0.54647237E-01 0.13396001E+03</pdfrwt>
<totfact> 0.38216428E+05</totfact>
</mgrwt>
</event>
<event>
 5    1  0.1281005E-004  0.1216496E+03  0.7546771E-02  0.1240400E+00
         21   -1    0    0  501  502  0.00000000000E+00  0.00000000000E+00  0.10032544069E+04  0.10032544069E+04  0.00000000000E+00 0.  1.
         21   -1    0    0  502  503 -0.00000000000E+00 -0.00000000000E+00 -0.15192969377E+02  0.15192969377E+02  0.00000000000E+00 0. -1.
         24    1    1    2    0    0 -0.17444785607E+02  0.48790509190E+02  0.30667369045E+03  0.32124881743E+03  0.80419002446E+02 0. -1.
          1    1    1    2  501    0 -0.12495519419E+02  0.46291540830E+02  0.22360712034E+03  0.22869015944E+03  0.00000000000E+00 0. -1.
         -2    1    1    2    0  503  0.29940305026E+02 -0.95082050019E+02  0.45778062669E+03  0.46850839936E+03  0.00000000000E+00 0.  1.
<mgrwt>
<rscale>  2 0.12164965E+03</rscale>
<asrwt>0</asrwt>
<pdfrwt beam="1">  1       21 0.15434678E+00 0.12164965E+03</pdfrwt>
<pdfrwt beam="2">  1       21 0.23373807E-02 0.12164965E+03</pdfrwt>
<totfact> 0.27149519E+05</totfact>
</mgrwt>
</event>
<event>
 5    1  0.1281005E-004  0.2110240E+03  0.7546771E-02  0.1140758E+00
         21   -1    0    0  501  502  0.00000000000E+00  0.00000000000E+00  0.14260645261E+03  0.14260645261E+03  0.00000000000E+00 0. -1.
         21   -1    0    0  502  503 -0.00000000000E+00 -0.00000000000E+00 -0.32415020394E+03  0.32415020394E+03  0.00000000000E+00 0.  1.
         24    1    1    2    0    0  0.12749913967E+03  0.22813715386E+02 -0.10748066850E+03  0.18653634038E+03  0.80419002446E+02 0.  1.
          1    1    1    2  501    0 -0.19403469045E+03 -0.45489349335E+02 -0.46022602512E+02  0.20454051418E+03  0.00000000000E+00 0. -1.
         -2    1    1    2    0  503  0.66535550776E+02  0.22675633949E+02 -0.28040480318E+02  0.75679801985E+02  0.00000000000E+00 0.  1.
<mgrwt>
<rscale>  2 0.21102396E+03</rscale>
<asrwt>0</asrwt>
<pdfrwt beam="1">  1       21 0.21939454E-01 0.21102396E+03</pdfrwt>
<pdfrwt beam="2">  1       21 0.49869262E-01 0.21102396E+03</pdfrwt>
<totfact> 0.73746191E+04</totfact>
</mgrwt>
</event>
<event>
 5    1  0.1281005E-004  0.9537721E+02  0.7546771E-02  0.1290329E+00
         21   -1    0    0  503  502  0.00000000000E+00  0.00000000000E+00  0.44256420396E+02  0.44256420396E+02  0.00000000000E+00 0.  1.
         21   -1    0    0  501  503 -0.00000000000E+00 -0.00000000000E+00 -0.21890868574E+03  0.21890868574E+03  0.00000000000E+00 0. -1.
         24    1    1    2    0    0  0.23473765003E+02 -0.95853101360E+01 -0.45528361363E+02  0.95827675839E+02  0.80419002446E+02 0.  1.
          1    1    1    2  501    0  0.41108049267E+02 -0.23525913772E+00 -0.49163811561E+02  0.64085937838E+02  0.00000000000E+00 0. -1.
         -2    1    1    2    0  502 -0.64581814270E+02  0.98205692737E+01 -0.79960092424E+02  0.10325149246E+03  0.00000000000E+00 0.  1.
<mgrwt>
<rscale>  2 0.95377213E+02</rscale>
<asrwt>0</asrwt>
<pdfrwt beam="1">  1       21 0.68086800E-02 0.95377213E+02</pdfrwt>
<pdfrwt beam="2">  1       21 0.33678260E-01 0.95377213E+02</pdfrwt>
<totfact> 0.13376353E+06</totfact>
</mgrwt>
</event>
<event>
 5    1  0.1281005E-004  0.9035098E+02  0.7546771E-02  0.1302004E+00
         21   -1    0    0  503  502  0.00000000000E+00  0.00000000000E+00  0.53588363671E+03  0.53588363671E+03  0.00000000000E+00 0.  1.
         21   -1    0    0  501  503 -0.00000000000E+00 -0.00000000000E+00 -0.17165270911E+02  0.17165270911E+02  0.00000000000E+00 0. -1.
         24    1    1    2    0    0  0.10498826394E+02 -0.26066201365E+02  0.33496393531E+03  0.34562657034E+03  0.80419002446E+02 0.  0.
          1    1    1    2  501    0 -0.31760180278E+02 -0.24857146074E+02  0.90186027785E+02  0.98793250629E+02  0.00000000000E+00 0. -1.
         -2    1    1    2    0  502  0.21261353884E+02  0.50923347439E+02  0.93568402708E+02  0.10862908666E+03  0.00000000000E+00 0.  1.
<mgrwt>
<rscale>  2 0.90350981E+02</rscale>
<asrwt>0</asrwt>
<pdfrwt beam="1">  1       21 0.82443623E-01 0.90350981E+02</pdfrwt>
<pdfrwt beam="2">  1       21 0.26408113E-02 0.90350981E+02</pdfrwt>
<totfact> 0.10053750E+06</totfact>
</mgrwt>
</event>
<event>
 5    1  0.1281005E-004  0.1850492E+03  0.7546771E-02  0.1163004E+00
         21   -1    0    0  503  502  0.00000000000E+00  0.00000000000E+00  0.50859165839E+02  0.50859165839E+02  0.00000000000E+00 0. -1.
         21   -1    0    0  501  503 -0.00000000000E+00 -0.00000000000E+00 -0.82489527463E+03  0.82489527463E+03  0.00000000000E+00 0.  1.
         24    1    1    2    0    0  0.37433676014E+01 -0.70859390769E+02 -0.83805563234E+02  0.13610898003E+03  0.80419002446E+02 0. -1.
          1    1    1    2  501    0 -0.72398817251E+00 -0.95980124607E+02 -0.20102649382E+03  0.22276525693E+03  0.00000000000E+00 0. -1.
         -2    1    1    2    0  502 -0.30193794289E+01  0.16683951538E+03 -0.48920405174E+03  0.51688020351E+03  0.00000000000E+00 0.  1.
<mgrwt>
<rscale>  2 0.18504919E+03</rscale>
<asrwt>0</asrwt>
<pdfrwt beam="1">  1       21 0.78244883E-02 0.18504919E+03</pdfrwt>
<pdfrwt beam="2">  1       21 0.12690694E+00 0.18504919E+03</pdfrwt>
<totfact> 0.57502031E+04</totfact>
</mgrwt>
</event>
<event>
 5    1  0.1281005E-004  0.2188924E+03  0.7546771E-02  0.1134712E+00
         21   -1    0    0  501  502  0.00000000000E+00  0.00000000000E+00  0.13492869742E+03  0.13492869742E+03  0.00000000000E+00 0.  1.
         21   -1    0    0  502  503 -0.00000000000E+00 -0.00000000000E+00 -0.36232975115E+03  0.36232975115E+03  0.00000000000E+00 0.  1.
         24    1    1    2    0    0  0.14578680590E+03 -0.56683776088E+02 -0.12582496318E+03  0.21625443477E+03  0.80419002446E+02 0.  1.
          1    1    1    2  501    0  0.45842993348E+02 -0.26552584451E+02 -0.17466846645E+02  0.55782708000E+02  0.00000000000E+00 0. -1.
         -2    1    1    2    0  503 -0.19162979924E+03  0.83236360538E+02 -0.84109243912E+02  0.22522130580E+03  0.00000000000E+00 0.  1.
<mgrwt>
<rscale>  2 0.21889241E+03</rscale>
<asrwt>0</asrwt>
<pdfrwt beam="1">  1       21 0.20758261E-01 0.21889241E+03</pdfrwt>
<pdfrwt beam="2">  1       21 0.55743038E-01 0.21889241E+03</pdfrwt>
<totfact> 0.64513965E+04</totfact>
</mgrwt>
</event>
<event>
 5    1  0.1281005E-004  0.1337131E+03  0.7546771E-02  0.1222048E+00
         21   -1    0    0  503  502  0.00000000000E+00  0.00000000000E+00  0.43180787687E+02  0.43180787687E+02  0.00000000000E+00 0. -1.
         21   -1    0    0  501  503 -0.00000000000E+00 -0.00000000000E+00 -0.41487857497E+03  0.41487857497E+03  0.00000000000E+00 0.  1.
         24    1    1    2    0    0  0.10275482065E+02 -0.23393612907E+02 -0.11867647440E+03  0.14561651070E+03  0.80419002446E+02 0. -1.
          1    1    1    2  501    0 -0.48380067931E+02  0.92353657337E+02 -0.15229013765E+03  0.18455924529E+03  0.00000000000E+00 0. -1.
         -2    1    1    2    0  502  0.38104585866E+02 -0.68960044430E+02 -0.10073117523E+03  0.12788360667E+03  0.00000000000E+00 0.  1.
<mgrwt>
<rscale>  2 0.13371314E+03</rscale>
<asrwt>0</asrwt>
<pdfrwt beam="1">  1       21 0.66431979E-02 0.13371314E+03</pdfrwt>
<pdfrwt beam="2">  1       21 0.63827475E-01 0.13371314E+03</pdfrwt>
<totfact> 0.37965784E+05</totfact>
</mgrwt>
</event>
<event>
 5    1  0.1281005E-004  0.2224070E+03  0.7546771E-02  0.1132101E+00
         21   -1    0    0  501  502  0.00000000000E+00  0.00000000000E+00  0.48215928234E+02  0.48215928234E+02  0.00000000000E+00 0.  1.
         21   -1    0    0  502  503 -0.00000000000E+00 -0.00000000000E+00 -0.10893638091E+04  0.10893638091E+04  0.00000000000E+00 0. -1.
         24    1    1    2    0    0 -0.12644077503E+02  0.87169960820E+02 -0.31890661957E+03  0.34048072299E+03  0.80419002446E+02 0. -1.
          1    1    1    2  501    0 -0.22755676154E+02  0.11655971306E+03 -0.16966508070E+03  0.20709955846E+03  0.00000000000E+00 0. -1.
         -2    1    1    2    0  503  0.35399753657E+02 -0.20372967388E+03 -0.55257618058E+03  0.58999945587E+03  0.00000000000E+00 0.  1.
<mgrwt>
<rscale>  2 0.22240701E+03</rscale>
<asrwt>0</asrwt>
<pdfrwt beam="1">  1       21 0.74178358E-02 0.22240701E+03</pdfrwt>
<pdfrwt beam="2">  1       21 0.16759442E+00 0.22240701E+03</pdfrwt>
<totfact> 0.29796272E+04</totfact>
</mgrwt>
</event>
<event>
 5    1  0.1281005E-004  0.1832531E+03  0.7546771E-02  0.1164691E+00
         21   -1    0    0  503  502  0.00000000000E+00  0.00000000000E+00  0.25729404657E+03  0.25729404657E+03  0.00000000000E+00 0. -1.
         21   -1    0    0  501  503 -0.00000000000E+00 -0.00000000000E+00 -0.13536301128E+03  0.13536301128E+03  0.00000000000E+00 0.  1.
         24    1    1    2    0    0  0.14743343687E+03 -0.21380212792E+02  0.19752760725E+02  0.17044388906E+03  0.80419002446E+02 0.  0.
          1    1    1    2  501    0 -0.17173980335E+03  0.18421243076E+02  0.91972636015E+02  0.19568563572E+03  0.00000000000E+00 0. -1.
         -2    1    1    2    0  502  0.24306366478E+02  0.29589697159E+01  0.10205638553E+02  0.26527533082E+02  0.00000000000E+00 0.  1.
<mgrwt>
<rscale>  2 0.18325309E+03</rscale>
<asrwt>0</asrwt>
<pdfrwt beam="1">  1       21 0.39583699E-01 0.18325309E+03</pdfrwt>
<pdfrwt beam="2">  1       21 0.20825079E-01 0.18325309E+03</pdfrwt>
<totfact> 0.13208132E+05</totfact>
</mgrwt>
</event>
<event>
 5    1  0.1281005E-004  0.1349253E+03  0.7546771E-02  0.1220325E+00
         21   -1    0    0  501  502  0.00000000000E+00  0.00000000000E+00  0.99873488036E+02  0.99873488036E+02  0.00000000000E+00 0.  1.
         21   -1    0    0  502  503 -0.00000000000E+00 -0.00000000000E+00 -0.23776933668E+03  0.23776933668E+03  0.00000000000E+00 0.  1.
         24    1    1    2    0    0  0.76497831676E+02 -0.55051552854E+01  0.18223785088E+02  0.11261237624E+03  0.80419002446E+02 0.  1.
          1    1    1    2  501    0  0.19886396794E+02 -0.45513422869E+02 -0.71201574898E+02  0.86813620513E+02  0.00000000000E+00 0. -1.
         -2    1    1    2    0  503 -0.96384228470E+02  0.51018578154E+02 -0.84918058832E+02  0.13821682796E+03  0.00000000000E+00 0.  1.
<mgrwt>
<rscale>  2 0.13492526E+03</rscale>
<asrwt>0</asrwt>
<pdfrwt beam="1">  1       21 0.15365152E-01 0.13492526E+03</pdfrwt>
<pdfrwt beam="2">  1       21 0.36579897E-01 0.13492526E+03</pdfrwt>
<totfact> 0.27417190E+05</totfact>
</mgrwt>
</event>
<event>
 5    1  0.1281005E-004  0.1069379E+03  0.7546771E-02  0.1266348E+00
         21   -1    0    0  503  502  0.00000000000E+00  0.00000000000E+00  0.34895457478E+02  0.34895457478E+02  0.00000000000E+00 0.  1.
         21   -1    0    0  501  503 -0.00000000000E+00 -0.00000000000E+00 -0.40811231439E+03  0.40811231439E+03  0.00000000000E+00 0. -1.
         24    1    1    2    0    0 -0.50766723049E+02 -0.28620913975E+02 -0.77925611996E+02  0.12623800476E+03  0.80419002446E+02 0.  1.
          1    1    1    2  501    0 -0.25098128951E+02  0.29445683684E+02 -0.10596475883E+03  0.11280733344E+03  0.00000000000E+00 0. -1.
         -2    1    1    2    0  502  0.75864852000E+02 -0.82476970897E+00 -0.18932648609E+03  0.20396243367E+03  0.00000000000E+00 0.  1.
<mgrwt>
<rscale>  2 0.10693789E+03</rscale>
<asrwt>0</asrwt>
<pdfrwt beam="1">  1       21 0.53685320E-02 0.10693789E+03</pdfrwt>
<pdfrwt beam="2">  1       21 0.62786509E-01 0.10693789E+03</pdfrwt>
<totfact> 0.56558659E+05</totfact>
</mgrwt>
</event>
<event>
 5    1  0.1281005E-004  0.5084887E+03  0.7546771E-02  0.1011587E+00
         21   -1    0    0  503  502  0.00000000000E+00  0.00000000000E+00  0.61176713834E+03  0.61176713834E+03  0.00000000000E+00 0. -1.
         21   -1    0    0  501  503 -0.00000000000E+00 -0.00000000000E+00 -0.42596453114E+03  0.42596453114E+03  0.00000000000E+00 0.  1.
         24    1    1    2    0    0  0.44867418682E+02  0.32570545826E+03  0.91272080991E+02  0.35056374531E+03  0.80419002446E+02 0.  0.
          1    1    1    2  501    0  0.37658565501E+02  0.17094485351E+03  0.48325571398E+02  0.18159204649E+03  0.00000000000E+00 0. -1.
         -2    1    1    2    0  502 -0.82525984183E+02 -0.49665031177E+03  0.46204954815E+02  0.50557587769E+03  0.00000000000E+00 0.  1.
<mgrwt>
<rscale>  2 0.50848870E+03</rscale>
<asrwt>0</asrwt>
<pdfrwt beam="1">  1       21 0.94118021E-01 0.50848870E+03</pdfrwt>
<pdfrwt beam="2">  1       21 0.65533005E-01 0.50848870E+03</pdfrwt>
<totfact> 0.17079118E+03</totfact>
</mgrwt>
</event>
<event>
 5    1  0.1281005E-004  0.2699473E+03  0.7546771E-02  0.1101310E+00
         21   -1    0    0  503  502  0.00000000000E+00  0.00000000000E+00  0.17823746638E+03  0.17823746638E+03  0.00000000000E+00 0.  1.
         21   -1    0    0  501  503 -0.00000000000E+00 -0.00000000000E+00 -0.41822953165E+03  0.41822953165E+03  0.00000000000E+00 0. -1.
         24    1    1    2    0    0  0.31733072827E+02 -0.17599537368E+03 -0.10525175711E+03  0.22254551848E+03  0.80419002446E+02 0.  0.
          1    1    1    2  501    0  0.32125153717E+02 -0.76708614556E+02 -0.60706232035E+02  0.10296350643E+03  0.00000000000E+00 0. -1.
         -2    1    1    2    0  502 -0.63858226544E+02  0.25270398823E+03 -0.74034076120E+02  0.27095797311E+03  0.00000000000E+00 0.  1.
<mgrwt>
<rscale>  2 0.26994731E+03</rscale>
<asrwt>0</asrwt>
<pdfrwt beam="1">  1       21 0.27421149E-01 0.26994731E+03</pdfrwt>
<pdfrwt beam="2">  1       21 0.64343004E-01 0.26994731E+03</pdfrwt>
<totfact> 0.27207765E+04</totfact>
</mgrwt>
</event>
<event>
 5    1  0.1281005E-004  0.1237010E+03  0.7546771E-02  0.1237113E+00
         21   -1    0    0  503  502  0.00000000000E+00  0.00000000000E+00  0.29955811981E+03  0.29955811981E+03  0.00000000000E+00 0.  1.
         21   -1    0    0  501  503 -0.00000000000E+00 -0.00000000000E+00 -0.53319783375E+02  0.53319783375E+02  0.00000000000E+00 0.  1.
         24    1    1    2    0    0 -0.21820813102E+02 -0.56168007628E+02  0.13569409747E+03  0.16885229347E+03  0.80419002446E+02 0.  1.
          1    1    1    2  501    0 -0.99254867942E+01 -0.42302204350E+02  0.28255928274E+02  0.51830389383E+02  0.00000000000E+00 0. -1.
         -2    1    1    2    0  502  0.31746299897E+02  0.98470211978E+02  0.82288310691E+02  0.13219522034E+03  0.00000000000E+00 0.  1.
<mgrwt>
<rscale>  2 0.12370101E+03</rscale>
<asrwt>0</asrwt>
<pdfrwt beam="1">  1       21 0.46085864E-01 0.12370101E+03</pdfrwt>
<pdfrwt beam="2">  1       21 0.82030438E-02 0.12370101E+03</pdfrwt>
<totfact> 0.52275273E+05</totfact>
</mgrwt>
</event>
<event>
 5    1  0.1281005E-004  0.1203342E+03  0.7546771E-02  0.1242547E+00
         21   -1    0    0  501  502  0.00000000000E+00  0.00000000000E+00  0.12016765891E+03  0.12016765891E+03  0.00000000000E+00 0.  1.
         21   -1    0    0  502  503 -0.00000000000E+00 -0.00000000000E+00 -0.13013230328E+03  0.13013230328E+03  0.00000000000E+00 0. -1.
         24    1    1    2    0    0  0.13951530272E+02  0.38282321680E+02  0.25694290261E+02  0.93742166908E+02  0.80419002446E+02 0.  0.
          1    1    1    2  501    0 -0.50171702697E+00 -0.93592784217E+02 -0.34105009724E+02  0.99614319582E+02  0.00000000000E+00 0. -1.
         -2    1    1    2    0  503 -0.13449813245E+02  0.55310462537E+02 -0.15539248988E+01  0.56943475702E+02  0.00000000000E+00 0.  1.
<mgrwt>
<rscale>  2 0.12033424E+03</rscale>
<asrwt>0</asrwt>
<pdfrwt beam="1">  1       21 0.18487332E-01 0.12033424E+03</pdfrwt>
<pdfrwt beam="2">  1       21 0.20020354E-01 0.12033424E+03</pdfrwt>
<totfact> 0.61929217E+05</totfact>
</mgrwt>
</event>
<event>
 5    1  0.1281005E-004  0.1346927E+03  0.7546771E-02  0.1220654E+00
         21   -1    0    0  501  502  0.00000000000E+00  0.00000000000E+00  0.55554102402E+03  0.55554102402E+03  0.00000000000E+00 0.  1.
         21   -1    0    0  502  503 -0.00000000000E+00 -0.00000000000E+00 -0.32721387529E+02  0.32721387529E+02  0.00000000000E+00 0. -1.
         24    1    1    2    0    0 -0.83352094179E+02  0.80717353573E+01  0.22505158084E+03  0.25323537373E+03  0.80419002446E+02 0. -1.
          1    1    1    2  501    0  0.11712071224E+03 -0.17013138007E+02  0.22134069235E+03  0.25099484096E+03  0.00000000000E+00 0. -1.
         -2    1    1    2    0  503 -0.33768618060E+02  0.89414026493E+01  0.76427363304E+02  0.84032196857E+02  0.00000000000E+00 0.  1.
<mgrwt>
<rscale>  2 0.13469271E+03</rscale>
<asrwt>0</asrwt>
<pdfrwt beam="1">  1       21 0.85467843E-01 0.13469271E+03</pdfrwt>
<pdfrwt beam="2">  1       21 0.50340600E-02 0.13469271E+03</pdfrwt>
<totfact> 0.31901049E+05</totfact>
</mgrwt>
</event>
<event>
 5    1  0.1281005E-004  0.7828878E+02  0.7546771E-02  0.1333979E+00
         21   -1    0    0  503  502  0.00000000000E+00  0.00000000000E+00  0.66042892825E+02  0.66042892825E+02  0.00000000000E+00 0.  1.
         21   -1    0    0  501  503 -0.00000000000E+00 -0.00000000000E+00 -0.98452722306E+02  0.98452722306E+02  0.00000000000E+00 0. -1.
         24    1    1    2    0    0  0.13950193387E+02  0.27859985184E+01 -0.35525167240E+02  0.89059660594E+02  0.80419002446E+02 0. -1.
          1    1    1    2  501    0 -0.33372924563E+02 -0.27664046685E+02 -0.23168343317E+01  0.43409898574E+02  0.00000000000E+00 0. -1.
         -2    1    1    2    0  502  0.19422731176E+02  0.24878048166E+02  0.54321720904E+01  0.32026055963E+02  0.00000000000E+00 0.  1.
<mgrwt>
<rscale>  2 0.78288779E+02</rscale>
<asrwt>0</asrwt>
<pdfrwt beam="1">  1       21 0.10160445E-01 0.78288779E+02</pdfrwt>
<pdfrwt beam="2">  1       21 0.15146573E-01 0.78288779E+02</pdfrwt>
<totfact> 0.29411175E+06</totfact>
</mgrwt>
</event>
<event>
 5    1  0.1281005E-004  0.8315093E+02  0.7546771E-02  0.1320340E+00
         21   -1    0    0  501  502  0.00000000000E+00  0.00000000000E+00  0.10796513363E+03  0.10796513363E+03  0.00000000000E+00 0.  1.
         21   -1    0    0  502  503 -0.00000000000E+00 -0.00000000000E+00 -0.67310722148E+02  0.67310722148E+02  0.00000000000E+00 0. -1.
         24    1    1    2    0    0 -0.13284164569E+02 -0.15567715521E+02  0.12780631552E+02  0.83960605596E+02  0.80419002446E+02 0.  0.
          1    1    1    2  501    0  0.27224942931E+01  0.48581449575E+02  0.28982919273E+02  0.56635490883E+02  0.00000000000E+00 0. -1.
         -2    1    1    2    0  503  0.10561670276E+02 -0.33013734054E+02 -0.11091393388E+01  0.34679759303E+02  0.00000000000E+00 0.  1.
<mgrwt>
<rscale>  2 0.83150926E+02</rscale>
<asrwt>0</asrwt>
<pdfrwt beam="1">  1       21 0.16610021E-01 0.83150926E+02</pdfrwt>
<pdfrwt beam="2">  1       21 0.10355496E-01 0.83150926E+02</pdfrwt>
<totfact> 0.24207751E+06</totfact>
</mgrwt>
</event>
<event>
 5    1  0.1281005E-004  0.4284866E+03  0.7546771E-02  0.1034339E+00
         21   -1    0    0  503  502  0.00000000000E+00  0.00000000000E+00  0.41140468763E+03  0.41140468763E+03  0.00000000000E+00 0.  1.
         21   -1    0    0  501  503 -0.00000000000E+00 -0.00000000000E+00 -0.51919352861E+03  0.51919352861E+03  0.00000000000E+00 0. -1.
         24    1    1    2    0    0 -0.19753189942E+03 -0.18994197600E+02  0.38590567938E+02  0.21756856097E+03  0.80419002446E+02 0.  0.
          1    1    1    2  501    0  0.37653925072E+03  0.16572386790E+03 -0.22459796292E+03  0.46871148126E+03  0.00000000000E+00 0. -1.
         -2    1    1    2    0  502 -0.17900735129E+03 -0.14672967030E+03  0.78218554006E+02  0.24431817401E+03  0.00000000000E+00 0.  1.
<mgrwt>
<rscale>  2 0.42848656E+03</rscale>
<asrwt>0</asrwt>
<pdfrwt beam="1">  1       21 0.63293029E-01 0.42848656E+03</pdfrwt>
<pdfrwt beam="2">  1       21 0.79875928E-01 0.42848656E+03</pdfrwt>
<totfact> 0.27925307E+03</totfact>
</mgrwt>
</event>
<event>
 5    1  0.2228225E-004  0.3379665E+03  0.7546771E-02  0.1067665E+00
         21   -1    0    0  503  502  0.00000000000E+00  0.00000000000E+00  0.73615550575E+03  0.73615550575E+03  0.00000000000E+00 0.  1.
         21   -1    0    0  501  503 -0.00000000000E+00 -0.00000000000E+00 -0.15581823259E+03  0.15581823259E+03  0.00000000000E+00 0. -1.
         24    1    1    2    0    0 -0.11199110769E+03 -0.14087581542E+03  0.15212416920E+03  0.24899193236E+03  0.80419002446E+02 0. -1.
          1    1    1    2  501    0  0.27723527702E+03  0.27884305553E+02  0.26770565506E+03  0.38639778865E+03  0.00000000000E+00 0. -1.
         -2    1    1    2    0  502 -0.16524416933E+03  0.11299150986E+03  0.16050744890E+03  0.25658401733E+03  0.00000000000E+00 0.  1.
<mgrwt>
<rscale>  2 0.33796652E+03</rscale>
<asrwt>0</asrwt>
<pdfrwt beam="1">  1       21 0.11325469E+00 0.33796652E+03</pdfrwt>
<pdfrwt beam="2">  1       21 0.23972036E-01 0.33796652E+03</pdfrwt>
<totfact> 0.92130202E+03</totfact>
</mgrwt>
</event>
<event>
 5    1  0.1281005E-004  0.1211691E+03  0.7546771E-02  0.1241181E+00
         21   -1    0    0  503  502  0.00000000000E+00  0.00000000000E+00  0.92830638761E+01  0.92830638761E+01  0.00000000000E+00 0.  1.
         21   -1    0    0  501  503 -0.00000000000E+00 -0.00000000000E+00 -0.22900091367E+04  0.22900091367E+04  0.00000000000E+00 0. -1.
         24    1    1    2    0    0  0.23338825041E+02  0.46578230886E+02 -0.34783343688E+03  0.36079017186E+03  0.80419002446E+02 0. -1.
          1    1    1    2  501    0  0.49255561819E+02 -0.54538835852E+02 -0.10731358774E+04  0.10756492023E+04  0.00000000000E+00 0. -1.
         -2    1    1    2    0  502 -0.72594386860E+02  0.79606049657E+01 -0.85975675853E+03  0.86285282643E+03  0.00000000000E+00 0.  1.
<mgrwt>
<rscale>  2 0.12116909E+03</rscale>
<asrwt>0</asrwt>
<pdfrwt beam="1">  1       21 0.14281625E-02 0.12116909E+03</pdfrwt>
<pdfrwt beam="2">  1       21 0.35230939E+00 0.12116909E+03</pdfrwt>
<totfact> 0.39365146E+04</totfact>
</mgrwt>
</event>
<event>
 5    1  0.1818778E-004  0.6202803E+03  0.7546771E-02  0.9864202E-01
         21   -1    0    0  503  502  0.00000000000E+00  0.00000000000E+00  0.36530721227E+03  0.36530721227E+03  0.00000000000E+00 0.  1.
         21   -1    0    0  501  503 -0.00000000000E+00 -0.00000000000E+00 -0.12088117365E+04  0.12088117365E+04  0.00000000000E+00 0. -1.
         24    1    1    2    0    0 -0.17240194465E+03 -0.78086706096E+02 -0.17161773398E+03  0.26784291433E+03  0.80419002446E+02 0. -1.
          1    1    1    2  501    0  0.53963619125E+03  0.28825666383E+03 -0.63464558806E+03  0.88151809147E+03  0.00000000000E+00 0. -1.
         -2    1    1    2    0  502 -0.36723424660E+03 -0.21016995773E+03 -0.37241202231E+02  0.42475794301E+03  0.00000000000E+00 0.  1.
<mgrwt>
<rscale>  2 0.62028029E+03</rscale>
<asrwt>0</asrwt>
<pdfrwt beam="1">  1       21 0.56201109E-01 0.62028029E+03</pdfrwt>
<pdfrwt beam="2">  1       21 0.18597104E+00 0.62028029E+03</pdfrwt>
<totfact> 0.37907339E+02</totfact>
</mgrwt>
</event>
<event>
 5    1  0.1281005E-004  0.1508009E+03  0.7546771E-02  0.1199492E+00
         21   -1    0    0  501  502  0.00000000000E+00  0.00000000000E+00  0.15986158337E+03  0.15986158337E+03  0.00000000000E+00 0.  1.
         21   -1    0    0  502  503 -0.00000000000E+00 -0.00000000000E+00 -0.18670172041E+03  0.18670172041E+03  0.00000000000E+00 0. -1.
         24    1    1    2    0    0  0.27649585759E+02  0.10749979348E+02  0.47502857650E+02  0.97998974933E+02  0.80419002446E+02 0.  1.
          1    1    1    2  501    0  0.90229486169E+02  0.23296182567E+02 -0.84037664997E+02  0.12548466613E+03  0.00000000000E+00 0. -1.
         -2    1    1    2    0  503 -0.11787907193E+03 -0.34046161915E+02  0.96946703044E+01  0.12307966271E+03  0.00000000000E+00 0.  1.
<mgrwt>
<rscale>  2 0.15080094E+03</rscale>
<asrwt>0</asrwt>
<pdfrwt beam="1">  1       21 0.24594090E-01 0.15080094E+03</pdfrwt>
<pdfrwt beam="2">  1       21 0.28723342E-01 0.15080094E+03</pdfrwt>
<totfact> 0.18346462E+05</totfact>
</mgrwt>
</event>
<event>
 5    1  0.1281005E-004  0.1417359E+03  0.7546771E-02  0.1211012E+00
         21   -1    0    0  501  502  0.00000000000E+00  0.00000000000E+00  0.39548721740E+02  0.39548721740E+02  0.00000000000E+00 0.  1.
         21   -1    0    0  502  503 -0.00000000000E+00 -0.00000000000E+00 -0.52551818180E+03  0.52551818180E+03  0.00000000000E+00 0. -1.
         24    1    1    2    0    0  0.99463457696E+02 -0.20837667423E+02 -0.21614969008E+03  0.25202200753E+03  0.80419002446E+02 0.  1.
          1    1    1    2  501    0  0.25475975265E+02 -0.58075036756E+01 -0.80669805988E+02  0.84796049512E+02  0.00000000000E+00 0. -1.
         -2    1    1    2    0  503 -0.12493943296E+03  0.26645171099E+02 -0.18914996398E+03  0.22824884650E+03  0.00000000000E+00 0.  1.
<mgrwt>
<rscale>  2 0.14173592E+03</rscale>
<asrwt>0</asrwt>
<pdfrwt beam="1">  1       21 0.60844181E-02 0.14173592E+03</pdfrwt>
<pdfrwt beam="2">  1       21 0.80848959E-01 0.14173592E+03</pdfrwt>
<totfact> 0.26203020E+05</totfact>
</mgrwt>
</event>
<event>
 5    1  0.1281005E-004  0.2085852E+03  0.7546771E-02  0.1142691E+00
         21   -1    0    0  503  502  0.00000000000E+00  0.00000000000E+00  0.13536738727E+03  0.13536738727E+03  0.00000000000E+00 0. -1.
         21   -1    0    0  501  503 -0.00000000000E+00 -0.00000000000E+00 -0.34676479755E+03  0.34676479755E+03  0.00000000000E+00 0.  1.
         24    1    1    2    0    0  0.21073943700E+02  0.41773866428E+02 -0.56733535347E+02  0.10897282692E+03  0.80419002446E+02 0.  1.
          1    1    1    2  501    0  0.14851150613E+03 -0.42751756921E+02 -0.18448605878E+02  0.15563974824E+03  0.00000000000E+00 0. -1.
         -2    1    1    2    0  502 -0.16958544983E+03  0.97789049321E+00 -0.13621526906E+03  0.21751960967E+03  0.00000000000E+00 0.  1.
<mgrwt>
<rscale>  2 0.20858522E+03</rscale>
<asrwt>0</asrwt>
<pdfrwt beam="1">  1       21 0.20825752E-01 0.20858522E+03</pdfrwt>
<pdfrwt beam="2">  1       21 0.53348430E-01 0.20858522E+03</pdfrwt>
<totfact> 0.70683872E+04</totfact>
</mgrwt>
</event>
<event>
 5    1  0.1281005E-004  0.1278873E+03  0.7546771E-02  0.1230625E+00
         21   -1    0    0  503  502  0.00000000000E+00  0.00000000000E+00  0.13341163237E+02  0.13341163237E+02  0.00000000000E+00 0. -1.
         21   -1    0    0  501  503 -0.00000000000E+00 -0.00000000000E+00 -0.12474388066E+04  0.12474388066E+04  0.00000000000E+00 0. -1.
         24    1    1    2    0    0  0.33837722976E+02 -0.57824366815E+02 -0.58777771687E+03  0.59702471414E+03  0.80419002446E+02 0. -1.
          1    1    1    2  501    0 -0.10784929248E+02  0.10131196132E+03 -0.42954557270E+03  0.44146327960E+03  0.00000000000E+00 0. -1.
         -2    1    1    2    0  502 -0.23052793727E+02 -0.43487594508E+02 -0.21677435375E+03  0.22229197606E+03  0.00000000000E+00 0.  1.
<mgrwt>
<rscale>  2 0.12788730E+03</rscale>
<asrwt>0</asrwt>
<pdfrwt beam="1">  1       21 0.20524869E-02 0.12788730E+03</pdfrwt>
<pdfrwt beam="2">  1       21 0.19191364E+00 0.12788730E+03</pdfrwt>
<totfact> 0.18481271E+05</totfact>
</mgrwt>
</event>
<event>
 5    1  0.1281005E-004  0.2463716E+03  0.7546771E-02  0.1115620E+00
         21   -1    0    0  503  502  0.00000000000E+00  0.00000000000E+00  0.17591850749E+03  0.17591850749E+03  0.00000000000E+00 0.  1.
         21   -1    0    0  501  503 -0.00000000000E+00 -0.00000000000E+00 -0.36483911624E+03  0.36483911624E+03  0.00000000000E+00 0. -1.
         24    1    1    2    0    0 -0.89410053945E+02 -0.77648181686E+01 -0.69824418174E+02  0.13927352755E+03  0.80419002446E+02 0.  0.
          1    1    1    2  501    0 -0.62373170245E+02 -0.14441117875E+03 -0.98426455963E+02  0.18556068589E+03  0.00000000000E+00 0. -1.
         -2    1    1    2    0  502  0.15178322419E+03  0.15217599692E+03 -0.20669734617E+02  0.21592341029E+03  0.00000000000E+00 0.  1.
<mgrwt>
<rscale>  2 0.24637156E+03</rscale>
<asrwt>0</asrwt>
<pdfrwt beam="1">  1       21 0.27064386E-01 0.24637156E+03</pdfrwt>
<pdfrwt beam="2">  1       21 0.56129095E-01 0.24637156E+03</pdfrwt>
<totfact> 0.37879710E+04</totfact>
</mgrwt>
</event>
<event>
 5    1  0.1281005E-004  0.2316034E+03  0.7546771E-02  0.1125516E+00
         21   -1    0    0  503  502  0.00000000000E+00  0.00000000000E+00  0.22015507127E+03  0.22015507127E+03  0.00000000000E+00 0. -1.
         21   -1    0    0  501  503 -0.00000000000E+00 -0.00000000000E+00 -0.26074797610E+03  0.26074797610E+03  0.00000000000E+00 0.  1.
         24    1    1    2    0    0  0.45692200667E+02 -0.17235656797E+02  0.41263028845E+02  0.10273606266E+03  0.80419002446E+02 0. -1.
          1    1    1    2  501    0 -0.48958214056E+02 -0.17252276268E+03 -0.43709871958E+02  0.18458484031E+03  0.00000000000E+00 0. -1.
         -2    1    1    2    0  502  0.32660133890E+01  0.18975841948E+03 -0.38146061717E+02  0.19358214440E+03  0.00000000000E+00 0.  1.
<mgrwt>
<rscale>  2 0.23160341E+03</rscale>
<asrwt>0</asrwt>
<pdfrwt beam="1">  1       21 0.33870011E-01 0.23160341E+03</pdfrwt>
<pdfrwt beam="2">  1       21 0.40115073E-01 0.23160341E+03</pdfrwt>
<totfact> 0.49393570E+04</totfact>
</mgrwt>
</event>
<event>
 5    1  0.1281005E-004  0.1708537E+03  0.7546771E-02  0.1176961E+00
         21   -1    0    0  501  502  0.00000000000E+00  0.00000000000E+00  0.67865346273E+02  0.67865346273E+02  0.00000000000E+00 0.  1.
         21   -1    0    0  502  503 -0.00000000000E+00 -0.00000000000E+00 -0.48525810712E+03  0.48525810712E+03  0.00000000000E+00 0.  1.
         24    1    1    2    0    0  0.11234463684E+02 -0.11634232950E+03 -0.13938543768E+03  0.19889008774E+03  0.80419002446E+02 0.  1.
          1    1    1    2  501    0  0.21346855694E+02 -0.37189112162E+02 -0.10603780999E+02  0.44171919620E+02  0.00000000000E+00 0. -1.
         -2    1    1    2    0  503 -0.32581319378E+02  0.15353144167E+03 -0.26740354217E+03  0.31006144603E+03  0.00000000000E+00 0.  1.
<mgrwt>
<rscale>  2 0.17085366E+03</rscale>
<asrwt>0</asrwt>
<pdfrwt beam="1">  1       21 0.10440823E-01 0.17085366E+03</pdfrwt>
<pdfrwt beam="2">  1       21 0.74655090E-01 0.17085366E+03</pdfrwt>
<totfact> 0.12175480E+05</totfact>
</mgrwt>
</event>
<event>
 5    1  0.1281005E-004  0.1538111E+03  0.7546771E-02  0.1195867E+00
         21   -1    0    0  503  502  0.00000000000E+00  0.00000000000E+00  0.85521572273E+02  0.85521572273E+02  0.00000000000E+00 0.  1.
         21   -1    0    0  501  503 -0.00000000000E+00 -0.00000000000E+00 -0.28435966570E+03  0.28435966570E+03  0.00000000000E+00 0. -1.
         24    1    1    2    0    0  0.12818328715E+02  0.28465458709E+02 -0.34498761922E+02  0.92908408764E+02  0.80419002446E+02 0.  0.
          1    1    1    2  501    0 -0.27108677936E+01  0.96221781802E+02 -0.55229159593E+02  0.11097855724E+03  0.00000000000E+00 0. -1.
         -2    1    1    2    0  502 -0.10107460921E+02 -0.12468724051E+03 -0.10911017192E+03  0.16599427197E+03  0.00000000000E+00 0.  1.
<mgrwt>
<rscale>  2 0.15381106E+03</rscale>
<asrwt>0</asrwt>
<pdfrwt beam="1">  1       21 0.13157165E-01 0.15381106E+03</pdfrwt>
<pdfrwt beam="2">  1       21 0.43747640E-01 0.15381106E+03</pdfrwt>
<totfact> 0.25224522E+05</totfact>
</mgrwt>
</event>
<event>
 5    1  0.1281005E-004  0.1847177E+03  0.7546771E-02  0.1163314E+00
         21   -1    0    0  503  502  0.00000000000E+00  0.00000000000E+00  0.15859041868E+02  0.15859041868E+02  0.00000000000E+00 0.  1.
         21   -1    0    0  501  503 -0.00000000000E+00 -0.00000000000E+00 -0.26679622195E+04  0.26679622195E+04  0.00000000000E+00 0. -1.
         24    1    1    2    0    0  0.42001203548E+02  0.46208789568E+02 -0.13074164783E+04  0.13113750101E+04  0.80419002446E+02 0. -1.
          1    1    1    2  501    0 -0.94457065964E+02 -0.13483728637E+03 -0.66916891211E+03  0.68912282218E+03  0.00000000000E+00 0. -1.
         -2    1    1    2    0  502  0.52455862416E+02  0.88628496803E+02 -0.67551778725E+03  0.68332342916E+03  0.00000000000E+00 0.  1.
<mgrwt>
<rscale>  2 0.18471771E+03</rscale>
<asrwt>0</asrwt>
<pdfrwt beam="1">  1       21 0.24398520E-02 0.18471771E+03</pdfrwt>
<pdfrwt beam="2">  1       21 0.41045583E+00 0.18471771E+03</pdfrwt>
<totfact> 0.67387450E+03</totfact>
</mgrwt>
</event>
<event>
 5    1  0.1281005E-004  0.1419939E+03  0.7546771E-02  0.1210671E+00
         21   -1    0    0  501  502  0.00000000000E+00  0.00000000000E+00  0.11912231177E+03  0.11912231177E+03  0.00000000000E+00 0. -1.
         21   -1    0    0  502  503 -0.00000000000E+00 -0.00000000000E+00 -0.21675805531E+03  0.21675805531E+03  0.00000000000E+00 0.  1.
         24    1    1    2    0    0 -0.42682227115E+02 -0.44340832329E+02 -0.94344545875E+02  0.13840517047E+03  0.80419002446E+02 0.  1.
          1    1    1    2  501    0  0.58536593141E+02  0.10489626102E+03  0.33705319276E+02  0.12476300277E+03  0.00000000000E+00 0. -1.
         -2    1    1    2    0  503 -0.15854366026E+02 -0.60555428689E+02 -0.36996516942E+02  0.72712193831E+02  0.00000000000E+00 0.  1.
<mgrwt>
<rscale>  2 0.14199394E+03</rscale>
<asrwt>0</asrwt>
<pdfrwt beam="1">  1       21 0.18326509E-01 0.14199394E+03</pdfrwt>
<pdfrwt beam="2">  1       21 0.33347393E-01 0.14199394E+03</pdfrwt>
<totfact> 0.23817532E+05</totfact>
</mgrwt>
</event>
<event>
 5    1  0.1281005E-004  0.1690037E+03  0.7546771E-02  0.1178891E+00
         21   -1    0    0  503  502  0.00000000000E+00  0.00000000000E+00  0.30900886244E+03  0.30900886244E+03  0.00000000000E+00 0. -1.
         21   -1    0    0  501  503 -0.00000000000E+00 -0.00000000000E+00 -0.96229776004E+02  0.96229776004E+02  0.00000000000E+00 0. -1.
         24    1    1    2    0    0  0.62097153328E+01  0.53297793043E+02  0.26209481194E+02  0.10016670189E+03  0.80419002446E+02 0. -1.
          1    1    1    2  501    0  0.19049370749E+02 -0.14498319870E+03  0.11026057744E+03  0.18314038705E+03  0.00000000000E+00 0. -1.
         -2    1    1    2    0  502 -0.25259086082E+02  0.91685405661E+02  0.76309027802E+02  0.12193154951E+03  0.00000000000E+00 0.  1.
<mgrwt>
<rscale>  2 0.16900371E+03</rscale>
<asrwt>0</asrwt>
<pdfrwt beam="1">  1       21 0.47539825E-01 0.16900371E+03</pdfrwt>
<pdfrwt beam="2">  1       21 0.14804581E-01 0.16900371E+03</pdfrwt>
<totfact> 0.17127302E+05</totfact>
</mgrwt>
</event>
<event>
 5    1  0.1281005E-004  0.1704029E+03  0.7546771E-02  0.1177428E+00
         21   -1    0    0  501  502  0.00000000000E+00  0.00000000000E+00  0.20755753985E+04  0.20755753985E+04  0.00000000000E+00 0. -1.
         21   -1    0    0  502  503 -0.00000000000E+00 -0.00000000000E+00 -0.14466445799E+02  0.14466445799E+02  0.00000000000E+00 0.  1.
         24    1    1    2    0    0 -0.46005868876E+02 -0.32495438244E+02  0.76360468053E+03  0.76989078288E+03  0.80419002446E+02 0.  0.
          1    1    1    2  501    0 -0.45738150950E+02 -0.83214623539E+02  0.56272077989E+03  0.57067620254E+03  0.00000000000E+00 0. -1.
         -2    1    1    2    0  503  0.91744019826E+02  0.11571006178E+03  0.73478349228E+03  0.74947485888E+03  0.00000000000E+00 0.  1.
<mgrwt>
<rscale>  2 0.17040295E+03</rscale>
<asrwt>0</asrwt>
<pdfrwt beam="1">  1       21 0.31931906E+00 0.17040295E+03</pdfrwt>
<pdfrwt beam="2">  1       21 0.22256087E-02 0.17040295E+03</pdfrwt>
<totfact> 0.27959984E+04</totfact>
</mgrwt>
</event>
<event>
 5    1  0.1281005E-004  0.1351883E+03  0.7546771E-02  0.1219954E+00
         21   -1    0    0  503  502  0.00000000000E+00  0.00000000000E+00  0.39734076216E+02  0.39734076216E+02  0.00000000000E+00 0.  1.
         21   -1    0    0  501  503 -0.00000000000E+00 -0.00000000000E+00 -0.47967415583E+03  0.47967415583E+03  0.00000000000E+00 0. -1.
         24    1    1    2    0    0  0.13276508136E+02 -0.44309966583E+02 -0.20183506965E+03  0.22213565698E+03  0.80419002446E+02 0. -1.
          1    1    1    2  501    0 -0.44431829003E+02  0.10243446379E+03 -0.15890422971E+03  0.19421009506E+03  0.00000000000E+00 0. -1.
         -2    1    1    2    0  502  0.31155320867E+02 -0.58124497207E+02 -0.79200780255E+02  0.10306248002E+03  0.00000000000E+00 0.  1.
<mgrwt>
<rscale>  2 0.13518834E+03</rscale>
<asrwt>0</asrwt>
<pdfrwt beam="1">  1       21 0.61129347E-02 0.13518834E+03</pdfrwt>
<pdfrwt beam="2">  1       21 0.73796026E-01 0.13518834E+03</pdfrwt>
<totfact> 0.31893090E+05</totfact>
</mgrwt>
</event>
<event>
 5    1  0.1281005E-004  0.1743686E+03  0.7546771E-02  0.1173367E+00
         21   -1    0    0  501  502  0.00000000000E+00  0.00000000000E+00  0.91821810723E+03  0.91821810723E+03  0.00000000000E+00 0.  1.
         21   -1    0    0  502  503 -0.00000000000E+00 -0.00000000000E+00 -0.33663805698E+02  0.33663805698E+02  0.00000000000E+00 0. -1.
         24    1    1    2    0    0 -0.35122307304E+02 -0.61053025521E+02  0.31631480385E+03  0.33389117910E+03  0.80419002446E+02 0.  1.
          1    1    1    2  501    0 -0.69595758239E+01  0.14645857982E+03  0.31528664113E+03  0.34771283751E+03  0.00000000000E+00 0. -1.
         -2    1    1    2    0  503  0.42081883128E+02 -0.85405554303E+02  0.25295285656E+03  0.27027789631E+03  0.00000000000E+00 0.  1.
<mgrwt>
<rscale>  2 0.17436858E+03</rscale>
<asrwt>0</asrwt>
<pdfrwt beam="1">  1       21 0.14126431E+00 0.17436858E+03</pdfrwt>
<pdfrwt beam="2">  1       21 0.51790477E-02 0.17436858E+03</pdfrwt>
<totfact> 0.89372705E+04</totfact>
</mgrwt>
</event>
<event>
 5    1  0.1281005E-004  0.1876393E+03  0.7546771E-02  0.1160608E+00
         21   -1    0    0  501  502  0.00000000000E+00  0.00000000000E+00  0.32655643975E+02  0.32655643975E+02  0.00000000000E+00 0. -1.
         21   -1    0    0  502  503 -0.00000000000E+00 -0.00000000000E+00 -0.10924472429E+04  0.10924472429E+04  0.00000000000E+00 0.  1.
         24    1    1    2    0    0  0.67407568461E+02  0.17112409365E+02 -0.33844444105E+03  0.35475127973E+03  0.80419002446E+02 0.  0.
          1    1    1    2  501    0  0.84474787861E+02  0.55025780225E+02 -0.30938629811E+03  0.32539776848E+03  0.00000000000E+00 0. -1.
         -2    1    1    2    0  503 -0.15188235632E+03 -0.72138189589E+02 -0.41196085972E+03  0.44495383862E+03  0.00000000000E+00 0.  1.
<mgrwt>
<rscale>  2 0.18763929E+03</rscale>
<asrwt>0</asrwt>
<pdfrwt beam="1">  1       21 0.50239449E-02 0.18763929E+03</pdfrwt>
<pdfrwt beam="2">  1       21 0.16806882E+00 0.18763929E+03</pdfrwt>
<totfact> 0.58916386E+04</totfact>
</mgrwt>
</event>
<event>
 5    1  0.1281005E-004  0.2021101E+03  0.7546771E-02  0.1147971E+00
         21   -1    0    0  503  502  0.00000000000E+00  0.00000000000E+00  0.37917375383E+02  0.37917375383E+02  0.00000000000E+00 0. -1.
         21   -1    0    0  501  503 -0.00000000000E+00 -0.00000000000E+00 -0.11448603303E+04  0.11448603303E+04  0.00000000000E+00 0.  1.
         24    1    1    2    0    0 -0.80241830131E+02  0.10915015474E+03 -0.32605093042E+03  0.36211729145E+03  0.80419002446E+02 0. -1.
          1    1    1    2  501    0 -0.11912132597E+02  0.56163629467E+02 -0.26495943445E+03  0.27110838070E+03  0.00000000000E+00 0. -1.
         -2    1    1    2    0  502  0.92153962729E+02 -0.16531378421E+03 -0.51593259003E+03  0.54955203353E+03  0.00000000000E+00 0.  1.
<mgrwt>
<rscale>  2 0.20211006E+03</rscale>
<asrwt>0</asrwt>
<pdfrwt beam="1">  1       21 0.58334418E-02 0.20211006E+03</pdfrwt>
<pdfrwt beam="2">  1       21 0.17613238E+00 0.20211006E+03</pdfrwt>
<totfact> 0.39776844E+04</totfact>
</mgrwt>
</event>
<event>
 5    1  0.1281005E-004  0.6832738E+02  0.7546771E-02  0.1365875E+00
         21   -1    0    0  503  502  0.00000000000E+00  0.00000000000E+00  0.58149798205E+02  0.58149798205E+02  0.00000000000E+00 0.  1.
         21   -1    0    0  501  503 -0.00000000000E+00 -0.00000000000E+00 -0.83834336328E+02  0.83834336328E+02  0.00000000000E+00 0. -1.
         24    1    1    2    0    0  0.53571498244E+01 -0.87058588043E+01 -0.91216533371E+00  0.81071197300E+02  0.80419002446E+02 0.  1.
          1    1    1    2  501    0  0.22539195335E+02  0.14892149189E+02 -0.10632712550E+02  0.29031810312E+02  0.00000000000E+00 0. -1.
         -2    1    1    2    0  502 -0.27896345160E+02 -0.61862903849E+01 -0.14139660240E+02  0.31881126920E+02  0.00000000000E+00 0.  1.
<mgrwt>
<rscale>  2 0.68327383E+02</rscale>
<asrwt>0</asrwt>
<pdfrwt beam="1">  1       21 0.89461228E-02 0.68327383E+02</pdfrwt>
<pdfrwt beam="2">  1       21 0.12897590E-01 0.68327383E+02</pdfrwt>
<totfact> 0.48154001E+06</totfact>
</mgrwt>
</event>
<event>
 5    1  0.1281005E-004  0.1215216E+03  0.7546771E-02  0.1240608E+00
         21   -1    0    0  501  502  0.00000000000E+00  0.00000000000E+00  0.17500498050E+02  0.17500498050E+02  0.00000000000E+00 0.  1.
         21   -1    0    0  502  503 -0.00000000000E+00 -0.00000000000E+00 -0.86884237032E+03  0.86884237032E+03  0.00000000000E+00 0. -1.
         24    1    1    2    0    0 -0.47494865543E+02  0.84763319746E+02 -0.36724386610E+03  0.38829866825E+03  0.80419002446E+02 0.  1.
          1    1    1    2  501    0  0.83930198553E+01 -0.76490678913E+02 -0.30786663704E+03  0.31733756939E+03  0.00000000000E+00 0. -1.
         -2    1    1    2    0  503  0.39101845688E+02 -0.82726408337E+01 -0.17623136914E+03  0.18070663073E+03  0.00000000000E+00 0.  1.
<mgrwt>
<rscale>  2 0.12152163E+03</rscale>
<asrwt>0</asrwt>
<pdfrwt beam="1">  1       21 0.26923842E-02 0.12152163E+03</pdfrwt>
<pdfrwt beam="2">  1       21 0.13366806E+00 0.12152163E+03</pdfrwt>
<totfact> 0.31146548E+05</totfact>
</mgrwt>
</event>
<event>
 5    1  0.1281005E-004  0.1407553E+03  0.7546771E-02  0.1212316E+00
         21   -1    0    0  501  502  0.00000000000E+00  0.00000000000E+00  0.23291557771E+02  0.23291557771E+02  0.00000000000E+00 0. -1.
         21   -1    0    0  502  503 -0.00000000000E+00 -0.00000000000E+00 -0.87847213321E+03  0.87847213321E+03  0.00000000000E+00 0.  1.
         24    1    1    2    0    0  0.16503612001E+02  0.62688741898E+02 -0.29895942736E+03  0.31630081051E+03  0.80419002446E+02 0.  0.
          1    1    1    2  501    0  0.29696445848E+02 -0.10889784518E+03 -0.28634877036E+03  0.30779252406E+03  0.00000000000E+00 0. -1.
         -2    1    1    2    0  503 -0.46200057850E+02  0.46209103281E+02 -0.26987237772E+03  0.27767035641E+03  0.00000000000E+00 0.  1.
<mgrwt>
<rscale>  2 0.14075530E+03</rscale>
<asrwt>0</asrwt>
<pdfrwt beam="1">  1       21 0.35833167E-02 0.14075530E+03</pdfrwt>
<pdfrwt beam="2">  1       21 0.13514956E+00 0.14075530E+03</pdfrwt>
<totfact> 0.18817217E+05</totfact>
</mgrwt>
</event>
<event>
 5    1  0.1281005E-004  0.2669823E+03  0.7546771E-02  0.1103019E+00
         21   -1    0    0  501  502  0.00000000000E+00  0.00000000000E+00  0.12480570074E+04  0.12480570074E+04  0.00000000000E+00 0. -1.
         21   -1    0    0  502  503 -0.00000000000E+00 -0.00000000000E+00 -0.58718992709E+02  0.58718992709E+02  0.00000000000E+00 0.  1.
         24    1    1    2    0    0 -0.12120197543E+03  0.13020891094E+03  0.46940888919E+03  0.50838587760E+03  0.80419002446E+02 0.  1.
          1    1    1    2  501    0  0.11855078694E+03 -0.21947021388E+03  0.59170159072E+03  0.64213101180E+03  0.00000000000E+00 0. -1.
         -2    1    1    2    0  503  0.26511884988E+01  0.89261302935E+02  0.12822753479E+03  0.15625911071E+03  0.00000000000E+00 0.  1.
<mgrwt>
<rscale>  2 0.26698231E+03</rscale>
<asrwt>0</asrwt>
<pdfrwt beam="1">  1       21 0.19200875E+00 0.26698231E+03</pdfrwt>
<pdfrwt beam="2">  1       21 0.90336922E-02 0.26698231E+03</pdfrwt>
<totfact> 0.13955087E+04</totfact>
</mgrwt>
</event>
<event>
 5    1  0.1281005E-004  0.1559206E+03  0.7546771E-02  0.1193381E+00
         21   -1    0    0  501  502  0.00000000000E+00  0.00000000000E+00  0.13036221428E+03  0.13036221428E+03  0.00000000000E+00 0. -1.
         21   -1    0    0  502  503 -0.00000000000E+00 -0.00000000000E+00 -0.19637309146E+03  0.19637309146E+03  0.00000000000E+00 0. -1.
         24    1    1    2    0    0  0.43744926359E+02  0.26530978897E+02 -0.28506226330E+02  0.99485337198E+02  0.80419002446E+02 0. -1.
          1    1    1    2  501    0 -0.10997694585E+03 -0.76152349595E+02 -0.51455230125E+02  0.14332393266E+03  0.00000000000E+00 0. -1.
         -2    1    1    2    0  503  0.66232019489E+02  0.49621370699E+02  0.13950579282E+02  0.83926035877E+02  0.00000000000E+00 0.  1.
<mgrwt>
<rscale>  2 0.15592057E+03</rscale>
<asrwt>0</asrwt>
<pdfrwt beam="1">  1       21 0.20055725E-01 0.15592057E+03</pdfrwt>
<pdfrwt beam="2">  1       21 0.30211245E-01 0.15592057E+03</pdfrwt>
<totfact> 0.24369373E+05</totfact>
</mgrwt>
</event>
<event>
 5    1  0.1281005E-004  0.1857178E+03  0.7546771E-02  0.1162381E+00
         21   -1    0    0  503  502  0.00000000000E+00  0.00000000000E+00  0.10756747681E+03  0.10756747681E+03  0.00000000000E+00 0. -1.
         21   -1    0    0  501  503 -0.00000000000E+00 -0.00000000000E+00 -0.38584951373E+03  0.38584951373E+03  0.00000000000E+00 0.  1.
         24    1    1    2    0    0 -0.83505269766E+02  0.67227033961E+02 -0.47795311333E+02  0.14228215599E+03  0.80419002446E+02 0. -1.
          1    1    1    2  501    0 -0.71995721635E+02 -0.16577971301E+02 -0.70131005366E+01  0.74211836289E+02  0.00000000000E+00 0. -1.
         -2    1    1    2    0  502  0.15550099140E+03 -0.50649062661E+02 -0.22347362505E+03  0.27692299826E+03  0.00000000000E+00 0.  1.
<mgrwt>
<rscale>  2 0.18571783E+03</rscale>
<asrwt>0</asrwt>
<pdfrwt beam="1">  1       21 0.16548843E-01 0.18571783E+03</pdfrwt>
<pdfrwt beam="2">  1       21 0.59361463E-01 0.18571783E+03</pdfrwt>
<totfact> 0.87146463E+04</totfact>
</mgrwt>
</event>
<event>
 5    1  0.1281005E-004  0.2232562E+03  0.7546771E-02  0.1131478E+00
         21   -1    0    0  501  502  0.00000000000E+00  0.00000000000E+00  0.72789716498E+02  0.72789716498E+02  0.00000000000E+00 0. -1.
         21   -1    0    0  502  503 -0.00000000000E+00 -0.00000000000E+00 -0.71532795041E+03  0.71532795041E+03  0.00000000000E+00 0.  1.
         24    1    1    2    0    0  0.14973283798E+02  0.26794910252E+02 -0.14621969055E+03  0.16967492538E+03  0.80419002446E+02 0.  1.
          1    1    1    2  501    0  0.16849304041E+03  0.23686736884E+02 -0.16890015926E+03  0.23974617822E+03  0.00000000000E+00 0. -1.
         -2    1    1    2    0  503 -0.18346632421E+03 -0.50481647135E+02 -0.32741838410E+03  0.37869656331E+03  0.00000000000E+00 0.  1.
<mgrwt>
<rscale>  2 0.22325618E+03</rscale>
<asrwt>0</asrwt>
<pdfrwt beam="1">  1       21 0.11198418E-01 0.22325618E+03</pdfrwt>
<pdfrwt beam="2">  1       21 0.11005045E+00 0.22325618E+03</pdfrwt>
<totfact> 0.42624370E+04</totfact>
</mgrwt>
</event>
<event>
 5    1  0.1281005E-004  0.2648944E+03  0.7546771E-02  0.1104238E+00
         21   -1    0    0  501  502  0.00000000000E+00  0.00000000000E+00  0.59528789914E+02  0.59528789914E+02  0.00000000000E+00 0. -1.
         21   -1    0    0  502  503 -0.00000000000E+00 -0.00000000000E+00 -0.12010377769E+04  0.12010377769E+04  0.00000000000E+00 0. -1.
         24    1    1    2    0    0 -0.18559754267E+02 -0.21268240658E+03 -0.41929222006E+03  0.47733788065E+03  0.80419002446E+02 0. -1.
          1    1    1    2  501    0  0.56217322645E+02  0.24540727457E+03 -0.57234016836E+03  0.62526665199E+03  0.00000000000E+00 0. -1.
         -2    1    1    2    0  503 -0.37657568378E+02 -0.32724867996E+02 -0.14987659858E+03  0.15796203419E+03  0.00000000000E+00 0.  1.
<mgrwt>
<rscale>  2 0.26489439E+03</rscale>
<asrwt>0</asrwt>
<pdfrwt beam="1">  1       21 0.91582767E-02 0.26489439E+03</pdfrwt>
<pdfrwt beam="2">  1       21 0.18477502E+00 0.26489439E+03</pdfrwt>
<totfact> 0.15252542E+04</totfact>
</mgrwt>
</event>
<event>
 5    1  0.1356343E-004  0.3098709E+03  0.7546771E-02  0.1080408E+00
         21   -1    0    0  501  502  0.00000000000E+00  0.00000000000E+00  0.18993637326E+03  0.18993637326E+03  0.00000000000E+00 0.  1.
         21   -1    0    0  502  503 -0.00000000000E+00 -0.00000000000E+00 -0.81607630719E+03  0.81607630719E+03  0.00000000000E+00 0. -1.
         24    1    1    2    0    0  0.21474023399E+02 -0.66966675738E+02 -0.14939859635E+03  0.18366498275E+03  0.80419002446E+02 0.  0.
          1    1    1    2  501    0  0.54750146835E+02  0.28070128422E+03  0.90890309387E+01  0.28613528274E+03  0.00000000000E+00 0. -1.
         -2    1    1    2    0  503 -0.76224170233E+02 -0.21373460849E+03 -0.48583036851E+03  0.53621241496E+03  0.00000000000E+00 0.  1.
<mgrwt>
<rscale>  2 0.30987091E+03</rscale>
<asrwt>0</asrwt>
<pdfrwt beam="1">  1       21 0.29220981E-01 0.30987091E+03</pdfrwt>
<pdfrwt beam="2">  1       21 0.12555020E+00 0.30987091E+03</pdfrwt>
<totfact> 0.49039270E+03</totfact>
</mgrwt>
</event>
<event>
 5    1  0.1281005E-004  0.1409345E+03  0.7546771E-02  0.1212077E+00
         21   -1    0    0  501  502  0.00000000000E+00  0.00000000000E+00  0.15782468395E+02  0.15782468395E+02  0.00000000000E+00 0.  1.
         21   -1    0    0  502  503 -0.00000000000E+00 -0.00000000000E+00 -0.12766542746E+04  0.12766542746E+04  0.00000000000E+00 0.  1.
         24    1    1    2    0    0 -0.79531305988E+02 -0.32372038986E+02 -0.58185663883E+03  0.59363081258E+03  0.80419002446E+02 0.  1.
          1    1    1    2  501    0  0.89041106197E+00 -0.50192591978E+02 -0.24273554968E+03  0.24787221749E+03  0.00000000000E+00 0. -1.
         -2    1    1    2    0  503  0.78640894926E+02  0.82564630964E+02 -0.43627961768E+03  0.45093371291E+03  0.00000000000E+00 0.  1.
<mgrwt>
<rscale>  2 0.14093449E+03</rscale>
<asrwt>0</asrwt>
<pdfrwt beam="1">  1       21 0.24280724E-02 0.14093449E+03</pdfrwt>
<pdfrwt beam="2">  1       21 0.19640832E+00 0.14093449E+03</pdfrwt>
<totfact> 0.13070781E+05</totfact>
</mgrwt>
</event>
<event>
 5    1  0.1281005E-004  0.2169574E+03  0.7546771E-02  0.1136172E+00
         21   -1    0    0  503  502  0.00000000000E+00  0.00000000000E+00  0.28187933822E+03  0.28187933822E+03  0.00000000000E+00 0.  1.
         21   -1    0    0  501  503 -0.00000000000E+00 -0.00000000000E+00 -0.16758583327E+03  0.16758583327E+03  0.00000000000E+00 0. -1.
         24    1    1    2    0    0  0.45523286042E+00  0.17071624319E+03  0.45611814244E+02  0.19414400964E+03  0.80419002446E+02 0. -1.
          1    1    1    2  501    0  0.21481842629E+02 -0.20411700515E+03  0.50203140352E+02  0.21129499913E+03  0.00000000000E+00 0. -1.
         -2    1    1    2    0  502 -0.21937075489E+02  0.33400761956E+02  0.18478550355E+02  0.44026162716E+02  0.00000000000E+00 0.  1.
<mgrwt>
<rscale>  2 0.21695742E+03</rscale>
<asrwt>0</asrwt>
<pdfrwt beam="1">  1       21 0.43366052E-01 0.21695742E+03</pdfrwt>
<pdfrwt beam="2">  1       21 0.25782436E-01 0.21695742E+03</pdfrwt>
<totfact> 0.72228913E+04</totfact>
</mgrwt>
</event>
<event>
 5    1  0.1281005E-004  0.2954354E+03  0.7546771E-02  0.1087545E+00
         21   -1    0    0  501  502  0.00000000000E+00  0.00000000000E+00  0.69813655388E+03  0.69813655388E+03  0.00000000000E+00 0.  1.
         21   -1    0    0  502  503 -0.00000000000E+00 -0.00000000000E+00 -0.14209104923E+03  0.14209104923E+03  0.00000000000E+00 0. -1.
         24    1    1    2    0    0 -0.34942660338E+02 -0.19208144239E+03  0.18038208517E+03  0.27770700860E+03  0.80419002446E+02 0.  0.
          1    1    1    2  501    0 -0.11100083387E+03 -0.29080655769E+02  0.16103588135E+02  0.11587145987E+03  0.00000000000E+00 0. -1.
         -2    1    1    2    0  503  0.14594349421E+03  0.22116209816E+03  0.35955983135E+03  0.44664913465E+03  0.00000000000E+00 0.  1.
<mgrwt>
<rscale>  2 0.29543540E+03</rscale>
<asrwt>0</asrwt>
<pdfrwt beam="1">  1       21 0.10740562E+00 0.29543540E+03</pdfrwt>
<pdfrwt beam="2">  1       21 0.21860162E-01 0.29543540E+03</pdfrwt>
<totfact> 0.12757415E+04</totfact>
</mgrwt>
</event>
<event>
 5    1  0.1281005E-004  0.1609042E+03  0.7546771E-02  0.1187680E+00
         21   -1    0    0  503  502  0.00000000000E+00  0.00000000000E+00  0.36377942009E+03  0.36377942009E+03  0.00000000000E+00 0. -1.
         21   -1    0    0  501  503 -0.00000000000E+00 -0.00000000000E+00 -0.75210146929E+02  0.75210146929E+02  0.00000000000E+00 0. -1.
         24    1    1    2    0    0 -0.11727131008E+03  0.44904307085E+02  0.87758325361E+02  0.17302513282E+03  0.80419002446E+02 0. -1.
          1    1    1    2  501    0  0.13077874631E+03 -0.66885866293E+02  0.15611392682E+03  0.21435568046E+03  0.00000000000E+00 0. -1.
         -2    1    1    2    0  502 -0.13507436235E+02  0.21981559207E+02  0.44697020982E+02  0.51608753748E+02  0.00000000000E+00 0.  1.
<mgrwt>
<rscale>  2 0.16090421E+03</rscale>
<asrwt>0</asrwt>
<pdfrwt beam="1">  1       21 0.55966064E-01 0.16090421E+03</pdfrwt>
<pdfrwt beam="2">  1       21 0.11570792E-01 0.16090421E+03</pdfrwt>
<totfact> 0.19013850E+05</totfact>
</mgrwt>
</event>
<event>
 5    1  0.1281005E-004  0.3362101E+03  0.7546771E-02  0.1068422E+00
         21   -1    0    0  503  502  0.00000000000E+00  0.00000000000E+00  0.15327652629E+03  0.15327652629E+03  0.00000000000E+00 0. -1.
         21   -1    0    0  501  503 -0.00000000000E+00 -0.00000000000E+00 -0.81578338864E+03  0.81578338864E+03  0.00000000000E+00 0. -1.
         24    1    1    2    0    0  0.21666180839E+03 -0.18581864408E+02 -0.14122451965E+03  0.27147597647E+03  0.80419002446E+02 0. -1.
          1    1    1    2  501    0 -0.32636464191E+03  0.39963015268E+02 -0.28076226269E+03  0.43236370133E+03  0.00000000000E+00 0. -1.
         -2    1    1    2    0  502  0.10970283352E+03 -0.21381150860E+02 -0.24052008001E+03  0.26522023713E+03  0.00000000000E+00 0.  1.
<mgrwt>
<rscale>  2 0.33621008E+03</rscale>
<asrwt>0</asrwt>
<pdfrwt beam="1">  1       21 0.23581003E-01 0.33621008E+03</pdfrwt>
<pdfrwt beam="2">  1       21 0.12550514E+00 0.33621008E+03</pdfrwt>
<totfact> 0.73518732E+03</totfact>
</mgrwt>
</event>
<event>
 5    1  0.1281005E-004  0.1192110E+03  0.7546771E-02  0.1244404E+00
         21   -1    0    0  503  502  0.00000000000E+00  0.00000000000E+00  0.38446823386E+03  0.38446823386E+03  0.00000000000E+00 0. -1.
         21   -1    0    0  501  503 -0.00000000000E+00 -0.00000000000E+00 -0.37232719132E+02  0.37232719132E+02  0.00000000000E+00 0. -1.
         24    1    1    2    0    0  0.22570979397E+02  0.59024066242E+02  0.16370406691E+03  0.19302727005E+03  0.80419002446E+02 0. -1.
          1    1    1    2  501    0 -0.49494148480E+02 -0.85239789831E+02  0.12633965899E+03  0.16024107444E+03  0.00000000000E+00 0. -1.
         -2    1    1    2    0  502  0.26923169084E+02  0.26215723589E+02  0.57191788830E+02  0.68432608502E+02  0.00000000000E+00 0.  1.
<mgrwt>
<rscale>  2 0.11921101E+03</rscale>
<asrwt>0</asrwt>
<pdfrwt beam="1">  1       21 0.59148956E-01 0.11921101E+03</pdfrwt>
<pdfrwt beam="2">  1       21 0.57281109E-02 0.11921101E+03</pdfrwt>
<totfact> 0.57515063E+05</totfact>
</mgrwt>
</event>
<event>
 5    1  0.1281005E-004  0.2692670E+03  0.7546771E-02  0.1101700E+00
         21   -1    0    0  503  502  0.00000000000E+00  0.00000000000E+00  0.29091251978E+03  0.29091251978E+03  0.00000000000E+00 0.  1.
         21   -1    0    0  501  503 -0.00000000000E+00 -0.00000000000E+00 -0.26982671537E+03  0.26982671537E+03  0.00000000000E+00 0. -1.
         24    1    1    2    0    0 -0.15095800572E+03 -0.30047949939E+02 -0.33061576673E+02  0.17678088865E+03  0.80419002446E+02 0.  0.
          1    1    1    2  501    0 -0.10633475397E+03  0.96872610786E+01 -0.32652841532E+02  0.11165630743E+03  0.00000000000E+00 0. -1.
         -2    1    1    2    0  502  0.25729275968E+03  0.20360688860E+02  0.86800222609E+02  0.27230203907E+03  0.00000000000E+00 0.  1.
<mgrwt>
<rscale>  2 0.26926700E+03</rscale>
<asrwt>0</asrwt>
<pdfrwt beam="1">  1       21 0.44755772E-01 0.26926700E+03</pdfrwt>
<pdfrwt beam="2">  1       21 0.41511802E-01 0.26926700E+03</pdfrwt>
<totfact> 0.25775497E+04</totfact>
</mgrwt>
</event>
<event>
 5    1  0.1281005E-004  0.1100452E+03  0.7546771E-02  0.1260486E+00
         21   -1    0    0  503  502  0.00000000000E+00  0.00000000000E+00  0.57783067699E+03  0.57783067699E+03  0.00000000000E+00 0.  1.
         21   -1    0    0  501  503 -0.00000000000E+00 -0.00000000000E+00 -0.21878587579E+02  0.21878587579E+02  0.00000000000E+00 0. -1.
         24    1    1    2    0    0 -0.87542905627E+01  0.17441535980E+02  0.18071003948E+03  0.19875658254E+03  0.80419002446E+02 0.  0.
          1    1    1    2  501    0  0.72426768377E+02 -0.63336133078E+01  0.15115788517E+03  0.16773329331E+03  0.00000000000E+00 0. -1.
         -2    1    1    2    0  502 -0.63672477814E+02 -0.11107922672E+02  0.22408416476E+03  0.23321938872E+03  0.00000000000E+00 0.  1.
<mgrwt>
<rscale>  2 0.11004516E+03</rscale>
<asrwt>0</asrwt>
<pdfrwt beam="1">  1       21 0.88897016E-01 0.11004516E+03</pdfrwt>
<pdfrwt beam="2">  1       21 0.33659370E-02 0.11004516E+03</pdfrwt>
<totfact> 0.57173121E+05</totfact>
</mgrwt>
</event>
<event>
 5    1  0.1281005E-004  0.1796875E+03  0.7546771E-02  0.1168106E+00
         21   -1    0    0  503  502  0.00000000000E+00  0.00000000000E+00  0.41383590243E+03  0.41383590243E+03  0.00000000000E+00 0. -1.
         21   -1    0    0  501  503 -0.00000000000E+00 -0.00000000000E+00 -0.78556491352E+02  0.78556491352E+02  0.00000000000E+00 0.  1.
         24    1    1    2    0    0 -0.29646766728E+02 -0.13456458442E+03  0.15702668836E+03  0.22385520983E+03  0.80419002446E+02 0. -1.
          1    1    1    2  501    0  0.53874212599E+02  0.15750718756E+03  0.15796959204E+03  0.22948929588E+03  0.00000000000E+00 0. -1.
         -2    1    1    2    0  502 -0.24227445871E+02 -0.22942603135E+02  0.20283130675E+02  0.39047888061E+02  0.00000000000E+00 0.  1.
<mgrwt>
<rscale>  2 0.17968753E+03</rscale>
<asrwt>0</asrwt>
<pdfrwt beam="1">  1       21 0.63667061E-01 0.17968753E+03</pdfrwt>
<pdfrwt beam="2">  1       21 0.12085614E-01 0.17968753E+03</pdfrwt>
<totfact> 0.13269207E+05</totfact>
</mgrwt>
</event>
<event>
 5    1  0.1281005E-004  0.1201058E+03  0.7546771E-02  0.1242923E+00
         21   -1    0    0  501  502  0.00000000000E+00  0.00000000000E+00  0.18091337736E+03  0.18091337736E+03  0.00000000000E+00 0. -1.
         21   -1    0    0  502  503 -0.00000000000E+00 -0.00000000000E+00 -0.92592551470E+02  0.92592551470E+02  0.00000000000E+00 0.  1.
         24    1    1    2    0    0 -0.13023843104E+02  0.66224242556E+02  0.88880844622E+02  0.13755831958E+03  0.80419002446E+02 0. -1.
          1    1    1    2  501    0 -0.21624893597E+02  0.27683026400E+02 -0.62959878578E+01  0.35687889218E+02  0.00000000000E+00 0. -1.
         -2    1    1    2    0  503  0.34648736701E+02 -0.93907268955E+02  0.57359691204E+01  0.10025972002E+03  0.00000000000E+00 0.  1.
<mgrwt>
<rscale>  2 0.12010584E+03</rscale>
<asrwt>0</asrwt>
<pdfrwt beam="1">  1       21 0.27832827E-01 0.12010584E+03</pdfrwt>
<pdfrwt beam="2">  1       21 0.14245008E-01 0.12010584E+03</pdfrwt>
<totfact> 0.53523981E+05</totfact>
</mgrwt>
</event>
<event>
 5    1  0.1281005E-004  0.2129200E+03  0.7546771E-02  0.1139274E+00
         21   -1    0    0  501  502  0.00000000000E+00  0.00000000000E+00  0.24282052694E+03  0.24282052694E+03  0.00000000000E+00 0.  1.
         21   -1    0    0  502  503 -0.00000000000E+00 -0.00000000000E+00 -0.19033870402E+03  0.19033870402E+03  0.00000000000E+00 0. -1.
         24    1    1    2    0    0  0.74042066315E+02 -0.32643725846E+02  0.29676595025E+02  0.11788026412E+03  0.80419002446E+02 0.  1.
          1    1    1    2  501    0 -0.21161096448E+02 -0.13465064122E+03  0.30435600732E+02  0.13965999060E+03  0.00000000000E+00 0. -1.
         -2    1    1    2    0  503 -0.52880969868E+02  0.16729436706E+03 -0.76303728322E+01  0.17561897624E+03  0.00000000000E+00 0.  1.
<mgrwt>
<rscale>  2 0.21291999E+03</rscale>
<asrwt>0</asrwt>
<pdfrwt beam="1">  1       21 0.37357004E-01 0.21291999E+03</pdfrwt>
<pdfrwt beam="2">  1       21 0.29282878E-01 0.21291999E+03</pdfrwt>
<totfact> 0.76526204E+04</totfact>
</mgrwt>
</event>
<event>
 5    1  0.1281005E-004  0.2617072E+03  0.7546771E-02  0.1106122E+00
         21   -1    0    0  501  502  0.00000000000E+00  0.00000000000E+00  0.65205790388E+03  0.65205790388E+03  0.00000000000E+00 0.  1.
         21   -1    0    0  502  503 -0.00000000000E+00 -0.00000000000E+00 -0.11623289188E+03  0.11623289188E+03  0.00000000000E+00 0. -1.
         24    1    1    2    0    0  0.49264957012E+02 -0.79187748958E+02  0.37458279547E+02  0.12871703164E+03  0.80419002446E+02 0. -1.
          1    1    1    2  501    0 -0.21488587538E+03 -0.40135921933E+01  0.25028649021E+03  0.32990206962E+03  0.00000000000E+00 0. -1.
         -2    1    1    2    0  503  0.16562091837E+03  0.83201341151E+02  0.24808024225E+03  0.30967169449E+03  0.00000000000E+00 0.  1.
<mgrwt>
<rscale>  2 0.26170718E+03</rscale>
<asrwt>0</asrwt>
<pdfrwt beam="1">  1       21 0.10031660E+00 0.26170718E+03</pdfrwt>
<pdfrwt beam="2">  1       21 0.17881984E-01 0.26170718E+03</pdfrwt>
<totfact> 0.22310566E+04</totfact>
</mgrwt>
</event>
<event>
 5    1  0.1281005E-004  0.2573297E+03  0.7546771E-02  0.1108758E+00
         21   -1    0    0  501  502  0.00000000000E+00  0.00000000000E+00  0.10311870847E+04  0.10311870847E+04  0.00000000000E+00 0.  1.
         21   -1    0    0  502  503 -0.00000000000E+00 -0.00000000000E+00 -0.67055082688E+02  0.67055082688E+02  0.00000000000E+00 0.  1.
         24    1    1    2    0    0 -0.97797166860E+02  0.72941367816E+02  0.37573957467E+03  0.40315279102E+03  0.80419002446E+02 0.  1.
          1    1    1    2  501    0 -0.10698222300E+03  0.61661628685E+02  0.22768637335E+03  0.25901435693E+03  0.00000000000E+00 0. -1.
         -2    1    1    2    0  503  0.20477938986E+03 -0.13460299650E+03  0.36070605398E+03  0.43607501941E+03  0.00000000000E+00 0.  1.
<mgrwt>
<rscale>  2 0.25732973E+03</rscale>
<asrwt>0</asrwt>
<pdfrwt beam="1">  1       21 0.15864416E+00 0.25732973E+03</pdfrwt>
<pdfrwt beam="2">  1       21 0.10316167E-01 0.25732973E+03</pdfrwt>
<totfact> 0.19003368E+04</totfact>
</mgrwt>
</event>
<event>
 5    1  0.1281005E-004  0.1035869E+03  0.7546771E-02  0.1272929E+00
         21   -1    0    0  501  502  0.00000000000E+00  0.00000000000E+00  0.55310498733E+02  0.55310498733E+02  0.00000000000E+00 0. -1.
         21   -1    0    0  502  503 -0.00000000000E+00 -0.00000000000E+00 -0.21879663122E+03  0.21879663122E+03  0.00000000000E+00 0.  1.
         24    1    1    2    0    0  0.12883792437E+02 -0.84329800397E+02 -0.46124276047E+02  0.12598480915E+03  0.80419002446E+02 0. -1.
          1    1    1    2  501    0 -0.15972379686E+02  0.20293757835E+02 -0.27385214492E+02  0.37641778553E+02  0.00000000000E+00 0. -1.
         -2    1    1    2    0  503  0.30885872495E+01  0.64036042562E+02 -0.89976641946E+02  0.11048054224E+03  0.00000000000E+00 0.  1.
<mgrwt>
<rscale>  2 0.10358691E+03</rscale>
<asrwt>0</asrwt>
<pdfrwt beam="1">  1       21 0.85093073E-02 0.10358691E+03</pdfrwt>
<pdfrwt beam="2">  1       21 0.33661021E-01 0.10358691E+03</pdfrwt>
<totfact> 0.91635752E+05</totfact>
</mgrwt>
</event>
<event>
 5    1  0.1281005E-004  0.1221054E+03  0.7546771E-02  0.1239664E+00
         21   -1    0    0  503  502  0.00000000000E+00  0.00000000000E+00  0.78811622203E+02  0.78811622203E+02  0.00000000000E+00 0. -1.
         21   -1    0    0  501  503 -0.00000000000E+00 -0.00000000000E+00 -0.19010802497E+03  0.19010802497E+03  0.00000000000E+00 0. -1.
         24    1    1    2    0    0  0.50262495692E+02 -0.42284715247E+02 -0.45755576743E+02  0.11346851711E+03  0.80419002446E+02 0. -1.
          1    1    1    2  501    0 -0.87431030207E+02  0.52303515687E+02 -0.53749968507E+02  0.11519071972E+03  0.00000000000E+00 0. -1.
         -2    1    1    2    0  502  0.37168534515E+02 -0.10018800439E+02 -0.11790857522E+02  0.40260410347E+02  0.00000000000E+00 0.  1.
<mgrwt>
<rscale>  2 0.12210541E+03</rscale>
<asrwt>0</asrwt>
<pdfrwt beam="1">  1       21 0.12124865E-01 0.12210541E+03</pdfrwt>
<pdfrwt beam="2">  1       21 0.29247388E-01 0.12210541E+03</pdfrwt>
<totfact> 0.64855390E+05</totfact>
</mgrwt>
</event>
<event>
 5    1  0.1281005E-004  0.1132569E+03  0.7546771E-02  0.1254655E+00
         21   -1    0    0  503  502  0.00000000000E+00  0.00000000000E+00  0.73641479865E+01  0.73641479865E+01  0.00000000000E+00 0.  1.
         21   -1    0    0  501  503 -0.00000000000E+00 -0.00000000000E+00 -0.19718261836E+04  0.19718261836E+04  0.00000000000E+00 0.  1.
         24    1    1    2    0    0 -0.10220556238E+02 -0.69041632618E+02 -0.59520588270E+03  0.60465565867E+03  0.80419002446E+02 0.  1.
          1    1    1    2  501    0 -0.26598169716E+02 -0.13369964546E+02 -0.29848703022E+03  0.29996787460E+03  0.00000000000E+00 0. -1.
         -2    1    1    2    0  502  0.36818725954E+02  0.82411597163E+02 -0.10707691227E+04  0.10745667983E+04  0.00000000000E+00 0.  1.
<mgrwt>
<rscale>  2 0.11325690E+03</rscale>
<asrwt>0</asrwt>
<pdfrwt beam="1">  1       21 0.11329452E-02 0.11325690E+03</pdfrwt>
<pdfrwt beam="2">  1       21 0.30335804E+00 0.11325690E+03</pdfrwt>
<totfact> 0.10857899E+05</totfact>
</mgrwt>
</event>
<event>
 5    1  0.1281005E-004  0.1660219E+03  0.7546771E-02  0.1182061E+00
         21   -1    0    0  503  502  0.00000000000E+00  0.00000000000E+00  0.94658159913E+03  0.94658159913E+03  0.00000000000E+00 0. -1.
         21   -1    0    0  501  503 -0.00000000000E+00 -0.00000000000E+00 -0.29694595769E+02  0.29694595769E+02  0.00000000000E+00 0.  1.
         24    1    1    2    0    0  0.14529370244E+02  0.13099753917E+02  0.17452803925E+03  0.19315785925E+03  0.80419002446E+02 0.  1.
          1    1    1    2  501    0 -0.91597808891E+02 -0.98322147906E+02  0.39061301485E+03  0.41308102199E+03  0.00000000000E+00 0. -1.
         -2    1    1    2    0  502  0.77068438647E+02  0.85222393990E+02  0.35174594927E+03  0.37003731366E+03  0.00000000000E+00 0.  1.
<mgrwt>
<rscale>  2 0.16602190E+03</rscale>
<asrwt>0</asrwt>
<pdfrwt beam="1">  1       21 0.14562792E+00 0.16602190E+03</pdfrwt>
<pdfrwt beam="2">  1       21 0.45684001E-02 0.16602190E+03</pdfrwt>
<totfact> 0.10252200E+05</totfact>
</mgrwt>
</event>
<event>
 5    1  0.1281005E-004  0.9657401E+02  0.7546771E-02  0.1287670E+00
         21   -1    0    0  501  502  0.00000000000E+00  0.00000000000E+00  0.62367074521E+03  0.62367074521E+03  0.00000000000E+00 0. -1.
         21   -1    0    0  502  503 -0.00000000000E+00 -0.00000000000E+00 -0.17672055566E+02  0.17672055566E+02  0.00000000000E+00 0.  1.
         24    1    1    2    0    0 -0.42507085295E+01 -0.16201805498E+02  0.14053777132E+03  0.16278405372E+03  0.80419002446E+02 0.  1.
          1    1    1    2  501    0  0.17207973665E+02  0.61513572790E+02  0.25378518982E+03  0.26170012718E+03  0.00000000000E+00 0. -1.
         -2    1    1    2    0  503 -0.12957265136E+02 -0.45311767292E+02  0.21167572851E+03  0.21685861988E+03  0.00000000000E+00 0.  1.
<mgrwt>
<rscale>  2 0.96574010E+02</rscale>
<asrwt>0</asrwt>
<pdfrwt beam="1">  1       21 0.95949329E-01 0.96574010E+02</pdfrwt>
<pdfrwt beam="2">  1       21 0.27187783E-02 0.96574010E+02</pdfrwt>
<totfact> 0.68109193E+05</totfact>
</mgrwt>
</event>
<event>
 5    1  0.1281005E-004  0.1168596E+03  0.7546771E-02  0.1248369E+00
         21   -1    0    0  501  502  0.00000000000E+00  0.00000000000E+00  0.39746367193E+02  0.39746367193E+02  0.00000000000E+00 0.  1.
         21   -1    0    0  502  503 -0.00000000000E+00 -0.00000000000E+00 -0.34521407913E+03  0.34521407913E+03  0.00000000000E+00 0. -1.
         24    1    1    2    0    0  0.48466950535E+02 -0.12626314406E+02 -0.11294209050E+03  0.14741641995E+03  0.80419002446E+02 0.  1.
          1    1    1    2  501    0 -0.80621938336E+02 -0.29617310008E+02 -0.11331192198E+03  0.14218534965E+03  0.00000000000E+00 0. -1.
         -2    1    1    2    0  503  0.32154987801E+02  0.42243624414E+02 -0.79213699455E+02  0.95358676718E+02  0.00000000000E+00 0.  1.
<mgrwt>
<rscale>  2 0.11685963E+03</rscale>
<asrwt>0</asrwt>
<pdfrwt beam="1">  1       21 0.61148260E-02 0.11685963E+03</pdfrwt>
<pdfrwt beam="2">  1       21 0.53109856E-01 0.11685963E+03</pdfrwt>
<totfact> 0.64540477E+05</totfact>
</mgrwt>
</event>
<event>
 5    1  0.1281005E-004  0.1856152E+03  0.7546771E-02  0.1162477E+00
         21   -1    0    0  503  502  0.00000000000E+00  0.00000000000E+00  0.75509200015E+03  0.75509200015E+03  0.00000000000E+00 0. -1.
         21   -1    0    0  501  503 -0.00000000000E+00 -0.00000000000E+00 -0.48652662094E+02  0.48652662094E+02  0.00000000000E+00 0.  1.
         24    1    1    2    0    0  0.40823894435E+01  0.47475570638E+02  0.24610059111E+03  0.26325522332E+03  0.80419002446E+02 0. -1.
          1    1    1    2  501    0  0.62551444508E+02 -0.14598681721E+03  0.31430124114E+03  0.35215068393E+03  0.00000000000E+00 0. -1.
         -2    1    1    2    0  502 -0.66633833952E+02  0.98511246572E+02  0.14603750581E+03  0.18833875499E+03  0.00000000000E+00 0.  1.
<mgrwt>
<rscale>  2 0.18561517E+03</rscale>
<asrwt>0</asrwt>
<pdfrwt beam="1">  1       21 0.11616799E+00 0.18561517E+03</pdfrwt>
<pdfrwt beam="2">  1       21 0.74850255E-02 0.18561517E+03</pdfrwt>
<totfact> 0.77298615E+04</totfact>
</mgrwt>
</event>
<event>
 5    1  0.1281005E-004  0.1571961E+03  0.7546771E-02  0.1191899E+00
         21   -1    0    0  501  502  0.00000000000E+00  0.00000000000E+00  0.23013308447E+02  0.23013308447E+02  0.00000000000E+00 0. -1.
         21   -1    0    0  502  503 -0.00000000000E+00 -0.00000000000E+00 -0.12302425165E+04  0.12302425165E+04  0.00000000000E+00 0.  1.
         24    1    1    2    0    0 -0.22491188966E+02  0.38595403168E+02 -0.22812472050E+03  0.24597471981E+03  0.80419002446E+02 0. -1.
          1    1    1    2  501    0 -0.96608639774E+02 -0.36521939582E+02 -0.28739123805E+03  0.30538632101E+03  0.00000000000E+00 0. -1.
         -2    1    1    2    0  503  0.11909982874E+03 -0.20734635864E+01 -0.69171324952E+03  0.70189478416E+03  0.00000000000E+00 0.  1.
<mgrwt>
<rscale>  2 0.15719612E+03</rscale>
<asrwt>0</asrwt>
<pdfrwt beam="1">  1       21 0.35405089E-02 0.15719612E+03</pdfrwt>
<pdfrwt beam="2">  1       21 0.18926809E+00 0.15719612E+03</pdfrwt>
<totfact> 0.77435600E+04</totfact>
</mgrwt>
</event>
<event>
 5    1  0.1281005E-004  0.1064531E+03  0.7546771E-02  0.1267283E+00
         21   -1    0    0  503  502  0.00000000000E+00  0.00000000000E+00  0.43638377477E+03  0.43638377477E+03  0.00000000000E+00 0.  1.
         21   -1    0    0  501  503 -0.00000000000E+00 -0.00000000000E+00 -0.28900096312E+02  0.28900096312E+02  0.00000000000E+00 0. -1.
         24    1    1    2    0    0 -0.65172009693E+01 -0.24287471492E+02  0.97551346310E+02  0.12890242938E+03  0.80419002446E+02 0.  0.
          1    1    1    2  501    0 -0.92824595730E+01 -0.50939812111E+02  0.96250902582E+02  0.10929439492E+03  0.00000000000E+00 0. -1.
         -2    1    1    2    0  502  0.15799660542E+02  0.75227283604E+02  0.21368142957E+03  0.22708704678E+03  0.00000000000E+00 0.  1.
<mgrwt>
<rscale>  2 0.10645307E+03</rscale>
<asrwt>0</asrwt>
<pdfrwt beam="1">  1       21 0.67135960E-01 0.10645307E+03</pdfrwt>
<pdfrwt beam="2">  1       21 0.44461690E-02 0.10645307E+03</pdfrwt>
<totfact> 0.67134639E+05</totfact>
</mgrwt>
</event>
<event>
 5    1  0.1281005E-004  0.1218108E+03  0.7546771E-02  0.1240139E+00
         21   -1    0    0  503  502  0.00000000000E+00  0.00000000000E+00  0.10293383795E+02  0.10293383795E+02  0.00000000000E+00 0.  1.
         21   -1    0    0  501  503 -0.00000000000E+00 -0.00000000000E+00 -0.14419616931E+04  0.14419616931E+04  0.00000000000E+00 0. -1.
         24    1    1    2    0    0 -0.53370152380E+02 -0.18062324732E+02 -0.56792184274E+03  0.57634803387E+03  0.80419002446E+02 0.  0.
          1    1    1    2  501    0  0.92379528959E+02 -0.15862300703E+02 -0.54981034195E+03  0.55774277411E+03  0.00000000000E+00 0. -1.
         -2    1    1    2    0  502 -0.39009376579E+02  0.33924625435E+02 -0.31393612459E+03  0.31816426888E+03  0.00000000000E+00 0.  1.
<mgrwt>
<rscale>  2 0.12181082E+03</rscale>
<asrwt>0</asrwt>
<pdfrwt beam="1">  1       21 0.15835977E-02 0.12181082E+03</pdfrwt>
<pdfrwt beam="2">  1       21 0.22184023E+00 0.12181082E+03</pdfrwt>
<totfact> 0.18387228E+05</totfact>
</mgrwt>
</event>
<event>
 5    1  0.1281005E-004  0.9065654E+02  0.7546771E-02  0.1301270E+00
         21   -1    0    0  503  502  0.00000000000E+00  0.00000000000E+00  0.11220567760E+04  0.11220567760E+04  0.00000000000E+00 0. -1.
         21   -1    0    0  501  503 -0.00000000000E+00 -0.00000000000E+00 -0.77199953888E+01  0.77199953888E+01  0.00000000000E+00 0.  1.
         24    1    1    2    0    0 -0.21646745283E+02  0.25426979971E+02  0.66340976085E+03  0.66910002215E+03  0.80419002446E+02 0. -1.
          1    1    1    2  501    0 -0.34518265566E+02 -0.80461461323E+01  0.17607285705E+03  0.17960484992E+03  0.00000000000E+00 0. -1.
         -2    1    1    2    0  502  0.56165010849E+02 -0.17380833839E+02  0.27485416274E+03  0.28107189935E+03  0.00000000000E+00 0.  1.
<mgrwt>
<rscale>  2 0.90656537E+02</rscale>
<asrwt>0</asrwt>
<pdfrwt beam="1">  1       21 0.17262399E+00 0.90656537E+02</pdfrwt>
<pdfrwt beam="2">  1       21 0.11876925E-02 0.90656537E+02</pdfrwt>
<totfact> 0.60166156E+05</totfact>
</mgrwt>
</event>
<event>
 5    1  0.1281005E-004  0.1156989E+03  0.7546771E-02  0.1250366E+00
         21   -1    0    0  501  502  0.00000000000E+00  0.00000000000E+00  0.88244249906E+01  0.88244249906E+01  0.00000000000E+00 0. -1.
         21   -1    0    0  502  503 -0.00000000000E+00 -0.00000000000E+00 -0.15893275555E+04  0.15893275555E+04  0.00000000000E+00 0. -1.
         24    1    1    2    0    0  0.64477783568E+02 -0.25299566712E+02 -0.80576712067E+03  0.81272708910E+03  0.80419002446E+02 0. -1.
          1    1    1    2  501    0 -0.93183955793E+02  0.25296057256E+02 -0.50355539670E+03  0.51272914650E+03  0.00000000000E+00 0. -1.
         -2    1    1    2    0  503  0.28706172225E+02  0.35094560551E-02 -0.27118061316E+03  0.27269574491E+03  0.00000000000E+00 0.  1.
<mgrwt>
<rscale>  2 0.11569886E+03</rscale>
<asrwt>0</asrwt>
<pdfrwt beam="1">  1       21 0.13576020E-02 0.11569886E+03</pdfrwt>
<pdfrwt beam="2">  1       21 0.24451227E+00 0.11569886E+03</pdfrwt>
<totfact> 0.17407003E+05</totfact>
</mgrwt>
</event>
<event>
 5    1  0.1281005E-004  0.1486766E+03  0.7546771E-02  0.1202109E+00
         21   -1    0    0  503  502  0.00000000000E+00  0.00000000000E+00  0.10525146704E+03  0.10525146704E+03  0.00000000000E+00 0. -1.
         21   -1    0    0  501  503 -0.00000000000E+00 -0.00000000000E+00 -0.23928807358E+03  0.23928807358E+03  0.00000000000E+00 0.  1.
         24    1    1    2    0    0 -0.44062440804E+02 -0.71385793120E+02 -0.10912716528E+03  0.15941575928E+03  0.80419002446E+02 0.  0.
          1    1    1    2  501    0 -0.41410167334E+02 -0.28054063392E+02 -0.20113125724E+02  0.53910761986E+02  0.00000000000E+00 0. -1.
         -2    1    1    2    0  502  0.85472608138E+02  0.99439856512E+02 -0.47963155295E+01  0.13121301935E+03  0.00000000000E+00 0.  1.
<mgrwt>
<rscale>  2 0.14867657E+03</rscale>
<asrwt>0</asrwt>
<pdfrwt beam="1">  1       21 0.16192534E-01 0.14867657E+03</pdfrwt>
<pdfrwt beam="2">  1       21 0.36813549E-01 0.14867657E+03</pdfrwt>
<totfact> 0.24545537E+05</totfact>
</mgrwt>
</event>
<event>
 5    1  0.1281005E-004  0.1531726E+03  0.7546771E-02  0.1196628E+00
         21   -1    0    0  503  502  0.00000000000E+00  0.00000000000E+00  0.70940319715E+03  0.70940319715E+03  0.00000000000E+00 0.  1.
         21   -1    0    0  501  503 -0.00000000000E+00 -0.00000000000E+00 -0.36728488753E+02  0.36728488753E+02  0.00000000000E+00 0.  1.
         24    1    1    2    0    0  0.65500026430E+02 -0.96311909689E+02  0.43067987675E+03  0.45334160365E+03  0.80419002446E+02 0.  1.
          1    1    1    2  501    0  0.32581530538E+02  0.98031696812E+01  0.51336890501E+02  0.61588429062E+02  0.00000000000E+00 0. -1.
         -2    1    1    2    0  502 -0.98081556968E+02  0.86508740008E+02  0.19065794115E+03  0.23120165319E+03  0.00000000000E+00 0.  1.
<mgrwt>
<rscale>  2 0.15317264E+03</rscale>
<asrwt>0</asrwt>
<pdfrwt beam="1">  1       21 0.10913894E+00 0.15317264E+03</pdfrwt>
<pdfrwt beam="2">  1       21 0.56505373E-02 0.15317264E+03</pdfrwt>
<totfact> 0.14762472E+05</totfact>
</mgrwt>
</event>
<event>
 5    1  0.1281005E-004  0.1864810E+03  0.7546771E-02  0.1161674E+00
         21   -1    0    0  503  502  0.00000000000E+00  0.00000000000E+00  0.38222985390E+03  0.38222985390E+03  0.00000000000E+00 0. -1.
         21   -1    0    0  501  503 -0.00000000000E+00 -0.00000000000E+00 -0.95526106545E+02  0.95526106545E+02  0.00000000000E+00 0.  1.
         24    1    1    2    0    0  0.51929416345E+02 -0.32838889189E+02  0.12657700128E+03  0.16206174790E+03  0.80419002446E+02 0.  1.
          1    1    1    2  501    0 -0.16044724256E+03  0.93011323908E+01  0.87228280208E+02  0.18286224754E+03  0.00000000000E+00 0. -1.
         -2    1    1    2    0  502  0.10851782621E+03  0.23537756798E+02  0.72898465868E+02  0.13283196500E+03  0.00000000000E+00 0.  1.
<mgrwt>
<rscale>  2 0.18648095E+03</rscale>
<asrwt>0</asrwt>
<pdfrwt beam="1">  1       21 0.58804592E-01 0.18648095E+03</pdfrwt>
<pdfrwt beam="2">  1       21 0.14696324E-01 0.18648095E+03</pdfrwt>
<totfact> 0.11040386E+05</totfact>
</mgrwt>
</event>
<event>
 5    1  0.1281005E-004  0.1101768E+03  0.7546771E-02  0.1260243E+00
         21   -1    0    0  501  502  0.00000000000E+00  0.00000000000E+00  0.46492353735E+03  0.46492353735E+03  0.00000000000E+00 0. -1.
         21   -1    0    0  502  503 -0.00000000000E+00 -0.00000000000E+00 -0.32454276800E+02  0.32454276800E+02  0.00000000000E+00 0. -1.
         24    1    1    2    0    0  0.36583889397E+02 -0.29142507658E+02  0.92195120831E+02  0.13097642145E+03  0.80419002446E+02 0. -1.
          1    1    1    2  501    0 -0.44622045071E+02  0.71460174202E+02  0.27942499255E+03  0.29184929307E+03  0.00000000000E+00 0. -1.
         -2    1    1    2    0  503  0.80381556749E+01 -0.42317666544E+02  0.60849147169E+02  0.74552099632E+02  0.00000000000E+00 0.  1.
<mgrwt>
<rscale>  2 0.11017684E+03</rscale>
<asrwt>0</asrwt>
<pdfrwt beam="1">  1       21 0.71526694E-01 0.11017684E+03</pdfrwt>
<pdfrwt beam="2">  1       21 0.49929660E-02 0.11017684E+03</pdfrwt>
<totfact> 0.48228348E+05</totfact>
</mgrwt>
</event>
<event>
 5    1  0.1281005E-004  0.1872997E+03  0.7546771E-02  0.1160920E+00
         21   -1    0    0  501  502  0.00000000000E+00  0.00000000000E+00  0.15502918675E+02  0.15502918675E+02  0.00000000000E+00 0. -1.
         21   -1    0    0  502  503 -0.00000000000E+00 -0.00000000000E+00 -0.22649886496E+04  0.22649886496E+04  0.00000000000E+00 0.  1.
         24    1    1    2    0    0 -0.13487839266E+03  0.72736087805E+02 -0.10663454985E+04  0.10802974856E+04  0.80419002446E+02 0. -1.
          1    1    1    2  501    0 -0.26404435638E+02 -0.14057618584E+02 -0.16486313037E+03  0.16755495402E+03  0.00000000000E+00 0. -1.
         -2    1    1    2    0  503  0.16128282830E+03 -0.58678469220E+02 -0.10182771021E+04  0.10326391287E+04  0.00000000000E+00 0.  1.
<mgrwt>
<rscale>  2 0.18729969E+03</rscale>
<asrwt>0</asrwt>
<pdfrwt beam="1">  1       21 0.23850647E-02 0.18729969E+03</pdfrwt>
<pdfrwt beam="2">  1       21 0.34845975E+00 0.18729969E+03</pdfrwt>
<totfact> 0.16587093E+04</totfact>
</mgrwt>
</event>
<event>
 5    1  0.1281005E-004  0.1731874E+03  0.7546771E-02  0.1174564E+00
         21   -1    0    0  503  502  0.00000000000E+00  0.00000000000E+00  0.22877416691E+02  0.22877416691E+02  0.00000000000E+00 0. -1.
         21   -1    0    0  501  503 -0.00000000000E+00 -0.00000000000E+00 -0.13457238986E+04  0.13457238986E+04  0.00000000000E+00 0.  1.
         24    1    1    2    0    0 -0.27228731624E+01 -0.86449477741E+02 -0.35233066484E+03  0.37159795422E+03  0.80419002446E+02 0. -1.
          1    1    1    2  501    0 -0.84560061056E+02 -0.23619205367E+02 -0.37867550091E+03  0.38872021529E+03  0.00000000000E+00 0. -1.
         -2    1    1    2    0  502  0.87282934218E+02  0.11006868311E+03 -0.59184031620E+03  0.60828314581E+03  0.00000000000E+00 0.  1.
<mgrwt>
<rscale>  2 0.17318736E+03</rscale>
<asrwt>0</asrwt>
<pdfrwt beam="1">  1       21 0.35196025E-02 0.17318736E+03</pdfrwt>
<pdfrwt beam="2">  1       21 0.20703445E+00 0.17318736E+03</pdfrwt>
<totfact> 0.59546183E+04</totfact>
</mgrwt>
</event>
<event>
 5    1  0.1281005E-004  0.1989419E+03  0.7546771E-02  0.1150635E+00
         21   -1    0    0  501  502  0.00000000000E+00  0.00000000000E+00  0.58735937312E+02  0.58735937312E+02  0.00000000000E+00 0. -1.
         21   -1    0    0  502  503 -0.00000000000E+00 -0.00000000000E+00 -0.75393881121E+03  0.75393881121E+03  0.00000000000E+00 0.  1.
         24    1    1    2    0    0  0.93598636893E+02  0.69901950469E+02 -0.13184425750E+03  0.19364170960E+03  0.80419002446E+02 0. -1.
          1    1    1    2  501    0  0.58278604588E+02  0.38160989443E+02 -0.17118395305E+03  0.18481504985E+03  0.00000000000E+00 0. -1.
         -2    1    1    2    0  503 -0.15187724148E+03 -0.10806293991E+03 -0.39217466335E+03  0.43421798908E+03  0.00000000000E+00 0.  1.
<mgrwt>
<rscale>  2 0.19894189E+03</rscale>
<asrwt>0</asrwt>
<pdfrwt beam="1">  1       21 0.90362988E-02 0.19894189E+03</pdfrwt>
<pdfrwt beam="2">  1       21 0.11599058E+00 0.19894189E+03</pdfrwt>
<totfact> 0.55506392E+04</totfact>
</mgrwt>
</event>
<event>
 5    1  0.1281005E-004  0.3445788E+03  0.7546771E-02  0.1064862E+00
         21   -1    0    0  501  502  0.00000000000E+00  0.00000000000E+00  0.48821505438E+03  0.48821505438E+03  0.00000000000E+00 0.  1.
         21   -1    0    0  502  503 -0.00000000000E+00 -0.00000000000E+00 -0.25570964600E+03  0.25570964600E+03  0.00000000000E+00 0.  1.
         24    1    1    2    0    0 -0.17915558062E+03 -0.17121091299E+03  0.31251633367E+02  0.26240003685E+03  0.80419002446E+02 0.  1.
          1    1    1    2  501    0 -0.72318664871E+02 -0.54624188107E+02  0.51876714805E+01  0.90778318725E+02  0.00000000000E+00 0. -1.
         -2    1    1    2    0  503  0.25147424549E+03  0.22583510110E+03  0.19606610353E+03  0.39074634481E+03  0.00000000000E+00 0.  1.
<mgrwt>
<rscale>  2 0.34457879E+03</rscale>
<asrwt>0</asrwt>
<pdfrwt beam="1">  1       21 0.75110008E-01 0.34457879E+03</pdfrwt>
<pdfrwt beam="2">  1       21 0.39339946E-01 0.34457879E+03</pdfrwt>
<totfact> 0.91077958E+03</totfact>
</mgrwt>
</event>
<event>
 5    1  0.1281005E-004  0.1351688E+03  0.7546771E-02  0.1219982E+00
         21   -1    0    0  503  502  0.00000000000E+00  0.00000000000E+00  0.63174115992E+03  0.63174115992E+03  0.00000000000E+00 0.  1.
         21   -1    0    0  501  503 -0.00000000000E+00 -0.00000000000E+00 -0.28956780116E+02  0.28956780116E+02  0.00000000000E+00 0.  1.
         24    1    1    2    0    0  0.96927735595E+02  0.15846494156E+02  0.27232423028E+03  0.30045598622E+03  0.80419002446E+02 0.  1.
          1    1    1    2  501    0  0.13274078466E+02  0.22996379373E+02  0.63798381775E+02  0.69103314974E+02  0.00000000000E+00 0. -1.
         -2    1    1    2    0  502 -0.11020181406E+03 -0.38842873528E+02  0.26666176775E+03  0.29113863884E+03  0.00000000000E+00 0.  1.
<mgrwt>
<rscale>  2 0.13516883E+03</rscale>
<asrwt>0</asrwt>
<pdfrwt beam="1">  1       21 0.97190938E-01 0.13516883E+03</pdfrwt>
<pdfrwt beam="2">  1       21 0.44548897E-02 0.13516883E+03</pdfrwt>
<totfact> 0.29147474E+05</totfact>
</mgrwt>
</event>
<event>
 5    1  0.1281005E-004  0.1608462E+03  0.7546771E-02  0.1187745E+00
         21   -1    0    0  503  502  0.00000000000E+00  0.00000000000E+00  0.14686870511E+03  0.14686870511E+03  0.00000000000E+00 0.  1.
         21   -1    0    0  501  503 -0.00000000000E+00 -0.00000000000E+00 -0.17962221992E+03  0.17962221992E+03  0.00000000000E+00 0. -1.
         24    1    1    2    0    0  0.22904648193E+02 -0.37381560490E+02  0.55476837092E+01  0.91760540116E+02  0.80419002446E+02 0.  1.
          1    1    1    2  501    0  0.80878349812E+02 -0.49437256427E+02 -0.28885791366E+02  0.99094594878E+02  0.00000000000E+00 0. -1.
         -2    1    1    2    0  502 -0.10378299800E+03  0.86818816917E+02 -0.94154071588E+01  0.13563579003E+03  0.00000000000E+00 0.  1.
<mgrwt>
<rscale>  2 0.16084619E+03</rscale>
<asrwt>0</asrwt>
<pdfrwt beam="1">  1       21 0.22595185E-01 0.16084619E+03</pdfrwt>
<pdfrwt beam="2">  1       21 0.27634188E-01 0.16084619E+03</pdfrwt>
<totfact> 0.23139010E+05</totfact>
</mgrwt>
</event>
<event>
 5    1  0.1281005E-004  0.2637454E+03  0.7546771E-02  0.1104914E+00
         21   -1    0    0  501  502  0.00000000000E+00  0.00000000000E+00  0.16432601322E+04  0.16432601322E+04  0.00000000000E+00 0.  1.
         21   -1    0    0  502  503 -0.00000000000E+00 -0.00000000000E+00 -0.45736129740E+02  0.45736129740E+02  0.00000000000E+00 0. -1.
         24    1    1    2    0    0  0.55734957412E+02 -0.14386654187E+03  0.34213121243E+03  0.38382932381E+03  0.80419002446E+02 0.  0.
          1    1    1    2  501    0 -0.36815110977E+02 -0.10121056897E+03  0.47126020923E+03  0.48340988454E+03  0.00000000000E+00 0. -1.
         -2    1    1    2    0  503 -0.18919846434E+02  0.24507711084E+03  0.78413258079E+03  0.82175705357E+03  0.00000000000E+00 0.  1.
<mgrwt>
<rscale>  2 0.26374541E+03</rscale>
<asrwt>0</asrwt>
<pdfrwt beam="1">  1       21 0.25280921E+00 0.26374541E+03</pdfrwt>
<pdfrwt beam="2">  1       21 0.70363289E-02 0.26374541E+03</pdfrwt>
<totfact> 0.90397893E+03</totfact>
</mgrwt>
</event>
<event>
 5    1  0.1281005E-004  0.1571782E+03  0.7546771E-02  0.1191920E+00
         21   -1    0    0  501  502  0.00000000000E+00  0.00000000000E+00  0.14254108069E+04  0.14254108069E+04  0.00000000000E+00 0. -1.
         21   -1    0    0  502  503 -0.00000000000E+00 -0.00000000000E+00 -0.40216302040E+02  0.40216302040E+02  0.00000000000E+00 0. -1.
         24    1    1    2    0    0  0.86084948404E+02  0.18173612821E+01  0.97732696039E+03  0.98440292797E+03  0.80419002446E+02 0. -1.
          1    1    1    2  501    0 -0.13482207069E+03 -0.32841548675E+02  0.10799375509E+03  0.17583574496E+03  0.00000000000E+00 0. -1.
         -2    1    1    2    0  503  0.48737122290E+02  0.31024187393E+02  0.29987378936E+03  0.30538843599E+03  0.00000000000E+00 0.  1.
<mgrwt>
<rscale>  2 0.15717820E+03</rscale>
<asrwt>0</asrwt>
<pdfrwt beam="1">  1       21 0.21929393E+00 0.15717820E+03</pdfrwt>
<pdfrwt beam="2">  1       21 0.61871245E-02 0.15717820E+03</pdfrwt>
<totfact> 0.19596644E+04</totfact>
</mgrwt>
</event>
<event>
 5    1  0.1281005E-004  0.2425811E+03  0.7546771E-02  0.1118085E+00
         21   -1    0    0  503  502  0.00000000000E+00  0.00000000000E+00  0.51548726733E+03  0.51548726733E+03  0.00000000000E+00 0. -1.
         21   -1    0    0  501  503 -0.00000000000E+00 -0.00000000000E+00 -0.11687037174E+03  0.11687037174E+03  0.00000000000E+00 0.  1.
         24    1    1    2    0    0  0.81974940088E+02  0.14963504741E+01  0.55646385655E+02  0.12761608855E+03  0.80419002446E+02 0. -1.
          1    1    1    2  501    0  0.13926601736E+03  0.40693586002E+02  0.13400902829E+03  0.19750800287E+03  0.00000000000E+00 0. -1.
         -2    1    1    2    0  502 -0.22124095745E+03 -0.42189936476E+02  0.20896148164E+03  0.30723354765E+03  0.00000000000E+00 0.  1.
<mgrwt>
<rscale>  2 0.24258113E+03</rscale>
<asrwt>0</asrwt>
<pdfrwt beam="1">  1       21 0.79305733E-01 0.24258113E+03</pdfrwt>
<pdfrwt beam="2">  1       21 0.17980057E-01 0.24258113E+03</pdfrwt>
<totfact> 0.38508227E+04</totfact>
</mgrwt>
</event>
<event>
 5    1  0.1281005E-004  0.1654683E+03  0.7546771E-02  0.1182658E+00
         21   -1    0    0  503  502  0.00000000000E+00  0.00000000000E+00  0.59681663631E+03  0.59681663631E+03  0.00000000000E+00 0.  1.
         21   -1    0    0  501  503 -0.00000000000E+00 -0.00000000000E+00 -0.48470683174E+02  0.48470683174E+02  0.00000000000E+00 0.  1.
         24    1    1    2    0    0 -0.66138537629E+02 -0.70262118962E+02  0.13921380727E+03  0.18750672417E+03  0.80419002446E+02 0.  1.
          1    1    1    2  501    0 -0.59928384139E+02 -0.21019092662E+01  0.12353034400E+03  0.13731560412E+03  0.00000000000E+00 0. -1.
         -2    1    1    2    0  502  0.12606692177E+03  0.72364028229E+02  0.28560180187E+03  0.32046499119E+03  0.00000000000E+00 0.  1.
<mgrwt>
<rscale>  2 0.16546826E+03</rscale>
<asrwt>0</asrwt>
<pdfrwt beam="1">  1       21 0.91817939E-01 0.16546826E+03</pdfrwt>
<pdfrwt beam="2">  1       21 0.74570286E-02 0.16546826E+03</pdfrwt>
<totfact> 0.13738097E+05</totfact>
</mgrwt>
</event>
<event>
 5    1  0.1281005E-004  0.1660700E+03  0.7546771E-02  0.1182009E+00
         21   -1    0    0  501  502  0.00000000000E+00  0.00000000000E+00  0.87466185592E+02  0.87466185592E+02  0.00000000000E+00 0.  1.
         21   -1    0    0  502  503 -0.00000000000E+00 -0.00000000000E+00 -0.33892070594E+03  0.33892070594E+03  0.00000000000E+00 0. -1.
         24    1    1    2    0    0  0.76305926655E+02 -0.24763856620E+02 -0.35242731768E+02  0.11893321291E+03  0.80419002446E+02 0.  1.
          1    1    1    2  501    0 -0.14315161008E+03 -0.94353261162E+01 -0.13917550680E+03  0.19987803917E+03  0.00000000000E+00 0. -1.
         -2    1    1    2    0  503  0.66845683428E+02  0.34199182736E+02 -0.77036281786E+02  0.10757563946E+03  0.00000000000E+00 0.  1.
<mgrwt>
<rscale>  2 0.16607000E+03</rscale>
<asrwt>0</asrwt>
<pdfrwt beam="1">  1       21 0.13456336E-01 0.16607000E+03</pdfrwt>
<pdfrwt beam="2">  1       21 0.52141647E-01 0.16607000E+03</pdfrwt>
<totfact> 0.16814925E+05</totfact>
</mgrwt>
</event>
<event>
 5    1  0.1281005E-004  0.2517592E+03  0.7546771E-02  0.1112198E+00
         21   -1    0    0  503  502  0.00000000000E+00  0.00000000000E+00  0.63767992731E+03  0.63767992731E+03  0.00000000000E+00 0.  1.
         21   -1    0    0  501  503 -0.00000000000E+00 -0.00000000000E+00 -0.10469512947E+03  0.10469512947E+03  0.00000000000E+00 0. -1.
         24    1    1    2    0    0  0.34480040272E+02 -0.15058252835E+02  0.41757445288E+02  0.98114852836E+02  0.80419002446E+02 0.  0.
          1    1    1    2  501    0 -0.19617496527E+03  0.11230603918E+03  0.29983578133E+03  0.37549801491E+03  0.00000000000E+00 0. -1.
         -2    1    1    2    0  502  0.16169492499E+03 -0.97247786342E+02  0.19139157122E+03  0.26876218903E+03  0.00000000000E+00 0.  1.
<mgrwt>
<rscale>  2 0.25175916E+03</rscale>
<asrwt>0</asrwt>
<pdfrwt beam="1">  1       21 0.98104602E-01 0.25175916E+03</pdfrwt>
<pdfrwt beam="2">  1       21 0.16106943E-01 0.25175916E+03</pdfrwt>
<totfact> 0.28686926E+04</totfact>
</mgrwt>
</event>
<event>
 5    1  0.1281005E-004  0.2187380E+03  0.7546771E-02  0.1134827E+00
         21   -1    0    0  503  502  0.00000000000E+00  0.00000000000E+00  0.43273459430E+02  0.43273459430E+02  0.00000000000E+00 0.  1.
         21   -1    0    0  501  503 -0.00000000000E+00 -0.00000000000E+00 -0.12065051005E+04  0.12065051005E+04  0.00000000000E+00 0. -1.
         24    1    1    2    0    0 -0.11040175941E+03  0.28400195433E+02 -0.30397060662E+03  0.33445547570E+03  0.80419002446E+02 0.  1.
          1    1    1    2  501    0 -0.91676376340E+02  0.10182129380E+02 -0.42364670097E+03  0.43357209433E+03  0.00000000000E+00 0. -1.
         -2    1    1    2    0  502  0.20207813575E+03 -0.38582324814E+02 -0.43561433347E+03  0.48175098990E+03  0.00000000000E+00 0.  1.
<mgrwt>
<rscale>  2 0.21873797E+03</rscale>
<asrwt>0</asrwt>
<pdfrwt beam="1">  1       21 0.66574546E-02 0.21873797E+03</pdfrwt>
<pdfrwt beam="2">  1       21 0.18561619E+00 0.21873797E+03</pdfrwt>
<totfact> 0.27025683E+04</totfact>
</mgrwt>
</event>
<event>
 5    1  0.1281005E-004  0.1195727E+03  0.7546771E-02  0.1243804E+00
         21   -1    0    0  503  502  0.00000000000E+00  0.00000000000E+00  0.10620200105E+03  0.10620200105E+03  0.00000000000E+00 0.  1.
         21   -1    0    0  501  503 -0.00000000000E+00 -0.00000000000E+00 -0.16518741516E+03  0.16518741516E+03  0.00000000000E+00 0. -1.
         24    1    1    2    0    0 -0.12349259331E+02  0.50802266101E+02 -0.68702649856E+02  0.11798578092E+03  0.80419002446E+02 0.  0.
          1    1    1    2  501    0 -0.53515036686E+02  0.89952982447E+01 -0.22561080788E+02  0.58768843007E+02  0.00000000000E+00 0. -1.
         -2    1    1    2    0  502  0.65864296017E+02 -0.59797564346E+02  0.32278316536E+02  0.94634792280E+02  0.00000000000E+00 0.  1.
<mgrwt>
<rscale>  2 0.11957267E+03</rscale>
<asrwt>0</asrwt>
<pdfrwt beam="1">  1       21 0.16338769E-01 0.11957267E+03</pdfrwt>
<pdfrwt beam="2">  1       21 0.25413448E-01 0.11957267E+03</pdfrwt>
<totfact> 0.49686735E+05</totfact>
</mgrwt>
</event>
<event>
 5    1  0.1281005E-004  0.1722615E+03  0.7546771E-02  0.1175510E+00
         21   -1    0    0  503  502  0.00000000000E+00  0.00000000000E+00  0.12970933302E+03  0.12970933302E+03  0.00000000000E+00 0. -1.
         21   -1    0    0  501  503 -0.00000000000E+00 -0.00000000000E+00 -0.25820340350E+03  0.25820340350E+03  0.00000000000E+00 0.  1.
         24    1    1    2    0    0  0.15791562428E+02  0.53368187053E+02 -0.51953402777E+02  0.11074253405E+03  0.80419002446E+02 0.  0.
          1    1    1    2  501    0 -0.63169484074E+02 -0.13685478501E+03  0.55942411960E+01  0.15083405263E+03  0.00000000000E+00 0. -1.
         -2    1    1    2    0  502  0.47377921646E+02  0.83486597956E+02 -0.82134908894E+02  0.12633614984E+03  0.00000000000E+00 0.  1.
<mgrwt>
<rscale>  2 0.17226148E+03</rscale>
<asrwt>0</asrwt>
<pdfrwt beam="1">  1       21 0.19955282E-01 0.17226148E+03</pdfrwt>
<pdfrwt beam="2">  1       21 0.39723601E-01 0.17226148E+03</pdfrwt>
<totfact> 0.14256089E+05</totfact>
</mgrwt>
</event>
<event>
 5    1  0.1281005E-004  0.2796120E+03  0.7546771E-02  0.1095901E+00
         21   -1    0    0  503  502  0.00000000000E+00  0.00000000000E+00  0.25091346028E+03  0.25091346028E+03  0.00000000000E+00 0. -1.
         21   -1    0    0  501  503 -0.00000000000E+00 -0.00000000000E+00 -0.33607136660E+03  0.33607136660E+03  0.00000000000E+00 0.  1.
         24    1    1    2    0    0 -0.13017101280E+03  0.22302514828E+02 -0.67061801099E+02  0.16854197062E+03  0.80419002446E+02 0.  0.
          1    1    1    2  501    0  0.20181033092E+02  0.17636485426E+03  0.44268287627E+02  0.18295222657E+03  0.00000000000E+00 0. -1.
         -2    1    1    2    0  502  0.10998997970E+03 -0.19866736909E+03 -0.62364392855E+02  0.23549062969E+03  0.00000000000E+00 0.  1.
<mgrwt>
<rscale>  2 0.27961204E+03</rscale>
<asrwt>0</asrwt>
<pdfrwt beam="1">  1       21 0.38602071E-01 0.27961204E+03</pdfrwt>
<pdfrwt beam="2">  1       21 0.51703287E-01 0.27961204E+03</pdfrwt>
<totfact> 0.22006118E+04</totfact>
</mgrwt>
</event>
<event>
 5    1  0.1281005E-004  0.4462973E+03  0.7546771E-02  0.1028832E+00
         21   -1    0    0  501  502  0.00000000000E+00  0.00000000000E+00  0.30468128176E+03  0.30468128176E+03  0.00000000000E+00 0. -1.
         21   -1    0    0  502  503 -0.00000000000E+00 -0.00000000000E+00 -0.70890598128E+03  0.70890598128E+03  0.00000000000E+00 0.  1.
         24    1    1    2    0    0 -0.48700009087E+02  0.36980730015E+03 -0.63388090683E+02  0.38680020181E+03  0.80419002446E+02 0. -1.
          1    1    1    2  501    0 -0.73121818031E+02  0.40101080360E+02 -0.11824455365E+03  0.14469509800E+03  0.00000000000E+00 0. -1.
         -2    1    1    2    0  503  0.12182182712E+03 -0.40990838051E+03 -0.22259205519E+03  0.48209196323E+03  0.00000000000E+00 0.  1.
<mgrwt>
<rscale>  2 0.44629730E+03</rscale>
<asrwt>0</asrwt>
<pdfrwt beam="1">  1       21 0.46874044E-01 0.44629730E+03</pdfrwt>
<pdfrwt beam="2">  1       21 0.10906246E+00 0.44629730E+03</pdfrwt>
<totfact> 0.25179387E+03</totfact>
</mgrwt>
</event>
<event>
 5    1  0.1281005E-004  0.1343407E+03  0.7546771E-02  0.1221153E+00
         21   -1    0    0  501  502  0.00000000000E+00  0.00000000000E+00  0.20226612853E+03  0.20226612853E+03  0.00000000000E+00 0.  1.
         21   -1    0    0  502  503 -0.00000000000E+00 -0.00000000000E+00 -0.95274355743E+02  0.95274355743E+02  0.00000000000E+00 0.  1.
         24    1    1    2    0    0 -0.67563593503E+02 -0.55162497302E+01  0.11689434845E+02  0.10582592792E+03  0.80419002446E+02 0.  1.
          1    1    1    2  501    0 -0.43348732061E+02 -0.22875635003E+02  0.45446818051E+02  0.66841757301E+02  0.00000000000E+00 0. -1.
         -2    1    1    2    0  503  0.11091232556E+03  0.28391884733E+02  0.49855519895E+02  0.12487279906E+03  0.00000000000E+00 0.  1.
<mgrwt>
<rscale>  2 0.13434066E+03</rscale>
<asrwt>0</asrwt>
<pdfrwt beam="1">  1       21 0.31117866E-01 0.13434066E+03</pdfrwt>
<pdfrwt beam="2">  1       21 0.14657593E-01 0.13434066E+03</pdfrwt>
<totfact> 0.40976697E+05</totfact>
</mgrwt>
</event>
<event>
 5    1  0.1281005E-004  0.1098638E+03  0.7546771E-02  0.1260822E+00
         21   -1    0    0  501  502  0.00000000000E+00  0.00000000000E+00  0.53104120364E+03  0.53104120364E+03  0.00000000000E+00 0.  1.
         21   -1    0    0  502  503 -0.00000000000E+00 -0.00000000000E+00 -0.44014733045E+02  0.44014733045E+02  0.00000000000E+00 0.  1.
         24    1    1    2    0    0 -0.45322883513E+01  0.43838953683E+02  0.40765335035E+03  0.41784071786E+03  0.80419002446E+02 0.  1.
          1    1    1    2  501    0  0.38106705683E+02  0.28955471843E+02  0.56100247203E+02  0.73741291716E+02  0.00000000000E+00 0. -1.
         -2    1    1    2    0  503 -0.33574417332E+02 -0.72794425526E+02  0.23272873041E+02  0.83473927106E+02  0.00000000000E+00 0.  1.
<mgrwt>
<rscale>  2 0.10986377E+03</rscale>
<asrwt>0</asrwt>
<pdfrwt beam="1">  1       21 0.81698642E-01 0.10986377E+03</pdfrwt>
<pdfrwt beam="2">  1       21 0.67714978E-02 0.10986377E+03</pdfrwt>
<totfact> 0.21521523E+05</totfact>
</mgrwt>
</event>
<event>
 5    1  0.1281005E-004  0.1149892E+03  0.7546771E-02  0.1251600E+00
         21   -1    0    0  501  502  0.00000000000E+00  0.00000000000E+00  0.38340086797E+02  0.38340086797E+02  0.00000000000E+00 0.  1.
         21   -1    0    0  502  503 -0.00000000000E+00 -0.00000000000E+00 -0.36410100726E+03  0.36410100726E+03  0.00000000000E+00 0.  1.
         24    1    1    2    0    0  0.34161887904E+02  0.33566066737E+02 -0.88743422417E+02  0.12898188399E+03  0.80419002446E+02 0.  1.
          1    1    1    2  501    0  0.49845505271E+01  0.46758068938E+02 -0.79936683048E+02  0.92741770802E+02  0.00000000000E+00 0. -1.
         -2    1    1    2    0  503 -0.39146438431E+02 -0.80324135675E+02 -0.15708081500E+03  0.18071743927E+03  0.00000000000E+00 0.  1.
<mgrwt>
<rscale>  2 0.11498919E+03</rscale>
<asrwt>0</asrwt>
<pdfrwt beam="1">  1       21 0.58984746E-02 0.11498919E+03</pdfrwt>
<pdfrwt beam="2">  1       21 0.56015542E-01 0.11498919E+03</pdfrwt>
<totfact> 0.61391458E+05</totfact>
</mgrwt>
</event>
<event>
 5    1  0.1281005E-004  0.3120642E+03  0.7546771E-02  0.1079361E+00
         21   -1    0    0  501  502  0.00000000000E+00  0.00000000000E+00  0.20497682620E+03  0.20497682620E+03  0.00000000000E+00 0.  1.
         21   -1    0    0  502  503 -0.00000000000E+00 -0.00000000000E+00 -0.49094476010E+03  0.49094476010E+03  0.00000000000E+00 0. -1.
         24    1    1    2    0    0  0.10783257143E+02  0.85861483964E+02 -0.81538449460E+01  0.11841526171E+03  0.80419002446E+02 0.  1.
          1    1    1    2  501    0  0.17748514762E+02  0.20900164242E+03 -0.12497017463E+03  0.24416027699E+03  0.00000000000E+00 0. -1.
         -2    1    1    2    0  503 -0.28531771904E+02 -0.29486312639E+03 -0.15284391432E+03  0.33334604761E+03  0.00000000000E+00 0.  1.
<mgrwt>
<rscale>  2 0.31206421E+03</rscale>
<asrwt>0</asrwt>
<pdfrwt beam="1">  1       21 0.31534896E-01 0.31206421E+03</pdfrwt>
<pdfrwt beam="2">  1       21 0.75529963E-01 0.31206421E+03</pdfrwt>
<totfact> 0.14218944E+04</totfact>
</mgrwt>
</event>
<event>
 5    1  0.1281005E-004  0.9729715E+02  0.7546771E-02  0.1286085E+00
         21   -1    0    0  501  502  0.00000000000E+00  0.00000000000E+00  0.19995524013E+03  0.19995524013E+03  0.00000000000E+00 0. -1.
         21   -1    0    0  502  503 -0.00000000000E+00 -0.00000000000E+00 -0.47832793111E+02  0.47832793111E+02  0.00000000000E+00 0.  1.
         24    1    1    2    0    0 -0.18343599944E+01 -0.22776864272E+02  0.69054039991E+02  0.10843351334E+03  0.80419002446E+02 0.  1.
          1    1    1    2  501    0  0.53798940974E+02 -0.10864574610E+01  0.31486954912E+02  0.62345286665E+02  0.00000000000E+00 0. -1.
         -2    1    1    2    0  503 -0.51964580979E+02  0.23863321733E+02  0.51581452112E+02  0.77009233229E+02  0.00000000000E+00 0.  1.
<mgrwt>
<rscale>  2 0.97297147E+02</rscale>
<asrwt>0</asrwt>
<pdfrwt beam="1">  1       21 0.30762344E-01 0.97297147E+02</pdfrwt>
<pdfrwt beam="2">  1       21 0.73588913E-02 0.97297147E+02</pdfrwt>
<totfact> 0.13965989E+06</totfact>
</mgrwt>
</event>
<event>
 5    1  0.1281005E-004  0.1180948E+03  0.7546771E-02  0.1246273E+00
         21   -1    0    0  501  502  0.00000000000E+00  0.00000000000E+00  0.68104388447E+02  0.68104388447E+02  0.00000000000E+00 0. -1.
         21   -1    0    0  502  503 -0.00000000000E+00 -0.00000000000E+00 -0.20519291486E+03  0.20519291486E+03  0.00000000000E+00 0.  1.
         24    1    1    2    0    0  0.71414703074E+02 -0.66029901258E+01 -0.56486760289E+02  0.12166194695E+03  0.80419002446E+02 0.  0.
          1    1    1    2  501    0  0.28003584540E+02  0.75853922715E+01 -0.17750225341E+02  0.34011901191E+02  0.00000000000E+00 0. -1.
         -2    1    1    2    0  503 -0.99418287614E+02 -0.98240214574E+00 -0.62851540786E+02  0.11762345517E+03  0.00000000000E+00 0.  1.
<mgrwt>
<rscale>  2 0.11809482E+03</rscale>
<asrwt>0</asrwt>
<pdfrwt beam="1">  1       21 0.10477598E-01 0.11809482E+03</pdfrwt>
<pdfrwt beam="2">  1       21 0.31568140E-01 0.11809482E+03</pdfrwt>
<totfact> 0.72385161E+05</totfact>
</mgrwt>
</event>
<event>
 5    1  0.1281005E-004  0.9697475E+02  0.7546771E-02  0.1286789E+00
         21   -1    0    0  503  502  0.00000000000E+00  0.00000000000E+00  0.76492673349E+02  0.76492673349E+02  0.00000000000E+00 0. -1.
         21   -1    0    0  501  503 -0.00000000000E+00 -0.00000000000E+00 -0.12527449593E+03  0.12527449593E+03  0.00000000000E+00 0.  1.
         24    1    1    2    0    0 -0.12182744198E+02  0.69904942464E+01 -0.81208828347E+01  0.82039325682E+02  0.80419002446E+02 0. -1.
          1    1    1    2  501    0  0.61910650660E+02 -0.89080766644E+01 -0.26962156569E+02  0.68111969447E+02  0.00000000000E+00 0. -1.
         -2    1    1    2    0  502 -0.49727906462E+02  0.19175824180E+01 -0.13698783174E+02  0.51615874147E+02  0.00000000000E+00 0.  1.
<mgrwt>
<rscale>  2 0.96974755E+02</rscale>
<asrwt>0</asrwt>
<pdfrwt beam="1">  1       21 0.11768104E-01 0.96974755E+02</pdfrwt>
<pdfrwt beam="2">  1       21 0.19272999E-01 0.96974755E+02</pdfrwt>
<totfact> 0.14881378E+06</totfact>
</mgrwt>
</event>
<event>
 5    1  0.1281005E-004  0.1693999E+03  0.7546771E-02  0.1178475E+00
         21   -1    0    0  501  502  0.00000000000E+00  0.00000000000E+00  0.91897307128E+02  0.91897307128E+02  0.00000000000E+00 0. -1.
         21   -1    0    0  502  503 -0.00000000000E+00 -0.00000000000E+00 -0.32568021910E+03  0.32568021910E+03  0.00000000000E+00 0.  1.
         24    1    1    2    0    0  0.11278849447E+03 -0.91889865667E+02 -0.72451950807E+02  0.18133254817E+03  0.80419002446E+02 0. -1.
          1    1    1    2  501    0  0.16624381846E+02  0.11659626664E+02 -0.18170341029E+02  0.27248454246E+02  0.00000000000E+00 0. -1.
         -2    1    1    2    0  503 -0.12941287631E+03  0.80230239003E+02 -0.14316062014E+03  0.20899652381E+03  0.00000000000E+00 0.  1.
<mgrwt>
<rscale>  2 0.16939991E+03</rscale>
<asrwt>0</asrwt>
<pdfrwt beam="1">  1       21 0.14138047E-01 0.16939991E+03</pdfrwt>
<pdfrwt beam="2">  1       21 0.50104648E-01 0.16939991E+03</pdfrwt>
<totfact> 0.16695026E+05</totfact>
</mgrwt>
</event>
<event>
 5    1  0.1281005E-004  0.3089845E+03  0.7546771E-02  0.1080834E+00
         21   -1    0    0  503  502  0.00000000000E+00  0.00000000000E+00  0.42420473779E+03  0.42420473779E+03  0.00000000000E+00 0.  1.
         21   -1    0    0  501  503 -0.00000000000E+00 -0.00000000000E+00 -0.22755621526E+03  0.22755621526E+03  0.00000000000E+00 0.  1.
         24    1    1    2    0    0  0.63905484235E+02  0.26267128880E+03  0.62517570662E+02  0.28888713968E+03  0.80419002446E+02 0.  1.
          1    1    1    2  501    0  0.36025892904E+02  0.16341455108E+02  0.60740791888E+01  0.40022525565E+02  0.00000000000E+00 0. -1.
         -2    1    1    2    0  502 -0.99931377139E+02 -0.27901274391E+03  0.12805687268E+03  0.32285128781E+03  0.00000000000E+00 0.  1.
<mgrwt>
<rscale>  2 0.30898448E+03</rscale>
<asrwt>0</asrwt>
<pdfrwt beam="1">  1       21 0.65262267E-01 0.30898448E+03</pdfrwt>
<pdfrwt beam="2">  1       21 0.35008649E-01 0.30898448E+03</pdfrwt>
<totfact> 0.16018128E+04</totfact>
</mgrwt>
</event>
<event>
 5    1  0.1281005E-004  0.2144018E+03  0.7546771E-02  0.1138127E+00
         21   -1    0    0  503  502  0.00000000000E+00  0.00000000000E+00  0.34952662555E+03  0.34952662555E+03  0.00000000000E+00 0. -1.
         21   -1    0    0  501  503 -0.00000000000E+00 -0.00000000000E+00 -0.13652783588E+03  0.13652783588E+03  0.00000000000E+00 0.  1.
         24    1    1    2    0    0 -0.11846172431E+03  0.15862208706E+02  0.32534622055E+02  0.14768380879E+03  0.80419002446E+02 0.  1.
          1    1    1    2  501    0  0.19934021758E+03  0.10678789466E+02  0.14189794214E+03  0.24491954776E+03  0.00000000000E+00 0. -1.
         -2    1    1    2    0  502 -0.80878493272E+02 -0.26540998173E+02  0.38566225471E+02  0.93451104890E+02  0.00000000000E+00 0.  1.
<mgrwt>
<rscale>  2 0.21440181E+03</rscale>
<asrwt>0</asrwt>
<pdfrwt beam="1">  1       21 0.53773327E-01 0.21440181E+03</pdfrwt>
<pdfrwt beam="2">  1       21 0.21004283E-01 0.21440181E+03</pdfrwt>
<totfact> 0.68232045E+04</totfact>
</mgrwt>
</event>
<event>
 5    1  0.1281005E-004  0.1304063E+03  0.7546771E-02  0.1226854E+00
         21   -1    0    0  501  502  0.00000000000E+00  0.00000000000E+00  0.12539377814E+03  0.12539377814E+03  0.00000000000E+00 0. -1.
         21   -1    0    0  502  503 -0.00000000000E+00 -0.00000000000E+00 -0.18421583125E+03  0.18421583125E+03  0.00000000000E+00 0.  1.
         24    1    1    2    0    0 -0.31761445718E+01 -0.30798399902E+02 -0.49330997823E+02  0.99294474325E+02  0.80419002446E+02 0.  1.
          1    1    1    2  501    0  0.87514139040E+02  0.17787944656E+02  0.53631828836E+02  0.10417057440E+03  0.00000000000E+00 0. -1.
         -2    1    1    2    0  503 -0.84337994468E+02  0.13010455246E+02 -0.63122884122E+02  0.10614456065E+03  0.00000000000E+00 0.  1.
<mgrwt>
<rscale>  2 0.13040629E+03</rscale>
<asrwt>0</asrwt>
<pdfrwt beam="1">  1       21 0.19291351E-01 0.13040629E+03</pdfrwt>
<pdfrwt beam="2">  1       21 0.28340897E-01 0.13040629E+03</pdfrwt>
<totfact> 0.29769713E+05</totfact>
</mgrwt>
</event>
<event>
 5    1  0.1281005E-004  0.8466877E+02  0.7546771E-02  0.1316301E+00
         21   -1    0    0  501  502  0.00000000000E+00  0.00000000000E+00  0.14575210813E+03  0.14575210813E+03  0.00000000000E+00 0.  1.
         21   -1    0    0  502  503 -0.00000000000E+00 -0.00000000000E+00 -0.49734997372E+02  0.49734997372E+02  0.00000000000E+00 0. -1.
         24    1    1    2    0    0 -0.26579839828E+02 -0.30704371252E+02  0.60873618339E+02  0.10872929533E+03  0.80419002446E+02 0.  1.
          1    1    1    2  501    0  0.49124551946E+02  0.13674563829E+02  0.20796506789E+02  0.55070046254E+02  0.00000000000E+00 0. -1.
         -2    1    1    2    0  503 -0.22544712119E+02  0.17029807424E+02  0.14346985633E+02  0.31687763919E+02  0.00000000000E+00 0.  1.
<mgrwt>
<rscale>  2 0.84668769E+02</rscale>
<asrwt>0</asrwt>
<pdfrwt beam="1">  1       21 0.22423401E-01 0.84668769E+02</pdfrwt>
<pdfrwt beam="2">  1       21 0.76515381E-02 0.84668769E+02</pdfrwt>
<totfact> 0.23580121E+06</totfact>
</mgrwt>
</event>
<event>
 5    1  0.1281005E-004  0.1405930E+03  0.7546771E-02  0.1212533E+00
         21   -1    0    0  501  502  0.00000000000E+00  0.00000000000E+00  0.28250325602E+02  0.28250325602E+02  0.00000000000E+00 0. -1.
         21   -1    0    0  502  503 -0.00000000000E+00 -0.00000000000E+00 -0.77542572950E+03  0.77542572950E+03  0.00000000000E+00 0.  1.
         24    1    1    2    0    0 -0.27449106631E+01  0.90756766761E+01 -0.11605129222E+03  0.14150979055E+03  0.80419002446E+02 0. -1.
          1    1    1    2  501    0 -0.97965045788E+02  0.70448899473E+01 -0.32268007723E+03  0.33729692099E+03  0.00000000000E+00 0. -1.
         -2    1    1    2    0  503  0.10070995645E+03 -0.16120566623E+02 -0.30844403445E+03  0.32486934355E+03  0.00000000000E+00 0.  1.
<mgrwt>
<rscale>  2 0.14059303E+03</rscale>
<asrwt>0</asrwt>
<pdfrwt beam="1">  1       21 0.43462036E-02 0.14059303E+03</pdfrwt>
<pdfrwt beam="2">  1       21 0.11929628E+00 0.14059303E+03</pdfrwt>
<totfact> 0.18606537E+05</totfact>
</mgrwt>
</event>
<event>
 5    1  0.1281005E-004  0.1683265E+03  0.7546771E-02  0.1179604E+00
         21   -1    0    0  501  502  0.00000000000E+00  0.00000000000E+00  0.34464002332E+03  0.34464002332E+03  0.00000000000E+00 0. -1.
         21   -1    0    0  502  503 -0.00000000000E+00 -0.00000000000E+00 -0.86413992896E+02  0.86413992896E+02  0.00000000000E+00 0.  1.
         24    1    1    2    0    0  0.73580254989E+02 -0.10311614430E+03  0.70469620332E+02  0.16577145859E+03  0.80419002446E+02 0.  1.
          1    1    1    2  501    0 -0.96883763105E+02  0.12257889152E+03  0.14757222476E+03  0.21491768127E+03  0.00000000000E+00 0. -1.
         -2    1    1    2    0  503  0.23303508116E+02 -0.19462747226E+02  0.40184185329E+02  0.50364876359E+02  0.00000000000E+00 0.  1.
<mgrwt>
<rscale>  2 0.16832646E+03</rscale>
<asrwt>0</asrwt>
<pdfrwt beam="1">  1       21 0.53021541E-01 0.16832646E+03</pdfrwt>
<pdfrwt beam="2">  1       21 0.13294461E-01 0.16832646E+03</pdfrwt>
<totfact> 0.16580613E+05</totfact>
</mgrwt>
</event>
<event>
 5    1  0.1281005E-004  0.1222105E+03  0.7546771E-02  0.1239494E+00
         21   -1    0    0  501  502  0.00000000000E+00  0.00000000000E+00  0.61569528387E+02  0.61569528387E+02  0.00000000000E+00 0. -1.
         21   -1    0    0  502  503 -0.00000000000E+00 -0.00000000000E+00 -0.24483344524E+03  0.24483344524E+03  0.00000000000E+00 0.  1.
         24    1    1    2    0    0 -0.17541893363E+02  0.38387701958E+02 -0.81865067141E+02  0.12227198721E+03  0.80419002446E+02 0.  1.
          1    1    1    2  501    0 -0.40408654634E+02  0.39507062700E+02 -0.34174266762E+02  0.66042016029E+02  0.00000000000E+00 0. -1.
         -2    1    1    2    0  503  0.57950547997E+02 -0.77894764657E+02 -0.67224582950E+02  0.11808897039E+03  0.00000000000E+00 0.  1.
<mgrwt>
<rscale>  2 0.12221047E+03</rscale>
<asrwt>0</asrwt>
<pdfrwt beam="1">  1       21 0.94722350E-02 0.12221047E+03</pdfrwt>
<pdfrwt beam="2">  1       21 0.37666684E-01 0.12221047E+03</pdfrwt>
<totfact> 0.61091513E+05</totfact>
</mgrwt>
</event>
<event>
 5    1  0.1281005E-004  0.9730409E+02  0.7546771E-02  0.1286069E+00
         21   -1    0    0  501  502  0.00000000000E+00  0.00000000000E+00  0.31517784181E+03  0.31517784181E+03  0.00000000000E+00 0.  1.
         21   -1    0    0  502  503 -0.00000000000E+00 -0.00000000000E+00 -0.34599426866E+02  0.34599426866E+02  0.00000000000E+00 0. -1.
         24    1    1    2    0    0 -0.26949090808E+02 -0.16317052547E+02  0.86078831102E+02  0.12193966056E+03  0.80419002446E+02 0.  0.
          1    1    1    2  501    0  0.58835907706E+02  0.37670531710E+02  0.16579718162E+03  0.17991508671E+03  0.00000000000E+00 0. -1.
         -2    1    1    2    0  503 -0.31886816897E+02 -0.21353479163E+02  0.28702402228E+02  0.47922521405E+02  0.00000000000E+00 0.  1.
<mgrwt>
<rscale>  2 0.97304093E+02</rscale>
<asrwt>0</asrwt>
<pdfrwt beam="1">  1       21 0.48488897E-01 0.97304093E+02</pdfrwt>
<pdfrwt beam="2">  1       21 0.53229890E-02 0.97304093E+02</pdfrwt>
<totfact> 0.98192309E+05</totfact>
</mgrwt>
</event>
<event>
 5    1  0.1281005E-004  0.2043240E+03  0.7546771E-02  0.1146141E+00
         21   -1    0    0  501  502  0.00000000000E+00  0.00000000000E+00  0.47150336074E+03  0.47150336074E+03  0.00000000000E+00 0. -1.
         21   -1    0    0  502  503 -0.00000000000E+00 -0.00000000000E+00 -0.92811500318E+02  0.92811500318E+02  0.00000000000E+00 0.  1.
         24    1    1    2    0    0  0.53206662983E+02 -0.42979189743E+01  0.54233613308E+02  0.11071549964E+03  0.80419002446E+02 0.  1.
          1    1    1    2  501    0  0.12623752159E+03  0.32805986507E+02  0.17543437873E+03  0.21860778999E+03  0.00000000000E+00 0. -1.
         -2    1    1    2    0  503 -0.17944418457E+03 -0.28508067532E+02  0.14902386838E+03  0.23499157142E+03  0.00000000000E+00 0.  1.
<mgrwt>
<rscale>  2 0.20432397E+03</rscale>
<asrwt>0</asrwt>
<pdfrwt beam="1">  1       21 0.72538977E-01 0.20432397E+03</pdfrwt>
<pdfrwt beam="2">  1       21 0.14278693E-01 0.20432397E+03</pdfrwt>
<totfact> 0.73086759E+04</totfact>
</mgrwt>
</event>
<event>
 5    1  0.1281005E-004  0.2795852E+03  0.7546771E-02  0.1095916E+00
         21   -1    0    0  503  502  0.00000000000E+00  0.00000000000E+00  0.90942497127E+03  0.90942497127E+03  0.00000000000E+00 0.  1.
         21   -1    0    0  501  503 -0.00000000000E+00 -0.00000000000E+00 -0.89242505099E+02  0.89242505099E+02  0.00000000000E+00 0. -1.
         24    1    1    2    0    0  0.89238774187E+02 -0.58228421211E+02  0.16519874464E+03  0.21239573687E+03  0.80419002446E+02 0.  1.
          1    1    1    2  501    0 -0.25212052800E+03  0.72030964134E+02  0.32140856145E+03  0.41479715983E+03  0.00000000000E+00 0. -1.
         -2    1    1    2    0  502  0.16288175381E+03 -0.13802542922E+02  0.33357516008E+03  0.37147457967E+03  0.00000000000E+00 0.  1.
<mgrwt>
<rscale>  2 0.27958520E+03</rscale>
<asrwt>0</asrwt>
<pdfrwt beam="1">  1       21 0.13991153E+00 0.27958520E+03</pdfrwt>
<pdfrwt beam="2">  1       21 0.13729617E-01 0.27958520E+03</pdfrwt>
<totfact> 0.15686266E+04</totfact>
</mgrwt>
</event>
<event>
 5    1  0.1281005E-004  0.1810805E+03  0.7546771E-02  0.1166761E+00
         21   -1    0    0  501  502  0.00000000000E+00  0.00000000000E+00  0.15543175030E+04  0.15543175030E+04  0.00000000000E+00 0. -1.
         21   -1    0    0  502  503 -0.00000000000E+00 -0.00000000000E+00 -0.21103006484E+02  0.21103006484E+02  0.00000000000E+00 0.  1.
         24    1    1    2    0    0  0.40773036625E+02 -0.49343502303E+02  0.42527061664E+03  0.43751518267E+03  0.80419002446E+02 0.  0.
          1    1    1    2  501    0 -0.11216678754E+03  0.11624447302E+03  0.68257794399E+03  0.70143197486E+03  0.00000000000E+00 0. -1.
         -2    1    1    2    0  503  0.71393750917E+02 -0.66900970717E+02  0.42536593588E+03  0.43647335195E+03  0.00000000000E+00 0.  1.
<mgrwt>
<rscale>  2 0.18108053E+03</rscale>
<asrwt>0</asrwt>
<pdfrwt beam="1">  1       21 0.23912568E+00 0.18108053E+03</pdfrwt>
<pdfrwt beam="2">  1       21 0.32466176E-02 0.18108053E+03</pdfrwt>
<totfact> 0.43182674E+04</totfact>
</mgrwt>
</event>
<event>
 5    1  0.1281005E-004  0.1729439E+03  0.7546771E-02  0.1174812E+00
         21   -1    0    0  503  502  0.00000000000E+00  0.00000000000E+00  0.15854753164E+03  0.15854753164E+03  0.00000000000E+00 0.  1.
         21   -1    0    0  501  503 -0.00000000000E+00 -0.00000000000E+00 -0.19832095060E+03  0.19832095060E+03  0.00000000000E+00 0. -1.
         24    1    1    2    0    0 -0.15194019197E+02 -0.10675137416E+03 -0.41425122358E+02  0.14074789810E+03  0.80419002446E+02 0. -1.
          1    1    1    2  501    0  0.48412058022E+02 -0.38824214181E+02 -0.20091947062E+02  0.65228316745E+02  0.00000000000E+00 0. -1.
         -2    1    1    2    0  502 -0.33218038824E+02  0.14557558834E+03  0.21743650465E+02  0.15089226739E+03  0.00000000000E+00 0.  1.
<mgrwt>
<rscale>  2 0.17294395E+03</rscale>
<asrwt>0</asrwt>
<pdfrwt beam="1">  1       21 0.24391928E-01 0.17294395E+03</pdfrwt>
<pdfrwt beam="2">  1       21 0.30510916E-01 0.17294395E+03</pdfrwt>
<totfact> 0.16469417E+05</totfact>
</mgrwt>
</event>
<event>
 5    1  0.1281005E-004  0.8383562E+02  0.7546771E-02  0.1318506E+00
         21   -1    0    0  503  502  0.00000000000E+00  0.00000000000E+00  0.29538166693E+02  0.29538166693E+02  0.00000000000E+00 0.  1.
         21   -1    0    0  501  503 -0.00000000000E+00 -0.00000000000E+00 -0.25706332983E+03  0.25706332983E+03  0.00000000000E+00 0. -1.
         24    1    1    2    0    0  0.30009710355E+02  0.21537774348E+02 -0.80639143625E+02  0.11972612864E+03  0.80419002446E+02 0.  1.
          1    1    1    2  501    0 -0.20912645475E+02 -0.47373452830E+02 -0.94241869910E+02  0.10753191535E+03  0.00000000000E+00 0. -1.
         -2    1    1    2    0  502 -0.90970648807E+01  0.25835678483E+02 -0.52644149603E+02  0.59343452541E+02  0.00000000000E+00 0.  1.
<mgrwt>
<rscale>  2 0.83835619E+02</rscale>
<asrwt>0</asrwt>
<pdfrwt beam="1">  1       21 0.45443334E-02 0.83835619E+02</pdfrwt>
<pdfrwt beam="2">  1       21 0.39548204E-01 0.83835619E+02</pdfrwt>
<totfact> 0.19143417E+06</totfact>
</mgrwt>
</event>
<event>
 5    1  0.1281005E-004  0.1297769E+03  0.7546771E-02  0.1227787E+00
         21   -1    0    0  503  502  0.00000000000E+00  0.00000000000E+00  0.69542964951E+02  0.69542964951E+02  0.00000000000E+00 0. -1.
         21   -1    0    0  501  503 -0.00000000000E+00 -0.00000000000E+00 -0.24638416982E+03  0.24638416982E+03  0.00000000000E+00 0. -1.
         24    1    1    2    0    0  0.48968881687E+02 -0.13503522343E+02 -0.55326448004E+02  0.11003875814E+03  0.80419002446E+02 0. -1.
          1    1    1    2  501    0 -0.10459982016E+03 -0.77411357993E+01 -0.62738612798E+02  0.12221776097E+03  0.00000000000E+00 0. -1.
         -2    1    1    2    0  502  0.55630938469E+02  0.21244658143E+02 -0.58776144066E+02  0.83670615665E+02  0.00000000000E+00 0.  1.
<mgrwt>
<rscale>  2 0.12977687E+03</rscale>
<asrwt>0</asrwt>
<pdfrwt beam="1">  1       21 0.10698918E-01 0.12977687E+03</pdfrwt>
<pdfrwt beam="2">  1       21 0.37905257E-01 0.12977687E+03</pdfrwt>
<totfact> 0.48737773E+05</totfact>
</mgrwt>
</event>
<event>
 5    1  0.1281005E-004  0.1245790E+03  0.7546771E-02  0.1235729E+00
         21   -1    0    0  501  502  0.00000000000E+00  0.00000000000E+00  0.77974640694E+01  0.77974640694E+01  0.00000000000E+00 0. -1.
         21   -1    0    0  502  503 -0.00000000000E+00 -0.00000000000E+00 -0.19949404705E+04  0.19949404705E+04  0.00000000000E+00 0.  1.
         24    1    1    2    0    0  0.12222044306E+02 -0.37543661967E+02 -0.73843754335E+03  0.74385222075E+03  0.80419002446E+02 0.  1.
          1    1    1    2  501    0  0.66488791166E+02 -0.10561472649E+02 -0.49557843839E+03  0.50013027569E+03  0.00000000000E+00 0. -1.
         -2    1    1    2    0  503 -0.78710835472E+02  0.48105134616E+02 -0.75312702470E+03  0.75875543816E+03  0.00000000000E+00 0.  1.
<mgrwt>
<rscale>  2 0.12457898E+03</rscale>
<asrwt>0</asrwt>
<pdfrwt beam="1">  1       21 0.11996087E-02 0.12457898E+03</pdfrwt>
<pdfrwt beam="2">  1       21 0.30691421E+00 0.12457898E+03</pdfrwt>
<totfact> 0.93468957E+04</totfact>
</mgrwt>
</event>
<event>
 5    1  0.1281005E-004  0.2004362E+03  0.7546771E-02  0.1149371E+00
         21   -1    0    0  503  502  0.00000000000E+00  0.00000000000E+00  0.15399208058E+03  0.15399208058E+03  0.00000000000E+00 0. -1.
         21   -1    0    0  501  503 -0.00000000000E+00 -0.00000000000E+00 -0.32983782627E+03  0.32983782627E+03  0.00000000000E+00 0.  1.
         24    1    1    2    0    0 -0.17911834918E+01 -0.73948064758E+01 -0.13848235528E+03  0.16031989951E+03  0.80419002446E+02 0.  1.
          1    1    1    2  501    0 -0.12652014957E+03 -0.93124875574E+02 -0.40844548171E+01  0.15715048033E+03  0.00000000000E+00 0. -1.
         -2    1    1    2    0  502  0.12831133306E+03  0.10051968205E+03 -0.33278935598E+02  0.16635952701E+03  0.00000000000E+00 0.  1.
<mgrwt>
<rscale>  2 0.20043624E+03</rscale>
<asrwt>0</asrwt>
<pdfrwt beam="1">  1       21 0.23691090E-01 0.20043624E+03</pdfrwt>
<pdfrwt beam="2">  1       21 0.50744280E-01 0.20043624E+03</pdfrwt>
<totfact> 0.61772537E+04</totfact>
</mgrwt>
</event>
<event>
 5    1  0.1281005E-004  0.1466629E+03  0.7546771E-02  0.1204635E+00
         21   -1    0    0  503  502  0.00000000000E+00  0.00000000000E+00  0.22036273576E+03  0.22036273576E+03  0.00000000000E+00 0. -1.
         21   -1    0    0  501  503 -0.00000000000E+00 -0.00000000000E+00 -0.10033491873E+03  0.10033491873E+03  0.00000000000E+00 0. -1.
         24    1    1    2    0    0 -0.11812213029E+02 -0.20759289771E+02  0.58971319029E+02  0.10254418029E+03  0.80419002446E+02 0. -1.
          1    1    1    2  501    0  0.51413069287E+01  0.11492158318E+03  0.33376474058E+02  0.11978060084E+03  0.00000000000E+00 0. -1.
         -2    1    1    2    0  502  0.66709061007E+01 -0.94162293407E+02  0.27680023939E+02  0.98372873360E+02  0.00000000000E+00 0.  1.
<mgrwt>
<rscale>  2 0.14666289E+03</rscale>
<asrwt>0</asrwt>
<pdfrwt beam="1">  1       21 0.33901959E-01 0.14666289E+03</pdfrwt>
<pdfrwt beam="2">  1       21 0.15436141E-01 0.14666289E+03</pdfrwt>
<totfact> 0.31514181E+05</totfact>
</mgrwt>
</event>
<event>
 5    1  0.1281005E-004  0.1741344E+03  0.7546771E-02  0.1173604E+00
         21   -1    0    0  501  502  0.00000000000E+00  0.00000000000E+00  0.46488178051E+02  0.46488178051E+02  0.00000000000E+00 0.  1.
         21   -1    0    0  502  503 -0.00000000000E+00 -0.00000000000E+00 -0.68407836308E+03  0.68407836308E+03  0.00000000000E+00 0. -1.
         24    1    1    2    0    0  0.94515675960E+02  0.65110303551E+02 -0.33496038592E+03  0.36309536037E+03  0.80419002446E+02 0. -1.
          1    1    1    2  501    0 -0.42010413069E+02  0.59540357326E+02 -0.11581461291E+03  0.13683184395E+03  0.00000000000E+00 0. -1.
         -2    1    1    2    0  503 -0.52505262890E+02 -0.12465066088E+03 -0.18681518620E+03  0.23063933681E+03  0.00000000000E+00 0.  1.
<mgrwt>
<rscale>  2 0.17413438E+03</rscale>
<asrwt>0</asrwt>
<pdfrwt beam="1">  1       21 0.71520282E-02 0.17413438E+03</pdfrwt>
<pdfrwt beam="2">  1       21 0.10524281E+00 0.17413438E+03</pdfrwt>
<totfact> 0.10671251E+05</totfact>
</mgrwt>
</event>
<event>
 5    1  0.1281005E-004  0.1510395E+03  0.7546771E-02  0.1199202E+00
         21   -1    0    0  501  502  0.00000000000E+00  0.00000000000E+00  0.14111285750E+04  0.14111285750E+04  0.00000000000E+00 0.  1.
         21   -1    0    0  502  503 -0.00000000000E+00 -0.00000000000E+00 -0.17196125351E+02  0.17196125351E+02  0.00000000000E+00 0. -1.
         24    1    1    2    0    0  0.23580064048E+01 -0.15500842701E+02  0.51966813006E+03  0.52608746200E+03  0.80419002446E+02 0.  1.
          1    1    1    2  501    0  0.61543927161E+02  0.98042937826E+02  0.38827905417E+03  0.40516749195E+03  0.00000000000E+00 0. -1.
         -2    1    1    2    0  503 -0.63901933566E+02 -0.82542095125E+02  0.48598526542E+03  0.49706974640E+03  0.00000000000E+00 0.  1.
<mgrwt>
<rscale>  2 0.15103947E+03</rscale>
<asrwt>0</asrwt>
<pdfrwt beam="1">  1       21 0.21709661E+00 0.15103947E+03</pdfrwt>
<pdfrwt beam="2">  1       21 0.26455589E-02 0.15103947E+03</pdfrwt>
<totfact> 0.83921859E+04</totfact>
</mgrwt>
</event>
<event>
 5    1  0.1281005E-004  0.7966363E+02  0.7546771E-02  0.1330009E+00
         21   -1    0    0  503  502  0.00000000000E+00  0.00000000000E+00  0.19250452155E+03  0.19250452155E+03  0.00000000000E+00 0.  1.
         21   -1    0    0  501  503 -0.00000000000E+00 -0.00000000000E+00 -0.35214039820E+02  0.35214039820E+02  0.00000000000E+00 0. -1.
         24    1    1    2    0    0  0.18465618118E+02  0.20824995895E+02  0.84406675069E+02  0.11985976079E+03  0.80419002446E+02 0.  1.
          1    1    1    2  501    0 -0.39250598028E+02 -0.31988635793E+02  0.29840857452E+02  0.58773795512E+02  0.00000000000E+00 0. -1.
         -2    1    1    2    0  502  0.20784979910E+02  0.11163639897E+02  0.43042949208E+02  0.49085005064E+02  0.00000000000E+00 0.  1.
<mgrwt>
<rscale>  2 0.79663635E+02</rscale>
<asrwt>0</asrwt>
<pdfrwt beam="1">  1       21 0.29616080E-01 0.79663635E+02</pdfrwt>
<pdfrwt beam="2">  1       21 0.54175447E-02 0.79663635E+02</pdfrwt>
<totfact> 0.24965682E+06</totfact>
</mgrwt>
</event>
<event>
 5    1  0.1281005E-004  0.1343020E+03  0.7546771E-02  0.1221208E+00
         21   -1    0    0  501  502  0.00000000000E+00  0.00000000000E+00  0.44395998845E+02  0.44395998845E+02  0.00000000000E+00 0. -1.
         21   -1    0    0  502  503 -0.00000000000E+00 -0.00000000000E+00 -0.43802732092E+03  0.43802732092E+03  0.00000000000E+00 0.  1.
         24    1    1    2    0    0 -0.57895718129E+02 -0.65947357312E+01 -0.92981626002E+02  0.13604485821E+03  0.80419002446E+02 0. -1.
          1    1    1    2  501    0 -0.55162048097E+02  0.10569929509E+02 -0.72395899634E+02  0.91628277535E+02  0.00000000000E+00 0. -1.
         -2    1    1    2    0  503  0.11305776623E+03 -0.39751937782E+01 -0.22825379644E+03  0.25475018402E+03  0.00000000000E+00 0.  1.
<mgrwt>
<rscale>  2 0.13430198E+03</rscale>
<asrwt>0</asrwt>
<pdfrwt beam="1">  1       21 0.68301536E-02 0.13430198E+03</pdfrwt>
<pdfrwt beam="2">  1       21 0.67388819E-01 0.13430198E+03</pdfrwt>
<totfact> 0.32200424E+05</totfact>
</mgrwt>
</event>
<event>
 5    1  0.1281005E-004  0.1684231E+03  0.7546771E-02  0.1179502E+00
         21   -1    0    0  503  502  0.00000000000E+00  0.00000000000E+00  0.14571039053E+02  0.14571039053E+02  0.00000000000E+00 0. -1.
         21   -1    0    0  501  503 -0.00000000000E+00 -0.00000000000E+00 -0.19596737356E+04  0.19596737356E+04  0.00000000000E+00 0.  1.
         24    1    1    2    0    0 -0.98146024546E+02  0.17785013689E+02 -0.67861975249E+03  0.69060910309E+03  0.80419002446E+02 0.  0.
          1    1    1    2  501    0 -0.50304293199E+02 -0.31954750933E+02 -0.39963588875E+03  0.40405503536E+03  0.00000000000E+00 0. -1.
         -2    1    1    2    0  502  0.14845031774E+03  0.14169737244E+02 -0.86684705529E+03  0.87958063619E+03  0.00000000000E+00 0.  1.
<mgrwt>
<rscale>  2 0.16842308E+03</rscale>
<asrwt>0</asrwt>
<pdfrwt beam="1">  1       21 0.22417002E-02 0.16842308E+03</pdfrwt>
<pdfrwt beam="2">  1       21 0.30148802E+00 0.16842308E+03</pdfrwt>
<totfact> 0.35029779E+04</totfact>
</mgrwt>
</event>
<event>
 5    1  0.1281005E-004  0.3515646E+03  0.7546771E-02  0.1061975E+00
         21   -1    0    0  503  502  0.00000000000E+00  0.00000000000E+00  0.27933595242E+03  0.27933595242E+03  0.00000000000E+00 0. -1.
         21   -1    0    0  501  503 -0.00000000000E+00 -0.00000000000E+00 -0.46529395064E+03  0.46529395064E+03  0.00000000000E+00 0.  1.
         24    1    1    2    0    0  0.10001547967E+03 -0.92916760795E+02  0.23228224587E+02  0.16013552692E+03  0.80419002446E+02 0.  1.
          1    1    1    2  501    0  0.23213096480E+02 -0.21332398154E+03 -0.64441506345E+02  0.22405061189E+03  0.00000000000E+00 0. -1.
         -2    1    1    2    0  502 -0.12322857615E+03  0.30624074233E+03 -0.14474471646E+03  0.36044376425E+03  0.00000000000E+00 0.  1.
<mgrwt>
<rscale>  2 0.35156459E+03</rscale>
<asrwt>0</asrwt>
<pdfrwt beam="1">  1       21 0.42974762E-01 0.35156459E+03</pdfrwt>
<pdfrwt beam="2">  1       21 0.71583684E-01 0.35156459E+03</pdfrwt>
<totfact> 0.84415728E+03</totfact>
</mgrwt>
</event>
<event>
 5    1  0.1281005E-004  0.2169043E+03  0.7546771E-02  0.1136212E+00
         21   -1    0    0  501  502  0.00000000000E+00  0.00000000000E+00  0.49861194942E+02  0.49861194942E+02  0.00000000000E+00 0. -1.
         21   -1    0    0  502  503 -0.00000000000E+00 -0.00000000000E+00 -0.10781327600E+04  0.10781327600E+04  0.00000000000E+00 0. -1.
         24    1    1    2    0    0  0.42636059159E+02  0.98016440323E+02 -0.35924442440E+03  0.38333905167E+03  0.80419002446E+02 0. -1.
          1    1    1    2  501    0 -0.11040155063E+03 -0.16902864876E+03 -0.57222044096E+03  0.60679108393E+03  0.00000000000E+00 0. -1.
         -2    1    1    2    0  503  0.67765491475E+02  0.71012208436E+02 -0.96806699730E+02  0.13786381938E+03  0.00000000000E+00 0.  1.
<mgrwt>
<rscale>  2 0.21690427E+03</rscale>
<asrwt>0</asrwt>
<pdfrwt beam="1">  1       21 0.76709539E-02 0.21690427E+03</pdfrwt>
<pdfrwt beam="2">  1       21 0.16586656E+00 0.21690427E+03</pdfrwt>
<totfact> 0.29015052E+04</totfact>
</mgrwt>
</event>
<event>
 5    1  0.1281005E-004  0.1053196E+03  0.7546771E-02  0.1269491E+00
         21   -1    0    0  501  502  0.00000000000E+00  0.00000000000E+00  0.29759607608E+03  0.29759607608E+03  0.00000000000E+00 0. -1.
         21   -1    0    0  502  503 -0.00000000000E+00 -0.00000000000E+00 -0.42005127851E+02  0.42005127851E+02  0.00000000000E+00 0.  1.
         24    1    1    2    0    0  0.13705313701E+02 -0.26095070228E+01  0.92663459269E+02  0.12348432204E+03  0.80419002446E+02 0.  1.
          1    1    1    2  501    0  0.18997465953E+02 -0.57517654756E+02  0.12241180783E+03  0.13657904312E+03  0.00000000000E+00 0. -1.
         -2    1    1    2    0  503 -0.32702779654E+02  0.60127161778E+02  0.40515681128E+02  0.79537838781E+02  0.00000000000E+00 0.  1.
<mgrwt>
<rscale>  2 0.10531962E+03</rscale>
<asrwt>0</asrwt>
<pdfrwt beam="1">  1       21 0.45784010E-01 0.10531962E+03</pdfrwt>
<pdfrwt beam="2">  1       21 0.64623275E-02 0.10531962E+03</pdfrwt>
<totfact> 0.79666443E+05</totfact>
</mgrwt>
</event>
<event>
 5    1  0.1281005E-004  0.1567584E+03  0.7546771E-02  0.1192406E+00
         21   -1    0    0  503  502  0.00000000000E+00  0.00000000000E+00  0.16339223286E+03  0.16339223286E+03  0.00000000000E+00 0.  1.
         21   -1    0    0  501  503 -0.00000000000E+00 -0.00000000000E+00 -0.19044047093E+03  0.19044047093E+03  0.00000000000E+00 0. -1.
         24    1    1    2    0    0 -0.29108128449E+02  0.38991573668E+00 -0.23857832511E+01  0.85559003572E+02  0.80419002446E+02 0. -1.
          1    1    1    2  501    0  0.55896030613E+02  0.10516135321E+03 -0.82588746077E+02  0.14492818024E+03  0.00000000000E+00 0. -1.
         -2    1    1    2    0  502 -0.26787902164E+02 -0.10555126895E+03  0.57926291263E+02  0.12334551998E+03  0.00000000000E+00 0.  1.
<mgrwt>
<rscale>  2 0.15675839E+03</rscale>
<asrwt>0</asrwt>
<pdfrwt beam="1">  1       21 0.25137267E-01 0.15675839E+03</pdfrwt>
<pdfrwt beam="2">  1       21 0.29298534E-01 0.15675839E+03</pdfrwt>
<totfact> 0.16914893E+05</totfact>
</mgrwt>
</event>
<event>
 5    1  0.1281005E-004  0.1899697E+03  0.7546771E-02  0.1158489E+00
         21   -1    0    0  501  502  0.00000000000E+00  0.00000000000E+00  0.78000941661E+03  0.78000941661E+03  0.00000000000E+00 0.  1.
         21   -1    0    0  502  503 -0.00000000000E+00 -0.00000000000E+00 -0.54058676761E+02  0.54058676761E+02  0.00000000000E+00 0. -1.
         24    1    1    2    0    0  0.60233072090E+02  0.41543149223E+02  0.10986544482E+03  0.15456871656E+03  0.80419002446E+02 0.  0.
          1    1    1    2  501    0 -0.16373888102E+03 -0.15421480488E+02  0.47440592110E+03  0.50210479105E+03  0.00000000000E+00 0. -1.
         -2    1    1    2    0  503  0.10350580893E+03 -0.26121668735E+02  0.14167937393E+03  0.17739458576E+03  0.00000000000E+00 0.  1.
<mgrwt>
<rscale>  2 0.18996967E+03</rscale>
<asrwt>0</asrwt>
<pdfrwt beam="1">  1       21 0.12000144E+00 0.18996967E+03</pdfrwt>
<pdfrwt beam="2">  1       21 0.83167201E-02 0.18996967E+03</pdfrwt>
<totfact> 0.59304677E+04</totfact>
</mgrwt>
</event>
<event>
 5    1  0.1281005E-004  0.1261484E+03  0.7546771E-02  0.1233285E+00
         21   -1    0    0  501  502  0.00000000000E+00  0.00000000000E+00  0.17115369893E+03  0.17115369893E+03  0.00000000000E+00 0. -1.
         21   -1    0    0  502  503 -0.00000000000E+00 -0.00000000000E+00 -0.99142348300E+02  0.99142348300E+02  0.00000000000E+00 0. -1.
         24    1    1    2    0    0 -0.14585890626E+02  0.34435249918E+02  0.86497884386E+01  0.89109872835E+02  0.80419002446E+02 0. -1.
          1    1    1    2  501    0 -0.28423252299E+02 -0.89403610077E+02  0.59900443312E+02  0.11130565967E+03  0.00000000000E+00 0. -1.
         -2    1    1    2    0  503  0.43009142925E+02  0.54968360159E+02  0.34611188779E+01  0.69880514721E+02  0.00000000000E+00 0.  1.
<mgrwt>
<rscale>  2 0.12614843E+03</rscale>
<asrwt>0</asrwt>
<pdfrwt beam="1">  1       21 0.26331338E-01 0.12614843E+03</pdfrwt>
<pdfrwt beam="2">  1       21 0.15252669E-01 0.12614843E+03</pdfrwt>
<totfact> 0.52588209E+05</totfact>
</mgrwt>
</event>
<event>
 5    1  0.1281005E-004  0.1755037E+03  0.7546771E-02  0.1172227E+00
         21   -1    0    0  501  502  0.00000000000E+00  0.00000000000E+00  0.64881909407E+02  0.64881909407E+02  0.00000000000E+00 0.  1.
         21   -1    0    0  502  503 -0.00000000000E+00 -0.00000000000E+00 -0.49787228299E+03  0.49787228299E+03  0.00000000000E+00 0. -1.
         24    1    1    2    0    0 -0.48444870792E+02 -0.87220272224E+02 -0.10567114118E+03  0.16609601869E+03  0.80419002446E+02 0.  1.
          1    1    1    2  501    0  0.94903070155E+02  0.12915670876E+03 -0.21624940970E+03  0.26916882312E+03  0.00000000000E+00 0. -1.
         -2    1    1    2    0  503 -0.46458199363E+02 -0.41936436539E+02 -0.11106982270E+03  0.12748935059E+03  0.00000000000E+00 0.  1.
<mgrwt>
<rscale>  2 0.17550374E+03</rscale>
<asrwt>0</asrwt>
<pdfrwt beam="1">  1       21 0.99818325E-02 0.17550374E+03</pdfrwt>
<pdfrwt beam="2">  1       21 0.76595734E-01 0.17550374E+03</pdfrwt>
<totfact> 0.12425478E+05</totfact>
</mgrwt>
</event>
<event>
 5    1  0.1281005E-004  0.1896758E+03  0.7546771E-02  0.1158754E+00
         21   -1    0    0  501  502  0.00000000000E+00  0.00000000000E+00  0.22910762060E+03  0.22910762060E+03  0.00000000000E+00 0.  1.
         21   -1    0    0  502  503 -0.00000000000E+00 -0.00000000000E+00 -0.18639902404E+03  0.18639902404E+03  0.00000000000E+00 0.  1.
         24    1    1    2    0    0 -0.10869466989E+03  0.65325919591E+02 -0.59464174691E+02  0.16150916710E+03  0.80419002446E+02 0.  1.
          1    1    1    2  501    0 -0.19364770294E+02  0.52012060425E+02  0.69885704820E+01  0.55938259497E+02  0.00000000000E+00 0. -1.
         -2    1    1    2    0  503  0.12805944018E+03 -0.11733798002E+03  0.95184200764E+02  0.19805921804E+03  0.00000000000E+00 0.  1.
<mgrwt>
<rscale>  2 0.18967584E+03</rscale>
<asrwt>0</asrwt>
<pdfrwt beam="1">  1       21 0.35247326E-01 0.18967584E+03</pdfrwt>
<pdfrwt beam="2">  1       21 0.28676773E-01 0.18967584E+03</pdfrwt>
<totfact> 0.90378962E+04</totfact>
</mgrwt>
</event>
<event>
 5    1  0.1281005E-004  0.2056105E+03  0.7546771E-02  0.1145090E+00
         21   -1    0    0  503  502  0.00000000000E+00  0.00000000000E+00  0.39852248634E+03  0.39852248634E+03  0.00000000000E+00 0. -1.
         21   -1    0    0  501  503 -0.00000000000E+00 -0.00000000000E+00 -0.10884765034E+03  0.10884765034E+03  0.00000000000E+00 0. -1.
         24    1    1    2    0    0  0.15466637883E+02 -0.87719434569E+02  0.12211012795E+03  0.17120752142E+03  0.80419002446E+02 0. -1.
          1    1    1    2  501    0 -0.24916064643E+02  0.18842657863E+03  0.11535538739E+03  0.22233364840E+03  0.00000000000E+00 0. -1.
         -2    1    1    2    0  502  0.94494267604E+01 -0.10070714406E+03  0.52209320669E+02  0.11382896686E+03  0.00000000000E+00 0.  1.
<mgrwt>
<rscale>  2 0.20561050E+03</rscale>
<asrwt>0</asrwt>
<pdfrwt beam="1">  1       21 0.61311151E-01 0.20561050E+03</pdfrwt>
<pdfrwt beam="2">  1       21 0.16745793E-01 0.20561050E+03</pdfrwt>
<totfact> 0.78884897E+04</totfact>
</mgrwt>
</event>
<event>
 5    1  0.1281005E-004  0.1405983E+03  0.7546771E-02  0.1212526E+00
         21   -1    0    0  503  502  0.00000000000E+00  0.00000000000E+00  0.13275789096E+03  0.13275789096E+03  0.00000000000E+00 0.  1.
         21   -1    0    0  501  503 -0.00000000000E+00 -0.00000000000E+00 -0.17641254679E+03  0.17641254679E+03  0.00000000000E+00 0. -1.
         24    1    1    2    0    0 -0.41558184869E+02  0.17395491343E+02  0.41912265696E+02  0.10125976407E+03  0.80419002446E+02 0.  1.
          1    1    1    2  501    0  0.11166978104E+03 -0.34448067138E+02 -0.59952993998E+02  0.13134371251E+03  0.00000000000E+00 0. -1.
         -2    1    1    2    0  502 -0.70111596174E+02  0.17052575796E+02 -0.25613927521E+02  0.76566961167E+02  0.00000000000E+00 0.  1.
<mgrwt>
<rscale>  2 0.14059828E+03</rscale>
<asrwt>0</asrwt>
<pdfrwt beam="1">  1       21 0.20424291E-01 0.14059828E+03</pdfrwt>
<pdfrwt beam="2">  1       21 0.27140392E-01 0.14059828E+03</pdfrwt>
<totfact> 0.29046002E+05</totfact>
</mgrwt>
</event>
<event>
 5    1  0.1281005E-004  0.1102511E+03  0.7546771E-02  0.1260106E+00
         21   -1    0    0  501  502  0.00000000000E+00  0.00000000000E+00  0.81379155377E+02  0.81379155377E+02  0.00000000000E+00 0.  1.
         21   -1    0    0  502  503 -0.00000000000E+00 -0.00000000000E+00 -0.15157994259E+03  0.15157994259E+03  0.00000000000E+00 0.  1.
         24    1    1    2    0    0 -0.54852160534E+01 -0.36883590090E+02 -0.38014422578E+02  0.96451019131E+02  0.80419002446E+02 0.  1.
          1    1    1    2  501    0  0.34548405695E+02 -0.38104835120E+02 -0.52907596513E+01  0.51706507650E+02  0.00000000000E+00 0. -1.
         -2    1    1    2    0  503 -0.29063189642E+02  0.74988425211E+02 -0.26895604979E+02  0.84801571182E+02  0.00000000000E+00 0.  1.
<mgrwt>
<rscale>  2 0.11025113E+03</rscale>
<asrwt>0</asrwt>
<pdfrwt beam="1">  1       21 0.12519870E-01 0.11025113E+03</pdfrwt>
<pdfrwt beam="2">  1       21 0.23319991E-01 0.11025113E+03</pdfrwt>
<totfact> 0.94057955E+05</totfact>
</mgrwt>
</event>
<event>
 5    1  0.1281005E-004  0.2697889E+03  0.7546771E-02  0.1101400E+00
         21   -1    0    0  501  502  0.00000000000E+00  0.00000000000E+00  0.19650054197E+03  0.19650054197E+03  0.00000000000E+00 0.  1.
         21   -1    0    0  502  503 -0.00000000000E+00 -0.00000000000E+00 -0.39861554333E+03  0.39861554333E+03  0.00000000000E+00 0. -1.
         24    1    1    2    0    0 -0.13876550589E+03 -0.33791775837E+01 -0.52296642813E+02  0.16872889281E+03  0.80419002446E+02 0. -1.
          1    1    1    2  501    0 -0.11976422078E+03  0.12872542337E+02  0.12305534041E+02  0.12108095264E+03  0.00000000000E+00 0. -1.
         -2    1    1    2    0  503  0.25852972667E+03 -0.94933647529E+01 -0.16212389258E+03  0.30530623985E+03  0.00000000000E+00 0.  1.
<mgrwt>
<rscale>  2 0.26978888E+03</rscale>
<asrwt>0</asrwt>
<pdfrwt beam="1">  1       21 0.30230853E-01 0.26978888E+03</pdfrwt>
<pdfrwt beam="2">  1       21 0.61325467E-01 0.26978888E+03</pdfrwt>
<totfact> 0.24969013E+04</totfact>
</mgrwt>
</event>
<event>
 5    1  0.1281005E-004  0.1849053E+03  0.7546771E-02  0.1163138E+00
         21   -1    0    0  501  502  0.00000000000E+00  0.00000000000E+00  0.38979131624E+03  0.38979131624E+03  0.00000000000E+00 0.  1.
         21   -1    0    0  502  503 -0.00000000000E+00 -0.00000000000E+00 -0.91608002422E+02  0.91608002422E+02  0.00000000000E+00 0.  1.
         24    1    1    2    0    0  0.48479103669E+02 -0.95205370219E+02  0.15289197566E+03  0.20311932008E+03  0.80419002446E+02 0.  1.
          1    1    1    2  501    0 -0.23506259831E+02 -0.67501229527E+02  0.57411207899E+02  0.91678825425E+02  0.00000000000E+00 0. -1.
         -2    1    1    2    0  503 -0.24972843839E+02  0.16270659975E+03  0.87880130253E+02  0.18660117316E+03  0.00000000000E+00 0.  1.
<mgrwt>
<rscale>  2 0.18490532E+03</rscale>
<asrwt>0</asrwt>
<pdfrwt beam="1">  1       21 0.59967894E-01 0.18490532E+03</pdfrwt>
<pdfrwt beam="2">  1       21 0.14093539E-01 0.18490532E+03</pdfrwt>
<totfact> 0.11428656E+05</totfact>
</mgrwt>
</event>
<event>
 5    1  0.1281005E-004  0.9451998E+02  0.7546771E-02  0.1292261E+00
         21   -1    0    0  501  502  0.00000000000E+00  0.00000000000E+00  0.10231841820E+03  0.10231841820E+03  0.00000000000E+00 0.  1.
         21   -1    0    0  502  503 -0.00000000000E+00 -0.00000000000E+00 -0.87489602329E+02  0.87489602329E+02  0.00000000000E+00 0.  1.
         24    1    1    2    0    0  0.19164263452E+02  0.41669767230E+02  0.31293149405E+01  0.92631782132E+02  0.80419002446E+02 0.  1.
          1    1    1    2  501    0 -0.11837891564E+02  0.25909528396E+02  0.40385482618E+01  0.28770631040E+02  0.00000000000E+00 0. -1.
         -2    1    1    2    0  503 -0.73263718883E+01 -0.67579295626E+02  0.76609526728E+01  0.68405607360E+02  0.00000000000E+00 0.  1.
<mgrwt>
<rscale>  2 0.94519975E+02</rscale>
<asrwt>0</asrwt>
<pdfrwt beam="1">  1       21 0.15741295E-01 0.94519975E+02</pdfrwt>
<pdfrwt beam="2">  1       21 0.13459939E-01 0.94519975E+02</pdfrwt>
<totfact> 0.16927965E+06</totfact>
</mgrwt>
</event>
<event>
 5    1  0.1281005E-004  0.1739503E+03  0.7546771E-02  0.1173790E+00
         21   -1    0    0  503  502  0.00000000000E+00  0.00000000000E+00  0.56199262987E+02  0.56199262987E+02  0.00000000000E+00 0.  1.
         21   -1    0    0  501  503 -0.00000000000E+00 -0.00000000000E+00 -0.57075233200E+03  0.57075233200E+03  0.00000000000E+00 0.  1.
         24    1    1    2    0    0 -0.94700718291E+02 -0.73068076034E+02 -0.14210390354E+03  0.20240529918E+03  0.80419002446E+02 0.  1.
          1    1    1    2  501    0 -0.25843639724E+02 -0.33885058091E+02 -0.77900791415E+02  0.88795406295E+02  0.00000000000E+00 0. -1.
         -2    1    1    2    0  502  0.12054435802E+03  0.10695313412E+03 -0.29454837406E+03  0.33575088951E+03  0.00000000000E+00 0.  1.
<mgrwt>
<rscale>  2 0.17395034E+03</rscale>
<asrwt>0</asrwt>
<pdfrwt beam="1">  1       21 0.86460402E-02 0.17395034E+03</pdfrwt>
<pdfrwt beam="2">  1       21 0.87808053E-01 0.17395034E+03</pdfrwt>
<totfact> 0.11738460E+05</totfact>
</mgrwt>
</event>
<event>
 5    1  0.1281005E-004  0.1949435E+03  0.7546771E-02  0.1154077E+00
         21   -1    0    0  501  502  0.00000000000E+00  0.00000000000E+00  0.68309587005E+02  0.68309587005E+02  0.00000000000E+00 0.  1.
         21   -1    0    0  502  503 -0.00000000000E+00 -0.00000000000E+00 -0.60258910744E+03  0.60258910744E+03  0.00000000000E+00 0. -1.
         24    1    1    2    0    0 -0.20165983188E+02  0.16345030148E+03 -0.16371806793E+03  0.24575086908E+03  0.80419002446E+02 0. -1.
          1    1    1    2  501    0 -0.15721954399E+02  0.16691324445E+02 -0.25865885780E+02  0.34566229315E+02  0.00000000000E+00 0. -1.
         -2    1    1    2    0  503  0.35887937587E+02 -0.18014162592E+03 -0.34469556672E+03  0.39058159605E+03  0.00000000000E+00 0.  1.
<mgrwt>
<rscale>  2 0.19494349E+03</rscale>
<asrwt>0</asrwt>
<pdfrwt beam="1">  1       21 0.10509168E-01 0.19494349E+03</pdfrwt>
<pdfrwt beam="2">  1       21 0.92706013E-01 0.19494349E+03</pdfrwt>
<totfact> 0.72813771E+04</totfact>
</mgrwt>
</event>
<event>
 5    1  0.1281005E-004  0.1420596E+03  0.7546771E-02  0.1210584E+00
         21   -1    0    0  503  502  0.00000000000E+00  0.00000000000E+00  0.14564917025E+03  0.14564917025E+03  0.00000000000E+00 0. -1.
         21   -1    0    0  501  503 -0.00000000000E+00 -0.00000000000E+00 -0.15277439011E+03  0.15277439011E+03  0.00000000000E+00 0.  1.
         24    1    1    2    0    0  0.34228421591E+02 -0.16697464771E+02 -0.44650076713E+02  0.99555188109E+02  0.80419002446E+02 0.  1.
          1    1    1    2  501    0  0.35343681367E+02 -0.73305194530E+02  0.11713764350E+02  0.82219460184E+02  0.00000000000E+00 0. -1.
         -2    1    1    2    0  502 -0.69572102958E+02  0.90002659301E+02  0.25811092497E+02  0.11664891207E+03  0.00000000000E+00 0.  1.
<mgrwt>
<rscale>  2 0.14205957E+03</rscale>
<asrwt>0</asrwt>
<pdfrwt beam="1">  1       21 0.22407565E-01 0.14205957E+03</pdfrwt>
<pdfrwt beam="2">  1       21 0.23503752E-01 0.14205957E+03</pdfrwt>
<totfact> 0.32091121E+05</totfact>
</mgrwt>
</event>
<event>
 5    1  0.1281005E-004  0.1894874E+03  0.7546771E-02  0.1158924E+00
         21   -1    0    0  501  502  0.00000000000E+00  0.00000000000E+00  0.45893087848E+03  0.45893087848E+03  0.00000000000E+00 0.  1.
         21   -1    0    0  502  503 -0.00000000000E+00 -0.00000000000E+00 -0.78305405703E+02  0.78305405703E+02  0.00000000000E+00 0.  1.
         24    1    1    2    0    0  0.76744344946E+02  0.77739540337E+02  0.12981228959E+03  0.18775403350E+03  0.80419002446E+02 0.  1.
          1    1    1    2  501    0  0.48983702951E+02  0.45800999776E+02  0.72193937824E+02  0.98534762363E+02  0.00000000000E+00 0. -1.
         -2    1    1    2    0  503 -0.12572804790E+03 -0.12354054011E+03  0.17861924536E+03  0.25094748831E+03  0.00000000000E+00 0.  1.
<mgrwt>
<rscale>  2 0.18948743E+03</rscale>
<asrwt>0</asrwt>
<pdfrwt beam="1">  1       21 0.70604749E-01 0.18948743E+03</pdfrwt>
<pdfrwt beam="2">  1       21 0.12046986E-01 0.18948743E+03</pdfrwt>
<totfact> 0.10607410E+05</totfact>
</mgrwt>
</event>
<event>
 5    1  0.1281005E-004  0.1551060E+03  0.7546771E-02  0.1194336E+00
         21   -1    0    0  503  502  0.00000000000E+00  0.00000000000E+00  0.26354500010E+02  0.26354500010E+02  0.00000000000E+00 0. -1.
         21   -1    0    0  501  503 -0.00000000000E+00 -0.00000000000E+00 -0.10758671309E+04  0.10758671309E+04  0.00000000000E+00 0.  1.
         24    1    1    2    0    0  0.12039012576E+02  0.10850397192E+03 -0.35653745660E+03  0.38145015882E+03  0.80419002446E+02 0.  1.
          1    1    1    2  501    0 -0.72330276182E+01 -0.14129417682E+03 -0.65615034616E+03  0.67122994410E+03  0.00000000000E+00 0. -1.
         -2    1    1    2    0  502 -0.48059849574E+01  0.32790204906E+02 -0.36824828123E+02  0.49541527989E+02  0.00000000000E+00 0.  1.
<mgrwt>
<rscale>  2 0.15510600E+03</rscale>
<asrwt>0</asrwt>
<pdfrwt beam="1">  1       21 0.40545385E-02 0.15510600E+03</pdfrwt>
<pdfrwt beam="2">  1       21 0.16551802E+00 0.15510600E+03</pdfrwt>
<totfact> 0.89735440E+04</totfact>
</mgrwt>
</event>
<event>
 5    1  0.1281005E-004  0.1271758E+03  0.7546771E-02  0.1231708E+00
         21   -1    0    0  501  502  0.00000000000E+00  0.00000000000E+00  0.93118037180E+02  0.93118037180E+02  0.00000000000E+00 0. -1.
         21   -1    0    0  502  503 -0.00000000000E+00 -0.00000000000E+00 -0.18565929740E+03  0.18565929740E+03  0.00000000000E+00 0.  1.
         24    1    1    2    0    0 -0.30145190863E+02  0.59697100275E+02 -0.52479432001E+01  0.10472455861E+03  0.80419002446E+02 0. -1.
          1    1    1    2  501    0  0.81903326374E+02 -0.53031518105E+02 -0.48077120702E+02  0.10877456651E+03  0.00000000000E+00 0. -1.
         -2    1    1    2    0  503 -0.51758135511E+02 -0.66655821703E+01 -0.39216196318E+02  0.65278209465E+02  0.00000000000E+00 0.  1.
<mgrwt>
<rscale>  2 0.12717580E+03</rscale>
<asrwt>0</asrwt>
<pdfrwt beam="1">  1       21 0.14325852E-01 0.12717580E+03</pdfrwt>
<pdfrwt beam="2">  1       21 0.28562969E-01 0.12717580E+03</pdfrwt>
<totfact> 0.50401502E+05</totfact>
</mgrwt>
</event>
<event>
 5    1  0.1281005E-004  0.1001096E+03  0.7546771E-02  0.1280066E+00
         21   -1    0    0  503  502  0.00000000000E+00  0.00000000000E+00  0.16935073300E+02  0.16935073300E+02  0.00000000000E+00 0.  1.
         21   -1    0    0  501  503 -0.00000000000E+00 -0.00000000000E+00 -0.59943541133E+03  0.59943541133E+03  0.00000000000E+00 0. -1.
         24    1    1    2    0    0 -0.13546585163E+02  0.33323376791E+01 -0.24260518275E+03  0.25596700001E+03  0.80419002446E+02 0. -1.
          1    1    1    2  501    0  0.61794620298E+02 -0.23759593544E+02 -0.16362263299E+03  0.17650909157E+03  0.00000000000E+00 0. -1.
         -2    1    1    2    0  502 -0.48248035135E+02  0.20427255865E+02 -0.17627252230E+03  0.18389439304E+03  0.00000000000E+00 0.  1.
<mgrwt>
<rscale>  2 0.10010955E+03</rscale>
<asrwt>0</asrwt>
<pdfrwt beam="1">  1       21 0.26053957E-02 0.10010955E+03</pdfrwt>
<pdfrwt beam="2">  1       21 0.92220839E-01 0.10010955E+03</pdfrwt>
<totfact> 0.79897045E+05</totfact>
</mgrwt>
</event>
<event>
 5    1  0.1281005E-004  0.1234145E+03  0.7546771E-02  0.1237568E+00
         21   -1    0    0  503  502  0.00000000000E+00  0.00000000000E+00  0.30555625706E+03  0.30555625706E+03  0.00000000000E+00 0. -1.
         21   -1    0    0  501  503 -0.00000000000E+00 -0.00000000000E+00 -0.56806627149E+02  0.56806627149E+02  0.00000000000E+00 0.  1.
         24    1    1    2    0    0  0.28625454730E+02  0.16088711072E+02  0.57820601773E+02  0.10434893975E+03  0.80419002446E+02 0.  1.
          1    1    1    2  501    0 -0.92138211378E+02  0.69550352292E+01  0.58546962083E+02  0.10938724460E+03  0.00000000000E+00 0. -1.
         -2    1    1    2    0  502  0.63512756649E+02 -0.23043746301E+02  0.13238206605E+03  0.14862669987E+03  0.00000000000E+00 0.  1.
<mgrwt>
<rscale>  2 0.12341449E+03</rscale>
<asrwt>0</asrwt>
<pdfrwt beam="1">  1       21 0.47008654E-01 0.12341449E+03</pdfrwt>
<pdfrwt beam="2">  1       21 0.87394812E-02 0.12341449E+03</pdfrwt>
<totfact> 0.44999467E+05</totfact>
</mgrwt>
</event>
<event>
 5    1  0.1281005E-004  0.2226459E+03  0.7546771E-02  0.1131926E+00
         21   -1    0    0  501  502  0.00000000000E+00  0.00000000000E+00  0.72728255867E+03  0.72728255867E+03  0.00000000000E+00 0.  1.
         21   -1    0    0  502  503 -0.00000000000E+00 -0.00000000000E+00 -0.69988407323E+02  0.69988407323E+02  0.00000000000E+00 0.  1.
         24    1    1    2    0    0  0.16063922167E+03  0.62514240821E+02  0.34422302088E+03  0.39328068082E+03  0.80419002446E+02 0.  1.
          1    1    1    2  501    0 -0.20963530534E+02  0.63555974820E+02  0.74397389541E+02  0.10006899179E+03  0.00000000000E+00 0. -1.
         -2    1    1    2    0  503 -0.13967569113E+03 -0.12607021564E+03  0.23867374092E+03  0.30392129338E+03  0.00000000000E+00 0.  1.
<mgrwt>
<rscale>  2 0.22264593E+03</rscale>
<asrwt>0</asrwt>
<pdfrwt beam="1">  1       21 0.11188962E+00 0.22264593E+03</pdfrwt>
<pdfrwt beam="2">  1       21 0.10767448E-01 0.22264593E+03</pdfrwt>
<totfact> 0.43920536E+04</totfact>
</mgrwt>
</event>
<event>
 5    1  0.1281005E-004  0.1285818E+03  0.7546771E-02  0.1229575E+00
         21   -1    0    0  503  502  0.00000000000E+00  0.00000000000E+00  0.10277018469E+03  0.10277018469E+03  0.00000000000E+00 0. -1.
         21   -1    0    0  501  503 -0.00000000000E+00 -0.00000000000E+00 -0.16169445833E+03  0.16169445833E+03  0.00000000000E+00 0. -1.
         24    1    1    2    0    0 -0.53353731479E+02  0.60323860379E+02 -0.19500340260E+02  0.11546890498E+03  0.80419002446E+02 0. -1.
          1    1    1    2  501    0  0.76261831487E+02 -0.81882816798E+02 -0.34916673464E+02  0.11721704959E+03  0.00000000000E+00 0. -1.
         -2    1    1    2    0  502 -0.22908100007E+02  0.21558956419E+02 -0.45072599159E+01  0.31778688453E+02  0.00000000000E+00 0.  1.
<mgrwt>
<rscale>  2 0.12858179E+03</rscale>
<asrwt>0</asrwt>
<pdfrwt beam="1">  1       21 0.15810798E-01 0.12858179E+03</pdfrwt>
<pdfrwt beam="2">  1       21 0.24876070E-01 0.12858179E+03</pdfrwt>
<totfact> 0.54876651E+05</totfact>
</mgrwt>
</event>
<event>
 5    1  0.1281005E-004  0.1557185E+03  0.7546771E-02  0.1193617E+00
         21   -1    0    0  503  502  0.00000000000E+00  0.00000000000E+00  0.24379472013E+04  0.24379472013E+04  0.00000000000E+00 0.  1.
         21   -1    0    0  501  503 -0.00000000000E+00 -0.00000000000E+00 -0.12573865118E+02  0.12573865118E+02  0.00000000000E+00 0. -1.
         24    1    1    2    0    0  0.19172863058E+02  0.30857816404E+02  0.13053938977E+04  0.13083731301E+04  0.80419002446E+02 0.  1.
          1    1    1    2  501    0 -0.11982860843E+03 -0.24708222403E+02  0.65990380621E+03  0.67115007644E+03  0.00000000000E+00 0. -1.
         -2    1    1    2    0  502  0.10065574538E+03 -0.61495940010E+01  0.46007563234E+03  0.47099785992E+03  0.00000000000E+00 0.  1.
<mgrwt>
<rscale>  2 0.15571849E+03</rscale>
<asrwt>0</asrwt>
<pdfrwt beam="1">  1       21 0.37506842E+00 0.15571849E+03</pdfrwt>
<pdfrwt beam="2">  1       21 0.19344427E-02 0.15571849E+03</pdfrwt>
<totfact> 0.16889822E+04</totfact>
</mgrwt>
</event>
<event>
 5    1  0.1281005E-004  0.1527691E+03  0.7546771E-02  0.1197111E+00
         21   -1    0    0  501  502  0.00000000000E+00  0.00000000000E+00  0.45282437986E+03  0.45282437986E+03  0.00000000000E+00 0. -1.
         21   -1    0    0  502  503 -0.00000000000E+00 -0.00000000000E+00 -0.55829545634E+02  0.55829545634E+02  0.00000000000E+00 0.  1.
         24    1    1    2    0    0  0.10144517464E+03 -0.32467884879E+02  0.23443923384E+03  0.26976704270E+03  0.80419002446E+02 0.  0.
          1    1    1    2  501    0  0.20147769089E+02 -0.29404739994E+02  0.53207889140E+02  0.64044131660E+02  0.00000000000E+00 0. -1.
         -2    1    1    2    0  503 -0.12159294372E+03  0.61872624873E+02  0.10934771125E+03  0.17484275114E+03  0.00000000000E+00 0.  1.
<mgrwt>
<rscale>  2 0.15276914E+03</rscale>
<asrwt>0</asrwt>
<pdfrwt beam="1">  1       21 0.69665287E-01 0.15276914E+03</pdfrwt>
<pdfrwt beam="2">  1       21 0.85891612E-02 0.15276914E+03</pdfrwt>
<totfact> 0.20091160E+05</totfact>
</mgrwt>
</event>
<event>
 5    1  0.1281005E-004  0.1436389E+03  0.7546771E-02  0.1208515E+00
         21   -1    0    0  503  502  0.00000000000E+00  0.00000000000E+00  0.10934732432E+03  0.10934732432E+03  0.00000000000E+00 0.  1.
         21   -1    0    0  501  503 -0.00000000000E+00 -0.00000000000E+00 -0.21326821889E+03  0.21326821889E+03  0.00000000000E+00 0. -1.
         24    1    1    2    0    0  0.28748941448E+02 -0.69526483000E+02 -0.91728393339E+02  0.14332392533E+03  0.80419002446E+02 0.  0.
          1    1    1    2  501    0  0.44926541038E+02 -0.29484213820E+02  0.76923125932E+01  0.54285215549E+02  0.00000000000E+00 0. -1.
         -2    1    1    2    0  502 -0.73675482486E+02  0.99010696820E+02 -0.19884813827E+02  0.12500640234E+03  0.00000000000E+00 0.  1.
<mgrwt>
<rscale>  2 0.14363889E+03</rscale>
<asrwt>0</asrwt>
<pdfrwt beam="1">  1       21 0.16822665E-01 0.14363889E+03</pdfrwt>
<pdfrwt beam="2">  1       21 0.32810495E-01 0.14363889E+03</pdfrwt>
<totfact> 0.28749907E+05</totfact>
</mgrwt>
</event>
<event>
 5    1  0.1281005E-004  0.2031567E+03  0.7546771E-02  0.1147103E+00
         21   -1    0    0  503  502  0.00000000000E+00  0.00000000000E+00  0.97124360539E+02  0.97124360539E+02  0.00000000000E+00 0. -1.
         21   -1    0    0  501  503 -0.00000000000E+00 -0.00000000000E+00 -0.42505429731E+03  0.42505429731E+03  0.00000000000E+00 0.  1.
         24    1    1    2    0    0  0.42349984214E+02 -0.45649838283E+02 -0.83345757743E+02  0.13149585616E+03  0.80419002446E+02 0. -1.
          1    1    1    2  501    0 -0.82939190476E+02 -0.11337965108E+03 -0.11615434238E+03  0.18227914266E+03  0.00000000000E+00 0. -1.
         -2    1    1    2    0  502  0.40589206262E+02  0.15902948937E+03 -0.12842983665E+03  0.20840365902E+03  0.00000000000E+00 0.  1.
<mgrwt>
<rscale>  2 0.20315672E+03</rscale>
<asrwt>0</asrwt>
<pdfrwt beam="1">  1       21 0.14942209E-01 0.20315672E+03</pdfrwt>
<pdfrwt beam="2">  1       21 0.65392970E-01 0.20315672E+03</pdfrwt>
<totfact> 0.84594443E+04</totfact>
</mgrwt>
</event>
<event>
 5    1  0.1281005E-004  0.6022879E+03  0.7546771E-02  0.9900671E-01
         21   -1    0    0  501  502  0.00000000000E+00  0.00000000000E+00  0.12055663120E+04  0.12055663120E+04  0.00000000000E+00 0. -1.
         21   -1    0    0  502  503 -0.00000000000E+00 -0.00000000000E+00 -0.31942534516E+03  0.31942534516E+03  0.00000000000E+00 0.  1.
         24    1    1    2    0    0 -0.38817554398E+03  0.33624109956E+02  0.44027702397E+03  0.59339860760E+03  0.80419002446E+02 0.  0.
          1    1    1    2  501    0 -0.20045997303E+03  0.63203945212E+02  0.18688710531E+03  0.28125740810E+03  0.00000000000E+00 0. -1.
         -2    1    1    2    0  503  0.58863551701E+03 -0.96828055168E+02  0.25897683753E+03  0.65033564144E+03  0.00000000000E+00 0.  1.
<mgrwt>
<rscale>  2 0.60228793E+03</rscale>
<asrwt>0</asrwt>
<pdfrwt beam="1">  1       21 0.18547174E+00 0.60228793E+03</pdfrwt>
<pdfrwt beam="2">  1       21 0.49142362E-01 0.60228793E+03</pdfrwt>
<totfact> 0.51366942E+02</totfact>
</mgrwt>
</event>
<event>
 5    1  0.1281005E-004  0.1720837E+03  0.7546771E-02  0.1175692E+00
         21   -1    0    0  501  502  0.00000000000E+00  0.00000000000E+00  0.58904179119E+03  0.58904179119E+03  0.00000000000E+00 0.  1.
         21   -1    0    0  502  503 -0.00000000000E+00 -0.00000000000E+00 -0.66796072379E+02  0.66796072379E+02  0.00000000000E+00 0.  1.
         24    1    1    2    0    0  0.93236360437E+02  0.61941361110E+02  0.36209876936E+03  0.38744352601E+03  0.80419002446E+02 0.  1.
          1    1    1    2  501    0  0.45760889284E+02  0.14120854002E+02  0.73715615872E+02  0.87905912936E+02  0.00000000000E+00 0. -1.
         -2    1    1    2    0  503 -0.13899724972E+03 -0.76062215112E+02  0.86431333583E+02  0.18048842462E+03  0.00000000000E+00 0.  1.
<mgrwt>
<rscale>  2 0.17208366E+03</rscale>
<asrwt>0</asrwt>
<pdfrwt beam="1">  1       21 0.90621810E-01 0.17208366E+03</pdfrwt>
<pdfrwt beam="2">  1       21 0.10276319E-01 0.17208366E+03</pdfrwt>
<totfact> 0.80675185E+04</totfact>
</mgrwt>
</event>
<event>
 5    1  0.1281005E-004  0.2123135E+03  0.7546771E-02  0.1139747E+00
         21   -1    0    0  501  502  0.00000000000E+00  0.00000000000E+00  0.42589547217E+03  0.42589547217E+03  0.00000000000E+00 0. -1.
         21   -1    0    0  502  503 -0.00000000000E+00 -0.00000000000E+00 -0.12495323502E+03  0.12495323502E+03  0.00000000000E+00 0.  1.
         24    1    1    2    0    0 -0.58997186735E+02  0.17049868432E+01  0.26712154653E+02  0.10326824383E+03  0.80419002446E+02 0.  1.
          1    1    1    2  501    0  0.19175075963E+03  0.65570678650E+01  0.24536703279E+03  0.31147444475E+03  0.00000000000E+00 0. -1.
         -2    1    1    2    0  503 -0.13275357289E+03 -0.82620547082E+01  0.28863049711E+02  0.13610601861E+03  0.00000000000E+00 0.  1.
<mgrwt>
<rscale>  2 0.21231346E+03</rscale>
<asrwt>0</asrwt>
<pdfrwt beam="1">  1       21 0.65522380E-01 0.21231346E+03</pdfrwt>
<pdfrwt beam="2">  1       21 0.19223575E-01 0.21231346E+03</pdfrwt>
<totfact> 0.52727894E+04</totfact>
</mgrwt>
</event>
<event>
 5    1  0.1281005E-004  0.2434072E+03  0.7546771E-02  0.1117544E+00
         21   -1    0    0  501  502  0.00000000000E+00  0.00000000000E+00  0.26914544456E+03  0.26914544456E+03  0.00000000000E+00 0. -1.
         21   -1    0    0  502  503 -0.00000000000E+00 -0.00000000000E+00 -0.23808478581E+03  0.23808478581E+03  0.00000000000E+00 0.  1.
         24    1    1    2    0    0 -0.10944914131E+03 -0.17391196327E+03  0.82591535961E+02  0.23561210340E+03  0.80419002446E+02 0. -1.
          1    1    1    2  501    0  0.45960826528E+01 -0.33462653799E+02 -0.12343048437E+02  0.35961424051E+02  0.00000000000E+00 0. -1.
         -2    1    1    2    0  503  0.10485305865E+03  0.20737461707E+03 -0.39187828774E+02  0.23565670293E+03  0.00000000000E+00 0.  1.
<mgrwt>
<rscale>  2 0.24340716E+03</rscale>
<asrwt>0</asrwt>
<pdfrwt beam="1">  1       21 0.41406992E-01 0.24340716E+03</pdfrwt>
<pdfrwt beam="2">  1       21 0.36628428E-01 0.24340716E+03</pdfrwt>
<totfact> 0.39406671E+04</totfact>
</mgrwt>
</event>
<event>
 5    1  0.1281005E-004  0.2893713E+03  0.7546771E-02  0.1090678E+00
         21   -1    0    0  503  502  0.00000000000E+00  0.00000000000E+00  0.34203600216E+03  0.34203600216E+03  0.00000000000E+00 0. -1.
         21   -1    0    0  501  503 -0.00000000000E+00 -0.00000000000E+00 -0.30704466000E+03  0.30704466000E+03  0.00000000000E+00 0.  1.
         24    1    1    2    0    0  0.56670424565E+02 -0.80356715737E+02  0.67392034591E+02  0.14379722204E+03  0.80419002446E+02 0. -1.
          1    1    1    2  501    0 -0.25058897842E+03  0.46097612310E+02 -0.12939854581E+03  0.28576880450E+03  0.00000000000E+00 0. -1.
         -2    1    1    2    0  502  0.19391855386E+03  0.34259103428E+02  0.96997853383E+02  0.21951463563E+03  0.00000000000E+00 0.  1.
<mgrwt>
<rscale>  2 0.28937130E+03</rscale>
<asrwt>0</asrwt>
<pdfrwt beam="1">  1       21 0.52620923E-01 0.28937130E+03</pdfrwt>
<pdfrwt beam="2">  1       21 0.47237640E-01 0.28937130E+03</pdfrwt>
<totfact> 0.13934219E+04</totfact>
</mgrwt>
</event>
<event>
 5    1  0.1281005E-004  0.2399506E+03  0.7546771E-02  0.1119826E+00
         21   -1    0    0  501  502  0.00000000000E+00  0.00000000000E+00  0.15665959695E+04  0.15665959695E+04  0.00000000000E+00 0.  1.
         21   -1    0    0  502  503 -0.00000000000E+00 -0.00000000000E+00 -0.37142320344E+02  0.37142320344E+02  0.00000000000E+00 0. -1.
         24    1    1    2    0    0  0.32062588898E+02  0.95851609538E+02  0.37733501319E+03  0.39882887156E+03  0.80419002446E+02 0.  0.
          1    1    1    2  501    0 -0.88249780248E+02 -0.20764519264E+03  0.80075026832E+03  0.83192880823E+03  0.00000000000E+00 0. -1.
         -2    1    1    2    0  503  0.56187191350E+02  0.11179358310E+03  0.35136836764E+03  0.37298061005E+03  0.00000000000E+00 0.  1.
<mgrwt>
<rscale>  2 0.23995064E+03</rscale>
<asrwt>0</asrwt>
<pdfrwt beam="1">  1       21 0.24101471E+00 0.23995064E+03</pdfrwt>
<pdfrwt beam="2">  1       21 0.57142043E-02 0.23995064E+03</pdfrwt>
<totfact> 0.15500106E+04</totfact>
</mgrwt>
</event>
<event>
 5    1  0.1281005E-004  0.8535166E+02  0.7546771E-02  0.1314515E+00
         21   -1    0    0  501  502  0.00000000000E+00  0.00000000000E+00  0.44957100318E+02  0.44957100318E+02  0.00000000000E+00 0.  1.
         21   -1    0    0  502  503 -0.00000000000E+00 -0.00000000000E+00 -0.16498069252E+03  0.16498069252E+03  0.00000000000E+00 0. -1.
         24    1    1    2    0    0  0.20950296216E+02  0.19611659079E+02 -0.50859051985E+02  0.99385065310E+02  0.80419002446E+02 0. -1.
          1    1    1    2  501    0 -0.21321753365E+02  0.29392619073E+02 -0.21550604893E+02  0.42225250666E+02  0.00000000000E+00 0. -1.
         -2    1    1    2    0  503  0.37145714880E+00 -0.49004278152E+02 -0.47613935324E+02  0.68327476864E+02  0.00000000000E+00 0.  1.
<mgrwt>
<rscale>  2 0.85351657E+02</rscale>
<asrwt>0</asrwt>
<pdfrwt beam="1">  1       21 0.69164769E-02 0.85351657E+02</pdfrwt>
<pdfrwt beam="2">  1       21 0.25381645E-01 0.85351657E+02</pdfrwt>
<totfact> 0.22235106E+06</totfact>
</mgrwt>
</event>
<event>
 5    1  0.1281005E-004  0.2922193E+03  0.7546771E-02  0.1089196E+00
         21   -1    0    0  503  502  0.00000000000E+00  0.00000000000E+00  0.85565389812E+02  0.85565389812E+02  0.00000000000E+00 0.  1.
         21   -1    0    0  501  503 -0.00000000000E+00 -0.00000000000E+00 -0.10505668856E+04  0.10505668856E+04  0.00000000000E+00 0. -1.
         24    1    1    2    0    0 -0.66688004189E+02 -0.10175489903E+03 -0.16651782147E+03  0.22135209554E+03  0.80419002446E+02 0.  1.
          1    1    1    2  501    0 -0.64562377570E+02  0.23967026823E+03 -0.53431317461E+03  0.58915253257E+03  0.00000000000E+00 0. -1.
         -2    1    1    2    0  502  0.13125038176E+03 -0.13791536920E+03 -0.26417049975E+03  0.32562764734E+03  0.00000000000E+00 0.  1.
<mgrwt>
<rscale>  2 0.29221931E+03</rscale>
<asrwt>0</asrwt>
<pdfrwt beam="1">  1       21 0.13163906E-01 0.29221931E+03</pdfrwt>
<pdfrwt beam="2">  1       21 0.16162568E+00 0.29221931E+03</pdfrwt>
<totfact> 0.11434011E+04</totfact>
</mgrwt>
</event>
<event>
 5    1  0.1281005E-004  0.1954512E+03  0.7546771E-02  0.1153635E+00
         21   -1    0    0  503  502  0.00000000000E+00  0.00000000000E+00  0.54806940757E+02  0.54806940757E+02  0.00000000000E+00 0.  1.
         21   -1    0    0  501  503 -0.00000000000E+00 -0.00000000000E+00 -0.71056502151E+03  0.71056502151E+03  0.00000000000E+00 0. -1.
         24    1    1    2    0    0 -0.12509175104E+03  0.33856065295E+02 -0.20625713486E+03  0.25652173587E+03  0.80419002446E+02 0.  1.
          1    1    1    2  501    0  0.17950903167E+03 -0.12554257177E+02 -0.33273313370E+03  0.37827561392E+03  0.00000000000E+00 0. -1.
         -2    1    1    2    0  502 -0.54417280630E+02 -0.21301808118E+02 -0.11676781218E+03  0.13057461247E+03  0.00000000000E+00 0.  1.
<mgrwt>
<rscale>  2 0.19545122E+03</rscale>
<asrwt>0</asrwt>
<pdfrwt beam="1">  1       21 0.84318373E-02 0.19545122E+03</pdfrwt>
<pdfrwt beam="2">  1       21 0.10931769E+00 0.19545122E+03</pdfrwt>
<totfact> 0.72498801E+04</totfact>
</mgrwt>
</event>
<event>
 5    1  0.1281005E-004  0.1762417E+03  0.7546771E-02  0.1171491E+00
         21   -1    0    0  503  502  0.00000000000E+00  0.00000000000E+00  0.49807939142E+02  0.49807939142E+02  0.00000000000E+00 0.  1.
         21   -1    0    0  501  503 -0.00000000000E+00 -0.00000000000E+00 -0.70601047090E+03  0.70601047090E+03  0.00000000000E+00 0. -1.
         24    1    1    2    0    0 -0.19227012975E+02 -0.45015960243E+02 -0.19763115950E+03  0.21890958376E+03  0.80419002446E+02 0. -1.
          1    1    1    2  501    0 -0.11737054918E+03  0.13431861981E+02 -0.11090450581E+03  0.16203724923E+03  0.00000000000E+00 0. -1.
         -2    1    1    2    0  502  0.13659756215E+03  0.31584098262E+02 -0.34766686646E+03  0.37487157705E+03  0.00000000000E+00 0.  1.
<mgrwt>
<rscale>  2 0.17624167E+03</rscale>
<asrwt>0</asrwt>
<pdfrwt beam="1">  1       21 0.76627604E-02 0.17624167E+03</pdfrwt>
<pdfrwt beam="2">  1       21 0.10861699E+00 0.17624167E+03</pdfrwt>
<totfact> 0.87722141E+04</totfact>
</mgrwt>
</event>
<event>
 5    1  0.1281005E-004  0.1026799E+03  0.7546771E-02  0.1274759E+00
         21   -1    0    0  501  502  0.00000000000E+00  0.00000000000E+00  0.41362455023E+03  0.41362455023E+03  0.00000000000E+00 0. -1.
         21   -1    0    0  502  503 -0.00000000000E+00 -0.00000000000E+00 -0.32773777504E+02  0.32773777504E+02  0.00000000000E+00 0. -1.
         24    1    1    2    0    0  0.25534743103E+02 -0.28033571922E+02  0.27216818178E+03  0.28632261417E+03  0.80419002446E+02 0. -1.
          1    1    1    2  501    0 -0.62356731295E+02 -0.10405676812E+02  0.69688553873E+02  0.94091097286E+02  0.00000000000E+00 0. -1.
         -2    1    1    2    0  503  0.36821988192E+02  0.38439248734E+02  0.38994037078E+02  0.65984616278E+02  0.00000000000E+00 0.  1.
<mgrwt>
<rscale>  2 0.10267987E+03</rscale>
<asrwt>0</asrwt>
<pdfrwt beam="1">  1       21 0.63634543E-01 0.10267987E+03</pdfrwt>
<pdfrwt beam="2">  1       21 0.50421199E-02 0.10267987E+03</pdfrwt>
<totfact> 0.61059585E+05</totfact>
</mgrwt>
</event>
<event>
 5    1  0.1281005E-004  0.1455859E+03  0.7546771E-02  0.1206004E+00
         21   -1    0    0  503  502  0.00000000000E+00  0.00000000000E+00  0.22517880864E+03  0.22517880864E+03  0.00000000000E+00 0.  1.
         21   -1    0    0  501  503 -0.00000000000E+00 -0.00000000000E+00 -0.96935388419E+02  0.96935388419E+02  0.00000000000E+00 0. -1.
         24    1    1    2    0    0 -0.25439317885E+01 -0.74460271105E+02  0.71291760488E+02  0.13076901250E+03  0.80419002446E+02 0.  0.
          1    1    1    2  501    0 -0.15883199396E+02 -0.51680155015E+02  0.26823464624E+02  0.60354061171E+02  0.00000000000E+00 0. -1.
         -2    1    1    2    0  502  0.18427131185E+02  0.12614042612E+03  0.30128195107E+02  0.13099112339E+03  0.00000000000E+00 0.  1.
<mgrwt>
<rscale>  2 0.14558592E+03</rscale>
<asrwt>0</asrwt>
<pdfrwt beam="1">  1       21 0.34642894E-01 0.14558592E+03</pdfrwt>
<pdfrwt beam="2">  1       21 0.14913137E-01 0.14558592E+03</pdfrwt>
<totfact> 0.32153162E+05</totfact>
</mgrwt>
</event>
<event>
 5    1  0.1281005E-004  0.2064903E+03  0.7546771E-02  0.1144376E+00
         21   -1    0    0  501  502  0.00000000000E+00  0.00000000000E+00  0.36888139386E+03  0.36888139386E+03  0.00000000000E+00 0.  1.
         21   -1    0    0  502  503 -0.00000000000E+00 -0.00000000000E+00 -0.12026618338E+03  0.12026618338E+03  0.00000000000E+00 0. -1.
         24    1    1    2    0    0 -0.14459254228E+03  0.49942608888E+02  0.60917476952E+02  0.18324688924E+03  0.80419002446E+02 0. -1.
          1    1    1    2  501    0 -0.29385349879E+02 -0.59030882925E+02  0.66675290737E+02  0.93774934398E+02  0.00000000000E+00 0. -1.
         -2    1    1    2    0  503  0.17397789216E+03  0.90882740368E+01  0.12102244279E+03  0.21212575361E+03  0.00000000000E+00 0.  1.
<mgrwt>
<rscale>  2 0.20649029E+03</rscale>
<asrwt>0</asrwt>
<pdfrwt beam="1">  1       21 0.56750983E-01 0.20649029E+03</pdfrwt>
<pdfrwt beam="2">  1       21 0.18502490E-01 0.20649029E+03</pdfrwt>
<totfact> 0.77401104E+04</totfact>
</mgrwt>
</event>
<event>
 5    1  0.1281005E-004  0.1268153E+03  0.7546771E-02  0.1232259E+00
         21   -1    0    0  501  502  0.00000000000E+00  0.00000000000E+00  0.82801186431E+03  0.82801186431E+03  0.00000000000E+00 0. -1.
         21   -1    0    0  502  503 -0.00000000000E+00 -0.00000000000E+00 -0.19575026453E+02  0.19575026453E+02  0.00000000000E+00 0.  1.
         24    1    1    2    0    0 -0.36293573046E+02 -0.60760645865E+02  0.37276649080E+03  0.38785455025E+03  0.80419002446E+02 0.  1.
          1    1    1    2  501    0  0.76863341372E+02  0.71025688688E+02  0.32368637923E+03  0.34018449964E+03  0.00000000000E+00 0. -1.
         -2    1    1    2    0  503 -0.40569768325E+02 -0.10265042822E+02  0.11198396782E+03  0.11954784087E+03  0.00000000000E+00 0.  1.
<mgrwt>
<rscale>  2 0.12681526E+03</rscale>
<asrwt>0</asrwt>
<pdfrwt beam="1">  1       21 0.12738641E+00 0.12681526E+03</pdfrwt>
<pdfrwt beam="2">  1       21 0.30115432E-02 0.12681526E+03</pdfrwt>
<totfact> 0.29182009E+05</totfact>
</mgrwt>
</event>
<event>
 5    1  0.1281005E-004  0.1618826E+03  0.7546771E-02  0.1186588E+00
         21   -1    0    0  503  502  0.00000000000E+00  0.00000000000E+00  0.45082324514E+02  0.45082324514E+02  0.00000000000E+00 0. -1.
         21   -1    0    0  501  503 -0.00000000000E+00 -0.00000000000E+00 -0.58232851403E+03  0.58232851403E+03  0.00000000000E+00 0.  1.
         24    1    1    2    0    0  0.12535917743E+03 -0.15119093027E+01 -0.25946245532E+03  0.29917418155E+03  0.80419002446E+02 0.  0.
          1    1    1    2  501    0 -0.22672597965E+01 -0.43647556966E+02 -0.72427914172E+02  0.84593453927E+02  0.00000000000E+00 0. -1.
         -2    1    1    2    0  502 -0.12309191763E+03  0.45159466268E+02 -0.20535582003E+03  0.24364320306E+03  0.00000000000E+00 0.  1.
<mgrwt>
<rscale>  2 0.16188261E+03</rscale>
<asrwt>0</asrwt>
<pdfrwt beam="1">  1       21 0.69357425E-02 0.16188261E+03</pdfrwt>
<pdfrwt beam="2">  1       21 0.89588999E-01 0.16188261E+03</pdfrwt>
<totfact> 0.16496420E+05</totfact>
</mgrwt>
</event>
<event>
 5    1  0.1281005E-004  0.2239506E+03  0.7546771E-02  0.1130972E+00
         21   -1    0    0  501  502  0.00000000000E+00  0.00000000000E+00  0.38759643892E+03  0.38759643892E+03  0.00000000000E+00 0.  1.
         21   -1    0    0  502  503 -0.00000000000E+00 -0.00000000000E+00 -0.15766943137E+03  0.15766943137E+03  0.00000000000E+00 0. -1.
         24    1    1    2    0    0 -0.31174850495E+02  0.11553328468E+02 -0.34412243250E+02  0.93577610260E+02  0.80419002446E+02 0. -1.
          1    1    1    2  501    0 -0.14809533331E+03  0.70150327616E+02  0.81975931399E+02  0.18323031829E+03  0.00000000000E+00 0. -1.
         -2    1    1    2    0  503  0.17927018381E+03 -0.81703656084E+02  0.18236331940E+03  0.26845794174E+03  0.00000000000E+00 0.  1.
<mgrwt>
<rscale>  2 0.22395056E+03</rscale>
<asrwt>0</asrwt>
<pdfrwt beam="1">  1       21 0.59630221E-01 0.22395056E+03</pdfrwt>
<pdfrwt beam="2">  1       21 0.24256836E-01 0.22395056E+03</pdfrwt>
<totfact> 0.41480608E+04</totfact>
</mgrwt>
</event>
<event>
 5    1  0.1281005E-004  0.2949724E+03  0.7546771E-02  0.1087781E+00
         21   -1    0    0  501  502  0.00000000000E+00  0.00000000000E+00  0.36408651806E+03  0.36408651806E+03  0.00000000000E+00 0. -1.
         21   -1    0    0  502  503 -0.00000000000E+00 -0.00000000000E+00 -0.31377885052E+03  0.31377885052E+03  0.00000000000E+00 0.  1.
         24    1    1    2    0    0  0.11465542229E+03  0.10571697235E+02  0.16979844264E+02  0.14146786812E+03  0.80419002446E+02 0.  1.
          1    1    1    2  501    0  0.15176692640E+03 -0.83574101313E+02  0.15693044793E+03  0.23376269131E+03  0.00000000000E+00 0. -1.
         -2    1    1    2    0  503 -0.26642234870E+03  0.73002404078E+02 -0.12360262465E+03  0.30263480915E+03  0.00000000000E+00 0.  1.
<mgrwt>
<rscale>  2 0.29497237E+03</rscale>
<asrwt>0</asrwt>
<pdfrwt beam="1">  1       21 0.56013311E-01 0.29497237E+03</pdfrwt>
<pdfrwt beam="2">  1       21 0.48273669E-01 0.29497237E+03</pdfrwt>
<totfact> 0.11625591E+04</totfact>
</mgrwt>
</event>
<event>
 5    1  0.1281005E-004  0.2549442E+03  0.7546771E-02  0.1110219E+00
         21   -1    0    0  503  502  0.00000000000E+00  0.00000000000E+00  0.65385594447E+03  0.65385594447E+03  0.00000000000E+00 0. -1.
         21   -1    0    0  501  503 -0.00000000000E+00 -0.00000000000E+00 -0.10554425680E+03  0.10554425680E+03  0.00000000000E+00 0.  1.
         24    1    1    2    0    0 -0.38337736634E+02  0.64550416985E+02  0.13960346549E+03  0.17774386604E+03  0.80419002446E+02 0.  0.
          1    1    1    2  501    0 -0.63305330482E+02  0.14980847908E+03  0.95012224662E+02  0.18835463389E+03  0.00000000000E+00 0. -1.
         -2    1    1    2    0  502  0.10164306712E+03 -0.21435889607E+03  0.31369599751E+03  0.39330170133E+03  0.00000000000E+00 0.  1.
<mgrwt>
<rscale>  2 0.25494417E+03</rscale>
<asrwt>0</asrwt>
<pdfrwt beam="1">  1       21 0.10059322E+00 0.25494417E+03</pdfrwt>
<pdfrwt beam="2">  1       21 0.16237578E-01 0.25494417E+03</pdfrwt>
<totfact> 0.26584064E+04</totfact>
</mgrwt>
</event>
<event>
 5    1  0.1281005E-004  0.1312985E+03  0.7546771E-02  0.1225542E+00
         21   -1    0    0  503  502  0.00000000000E+00  0.00000000000E+00  0.32854803483E+02  0.32854803483E+02  0.00000000000E+00 0.  1.
         21   -1    0    0  501  503 -0.00000000000E+00 -0.00000000000E+00 -0.53957658451E+03  0.53957658451E+03  0.00000000000E+00 0. -1.
         24    1    1    2    0    0 -0.32684959522E+02 -0.68933277564E+02 -0.26178871448E+03  0.28428972953E+03  0.80419002446E+02 0. -1.
          1    1    1    2  501    0  0.48678254159E+02  0.10310561352E+03 -0.18598118611E+03  0.21814981447E+03  0.00000000000E+00 0. -1.
         -2    1    1    2    0  502 -0.15993294637E+02 -0.34172335954E+02 -0.58951880436E+02  0.69991843988E+02  0.00000000000E+00 0.  1.
<mgrwt>
<rscale>  2 0.13129848E+03</rscale>
<asrwt>0</asrwt>
<pdfrwt beam="1">  1       21 0.50545856E-02 0.13129848E+03</pdfrwt>
<pdfrwt beam="2">  1       21 0.83011775E-01 0.13129848E+03</pdfrwt>
<totfact> 0.33863961E+05</totfact>
</mgrwt>
</event>
<event>
 5    1  0.1281005E-004  0.1024282E+03  0.7546771E-02  0.1275271E+00
         21   -1    0    0  501  502  0.00000000000E+00  0.00000000000E+00  0.63410662862E+02  0.63410662862E+02  0.00000000000E+00 0. -1.
         21   -1    0    0  502  503 -0.00000000000E+00 -0.00000000000E+00 -0.17290238946E+03  0.17290238946E+03  0.00000000000E+00 0.  1.
         24    1    1    2    0    0  0.10844267946E+02 -0.20334510637E+02 -0.39379147117E+02  0.92460930410E+02  0.80419002446E+02 0.  0.
          1    1    1    2  501    0 -0.26589799378E+01  0.70410136257E+02 -0.59021112047E+02  0.91913813594E+02  0.00000000000E+00 0. -1.
         -2    1    1    2    0  503 -0.81852880080E+01 -0.50075625620E+02 -0.11091467431E+02  0.51938308317E+02  0.00000000000E+00 0.  1.
<mgrwt>
<rscale>  2 0.10242820E+03</rscale>
<asrwt>0</asrwt>
<pdfrwt beam="1">  1       21 0.97554866E-02 0.10242820E+03</pdfrwt>
<pdfrwt beam="2">  1       21 0.26600368E-01 0.10242820E+03</pdfrwt>
<totfact> 0.11359167E+06</totfact>
</mgrwt>
</event>
<event>
 5    1  0.1281005E-004  0.3350455E+03  0.7546771E-02  0.1068926E+00
         21   -1    0    0  503  502  0.00000000000E+00  0.00000000000E+00  0.96363448714E+03  0.96363448714E+03  0.00000000000E+00 0.  1.
         21   -1    0    0  501  503 -0.00000000000E+00 -0.00000000000E+00 -0.11763247652E+03  0.11763247652E+03  0.00000000000E+00 0. -1.
         24    1    1    2    0    0 -0.88941847625E+02  0.54028763631E+02  0.21026166812E+03  0.24800593661E+03  0.80419002446E+02 0.  1.
          1    1    1    2  501    0  0.30061064469E+03 -0.10920340750E+03  0.38500280455E+03  0.50051903403E+03  0.00000000000E+00 0. -1.
         -2    1    1    2    0  502 -0.21166879707E+03  0.55174643874E+02  0.25073753796E+03  0.33274199302E+03  0.00000000000E+00 0.  1.
<mgrwt>
<rscale>  2 0.33504554E+03</rscale>
<asrwt>0</asrwt>
<pdfrwt beam="1">  1       21 0.14825145E+00 0.33504554E+03</pdfrwt>
<pdfrwt beam="2">  1       21 0.18097305E-01 0.33504554E+03</pdfrwt>
<totfact> 0.78683355E+03</totfact>
</mgrwt>
</event>
<event>
 5    1  0.1281005E-004  0.3266976E+03  0.7546771E-02  0.1072608E+00
         21   -1    0    0  501  502  0.00000000000E+00  0.00000000000E+00  0.59125099313E+03  0.59125099313E+03  0.00000000000E+00 0.  1.
         21   -1    0    0  502  503 -0.00000000000E+00 -0.00000000000E+00 -0.18331720850E+03  0.18331720850E+03  0.00000000000E+00 0. -1.
         24    1    1    2    0    0 -0.61896149778E+02 -0.33086396816E+02  0.89915933394E+02  0.13956336928E+03  0.80419002446E+02 0.  0.
          1    1    1    2  501    0 -0.24187714082E+03  0.13597837736E+02  0.10834805116E+03  0.26538416048E+03  0.00000000000E+00 0. -1.
         -2    1    1    2    0  503  0.30377329060E+03  0.19488559080E+02  0.20966980007E+03  0.36962067187E+03  0.00000000000E+00 0.  1.
<mgrwt>
<rscale>  2 0.32669756E+03</rscale>
<asrwt>0</asrwt>
<pdfrwt beam="1">  1       21 0.90961690E-01 0.32669756E+03</pdfrwt>
<pdfrwt beam="2">  1       21 0.28202648E-01 0.32669756E+03</pdfrwt>
<totfact> 0.11468614E+04</totfact>
</mgrwt>
</event>
<event>
 5    1  0.1281005E-004  0.1836514E+03  0.7546771E-02  0.1164315E+00
         21   -1    0    0  501  502  0.00000000000E+00  0.00000000000E+00  0.15418245614E+03  0.15418245614E+03  0.00000000000E+00 0. -1.
         21   -1    0    0  502  503 -0.00000000000E+00 -0.00000000000E+00 -0.23696856861E+03  0.23696856861E+03  0.00000000000E+00 0.  1.
         24    1    1    2    0    0 -0.14448077531E+03  0.28423713221E+02 -0.83940991613E+02  0.18760572469E+03  0.80419002446E+02 0.  1.
          1    1    1    2  501    0  0.16036278007E+03 -0.54176935856E+02  0.15662660836E+02  0.16999023665E+03  0.00000000000E+00 0. -1.
         -2    1    1    2    0  503 -0.15882004756E+02  0.25753222635E+02 -0.14507781695E+02  0.33555063416E+02  0.00000000000E+00 0.  1.
<mgrwt>
<rscale>  2 0.18365144E+03</rscale>
<asrwt>0</asrwt>
<pdfrwt beam="1">  1       21 0.23720378E-01 0.18365144E+03</pdfrwt>
<pdfrwt beam="2">  1       21 0.36456703E-01 0.18365144E+03</pdfrwt>
<totfact> 0.12185033E+05</totfact>
</mgrwt>
</event>
<event>
 5    1  0.1281005E-004  0.1649421E+03  0.7546771E-02  0.1183227E+00
         21   -1    0    0  503  502  0.00000000000E+00  0.00000000000E+00  0.42550167878E+02  0.42550167878E+02  0.00000000000E+00 0.  1.
         21   -1    0    0  501  503 -0.00000000000E+00 -0.00000000000E+00 -0.68527705981E+03  0.68527705981E+03  0.00000000000E+00 0.  1.
         24    1    1    2    0    0 -0.12022060632E+03  0.26734339602E+01 -0.20142409710E+03  0.24798996810E+03  0.80419002446E+02 0.  1.
          1    1    1    2  501    0 -0.91816854230E+01  0.46045261909E+02 -0.77106068989E+02  0.90276327830E+02  0.00000000000E+00 0. -1.
         -2    1    1    2    0  502  0.12940229174E+03 -0.48718695870E+02 -0.36419672584E+03  0.38956093176E+03  0.00000000000E+00 0.  1.
<mgrwt>
<rscale>  2 0.16494211E+03</rscale>
<asrwt>0</asrwt>
<pdfrwt beam="1">  1       21 0.65461795E-02 0.16494211E+03</pdfrwt>
<pdfrwt beam="2">  1       21 0.10542724E+00 0.16494211E+03</pdfrwt>
<totfact> 0.12422681E+05</totfact>
</mgrwt>
</event>
<event>
 5    1  0.1281005E-004  0.1266608E+03  0.7546771E-02  0.1232496E+00
         21   -1    0    0  503  502  0.00000000000E+00  0.00000000000E+00  0.13950256111E+02  0.13950256111E+02  0.00000000000E+00 0. -1.
         21   -1    0    0  501  503 -0.00000000000E+00 -0.00000000000E+00 -0.11615420854E+04  0.11615420854E+04  0.00000000000E+00 0.  1.
         24    1    1    2    0    0 -0.78937295652E+02  0.31974550165E+02 -0.47468953340E+03  0.48892825402E+03  0.80419002446E+02 0.  1.
          1    1    1    2  501    0  0.10177145428E+03 -0.43416833786E+02 -0.53636846739E+03  0.54766192416E+03  0.00000000000E+00 0. -1.
         -2    1    1    2    0  502 -0.22834158631E+02  0.11442283621E+02 -0.13653382854E+03  0.13890216338E+03  0.00000000000E+00 0.  1.
<mgrwt>
<rscale>  2 0.12666079E+03</rscale>
<asrwt>0</asrwt>
<pdfrwt beam="1">  1       21 0.21461926E-02 0.12666079E+03</pdfrwt>
<pdfrwt beam="2">  1       21 0.17869884E+00 0.12666079E+03</pdfrwt>
<totfact> 0.21003876E+05</totfact>
</mgrwt>
</event>
<event>
 5    1  0.1281005E-004  0.1587765E+03  0.7546771E-02  0.1190085E+00
         21   -1    0    0  503  502  0.00000000000E+00  0.00000000000E+00  0.93911976619E+02  0.93911976619E+02  0.00000000000E+00 0. -1.
         21   -1    0    0  501  503 -0.00000000000E+00 -0.00000000000E+00 -0.27362218081E+03  0.27362218081E+03  0.00000000000E+00 0.  1.
         24    1    1    2    0    0 -0.66923561432E+02  0.81779890043E+02 -0.50611700418E+02  0.14211077955E+03  0.80419002446E+02 0. -1.
          1    1    1    2  501    0 -0.48786429718E+02 -0.14425938533E+02 -0.37519508451E+02  0.63213423745E+02  0.00000000000E+00 0. -1.
         -2    1    1    2    0  502  0.11570999115E+03 -0.67353951510E+02 -0.91578995318E+02  0.16220995413E+03  0.00000000000E+00 0.  1.
<mgrwt>
<rscale>  2 0.15877650E+03</rscale>
<asrwt>0</asrwt>
<pdfrwt beam="1">  1       21 0.14447997E-01 0.15877650E+03</pdfrwt>
<pdfrwt beam="2">  1       21 0.42095720E-01 0.15877650E+03</pdfrwt>
<totfact> 0.23022702E+05</totfact>
</mgrwt>
</event>
<event>
 5    1  0.1281005E-004  0.1151718E+03  0.7546771E-02  0.1251282E+00
         21   -1    0    0  501  502  0.00000000000E+00  0.00000000000E+00  0.19980112249E+03  0.19980112249E+03  0.00000000000E+00 0. -1.
         21   -1    0    0  502  503 -0.00000000000E+00 -0.00000000000E+00 -0.74258780788E+02  0.74258780788E+02  0.00000000000E+00 0.  1.
         24    1    1    2    0    0 -0.32847727779E+02  0.93731191253E+01  0.76542127017E+02  0.11615826163E+03  0.80419002446E+02 0. -1.
          1    1    1    2  501    0 -0.29187579173E+02 -0.57481335062E+02  0.46265619311E+02  0.79350653360E+02  0.00000000000E+00 0. -1.
         -2    1    1    2    0  503  0.62035306952E+02  0.48108215937E+02  0.27345953752E+01  0.78550988288E+02  0.00000000000E+00 0.  1.
<mgrwt>
<rscale>  2 0.11517179E+03</rscale>
<asrwt>0</asrwt>
<pdfrwt beam="1">  1       21 0.30738634E-01 0.11517179E+03</pdfrwt>
<pdfrwt beam="2">  1       21 0.11424428E-01 0.11517179E+03</pdfrwt>
<totfact> 0.65468887E+05</totfact>
</mgrwt>
</event>
<event>
 5    1  0.1281005E-004  0.4748646E+03  0.7546771E-02  0.1020556E+00
         21   -1    0    0  501  502  0.00000000000E+00  0.00000000000E+00  0.15894491137E+04  0.15894491137E+04  0.00000000000E+00 0. -1.
         21   -1    0    0  502  503 -0.00000000000E+00 -0.00000000000E+00 -0.14644071586E+03  0.14644071586E+03  0.00000000000E+00 0.  1.
         24    1    1    2    0    0  0.32446503994E+03  0.63600125842E+02  0.46582896172E+03  0.57687639550E+03  0.80419002446E+02 0.  1.
          1    1    1    2  501    0 -0.46088975110E+03 -0.92295574148E+02  0.84482725086E+03  0.96678380182E+03  0.00000000000E+00 0. -1.
         -2    1    1    2    0  503  0.13642471116E+03  0.28695448306E+02  0.13235218529E+03  0.19222963226E+03  0.00000000000E+00 0.  1.
<mgrwt>
<rscale>  2 0.47486456E+03</rscale>
<asrwt>0</asrwt>
<pdfrwt beam="1">  1       21 0.24453062E+00 0.47486456E+03</pdfrwt>
<pdfrwt beam="2">  1       21 0.22529342E-01 0.47486456E+03</pdfrwt>
<totfact> 0.10765724E+03</totfact>
</mgrwt>
</event>
<event>
 5    1  0.1281005E-004  0.1272135E+03  0.7546771E-02  0.1231650E+00
         21   -1    0    0  503  502  0.00000000000E+00  0.00000000000E+00  0.55064469935E+02  0.55064469935E+02  0.00000000000E+00 0. -1.
         21   -1    0    0  501  503 -0.00000000000E+00 -0.00000000000E+00 -0.29724805267E+03  0.29724805267E+03  0.00000000000E+00 0.  1.
         24    1    1    2    0    0  0.12695772238E+02 -0.94272217896E+01 -0.72989453582E+02  0.10974849171E+03  0.80419002446E+02 0. -1.
          1    1    1    2  501    0 -0.92450039694E+02  0.57730516026E+01 -0.75762229093E+02  0.11966726086E+03  0.00000000000E+00 0. -1.
         -2    1    1    2    0  502  0.79754267456E+02  0.36541701870E+01 -0.93431900059E+02  0.12289677004E+03  0.00000000000E+00 0.  1.
<mgrwt>
<rscale>  2 0.12721351E+03</rscale>
<asrwt>0</asrwt>
<pdfrwt beam="1">  1       21 0.84714567E-02 0.12721351E+03</pdfrwt>
<pdfrwt beam="2">  1       21 0.45730471E-01 0.12721351E+03</pdfrwt>
<totfact> 0.50220360E+05</totfact>
</mgrwt>
</event>
<event>
 5    1  0.1281005E-004  0.1724761E+03  0.7546771E-02  0.1175290E+00
         21   -1    0    0  501  502  0.00000000000E+00  0.00000000000E+00  0.69388757400E+02  0.69388757400E+02  0.00000000000E+00 0.  1.
         21   -1    0    0  502  503 -0.00000000000E+00 -0.00000000000E+00 -0.43484597620E+03  0.43484597620E+03  0.00000000000E+00 0. -1.
         24    1    1    2    0    0 -0.73355948439E+02 -0.72415000896E+02 -0.16766764790E+03  0.21261393095E+03  0.80419002446E+02 0. -1.
          1    1    1    2  501    0 -0.63309705858E+02  0.10484661249E+02 -0.55648149588E+02  0.84939764127E+02  0.00000000000E+00 0. -1.
         -2    1    1    2    0  503  0.13666565430E+03  0.61930339647E+02 -0.14214142131E+03  0.20668103852E+03  0.00000000000E+00 0.  1.
<mgrwt>
<rscale>  2 0.17247610E+03</rscale>
<asrwt>0</asrwt>
<pdfrwt beam="1">  1       21 0.10675193E-01 0.17247610E+03</pdfrwt>
<pdfrwt beam="2">  1       21 0.66899381E-01 0.17247610E+03</pdfrwt>
<totfact> 0.14895794E+05</totfact>
</mgrwt>
</event>
<event>
 5    1  0.1281005E-004  0.1063680E+03  0.7546771E-02  0.1267448E+00
         21   -1    0    0  501  502  0.00000000000E+00  0.00000000000E+00  0.19710920806E+03  0.19710920806E+03  0.00000000000E+00 0.  1.
         21   -1    0    0  502  503 -0.00000000000E+00 -0.00000000000E+00 -0.61568069376E+02  0.61568069376E+02  0.00000000000E+00 0.  1.
         24    1    1    2    0    0  0.57965401139E+02  0.41566237768E+01  0.30032119366E+02  0.10366488990E+03  0.80419002446E+02 0.  1.
          1    1    1    2  501    0  0.24897870193E+02  0.14174485895E+02  0.24714130273E+02  0.37836599024E+02  0.00000000000E+00 0. -1.
         -2    1    1    2    0  503 -0.82863271332E+02 -0.18331109672E+02  0.80794889049E+02  0.11717578851E+03  0.00000000000E+00 0.  1.
<mgrwt>
<rscale>  2 0.10636799E+03</rscale>
<asrwt>0</asrwt>
<pdfrwt beam="1">  1       21 0.30324493E-01 0.10636799E+03</pdfrwt>
<pdfrwt beam="2">  1       21 0.94720108E-02 0.10636799E+03</pdfrwt>
<totfact> 0.93193207E+05</totfact>
</mgrwt>
</event>
<event>
 5    1  0.1281005E-004  0.1460819E+03  0.7546771E-02  0.1205372E+00
         21   -1    0    0  501  502  0.00000000000E+00  0.00000000000E+00  0.34726111758E+03  0.34726111758E+03  0.00000000000E+00 0. -1.
         21   -1    0    0  502  503 -0.00000000000E+00 -0.00000000000E+00 -0.64665289000E+02  0.64665289000E+02  0.00000000000E+00 0.  1.
         24    1    1    2    0    0  0.15719686575E+02 -0.52044377213E+02  0.53174083253E+02  0.11068163727E+03  0.80419002446E+02 0.  1.
          1    1    1    2  501    0 -0.77208525896E+02  0.93256182490E+02  0.14779758773E+03  0.19105496325E+03  0.00000000000E+00 0. -1.
         -2    1    1    2    0  503  0.61488839321E+02 -0.41211805277E+02  0.81624157595E+02  0.11018980605E+03  0.00000000000E+00 0.  1.
<mgrwt>
<rscale>  2 0.14608188E+03</rscale>
<asrwt>0</asrwt>
<pdfrwt beam="1">  1       21 0.53424786E-01 0.14608188E+03</pdfrwt>
<pdfrwt beam="2">  1       21 0.99485062E-02 0.14608188E+03</pdfrwt>
<totfact> 0.27463874E+05</totfact>
</mgrwt>
</event>
<event>
 5    1  0.1281005E-004  0.2035866E+03  0.7546771E-02  0.1146748E+00
         21   -1    0    0  503  502  0.00000000000E+00  0.00000000000E+00  0.29338827563E+03  0.29338827563E+03  0.00000000000E+00 0. -1.
         21   -1    0    0  501  503 -0.00000000000E+00 -0.00000000000E+00 -0.15650444612E+03  0.15650444612E+03  0.00000000000E+00 0. -1.
         24    1    1    2    0    0  0.20871573649E+02  0.12243638637E+03  0.10665114094E+03  0.18239510167E+03  0.80419002446E+02 0. -1.
          1    1    1    2  501    0 -0.88316863884E+02 -0.15944963811E+03 -0.61848142345E+01  0.18237956976E+03  0.00000000000E+00 0. -1.
         -2    1    1    2    0  502  0.67445290235E+02  0.37013251743E+02  0.36417502802E+02  0.85118050317E+02  0.00000000000E+00 0.  1.
<mgrwt>
<rscale>  2 0.20358663E+03</rscale>
<asrwt>0</asrwt>
<pdfrwt beam="1">  1       21 0.45136658E-01 0.20358663E+03</pdfrwt>
<pdfrwt beam="2">  1       21 0.24077607E-01 0.20358663E+03</pdfrwt>
<totfact> 0.76261485E+04</totfact>
</mgrwt>
</event>
<event>
 5    1  0.1281005E-004  0.1203941E+03  0.7546771E-02  0.1242448E+00
         21   -1    0    0  503  502  0.00000000000E+00  0.00000000000E+00  0.16986078531E+03  0.16986078531E+03  0.00000000000E+00 0.  1.
         21   -1    0    0  501  503 -0.00000000000E+00 -0.00000000000E+00 -0.85709507689E+02  0.85709507689E+02  0.00000000000E+00 0. -1.
         24    1    1    2    0    0  0.36442582112E+02 -0.64805848804E+02  0.43295041784E+02  0.11776899604E+03  0.80419002446E+02 0.  0.
          1    1    1    2  501    0  0.75021929635E+01 -0.27782869663E+02  0.13112048492E+02  0.31624303338E+02  0.00000000000E+00 0. -1.
         -2    1    1    2    0  502 -0.43944775076E+02  0.92588718466E+02  0.27744187345E+02  0.10617699362E+03  0.00000000000E+00 0.  1.
<mgrwt>
<rscale>  2 0.12039405E+03</rscale>
<asrwt>0</asrwt>
<pdfrwt beam="1">  1       21 0.26132429E-01 0.12039405E+03</pdfrwt>
<pdfrwt beam="2">  1       21 0.13186078E-01 0.12039405E+03</pdfrwt>
<totfact> 0.69270849E+05</totfact>
</mgrwt>
</event>
<event>
 5    1  0.1281005E-004  0.1568392E+03  0.7546771E-02  0.1192312E+00
         21   -1    0    0  503  502  0.00000000000E+00  0.00000000000E+00  0.10450488106E+03  0.10450488106E+03  0.00000000000E+00 0. -1.
         21   -1    0    0  501  503 -0.00000000000E+00 -0.00000000000E+00 -0.33932251055E+03  0.33932251055E+03  0.00000000000E+00 0.  1.
         24    1    1    2    0    0 -0.12748950972E+02  0.12183979503E+03  0.10318527153E+02  0.14690527343E+03  0.80419002446E+02 0. -1.
          1    1    1    2  501    0 -0.44430377064E+02 -0.16721912049E+02 -0.60540841330E+02  0.76934220069E+02  0.00000000000E+00 0. -1.
         -2    1    1    2    0  502  0.57179328036E+02 -0.10511788298E+03 -0.18459531532E+03  0.21998789811E+03  0.00000000000E+00 0.  1.
<mgrwt>
<rscale>  2 0.15683922E+03</rscale>
<asrwt>0</asrwt>
<pdfrwt beam="1">  1       21 0.16077674E-01 0.15683922E+03</pdfrwt>
<pdfrwt beam="2">  1       21 0.52203464E-01 0.15683922E+03</pdfrwt>
<totfact> 0.12191831E+05</totfact>
</mgrwt>
</event>
<event>
 5    1  0.1281005E-004  0.1206409E+03  0.7546771E-02  0.1242044E+00
         21   -1    0    0  501  502  0.00000000000E+00  0.00000000000E+00  0.20218405329E+02  0.20218405329E+02  0.00000000000E+00 0.  1.
         21   -1    0    0  502  503 -0.00000000000E+00 -0.00000000000E+00 -0.10978660708E+04  0.10978660708E+04  0.00000000000E+00 0. -1.
         24    1    1    2    0    0  0.51907839447E+02 -0.87162000364E+01 -0.14412271025E+03  0.17323096578E+03  0.80419002446E+02 0.  1.
          1    1    1    2  501    0 -0.93389273099E+02 -0.18970806883E+02 -0.65549120417E+03  0.66238219072E+03  0.00000000000E+00 0. -1.
         -2    1    1    2    0  503  0.41481433651E+02  0.27687006919E+02 -0.27803375102E+03  0.28247131960E+03  0.00000000000E+00 0.  1.
<mgrwt>
<rscale>  2 0.12064088E+03</rscale>
<asrwt>0</asrwt>
<pdfrwt beam="1">  1       21 0.31105241E-02 0.12064088E+03</pdfrwt>
<pdfrwt beam="2">  1       21 0.16890246E+00 0.12064088E+03</pdfrwt>
<totfact> 0.13425650E+05</totfact>
</mgrwt>
</event>
<event>
 5    1  0.1281005E-004  0.2101999E+03  0.7546771E-02  0.1141408E+00
         21   -1    0    0  501  502  0.00000000000E+00  0.00000000000E+00  0.16450077133E+03  0.16450077133E+03  0.00000000000E+00 0. -1.
         21   -1    0    0  502  503 -0.00000000000E+00 -0.00000000000E+00 -0.32108160306E+03  0.32108160306E+03  0.00000000000E+00 0.  1.
         24    1    1    2    0    0 -0.13226745029E+03  0.64505838980E+02 -0.15694430768E+03  0.22968328920E+03  0.80419002446E+02 0.  1.
          1    1    1    2  501    0  0.17181183009E+03 -0.10065403569E+03  0.16868939189E+02  0.19983768656E+03  0.00000000000E+00 0. -1.
         -2    1    1    2    0  503 -0.39544379795E+02  0.36148196714E+02 -0.16505463243E+02  0.56061398626E+02  0.00000000000E+00 0.  1.
<mgrwt>
<rscale>  2 0.21019992E+03</rscale>
<asrwt>0</asrwt>
<pdfrwt beam="1">  1       21 0.25307811E-01 0.21019992E+03</pdfrwt>
<pdfrwt beam="2">  1       21 0.49397169E-01 0.21019992E+03</pdfrwt>
<totfact> 0.57352604E+04</totfact>
</mgrwt>
</event>
<event>
 5    1  0.1281005E-004  0.1756388E+03  0.7546771E-02  0.1172092E+00
         21   -1    0    0  501  502  0.00000000000E+00  0.00000000000E+00  0.20571282203E+03  0.20571282203E+03  0.00000000000E+00 0. -1.
         21   -1    0    0  502  503 -0.00000000000E+00 -0.00000000000E+00 -0.15244109380E+03  0.15244109380E+03  0.00000000000E+00 0. -1.
         24    1    1    2    0    0  0.31975341389E+02 -0.12471079138E+03  0.16060028202E+02  0.15264450335E+03  0.80419002446E+02 0. -1.
          1    1    1    2  501    0 -0.61375336130E+02  0.14912732680E+03  0.16672622407E+02  0.16212300214E+03  0.00000000000E+00 0. -1.
         -2    1    1    2    0  503  0.29399994741E+02 -0.24416535427E+02  0.20539077613E+02  0.43386410340E+02  0.00000000000E+00 0.  1.
<mgrwt>
<rscale>  2 0.17563878E+03</rscale>
<asrwt>0</asrwt>
<pdfrwt beam="1">  1       21 0.31648127E-01 0.17563878E+03</pdfrwt>
<pdfrwt beam="2">  1       21 0.23452476E-01 0.17563878E+03</pdfrwt>
<totfact> 0.16504988E+05</totfact>
</mgrwt>
</event>
<event>
 5    1  0.1281005E-004  0.8180826E+02  0.7546771E-02  0.1323997E+00
         21   -1    0    0  501  502  0.00000000000E+00  0.00000000000E+00  0.25469874023E+02  0.25469874023E+02  0.00000000000E+00 0. -1.
         21   -1    0    0  502  503 -0.00000000000E+00 -0.00000000000E+00 -0.26478390092E+03  0.26478390092E+03  0.00000000000E+00 0.  1.
         24    1    1    2    0    0 -0.18687567325E+02 -0.13490085661E+02 -0.13074766340E+03  0.15522040788E+03  0.80419002446E+02 0.  0.
          1    1    1    2  501    0  0.46757892000E+02 -0.39312952027E+01 -0.57558781396E+02  0.74261489764E+02  0.00000000000E+00 0. -1.
         -2    1    1    2    0  503 -0.28070324674E+02  0.17421380864E+02 -0.51007582102E+02  0.60771877298E+02  0.00000000000E+00 0.  1.
<mgrwt>
<rscale>  2 0.81808257E+02</rscale>
<asrwt>0</asrwt>
<pdfrwt beam="1">  1       21 0.39184425E-02 0.81808257E+02</pdfrwt>
<pdfrwt beam="2">  1       21 0.40735981E-01 0.81808257E+02</pdfrwt>
<totfact> 0.23024033E+06</totfact>
</mgrwt>
</event>
<event>
 5    1  0.1281005E-004  0.1443139E+03  0.7546771E-02  0.1207639E+00
         21   -1    0    0  501  502  0.00000000000E+00  0.00000000000E+00  0.22806354332E+03  0.22806354332E+03  0.00000000000E+00 0. -1.
         21   -1    0    0  502  503 -0.00000000000E+00 -0.00000000000E+00 -0.93622713043E+02  0.93622713043E+02  0.00000000000E+00 0. -1.
         24    1    1    2    0    0 -0.68747622506E+02  0.24051388845E+02  0.67982681282E+02  0.12803736101E+03  0.80419002446E+02 0. -1.
          1    1    1    2  501    0  0.11978389409E+03  0.76852583620E+01  0.56753253839E+02  0.13277114258E+03  0.00000000000E+00 0. -1.
         -2    1    1    2    0  503 -0.51036271585E+02 -0.31736647207E+02  0.97048951560E+01  0.60877752778E+02  0.00000000000E+00 0.  1.
<mgrwt>
<rscale>  2 0.14431394E+03</rscale>
<asrwt>0</asrwt>
<pdfrwt beam="1">  1       21 0.35086699E-01 0.14431394E+03</pdfrwt>
<pdfrwt beam="2">  1       21 0.14403494E-01 0.14431394E+03</pdfrwt>
<totfact> 0.33394876E+05</totfact>
</mgrwt>
</event>
<event>
 5    1  0.1281005E-004  0.1382786E+03  0.7546771E-02  0.1215664E+00
         21   -1    0    0  501  502  0.00000000000E+00  0.00000000000E+00  0.17157835802E+02  0.17157835802E+02  0.00000000000E+00 0.  1.
         21   -1    0    0  502  503 -0.00000000000E+00 -0.00000000000E+00 -0.11448623885E+04  0.11448623885E+04  0.00000000000E+00 0. -1.
         24    1    1    2    0    0  0.57369928240E+02 -0.29708160955E+02 -0.33479147799E+03  0.35032332663E+03  0.80419002446E+02 0.  1.
          1    1    1    2  501    0 -0.67119778392E+02  0.90030277071E+02 -0.53225217555E+03  0.54396957067E+03  0.00000000000E+00 0. -1.
         -2    1    1    2    0  503  0.97498501517E+01 -0.60322116116E+02 -0.26066089916E+03  0.26772732700E+03  0.00000000000E+00 0.  1.
<mgrwt>
<rscale>  2 0.13827861E+03</rscale>
<asrwt>0</asrwt>
<pdfrwt beam="1">  1       21 0.26396666E-02 0.13827861E+03</pdfrwt>
<pdfrwt beam="2">  1       21 0.17613271E+00 0.13827861E+03</pdfrwt>
<totfact> 0.15522446E+05</totfact>
</mgrwt>
</event>
<event>
 5    1  0.1281005E-004  0.1968547E+03  0.7546771E-02  0.1152420E+00
         21   -1    0    0  503  502  0.00000000000E+00  0.00000000000E+00  0.59210193279E+03  0.59210193279E+03  0.00000000000E+00 0.  1.
         21   -1    0    0  501  503 -0.00000000000E+00 -0.00000000000E+00 -0.76753292711E+02  0.76753292711E+02  0.00000000000E+00 0. -1.
         24    1    1    2    0    0 -0.38521169479E+02 -0.10373893703E+03  0.82519459421E+02  0.15975708026E+03  0.80419002446E+02 0. -1.
          1    1    1    2  501    0 -0.13735265727E+02 -0.72140285867E+02  0.65099985181E+02  0.98137079843E+02  0.00000000000E+00 0. -1.
         -2    1    1    2    0  502  0.52256435206E+02  0.17587922290E+03  0.36772919547E+03  0.41096106540E+03  0.00000000000E+00 0.  1.
<mgrwt>
<rscale>  2 0.19685468E+03</rscale>
<asrwt>0</asrwt>
<pdfrwt beam="1">  1       21 0.91092602E-01 0.19685468E+03</pdfrwt>
<pdfrwt beam="2">  1       21 0.11808199E-01 0.19685468E+03</pdfrwt>
<totfact> 0.61578649E+04</totfact>
</mgrwt>
</event>
<event>
 5    1  0.1281005E-004  0.1388329E+03  0.7546771E-02  0.1214908E+00
         21   -1    0    0  501  502  0.00000000000E+00  0.00000000000E+00  0.11076974273E+03  0.11076974273E+03  0.00000000000E+00 0.  1.
         21   -1    0    0  502  503 -0.00000000000E+00 -0.00000000000E+00 -0.17513633372E+03  0.17513633372E+03  0.00000000000E+00 0.  1.
         24    1    1    2    0    0  0.80376953500E+02 -0.27582505495E+02 -0.38409025686E+02  0.12314105112E+03  0.80419002446E+02 0.  1.
          1    1    1    2  501    0  0.34910803020E+02  0.28980054670E+02 -0.82896168893E+01  0.46122938808E+02  0.00000000000E+00 0. -1.
         -2    1    1    2    0  503 -0.11528775652E+03 -0.13975491750E+01 -0.17667948410E+02  0.11664208652E+03  0.00000000000E+00 0.  1.
<mgrwt>
<rscale>  2 0.13883291E+03</rscale>
<asrwt>0</asrwt>
<pdfrwt beam="1">  1       21 0.17041499E-01 0.13883291E+03</pdfrwt>
<pdfrwt beam="2">  1       21 0.26944051E-01 0.13883291E+03</pdfrwt>
<totfact> 0.41112780E+05</totfact>
</mgrwt>
</event>
<event>
 5    1  0.1281005E-004  0.1225615E+03  0.7546771E-02  0.1238930E+00
         21   -1    0    0  503  502  0.00000000000E+00  0.00000000000E+00  0.32248424447E+02  0.32248424447E+02  0.00000000000E+00 0. -1.
         21   -1    0    0  501  503 -0.00000000000E+00 -0.00000000000E+00 -0.46704651901E+03  0.46704651901E+03  0.00000000000E+00 0.  1.
         24    1    1    2    0    0  0.34438937893E+02  0.27475479830E+02 -0.17084344288E+03  0.19389595242E+03  0.80419002446E+02 0.  0.
          1    1    1    2  501    0 -0.73742888397E+02 -0.65579510977E+02 -0.16251831669E+03  0.19013387155E+03  0.00000000000E+00 0. -1.
         -2    1    1    2    0  502  0.39303950504E+02  0.38104031147E+02 -0.10143633499E+03  0.11526511949E+03  0.00000000000E+00 0.  1.
<mgrwt>
<rscale>  2 0.12256154E+03</rscale>
<asrwt>0</asrwt>
<pdfrwt beam="1">  1       21 0.49612963E-02 0.12256154E+03</pdfrwt>
<pdfrwt beam="2">  1       21 0.71853307E-01 0.12256154E+03</pdfrwt>
<totfact> 0.48193918E+05</totfact>
</mgrwt>
</event>
<event>
 5    1  0.1281005E-004  0.1767950E+03  0.7546771E-02  0.1170941E+00
         21   -1    0    0  501  502  0.00000000000E+00  0.00000000000E+00  0.38311681730E+03  0.38311681730E+03  0.00000000000E+00 0. -1.
         21   -1    0    0  502  503 -0.00000000000E+00 -0.00000000000E+00 -0.91528982301E+02  0.91528982301E+02  0.00000000000E+00 0.  1.
         24    1    1    2    0    0  0.24809834839E+02  0.95434316740E+02  0.34191909828E+02  0.13175560469E+03  0.80419002446E+02 0.  1.
          1    1    1    2  501    0 -0.61798499730E+02  0.47982013561E+02  0.95770396036E+02  0.12366607033E+03  0.00000000000E+00 0. -1.
         -2    1    1    2    0  503  0.36988664891E+02 -0.14341633030E+03  0.16162552913E+03  0.21922412457E+03  0.00000000000E+00 0.  1.
<mgrwt>
<rscale>  2 0.17679503E+03</rscale>
<asrwt>0</asrwt>
<pdfrwt beam="1">  1       21 0.58941048E-01 0.17679503E+03</pdfrwt>
<pdfrwt beam="2">  1       21 0.14081382E-01 0.17679503E+03</pdfrwt>
<totfact> 0.11913032E+05</totfact>
</mgrwt>
</event>
<event>
 5    1  0.1281005E-004  0.3056744E+03  0.7546771E-02  0.1082438E+00
         21   -1    0    0  501  502  0.00000000000E+00  0.00000000000E+00  0.44068093528E+03  0.44068093528E+03  0.00000000000E+00 0.  1.
         21   -1    0    0  502  503 -0.00000000000E+00 -0.00000000000E+00 -0.22702099060E+03  0.22702099060E+03  0.00000000000E+00 0. -1.
         24    1    1    2    0    0  0.41922974504E+02 -0.68893709561E+02  0.10762253759E+03  0.15669622063E+03  0.80419002446E+02 0.  0.
          1    1    1    2  501    0  0.51355511886E+02  0.27049291538E+03  0.33639830897E+02  0.27737239245E+03  0.00000000000E+00 0. -1.
         -2    1    1    2    0  503 -0.93278486390E+02 -0.20159920582E+03  0.72397576192E+02  0.23363331280E+03  0.00000000000E+00 0.  1.
<mgrwt>
<rscale>  2 0.30567436E+03</rscale>
<asrwt>0</asrwt>
<pdfrwt beam="1">  1       21 0.67797067E-01 0.30567436E+03</pdfrwt>
<pdfrwt beam="2">  1       21 0.34926306E-01 0.30567436E+03</pdfrwt>
<totfact> 0.14813515E+04</totfact>
</mgrwt>
</event>
<event>
 5    1  0.1281005E-004  0.1636270E+03  0.7546771E-02  0.1184662E+00
         21   -1    0    0  501  502  0.00000000000E+00  0.00000000000E+00  0.44050951739E+02  0.44050951739E+02  0.00000000000E+00 0.  1.
         21   -1    0    0  502  503 -0.00000000000E+00 -0.00000000000E+00 -0.70778576967E+03  0.70778576967E+03  0.00000000000E+00 0. -1.
         24    1    1    2    0    0 -0.18176406480E+01  0.61370545324E+02 -0.35133683727E+03  0.36561514853E+03  0.80419002446E+02 0. -1.
          1    1    1    2  501    0 -0.47937113575E+02 -0.13157130316E+03 -0.17537367799E+03  0.22442125925E+03  0.00000000000E+00 0. -1.
         -2    1    1    2    0  503  0.49754754223E+02  0.70200757839E+02 -0.13702430267E+03  0.16180031363E+03  0.00000000000E+00 0.  1.
<mgrwt>
<rscale>  2 0.16362704E+03</rscale>
<asrwt>0</asrwt>
<pdfrwt beam="1">  1       21 0.67770696E-02 0.16362704E+03</pdfrwt>
<pdfrwt beam="2">  1       21 0.10889012E+00 0.16362704E+03</pdfrwt>
<totfact> 0.10838976E+05</totfact>
</mgrwt>
</event>
<event>
 5    1  0.1281005E-004  0.1338662E+03  0.7546771E-02  0.1221829E+00
         21   -1    0    0  501  502  0.00000000000E+00  0.00000000000E+00  0.21605733754E+03  0.21605733754E+03  0.00000000000E+00 0.  1.
         21   -1    0    0  502  503 -0.00000000000E+00 -0.00000000000E+00 -0.86702676913E+02  0.86702676913E+02  0.00000000000E+00 0. -1.
         24    1    1    2    0    0  0.55233411940E+01  0.25680196634E+02  0.22175897973E+02  0.87458368395E+02  0.80419002446E+02 0.  0.
          1    1    1    2  501    0  0.52876628905E+01  0.78356771173E+02  0.67073856452E+02  0.10327945191E+03  0.00000000000E+00 0. -1.
         -2    1    1    2    0  503 -0.10811004085E+02 -0.10403696781E+03  0.40104906199E+02  0.11202219414E+03  0.00000000000E+00 0.  1.
<mgrwt>
<rscale>  2 0.13386618E+03</rscale>
<asrwt>0</asrwt>
<pdfrwt beam="1">  1       21 0.33239590E-01 0.13386618E+03</pdfrwt>
<pdfrwt beam="2">  1       21 0.13338873E-01 0.13386618E+03</pdfrwt>
<totfact> 0.42685531E+05</totfact>
</mgrwt>
</event>
<event>
 5    1  0.1281005E-004  0.1385950E+03  0.7546771E-02  0.1215232E+00
         21   -1    0    0  503  502  0.00000000000E+00  0.00000000000E+00  0.72374342275E+02  0.72374342275E+02  0.00000000000E+00 0.  1.
         21   -1    0    0  501  503 -0.00000000000E+00 -0.00000000000E+00 -0.26988716337E+03  0.26988716337E+03  0.00000000000E+00 0. -1.
         24    1    1    2    0    0 -0.23691817095E+02 -0.63734025488E+02 -0.94673404962E+02  0.14161072616E+03  0.80419002446E+02 0.  0.
          1    1    1    2  501    0  0.80853683819E+02  0.78655774721E+02 -0.74022235717E+02  0.13491975565E+03  0.00000000000E+00 0. -1.
         -2    1    1    2    0  502 -0.57161866724E+02 -0.14921749233E+02 -0.28817180421E+02  0.65731023839E+02  0.00000000000E+00 0.  1.
<mgrwt>
<rscale>  2 0.13859498E+03</rscale>
<asrwt>0</asrwt>
<pdfrwt beam="1">  1       21 0.11134514E-01 0.13859498E+03</pdfrwt>
<pdfrwt beam="2">  1       21 0.41521102E-01 0.13859498E+03</pdfrwt>
<totfact> 0.37826324E+05</totfact>
</mgrwt>
</event>
<event>
 5    1  0.1281005E-004  0.1125048E+03  0.7546771E-02  0.1256000E+00
         21   -1    0    0  503  502  0.00000000000E+00  0.00000000000E+00  0.48866776530E+03  0.48866776530E+03  0.00000000000E+00 0.  1.
         21   -1    0    0  501  503 -0.00000000000E+00 -0.00000000000E+00 -0.27470207587E+02  0.27470207587E+02  0.00000000000E+00 0. -1.
         24    1    1    2    0    0  0.47134189373E+02  0.24986014845E+02  0.14383022929E+03  0.17320589931E+03  0.80419002446E+02 0. -1.
          1    1    1    2  501    0 -0.36448595951E+02  0.44885879918E+02  0.11799158255E+03  0.13139732081E+03  0.00000000000E+00 0. -1.
         -2    1    1    2    0  502 -0.10685593423E+02 -0.69871894763E+02  0.19937574587E+03  0.21153475277E+03  0.00000000000E+00 0.  1.
<mgrwt>
<rscale>  2 0.11250484E+03</rscale>
<asrwt>0</asrwt>
<pdfrwt beam="1">  1       21 0.75179650E-01 0.11250484E+03</pdfrwt>
<pdfrwt beam="2">  1       21 0.42261861E-02 0.11250484E+03</pdfrwt>
<totfact> 0.57084905E+05</totfact>
</mgrwt>
</event>
<event>
 5    1  0.1281005E-004  0.1580136E+03  0.7546771E-02  0.1190958E+00
         21   -1    0    0  501  502  0.00000000000E+00  0.00000000000E+00  0.20666474627E+03  0.20666474627E+03  0.00000000000E+00 0. -1.
         21   -1    0    0  502  503 -0.00000000000E+00 -0.00000000000E+00 -0.12920929342E+03  0.12920929342E+03  0.00000000000E+00 0.  1.
         24    1    1    2    0    0 -0.78724297640E+01  0.34020114060E+02 -0.14850524366E+01  0.87685601134E+02  0.80419002446E+02 0.  0.
          1    1    1    2  501    0  0.61240559434E+02 -0.11562849094E+03  0.74523069282E+02  0.15057902209E+03  0.00000000000E+00 0. -1.
         -2    1    1    2    0  503 -0.53368129670E+02  0.81608376883E+02  0.44174360089E+01  0.97609416466E+02  0.00000000000E+00 0.  1.
<mgrwt>
<rscale>  2 0.15801360E+03</rscale>
<asrwt>0</asrwt>
<pdfrwt beam="1">  1       21 0.31794576E-01 0.15801360E+03</pdfrwt>
<pdfrwt beam="2">  1       21 0.19878353E-01 0.15801360E+03</pdfrwt>
<totfact> 0.22420878E+05</totfact>
</mgrwt>
</event>
<event>
 5    1  0.1281005E-004  0.1984313E+03  0.7546771E-02  0.1151069E+00
         21   -1    0    0  501  502  0.00000000000E+00  0.00000000000E+00  0.96068618826E+02  0.96068618826E+02  0.00000000000E+00 0. -1.
         21   -1    0    0  502  503 -0.00000000000E+00 -0.00000000000E+00 -0.41481923114E+03  0.41481923114E+03  0.00000000000E+00 0.  1.
         24    1    1    2    0    0  0.64936556806E+02  0.22539932485E+02 -0.88896367344E+02  0.13818315761E+03  0.80419002446E+02 0.  0.
          1    1    1    2  501    0 -0.15493911581E+03 -0.89463659044E+02 -0.11811202621E+03  0.21438359693E+03  0.00000000000E+00 0. -1.
         -2    1    1    2    0  503  0.90002559000E+02  0.66923726559E+02 -0.11174221876E+03  0.15832109543E+03  0.00000000000E+00 0.  1.
<mgrwt>
<rscale>  2 0.19843131E+03</rscale>
<asrwt>0</asrwt>
<pdfrwt beam="1">  1       21 0.14779788E-01 0.19843131E+03</pdfrwt>
<pdfrwt beam="2">  1       21 0.63818342E-01 0.19843131E+03</pdfrwt>
<totfact> 0.91181176E+04</totfact>
</mgrwt>
</event>
<event>
 5    1  0.1281005E-004  0.7134931E+02  0.7546771E-02  0.1355564E+00
         21   -1    0    0  501  502  0.00000000000E+00  0.00000000000E+00  0.19551768208E+04  0.19551768208E+04  0.00000000000E+00 0. -1.
         21   -1    0    0  502  503 -0.00000000000E+00 -0.00000000000E+00 -0.43979458314E+01  0.43979458314E+01  0.00000000000E+00 0.  1.
         24    1    1    2    0    0  0.12161822678E+02 -0.43403285621E+01  0.45109975879E+03  0.45839388817E+03  0.80419002446E+02 0.  1.
          1    1    1    2  501    0 -0.25700797986E+02 -0.20555812015E+02  0.11029460082E+04  0.11034368897E+04  0.00000000000E+00 0. -1.
         -2    1    1    2    0  503  0.13538975308E+02  0.24896140577E+02  0.39673310795E+03  0.39774398878E+03  0.00000000000E+00 0.  1.
<mgrwt>
<rscale>  2 0.71349309E+02</rscale>
<asrwt>0</asrwt>
<pdfrwt beam="1">  1       21 0.30079574E+00 0.71349309E+02</pdfrwt>
<pdfrwt beam="2">  1       21 0.67660861E-03 0.71349309E+02</pdfrwt>
<totfact> 0.26579624E+05</totfact>
</mgrwt>
</event>
<event>
 5    1  0.1281005E-004  0.1629150E+03  0.7546771E-02  0.1185444E+00
         21   -1    0    0  503  502  0.00000000000E+00  0.00000000000E+00  0.27697667415E+03  0.27697667415E+03  0.00000000000E+00 0. -1.
         21   -1    0    0  501  503 -0.00000000000E+00 -0.00000000000E+00 -0.97669042786E+02  0.97669042786E+02  0.00000000000E+00 0.  1.
         24    1    1    2    0    0 -0.95455008500E+02  0.21519884659E+02  0.92938279813E+02  0.15709711612E+03  0.80419002446E+02 0.  1.
          1    1    1    2  501    0  0.14486756301E+03 -0.32698250833E+02  0.57616641627E+02  0.15929677904E+03  0.00000000000E+00 0. -1.
         -2    1    1    2    0  502 -0.49412554506E+02  0.11178366174E+02  0.28752709923E+02  0.58251821783E+02  0.00000000000E+00 0.  1.
<mgrwt>
<rscale>  2 0.16291502E+03</rscale>
<asrwt>0</asrwt>
<pdfrwt beam="1">  1       21 0.42611796E-01 0.16291502E+03</pdfrwt>
<pdfrwt beam="2">  1       21 0.15026007E-01 0.16291502E+03</pdfrwt>
<totfact> 0.20897048E+05</totfact>
</mgrwt>
</event>
<event>
 5    1  0.1281005E-004  0.1503837E+03  0.7546771E-02  0.1200002E+00
         21   -1    0    0  503  502  0.00000000000E+00  0.00000000000E+00  0.42162315645E+02  0.42162315645E+02  0.00000000000E+00 0.  1.
         21   -1    0    0  501  503 -0.00000000000E+00 -0.00000000000E+00 -0.55159040068E+03  0.55159040068E+03  0.00000000000E+00 0. -1.
         24    1    1    2    0    0 -0.36418686630E+02 -0.26573100597E+02 -0.20113683024E+03  0.22125932940E+03  0.80419002446E+02 0.  1.
          1    1    1    2  501    0 -0.72115089352E+02 -0.38781975158E+02 -0.13363642564E+03  0.15672690250E+03  0.00000000000E+00 0. -1.
         -2    1    1    2    0  502  0.10853377598E+03  0.65355075754E+02 -0.17465482916E+03  0.21576648443E+03  0.00000000000E+00 0.  1.
<mgrwt>
<rscale>  2 0.15038372E+03</rscale>
<asrwt>0</asrwt>
<pdfrwt beam="1">  1       21 0.64865099E-02 0.15038372E+03</pdfrwt>
<pdfrwt beam="2">  1       21 0.84860064E-01 0.15038372E+03</pdfrwt>
<totfact> 0.21015356E+05</totfact>
</mgrwt>
</event>
<event>
 5    1  0.1281005E-004  0.3403211E+03  0.7546771E-02  0.1066659E+00
         21   -1    0    0  503  502  0.00000000000E+00  0.00000000000E+00  0.12931885859E+03  0.12931885859E+03  0.00000000000E+00 0.  1.
         21   -1    0    0  501  503 -0.00000000000E+00 -0.00000000000E+00 -0.10079764981E+04  0.10079764981E+04  0.00000000000E+00 0. -1.
         24    1    1    2    0    0  0.43140236945E+01  0.22530793015E+02 -0.20762816394E+03  0.22383681076E+03  0.80419002446E+02 0.  1.
          1    1    1    2  501    0 -0.71326107623E+02  0.27907963471E+03 -0.44718408421E+03  0.53192712030E+03  0.00000000000E+00 0. -1.
         -2    1    1    2    0  502  0.67012083928E+02 -0.30161042773E+03 -0.22384539135E+03  0.38153142562E+03  0.00000000000E+00 0.  1.
<mgrwt>
<rscale>  2 0.34032109E+03</rscale>
<asrwt>0</asrwt>
<pdfrwt beam="1">  1       21 0.19895209E-01 0.34032109E+03</pdfrwt>
<pdfrwt beam="2">  1       21 0.15507331E+00 0.34032109E+03</pdfrwt>
<totfact> 0.58168716E+03</totfact>
</mgrwt>
</event>
<event>
 5    1  0.1281005E-004  0.1082875E+03  0.7546771E-02  0.1263774E+00
         21   -1    0    0  503  502  0.00000000000E+00  0.00000000000E+00  0.24307130449E+03  0.24307130449E+03  0.00000000000E+00 0. -1.
         21   -1    0    0  501  503 -0.00000000000E+00 -0.00000000000E+00 -0.52691246905E+02  0.52691246905E+02  0.00000000000E+00 0. -1.
         24    1    1    2    0    0 -0.78964071765E+01 -0.12512625944E+02  0.11163776995E+03  0.13838036959E+03  0.80419002446E+02 0. -1.
          1    1    1    2  501    0  0.34726763136E+02  0.66218156426E+02  0.32157810270E+02  0.81393593603E+02  0.00000000000E+00 0. -1.
         -2    1    1    2    0  502 -0.26830355959E+02 -0.53705530482E+02  0.46584477360E+02  0.75988588197E+02  0.00000000000E+00 0.  1.
<mgrwt>
<rscale>  2 0.10828749E+03</rscale>
<asrwt>0</asrwt>
<pdfrwt beam="1">  1       21 0.37395585E-01 0.10828749E+03</pdfrwt>
<pdfrwt beam="2">  1       21 0.81063458E-02 0.10828749E+03</pdfrwt>
<totfact> 0.81109106E+05</totfact>
</mgrwt>
</event>
<event>
 5    1  0.1281005E-004  0.2305047E+03  0.7546771E-02  0.1126285E+00
         21   -1    0    0  503  502  0.00000000000E+00  0.00000000000E+00  0.47243402707E+02  0.47243402707E+02  0.00000000000E+00 0. -1.
         21   -1    0    0  501  503 -0.00000000000E+00 -0.00000000000E+00 -0.11324423618E+04  0.11324423618E+04  0.00000000000E+00 0.  1.
         24    1    1    2    0    0  0.75563649128E+02  0.64147405755E+02 -0.25834657439E+03  0.28815780952E+03  0.80419002446E+02 0.  1.
          1    1    1    2  501    0  0.12566424406E+03 -0.30975344282E+02 -0.31910839116E+03  0.34435612307E+03  0.00000000000E+00 0. -1.
         -2    1    1    2    0  502 -0.20122789319E+03 -0.33172061473E+02 -0.50774399355E+03  0.54717183192E+03  0.00000000000E+00 0.  1.
<mgrwt>
<rscale>  2 0.23050465E+03</rscale>
<asrwt>0</asrwt>
<pdfrwt beam="1">  1       21 0.72682158E-02 0.23050465E+03</pdfrwt>
<pdfrwt beam="2">  1       21 0.17422190E+00 0.23050465E+03</pdfrwt>
<totfact> 0.27584918E+04</totfact>
</mgrwt>
</event>
<event>
 5    1  0.1281005E-004  0.1801156E+03  0.7546771E-02  0.1167691E+00
         21   -1    0    0  501  502  0.00000000000E+00  0.00000000000E+00  0.24937318150E+03  0.24937318150E+03  0.00000000000E+00 0. -1.
         21   -1    0    0  502  503 -0.00000000000E+00 -0.00000000000E+00 -0.18116307108E+03  0.18116307108E+03  0.00000000000E+00 0.  1.
         24    1    1    2    0    0  0.55551511556E+02 -0.71528188513E+02 -0.55272738311E+02  0.13313355604E+03  0.80419002446E+02 0.  0.
          1    1    1    2  501    0 -0.40375413044E+02  0.15197550087E+03  0.14376517884E+03  0.21306138433E+03  0.00000000000E+00 0. -1.
         -2    1    1    2    0  503 -0.15176098512E+02 -0.80447312361E+02 -0.20282330109E+02  0.84341312219E+02  0.00000000000E+00 0.  1.
<mgrwt>
<rscale>  2 0.18011559E+03</rscale>
<asrwt>0</asrwt>
<pdfrwt beam="1">  1       21 0.38365105E-01 0.18011559E+03</pdfrwt>
<pdfrwt beam="2">  1       21 0.27871242E-01 0.18011559E+03</pdfrwt>
<totfact> 0.80945921E+04</totfact>
</mgrwt>
</event>
<event>
 5    1  0.1281005E-004  0.1500408E+03  0.7546771E-02  0.1200423E+00
         21   -1    0    0  501  502  0.00000000000E+00  0.00000000000E+00  0.22609833487E+03  0.22609833487E+03  0.00000000000E+00 0.  1.
         21   -1    0    0  502  503 -0.00000000000E+00 -0.00000000000E+00 -0.10936184182E+03  0.10936184182E+03  0.00000000000E+00 0. -1.
         24    1    1    2    0    0  0.26631816104E+02  0.14100101134E+02 -0.32698125969E+01  0.85941690173E+02  0.80419002446E+02 0. -1.
          1    1    1    2  501    0  0.90249046262E+02  0.20020035534E+02  0.27011815508E+02  0.96308516503E+02  0.00000000000E+00 0. -1.
         -2    1    1    2    0  503 -0.11688086237E+03 -0.34120136668E+02  0.92994490142E+02  0.15320997001E+03  0.00000000000E+00 0.  1.
<mgrwt>
<rscale>  2 0.15004082E+03</rscale>
<asrwt>0</asrwt>
<pdfrwt beam="1">  1       21 0.34784359E-01 0.15004082E+03</pdfrwt>
<pdfrwt beam="2">  1       21 0.16824899E-01 0.15004082E+03</pdfrwt>
<totfact> 0.25597714E+05</totfact>
</mgrwt>
</event>
<event>
 5    1  0.1281005E-004  0.1420654E+03  0.7546771E-02  0.1210576E+00
         21   -1    0    0  503  502  0.00000000000E+00  0.00000000000E+00  0.10744388408E+04  0.10744388408E+04  0.00000000000E+00 0. -1.
         21   -1    0    0  501  503 -0.00000000000E+00 -0.00000000000E+00 -0.20648150790E+02  0.20648150790E+02  0.00000000000E+00 0. -1.
         24    1    1    2    0    0 -0.61727076973E+02 -0.74803169895E+02  0.34145284817E+03  0.36395468088E+03  0.80419002446E+02 0. -1.
          1    1    1    2  501    0  0.91180928146E+02  0.87219257673E+02  0.46795433511E+03  0.48466732953E+03  0.00000000000E+00 0. -1.
         -2    1    1    2    0  502 -0.29453851173E+02 -0.12416087778E+02  0.24438350669E+03  0.24646498114E+03  0.00000000000E+00 0.  1.
<mgrwt>
<rscale>  2 0.14206544E+03</rscale>
<asrwt>0</asrwt>
<pdfrwt beam="1">  1       21 0.16529824E+00 0.14206544E+03</pdfrwt>
<pdfrwt beam="2">  1       21 0.31766394E-02 0.14206544E+03</pdfrwt>
<totfact> 0.13587957E+05</totfact>
</mgrwt>
</event>
<event>
 5    1  0.1281005E-004  0.1323718E+03  0.7546771E-02  0.1223978E+00
         21   -1    0    0  501  502  0.00000000000E+00  0.00000000000E+00  0.12403014515E+03  0.12403014515E+03  0.00000000000E+00 0. -1.
         21   -1    0    0  502  503 -0.00000000000E+00 -0.00000000000E+00 -0.17361709547E+03  0.17361709547E+03  0.00000000000E+00 0.  1.
         24    1    1    2    0    0  0.57964228107E+02 -0.28633465965E+02 -0.82809796522E+02  0.13230421561E+03  0.80419002446E+02 0.  1.
          1    1    1    2  501    0 -0.95092695334E+02  0.60436008034E+02  0.17724348690E+02  0.11405824963E+03  0.00000000000E+00 0. -1.
         -2    1    1    2    0  503  0.37128467226E+02 -0.31802542069E+02  0.15498497504E+02  0.51284775378E+02  0.00000000000E+00 0.  1.
<mgrwt>
<rscale>  2 0.13237178E+03</rscale>
<asrwt>0</asrwt>
<pdfrwt beam="1">  1       21 0.19081561E-01 0.13237178E+03</pdfrwt>
<pdfrwt beam="2">  1       21 0.26710322E-01 0.13237178E+03</pdfrwt>
<totfact> 0.34007218E+05</totfact>
</mgrwt>
</event>
<event>
 5    1  0.1281005E-004  0.1259290E+03  0.7546771E-02  0.1233625E+00
         21   -1    0    0  501  502  0.00000000000E+00  0.00000000000E+00  0.55927704906E+02  0.55927704906E+02  0.00000000000E+00 0. -1.
         21   -1    0    0  502  503 -0.00000000000E+00 -0.00000000000E+00 -0.39370666662E+03  0.39370666662E+03  0.00000000000E+00 0. -1.
         24    1    1    2    0    0 -0.51360914602E+02 -0.10366398841E+02 -0.28748993955E+02  0.10019544092E+03  0.80419002446E+02 0. -1.
          1    1    1    2  501    0  0.10292514184E+03  0.15381112082E+02 -0.25059595032E+03  0.27134570891E+03  0.00000000000E+00 0. -1.
         -2    1    1    2    0  503 -0.51564227235E+02 -0.50147132407E+01 -0.58434017439E+02  0.78093221686E+02  0.00000000000E+00 0.  1.
<mgrwt>
<rscale>  2 0.12592899E+03</rscale>
<asrwt>0</asrwt>
<pdfrwt beam="1">  1       21 0.86042622E-02 0.12592899E+03</pdfrwt>
<pdfrwt beam="2">  1       21 0.60570257E-01 0.12592899E+03</pdfrwt>
<totfact> 0.27261154E+05</totfact>
</mgrwt>
</event>
<event>
 5    1  0.1281005E-004  0.1708735E+03  0.7546771E-02  0.1176940E+00
         21   -1    0    0  503  502  0.00000000000E+00  0.00000000000E+00  0.13719159348E+03  0.13719159348E+03  0.00000000000E+00 0.  1.
         21   -1    0    0  501  503 -0.00000000000E+00 -0.00000000000E+00 -0.22757964246E+03  0.22757964246E+03  0.00000000000E+00 0. -1.
         24    1    1    2    0    0  0.12852084976E+02 -0.10495993101E+03 -0.14609563699E+02  0.13365035919E+03  0.80419002446E+02 0. -1.
          1    1    1    2  501    0 -0.23558884171E+02  0.15548032803E+03 -0.84852663782E+02  0.17868723507E+03  0.00000000000E+00 0. -1.
         -2    1    1    2    0  502  0.10706799195E+02 -0.50520397019E+02  0.90741785005E+01  0.52433641676E+02  0.00000000000E+00 0.  1.
<mgrwt>
<rscale>  2 0.17087350E+03</rscale>
<asrwt>0</asrwt>
<pdfrwt beam="1">  1       21 0.21106399E-01 0.17087350E+03</pdfrwt>
<pdfrwt beam="2">  1       21 0.35012252E-01 0.17087350E+03</pdfrwt>
<totfact> 0.16523980E+05</totfact>
</mgrwt>
</event>
<event>
 5    1  0.1281005E-004  0.1293778E+03  0.7546771E-02  0.1228382E+00
         21   -1    0    0  503  502  0.00000000000E+00  0.00000000000E+00  0.30753533091E+03  0.30753533091E+03  0.00000000000E+00 0.  1.
         21   -1    0    0  501  503 -0.00000000000E+00 -0.00000000000E+00 -0.63286590805E+02  0.63286590805E+02  0.00000000000E+00 0. -1.
         24    1    1    2    0    0  0.32663549375E+02  0.28218938686E+02  0.52220811742E+02  0.10515438694E+03  0.80419002446E+02 0.  0.
          1    1    1    2  501    0  0.51142336432E+02  0.35457714576E+02  0.22600032960E+02  0.66208380047E+02  0.00000000000E+00 0. -1.
         -2    1    1    2    0  502 -0.83805885807E+02 -0.63676653262E+02  0.16942789541E+03  0.19945915474E+03  0.00000000000E+00 0.  1.
<mgrwt>
<rscale>  2 0.12937784E+03</rscale>
<asrwt>0</asrwt>
<pdfrwt beam="1">  1       21 0.47313127E-01 0.12937784E+03</pdfrwt>
<pdfrwt beam="2">  1       21 0.97363987E-02 0.12937784E+03</pdfrwt>
<totfact> 0.36776946E+05</totfact>
</mgrwt>
</event>
<event>
 5    1  0.1281005E-004  0.1272887E+03  0.7546771E-02  0.1231535E+00
         21   -1    0    0  501  502  0.00000000000E+00  0.00000000000E+00  0.44337132081E+03  0.44337132081E+03  0.00000000000E+00 0.  1.
         21   -1    0    0  502  503 -0.00000000000E+00 -0.00000000000E+00 -0.37453060474E+02  0.37453060474E+02  0.00000000000E+00 0. -1.
         24    1    1    2    0    0 -0.59433244359E+01 -0.20003090261E+02  0.11888046680E+03  0.14503526491E+03  0.80419002446E+02 0.  0.
          1    1    1    2  501    0  0.52235011528E+02  0.80105836913E+02  0.18909591529E+03  0.21190258780E+03  0.00000000000E+00 0. -1.
         -2    1    1    2    0  503 -0.46291687092E+02 -0.60102746652E+02  0.97941878246E+02  0.12388652858E+03  0.00000000000E+00 0.  1.
<mgrwt>
<rscale>  2 0.12728875E+03</rscale>
<asrwt>0</asrwt>
<pdfrwt beam="1">  1       21 0.68210969E-01 0.12728875E+03</pdfrwt>
<pdfrwt beam="2">  1       21 0.57620096E-02 0.12728875E+03</pdfrwt>
<totfact> 0.41930605E+05</totfact>
</mgrwt>
</event>
<event>
 5    1  0.1281005E-004  0.1144798E+03  0.7546771E-02  0.1252492E+00
         21   -1    0    0  503  502  0.00000000000E+00  0.00000000000E+00  0.51377547419E+02  0.51377547419E+02  0.00000000000E+00 0. -1.
         21   -1    0    0  501  503 -0.00000000000E+00 -0.00000000000E+00 -0.36014700498E+03  0.36014700498E+03  0.00000000000E+00 0.  1.
         24    1    1    2    0    0  0.11238248252E+02 -0.39351247107E+02 -0.23882229831E+02  0.93340214960E+02  0.80419002446E+02 0. -1.
          1    1    1    2  501    0  0.15990029748E+02 -0.46230510234E+02 -0.13327495418E+03  0.14196885059E+03  0.00000000000E+00 0. -1.
         -2    1    1    2    0  502 -0.27228278000E+02  0.85581757341E+02 -0.15161227355E+03  0.17621548684E+03  0.00000000000E+00 0.  1.
<mgrwt>
<rscale>  2 0.11447985E+03</rscale>
<asrwt>0</asrwt>
<pdfrwt beam="1">  1       21 0.79042379E-02 0.11447985E+03</pdfrwt>
<pdfrwt beam="2">  1       21 0.55407233E-01 0.11447985E+03</pdfrwt>
<totfact> 0.38152705E+05</totfact>
</mgrwt>
</event>
<event>
 5    1  0.1281005E-004  0.1793459E+03  0.7546771E-02  0.1168438E+00
         21   -1    0    0  501  502  0.00000000000E+00  0.00000000000E+00  0.25817661239E+02  0.25817661239E+02  0.00000000000E+00 0. -1.
         21   -1    0    0  502  503 -0.00000000000E+00 -0.00000000000E+00 -0.12643541331E+04  0.12643541331E+04  0.00000000000E+00 0. -1.
         24    1    1    2    0    0 -0.12936762471E+03  0.38989820038E+02 -0.50617437613E+03  0.53003387004E+03  0.80419002446E+02 0. -1.
          1    1    1    2  501    0  0.16066903298E+03 -0.13770609197E+02 -0.62591023931E+03  0.64634959234E+03  0.00000000000E+00 0. -1.
         -2    1    1    2    0  503 -0.31301408269E+02 -0.25219210841E+02 -0.10645185641E+03  0.11378833195E+03  0.00000000000E+00 0.  1.
<mgrwt>
<rscale>  2 0.17934585E+03</rscale>
<asrwt>0</asrwt>
<pdfrwt beam="1">  1       21 0.39719477E-02 0.17934585E+03</pdfrwt>
<pdfrwt beam="2">  1       21 0.19451603E+00 0.17934585E+03</pdfrwt>
<totfact> 0.58254773E+04</totfact>
</mgrwt>
</event>
<event>
 5    1  0.1281005E-004  0.1801817E+03  0.7546771E-02  0.1167627E+00
         21   -1    0    0  501  502  0.00000000000E+00  0.00000000000E+00  0.26999250378E+03  0.26999250378E+03  0.00000000000E+00 0. -1.
         21   -1    0    0  502  503 -0.00000000000E+00 -0.00000000000E+00 -0.12304663720E+03  0.12304663720E+03  0.00000000000E+00 0. -1.
         24    1    1    2    0    0  0.12726517424E+03  0.20178722265E+01  0.54809522416E+02  0.16022420568E+03  0.80419002446E+02 0. -1.
          1    1    1    2  501    0 -0.16702114074E+03  0.12484017553E+02  0.90707523977E+02  0.19047248372E+03  0.00000000000E+00 0. -1.
         -2    1    1    2    0  503  0.39755966495E+02 -0.14501889780E+02  0.14288201876E+01  0.42342451585E+02  0.00000000000E+00 0.  1.
<mgrwt>
<rscale>  2 0.18018170E+03</rscale>
<asrwt>0</asrwt>
<pdfrwt beam="1">  1       21 0.41537308E-01 0.18018170E+03</pdfrwt>
<pdfrwt beam="2">  1       21 0.18930252E-01 0.18018170E+03</pdfrwt>
<totfact> 0.14329281E+05</totfact>
</mgrwt>
</event>
<event>
 5    1  0.1281005E-004  0.2537812E+03  0.7546771E-02  0.1110938E+00
         21   -1    0    0  501  502  0.00000000000E+00  0.00000000000E+00  0.24468021361E+03  0.24468021361E+03  0.00000000000E+00 0.  1.
         21   -1    0    0  502  503 -0.00000000000E+00 -0.00000000000E+00 -0.26914271449E+03  0.26914271449E+03  0.00000000000E+00 0. -1.
         24    1    1    2    0    0  0.14087465346E+03 -0.11189763015E+03  0.41384107880E+01  0.19710679851E+03  0.80419002446E+02 0. -1.
          1    1    1    2  501    0  0.26962083553E+02 -0.62738327075E+02 -0.29787718853E+02  0.74500737098E+02  0.00000000000E+00 0. -1.
         -2    1    1    2    0  503 -0.16783673702E+03  0.17463595722E+03  0.11868071896E+01  0.24221539249E+03  0.00000000000E+00 0.  1.
<mgrwt>
<rscale>  2 0.25378119E+03</rscale>
<asrwt>0</asrwt>
<pdfrwt beam="1">  1       21 0.37643110E-01 0.25378119E+03</pdfrwt>
<pdfrwt beam="2">  1       21 0.41406572E-01 0.25378119E+03</pdfrwt>
<totfact> 0.37137255E+04</totfact>
</mgrwt>
</event>
<event>
 5    1  0.1281005E-004  0.1475330E+03  0.7546771E-02  0.1203538E+00
         21   -1    0    0  503  502  0.00000000000E+00  0.00000000000E+00  0.29126209164E+03  0.29126209164E+03  0.00000000000E+00 0.  1.
         21   -1    0    0  501  503 -0.00000000000E+00 -0.00000000000E+00 -0.92961879158E+02  0.92961879158E+02  0.00000000000E+00 0. -1.
         24    1    1    2    0    0 -0.95838314095E+02 -0.10141860148E+02  0.17084121110E+03  0.21199475263E+03  0.80419002446E+02 0.  0.
          1    1    1    2  501    0 -0.27219959331E+02 -0.29616560267E+02  0.10513664056E+01  0.40238938845E+02  0.00000000000E+00 0. -1.
         -2    1    1    2    0  502  0.12305827343E+03  0.39758420415E+02  0.26407634977E+02  0.13199027933E+03  0.00000000000E+00 0.  1.
<mgrwt>
<rscale>  2 0.14753296E+03</rscale>
<asrwt>0</asrwt>
<pdfrwt beam="1">  1       21 0.44809552E-01 0.14753296E+03</pdfrwt>
<pdfrwt beam="2">  1       21 0.14301828E-01 0.14753296E+03</pdfrwt>
<totfact> 0.20706450E+05</totfact>
</mgrwt>
</event>
<event>
 5    1  0.1281005E-004  0.3075233E+03  0.7546771E-02  0.1081539E+00
         21   -1    0    0  503  502  0.00000000000E+00  0.00000000000E+00  0.34949295973E+03  0.34949295973E+03  0.00000000000E+00 0.  1.
         21   -1    0    0  501  503 -0.00000000000E+00 -0.00000000000E+00 -0.33343604529E+03  0.33343604529E+03  0.00000000000E+00 0. -1.
         24    1    1    2    0    0 -0.64289850481E+02 -0.46321684670E+01 -0.23564989790E+02  0.10572211953E+03  0.80419002446E+02 0.  0.
          1    1    1    2  501    0 -0.11814935016E+03 -0.20343815053E+03 -0.11321205401E+03  0.26108105869E+03  0.00000000000E+00 0. -1.
         -2    1    1    2    0  502  0.18243920064E+03  0.20807031900E+03  0.15283395824E+03  0.31612582680E+03  0.00000000000E+00 0.  1.
<mgrwt>
<rscale>  2 0.30752326E+03</rscale>
<asrwt>0</asrwt>
<pdfrwt beam="1">  1       21 0.53768148E-01 0.30752326E+03</pdfrwt>
<pdfrwt beam="2">  1       21 0.51297853E-01 0.30752326E+03</pdfrwt>
<totfact> 0.11102621E+04</totfact>
</mgrwt>
</event>
<event>
 5    1  0.1281005E-004  0.1922914E+03  0.7546771E-02  0.1156411E+00
         21   -1    0    0  503  502  0.00000000000E+00  0.00000000000E+00  0.34165024048E+03  0.34165024048E+03  0.00000000000E+00 0. -1.
         21   -1    0    0  501  503 -0.00000000000E+00 -0.00000000000E+00 -0.10990689056E+03  0.10990689056E+03  0.00000000000E+00 0.  1.
         24    1    1    2    0    0 -0.98631518307E+02 -0.89416182993E+02  0.95013412539E+02  0.18225859294E+03  0.80419002446E+02 0. -1.
          1    1    1    2  501    0 -0.56092526655E+02  0.26190146365E+02  0.56845175132E+02  0.84045637893E+02  0.00000000000E+00 0. -1.
         -2    1    1    2    0  502  0.15472404496E+03  0.63226036629E+02  0.79884762248E+02  0.18525290021E+03  0.00000000000E+00 0.  1.
<mgrwt>
<rscale>  2 0.19229140E+03</rscale>
<asrwt>0</asrwt>
<pdfrwt beam="1">  1       21 0.52561575E-01 0.19229140E+03</pdfrwt>
<pdfrwt beam="2">  1       21 0.16908753E-01 0.19229140E+03</pdfrwt>
<totfact> 0.10815696E+05</totfact>
</mgrwt>
</event>
<event>
 5    1  0.1281005E-004  0.2651297E+03  0.7546771E-02  0.1104100E+00
         21   -1    0    0  501  502  0.00000000000E+00  0.00000000000E+00  0.80693583083E+02  0.80693583083E+02  0.00000000000E+00 0.  1.
         21   -1    0    0  502  503 -0.00000000000E+00 -0.00000000000E+00 -0.90590644547E+03  0.90590644547E+03  0.00000000000E+00 0. -1.
         24    1    1    2    0    0 -0.10059307371E+03 -0.16829692905E+03 -0.32586842250E+03  0.38871617865E+03  0.80419002446E+02 0.  0.
          1    1    1    2  501    0 -0.48289487808E+02 -0.39724474607E+02 -0.47026724028E+02  0.78239512322E+02  0.00000000000E+00 0. -1.
         -2    1    1    2    0  503  0.14888256152E+03  0.20802140366E+03 -0.45231771586E+03  0.51964433759E+03  0.00000000000E+00 0.  1.
<mgrwt>
<rscale>  2 0.26512974E+03</rscale>
<asrwt>0</asrwt>
<pdfrwt beam="1">  1       21 0.12414398E-01 0.26512974E+03</pdfrwt>
<pdfrwt beam="2">  1       21 0.13937022E+00 0.26512974E+03</pdfrwt>
<totfact> 0.19162017E+04</totfact>
</mgrwt>
</event>
<event>
 5    1  0.1281005E-004  0.1947533E+03  0.7546771E-02  0.1154243E+00
         21   -1    0    0  501  502  0.00000000000E+00  0.00000000000E+00  0.77420001866E+02  0.77420001866E+02  0.00000000000E+00 0. -1.
         21   -1    0    0  502  503 -0.00000000000E+00 -0.00000000000E+00 -0.49387810742E+03  0.49387810742E+03  0.00000000000E+00 0.  1.
         24    1    1    2    0    0 -0.55431117240E+02 -0.49693842011E+02 -0.10885226410E+03  0.15446073303E+03  0.80419002446E+02 0.  0.
          1    1    1    2  501    0  0.15921302794E+03  0.70415082235E+02 -0.17090360726E+03  0.24395719920E+03  0.00000000000E+00 0. -1.
         -2    1    1    2    0  503 -0.10378191070E+03 -0.20721240224E+02 -0.13670223420E+03  0.17288017705E+03  0.00000000000E+00 0.  1.
<mgrwt>
<rscale>  2 0.19475327E+03</rscale>
<asrwt>0</asrwt>
<pdfrwt beam="1">  1       21 0.11910770E-01 0.19475327E+03</pdfrwt>
<pdfrwt beam="2">  1       21 0.75981247E-01 0.19475327E+03</pdfrwt>
<totfact> 0.91768012E+04</totfact>
</mgrwt>
</event>
<event>
 5    1  0.1281005E-004  0.1043845E+03  0.7546771E-02  0.1271337E+00
         21   -1    0    0  501  502  0.00000000000E+00  0.00000000000E+00  0.41541216958E+03  0.41541216958E+03  0.00000000000E+00 0. -1.
         21   -1    0    0  502  503 -0.00000000000E+00 -0.00000000000E+00 -0.31850477332E+02  0.31850477332E+02  0.00000000000E+00 0.  1.
         24    1    1    2    0    0  0.44790191381E+02  0.12157946353E+02  0.21855934100E+03  0.23746447818E+03  0.80419002446E+02 0. -1.
          1    1    1    2  501    0  0.25173029447E+02  0.26030649176E+02  0.10187959907E+03  0.10812367371E+03  0.00000000000E+00 0. -1.
         -2    1    1    2    0  503 -0.69963220829E+02 -0.38188595529E+02  0.63122752169E+02  0.10167449503E+03  0.00000000000E+00 0.  1.
<mgrwt>
<rscale>  2 0.10438451E+03</rscale>
<asrwt>0</asrwt>
<pdfrwt beam="1">  1       21 0.63909561E-01 0.10438451E+03</pdfrwt>
<pdfrwt beam="2">  1       21 0.49000737E-02 0.10438451E+03</pdfrwt>
<totfact> 0.63456057E+05</totfact>
</mgrwt>
</event>
<event>
 5    1  0.1281005E-004  0.2486399E+03  0.7546771E-02  0.1114167E+00
         21   -1    0    0  501  502  0.00000000000E+00  0.00000000000E+00  0.44668014660E+03  0.44668014660E+03  0.00000000000E+00 0.  1.
         21   -1    0    0  502  503 -0.00000000000E+00 -0.00000000000E+00 -0.14614292135E+03  0.14614292135E+03  0.00000000000E+00 0. -1.
         24    1    1    2    0    0 -0.82313803450E+02 -0.64996442373E+02  0.32683490075E+02  0.13614523950E+03  0.80419002446E+02 0.  0.
          1    1    1    2  501    0 -0.12182890292E+03 -0.48985147118E+02  0.62202092775E+02  0.14529599640E+03  0.00000000000E+00 0. -1.
         -2    1    1    2    0  503  0.20414270637E+03  0.11398158949E+03  0.20565164240E+03  0.31138183205E+03  0.00000000000E+00 0.  1.
<mgrwt>
<rscale>  2 0.24863991E+03</rscale>
<asrwt>0</asrwt>
<pdfrwt beam="1">  1       21 0.68720022E-01 0.24863991E+03</pdfrwt>
<pdfrwt beam="2">  1       21 0.22483527E-01 0.24863991E+03</pdfrwt>
<totfact> 0.34784418E+04</totfact>
</mgrwt>
</event>
<event>
 5    1  0.1281005E-004  0.1547974E+03  0.7546771E-02  0.1194699E+00
         21   -1    0    0  503  502  0.00000000000E+00  0.00000000000E+00  0.46474496558E+02  0.46474496558E+02  0.00000000000E+00 0. -1.
         21   -1    0    0  501  503 -0.00000000000E+00 -0.00000000000E+00 -0.51846609357E+03  0.51846609357E+03  0.00000000000E+00 0.  1.
         24    1    1    2    0    0  0.36737077676E+02  0.22053919930E+02 -0.13786026987E+03  0.16525331532E+03  0.80419002446E+02 0. -1.
          1    1    1    2  501    0 -0.10122466352E+03  0.57223061843E+02 -0.16012661084E+03  0.19789250317E+03  0.00000000000E+00 0. -1.
         -2    1    1    2    0  502  0.64487585842E+02 -0.79276981773E+02 -0.17400471629E+03  0.20179477163E+03  0.00000000000E+00 0.  1.
<mgrwt>
<rscale>  2 0.15479738E+03</rscale>
<asrwt>0</asrwt>
<pdfrwt beam="1">  1       21 0.71499226E-02 0.15479738E+03</pdfrwt>
<pdfrwt beam="2">  1       21 0.79764014E-01 0.15479738E+03</pdfrwt>
<totfact> 0.20427842E+05</totfact>
</mgrwt>
</event>
<event>
 5    1  0.1281005E-004  0.2146284E+03  0.7546771E-02  0.1137952E+00
         21   -1    0    0  501  502  0.00000000000E+00  0.00000000000E+00  0.58781850891E+02  0.58781850891E+02  0.00000000000E+00 0. -1.
         21   -1    0    0  502  503 -0.00000000000E+00 -0.00000000000E+00 -0.79563663001E+03  0.79563663001E+03  0.00000000000E+00 0.  1.
         24    1    1    2    0    0 -0.90626555386E+02  0.49540062189E+02 -0.19607251038E+03  0.23575206380E+03  0.80419002446E+02 0. -1.
          1    1    1    2  501    0 -0.94395601631E+02  0.26920319217E+02 -0.21394625291E+03  0.23538953318E+03  0.00000000000E+00 0. -1.
         -2    1    1    2    0  503  0.18502215702E+03 -0.76460381406E+02 -0.32683601582E+03  0.38327688392E+03  0.00000000000E+00 0.  1.
<mgrwt>
<rscale>  2 0.21462841E+03</rscale>
<asrwt>0</asrwt>
<pdfrwt beam="1">  1       21 0.90433616E-02 0.21462841E+03</pdfrwt>
<pdfrwt beam="2">  1       21 0.12240564E+00 0.21462841E+03</pdfrwt>
<totfact> 0.48128114E+04</totfact>
</mgrwt>
</event>
<event>
 5    1  0.1281005E-004  0.3008420E+03  0.7546771E-02  0.1084820E+00
         21   -1    0    0  501  502  0.00000000000E+00  0.00000000000E+00  0.39667200896E+03  0.39667200896E+03  0.00000000000E+00 0. -1.
         21   -1    0    0  502  503 -0.00000000000E+00 -0.00000000000E+00 -0.31437511293E+03  0.31437511293E+03  0.00000000000E+00 0.  1.
         24    1    1    2    0    0  0.28135792062E+02  0.13446225088E+03  0.15550560734E+03  0.22253298537E+03  0.80419002446E+02 0.  1.
          1    1    1    2  501    0 -0.79407242609E+02  0.14126215708E+03  0.66531855254E+02  0.17517703892E+03  0.00000000000E+00 0. -1.
         -2    1    1    2    0  503  0.51271450548E+02 -0.27572440796E+03 -0.13974056656E+03  0.31333709760E+03  0.00000000000E+00 0.  1.
<mgrwt>
<rscale>  2 0.30084196E+03</rscale>
<asrwt>0</asrwt>
<pdfrwt beam="1">  1       21 0.61026463E-01 0.30084196E+03</pdfrwt>
<pdfrwt beam="2">  1       21 0.48365402E-01 0.30084196E+03</pdfrwt>
<totfact> 0.95959833E+03</totfact>
</mgrwt>
</event>
<event>
 5    1  0.1281005E-004  0.9463746E+02  0.7546771E-02  0.1291995E+00
         21   -1    0    0  501  502  0.00000000000E+00  0.00000000000E+00  0.25512641097E+02  0.25512641097E+02  0.00000000000E+00 0. -1.
         21   -1    0    0  502  503 -0.00000000000E+00 -0.00000000000E+00 -0.42708890013E+03  0.42708890013E+03  0.00000000000E+00 0.  1.
         24    1    1    2    0    0 -0.41208037874E+01  0.18061545984E+02 -0.27323935529E+03  0.28542978419E+03  0.80419002446E+02 0.  1.
          1    1    1    2  501    0  0.55851364301E+01  0.44159556201E+02 -0.60493203307E+02  0.75104512509E+02  0.00000000000E+00 0. -1.
         -2    1    1    2    0  503 -0.14643326427E+01 -0.62221102185E+02 -0.67843700441E+02  0.92067244537E+02  0.00000000000E+00 0.  1.
<mgrwt>
<rscale>  2 0.94637463E+02</rscale>
<asrwt>0</asrwt>
<pdfrwt beam="1">  1       21 0.39250217E-02 0.94637463E+02</pdfrwt>
<pdfrwt beam="2">  1       21 0.65705984E-01 0.94637463E+02</pdfrwt>
<totfact> 0.86374332E+05</totfact>
</mgrwt>
</event>
<event>
 5    1  0.1281005E-004  0.1412163E+03  0.7546771E-02  0.1211702E+00
         21   -1    0    0  501  502  0.00000000000E+00  0.00000000000E+00  0.28923143701E+03  0.28923143701E+03  0.00000000000E+00 0. -1.
         21   -1    0    0  502  503 -0.00000000000E+00 -0.00000000000E+00 -0.74229439587E+02  0.74229439587E+02  0.00000000000E+00 0.  1.
         24    1    1    2    0    0  0.91141823016E+02 -0.20985655331E+01  0.13339326506E+03  0.18047774101E+03  0.80419002446E+02 0.  0.
          1    1    1    2  501    0  0.92510320478E+01 -0.47848454598E+02  0.41124355741E+02  0.63767302252E+02  0.00000000000E+00 0. -1.
         -2    1    1    2    0  503 -0.10039285506E+03  0.49947020132E+02  0.40484376617E+02  0.11921583334E+03  0.00000000000E+00 0.  1.
<mgrwt>
<rscale>  2 0.14121626E+03</rscale>
<asrwt>0</asrwt>
<pdfrwt beam="1">  1       21 0.44497144E-01 0.14121626E+03</pdfrwt>
<pdfrwt beam="2">  1       21 0.11419914E-01 0.14121626E+03</pdfrwt>
<totfact> 0.31430315E+05</totfact>
</mgrwt>
</event>
<event>
 5    1  0.1281005E-004  0.2863462E+03  0.7546771E-02  0.1092272E+00
         21   -1    0    0  501  502  0.00000000000E+00  0.00000000000E+00  0.37293471872E+03  0.37293471872E+03  0.00000000000E+00 0. -1.
         21   -1    0    0  502  503 -0.00000000000E+00 -0.00000000000E+00 -0.22258475904E+03  0.22258475904E+03  0.00000000000E+00 0.  1.
         24    1    1    2    0    0 -0.27248529866E+02 -0.14849556577E+03  0.16951954372E+02  0.17189531740E+03  0.80419002446E+02 0. -1.
          1    1    1    2  501    0 -0.56783160845E+02 -0.11327331473E+03  0.51323039003E+02  0.13670854222E+03  0.00000000000E+00 0. -1.
         -2    1    1    2    0  503  0.84031690711E+02  0.26176888049E+03  0.82074966307E+02  0.28691561814E+03  0.00000000000E+00 0.  1.
<mgrwt>
<rscale>  2 0.28634617E+03</rscale>
<asrwt>0</asrwt>
<pdfrwt beam="1">  1       21 0.57374572E-01 0.28634617E+03</pdfrwt>
<pdfrwt beam="2">  1       21 0.34243809E-01 0.28634617E+03</pdfrwt>
<totfact> 0.22369476E+04</totfact>
</mgrwt>
</event>
<event>
 5    1  0.1281005E-004  0.3470588E+03  0.7546771E-02  0.1063829E+00
         21   -1    0    0  501  502  0.00000000000E+00  0.00000000000E+00  0.10311743144E+03  0.10311743144E+03  0.00000000000E+00 0. -1.
         21   -1    0    0  502  503 -0.00000000000E+00 -0.00000000000E+00 -0.12407900165E+04  0.12407900165E+04  0.00000000000E+00 0.  1.
         24    1    1    2    0    0 -0.10873589256E+03  0.17614568380E+02 -0.35873124651E+03  0.38378260842E+03  0.80419002446E+02 0.  0.
          1    1    1    2  501    0  0.32781372194E+03  0.42497647832E+02 -0.40741158866E+03  0.52464472640E+03  0.00000000000E+00 0. -1.
         -2    1    1    2    0  503 -0.21907782938E+03 -0.60112216212E+02 -0.37152974986E+03  0.43548011308E+03  0.00000000000E+00 0.  1.
<mgrwt>
<rscale>  2 0.34705878E+03</rscale>
<asrwt>0</asrwt>
<pdfrwt beam="1">  1       21 0.15864220E-01 0.34705878E+03</pdfrwt>
<pdfrwt beam="2">  1       21 0.19089078E+00 0.34705878E+03</pdfrwt>
<totfact> 0.49100092E+03</totfact>
</mgrwt>
</event>
<event>
 5    1  0.1281005E-004  0.1679533E+03  0.7546771E-02  0.1179999E+00
         21   -1    0    0  501  502  0.00000000000E+00  0.00000000000E+00  0.80582405203E+03  0.80582405203E+03  0.00000000000E+00 0. -1.
         21   -1    0    0  502  503 -0.00000000000E+00 -0.00000000000E+00 -0.35322727946E+02  0.35322727946E+02  0.00000000000E+00 0. -1.
         24    1    1    2    0    0 -0.13277652358E+03 -0.26361299736E+02  0.32748593864E+03  0.36337140683E+03  0.80419002446E+02 0. -1.
          1    1    1    2  501    0  0.12007740649E+03  0.65866737913E+02  0.32505685239E+03  0.35273073016E+03  0.00000000000E+00 0. -1.
         -2    1    1    2    0  503  0.12699117086E+02 -0.39505438177E+02  0.11795853306E+03  0.12504464300E+03  0.00000000000E+00 0.  1.
<mgrwt>
<rscale>  2 0.16795326E+03</rscale>
<asrwt>0</asrwt>
<pdfrwt beam="1">  1       21 0.12397292E+00 0.16795326E+03</pdfrwt>
<pdfrwt beam="2">  1       21 0.54342665E-02 0.16795326E+03</pdfrwt>
<totfact> 0.11492339E+05</totfact>
</mgrwt>
</event>
<event>
 5    1  0.1281005E-004  0.1192192E+03  0.7546771E-02  0.1244391E+00
         21   -1    0    0  503  502  0.00000000000E+00  0.00000000000E+00  0.16046217234E+03  0.16046217234E+03  0.00000000000E+00 0.  1.
         21   -1    0    0  501  503 -0.00000000000E+00 -0.00000000000E+00 -0.89301378423E+02  0.89301378423E+02  0.00000000000E+00 0.  1.
         24    1    1    2    0    0 -0.47488358630E+02 -0.63951731623E+02  0.22680203221E+02  0.11544078896E+03  0.80419002446E+02 0.  1.
          1    1    1    2  501    0 -0.56244708277E+01 -0.22824460807E+02  0.81403746961E+01  0.24876824223E+02  0.00000000000E+00 0. -1.
         -2    1    1    2    0  502  0.53112829457E+02  0.86776192430E+02  0.40340215997E+02  0.10944593758E+03  0.00000000000E+00 0.  1.
<mgrwt>
<rscale>  2 0.11921921E+03</rscale>
<asrwt>0</asrwt>
<pdfrwt beam="1">  1       21 0.24686488E-01 0.11921921E+03</pdfrwt>
<pdfrwt beam="2">  1       21 0.13738674E-01 0.11921921E+03</pdfrwt>
<totfact> 0.71686267E+05</totfact>
</mgrwt>
</event>
<event>
 5    1  0.1281005E-004  0.1960493E+03  0.7546771E-02  0.1153116E+00
         21   -1    0    0  503  502  0.00000000000E+00  0.00000000000E+00  0.16840267673E+03  0.16840267673E+03  0.00000000000E+00 0. -1.
         21   -1    0    0  501  503 -0.00000000000E+00 -0.00000000000E+00 -0.25906180541E+03  0.25906180541E+03  0.00000000000E+00 0.  1.
         24    1    1    2    0    0 -0.11342146907E+02  0.30451127751E+02 -0.85849273744E+02  0.12203781887E+03  0.80419002446E+02 0.  1.
          1    1    1    2  501    0 -0.14623888666E+03 -0.16437231864E+02 -0.43126523599E+01  0.14722293820E+03  0.00000000000E+00 0. -1.
         -2    1    1    2    0  502  0.15758103356E+03 -0.14013895887E+02 -0.49720257506E+00  0.15820372507E+03  0.00000000000E+00 0.  1.
<mgrwt>
<rscale>  2 0.19604934E+03</rscale>
<asrwt>0</asrwt>
<pdfrwt beam="1">  1       21 0.25908104E-01 0.19604934E+03</pdfrwt>
<pdfrwt beam="2">  1       21 0.39855662E-01 0.19604934E+03</pdfrwt>
<totfact> 0.85722957E+04</totfact>
</mgrwt>
</event>
<event>
 5    1  0.1281005E-004  0.2081322E+03  0.7546771E-02  0.1143054E+00
         21   -1    0    0  503  502  0.00000000000E+00  0.00000000000E+00  0.54122806303E+03  0.54122806303E+03  0.00000000000E+00 0. -1.
         21   -1    0    0  501  503 -0.00000000000E+00 -0.00000000000E+00 -0.80236151097E+02  0.80236151097E+02  0.00000000000E+00 0.  1.
         24    1    1    2    0    0 -0.84632528153E+02 -0.59002592755E+02  0.15424053575E+03  0.20224077135E+03  0.80419002446E+02 0.  0.
          1    1    1    2  501    0  0.10551753460E+03  0.15483618013E+03  0.19223441765E+03  0.26844415455E+03  0.00000000000E+00 0. -1.
         -2    1    1    2    0  502 -0.20885006446E+02 -0.95833587379E+02  0.11451695854E+03  0.15077928822E+03  0.00000000000E+00 0.  1.
<mgrwt>
<rscale>  2 0.20813223E+03</rscale>
<asrwt>0</asrwt>
<pdfrwt beam="1">  1       21 0.83265854E-01 0.20813223E+03</pdfrwt>
<pdfrwt beam="2">  1       21 0.12344024E-01 0.20813223E+03</pdfrwt>
<totfact> 0.69568961E+04</totfact>
</mgrwt>
</event>
<event>
 5    1  0.1281005E-004  0.2206945E+03  0.7546771E-02  0.1133366E+00
         21   -1    0    0  503  502  0.00000000000E+00  0.00000000000E+00  0.20238972440E+03  0.20238972440E+03  0.00000000000E+00 0.  1.
         21   -1    0    0  501  503 -0.00000000000E+00 -0.00000000000E+00 -0.25681677063E+03  0.25681677063E+03  0.00000000000E+00 0. -1.
         24    1    1    2    0    0  0.79285455207E+02 -0.13973323188E+03  0.26229013448E+02  0.18156744367E+03  0.80419002446E+02 0. -1.
          1    1    1    2  501    0  0.48098868808E+02 -0.24421514336E+02  0.20959849616E+01  0.53984300459E+02  0.00000000000E+00 0. -1.
         -2    1    1    2    0  502 -0.12738432401E+03  0.16415474621E+03 -0.82752044644E+02  0.22365475090E+03  0.00000000000E+00 0.  1.
<mgrwt>
<rscale>  2 0.22069450E+03</rscale>
<asrwt>0</asrwt>
<pdfrwt beam="1">  1       21 0.31136881E-01 0.22069450E+03</pdfrwt>
<pdfrwt beam="2">  1       21 0.39510272E-01 0.22069450E+03</pdfrwt>
<totfact> 0.60425766E+04</totfact>
</mgrwt>
</event>
<event>
 5    1  0.1281005E-004  0.1223518E+03  0.7546771E-02  0.1239267E+00
         21   -1    0    0  503  502  0.00000000000E+00  0.00000000000E+00  0.10750740640E+03  0.10750740640E+03  0.00000000000E+00 0. -1.
         21   -1    0    0  501  503 -0.00000000000E+00 -0.00000000000E+00 -0.14356366941E+03  0.14356366941E+03  0.00000000000E+00 0. -1.
         24    1    1    2    0    0  0.24688824535E+02 -0.33092077786E+02 -0.10497019102E+01  0.90404322339E+02  0.80419002446E+02 0. -1.
          1    1    1    2  501    0 -0.71478703671E+02  0.65850489565E+02 -0.80878431896E+01  0.97523870216E+02  0.00000000000E+00 0. -1.
         -2    1    1    2    0  502  0.46789879137E+02 -0.32758411780E+02 -0.26918717911E+02  0.63142883257E+02  0.00000000000E+00 0.  1.
<mgrwt>
<rscale>  2 0.12235181E+03</rscale>
<asrwt>0</asrwt>
<pdfrwt beam="1">  1       21 0.16539601E-01 0.12235181E+03</pdfrwt>
<pdfrwt beam="2">  1       21 0.22086718E-01 0.12235181E+03</pdfrwt>
<totfact> 0.63225856E+05</totfact>
</mgrwt>
</event>
<event>
 5    1  0.1281005E-004  0.2276471E+03  0.7546771E-02  0.1128307E+00
         21   -1    0    0  503  502  0.00000000000E+00  0.00000000000E+00  0.26293121196E+03  0.26293121196E+03  0.00000000000E+00 0. -1.
         21   -1    0    0  501  503 -0.00000000000E+00 -0.00000000000E+00 -0.19726461067E+03  0.19726461067E+03  0.00000000000E+00 0.  1.
         24    1    1    2    0    0 -0.43336766315E+02 -0.16887602654E+03  0.25031223130E+02  0.19362583954E+03  0.80419002446E+02 0. -1.
          1    1    1    2  501    0  0.78330590850E+02 -0.11839827782E+02  0.79560899995E+01  0.79618856767E+02  0.00000000000E+00 0. -1.
         -2    1    1    2    0  502 -0.34993824535E+02  0.18071585432E+03  0.32679288165E+02  0.18695112632E+03  0.00000000000E+00 0.  1.
<mgrwt>
<rscale>  2 0.22764709E+03</rscale>
<asrwt>0</asrwt>
<pdfrwt beam="1">  1       21 0.40450956E-01 0.22764709E+03</pdfrwt>
<pdfrwt beam="2">  1       21 0.30348402E-01 0.22764709E+03</pdfrwt>
<totfact> 0.60406540E+04</totfact>
</mgrwt>
</event>
<event>
 5    1  0.1281005E-004  0.9211566E+02  0.7546771E-02  0.1297808E+00
         21   -1    0    0  503  502  0.00000000000E+00  0.00000000000E+00  0.16145200180E+02  0.16145200180E+02  0.00000000000E+00 0. -1.
         21   -1    0    0  501  503 -0.00000000000E+00 -0.00000000000E+00 -0.53777868712E+03  0.53777868712E+03  0.00000000000E+00 0.  1.
         24    1    1    2    0    0 -0.55104817641E+01 -0.74408069012E+01 -0.20133723384E+03  0.21700144862E+03  0.80419002446E+02 0.  0.
          1    1    1    2  501    0 -0.14383654062E+02 -0.44973833824E+02 -0.12086349315E+03  0.12975946675E+03  0.00000000000E+00 0. -1.
         -2    1    1    2    0  502  0.19894135827E+02  0.52414640725E+02 -0.19943275994E+03  0.20716297194E+03  0.00000000000E+00 0.  1.
<mgrwt>
<rscale>  2 0.92115665E+02</rscale>
<asrwt>0</asrwt>
<pdfrwt beam="1">  1       21 0.24838768E-02 0.92115665E+02</pdfrwt>
<pdfrwt beam="2">  1       21 0.82735188E-01 0.92115665E+02</pdfrwt>
<totfact> 0.11015351E+06</totfact>
</mgrwt>
</event>
<event>
 5    1  0.1281005E-004  0.1171248E+03  0.7546771E-02  0.1247917E+00
         21   -1    0    0  501  502  0.00000000000E+00  0.00000000000E+00  0.15700824299E+03  0.15700824299E+03  0.00000000000E+00 0. -1.
         21   -1    0    0  502  503 -0.00000000000E+00 -0.00000000000E+00 -0.88607548374E+02  0.88607548374E+02  0.00000000000E+00 0.  1.
         24    1    1    2    0    0 -0.46713616472E+02 -0.55372540417E+02  0.41130274522E+02  0.11578944526E+03  0.80419002446E+02 0. -1.
          1    1    1    2  501    0 -0.27512708892E+02 -0.77400463470E+01 -0.25591517573E+00  0.28581864190E+02  0.00000000000E+00 0. -1.
         -2    1    1    2    0  503  0.74226325364E+02  0.63112586764E+02  0.27526335267E+02  0.10124448192E+03  0.00000000000E+00 0.  1.
<mgrwt>
<rscale>  2 0.11712479E+03</rscale>
<asrwt>0</asrwt>
<pdfrwt beam="1">  1       21 0.24155114E-01 0.11712479E+03</pdfrwt>
<pdfrwt beam="2">  1       21 0.13631931E-01 0.11712479E+03</pdfrwt>
<totfact> 0.75725280E+05</totfact>
</mgrwt>
</event>
<event>
 5    1  0.1281005E-004  0.1504294E+03  0.7546771E-02  0.1199946E+00
         21   -1    0    0  503  502  0.00000000000E+00  0.00000000000E+00  0.36127013294E+02  0.36127013294E+02  0.00000000000E+00 0.  1.
         21   -1    0    0  501  503 -0.00000000000E+00 -0.00000000000E+00 -0.70727414294E+03  0.70727414294E+03  0.00000000000E+00 0. -1.
         24    1    1    2    0    0  0.17567453013E+02 -0.55121387922E+00 -0.88997937448E+02  0.12123022753E+03  0.80419002446E+02 0.  1.
          1    1    1    2  501    0  0.72053292176E+02  0.73542935093E+02 -0.30403631461E+03  0.32099582679E+03  0.00000000000E+00 0. -1.
         -2    1    1    2    0  502 -0.89620745189E+02 -0.72991721214E+02 -0.27811287759E+03  0.30117510192E+03  0.00000000000E+00 0.  1.
<mgrwt>
<rscale>  2 0.15042939E+03</rscale>
<asrwt>0</asrwt>
<pdfrwt beam="1">  1       21 0.55580020E-02 0.15042939E+03</pdfrwt>
<pdfrwt beam="2">  1       21 0.10881141E+00 0.15042939E+03</pdfrwt>
<totfact> 0.15306076E+05</totfact>
</mgrwt>
</event>
<event>
 5    1  0.1281005E-004  0.2363132E+03  0.7546771E-02  0.1122274E+00
         21   -1    0    0  501  502  0.00000000000E+00  0.00000000000E+00  0.28826031786E+03  0.28826031786E+03  0.00000000000E+00 0.  1.
         21   -1    0    0  502  503 -0.00000000000E+00 -0.00000000000E+00 -0.21902354340E+03  0.21902354340E+03  0.00000000000E+00 0. -1.
         24    1    1    2    0    0  0.40162190858E+02 -0.64835411193E+02  0.83183286304E+02  0.13857599790E+03  0.80419002446E+02 0.  0.
          1    1    1    2  501    0 -0.17379180799E+03  0.12616904985E+03 -0.42506059111E+02  0.21892689813E+03  0.00000000000E+00 0. -1.
         -2    1    1    2    0  503  0.13362961713E+03 -0.61333638658E+02  0.28559547270E+02  0.14978096523E+03  0.00000000000E+00 0.  1.
<mgrwt>
<rscale>  2 0.23631316E+03</rscale>
<asrwt>0</asrwt>
<pdfrwt beam="1">  1       21 0.44347741E-01 0.23631316E+03</pdfrwt>
<pdfrwt beam="2">  1       21 0.33695930E-01 0.23631316E+03</pdfrwt>
<totfact> 0.40563933E+04</totfact>
</mgrwt>
</event>
<event>
 5    1  0.1281005E-004  0.1065270E+03  0.7546771E-02  0.1267140E+00
         21   -1    0    0  501  502  0.00000000000E+00  0.00000000000E+00  0.12212783664E+03  0.12212783664E+03  0.00000000000E+00 0. -1.
         21   -1    0    0  502  503 -0.00000000000E+00 -0.00000000000E+00 -0.95366978669E+02  0.95366978669E+02  0.00000000000E+00 0.  1.
         24    1    1    2    0    0  0.41591527740E+02  0.17153976498E+02 -0.27978830629E+01  0.92190879123E+02  0.80419002446E+02 0. -1.
          1    1    1    2  501    0 -0.79686193638E+02 -0.14455349042E+01  0.12358162932E+02  0.80651740333E+02  0.00000000000E+00 0. -1.
         -2    1    1    2    0  503  0.38094665898E+02 -0.15708441594E+02  0.17200578097E+02  0.44652195848E+02  0.00000000000E+00 0.  1.
<mgrwt>
<rscale>  2 0.10652701E+03</rscale>
<asrwt>0</asrwt>
<pdfrwt beam="1">  1       21 0.18788898E-01 0.10652701E+03</pdfrwt>
<pdfrwt beam="2">  1       21 0.14671843E-01 0.10652701E+03</pdfrwt>
<totfact> 0.10567411E+06</totfact>
</mgrwt>
</event>
<event>
 5    1  0.1281005E-004  0.2609390E+03  0.7546771E-02  0.1106580E+00
         21   -1    0    0  503  502  0.00000000000E+00  0.00000000000E+00  0.13685939885E+03  0.13685939885E+03  0.00000000000E+00 0. -1.
         21   -1    0    0  501  503 -0.00000000000E+00 -0.00000000000E+00 -0.50339033192E+03  0.50339033192E+03  0.00000000000E+00 0.  1.
         24    1    1    2    0    0 -0.38564495091E+02 -0.60617292091E+02 -0.48915791375E+02  0.11841303553E+03  0.80419002446E+02 0.  0.
          1    1    1    2  501    0  0.22287612815E+03  0.10906007962E+02 -0.16984279785E+03  0.28042696998E+03  0.00000000000E+00 0. -1.
         -2    1    1    2    0  502 -0.18431163306E+03  0.49711284129E+02 -0.14777234384E+03  0.24140972527E+03  0.00000000000E+00 0.  1.
<mgrwt>
<rscale>  2 0.26093900E+03</rscale>
<asrwt>0</asrwt>
<pdfrwt beam="1">  1       21 0.21055292E-01 0.26093900E+03</pdfrwt>
<pdfrwt beam="2">  1       21 0.77444667E-01 0.26093900E+03</pdfrwt>
<totfact> 0.29986917E+04</totfact>
</mgrwt>
</event>
<event>
 5    1  0.1281005E-004  0.1522490E+03  0.7546771E-02  0.1197736E+00
         21   -1    0    0  501  502  0.00000000000E+00  0.00000000000E+00  0.72731102328E+03  0.72731102328E+03  0.00000000000E+00 0.  1.
         21   -1    0    0  502  503 -0.00000000000E+00 -0.00000000000E+00 -0.32029933577E+02  0.32029933577E+02  0.00000000000E+00 0. -1.
         24    1    1    2    0    0  0.14707653801E+02 -0.45175792306E+02  0.19527253557E+03  0.21646188208E+03  0.80419002446E+02 0. -1.
          1    1    1    2  501    0  0.91721738232E+02 -0.80921971026E+01  0.23373173453E+03  0.25121481772E+03  0.00000000000E+00 0. -1.
         -2    1    1    2    0  503 -0.10642939203E+03  0.53267989409E+02  0.26627681961E+03  0.29166425706E+03  0.00000000000E+00 0.  1.
<mgrwt>
<rscale>  2 0.15224897E+03</rscale>
<asrwt>0</asrwt>
<pdfrwt beam="1">  1       21 0.11189399E+00 0.15224897E+03</pdfrwt>
<pdfrwt beam="2">  1       21 0.49276826E-02 0.15224897E+03</pdfrwt>
<totfact> 0.17530459E+05</totfact>
</mgrwt>
</event>
<event>
 5    1  0.1281005E-004  0.1714541E+03  0.7546771E-02  0.1176340E+00
         21   -1    0    0  501  502  0.00000000000E+00  0.00000000000E+00  0.17439370122E+03  0.17439370122E+03  0.00000000000E+00 0.  1.
         21   -1    0    0  502  503 -0.00000000000E+00 -0.00000000000E+00 -0.20182871856E+03  0.20182871856E+03  0.00000000000E+00 0.  1.
         24    1    1    2    0    0  0.10116377626E+03 -0.29148032236E+02  0.62275306065E+02  0.14638697726E+03  0.80419002446E+02 0.  1.
          1    1    1    2  501    0  0.42837213466E+02 -0.32515557337E+02 -0.12597627972E+02  0.55235754336E+02  0.00000000000E+00 0. -1.
         -2    1    1    2    0  503 -0.14400098973E+03  0.61663589573E+02 -0.77112695431E+02  0.17459968820E+03  0.00000000000E+00 0.  1.
<mgrwt>
<rscale>  2 0.17145411E+03</rscale>
<asrwt>0</asrwt>
<pdfrwt beam="1">  1       21 0.26829800E-01 0.17145411E+03</pdfrwt>
<pdfrwt beam="2">  1       21 0.31050572E-01 0.17145411E+03</pdfrwt>
<totfact> 0.13277142E+05</totfact>
</mgrwt>
</event>
<event>
 5    1  0.1281005E-004  0.1436526E+03  0.7546771E-02  0.1208497E+00
         21   -1    0    0  503  502  0.00000000000E+00  0.00000000000E+00  0.10401491866E+03  0.10401491866E+03  0.00000000000E+00 0.  1.
         21   -1    0    0  501  503 -0.00000000000E+00 -0.00000000000E+00 -0.20052320867E+03  0.20052320867E+03  0.00000000000E+00 0.  1.
         24    1    1    2    0    0 -0.97189112607E+02  0.12901223985E+02 -0.47806293237E+02  0.13551687281E+03  0.80419002446E+02 0.  1.
          1    1    1    2  501    0 -0.30767239164E+02  0.54149613226E+01 -0.10528115318E+01  0.31257850598E+02  0.00000000000E+00 0. -1.
         -2    1    1    2    0  502  0.12795635177E+03 -0.18316185307E+02 -0.47649185243E+02  0.13776340391E+03  0.00000000000E+00 0.  1.
<mgrwt>
<rscale>  2 0.14365262E+03</rscale>
<asrwt>0</asrwt>
<pdfrwt beam="1">  1       21 0.16002295E-01 0.14365262E+03</pdfrwt>
<pdfrwt beam="2">  1       21 0.30849724E-01 0.14365262E+03</pdfrwt>
<totfact> 0.35505481E+05</totfact>
</mgrwt>
</event>
<event>
 5    1  0.1281005E-004  0.2773631E+03  0.7546771E-02  0.1097138E+00
         21   -1    0    0  503  502  0.00000000000E+00  0.00000000000E+00  0.31816965439E+03  0.31816965439E+03  0.00000000000E+00 0. -1.
         21   -1    0    0  501  503 -0.00000000000E+00 -0.00000000000E+00 -0.25401729663E+03  0.25401729663E+03  0.00000000000E+00 0.  1.
         24    1    1    2    0    0  0.11312157074E+03  0.60626280140E+02 -0.33973961325E+02  0.15522075123E+03  0.80419002446E+02 0.  1.
          1    1    1    2  501    0 -0.25407574829E+03 -0.64959168584E+02  0.83340913077E+02  0.27517246818E+03  0.00000000000E+00 0. -1.
         -2    1    1    2    0  502  0.14095417755E+03  0.43328884436E+01  0.14785406008E+02  0.14179373161E+03  0.00000000000E+00 0.  1.
<mgrwt>
<rscale>  2 0.27736308E+03</rscale>
<asrwt>0</asrwt>
<pdfrwt beam="1">  1       21 0.48949177E-01 0.27736308E+03</pdfrwt>
<pdfrwt beam="2">  1       21 0.39079584E-01 0.27736308E+03</pdfrwt>
<totfact> 0.24109445E+04</totfact>
</mgrwt>
</event>
<event>
 5    1  0.1281005E-004  0.1560723E+03  0.7546771E-02  0.1193204E+00
         21   -1    0    0  501  502  0.00000000000E+00  0.00000000000E+00  0.62261347201E+02  0.62261347201E+02  0.00000000000E+00 0. -1.
         21   -1    0    0  502  503 -0.00000000000E+00 -0.00000000000E+00 -0.39178685360E+03  0.39178685360E+03  0.00000000000E+00 0.  1.
         24    1    1    2    0    0  0.60104933761E+01 -0.10553704723E+03 -0.13221265690E+03  0.18740756913E+03  0.80419002446E+02 0.  1.
          1    1    1    2  501    0 -0.75063802055E+02  0.45189890538E+02 -0.94315922387E+02  0.12873303306E+03  0.00000000000E+00 0. -1.
         -2    1    1    2    0  503  0.69053308679E+02  0.60347156689E+02 -0.10299692711E+03  0.13790759861E+03  0.00000000000E+00 0.  1.
<mgrwt>
<rscale>  2 0.15607228E+03</rscale>
<asrwt>0</asrwt>
<pdfrwt beam="1">  1       21 0.95786690E-02 0.15607228E+03</pdfrwt>
<pdfrwt beam="2">  1       21 0.60274900E-01 0.15607228E+03</pdfrwt>
<totfact> 0.22696803E+05</totfact>
</mgrwt>
</event>
<event>
 5    1  0.1281005E-004  0.1359797E+03  0.7546771E-02  0.1218843E+00
         21   -1    0    0  503  502  0.00000000000E+00  0.00000000000E+00  0.11700180732E+04  0.11700180732E+04  0.00000000000E+00 0. -1.
         21   -1    0    0  501  503 -0.00000000000E+00 -0.00000000000E+00 -0.15909223551E+02  0.15909223551E+02  0.00000000000E+00 0. -1.
         24    1    1    2    0    0  0.79352420504E+02 -0.49455751395E+02  0.56940001049E+03  0.58260300882E+03  0.80419002446E+02 0. -1.
          1    1    1    2  501    0 -0.10914669355E+03  0.46673250704E+02  0.47486124621E+03  0.48947379521E+03  0.00000000000E+00 0. -1.
         -2    1    1    2    0  502  0.29794273048E+02  0.27825006903E+01  0.10984759297E+03  0.11385049275E+03  0.00000000000E+00 0.  1.
<mgrwt>
<rscale>  2 0.13597975E+03</rscale>
<asrwt>0</asrwt>
<pdfrwt beam="1">  1       21 0.18000271E+00 0.13597975E+03</pdfrwt>
<pdfrwt beam="2">  1       21 0.24475738E-02 0.13597975E+03</pdfrwt>
<totfact> 0.16553485E+05</totfact>
</mgrwt>
</event>
<event>
 5    1  0.1281005E-004  0.1385479E+03  0.7546771E-02  0.1215296E+00
         21   -1    0    0  503  502  0.00000000000E+00  0.00000000000E+00  0.37501285225E+03  0.37501285225E+03  0.00000000000E+00 0.  1.
         21   -1    0    0  501  503 -0.00000000000E+00 -0.00000000000E+00 -0.57053360607E+02  0.57053360607E+02  0.00000000000E+00 0. -1.
         24    1    1    2    0    0  0.57797289835E+02 -0.34255523464E+02  0.56823885195E+02  0.11920628122E+03  0.80419002446E+02 0.  0.
          1    1    1    2  501    0  0.14525569991E+02 -0.55309617843E+02  0.87334636959E+02  0.10439101888E+03  0.00000000000E+00 0. -1.
         -2    1    1    2    0  502 -0.72322859826E+02  0.89565141307E+02  0.17380096949E+03  0.20846891276E+03  0.00000000000E+00 0.  1.
<mgrwt>
<rscale>  2 0.13854794E+03</rscale>
<asrwt>0</asrwt>
<pdfrwt beam="1">  1       21 0.57694283E-01 0.13854794E+03</pdfrwt>
<pdfrwt beam="2">  1       21 0.87774404E-02 0.13854794E+03</pdfrwt>
<totfact> 0.29120265E+05</totfact>
</mgrwt>
</event>
<event>
 5    1  0.1281005E-004  0.1519452E+03  0.7546771E-02  0.1198103E+00
         21   -1    0    0  501  502  0.00000000000E+00  0.00000000000E+00  0.98856485130E+02  0.98856485130E+02  0.00000000000E+00 0. -1.
         21   -1    0    0  502  503 -0.00000000000E+00 -0.00000000000E+00 -0.24591141274E+03  0.24591141274E+03  0.00000000000E+00 0.  1.
         24    1    1    2    0    0  0.10082455111E+03 -0.38402664704E+02 -0.53516753930E+02  0.14481579219E+03  0.80419002446E+02 0.  1.
          1    1    1    2  501    0 -0.81573873870E+02 -0.38390993942E+02 -0.20986291084E+02  0.92566677198E+02  0.00000000000E+00 0. -1.
         -2    1    1    2    0  503 -0.19250677237E+02  0.76793658646E+02 -0.72551882601E+02  0.10738542849E+03  0.00000000000E+00 0.  1.
<mgrwt>
<rscale>  2 0.15194525E+03</rscale>
<asrwt>0</asrwt>
<pdfrwt beam="1">  1       21 0.15208690E-01 0.15194525E+03</pdfrwt>
<pdfrwt beam="2">  1       21 0.37832525E-01 0.15194525E+03</pdfrwt>
<totfact> 0.26035176E+05</totfact>
</mgrwt>
</event>
<event>
 5    1  0.1281005E-004  0.2359700E+03  0.7546771E-02  0.1122507E+00
         21   -1    0    0  503  502  0.00000000000E+00  0.00000000000E+00  0.16113041922E+04  0.16113041922E+04  0.00000000000E+00 0.  1.
         21   -1    0    0  501  503 -0.00000000000E+00 -0.00000000000E+00 -0.50605973908E+02  0.50605973908E+02  0.00000000000E+00 0. -1.
         24    1    1    2    0    0  0.20447940843E+02 -0.78243080805E+02  0.23828783451E+03  0.26417495341E+03  0.80419002446E+02 0.  1.
          1    1    1    2  501    0 -0.16509496786E+02 -0.13931842093E+03  0.15031699133E+03  0.20561464875E+03  0.00000000000E+00 0. -1.
         -2    1    1    2    0  502 -0.39384440565E+01  0.21756150174E+03  0.11720933924E+04  0.11921205639E+04  0.00000000000E+00 0.  1.
<mgrwt>
<rscale>  2 0.23596999E+03</rscale>
<asrwt>0</asrwt>
<pdfrwt beam="1">  1       21 0.24789291E+00 0.23596999E+03</pdfrwt>
<pdfrwt beam="2">  1       21 0.77855357E-02 0.23596999E+03</pdfrwt>
<totfact> 0.82798793E+03</totfact>
</mgrwt>
</event>
<event>
 5    1  0.1281005E-004  0.1613680E+03  0.7546771E-02  0.1187161E+00
         21   -1    0    0  503  502  0.00000000000E+00  0.00000000000E+00  0.13387987302E+03  0.13387987302E+03  0.00000000000E+00 0. -1.
         21   -1    0    0  501  503 -0.00000000000E+00 -0.00000000000E+00 -0.20294632518E+03  0.20294632518E+03  0.00000000000E+00 0.  1.
         24    1    1    2    0    0  0.47178271585E+02 -0.94745616916E+01 -0.19025537489E+02  0.95628153073E+02  0.80419002446E+02 0. -1.
          1    1    1    2  501    0 -0.11366522196E+03 -0.63580434363E+02 -0.57014059235E+02  0.14217192855E+03  0.00000000000E+00 0. -1.
         -2    1    1    2    0  502  0.66486950378E+02  0.73054996054E+02  0.69731445611E+01  0.99026116576E+02  0.00000000000E+00 0.  1.
<mgrwt>
<rscale>  2 0.16136798E+03</rscale>
<asrwt>0</asrwt>
<pdfrwt beam="1">  1       21 0.20596904E-01 0.16136798E+03</pdfrwt>
<pdfrwt beam="2">  1       21 0.31222511E-01 0.16136798E+03</pdfrwt>
<totfact> 0.21725405E+05</totfact>
</mgrwt>
</event>
<event>
 5    1  0.1281005E-004  0.1331539E+03  0.7546771E-02  0.1222850E+00
         21   -1    0    0  501  502  0.00000000000E+00  0.00000000000E+00  0.23858637351E+02  0.23858637351E+02  0.00000000000E+00 0.  1.
         21   -1    0    0  502  503 -0.00000000000E+00 -0.00000000000E+00 -0.74646172386E+03  0.74646172386E+03  0.00000000000E+00 0. -1.
         24    1    1    2    0    0  0.36954138422E+02 -0.67808263677E+02 -0.27747434467E+03  0.29903644740E+03  0.80419002446E+02 0.  1.
          1    1    1    2  501    0 -0.18884179203E+02  0.10858414819E+03 -0.31853205438E+03  0.33706052740E+03  0.00000000000E+00 0. -1.
         -2    1    1    2    0  503 -0.18069959218E+02 -0.40775884517E+02 -0.12659668746E+03  0.13422338642E+03  0.00000000000E+00 0.  1.
<mgrwt>
<rscale>  2 0.13315393E+03</rscale>
<asrwt>0</asrwt>
<pdfrwt beam="1">  1       21 0.36705600E-02 0.13315393E+03</pdfrwt>
<pdfrwt beam="2">  1       21 0.11484025E+00 0.13315393E+03</pdfrwt>
<totfact> 0.27089242E+05</totfact>
</mgrwt>
</event>
<event>
 5    1  0.1281005E-004  0.1450124E+03  0.7546771E-02  0.1206739E+00
         21   -1    0    0  503  502  0.00000000000E+00  0.00000000000E+00  0.11850871034E+04  0.11850871034E+04  0.00000000000E+00 0. -1.
         21   -1    0    0  501  503 -0.00000000000E+00 -0.00000000000E+00 -0.22378477697E+02  0.22378477697E+02  0.00000000000E+00 0. -1.
         24    1    1    2    0    0  0.39219304955E+02 -0.24673876248E+02  0.66126746268E+03  0.66774907503E+03  0.80419002446E+02 0. -1.
          1    1    1    2  501    0 -0.11642459412E+03  0.28672820903E+02  0.34444833213E+03  0.36472108560E+03  0.00000000000E+00 0. -1.
         -2    1    1    2    0  502  0.77205289162E+02 -0.39989446553E+01  0.15699283090E+03  0.17499542047E+03  0.00000000000E+00 0.  1.
<mgrwt>
<rscale>  2 0.14501235E+03</rscale>
<asrwt>0</asrwt>
<pdfrwt beam="1">  1       21 0.18232104E+00 0.14501235E+03</pdfrwt>
<pdfrwt beam="2">  1       21 0.34428436E-02 0.14501235E+03</pdfrwt>
<totfact> 0.90796308E+04</totfact>
</mgrwt>
</event>
<event>
 5    1  0.1281005E-004  0.2069984E+03  0.7546771E-02  0.1143965E+00
         21   -1    0    0  501  502  0.00000000000E+00  0.00000000000E+00  0.97451329377E+03  0.97451329377E+03  0.00000000000E+00 0. -1.
         21   -1    0    0  502  503 -0.00000000000E+00 -0.00000000000E+00 -0.46866606380E+02  0.46866606380E+02  0.00000000000E+00 0.  1.
         24    1    1    2    0    0 -0.29705600569E+02  0.11728915007E+02  0.18352528298E+03  0.20290080237E+03  0.80419002446E+02 0. -1.
          1    1    1    2  501    0  0.15770220078E+03 -0.85853623270E+02  0.51837266440E+03  0.54859005456E+03  0.00000000000E+00 0. -1.
         -2    1    1    2    0  503 -0.12799660021E+03  0.74124708263E+02  0.22574874000E+03  0.26988904322E+03  0.00000000000E+00 0.  1.
<mgrwt>
<rscale>  2 0.20699837E+03</rscale>
<asrwt>0</asrwt>
<pdfrwt beam="1">  1       21 0.14992511E+00 0.20699837E+03</pdfrwt>
<pdfrwt beam="2">  1       21 0.72102478E-02 0.20699837E+03</pdfrwt>
<totfact> 0.42657083E+04</totfact>
</mgrwt>
</event>
<event>
 5    1  0.1281005E-004  0.1050233E+03  0.7546771E-02  0.1270074E+00
         21   -1    0    0  503  502  0.00000000000E+00  0.00000000000E+00  0.17861706964E+02  0.17861706964E+02  0.00000000000E+00 0.  1.
         21   -1    0    0  501  503 -0.00000000000E+00 -0.00000000000E+00 -0.62412002018E+03  0.62412002018E+03  0.00000000000E+00 0. -1.
         24    1    1    2    0    0 -0.83209426272E+01  0.24741196523E+02 -0.27701543190E+03  0.28963102450E+03  0.80419002446E+02 0. -1.
          1    1    1    2  501    0 -0.27770183718E+02 -0.65447410600E+02 -0.18544950759E+03  0.19861033841E+03  0.00000000000E+00 0. -1.
         -2    1    1    2    0  502  0.36091126345E+02  0.40706214076E+02 -0.14379337373E+03  0.15374036423E+03  0.00000000000E+00 0.  1.
<mgrwt>
<rscale>  2 0.10502325E+03</rscale>
<asrwt>0</asrwt>
<pdfrwt beam="1">  1       21 0.27479551E-02 0.10502325E+03</pdfrwt>
<pdfrwt beam="2">  1       21 0.96018460E-01 0.10502325E+03</pdfrwt>
<totfact> 0.66800974E+05</totfact>
</mgrwt>
</event>
<event>
 5    1  0.1281005E-004  0.2701957E+03  0.7546771E-02  0.1101168E+00
         21   -1    0    0  501  502  0.00000000000E+00  0.00000000000E+00  0.68057978482E+02  0.68057978482E+02  0.00000000000E+00 0.  1.
         21   -1    0    0  502  503 -0.00000000000E+00 -0.00000000000E+00 -0.11573618616E+04  0.11573618616E+04  0.00000000000E+00 0. -1.
         24    1    1    2    0    0 -0.20369271869E+03  0.27680995395E+02 -0.57691512300E+03  0.61770157540E+03  0.80419002446E+02 0. -1.
          1    1    1    2  501    0 -0.25713850189E+01 -0.10078677670E+03 -0.10687491198E+03  0.14692458334E+03  0.00000000000E+00 0. -1.
         -2    1    1    2    0  503  0.20626410371E+03  0.73105781302E+02 -0.40551384817E+03  0.46079368137E+03  0.00000000000E+00 0.  1.
<mgrwt>
<rscale>  2 0.27019572E+03</rscale>
<asrwt>0</asrwt>
<pdfrwt beam="1">  1       21 0.10470459E-01 0.27019572E+03</pdfrwt>
<pdfrwt beam="2">  1       21 0.17805566E+00 0.27019572E+03</pdfrwt>
<totfact> 0.13330633E+04</totfact>
</mgrwt>
</event>
<event>
 5    1  0.1281005E-004  0.1529472E+03  0.7546771E-02  0.1196898E+00
         21   -1    0    0  503  502  0.00000000000E+00  0.00000000000E+00  0.23092156724E+03  0.23092156724E+03  0.00000000000E+00 0.  1.
         21   -1    0    0  501  503 -0.00000000000E+00 -0.00000000000E+00 -0.10376965163E+03  0.10376965163E+03  0.00000000000E+00 0. -1.
         24    1    1    2    0    0 -0.68732317311E+00 -0.48800333419E+02  0.25219795598E+02  0.97391986320E+02  0.80419002446E+02 0.  1.
          1    1    1    2  501    0 -0.92133099982E+02 -0.22428299045E+02  0.27896950138E+02  0.98842179950E+02  0.00000000000E+00 0. -1.
         -2    1    1    2    0  502  0.92820423155E+02  0.71228632464E+02  0.74035169879E+02  0.13845705261E+03  0.00000000000E+00 0.  1.
<mgrwt>
<rscale>  2 0.15294716E+03</rscale>
<asrwt>0</asrwt>
<pdfrwt beam="1">  1       21 0.35526395E-01 0.15294716E+03</pdfrwt>
<pdfrwt beam="2">  1       21 0.15964562E-01 0.15294716E+03</pdfrwt>
<totfact> 0.27003968E+05</totfact>
</mgrwt>
</event>
<event>
 5    1  0.1281005E-004  0.1501707E+03  0.7546771E-02  0.1200263E+00
         21   -1    0    0  501  502  0.00000000000E+00  0.00000000000E+00  0.30531300304E+03  0.30531300304E+03  0.00000000000E+00 0.  1.
         21   -1    0    0  502  503 -0.00000000000E+00 -0.00000000000E+00 -0.11907814551E+03  0.11907814551E+03  0.00000000000E+00 0.  1.
         24    1    1    2    0    0  0.49914357468E+02 -0.11169311992E+03 -0.37369250532E+02  0.15109756106E+03  0.80419002446E+02 0.  1.
          1    1    1    2  501    0  0.22940633102E+02  0.30704923459E+01  0.16796401124E+02  0.28597546417E+02  0.00000000000E+00 0. -1.
         -2    1    1    2    0  503 -0.72854990569E+02  0.10862262757E+03  0.20680770693E+03  0.24469604108E+03  0.00000000000E+00 0.  1.
<mgrwt>
<rscale>  2 0.15017074E+03</rscale>
<asrwt>0</asrwt>
<pdfrwt beam="1">  1       21 0.46971231E-01 0.15017074E+03</pdfrwt>
<pdfrwt beam="2">  1       21 0.18319715E-01 0.15017074E+03</pdfrwt>
<totfact> 0.11971165E+05</totfact>
</mgrwt>
</event>
<event>
 5    1  0.1281005E-004  0.1396364E+03  0.7546771E-02  0.1213819E+00
         21   -1    0    0  501  502  0.00000000000E+00  0.00000000000E+00  0.38803955567E+02  0.38803955567E+02  0.00000000000E+00 0.  1.
         21   -1    0    0  502  503 -0.00000000000E+00 -0.00000000000E+00 -0.51303048393E+03  0.51303048393E+03  0.00000000000E+00 0.  1.
         24    1    1    2    0    0  0.79398392655E+02  0.56514747126E+02 -0.23643058512E+03  0.26807584549E+03  0.80419002446E+02 0.  1.
          1    1    1    2  501    0  0.26047114396E+02  0.10385915287E+02 -0.28117036572E+02  0.39710038408E+02  0.00000000000E+00 0. -1.
         -2    1    1    2    0  503 -0.10544550705E+03 -0.66900662413E+02 -0.20967890666E+03  0.24404855560E+03  0.00000000000E+00 0.  1.
<mgrwt>
<rscale>  2 0.13963638E+03</rscale>
<asrwt>0</asrwt>
<pdfrwt beam="1">  1       21 0.59698397E-02 0.13963638E+03</pdfrwt>
<pdfrwt beam="2">  1       21 0.78927762E-01 0.13963638E+03</pdfrwt>
<totfact> 0.28574597E+05</totfact>
</mgrwt>
</event>
<event>
 5    1  0.1281005E-004  0.1326419E+03  0.7546771E-02  0.1223587E+00
         21   -1    0    0  501  502  0.00000000000E+00  0.00000000000E+00  0.71572381282E+02  0.71572381282E+02  0.00000000000E+00 0. -1.
         21   -1    0    0  502  503 -0.00000000000E+00 -0.00000000000E+00 -0.25386036022E+03  0.25386036022E+03  0.00000000000E+00 0.  1.
         24    1    1    2    0    0  0.45344354854E+02  0.44286175212E+02 -0.81758876401E+02  0.13103093397E+03  0.80419002446E+02 0.  0.
          1    1    1    2  501    0  0.35764222129E+02  0.34588040905E+02 -0.13180063211E+02  0.51469663146E+02  0.00000000000E+00 0. -1.
         -2    1    1    2    0  503 -0.81108576983E+02 -0.78874216116E+02 -0.87349039330E+02  0.14293214439E+03  0.00000000000E+00 0.  1.
<mgrwt>
<rscale>  2 0.13264188E+03</rscale>
<asrwt>0</asrwt>
<pdfrwt beam="1">  1       21 0.11011136E-01 0.13264188E+03</pdfrwt>
<pdfrwt beam="2">  1       21 0.39055439E-01 0.13264188E+03</pdfrwt>
<totfact> 0.43647052E+05</totfact>
</mgrwt>
</event>
<event>
 5    1  0.1281005E-004  0.2146949E+03  0.7546771E-02  0.1137901E+00
         21   -1    0    0  501  502  0.00000000000E+00  0.00000000000E+00  0.32000959870E+03  0.32000959870E+03  0.00000000000E+00 0.  1.
         21   -1    0    0  502  503 -0.00000000000E+00 -0.00000000000E+00 -0.14597958309E+03  0.14597958309E+03  0.00000000000E+00 0. -1.
         24    1    1    2    0    0 -0.15072871262E+02  0.11192219424E+02  0.32477030525E+02  0.88737988989E+02  0.80419002446E+02 0.  1.
          1    1    1    2  501    0  0.17598005667E+03  0.34947758071E+02  0.97330083339E+02  0.20411631798E+03  0.00000000000E+00 0. -1.
         -2    1    1    2    0  503 -0.16090718541E+03 -0.46139977495E+02  0.44222901754E+02  0.17313487482E+03  0.00000000000E+00 0.  1.
<mgrwt>
<rscale>  2 0.21469488E+03</rscale>
<asrwt>0</asrwt>
<pdfrwt beam="1">  1       21 0.49232246E-01 0.21469488E+03</pdfrwt>
<pdfrwt beam="2">  1       21 0.22458397E-01 0.21469488E+03</pdfrwt>
<totfact> 0.72364319E+04</totfact>
</mgrwt>
</event>
<event>
 5    1  0.1281005E-004  0.2018328E+03  0.7546771E-02  0.1148202E+00
         21   -1    0    0  501  502  0.00000000000E+00  0.00000000000E+00  0.38656643644E+03  0.38656643644E+03  0.00000000000E+00 0.  1.
         21   -1    0    0  502  503 -0.00000000000E+00 -0.00000000000E+00 -0.14074534950E+03  0.14074534950E+03  0.00000000000E+00 0.  1.
         24    1    1    2    0    0  0.64655511817E+01  0.14187896294E+02  0.16813498674E+03  0.18702857929E+03  0.80419002446E+02 0.  1.
          1    1    1    2  501    0 -0.16380691475E+03 -0.14040675749E+02  0.80190734088E+02  0.18292184049E+03  0.00000000000E+00 0. -1.
         -2    1    1    2    0  503  0.15734136357E+03 -0.14722054493E+00 -0.25046338810E+01  0.15736136615E+03  0.00000000000E+00 0.  1.
<mgrwt>
<rscale>  2 0.20183275E+03</rscale>
<asrwt>0</asrwt>
<pdfrwt beam="1">  1       21 0.59471759E-01 0.20183275E+03</pdfrwt>
<pdfrwt beam="2">  1       21 0.21653131E-01 0.20183275E+03</pdfrwt>
<totfact> 0.52291406E+04</totfact>
</mgrwt>
</event>
<event>
 5    1  0.1281005E-004  0.1383068E+03  0.7546771E-02  0.1215626E+00
         21   -1    0    0  503  502  0.00000000000E+00  0.00000000000E+00  0.93169990003E+02  0.93169990003E+02  0.00000000000E+00 0. -1.
         21   -1    0    0  501  503 -0.00000000000E+00 -0.00000000000E+00 -0.22136867484E+03  0.22136867484E+03  0.00000000000E+00 0.  1.
         24    1    1    2    0    0 -0.41573903138E+02  0.28744367709E+02 -0.83131816958E+02  0.12622496996E+03  0.80419002446E+02 0. -1.
          1    1    1    2  501    0 -0.64593665127E+01  0.70804701234E+02 -0.28271499703E+02  0.76513442139E+02  0.00000000000E+00 0. -1.
         -2    1    1    2    0  502  0.48033269651E+02 -0.99549068942E+02 -0.16795368177E+02  0.11180025274E+03  0.00000000000E+00 0.  1.
<mgrwt>
<rscale>  2 0.13830681E+03</rscale>
<asrwt>0</asrwt>
<pdfrwt beam="1">  1       21 0.14333845E-01 0.13830681E+03</pdfrwt>
<pdfrwt beam="2">  1       21 0.34056719E-01 0.13830681E+03</pdfrwt>
<totfact> 0.35753657E+05</totfact>
</mgrwt>
</event>
<event>
 5    1  0.1281005E-004  0.1627464E+03  0.7546771E-02  0.1185631E+00
         21   -1    0    0  501  502  0.00000000000E+00  0.00000000000E+00  0.11238559830E+03  0.11238559830E+03  0.00000000000E+00 0.  1.
         21   -1    0    0  502  503 -0.00000000000E+00 -0.00000000000E+00 -0.24591308869E+03  0.24591308869E+03  0.00000000000E+00 0. -1.
         24    1    1    2    0    0  0.20822634619E+02 -0.48640022010E+02 -0.80602968713E+01  0.96600301209E+02  0.80419002446E+02 0.  1.
          1    1    1    2  501    0  0.18935850296E+02 -0.86403791711E+02 -0.40663196239E+02  0.97353362432E+02  0.00000000000E+00 0. -1.
         -2    1    1    2    0  503 -0.39758484915E+02  0.13504381372E+03 -0.84803997279E+02  0.16434502336E+03  0.00000000000E+00 0.  1.
<mgrwt>
<rscale>  2 0.16274637E+03</rscale>
<asrwt>0</asrwt>
<pdfrwt beam="1">  1       21 0.17290092E-01 0.16274637E+03</pdfrwt>
<pdfrwt beam="2">  1       21 0.37832783E-01 0.16274637E+03</pdfrwt>
<totfact> 0.20553772E+05</totfact>
</mgrwt>
</event>
<event>
 5    1  0.1281005E-004  0.2355016E+03  0.7546771E-02  0.1122826E+00
         21   -1    0    0  501  502  0.00000000000E+00  0.00000000000E+00  0.69841792342E+03  0.69841792342E+03  0.00000000000E+00 0.  1.
         21   -1    0    0  502  503 -0.00000000000E+00 -0.00000000000E+00 -0.81292547084E+02  0.81292547084E+02  0.00000000000E+00 0. -1.
         24    1    1    2    0    0  0.17853676219E+03 -0.83471465596E+02  0.32342564573E+03  0.38718758412E+03  0.80419002446E+02 0.  0.
          1    1    1    2  501    0 -0.12938473262E+03  0.13495805910E+03  0.23473587148E+03  0.30009167951E+03  0.00000000000E+00 0. -1.
         -2    1    1    2    0  503 -0.49152029573E+02 -0.51486593507E+02  0.58963859123E+02  0.92431206877E+02  0.00000000000E+00 0.  1.
<mgrwt>
<rscale>  2 0.23550158E+03</rscale>
<asrwt>0</asrwt>
<pdfrwt beam="1">  1       21 0.10744891E+00 0.23550158E+03</pdfrwt>
<pdfrwt beam="2">  1       21 0.12506546E-01 0.23550158E+03</pdfrwt>
<totfact> 0.36831261E+04</totfact>
</mgrwt>
</event>
<event>
 5    1  0.1281005E-004  0.1944329E+03  0.7546771E-02  0.1154523E+00
         21   -1    0    0  503  502  0.00000000000E+00  0.00000000000E+00  0.13167520675E+04  0.13167520675E+04  0.00000000000E+00 0. -1.
         21   -1    0    0  501  503 -0.00000000000E+00 -0.00000000000E+00 -0.29896568406E+02  0.29896568406E+02  0.00000000000E+00 0.  1.
         24    1    1    2    0    0  0.25565426781E+02  0.65839938969E+02  0.28876357372E+03  0.30796120871E+03  0.80419002446E+02 0.  1.
          1    1    1    2  501    0  0.11489908840E+02  0.10570768511E+03  0.48137256735E+03  0.49297634963E+03  0.00000000000E+00 0. -1.
         -2    1    1    2    0  502 -0.37055335621E+02 -0.17154762408E+03  0.51671935808E+03  0.54571107762E+03  0.00000000000E+00 0.  1.
<mgrwt>
<rscale>  2 0.19443286E+03</rscale>
<asrwt>0</asrwt>
<pdfrwt beam="1">  1       21 0.20257720E+00 0.19443286E+03</pdfrwt>
<pdfrwt beam="2">  1       21 0.45994731E-02 0.19443286E+03</pdfrwt>
<totfact> 0.39999196E+04</totfact>
</mgrwt>
</event>
<event>
 5    1  0.1281005E-004  0.2765247E+03  0.7546771E-02  0.1097602E+00
         21   -1    0    0  501  502  0.00000000000E+00  0.00000000000E+00  0.53232955130E+03  0.53232955130E+03  0.00000000000E+00 0. -1.
         21   -1    0    0  502  503 -0.00000000000E+00 -0.00000000000E+00 -0.14928974817E+03  0.14928974817E+03  0.00000000000E+00 0.  1.
         24    1    1    2    0    0 -0.28289976473E+02 -0.11751006140E+02  0.75533523164E+02  0.11450300428E+03  0.80419002446E+02 0.  1.
          1    1    1    2  501    0 -0.99602980659E+02 -0.19782015295E+03  0.20246590851E+03  0.30007667483E+03  0.00000000000E+00 0. -1.
         -2    1    1    2    0  503  0.12789295713E+03  0.20957115909E+03  0.10504037145E+03  0.26703962036E+03  0.00000000000E+00 0.  1.
<mgrwt>
<rscale>  2 0.27652472E+03</rscale>
<asrwt>0</asrwt>
<pdfrwt beam="1">  1       21 0.81896853E-01 0.27652472E+03</pdfrwt>
<pdfrwt beam="2">  1       21 0.22967654E-01 0.27652472E+03</pdfrwt>
<totfact> 0.22231774E+04</totfact>
</mgrwt>
</event>
<event>
 5    1  0.1281005E-004  0.7728923E+02  0.7546771E-02  0.1336925E+00
         21   -1    0    0  501  502  0.00000000000E+00  0.00000000000E+00  0.15305265932E+03  0.15305265932E+03  0.00000000000E+00 0.  1.
         21   -1    0    0  502  503 -0.00000000000E+00 -0.00000000000E+00 -0.44937035470E+02  0.44937035470E+02  0.00000000000E+00 0. -1.
         24    1    1    2    0    0  0.22259563898E+02 -0.18822891397E+01  0.22461345476E+02  0.86433553625E+02  0.80419002446E+02 0. -1.
          1    1    1    2  501    0  0.23125893463E+02  0.96689790280E+01  0.35636796013E+02  0.43569224620E+02  0.00000000000E+00 0. -1.
         -2    1    1    2    0  503 -0.45385457361E+02 -0.77866898884E+01  0.50017482356E+02  0.67986916540E+02  0.00000000000E+00 0.  1.
<mgrwt>
<rscale>  2 0.77289234E+02</rscale>
<asrwt>0</asrwt>
<pdfrwt beam="1">  1       21 0.23546563E-01 0.77289234E+02</pdfrwt>
<pdfrwt beam="2">  1       21 0.69133901E-02 0.77289234E+02</pdfrwt>
<totfact> 0.25468771E+06</totfact>
</mgrwt>
</event>
<event>
 5    1  0.1281005E-004  0.1449536E+03  0.7546771E-02  0.1206815E+00
         21   -1    0    0  503  502  0.00000000000E+00  0.00000000000E+00  0.15781829779E+02  0.15781829779E+02  0.00000000000E+00 0. -1.
         21   -1    0    0  501  503 -0.00000000000E+00 -0.00000000000E+00 -0.13389356939E+04  0.13389356939E+04  0.00000000000E+00 0.  1.
         24    1    1    2    0    0  0.15375142703E+02 -0.21714533213E+02 -0.37013254451E+03  0.37970150438E+03  0.80419002446E+02 0.  0.
          1    1    1    2  501    0 -0.10715517160E+03  0.34415908676E+02 -0.48162480637E+03  0.49459997946E+03  0.00000000000E+00 0. -1.
         -2    1    1    2    0  502  0.91780028895E+02 -0.12701375463E+02 -0.47139651326E+03  0.48041603986E+03  0.00000000000E+00 0.  1.
<mgrwt>
<rscale>  2 0.14495362E+03</rscale>
<asrwt>0</asrwt>
<pdfrwt beam="1">  1       21 0.24279727E-02 0.14495362E+03</pdfrwt>
<pdfrwt beam="2">  1       21 0.20599020E+00 0.14495362E+03</pdfrwt>
<totfact> 0.11347400E+05</totfact>
</mgrwt>
</event>
<event>
 5    1  0.1281005E-004  0.2299732E+03  0.7546771E-02  0.1126659E+00
         21   -1    0    0  503  502  0.00000000000E+00  0.00000000000E+00  0.30740901958E+03  0.30740901958E+03  0.00000000000E+00 0.  1.
         21   -1    0    0  501  503 -0.00000000000E+00 -0.00000000000E+00 -0.18950159435E+03  0.18950159435E+03  0.00000000000E+00 0. -1.
         24    1    1    2    0    0 -0.54979704969E+02  0.42477986830E+02 -0.19893452664E+02  0.10812082471E+03  0.80419002446E+02 0. -1.
          1    1    1    2  501    0  0.20034842530E+03 -0.55010962593E+02  0.35953437854E+02  0.21085148143E+03  0.00000000000E+00 0. -1.
         -2    1    1    2    0  502 -0.14536872034E+03  0.12532975763E+02  0.10184744004E+03  0.17793830778E+03  0.00000000000E+00 0.  1.
<mgrwt>
<rscale>  2 0.22997324E+03</rscale>
<asrwt>0</asrwt>
<pdfrwt beam="1">  1       21 0.47293695E-01 0.22997324E+03</pdfrwt>
<pdfrwt beam="2">  1       21 0.29154092E-01 0.22997324E+03</pdfrwt>
<totfact> 0.47348626E+04</totfact>
</mgrwt>
</event>
<event>
 5    1  0.1281005E-004  0.1462216E+03  0.7546771E-02  0.1205194E+00
         21   -1    0    0  503  502  0.00000000000E+00  0.00000000000E+00  0.22400227649E+03  0.22400227649E+03  0.00000000000E+00 0.  1.
         21   -1    0    0  501  503 -0.00000000000E+00 -0.00000000000E+00 -0.98575894040E+02  0.98575894040E+02  0.00000000000E+00 0. -1.
         24    1    1    2    0    0  0.67098708838E+02  0.11945316947E+02  0.72109462936E+02  0.12771811901E+03  0.80419002446E+02 0.  0.
          1    1    1    2  501    0 -0.26578465920E+02  0.81206792237E+02  0.18070516732E+02  0.87335568534E+02  0.00000000000E+00 0. -1.
         -2    1    1    2    0  502 -0.40520242918E+02 -0.93152109185E+02  0.35246402779E+02  0.10752448298E+03  0.00000000000E+00 0.  1.
<mgrwt>
<rscale>  2 0.14622164E+03</rscale>
<asrwt>0</asrwt>
<pdfrwt beam="1">  1       21 0.34461888E-01 0.14622164E+03</pdfrwt>
<pdfrwt beam="2">  1       21 0.15165522E-01 0.14622164E+03</pdfrwt>
<totfact> 0.31511651E+05</totfact>
</mgrwt>
</event>
<event>
 5    1  0.1281005E-004  0.1734681E+03  0.7546771E-02  0.1174279E+00
         21   -1    0    0  501  502  0.00000000000E+00  0.00000000000E+00  0.18524954361E+03  0.18524954361E+03  0.00000000000E+00 0.  1.
         21   -1    0    0  502  503 -0.00000000000E+00 -0.00000000000E+00 -0.16575455902E+03  0.16575455902E+03  0.00000000000E+00 0. -1.
         24    1    1    2    0    0 -0.67434658941E+02  0.28897515992E+02 -0.98073939438E+01  0.10929730366E+03  0.80419002446E+02 0.  0.
          1    1    1    2  501    0  0.11837799039E+03 -0.96991795810E+02  0.44293526911E+01  0.15310250236E+03  0.00000000000E+00 0. -1.
         -2    1    1    2    0  503 -0.50943331453E+02  0.68094279819E+02  0.24873025841E+02  0.88604296611E+02  0.00000000000E+00 0.  1.
<mgrwt>
<rscale>  2 0.17346815E+03</rscale>
<asrwt>0</asrwt>
<pdfrwt beam="1">  1       21 0.28499930E-01 0.17346815E+03</pdfrwt>
<pdfrwt beam="2">  1       21 0.25500701E-01 0.17346815E+03</pdfrwt>
<totfact> 0.17270287E+05</totfact>
</mgrwt>
</event>
<event>
 5    1  0.1281005E-004  0.9759196E+02  0.7546771E-02  0.1285443E+00
         21   -1    0    0  501  502  0.00000000000E+00  0.00000000000E+00  0.29477084986E+04  0.29477084986E+04  0.00000000000E+00 0.  1.
         21   -1    0    0  502  503 -0.00000000000E+00 -0.00000000000E+00 -0.32730123767E+01  0.32730123767E+01  0.00000000000E+00 0. -1.
         24    1    1    2    0    0 -0.40579391567E+02  0.35793790229E+02  0.16175860075E+04  0.16204874545E+04  0.80419002446E+02 0.  1.
          1    1    1    2  501    0  0.21941581488E+02  0.25820519334E+02  0.49385576920E+03  0.49501682091E+03  0.00000000000E+00 0. -1.
         -2    1    1    2    0  503  0.18637810079E+02 -0.61614309563E+02  0.83299370947E+03  0.83547723555E+03  0.00000000000E+00 0.  1.
<mgrwt>
<rscale>  2 0.97591962E+02</rscale>
<asrwt>0</asrwt>
<pdfrwt beam="1">  1       21 0.45349149E+00 0.97591962E+02</pdfrwt>
<pdfrwt beam="2">  1       21 0.50354272E-03 0.97591962E+02</pdfrwt>
<totfact> 0.50731593E+04</totfact>
</mgrwt>
</event>
<event>
 5    1  0.1281005E-004  0.1592466E+03  0.7546771E-02  0.1189550E+00
         21   -1    0    0  503  502  0.00000000000E+00  0.00000000000E+00  0.30162183716E+03  0.30162183716E+03  0.00000000000E+00 0. -1.
         21   -1    0    0  501  503 -0.00000000000E+00 -0.00000000000E+00 -0.87417311438E+02  0.87417311438E+02  0.00000000000E+00 0.  1.
         24    1    1    2    0    0 -0.17386498792E+02  0.69363773462E+02  0.10957884591E+03  0.15358503454E+03  0.80419002446E+02 0.  1.
          1    1    1    2  501    0  0.94821439762E+02  0.15406979369E+02  0.50281629139E+02  0.10842842192E+03  0.00000000000E+00 0. -1.
         -2    1    1    2    0  502 -0.77434940970E+02 -0.84770752831E+02  0.54344050672E+02  0.12702569213E+03  0.00000000000E+00 0.  1.
<mgrwt>
<rscale>  2 0.15924664E+03</rscale>
<asrwt>0</asrwt>
<pdfrwt beam="1">  1       21 0.46403359E-01 0.15924664E+03</pdfrwt>
<pdfrwt beam="2">  1       21 0.13448817E-01 0.15924664E+03</pdfrwt>
<totfact> 0.21475731E+05</totfact>
</mgrwt>
</event>
<event>
 5    1  0.1281005E-004  0.1949323E+03  0.7546771E-02  0.1154086E+00
         21   -1    0    0  503  502  0.00000000000E+00  0.00000000000E+00  0.79924452368E+02  0.79924452368E+02  0.00000000000E+00 0.  1.
         21   -1    0    0  501  503 -0.00000000000E+00 -0.00000000000E+00 -0.77327569012E+03  0.77327569012E+03  0.00000000000E+00 0. -1.
         24    1    1    2    0    0  0.24620919344E+02 -0.50472441203E+02 -0.12110809748E+03  0.15584621978E+03  0.80419002446E+02 0.  0.
          1    1    1    2  501    0 -0.12542596167E+03  0.11657354283E+03 -0.54835032430E+03  0.57446422074E+03  0.00000000000E+00 0. -1.
         -2    1    1    2    0  502  0.10080504233E+03 -0.66101101624E+02 -0.23892815971E+02  0.12288970197E+03  0.00000000000E+00 0.  1.
<mgrwt>
<rscale>  2 0.19493232E+03</rscale>
<asrwt>0</asrwt>
<pdfrwt beam="1">  1       21 0.12296070E-01 0.19493232E+03</pdfrwt>
<pdfrwt beam="2">  1       21 0.11896549E+00 0.19493232E+03</pdfrwt>
<totfact> 0.30270233E+04</totfact>
</mgrwt>
</event>
<event>
 5    1  0.1281005E-004  0.2362011E+03  0.7546771E-02  0.1122350E+00
         21   -1    0    0  503  502  0.00000000000E+00  0.00000000000E+00  0.11683470228E+03  0.11683470228E+03  0.00000000000E+00 0. -1.
         21   -1    0    0  501  503 -0.00000000000E+00 -0.00000000000E+00 -0.52473178163E+03  0.52473178163E+03  0.00000000000E+00 0.  1.
         24    1    1    2    0    0  0.13215179805E+02 -0.31216626238E+02 -0.16834289357E+02  0.88880413948E+02  0.80419002446E+02 0. -1.
          1    1    1    2  501    0  0.89441736220E+02 -0.15127977811E+03 -0.13320121424E+03  0.22051747985E+03  0.00000000000E+00 0. -1.
         -2    1    1    2    0  502 -0.10265691603E+03  0.18249640435E+03 -0.25786157575E+03  0.33216859011E+03  0.00000000000E+00 0.  1.
<mgrwt>
<rscale>  2 0.23620107E+03</rscale>
<asrwt>0</asrwt>
<pdfrwt beam="1">  1       21 0.17974570E-01 0.23620107E+03</pdfrwt>
<pdfrwt beam="2">  1       21 0.80727966E-01 0.23620107E+03</pdfrwt>
<totfact> 0.37109477E+04</totfact>
</mgrwt>
</event>
<event>
 5    1  0.1281005E-004  0.2175322E+03  0.7546771E-02  0.1135736E+00
         21   -1    0    0  501  502  0.00000000000E+00  0.00000000000E+00  0.65292978884E+02  0.65292978884E+02  0.00000000000E+00 0. -1.
         21   -1    0    0  502  503 -0.00000000000E+00 -0.00000000000E+00 -0.75715650329E+03  0.75715650329E+03  0.00000000000E+00 0.  1.
         24    1    1    2    0    0  0.14766783413E+03 -0.31461688771E+02 -0.35697415013E+03  0.39584515522E+03  0.80419002446E+02 0.  0.
          1    1    1    2  501    0 -0.20228390483E+03  0.46071735561E+02 -0.25502284070E+03  0.32875223535E+03  0.00000000000E+00 0. -1.
         -2    1    1    2    0  503  0.54616070700E+02 -0.14610046790E+02 -0.79866533585E+02  0.97852091612E+02  0.00000000000E+00 0.  1.
<mgrwt>
<rscale>  2 0.21753223E+03</rscale>
<asrwt>0</asrwt>
<pdfrwt beam="1">  1       21 0.10045073E-01 0.21753223E+03</pdfrwt>
<pdfrwt beam="2">  1       21 0.11648562E+00 0.21753223E+03</pdfrwt>
<totfact> 0.45144487E+04</totfact>
</mgrwt>
</event>
<event>
 5    1  0.1281005E-004  0.1196130E+03  0.7546771E-02  0.1243737E+00
         21   -1    0    0  503  502  0.00000000000E+00  0.00000000000E+00  0.21149240370E+02  0.21149240370E+02  0.00000000000E+00 0. -1.
         21   -1    0    0  501  503 -0.00000000000E+00 -0.00000000000E+00 -0.68089281534E+03  0.68089281534E+03  0.00000000000E+00 0.  1.
         24    1    1    2    0    0 -0.13249107425E+02  0.37333363736E+01 -0.24254361583E+03  0.25589860919E+03  0.80419002446E+02 0.  1.
          1    1    1    2  501    0 -0.26480816460E+02  0.69470964272E+02 -0.18024400361E+03  0.19497525318E+03  0.00000000000E+00 0. -1.
         -2    1    1    2    0  502  0.39729923885E+02 -0.73204300646E+02 -0.23695595553E+03  0.25116819334E+03  0.00000000000E+00 0.  1.
<mgrwt>
<rscale>  2 0.11961302E+03</rscale>
<asrwt>0</asrwt>
<pdfrwt beam="1">  1       21 0.32537292E-02 0.11961302E+03</pdfrwt>
<pdfrwt beam="2">  1       21 0.10475274E+00 0.11961302E+03</pdfrwt>
<totfact> 0.41286263E+05</totfact>
</mgrwt>
</event>
<event>
 5    1  0.1281005E-004  0.1673344E+03  0.7546771E-02  0.1180656E+00
         21   -1    0    0  503  502  0.00000000000E+00  0.00000000000E+00  0.42814953681E+02  0.42814953681E+02  0.00000000000E+00 0. -1.
         21   -1    0    0  501  503 -0.00000000000E+00 -0.00000000000E+00 -0.78639376865E+03  0.78639376865E+03  0.00000000000E+00 0.  1.
         24    1    1    2    0    0  0.93371826365E+02  0.27123184752E+02 -0.45405505821E+03  0.47126126188E+03  0.80419002446E+02 0.  0.
          1    1    1    2  501    0  0.32775578419E+02  0.50624167931E+02 -0.10721688446E+03  0.12301424808E+03  0.00000000000E+00 0. -1.
         -2    1    1    2    0  502 -0.12614740478E+03 -0.77747352682E+02 -0.18230687230E+03  0.23493321236E+03  0.00000000000E+00 0.  1.
<mgrwt>
<rscale>  2 0.16733439E+03</rscale>
<asrwt>0</asrwt>
<pdfrwt beam="1">  1       21 0.65869166E-02 0.16733439E+03</pdfrwt>
<pdfrwt beam="2">  1       21 0.12098364E+00 0.16733439E+03</pdfrwt>
<totfact> 0.87959670E+04</totfact>
</mgrwt>
</event>
<event>
 5    1  0.1281005E-004  0.1271807E+03  0.7546771E-02  0.1231700E+00
         21   -1    0    0  501  502  0.00000000000E+00  0.00000000000E+00  0.34394373993E+03  0.34394373993E+03  0.00000000000E+00 0.  1.
         21   -1    0    0  502  503 -0.00000000000E+00 -0.00000000000E+00 -0.49246380567E+02  0.49246380567E+02  0.00000000000E+00 0.  1.
         24    1    1    2    0    0  0.12846366872E+02 -0.73459555022E+02  0.92803120282E+02  0.14366965739E+03  0.80419002446E+02 0.  1.
          1    1    1    2  501    0 -0.79406728193E+00 -0.35276176956E+02  0.33145465610E+02  0.48411373602E+02  0.00000000000E+00 0. -1.
         -2    1    1    2    0  503 -0.12052299591E+02  0.10873573198E+03  0.16874877347E+03  0.20110908951E+03  0.00000000000E+00 0.  1.
<mgrwt>
<rscale>  2 0.12718075E+03</rscale>
<asrwt>0</asrwt>
<pdfrwt beam="1">  1       21 0.52914420E-01 0.12718075E+03</pdfrwt>
<pdfrwt beam="2">  1       21 0.75763664E-02 0.12718075E+03</pdfrwt>
<totfact> 0.45091549E+05</totfact>
</mgrwt>
</event>
<event>
 5    1  0.1281005E-004  0.1673779E+03  0.7546771E-02  0.1180610E+00
         21   -1    0    0  501  502  0.00000000000E+00  0.00000000000E+00  0.16992300712E+03  0.16992300712E+03  0.00000000000E+00 0. -1.
         21   -1    0    0  502  503 -0.00000000000E+00 -0.00000000000E+00 -0.16878612288E+03  0.16878612288E+03  0.00000000000E+00 0.  1.
         24    1    1    2    0    0 -0.48967082933E+02  0.10962603661E+03  0.23436167850E+02  0.14639710732E+03  0.80419002446E+02 0. -1.
          1    1    1    2  501    0 -0.93643313726E+01  0.33979603454E+02  0.25233991800E+01  0.35336549016E+02  0.00000000000E+00 0. -1.
         -2    1    1    2    0  503  0.58331414305E+02 -0.14360564006E+03 -0.24822682786E+02  0.15697547366E+03  0.00000000000E+00 0.  1.
<mgrwt>
<rscale>  2 0.16737790E+03</rscale>
<asrwt>0</asrwt>
<pdfrwt beam="1">  1       21 0.26142001E-01 0.16737790E+03</pdfrwt>
<pdfrwt beam="2">  1       21 0.25967096E-01 0.16737790E+03</pdfrwt>
<totfact> 0.19732643E+05</totfact>
</mgrwt>
</event>
<event>
 5    1  0.1281005E-004  0.1396768E+03  0.7546771E-02  0.1213765E+00
         21   -1    0    0  501  502  0.00000000000E+00  0.00000000000E+00  0.12384062885E+03  0.12384062885E+03  0.00000000000E+00 0. -1.
         21   -1    0    0  502  503 -0.00000000000E+00 -0.00000000000E+00 -0.15798000875E+03  0.15798000875E+03  0.00000000000E+00 0. -1.
         24    1    1    2    0    0  0.43301319483E+02  0.92958111715E+02 -0.10027813438E+02  0.13070572979E+03  0.80419002446E+02 0. -1.
          1    1    1    2  501    0 -0.72158901513E+02 -0.95911602633E+02 -0.16757687486E+02  0.12118895444E+03  0.00000000000E+00 0. -1.
         -2    1    1    2    0  503  0.28857582031E+02  0.29534909183E+01 -0.73538789769E+01  0.29925953373E+02  0.00000000000E+00 0.  1.
<mgrwt>
<rscale>  2 0.13967679E+03</rscale>
<asrwt>0</asrwt>
<pdfrwt beam="1">  1       21 0.19052404E-01 0.13967679E+03</pdfrwt>
<pdfrwt beam="2">  1       21 0.24304617E-01 0.13967679E+03</pdfrwt>
<totfact> 0.40743455E+05</totfact>
</mgrwt>
</event>
<event>
 5    1  0.1281005E-004  0.1240506E+03  0.7546771E-02  0.1236561E+00
         21   -1    0    0  501  502  0.00000000000E+00  0.00000000000E+00  0.35002642052E+02  0.35002642052E+02  0.00000000000E+00 0. -1.
         21   -1    0    0  502  503 -0.00000000000E+00 -0.00000000000E+00 -0.45273659402E+03  0.45273659402E+03  0.00000000000E+00 0. -1.
         24    1    1    2    0    0 -0.25552877220E+02 -0.60512378550E+02 -0.15002887838E+03  0.18245705740E+03  0.80419002446E+02 0. -1.
          1    1    1    2  501    0  0.48968973490E+02  0.92476585888E+02 -0.16716265351E+03  0.19721367100E+03  0.00000000000E+00 0. -1.
         -2    1    1    2    0  503 -0.23416096270E+02 -0.31964207338E+02 -0.10054242007E+03  0.10806850767E+03  0.00000000000E+00 0.  1.
<mgrwt>
<rscale>  2 0.12405060E+03</rscale>
<asrwt>0</asrwt>
<pdfrwt beam="1">  1       21 0.53850221E-02 0.12405060E+03</pdfrwt>
<pdfrwt beam="2">  1       21 0.69651781E-01 0.12405060E+03</pdfrwt>
<totfact> 0.44935011E+05</totfact>
</mgrwt>
</event>
<event>
 5    1  0.1281005E-004  0.1867204E+03  0.7546771E-02  0.1161453E+00
         21   -1    0    0  503  502  0.00000000000E+00  0.00000000000E+00  0.11659950357E+03  0.11659950357E+03  0.00000000000E+00 0. -1.
         21   -1    0    0  501  503 -0.00000000000E+00 -0.00000000000E+00 -0.29973505950E+03  0.29973505950E+03  0.00000000000E+00 0.  1.
         24    1    1    2    0    0  0.20511165924E+02 -0.81875001343E+01 -0.32802371501E+02  0.89615593601E+02  0.80419002446E+02 0. -1.
          1    1    1    2  501    0  0.78225027017E+01  0.14758719473E+03 -0.74118523263E+02  0.16533822028E+03  0.00000000000E+00 0. -1.
         -2    1    1    2    0  502 -0.28333668625E+02 -0.13939969459E+03 -0.76214661165E+02  0.16138074918E+03  0.00000000000E+00 0.  1.
<mgrwt>
<rscale>  2 0.18672039E+03</rscale>
<asrwt>0</asrwt>
<pdfrwt beam="1">  1       21 0.17938386E-01 0.18672039E+03</pdfrwt>
<pdfrwt beam="2">  1       21 0.46113085E-01 0.18672039E+03</pdfrwt>
<totfact> 0.12758420E+05</totfact>
</mgrwt>
</event>
<event>
 5    1  0.1281005E-004  0.1298605E+03  0.7546771E-02  0.1227663E+00
         21   -1    0    0  503  502  0.00000000000E+00  0.00000000000E+00  0.13537646137E+02  0.13537646137E+02  0.00000000000E+00 0.  1.
         21   -1    0    0  501  503 -0.00000000000E+00 -0.00000000000E+00 -0.16422955116E+04  0.16422955116E+04  0.00000000000E+00 0.  1.
         24    1    1    2    0    0  0.74784743088E+01 -0.36011996556E+00 -0.89587963662E+03  0.89951297741E+03  0.80419002446E+02 0.  1.
          1    1    1    2  501    0 -0.32963602896E+02 -0.84313608117E+02 -0.47909514279E+03  0.48757311192E+03  0.00000000000E+00 0. -1.
         -2    1    1    2    0  502  0.25485128587E+02  0.84673728083E+02 -0.25378308603E+03  0.26874706838E+03  0.00000000000E+00 0.  1.
<mgrwt>
<rscale>  2 0.12986050E+03</rscale>
<asrwt>0</asrwt>
<pdfrwt beam="1">  1       21 0.20827145E-02 0.12986050E+03</pdfrwt>
<pdfrwt beam="2">  1       21 0.25266088E+00 0.12986050E+03</pdfrwt>
<totfact> 0.77767380E+04</totfact>
</mgrwt>
</event>
<event>
 5    1  0.1281005E-004  0.2103115E+03  0.7546771E-02  0.1141320E+00
         21   -1    0    0  503  502  0.00000000000E+00  0.00000000000E+00  0.11710462191E+03  0.11710462191E+03  0.00000000000E+00 0. -1.
         21   -1    0    0  501  503 -0.00000000000E+00 -0.00000000000E+00 -0.40720334241E+03  0.40720334241E+03  0.00000000000E+00 0. -1.
         24    1    1    2    0    0  0.14840429168E+03 -0.81984225051E+02 -0.19852206661E+03  0.27317297420E+03  0.80419002446E+02 0. -1.
          1    1    1    2  501    0 -0.17924941116E+03  0.90741609693E+02 -0.71240666713E+02  0.21316571892E+03  0.00000000000E+00 0. -1.
         -2    1    1    2    0  502  0.30845119477E+02 -0.87573846415E+01 -0.20335987170E+02  0.37969271200E+02  0.00000000000E+00 0.  1.
<mgrwt>
<rscale>  2 0.21031148E+03</rscale>
<asrwt>0</asrwt>
<pdfrwt beam="1">  1       21 0.18016096E-01 0.21031148E+03</pdfrwt>
<pdfrwt beam="2">  1       21 0.62646668E-01 0.21031148E+03</pdfrwt>
<totfact> 0.65648516E+04</totfact>
</mgrwt>
</event>
<event>
 5    1  0.1281005E-004  0.1259279E+03  0.7546771E-02  0.1233626E+00
         21   -1    0    0  503  502  0.00000000000E+00  0.00000000000E+00  0.31161245640E+03  0.31161245640E+03  0.00000000000E+00 0.  1.
         21   -1    0    0  501  503 -0.00000000000E+00 -0.00000000000E+00 -0.61135028488E+02  0.61135028488E+02  0.00000000000E+00 0. -1.
         24    1    1    2    0    0  0.82249104705E+01  0.34469398444E+02  0.20488782125E+02  0.90237435295E+02  0.80419002446E+02 0. -1.
          1    1    1    2  501    0 -0.68245138457E+02 -0.67058769438E+02  0.12957886412E+03  0.16107439123E+03  0.00000000000E+00 0. -1.
         -2    1    1    2    0  502  0.60020227986E+02  0.32589370993E+02  0.10040978166E+03  0.12143565837E+03  0.00000000000E+00 0.  1.
<mgrwt>
<rscale>  2 0.12592786E+03</rscale>
<asrwt>0</asrwt>
<pdfrwt beam="1">  1       21 0.47940377E-01 0.12592786E+03</pdfrwt>
<pdfrwt beam="2">  1       21 0.94053892E-02 0.12592786E+03</pdfrwt>
<totfact> 0.38041970E+05</totfact>
</mgrwt>
</event>
<event>
 5    1  0.1281005E-004  0.1469540E+03  0.7546771E-02  0.1204267E+00
         21   -1    0    0  501  502  0.00000000000E+00  0.00000000000E+00  0.41538895984E+03  0.41538895984E+03  0.00000000000E+00 0. -1.
         21   -1    0    0  502  503 -0.00000000000E+00 -0.00000000000E+00 -0.54888336079E+02  0.54888336079E+02  0.00000000000E+00 0.  1.
         24    1    1    2    0    0  0.54137544720E+02  0.92610747721E+01  0.16688523277E+03  0.19322147429E+03  0.80419002446E+02 0. -1.
          1    1    1    2  501    0 -0.78368474100E+02 -0.85821545645E+02  0.96656082348E+02  0.15116002674E+03  0.00000000000E+00 0. -1.
         -2    1    1    2    0  503  0.24230929380E+02  0.76560470872E+02  0.96959308645E+02  0.12589579489E+03  0.00000000000E+00 0.  1.
<mgrwt>
<rscale>  2 0.14695399E+03</rscale>
<asrwt>0</asrwt>
<pdfrwt beam="1">  1       21 0.63905992E-01 0.14695399E+03</pdfrwt>
<pdfrwt beam="2">  1       21 0.84443597E-02 0.14695399E+03</pdfrwt>
<totfact> 0.24992478E+05</totfact>
</mgrwt>
</event>
<event>
 5    1  0.1281005E-004  0.1779246E+03  0.7546771E-02  0.1169827E+00
         21   -1    0    0  503  502  0.00000000000E+00  0.00000000000E+00  0.14628483803E+03  0.14628483803E+03  0.00000000000E+00 0.  1.
         21   -1    0    0  501  503 -0.00000000000E+00 -0.00000000000E+00 -0.22297640602E+03  0.22297640602E+03  0.00000000000E+00 0.  1.
         24    1    1    2    0    0  0.98855617698E+02 -0.22178883032E+02 -0.60544051230E+01  0.12949211474E+03  0.80419002446E+02 0.  1.
          1    1    1    2  501    0  0.62216413307E+02  0.20203556801E+02 -0.42855944423E+01  0.65554802356E+02  0.00000000000E+00 0. -1.
         -2    1    1    2    0  502 -0.16107203100E+03  0.19753262309E+01 -0.66351568429E+02  0.17421432696E+03  0.00000000000E+00 0.  1.
<mgrwt>
<rscale>  2 0.17792461E+03</rscale>
<asrwt>0</asrwt>
<pdfrwt beam="1">  1       21 0.22505360E-01 0.17792461E+03</pdfrwt>
<pdfrwt beam="2">  1       21 0.34304062E-01 0.17792461E+03</pdfrwt>
<totfact> 0.15215887E+05</totfact>
</mgrwt>
</event>
<event>
 5    1  0.1281005E-004  0.1501815E+03  0.7546771E-02  0.1200250E+00
         21   -1    0    0  501  502  0.00000000000E+00  0.00000000000E+00  0.34080300075E+03  0.34080300075E+03  0.00000000000E+00 0.  1.
         21   -1    0    0  502  503 -0.00000000000E+00 -0.00000000000E+00 -0.77400997618E+02  0.77400997618E+02  0.00000000000E+00 0. -1.
         24    1    1    2    0    0  0.13414914025E+02 -0.38320708059E+01  0.13199176891E+02  0.82680583633E+02  0.80419002446E+02 0.  0.
          1    1    1    2  501    0 -0.70407899541E+01 -0.10724856956E+03  0.88431685582E+02  0.13918330148E+03  0.00000000000E+00 0. -1.
         -2    1    1    2    0  503 -0.63741240707E+01  0.11108064037E+03  0.16177114066E+03  0.19634011325E+03  0.00000000000E+00 0.  1.
<mgrwt>
<rscale>  2 0.15018151E+03</rscale>
<asrwt>0</asrwt>
<pdfrwt beam="1">  1       21 0.52431230E-01 0.15018151E+03</pdfrwt>
<pdfrwt beam="2">  1       21 0.11907846E-01 0.15018151E+03</pdfrwt>
<totfact> 0.20775143E+05</totfact>
</mgrwt>
</event>
<event>
 5    1  0.1281005E-004  0.1646107E+03  0.7546771E-02  0.1183587E+00
         21   -1    0    0  503  502  0.00000000000E+00  0.00000000000E+00  0.90734031700E+02  0.90734031700E+02  0.00000000000E+00 0.  1.
         21   -1    0    0  501  503 -0.00000000000E+00 -0.00000000000E+00 -0.30277773874E+03  0.30277773874E+03  0.00000000000E+00 0. -1.
         24    1    1    2    0    0  0.44011441074E+02 -0.10737537641E+02 -0.41623281359E+02  0.10125223536E+03  0.80419002446E+02 0. -1.
          1    1    1    2  501    0 -0.13692078126E+03 -0.21455323384E+02 -0.10905128764E+03  0.17635139517E+03  0.00000000000E+00 0. -1.
         -2    1    1    2    0  502  0.92909340183E+02  0.32192861024E+02 -0.61369138042E+02  0.11590813991E+03  0.00000000000E+00 0.  1.
<mgrwt>
<rscale>  2 0.16461075E+03</rscale>
<asrwt>0</asrwt>
<pdfrwt beam="1">  1       21 0.13959082E-01 0.16461075E+03</pdfrwt>
<pdfrwt beam="2">  1       21 0.46581190E-01 0.16461075E+03</pdfrwt>
<totfact> 0.19893494E+05</totfact>
</mgrwt>
</event>
<event>
 5    1  0.1281005E-004  0.1644988E+03  0.7546771E-02  0.1183709E+00
         21   -1    0    0  503  502  0.00000000000E+00  0.00000000000E+00  0.15381971606E+03  0.15381971606E+03  0.00000000000E+00 0. -1.
         21   -1    0    0  501  503 -0.00000000000E+00 -0.00000000000E+00 -0.17649977943E+03  0.17649977943E+03  0.00000000000E+00 0.  1.
         24    1    1    2    0    0 -0.42672002887E+02  0.90369830642E+02 -0.16557579640E+02  0.12934054089E+03  0.80419002446E+02 0.  1.
          1    1    1    2  501    0 -0.34371157903E+02  0.37855032761E+02 -0.51044720204E+01  0.51385169412E+02  0.00000000000E+00 0. -1.
         -2    1    1    2    0  502  0.77043160790E+02 -0.12822486340E+03 -0.10180117132E+01  0.14959378519E+03  0.00000000000E+00 0.  1.
<mgrwt>
<rscale>  2 0.16449884E+03</rscale>
<asrwt>0</asrwt>
<pdfrwt beam="1">  1       21 0.23664572E-01 0.16449884E+03</pdfrwt>
<pdfrwt beam="2">  1       21 0.27153812E-01 0.16449884E+03</pdfrwt>
<totfact> 0.21908931E+05</totfact>
</mgrwt>
</event>
<event>
 5    1  0.1281005E-004  0.1338236E+03  0.7546771E-02  0.1221890E+00
         21   -1    0    0  503  502  0.00000000000E+00  0.00000000000E+00  0.24427339055E+03  0.24427339055E+03  0.00000000000E+00 0. -1.
         21   -1    0    0  501  503 -0.00000000000E+00 -0.00000000000E+00 -0.77034393652E+02  0.77034393652E+02  0.00000000000E+00 0.  1.
         24    1    1    2    0    0  0.59464383662E+02 -0.73795262717E+02  0.46102847784E+02  0.13256863223E+03  0.80419002446E+02 0.  0.
          1    1    1    2  501    0 -0.78774524742E+02  0.88942207726E+02  0.89766450817E+02  0.14890989811E+03  0.00000000000E+00 0. -1.
         -2    1    1    2    0  502  0.19310141079E+02 -0.15146945009E+02  0.31369698301E+02  0.39829253861E+02  0.00000000000E+00 0.  1.
<mgrwt>
<rscale>  2 0.13382365E+03</rscale>
<asrwt>0</asrwt>
<pdfrwt beam="1">  1       21 0.37580521E-01 0.13382365E+03</pdfrwt>
<pdfrwt beam="2">  1       21 0.11851445E-01 0.13382365E+03</pdfrwt>
<totfact> 0.41371915E+05</totfact>
</mgrwt>
</event>
<event>
 5    1  0.1281005E-004  0.2366660E+03  0.7546771E-02  0.1122034E+00
         21   -1    0    0  501  502  0.00000000000E+00  0.00000000000E+00  0.11376296673E+03  0.11376296673E+03  0.00000000000E+00 0.  1.
         21   -1    0    0  502  503 -0.00000000000E+00 -0.00000000000E+00 -0.53906304346E+03  0.53906304346E+03  0.00000000000E+00 0. -1.
         24    1    1    2    0    0 -0.89571398160E+02  0.58518600431E+02 -0.56342470429E+02  0.14522104494E+03  0.80419002446E+02 0.  1.
          1    1    1    2  501    0  0.12972597484E+03 -0.17410677321E+03 -0.17777823218E+03  0.28061913132E+03  0.00000000000E+00 0. -1.
         -2    1    1    2    0  503 -0.40154576685E+02  0.11558817278E+03 -0.19117937412E+03  0.22698583393E+03  0.00000000000E+00 0.  1.
<mgrwt>
<rscale>  2 0.23666604E+03</rscale>
<asrwt>0</asrwt>
<pdfrwt beam="1">  1       21 0.17501994E-01 0.23666604E+03</pdfrwt>
<pdfrwt beam="2">  1       21 0.82932779E-01 0.23666604E+03</pdfrwt>
<totfact> 0.36656166E+04</totfact>
</mgrwt>
</event>
<event>
 5    1  0.1281005E-004  0.1496485E+03  0.7546771E-02  0.1200906E+00
         21   -1    0    0  503  502  0.00000000000E+00  0.00000000000E+00  0.21701197175E+04  0.21701197175E+04  0.00000000000E+00 0. -1.
         21   -1    0    0  501  503 -0.00000000000E+00 -0.00000000000E+00 -0.10502798758E+02  0.10502798758E+02  0.00000000000E+00 0.  1.
         24    1    1    2    0    0 -0.53670581506E+02 -0.61032004735E+02  0.90923582355E+03  0.91639644025E+03  0.80419002446E+02 0.  1.
          1    1    1    2  501    0  0.10833592589E+03  0.70815062137E+02  0.94707975774E+03  0.95588258347E+03  0.00000000000E+00 0. -1.
         -2    1    1    2    0  502 -0.54665344387E+02 -0.97830574020E+01  0.30330133744E+03  0.30834349252E+03  0.00000000000E+00 0.  1.
<mgrwt>
<rscale>  2 0.14964846E+03</rscale>
<asrwt>0</asrwt>
<pdfrwt beam="1">  1       21 0.33386421E+00 0.14964846E+03</pdfrwt>
<pdfrwt beam="2">  1       21 0.16158169E-02 0.14964846E+03</pdfrwt>
<totfact> 0.39668512E+04</totfact>
</mgrwt>
</event>
<event>
 5    1  0.1281005E-004  0.1982358E+03  0.7546771E-02  0.1151236E+00
         21   -1    0    0  501  502  0.00000000000E+00  0.00000000000E+00  0.34506936732E+02  0.34506936732E+02  0.00000000000E+00 0.  1.
         21   -1    0    0  502  503 -0.00000000000E+00 -0.00000000000E+00 -0.12195723591E+04  0.12195723591E+04  0.00000000000E+00 0. -1.
         24    1    1    2    0    0 -0.54907035199E+02  0.23403405761E+02 -0.44915472820E+03  0.46018440622E+03  0.80419002446E+02 0. -1.
          1    1    1    2  501    0 -0.70835380352E+02 -0.11891858336E+03 -0.30416433112E+03  0.33417842675E+03  0.00000000000E+00 0. -1.
         -2    1    1    2    0  503  0.12574241555E+03  0.95515177595E+02 -0.43174636307E+03  0.45971646288E+03  0.00000000000E+00 0.  1.
<mgrwt>
<rscale>  2 0.19823577E+03</rscale>
<asrwt>0</asrwt>
<pdfrwt beam="1">  1       21 0.53087587E-02 0.19823577E+03</pdfrwt>
<pdfrwt beam="2">  1       21 0.18762654E+00 0.19823577E+03</pdfrwt>
<totfact> 0.39145341E+04</totfact>
</mgrwt>
</event>
<event>
 5    1  0.1281005E-004  0.1766833E+03  0.7546771E-02  0.1171052E+00
         21   -1    0    0  501  502  0.00000000000E+00  0.00000000000E+00  0.26181810175E+03  0.26181810175E+03  0.00000000000E+00 0.  1.
         21   -1    0    0  502  503 -0.00000000000E+00 -0.00000000000E+00 -0.11950422702E+03  0.11950422702E+03  0.00000000000E+00 0. -1.
         24    1    1    2    0    0 -0.38823400521E+02 -0.82814439397E+02  0.54876511313E+02  0.13358194208E+03  0.80419002446E+02 0.  1.
          1    1    1    2  501    0 -0.52335855918E+02 -0.48745641796E+02  0.32027183217E+02  0.78364021550E+02  0.00000000000E+00 0. -1.
         -2    1    1    2    0  503  0.91159256439E+02  0.13156008119E+03  0.55410180200E+02  0.16937636514E+03  0.00000000000E+00 0.  1.
<mgrwt>
<rscale>  2 0.17668326E+03</rscale>
<asrwt>0</asrwt>
<pdfrwt beam="1">  1       21 0.40279708E-01 0.17668326E+03</pdfrwt>
<pdfrwt beam="2">  1       21 0.18385266E-01 0.17668326E+03</pdfrwt>
<totfact> 0.16114763E+05</totfact>
</mgrwt>
</event>
<event>
 5    1  0.1281005E-004  0.2035315E+03  0.7546771E-02  0.1146793E+00
         21   -1    0    0  503  502  0.00000000000E+00  0.00000000000E+00  0.40604955598E+04  0.40604955598E+04  0.00000000000E+00 0.  1.
         21   -1    0    0  501  503 -0.00000000000E+00 -0.00000000000E+00 -0.10415914727E+02  0.10415914727E+02  0.00000000000E+00 0. -1.
         24    1    1    2    0    0  0.86526077216E+02  0.14817092083E+01  0.14079552058E+04  0.14129026984E+04  0.80419002446E+02 0.  0.
          1    1    1    2  501    0  0.97955209195E+02 -0.29566068220E+02  0.82210725468E+03  0.82845018776E+03  0.00000000000E+00 0. -1.
         -2    1    1    2    0  502 -0.18448128641E+03  0.28084359012E+02  0.18200171846E+04  0.18295585884E+04  0.00000000000E+00 0.  1.
<mgrwt>
<rscale>  2 0.20353148E+03</rscale>
<asrwt>0</asrwt>
<pdfrwt beam="1">  1       21 0.62469036E+00 0.20353148E+03</pdfrwt>
<pdfrwt beam="2">  1       21 0.16024517E-02 0.20353148E+03</pdfrwt>
<totfact> 0.37672739E+02</totfact>
</mgrwt>
</event>
<event>
 5    1  0.1281005E-004  0.1183538E+03  0.7546771E-02  0.1245838E+00
         21   -1    0    0  501  502  0.00000000000E+00  0.00000000000E+00  0.70100683003E+03  0.70100683003E+03  0.00000000000E+00 0.  1.
         21   -1    0    0  502  503 -0.00000000000E+00 -0.00000000000E+00 -0.22161901020E+02  0.22161901020E+02  0.00000000000E+00 0. -1.
         24    1    1    2    0    0  0.21220540203E+02 -0.25322142585E+02  0.29139219180E+03  0.30408575703E+03  0.80419002446E+02 0.  1.
          1    1    1    2  501    0  0.27811280138E+02 -0.51558651435E+02  0.85359907615E+02  0.10352813950E+03  0.00000000000E+00 0. -1.
         -2    1    1    2    0  503 -0.49031820341E+02  0.76880794020E+02  0.30209282959E+03  0.31555483452E+03  0.00000000000E+00 0.  1.
<mgrwt>
<rscale>  2 0.11835382E+03</rscale>
<asrwt>0</asrwt>
<pdfrwt beam="1">  1       21 0.10784719E+00 0.11835382E+03</pdfrwt>
<pdfrwt beam="2">  1       21 0.34095238E-02 0.11835382E+03</pdfrwt>
<totfact> 0.35692505E+05</totfact>
</mgrwt>
</event>
<event>
 5    1  0.1281005E-004  0.2229858E+03  0.7546771E-02  0.1131676E+00
         21   -1    0    0  503  502  0.00000000000E+00  0.00000000000E+00  0.29235620549E+03  0.29235620549E+03  0.00000000000E+00 0. -1.
         21   -1    0    0  501  503 -0.00000000000E+00 -0.00000000000E+00 -0.17193487963E+03  0.17193487963E+03  0.00000000000E+00 0.  1.
         24    1    1    2    0    0  0.21515838314E+02 -0.10272118438E+03  0.34969311172E+02  0.13676491399E+03  0.80419002446E+02 0.  0.
          1    1    1    2  501    0  0.62288893571E+02 -0.86621921792E+02  0.48481900989E+02  0.11719111878E+03  0.00000000000E+00 0. -1.
         -2    1    1    2    0  502 -0.83804731884E+02  0.18934310618E+03  0.36970113694E+02  0.21033505235E+03  0.00000000000E+00 0.  1.
<mgrwt>
<rscale>  2 0.22298579E+03</rscale>
<asrwt>0</asrwt>
<pdfrwt beam="1">  1       21 0.44977878E-01 0.22298579E+03</pdfrwt>
<pdfrwt beam="2">  1       21 0.26451520E-01 0.22298579E+03</pdfrwt>
<totfact> 0.63628076E+04</totfact>
</mgrwt>
</event>
<event>
 5    1  0.1281005E-004  0.1406040E+03  0.7546771E-02  0.1212519E+00
         21   -1    0    0  503  502  0.00000000000E+00  0.00000000000E+00  0.18836973193E+03  0.18836973193E+03  0.00000000000E+00 0. -1.
         21   -1    0    0  501  503 -0.00000000000E+00 -0.00000000000E+00 -0.10937622020E+03  0.10937622020E+03  0.00000000000E+00 0.  1.
         24    1    1    2    0    0 -0.23383408657E+02  0.64321585635E+02  0.58800229576E+02  0.12086659229E+03  0.80419002446E+02 0. -1.
          1    1    1    2  501    0  0.70960694788E+01  0.54860997671E+02  0.33993933958E+01  0.55422370420E+02  0.00000000000E+00 0. -1.
         -2    1    1    2    0  502  0.16287339178E+02 -0.11918258331E+03  0.16793888757E+02  0.12145698943E+03  0.00000000000E+00 0.  1.
<mgrwt>
<rscale>  2 0.14060396E+03</rscale>
<asrwt>0</asrwt>
<pdfrwt beam="1">  1       21 0.28979959E-01 0.14060396E+03</pdfrwt>
<pdfrwt beam="2">  1       21 0.16827111E-01 0.14060396E+03</pdfrwt>
<totfact> 0.36580055E+05</totfact>
</mgrwt>
</event>
<event>
 5    1  0.1281005E-004  0.1439503E+03  0.7546771E-02  0.1208110E+00
         21   -1    0    0  503  502  0.00000000000E+00  0.00000000000E+00  0.21254320665E+03  0.21254320665E+03  0.00000000000E+00 0. -1.
         21   -1    0    0  501  503 -0.00000000000E+00 -0.00000000000E+00 -0.10121110952E+03  0.10121110952E+03  0.00000000000E+00 0.  1.
         24    1    1    2    0    0  0.13519019261E+02 -0.17007605154E+02  0.60415761472E+02  0.10290433763E+03  0.80419002446E+02 0. -1.
          1    1    1    2  501    0  0.87406730979E+02 -0.31124724375E+02  0.24196875991E+02  0.95886254988E+02  0.00000000000E+00 0. -1.
         -2    1    1    2    0  502 -0.10092575024E+03  0.48132329529E+02  0.26719459675E+02  0.11496372355E+03  0.00000000000E+00 0.  1.
<mgrwt>
<rscale>  2 0.14395035E+03</rscale>
<asrwt>0</asrwt>
<pdfrwt beam="1">  1       21 0.32698955E-01 0.14395035E+03</pdfrwt>
<pdfrwt beam="2">  1       21 0.15570940E-01 0.14395035E+03</pdfrwt>
<totfact> 0.33310844E+05</totfact>
</mgrwt>
</event>
<event>
 5    1  0.1281005E-004  0.1559085E+03  0.7546771E-02  0.1193395E+00
         21   -1    0    0  503  502  0.00000000000E+00  0.00000000000E+00  0.12708448926E+04  0.12708448926E+04  0.00000000000E+00 0. -1.
         21   -1    0    0  501  503 -0.00000000000E+00 -0.00000000000E+00 -0.20139274439E+02  0.20139274439E+02  0.00000000000E+00 0. -1.
         24    1    1    2    0    0 -0.10344145762E+03  0.32139766702E+02  0.40843002029E+03  0.43013416184E+03  0.80419002446E+02 0. -1.
          1    1    1    2  501    0  0.65232392451E+02  0.52700871845E+02  0.44392846344E+03  0.45177995481E+03  0.00000000000E+00 0. -1.
         -2    1    1    2    0  502  0.38209065164E+02 -0.84840638547E+02  0.39834713443E+03  0.40907005038E+03  0.00000000000E+00 0.  1.
<mgrwt>
<rscale>  2 0.15590854E+03</rscale>
<asrwt>0</asrwt>
<pdfrwt beam="1">  1       21 0.19551454E+00 0.15590854E+03</pdfrwt>
<pdfrwt beam="2">  1       21 0.30983509E-02 0.15590854E+03</pdfrwt>
<totfact> 0.88030204E+04</totfact>
</mgrwt>
</event>
<event>
 5    1  0.1281005E-004  0.1340680E+03  0.7546771E-02  0.1221541E+00
         21   -1    0    0  501  502  0.00000000000E+00  0.00000000000E+00  0.66386531167E+03  0.66386531167E+03  0.00000000000E+00 0.  1.
         21   -1    0    0  502  503 -0.00000000000E+00 -0.00000000000E+00 -0.28661702087E+02  0.28661702087E+02  0.00000000000E+00 0. -1.
         24    1    1    2    0    0 -0.14346285015E+02  0.43659187567E+02  0.19336677944E+03  0.21440584856E+03  0.80419002446E+02 0.  0.
          1    1    1    2  501    0  0.35443042335E+02 -0.10490717623E+03  0.33856673841E+03  0.35621504914E+03  0.00000000000E+00 0. -1.
         -2    1    1    2    0  503 -0.21096757319E+02  0.61247988665E+02  0.10327009173E+03  0.12190611605E+03  0.00000000000E+00 0.  1.
<mgrwt>
<rscale>  2 0.13406798E+03</rscale>
<asrwt>0</asrwt>
<pdfrwt beam="1">  1       21 0.10213311E+00 0.13406798E+03</pdfrwt>
<pdfrwt beam="2">  1       21 0.44094931E-02 0.13406798E+03</pdfrwt>
<totfact> 0.26404456E+05</totfact>
</mgrwt>
</event>
<event>
 5    1  0.1281005E-004  0.1467680E+03  0.7546771E-02  0.1204502E+00
         21   -1    0    0  501  502  0.00000000000E+00  0.00000000000E+00  0.50601922765E+02  0.50601922765E+02  0.00000000000E+00 0.  1.
         21   -1    0    0  502  503 -0.00000000000E+00 -0.00000000000E+00 -0.46134537053E+03  0.46134537053E+03  0.00000000000E+00 0. -1.
         24    1    1    2    0    0  0.27371679990E+02 -0.28105558835E+02 -0.14562740278E+03  0.17092012081E+03  0.80419002446E+02 0.  0.
          1    1    1    2  501    0 -0.15220098081E+02  0.11515899526E+03 -0.97062381201E+02  0.15137487050E+03  0.00000000000E+00 0. -1.
         -2    1    1    2    0  503 -0.12151581909E+02 -0.87053436425E+02 -0.16805366378E+03  0.18965230198E+03  0.00000000000E+00 0.  1.
<mgrwt>
<rscale>  2 0.14676804E+03</rscale>
<asrwt>0</asrwt>
<pdfrwt beam="1">  1       21 0.77849115E-02 0.14676804E+03</pdfrwt>
<pdfrwt beam="2">  1       21 0.70976208E-01 0.14676804E+03</pdfrwt>
<totfact> 0.22903185E+05</totfact>
</mgrwt>
</event>
<event>
 5    1  0.1281005E-004  0.2333358E+03  0.7546771E-02  0.1124314E+00
         21   -1    0    0  501  502  0.00000000000E+00  0.00000000000E+00  0.47948996509E+03  0.47948996509E+03  0.00000000000E+00 0. -1.
         21   -1    0    0  502  503 -0.00000000000E+00 -0.00000000000E+00 -0.13156808202E+03  0.13156808202E+03  0.00000000000E+00 0.  1.
         24    1    1    2    0    0  0.62454289340E+01  0.20467721772E+02  0.80562345475E+02  0.11582504254E+03  0.80419002446E+02 0.  0.
          1    1    1    2  501    0 -0.61469941718E+02  0.17229747359E+03  0.22553462503E+03  0.29039772766E+03  0.00000000000E+00 0. -1.
         -2    1    1    2    0  503  0.55224512784E+02 -0.19276519536E+03  0.41824912566E+02  0.20483527691E+03  0.00000000000E+00 0.  1.
<mgrwt>
<rscale>  2 0.23333578E+03</rscale>
<asrwt>0</asrwt>
<pdfrwt beam="1">  1       21 0.73767686E-01 0.23333578E+03</pdfrwt>
<pdfrwt beam="2">  1       21 0.20241244E-01 0.23333578E+03</pdfrwt>
<totfact> 0.36481262E+04</totfact>
</mgrwt>
</event>
<event>
 5    1  0.1281005E-004  0.1634884E+03  0.7546771E-02  0.1184814E+00
         21   -1    0    0  503  502  0.00000000000E+00  0.00000000000E+00  0.48528047486E+03  0.48528047486E+03  0.00000000000E+00 0. -1.
         21   -1    0    0  501  503 -0.00000000000E+00 -0.00000000000E+00 -0.57063692070E+02  0.57063692070E+02  0.00000000000E+00 0.  1.
         24    1    1    2    0    0  0.31616449332E+02 -0.33504085592E+02  0.13349222775E+03  0.16251004413E+03  0.80419002446E+02 0.  0.
          1    1    1    2  501    0 -0.62718490730E+02  0.12380830286E+03  0.13428717350E+03  0.19311952233E+03  0.00000000000E+00 0. -1.
         -2    1    1    2    0  502  0.31102041398E+02 -0.90304217265E+02  0.16043738154E+03  0.18671460047E+03  0.00000000000E+00 0.  1.
<mgrwt>
<rscale>  2 0.16348841E+03</rscale>
<asrwt>0</asrwt>
<pdfrwt beam="1">  1       21 0.74658532E-01 0.16348841E+03</pdfrwt>
<pdfrwt beam="2">  1       21 0.87790299E-02 0.16348841E+03</pdfrwt>
<totfact> 0.16550813E+05</totfact>
</mgrwt>
</event>
<event>
 5    1  0.1281005E-004  0.2826755E+03  0.7546771E-02  0.1094237E+00
         21   -1    0    0  501  502  0.00000000000E+00  0.00000000000E+00  0.55996343766E+03  0.55996343766E+03  0.00000000000E+00 0.  1.
         21   -1    0    0  502  503 -0.00000000000E+00 -0.00000000000E+00 -0.14670506446E+03  0.14670506446E+03  0.00000000000E+00 0. -1.
         24    1    1    2    0    0 -0.59438112255E+02 -0.58500008529E+02  0.63750242630E+02  0.13223633985E+03  0.80419002446E+02 0.  0.
          1    1    1    2  501    0  0.15040666225E+03  0.21860678505E+03  0.25253986749E+03  0.36631608644E+03  0.00000000000E+00 0. -1.
         -2    1    1    2    0  503 -0.90968549991E+02 -0.16010677652E+03  0.96968263082E+02  0.20811607583E+03  0.00000000000E+00 0.  1.
<mgrwt>
<rscale>  2 0.28267549E+03</rscale>
<asrwt>0</asrwt>
<pdfrwt beam="1">  1       21 0.86148220E-01 0.28267549E+03</pdfrwt>
<pdfrwt beam="2">  1       21 0.22570010E-01 0.28267549E+03</pdfrwt>
<totfact> 0.20399206E+04</totfact>
</mgrwt>
</event>
<event>
 5    1  0.1281005E-004  0.1568481E+03  0.7546771E-02  0.1192302E+00
         21   -1    0    0  501  502  0.00000000000E+00  0.00000000000E+00  0.61690017284E+02  0.61690017284E+02  0.00000000000E+00 0. -1.
         21   -1    0    0  502  503 -0.00000000000E+00 -0.00000000000E+00 -0.49175015761E+03  0.49175015761E+03  0.00000000000E+00 0.  1.
         24    1    1    2    0    0 -0.81745440120E+02 -0.72608289732E+02 -0.27094878495E+03  0.30304247349E+03  0.80419002446E+02 0.  0.
          1    1    1    2  501    0  0.10270216121E+03  0.10009147409E+03 -0.80343673077E+02  0.16438109047E+03  0.00000000000E+00 0. -1.
         -2    1    1    2    0  503 -0.20956721089E+02 -0.27483184356E+02 -0.78767682296E+02  0.86016610928E+02  0.00000000000E+00 0.  1.
<mgrwt>
<rscale>  2 0.15684806E+03</rscale>
<asrwt>0</asrwt>
<pdfrwt beam="1">  1       21 0.94907714E-02 0.15684806E+03</pdfrwt>
<pdfrwt beam="2">  1       21 0.75653874E-01 0.15684806E+03</pdfrwt>
<totfact> 0.14054933E+05</totfact>
</mgrwt>
</event>
<event>
 5    1  0.1281005E-004  0.1244493E+03  0.7546771E-02  0.1235933E+00
         21   -1    0    0  501  502  0.00000000000E+00  0.00000000000E+00  0.40915739162E+03  0.40915739162E+03  0.00000000000E+00 0. -1.
         21   -1    0    0  502  503 -0.00000000000E+00 -0.00000000000E+00 -0.39282777980E+02  0.39282777980E+02  0.00000000000E+00 0.  1.
         24    1    1    2    0    0  0.23120672605E+02  0.35814210418E+01  0.87301770153E+02  0.12098019303E+03  0.80419002446E+02 0.  1.
          1    1    1    2  501    0 -0.93903905840E+02  0.37822370951E+01  0.17098949347E+03  0.19511446826E+03  0.00000000000E+00 0. -1.
         -2    1    1    2    0  503  0.70783233235E+02 -0.73636581369E+01  0.11158335002E+03  0.13234550831E+03  0.00000000000E+00 0.  1.
<mgrwt>
<rscale>  2 0.12444926E+03</rscale>
<asrwt>0</asrwt>
<pdfrwt beam="1">  1       21 0.62947288E-01 0.12444926E+03</pdfrwt>
<pdfrwt beam="2">  1       21 0.60435046E-02 0.12444926E+03</pdfrwt>
<totfact> 0.45998077E+05</totfact>
</mgrwt>
</event>
<event>
 5    1  0.1281005E-004  0.1801604E+03  0.7546771E-02  0.1167648E+00
         21   -1    0    0  503  502  0.00000000000E+00  0.00000000000E+00  0.20701006461E+03  0.20701006461E+03  0.00000000000E+00 0.  1.
         21   -1    0    0  501  503 -0.00000000000E+00 -0.00000000000E+00 -0.15812728861E+03  0.15812728861E+03  0.00000000000E+00 0. -1.
         24    1    1    2    0    0  0.11880805640E+03 -0.14810261385E+02  0.34513908695E+02  0.14830078879E+03  0.80419002446E+02 0.  0.
          1    1    1    2  501    0 -0.16038197320E+03 -0.20318480537E+02  0.60559726073E+01  0.16177729378E+03  0.00000000000E+00 0. -1.
         -2    1    1    2    0  502  0.41573916793E+02  0.35128741923E+02  0.83128946941E+01  0.55059270653E+02  0.00000000000E+00 0.  1.
<mgrwt>
<rscale>  2 0.18016035E+03</rscale>
<asrwt>0</asrwt>
<pdfrwt beam="1">  1       21 0.31847702E-01 0.18016035E+03</pdfrwt>
<pdfrwt beam="2">  1       21 0.24327275E-01 0.18016035E+03</pdfrwt>
<totfact> 0.15187044E+05</totfact>
</mgrwt>
</event>
<event>
 5    1  0.1281005E-004  0.1259873E+03  0.7546771E-02  0.1233534E+00
         21   -1    0    0  501  502  0.00000000000E+00  0.00000000000E+00  0.53112935620E+02  0.53112935620E+02  0.00000000000E+00 0.  1.
         21   -1    0    0  502  503 -0.00000000000E+00 -0.00000000000E+00 -0.35859633728E+03  0.35859633728E+03  0.00000000000E+00 0. -1.
         24    1    1    2    0    0 -0.62936907334E+02  0.20031923882E+01 -0.46882110186E+02  0.11238423063E+03  0.80419002446E+02 0.  1.
          1    1    1    2  501    0  0.10544851214E+03 -0.12104079815E+02 -0.16769855291E+03  0.19846587140E+03  0.00000000000E+00 0. -1.
         -2    1    1    2    0  503 -0.42511604811E+02  0.10100887427E+02 -0.90902738563E+02  0.10085917087E+03  0.00000000000E+00 0.  1.
<mgrwt>
<rscale>  2 0.12598731E+03</rscale>
<asrwt>0</asrwt>
<pdfrwt beam="1">  1       21 0.81712209E-02 0.12598731E+03</pdfrwt>
<pdfrwt beam="2">  1       21 0.55168667E-01 0.12598731E+03</pdfrwt>
<totfact> 0.36295483E+05</totfact>
</mgrwt>
</event>
<event>
 5    1  0.1281005E-004  0.2354467E+03  0.7546771E-02  0.1122864E+00
         21   -1    0    0  503  502  0.00000000000E+00  0.00000000000E+00  0.55481641655E+02  0.55481641655E+02  0.00000000000E+00 0.  1.
         21   -1    0    0  501  503 -0.00000000000E+00 -0.00000000000E+00 -0.10331195436E+04  0.10331195436E+04  0.00000000000E+00 0. -1.
         24    1    1    2    0    0 -0.90014290918E+02 -0.30609509742E+02 -0.18515990140E+03  0.22313879021E+03  0.80419002446E+02 0.  1.
          1    1    1    2  501    0  0.21107519803E+03 -0.26099058076E+02 -0.44689365453E+03  0.49492205297E+03  0.00000000000E+00 0. -1.
         -2    1    1    2    0  502 -0.12106090711E+03  0.56708567818E+02 -0.34558434603E+03  0.37054034209E+03  0.00000000000E+00 0.  1.
<mgrwt>
<rscale>  2 0.23544669E+03</rscale>
<asrwt>0</asrwt>
<pdfrwt beam="1">  1       21 0.85356382E-02 0.23544669E+03</pdfrwt>
<pdfrwt beam="2">  1       21 0.15894145E+00 0.23544669E+03</pdfrwt>
<totfact> 0.26750583E+04</totfact>
</mgrwt>
</event>
<event>
 5    1  0.1281005E-004  0.1702076E+03  0.7546771E-02  0.1177631E+00
         21   -1    0    0  501  502  0.00000000000E+00  0.00000000000E+00  0.44077875282E+02  0.44077875282E+02  0.00000000000E+00 0.  1.
         21   -1    0    0  502  503 -0.00000000000E+00 -0.00000000000E+00 -0.88105788865E+03  0.88105788865E+03  0.00000000000E+00 0. -1.
         24    1    1    2    0    0  0.44022209466E+02 -0.48894339401E+02 -0.16499825173E+03  0.19498782111E+03  0.80419002446E+02 0. -1.
          1    1    1    2  501    0 -0.34969423993E+02  0.14033413960E+03 -0.58846896059E+03  0.60598040309E+03  0.00000000000E+00 0. -1.
         -2    1    1    2    0  503 -0.90527854731E+01 -0.91439800197E+02 -0.83512801049E+02  0.12416753974E+03  0.00000000000E+00 0.  1.
<mgrwt>
<rscale>  2 0.17020764E+03</rscale>
<asrwt>0</asrwt>
<pdfrwt beam="1">  1       21 0.67812119E-02 0.17020764E+03</pdfrwt>
<pdfrwt beam="2">  1       21 0.13554736E+00 0.17020764E+03</pdfrwt>
<totfact> 0.62858693E+04</totfact>
</mgrwt>
</event>
<event>
 5    1  0.1281005E-004  0.1749323E+03  0.7546771E-02  0.1172800E+00
         21   -1    0    0  503  502  0.00000000000E+00  0.00000000000E+00  0.30328885478E+03  0.30328885478E+03  0.00000000000E+00 0. -1.
         21   -1    0    0  501  503 -0.00000000000E+00 -0.00000000000E+00 -0.10403601906E+03  0.10403601906E+03  0.00000000000E+00 0.  1.
         24    1    1    2    0    0  0.19807615470E+01 -0.30746466697E+02  0.80340293405E+02  0.11777541055E+03  0.80419002446E+02 0. -1.
          1    1    1    2  501    0 -0.12844035163E+03 -0.14896072614E+02  0.64716010314E+02  0.14459245795E+03  0.00000000000E+00 0. -1.
         -2    1    1    2    0  502  0.12645959008E+03  0.45642539311E+02  0.54196531991E+02  0.14495700534E+03  0.00000000000E+00 0.  1.
<mgrwt>
<rscale>  2 0.17493229E+03</rscale>
<asrwt>0</asrwt>
<pdfrwt beam="1">  1       21 0.46659823E-01 0.17493229E+03</pdfrwt>
<pdfrwt beam="2">  1       21 0.16005542E-01 0.17493229E+03</pdfrwt>
<totfact> 0.15413919E+05</totfact>
</mgrwt>
</event>
<event>
 5    1  0.1281005E-004  0.1175544E+03  0.7546771E-02  0.1247187E+00
         21   -1    0    0  503  502  0.00000000000E+00  0.00000000000E+00  0.93701827527E+03  0.93701827527E+03  0.00000000000E+00 0. -1.
         21   -1    0    0  501  503 -0.00000000000E+00 -0.00000000000E+00 -0.15367046252E+02  0.15367046252E+02  0.00000000000E+00 0.  1.
         24    1    1    2    0    0 -0.22957088493E+02  0.17075656789E+02  0.43177486124E+03  0.44013106311E+03  0.80419002446E+02 0. -1.
          1    1    1    2  501    0  0.36087261798E+02  0.60839961675E+02  0.23144973142E+03  0.24201811827E+03  0.00000000000E+00 0. -1.
         -2    1    1    2    0  502 -0.13130173306E+02 -0.77915618463E+02  0.25842663636E+03  0.27023614013E+03  0.00000000000E+00 0.  1.
<mgrwt>
<rscale>  2 0.11755436E+03</rscale>
<asrwt>0</asrwt>
<pdfrwt beam="1">  1       21 0.14415661E+00 0.11755436E+03</pdfrwt>
<pdfrwt beam="2">  1       21 0.23641617E-02 0.11755436E+03</pdfrwt>
<totfact> 0.31830052E+05</totfact>
</mgrwt>
</event>
<event>
 5    1  0.1281005E-004  0.1778586E+03  0.7546771E-02  0.1169892E+00
         21   -1    0    0  501  502  0.00000000000E+00  0.00000000000E+00  0.34815903028E+03  0.34815903028E+03  0.00000000000E+00 0. -1.
         21   -1    0    0  502  503 -0.00000000000E+00 -0.00000000000E+00 -0.98197236187E+02  0.98197236187E+02  0.00000000000E+00 0.  1.
         24    1    1    2    0    0 -0.24454214122E+02 -0.64705775846E+02  0.13349817897E+03  0.17051048578E+03  0.80419002446E+02 0. -1.
          1    1    1    2  501    0 -0.56666473163E+02 -0.71424856833E+02  0.50215462154E+02  0.10408742476E+03  0.00000000000E+00 0. -1.
         -2    1    1    2    0  503  0.81120687285E+02  0.13613063268E+03  0.66248152964E+02  0.17175835593E+03  0.00000000000E+00 0.  1.
<mgrwt>
<rscale>  2 0.17785861E+03</rscale>
<asrwt>0</asrwt>
<pdfrwt beam="1">  1       21 0.53562927E-01 0.17785861E+03</pdfrwt>
<pdfrwt beam="2">  1       21 0.15107267E-01 0.17785861E+03</pdfrwt>
<totfact> 0.12838658E+05</totfact>
</mgrwt>
</event>
<event>
 5    1  0.1281005E-004  0.1585963E+03  0.7546771E-02  0.1190291E+00
         21   -1    0    0  501  502  0.00000000000E+00  0.00000000000E+00  0.24003317551E+03  0.24003317551E+03  0.00000000000E+00 0. -1.
         21   -1    0    0  502  503 -0.00000000000E+00 -0.00000000000E+00 -0.10539650584E+03  0.10539650584E+03  0.00000000000E+00 0.  1.
         24    1    1    2    0    0  0.57710896271E+02  0.15135924888E+02  0.48524214119E+02  0.11127200493E+03  0.80419002446E+02 0. -1.
          1    1    1    2  501    0 -0.11121041898E+02  0.95952950756E+02  0.47610579563E+02  0.10769128850E+03  0.00000000000E+00 0. -1.
         -2    1    1    2    0  503 -0.46589854373E+02 -0.11108887564E+03  0.38501875988E+02  0.12646638793E+03  0.00000000000E+00 0.  1.
<mgrwt>
<rscale>  2 0.15859628E+03</rscale>
<asrwt>0</asrwt>
<pdfrwt beam="1">  1       21 0.36928181E-01 0.15859628E+03</pdfrwt>
<pdfrwt beam="2">  1       21 0.16214847E-01 0.15859628E+03</pdfrwt>
<totfact> 0.24284472E+05</totfact>
</mgrwt>
</event>
<event>
 5    1  0.1281005E-004  0.1139086E+03  0.7546771E-02  0.1253498E+00
         21   -1    0    0  501  502  0.00000000000E+00  0.00000000000E+00  0.35384002305E+02  0.35384002305E+02  0.00000000000E+00 0.  1.
         21   -1    0    0  502  503 -0.00000000000E+00 -0.00000000000E+00 -0.39399620354E+03  0.39399620354E+03  0.00000000000E+00 0. -1.
         24    1    1    2    0    0  0.27809446561E+02  0.50671798289E+02 -0.20933530576E+03  0.23158040214E+03  0.80419002446E+02 0. -1.
          1    1    1    2  501    0 -0.68434065187E+02 -0.64591212930E+01 -0.67419591362E+02  0.96282619539E+02  0.00000000000E+00 0. -1.
         -2    1    1    2    0  503  0.40624618626E+02 -0.44212676996E+02 -0.81857304106E+02  0.10151718417E+03  0.00000000000E+00 0.  1.
<mgrwt>
<rscale>  2 0.11390864E+03</rscale>
<asrwt>0</asrwt>
<pdfrwt beam="1">  1       21 0.54436929E-02 0.11390864E+03</pdfrwt>
<pdfrwt beam="2">  1       21 0.60614798E-01 0.11390864E+03</pdfrwt>
<totfact> 0.59521817E+05</totfact>
</mgrwt>
</event>
<event>
 5    1  0.1281005E-004  0.1603425E+03  0.7546771E-02  0.1188311E+00
         21   -1    0    0  501  502  0.00000000000E+00  0.00000000000E+00  0.52844809553E+02  0.52844809553E+02  0.00000000000E+00 0. -1.
         21   -1    0    0  502  503 -0.00000000000E+00 -0.00000000000E+00 -0.51131039656E+03  0.51131039656E+03  0.00000000000E+00 0.  1.
         24    1    1    2    0    0 -0.45600717468E+02  0.31346360184E+02 -0.17482793789E+03  0.20023497085E+03  0.80419002446E+02 0.  0.
          1    1    1    2  501    0 -0.26534699582E+02  0.83406023276E+02 -0.14942973682E+03  0.17317592571E+03  0.00000000000E+00 0. -1.
         -2    1    1    2    0  503  0.72135417050E+02 -0.11475238346E+03 -0.13420791231E+03  0.19074430956E+03  0.00000000000E+00 0.  1.
<mgrwt>
<rscale>  2 0.16034248E+03</rscale>
<asrwt>0</asrwt>
<pdfrwt beam="1">  1       21 0.81299709E-02 0.16034248E+03</pdfrwt>
<pdfrwt beam="2">  1       21 0.78663136E-01 0.16034248E+03</pdfrwt>
<totfact> 0.16854608E+05</totfact>
</mgrwt>
</event>
<event>
 5    1  0.1281005E-004  0.1195981E+03  0.7546771E-02  0.1243762E+00
         21   -1    0    0  501  502  0.00000000000E+00  0.00000000000E+00  0.92247274527E+02  0.92247274527E+02  0.00000000000E+00 0.  1.
         21   -1    0    0  502  503 -0.00000000000E+00 -0.00000000000E+00 -0.15799925467E+03  0.15799925467E+03  0.00000000000E+00 0. -1.
         24    1    1    2    0    0 -0.26176922157E+02  0.37361009831E+02 -0.99618988641E+01  0.92992105539E+02  0.80419002446E+02 0.  0.
          1    1    1    2  501    0 -0.17828103336E+02  0.47725638576E+02 -0.14734404467E+02  0.53034710530E+02  0.00000000000E+00 0. -1.
         -2    1    1    2    0  503  0.44005025494E+02 -0.85086648407E+02 -0.41055676810E+02  0.10421971313E+03  0.00000000000E+00 0.  1.
<mgrwt>
<rscale>  2 0.11959808E+03</rscale>
<asrwt>0</asrwt>
<pdfrwt beam="1">  1       21 0.14191888E-01 0.11959808E+03</pdfrwt>
<pdfrwt beam="2">  1       21 0.24307577E-01 0.11959808E+03</pdfrwt>
<totfact> 0.69640645E+05</totfact>
</mgrwt>
</event>
<event>
 5    1  0.1281005E-004  0.1699079E+03  0.7546771E-02  0.1177944E+00
         21   -1    0    0  501  502  0.00000000000E+00  0.00000000000E+00  0.93405598716E+02  0.93405598716E+02  0.00000000000E+00 0.  1.
         21   -1    0    0  502  503 -0.00000000000E+00 -0.00000000000E+00 -0.33028764338E+03  0.33028764338E+03  0.00000000000E+00 0.  1.
         24    1    1    2    0    0  0.11150070935E+03 -0.80242089404E+01 -0.49404803302E+02  0.14630395298E+03  0.80419002446E+02 0.  1.
          1    1    1    2  501    0  0.42018781849E+02  0.22923479040E+02 -0.27662936125E+02  0.55283830859E+02  0.00000000000E+00 0. -1.
         -2    1    1    2    0  503 -0.15351949120E+03 -0.14899270100E+02 -0.15981430524E+03  0.22210545825E+03  0.00000000000E+00 0.  1.
<mgrwt>
<rscale>  2 0.16990787E+03</rscale>
<asrwt>0</asrwt>
<pdfrwt beam="1">  1       21 0.14370092E-01 0.16990787E+03</pdfrwt>
<pdfrwt beam="2">  1       21 0.50813484E-01 0.16990787E+03</pdfrwt>
<totfact> 0.15741038E+05</totfact>
</mgrwt>
</event>
<event>
 5    1  0.1281005E-004  0.1729736E+03  0.7546771E-02  0.1174782E+00
         21   -1    0    0  501  502  0.00000000000E+00  0.00000000000E+00  0.12446974999E+03  0.12446974999E+03  0.00000000000E+00 0.  1.
         21   -1    0    0  502  503 -0.00000000000E+00 -0.00000000000E+00 -0.25232413923E+03  0.25232413923E+03  0.00000000000E+00 0. -1.
         24    1    1    2    0    0 -0.40303184935E+01 -0.38742041774E+02 -0.83080601305E+01  0.89740899736E+02  0.80419002446E+02 0.  1.
          1    1    1    2  501    0 -0.89808589638E+02  0.10763283611E+03 -0.91212641406E+02  0.16724280593E+03  0.00000000000E+00 0. -1.
         -2    1    1    2    0  503  0.93838908131E+02 -0.68890794340E+02 -0.28333687710E+02  0.11981018355E+03  0.00000000000E+00 0.  1.
<mgrwt>
<rscale>  2 0.17297356E+03</rscale>
<asrwt>0</asrwt>
<pdfrwt beam="1">  1       21 0.19149192E-01 0.17297356E+03</pdfrwt>
<pdfrwt beam="2">  1       21 0.38819099E-01 0.17297356E+03</pdfrwt>
<totfact> 0.16116819E+05</totfact>
</mgrwt>
</event>
<event>
 5    1  0.1281005E-004  0.1347517E+03  0.7546771E-02  0.1220571E+00
         21   -1    0    0  501  502  0.00000000000E+00  0.00000000000E+00  0.69831472616E+03  0.69831472616E+03  0.00000000000E+00 0.  1.
         21   -1    0    0  502  503 -0.00000000000E+00 -0.00000000000E+00 -0.42021788328E+02  0.42021788328E+02  0.00000000000E+00 0. -1.
         24    1    1    2    0    0 -0.62089604372E+02 -0.23097069197E+02  0.48313566126E+03  0.49424273057E+03  0.80419002446E+02 0.  1.
          1    1    1    2  501    0  0.64062292575E+02  0.83295448442E+02  0.14634758071E+03  0.18016582207E+03  0.00000000000E+00 0. -1.
         -2    1    1    2    0  503 -0.19726882028E+01 -0.60198379245E+02  0.26809695854E+02  0.65927961854E+02  0.00000000000E+00 0.  1.
<mgrwt>
<rscale>  2 0.13475167E+03</rscale>
<asrwt>0</asrwt>
<pdfrwt beam="1">  1       21 0.10743303E+00 0.13475167E+03</pdfrwt>
<pdfrwt beam="2">  1       21 0.64648910E-02 0.13475167E+03</pdfrwt>
<totfact> 0.12277189E+05</totfact>
</mgrwt>
</event>
<event>
 5    1  0.1281005E-004  0.9811960E+02  0.7546771E-02  0.1284301E+00
         21   -1    0    0  501  502  0.00000000000E+00  0.00000000000E+00  0.44663922577E+02  0.44663922577E+02  0.00000000000E+00 0. -1.
         21   -1    0    0  502  503 -0.00000000000E+00 -0.00000000000E+00 -0.22711560772E+03  0.22711560772E+03  0.00000000000E+00 0.  1.
         24    1    1    2    0    0 -0.27829316637E+01 -0.37511323190E+02 -0.53328406306E+02  0.10356630219E+03  0.80419002446E+02 0. -1.
          1    1    1    2  501    0 -0.47720372021E+02  0.30083950123E+02 -0.60989354383E+02  0.83078151815E+02  0.00000000000E+00 0. -1.
         -2    1    1    2    0  503  0.50503303685E+02  0.74273730670E+01 -0.68133924455E+02  0.85135076293E+02  0.00000000000E+00 0.  1.
<mgrwt>
<rscale>  2 0.98119596E+02</rscale>
<asrwt>0</asrwt>
<pdfrwt beam="1">  1       21 0.68713728E-02 0.98119596E+02</pdfrwt>
<pdfrwt beam="2">  1       21 0.34940862E-01 0.98119596E+02</pdfrwt>
<totfact> 0.12268271E+06</totfact>
</mgrwt>
</event>
<event>
 5    1  0.1281005E-004  0.1119815E+03  0.7546771E-02  0.1256944E+00
         21   -1    0    0  501  502  0.00000000000E+00  0.00000000000E+00  0.90613653625E+03  0.90613653625E+03  0.00000000000E+00 0.  1.
         21   -1    0    0  502  503 -0.00000000000E+00 -0.00000000000E+00 -0.15003771469E+02  0.15003771469E+02  0.00000000000E+00 0. -1.
         24    1    1    2    0    0 -0.22548502338E+01 -0.52499107628E+01  0.45373724954E+03  0.46084417485E+03  0.80419002446E+02 0. -1.
          1    1    1    2  501    0 -0.58902408806E+02  0.41678390437E+02  0.22550009258E+03  0.23676332855E+03  0.00000000000E+00 0. -1.
         -2    1    1    2    0  503  0.61157259040E+02 -0.36428479675E+02  0.21189542266E+03  0.22353280432E+03  0.00000000000E+00 0.  1.
<mgrwt>
<rscale>  2 0.11198148E+03</rscale>
<asrwt>0</asrwt>
<pdfrwt beam="1">  1       21 0.13940558E+00 0.11198148E+03</pdfrwt>
<pdfrwt beam="2">  1       21 0.23082732E-02 0.11198148E+03</pdfrwt>
<totfact> 0.36090945E+05</totfact>
</mgrwt>
</event>
<event>
 5    1  0.1281005E-004  0.1169395E+03  0.7546771E-02  0.1248233E+00
         21   -1    0    0  501  502  0.00000000000E+00  0.00000000000E+00  0.40477203185E+02  0.40477203185E+02  0.00000000000E+00 0. -1.
         21   -1    0    0  502  503 -0.00000000000E+00 -0.00000000000E+00 -0.34058728425E+03  0.34058728425E+03  0.00000000000E+00 0.  1.
         24    1    1    2    0    0 -0.28479700912E+02 -0.48833735259E+02 -0.11955459407E+03  0.15477837052E+03  0.80419002446E+02 0.  0.
          1    1    1    2  501    0 -0.35376932528E+02 -0.20847611523E+02 -0.66526766989E+02  0.78179031635E+02  0.00000000000E+00 0. -1.
         -2    1    1    2    0  503  0.63856633441E+02  0.69681346782E+02 -0.11402872000E+03  0.14810708528E+03  0.00000000000E+00 0.  1.
<mgrwt>
<rscale>  2 0.11693947E+03</rscale>
<asrwt>0</asrwt>
<pdfrwt beam="1">  1       21 0.62272618E-02 0.11693947E+03</pdfrwt>
<pdfrwt beam="2">  1       21 0.52398045E-01 0.11693947E+03</pdfrwt>
<totfact> 0.64354157E+05</totfact>
</mgrwt>
</event>
<event>
 5    1  0.1281005E-004  0.2650187E+03  0.7546771E-02  0.1104165E+00
         21   -1    0    0  501  502  0.00000000000E+00  0.00000000000E+00  0.73515280448E+03  0.73515280448E+03  0.00000000000E+00 0.  1.
         21   -1    0    0  502  503 -0.00000000000E+00 -0.00000000000E+00 -0.28033240649E+03  0.28033240649E+03  0.00000000000E+00 0.  1.
         24    1    1    2    0    0  0.33719080523E+02  0.18951096777E+03  0.56952768221E+03  0.60653143369E+03  0.80419002446E+02 0.  1.
          1    1    1    2  501    0 -0.12097903754E+02  0.64940563677E+02  0.68117124478E+02  0.94887189510E+02  0.00000000000E+00 0. -1.
         -2    1    1    2    0  503 -0.21621176770E+02 -0.25445153145E+03 -0.18282440870E+03  0.31406658778E+03  0.00000000000E+00 0.  1.
<mgrwt>
<rscale>  2 0.26501871E+03</rscale>
<asrwt>0</asrwt>
<pdfrwt beam="1">  1       21 0.11310043E+00 0.26501871E+03</pdfrwt>
<pdfrwt beam="2">  1       21 0.43128063E-01 0.26501871E+03</pdfrwt>
<totfact> 0.29885547E+03</totfact>
</mgrwt>
</event>
<event>
 5    1  0.1281005E-004  0.8092139E+02  0.7546771E-02  0.1326457E+00
         21   -1    0    0  501  502  0.00000000000E+00  0.00000000000E+00  0.16686869483E+03  0.16686869483E+03  0.00000000000E+00 0. -1.
         21   -1    0    0  502  503 -0.00000000000E+00 -0.00000000000E+00 -0.49328885116E+02  0.49328885116E+02  0.00000000000E+00 0.  1.
         24    1    1    2    0    0  0.34557366130E+01 -0.19270372018E+02  0.10967223523E+02  0.83491228877E+02  0.80419002446E+02 0.  0.
          1    1    1    2  501    0  0.10033524865E+02 -0.28091524440E+02  0.39687041431E+02  0.49647423137E+02  0.00000000000E+00 0. -1.
         -2    1    1    2    0  503 -0.13489261478E+02  0.47361896458E+02  0.66885544757E+02  0.83058927929E+02  0.00000000000E+00 0.  1.
<mgrwt>
<rscale>  2 0.80921392E+02</rscale>
<asrwt>0</asrwt>
<pdfrwt beam="1">  1       21 0.25672107E-01 0.80921392E+02</pdfrwt>
<pdfrwt beam="2">  1       21 0.75890593E-02 0.80921392E+02</pdfrwt>
<totfact> 0.18558342E+06</totfact>
</mgrwt>
</event>
<event>
 5    1  0.1281005E-004  0.1900347E+03  0.7546771E-02  0.1158430E+00
         21   -1    0    0  503  502  0.00000000000E+00  0.00000000000E+00  0.15117583764E+04  0.15117583764E+04  0.00000000000E+00 0. -1.
         21   -1    0    0  501  503 -0.00000000000E+00 -0.00000000000E+00 -0.24917751034E+02  0.24917751034E+02  0.00000000000E+00 0. -1.
         24    1    1    2    0    0 -0.48668546774E+02 -0.10995862706E+03  0.65627916968E+03  0.67203354947E+03  0.80419002446E+02 0. -1.
          1    1    1    2  501    0  0.10322588784E+03  0.13936521098E+03  0.52650118152E+03  0.55432999205E+03  0.00000000000E+00 0. -1.
         -2    1    1    2    0  502 -0.54557341068E+02 -0.29406583925E+02  0.30406027413E+03  0.31031258586E+03  0.00000000000E+00 0.  1.
<mgrwt>
<rscale>  2 0.19003471E+03</rscale>
<asrwt>0</asrwt>
<pdfrwt beam="1">  1       21 0.23257814E+00 0.19003471E+03</pdfrwt>
<pdfrwt beam="2">  1       21 0.38335013E-02 0.19003471E+03</pdfrwt>
<totfact> 0.35577138E+04</totfact>
</mgrwt>
</event>
<event>
 5    1  0.1281005E-004  0.7559982E+03  0.7546771E-02  0.9625987E-01
         21   -1    0    0  503  502  0.00000000000E+00  0.00000000000E+00  0.50973087831E+03  0.50973087831E+03  0.00000000000E+00 0. -1.
         21   -1    0    0  501  503 -0.00000000000E+00 -0.00000000000E+00 -0.11363860903E+04  0.11363860903E+04  0.00000000000E+00 0.  1.
         24    1    1    2    0    0 -0.47613261557E+03  0.55713517692E+02 -0.19052819696E+03  0.52208665320E+03  0.80419002446E+02 0.  1.
          1    1    1    2  501    0  0.65935815783E+03 -0.29682236192E+03 -0.23426936506E+03  0.76009133020E+03  0.00000000000E+00 0. -1.
         -2    1    1    2    0  502 -0.18322554227E+03  0.24110884423E+03 -0.20185764996E+03  0.36393898520E+03  0.00000000000E+00 0.  1.
<mgrwt>
<rscale>  2 0.75599823E+03</rscale>
<asrwt>0</asrwt>
<pdfrwt beam="1">  1       21 0.78420137E-01 0.75599823E+03</pdfrwt>
<pdfrwt beam="2">  1       21 0.17482863E+00 0.75599823E+03</pdfrwt>
<totfact> 0.20590079E+02</totfact>
</mgrwt>
</event>
<event>
 5    1  0.1281005E-004  0.3237566E+03  0.7546771E-02  0.1073933E+00
         21   -1    0    0  501  502  0.00000000000E+00  0.00000000000E+00  0.57057936836E+02  0.57057936836E+02  0.00000000000E+00 0.  1.
         21   -1    0    0  502  503 -0.00000000000E+00 -0.00000000000E+00 -0.19030186851E+04  0.19030186851E+04  0.00000000000E+00 0. -1.
         24    1    1    2    0    0  0.33072126094E+02 -0.39018534124E+02 -0.23108053225E+03  0.24996327704E+03  0.80419002446E+02 0. -1.
          1    1    1    2  501    0  0.25689291249E+03  0.51367700651E+02 -0.60338266591E+03  0.65780183238E+03  0.00000000000E+00 0. -1.
         -2    1    1    2    0  503 -0.28996503858E+03 -0.12349166527E+02 -0.10114975501E+04  0.10523115125E+04  0.00000000000E+00 0.  1.
<mgrwt>
<rscale>  2 0.32375658E+03</rscale>
<asrwt>0</asrwt>
<pdfrwt beam="1">  1       21 0.87781433E-02 0.32375658E+03</pdfrwt>
<pdfrwt beam="2">  1       21 0.29277213E+00 0.32375658E+03</pdfrwt>
<totfact> 0.34070358E+03</totfact>
</mgrwt>
</event>
<event>
 5    1  0.1281005E-004  0.4377816E+03  0.7546771E-02  0.1031430E+00
         21   -1    0    0  501  502  0.00000000000E+00  0.00000000000E+00  0.22226698020E+03  0.22226698020E+03  0.00000000000E+00 0. -1.
         21   -1    0    0  502  503 -0.00000000000E+00 -0.00000000000E+00 -0.93187070647E+03  0.93187070647E+03  0.00000000000E+00 0.  1.
         24    1    1    2    0    0 -0.17708177017E+02 -0.11786556358E+03 -0.15859688098E+02  0.14465343506E+03  0.80419002446E+02 0. -1.
          1    1    1    2  501    0 -0.47739781136E+02 -0.30255462866E+03 -0.25823668103E+03  0.40063022034E+03  0.00000000000E+00 0. -1.
         -2    1    1    2    0  503  0.65447958153E+02  0.42042019224E+03 -0.43550735714E+03  0.60885403127E+03  0.00000000000E+00 0.  1.
<mgrwt>
<rscale>  2 0.43778160E+03</rscale>
<asrwt>0</asrwt>
<pdfrwt beam="1">  1       21 0.34194920E-01 0.43778160E+03</pdfrwt>
<pdfrwt beam="2">  1       21 0.14336472E+00 0.43778160E+03</pdfrwt>
<totfact> 0.23964649E+03</totfact>
</mgrwt>
</event>
<event>
 5    1  0.1281005E-004  0.1462856E+03  0.7546771E-02  0.1205113E+00
         21   -1    0    0  503  502  0.00000000000E+00  0.00000000000E+00  0.13625904196E+03  0.13625904196E+03  0.00000000000E+00 0.  1.
         21   -1    0    0  501  503 -0.00000000000E+00 -0.00000000000E+00 -0.18943227915E+03  0.18943227915E+03  0.00000000000E+00 0. -1.
         24    1    1    2    0    0  0.41703887082E+02  0.21003625198E+02  0.44042517083E+02  0.10289473133E+03  0.80419002446E+02 0.  1.
          1    1    1    2  501    0  0.72632618596E+02  0.24306158026E+02 -0.47604688043E+02  0.90180335583E+02  0.00000000000E+00 0. -1.
         -2    1    1    2    0  502 -0.11433650568E+03 -0.45309783225E+02 -0.49611066232E+02  0.13261625421E+03  0.00000000000E+00 0.  1.
<mgrwt>
<rscale>  2 0.14628555E+03</rscale>
<asrwt>0</asrwt>
<pdfrwt beam="1">  1       21 0.20962930E-01 0.14628555E+03</pdfrwt>
<pdfrwt beam="2">  1       21 0.29143428E-01 0.14628555E+03</pdfrwt>
<totfact> 0.24109042E+05</totfact>
</mgrwt>
</event>
<event>
 5    1  0.3149325E-004  0.5154838E+03  0.7546771E-02  0.1009815E+00
         21   -1    0    0  503  502  0.00000000000E+00  0.00000000000E+00  0.81162121137E+03  0.81162121137E+03  0.00000000000E+00 0.  1.
         21   -1    0    0  501  503 -0.00000000000E+00 -0.00000000000E+00 -0.34023856086E+03  0.34023856086E+03  0.00000000000E+00 0. -1.
         24    1    1    2    0    0 -0.32567265085E+02 -0.86153883225E+02  0.11603578659E+03  0.16856642036E+03  0.80419002446E+02 0.  0.
          1    1    1    2  501    0 -0.12155330125E+03  0.47506016114E+03  0.12632901856E+03  0.50637573271E+03  0.00000000000E+00 0. -1.
         -2    1    1    2    0  502  0.15412056634E+03 -0.38890627791E+03  0.22901784536E+03  0.47691761916E+03  0.00000000000E+00 0.  1.
<mgrwt>
<rscale>  2 0.51548379E+03</rscale>
<asrwt>0</asrwt>
<pdfrwt beam="1">  1       21 0.12486480E+00 0.51548379E+03</pdfrwt>
<pdfrwt beam="2">  1       21 0.52344394E-01 0.51548379E+03</pdfrwt>
<totfact> 0.13801342E+03</totfact>
</mgrwt>
</event>
<event>
 5    1  0.1281005E-004  0.1190438E+03  0.7546771E-02  0.1244683E+00
         21   -1    0    0  503  502  0.00000000000E+00  0.00000000000E+00  0.83451029438E+03  0.83451029438E+03  0.00000000000E+00 0.  1.
         21   -1    0    0  501  503 -0.00000000000E+00 -0.00000000000E+00 -0.18834569955E+02  0.18834569955E+02  0.00000000000E+00 0.  1.
         24    1    1    2    0    0  0.36089784335E+02 -0.44042891774E+01  0.20895193512E+03  0.22682591880E+03  0.80419002446E+02 0.  1.
          1    1    1    2  501    0  0.56827177641E+02  0.29457249751E+01  0.14985802539E+03  0.16029795129E+03  0.00000000000E+00 0. -1.
         -2    1    1    2    0  502 -0.92916961976E+02  0.14585642023E+01  0.45686576391E+03  0.46622099424E+03  0.00000000000E+00 0.  1.
<mgrwt>
<rscale>  2 0.11904384E+03</rscale>
<asrwt>0</asrwt>
<pdfrwt beam="1">  1       21 0.12838617E+00 0.11904384E+03</pdfrwt>
<pdfrwt beam="2">  1       21 0.28976268E-02 0.11904384E+03</pdfrwt>
<totfact> 0.30560072E+05</totfact>
</mgrwt>
</event>
<event>
 5    1  0.1281005E-004  0.1493071E+03  0.7546771E-02  0.1201327E+00
         21   -1    0    0  503  502  0.00000000000E+00  0.00000000000E+00  0.14572196860E+03  0.14572196860E+03  0.00000000000E+00 0.  1.
         21   -1    0    0  501  503 -0.00000000000E+00 -0.00000000000E+00 -0.15583110940E+03  0.15583110940E+03  0.00000000000E+00 0.  1.
         24    1    1    2    0    0 -0.10202461227E+03  0.26768647138E+02 -0.23253594127E+02  0.13466078706E+03  0.80419002446E+02 0.  1.
          1    1    1    2  501    0 -0.15353311345E+02 -0.44675736061E+02  0.89604206476E+01  0.48082582086E+02  0.00000000000E+00 0. -1.
         -2    1    1    2    0  502  0.11737792362E+03  0.17907088923E+02  0.41840326772E+01  0.11880970884E+03  0.00000000000E+00 0.  1.
<mgrwt>
<rscale>  2 0.14930708E+03</rscale>
<asrwt>0</asrwt>
<pdfrwt beam="1">  1       21 0.22418764E-01 0.14930708E+03</pdfrwt>
<pdfrwt beam="2">  1       21 0.23974017E-01 0.14930708E+03</pdfrwt>
<totfact> 0.30848359E+05</totfact>
</mgrwt>
</event>
<event>
 5    1  0.1281005E-004  0.1028077E+03  0.7546771E-02  0.1274500E+00
         21   -1    0    0  501  502  0.00000000000E+00  0.00000000000E+00  0.25004504922E+02  0.25004504922E+02  0.00000000000E+00 0.  1.
         21   -1    0    0  502  503 -0.00000000000E+00 -0.00000000000E+00 -0.44568082270E+03  0.44568082270E+03  0.00000000000E+00 0. -1.
         24    1    1    2    0    0  0.25150080756E+02 -0.31740121845E+02 -0.13258941586E+03  0.16027205324E+03  0.80419002446E+02 0.  1.
          1    1    1    2  501    0  0.42891687136E+02  0.89243848914E+01 -0.10640550108E+03  0.11507159567E+03  0.00000000000E+00 0. -1.
         -2    1    1    2    0  503 -0.68041767891E+02  0.22815736954E+02 -0.18168140084E+03  0.19534167871E+03  0.00000000000E+00 0.  1.
<mgrwt>
<rscale>  2 0.10280767E+03</rscale>
<asrwt>0</asrwt>
<pdfrwt beam="1">  1       21 0.38468470E-02 0.10280767E+03</pdfrwt>
<pdfrwt beam="2">  1       21 0.68566279E-01 0.10280767E+03</pdfrwt>
<totfact> 0.81520122E+05</totfact>
</mgrwt>
</event>
<event>
 5    1  0.3878450E-004  0.5385447E+03  0.7546771E-02  0.1004181E+00
         21   -1    0    0  501  502  0.00000000000E+00  0.00000000000E+00  0.14230244853E+04  0.14230244853E+04  0.00000000000E+00 0. -1.
         21   -1    0    0  502  503 -0.00000000000E+00 -0.00000000000E+00 -0.22245971105E+03  0.22245971105E+03  0.00000000000E+00 0.  1.
         24    1    1    2    0    0 -0.74010084893E+02  0.97879831252E+02  0.67655168554E+02  0.16156234654E+03  0.80419002446E+02 0.  1.
          1    1    1    2  501    0 -0.24238597600E+03 -0.41615195018E+03  0.76330688122E+03  0.90253576213E+03  0.00000000000E+00 0. -1.
         -2    1    1    2    0  503  0.31639606089E+03  0.31827211893E+03  0.36960272450E+03  0.58138608772E+03  0.00000000000E+00 0.  1.
<mgrwt>
<rscale>  2 0.53854469E+03</rscale>
<asrwt>0</asrwt>
<pdfrwt beam="1">  1       21 0.21892684E+00 0.53854469E+03</pdfrwt>
<pdfrwt beam="2">  1       21 0.34224572E-01 0.53854469E+03</pdfrwt>
<totfact> 0.66559236E+02</totfact>
</mgrwt>
</event>
<event>
 5    1  0.1281005E-004  0.2842275E+03  0.7546771E-02  0.1093402E+00
         21   -1    0    0  503  502  0.00000000000E+00  0.00000000000E+00  0.30735121363E+03  0.30735121363E+03  0.00000000000E+00 0. -1.
         21   -1    0    0  501  503 -0.00000000000E+00 -0.00000000000E+00 -0.30273509157E+03  0.30273509157E+03  0.00000000000E+00 0. -1.
         24    1    1    2    0    0 -0.16619914755E+03  0.15679886421E+03  0.10400164550E+03  0.26361259205E+03  0.80419002446E+02 0. -1.
          1    1    1    2  501    0  0.19809397896E+03 -0.36065868930E+02 -0.92021572873E+02  0.22138189013E+03  0.00000000000E+00 0. -1.
         -2    1    1    2    0  502 -0.31894831406E+02 -0.12073299528E+03 -0.73639505632E+01  0.12509182303E+03  0.00000000000E+00 0.  1.
<mgrwt>
<rscale>  2 0.28422751E+03</rscale>
<asrwt>0</asrwt>
<pdfrwt beam="1">  1       21 0.47284802E-01 0.28422751E+03</pdfrwt>
<pdfrwt beam="2">  1       21 0.46574629E-01 0.28422751E+03</pdfrwt>
<totfact> 0.18013608E+04</totfact>
</mgrwt>
</event>
<event>
 5    1  0.1281005E-004  0.1863828E+03  0.7546771E-02  0.1161765E+00
         21   -1    0    0  501  502  0.00000000000E+00  0.00000000000E+00  0.21609846445E+03  0.21609846445E+03  0.00000000000E+00 0.  1.
         21   -1    0    0  502  503 -0.00000000000E+00 -0.00000000000E+00 -0.16998377985E+03  0.16998377985E+03  0.00000000000E+00 0. -1.
         24    1    1    2    0    0  0.10656367911E+02 -0.10520756837E+03  0.43425726576E+02  0.13976838091E+03  0.80419002446E+02 0.  0.
          1    1    1    2  501    0  0.88677424992E+02 -0.83172196187E+01  0.27985177947E+02  0.93359691677E+02  0.00000000000E+00 0. -1.
         -2    1    1    2    0  503 -0.99333792903E+02  0.11352478799E+03 -0.25296219926E+02  0.15295417171E+03  0.00000000000E+00 0.  1.
<mgrwt>
<rscale>  2 0.18638278E+03</rscale>
<asrwt>0</asrwt>
<pdfrwt beam="1">  1       21 0.33245918E-01 0.18638278E+03</pdfrwt>
<pdfrwt beam="2">  1       21 0.26151351E-01 0.18638278E+03</pdfrwt>
<totfact> 0.12133156E+05</totfact>
</mgrwt>
</event>
<event>
 5    1  0.1281005E-004  0.1717857E+03  0.7546771E-02  0.1175998E+00
         21   -1    0    0  503  502  0.00000000000E+00  0.00000000000E+00  0.11513072026E+03  0.11513072026E+03  0.00000000000E+00 0. -1.
         21   -1    0    0  501  503 -0.00000000000E+00 -0.00000000000E+00 -0.29445321621E+03  0.29445321621E+03  0.00000000000E+00 0. -1.
         24    1    1    2    0    0  0.10137471383E+03 -0.67249111831E+02 -0.14185625917E+03  0.20344456214E+03  0.80419002446E+02 0. -1.
          1    1    1    2  501    0 -0.14290904556E+03  0.62352034347E+02 -0.10279708814E+02  0.15625762031E+03  0.00000000000E+00 0. -1.
         -2    1    1    2    0  502  0.41534331737E+02  0.48970774833E+01 -0.27186527970E+02  0.49881754017E+02  0.00000000000E+00 0.  1.
<mgrwt>
<rscale>  2 0.17178575E+03</rscale>
<asrwt>0</asrwt>
<pdfrwt beam="1">  1       21 0.17712419E-01 0.17178575E+03</pdfrwt>
<pdfrwt beam="2">  1       21 0.45300494E-01 0.17178575E+03</pdfrwt>
<totfact> 0.13616717E+05</totfact>
</mgrwt>
</event>
<event>
 5    1  0.1281005E-004  0.1112127E+03  0.7546771E-02  0.1258341E+00
         21   -1    0    0  503  502  0.00000000000E+00  0.00000000000E+00  0.25057824506E+03  0.25057824506E+03  0.00000000000E+00 0. -1.
         21   -1    0    0  501  503 -0.00000000000E+00 -0.00000000000E+00 -0.51608315530E+02  0.51608315530E+02  0.00000000000E+00 0.  1.
         24    1    1    2    0    0 -0.40113494049E+01  0.62802628627E+02  0.62425926723E+02  0.11968489198E+03  0.80419002446E+02 0.  1.
          1    1    1    2  501    0 -0.38730096082E+02 -0.66973542507E+02  0.77647629129E+02  0.10961126789E+03  0.00000000000E+00 0. -1.
         -2    1    1    2    0  502  0.42741445487E+02  0.41709138804E+01  0.58896373674E+02  0.72890400718E+02  0.00000000000E+00 0.  1.
<mgrwt>
<rscale>  2 0.11121267E+03</rscale>
<asrwt>0</asrwt>
<pdfrwt beam="1">  1       21 0.38550498E-01 0.11121267E+03</pdfrwt>
<pdfrwt beam="2">  1       21 0.79397410E-02 0.11121267E+03</pdfrwt>
<totfact> 0.79164209E+05</totfact>
</mgrwt>
</event>
<event>
 5    1  0.1281005E-004  0.2529510E+03  0.7546771E-02  0.1111454E+00
         21   -1    0    0  501  502  0.00000000000E+00  0.00000000000E+00  0.10598592837E+04  0.10598592837E+04  0.00000000000E+00 0. -1.
         21   -1    0    0  502  503 -0.00000000000E+00 -0.00000000000E+00 -0.60790061156E+02  0.60790061156E+02  0.00000000000E+00 0.  1.
         24    1    1    2    0    0 -0.11367873443E+03 -0.15105257350E+03  0.36619046511E+03  0.41988380215E+03  0.80419002446E+02 0.  0.
          1    1    1    2  501    0  0.16810671106E+03  0.17350085265E+03  0.52326808545E+03  0.57634356197E+03  0.00000000000E+00 0. -1.
         -2    1    1    2    0  503 -0.54427976634E+02 -0.22448279148E+02  0.10961067203E+03  0.12442198077E+03  0.00000000000E+00 0.  1.
<mgrwt>
<rscale>  2 0.25295099E+03</rscale>
<asrwt>0</asrwt>
<pdfrwt beam="1">  1       21 0.16305526E+00 0.25295099E+03</pdfrwt>
<pdfrwt beam="2">  1       21 0.93523179E-02 0.25295099E+03</pdfrwt>
<totfact> 0.21035605E+04</totfact>
</mgrwt>
</event>
<event>
 5    1  0.1281005E-004  0.2197600E+03  0.7546771E-02  0.1134062E+00
         21   -1    0    0  501  502  0.00000000000E+00  0.00000000000E+00  0.36248849212E+03  0.36248849212E+03  0.00000000000E+00 0.  1.
         21   -1    0    0  502  503 -0.00000000000E+00 -0.00000000000E+00 -0.16630781136E+03  0.16630781136E+03  0.00000000000E+00 0. -1.
         24    1    1    2    0    0 -0.10942589679E+02 -0.39097782821E+02 -0.44882407305E+02  0.10064801702E+03  0.80419002446E+02 0.  1.
          1    1    1    2  501    0  0.15146519297E+03 -0.74445546844E+02  0.82887607950E+02  0.18802712484E+03  0.00000000000E+00 0. -1.
         -2    1    1    2    0  503 -0.14052260329E+03  0.11354332966E+03  0.15817548012E+03  0.24012116162E+03  0.00000000000E+00 0.  1.
<mgrwt>
<rscale>  2 0.21975998E+03</rscale>
<asrwt>0</asrwt>
<pdfrwt beam="1">  1       21 0.55767460E-01 0.21975998E+03</pdfrwt>
<pdfrwt beam="2">  1       21 0.25585817E-01 0.21975998E+03</pdfrwt>
<totfact> 0.43309895E+04</totfact>
</mgrwt>
</event>
<event>
 5    1  0.1281005E-004  0.1426712E+03  0.7546771E-02  0.1209779E+00
         21   -1    0    0  501  502  0.00000000000E+00  0.00000000000E+00  0.47683423516E+03  0.47683423516E+03  0.00000000000E+00 0.  1.
         21   -1    0    0  502  503 -0.00000000000E+00 -0.00000000000E+00 -0.44741689235E+02  0.44741689235E+02  0.00000000000E+00 0. -1.
         24    1    1    2    0    0 -0.15261630225E+02  0.67099747799E+02  0.16345938597E+03  0.19473438404E+03  0.80419002446E+02 0.  0.
          1    1    1    2  501    0  0.22466933996E+02 -0.12203943513E+03  0.22239983965E+03  0.25467641337E+03  0.00000000000E+00 0. -1.
         -2    1    1    2    0  503 -0.72053037714E+01  0.54939687330E+02  0.46233320307E+02  0.72165126987E+02  0.00000000000E+00 0.  1.
<mgrwt>
<rscale>  2 0.14267115E+03</rscale>
<asrwt>0</asrwt>
<pdfrwt beam="1">  1       21 0.73359109E-01 0.14267115E+03</pdfrwt>
<pdfrwt beam="2">  1       21 0.68833372E-02 0.14267115E+03</pdfrwt>
<totfact> 0.26345943E+05</totfact>
</mgrwt>
</event>
<event>
 5    1  0.1281005E-004  0.2812663E+03  0.7546771E-02  0.1094999E+00
         21   -1    0    0  501  502  0.00000000000E+00  0.00000000000E+00  0.52486927473E+03  0.52486927473E+03  0.00000000000E+00 0.  1.
         21   -1    0    0  502  503 -0.00000000000E+00 -0.00000000000E+00 -0.17741547918E+03  0.17741547918E+03  0.00000000000E+00 0.  1.
         24    1    1    2    0    0  0.11443869085E+03 -0.22841670843E+03  0.39546699424E+02  0.27074261586E+03  0.80419002446E+02 0.  1.
          1    1    1    2  501    0 -0.97454790008E+02  0.39726632264E+02  0.65791481519E+02  0.12411349825E+03  0.00000000000E+00 0. -1.
         -2    1    1    2    0  503 -0.16983900845E+02  0.18869007616E+03  0.24211561462E+03  0.30742863980E+03  0.00000000000E+00 0.  1.
<mgrwt>
<rscale>  2 0.28126628E+03</rscale>
<asrwt>0</asrwt>
<pdfrwt beam="1">  1       21 0.80749119E-01 0.28126628E+03</pdfrwt>
<pdfrwt beam="2">  1       21 0.27294689E-01 0.28126628E+03</pdfrwt>
<totfact> 0.16432481E+04</totfact>
</mgrwt>
</event>
<event>
 5    1  0.1281005E-004  0.2670487E+03  0.7546771E-02  0.1102981E+00
         21   -1    0    0  501  502  0.00000000000E+00  0.00000000000E+00  0.16552095842E+03  0.16552095842E+03  0.00000000000E+00 0. -1.
         21   -1    0    0  502  503 -0.00000000000E+00 -0.00000000000E+00 -0.43916187220E+03  0.43916187220E+03  0.00000000000E+00 0.  1.
         24    1    1    2    0    0 -0.17792800136E+03  0.10059365518E+03 -0.15268175801E+03  0.26750026601E+03  0.80419002446E+02 0.  1.
          1    1    1    2  501    0  0.20539340930E+03 -0.15243785678E+03 -0.92691512580E+02  0.27205784177E+03  0.00000000000E+00 0. -1.
         -2    1    1    2    0  503 -0.27465407947E+02  0.51844201602E+02 -0.28267643185E+02  0.65124722837E+02  0.00000000000E+00 0.  1.
<mgrwt>
<rscale>  2 0.26704869E+03</rscale>
<asrwt>0</asrwt>
<pdfrwt beam="1">  1       21 0.25464763E-01 0.26704869E+03</pdfrwt>
<pdfrwt beam="2">  1       21 0.67563365E-01 0.26704869E+03</pdfrwt>
<totfact> 0.28233981E+04</totfact>
</mgrwt>
</event>
<event>
 5    1  0.1281005E-004  0.1693605E+03  0.7546771E-02  0.1178516E+00
         21   -1    0    0  503  502  0.00000000000E+00  0.00000000000E+00  0.29790692516E+03  0.29790692516E+03  0.00000000000E+00 0. -1.
         21   -1    0    0  501  503 -0.00000000000E+00 -0.00000000000E+00 -0.10634895626E+03  0.10634895626E+03  0.00000000000E+00 0.  1.
         24    1    1    2    0    0  0.33789818918E+02 -0.22709834231E+02  0.11050205473E+03  0.14260227378E+03  0.80419002446E+02 0. -1.
          1    1    1    2  501    0  0.85791906841E+02 -0.58672765811E+02  0.28748831714E+02  0.10783895424E+03  0.00000000000E+00 0. -1.
         -2    1    1    2    0  502 -0.11958172576E+03  0.81382600041E+02  0.52307082455E+02  0.15381465340E+03  0.00000000000E+00 0.  1.
<mgrwt>
<rscale>  2 0.16936048E+03</rscale>
<asrwt>0</asrwt>
<pdfrwt beam="1">  1       21 0.45831834E-01 0.16936048E+03</pdfrwt>
<pdfrwt beam="2">  1       21 0.16361378E-01 0.16936048E+03</pdfrwt>
<totfact> 0.15391217E+05</totfact>
</mgrwt>
</event>
<event>
 5    1  0.1281005E-004  0.1891400E+03  0.7546771E-02  0.1159239E+00
         21   -1    0    0  501  502  0.00000000000E+00  0.00000000000E+00  0.28355134839E+04  0.28355134839E+04  0.00000000000E+00 0.  1.
         21   -1    0    0  502  503 -0.00000000000E+00 -0.00000000000E+00 -0.13563270128E+02  0.13563270128E+02  0.00000000000E+00 0. -1.
         24    1    1    2    0    0 -0.70028968597E+02  0.12769435021E+03  0.16166666105E+04  0.16252040023E+04  0.80419002446E+02 0.  1.
          1    1    1    2  501    0  0.11653087739E+03 -0.11498046898E+03  0.96733951285E+03  0.98109412737E+03  0.00000000000E+00 0. -1.
         -2    1    1    2    0  503 -0.46501908790E+02 -0.12713881231E+02  0.23794409039E+03  0.24277862437E+03  0.00000000000E+00 0.  1.
<mgrwt>
<rscale>  2 0.18913997E+03</rscale>
<asrwt>0</asrwt>
<pdfrwt beam="1">  1       21 0.43623237E+00 0.18913997E+03</pdfrwt>
<pdfrwt beam="2">  1       21 0.20866592E-02 0.18913997E+03</pdfrwt>
<totfact> 0.59149000E+03</totfact>
</mgrwt>
</event>
<event>
 5    1  0.1281005E-004  0.2290839E+03  0.7546771E-02  0.1127286E+00
         21   -1    0    0  501  502  0.00000000000E+00  0.00000000000E+00  0.11675390150E+04  0.11675390150E+04  0.00000000000E+00 0.  1.
         21   -1    0    0  502  503 -0.00000000000E+00 -0.00000000000E+00 -0.48285687617E+02  0.48285687617E+02  0.00000000000E+00 0. -1.
         24    1    1    2    0    0  0.72060365854E+02  0.87429227274E+02  0.50112094660E+03  0.52002498516E+03  0.80419002446E+02 0.  0.
          1    1    1    2  501    0 -0.15466657768E+03 -0.15011071018E+03  0.42935127228E+03  0.48041387425E+03  0.00000000000E+00 0. -1.
         -2    1    1    2    0  503  0.82606211824E+02  0.62681482909E+02  0.18878110855E+03  0.21538584326E+03  0.00000000000E+00 0.  1.
<mgrwt>
<rscale>  2 0.22908385E+03</rscale>
<asrwt>0</asrwt>
<pdfrwt beam="1">  1       21 0.17962137E+00 0.22908385E+03</pdfrwt>
<pdfrwt beam="2">  1       21 0.74285682E-02 0.22908385E+03</pdfrwt>
<totfact> 0.24385857E+04</totfact>
</mgrwt>
</event>
<event>
 5    1  0.1281005E-004  0.2201675E+03  0.7546771E-02  0.1133758E+00
         21   -1    0    0  503  502  0.00000000000E+00  0.00000000000E+00  0.13225222470E+03  0.13225222470E+03  0.00000000000E+00 0.  1.
         21   -1    0    0  501  503 -0.00000000000E+00 -0.00000000000E+00 -0.43544661516E+03  0.43544661516E+03  0.00000000000E+00 0. -1.
         24    1    1    2    0    0  0.51207755771E+02  0.15100980727E+02 -0.39533113774E+02  0.10430894932E+03  0.80419002446E+02 0. -1.
          1    1    1    2  501    0 -0.19117419259E+03 -0.53781365651E+02 -0.24743085177E+03  0.31727280629E+03  0.00000000000E+00 0. -1.
         -2    1    1    2    0  502  0.13996643682E+03  0.38680384924E+02 -0.16230424912E+02  0.14611708424E+03  0.00000000000E+00 0.  1.
<mgrwt>
<rscale>  2 0.22016755E+03</rscale>
<asrwt>0</asrwt>
<pdfrwt beam="1">  1       21 0.20346496E-01 0.22016755E+03</pdfrwt>
<pdfrwt beam="2">  1       21 0.66991788E-01 0.22016755E+03</pdfrwt>
<totfact> 0.45001744E+04</totfact>
</mgrwt>
</event>
<event>
 5    1  0.1281005E-004  0.1136663E+03  0.7546771E-02  0.1253927E+00
         21   -1    0    0  501  502  0.00000000000E+00  0.00000000000E+00  0.36682529220E+02  0.36682529220E+02  0.00000000000E+00 0.  1.
         21   -1    0    0  502  503 -0.00000000000E+00 -0.00000000000E+00 -0.36871159549E+03  0.36871159549E+03  0.00000000000E+00 0.  1.
         24    1    1    2    0    0  0.50153243612E+02 -0.11079883617E+02 -0.10791300307E+03  0.14405049064E+03  0.80419002446E+02 0.  1.
          1    1    1    2  501    0  0.22465607042E+02 -0.38082875909E+02 -0.52651896273E+02  0.68754862508E+02  0.00000000000E+00 0. -1.
         -2    1    1    2    0  503 -0.72618850655E+02  0.49162759526E+02 -0.17146416692E+03  0.19258877156E+03  0.00000000000E+00 0.  1.
<mgrwt>
<rscale>  2 0.11366634E+03</rscale>
<asrwt>0</asrwt>
<pdfrwt beam="1">  1       21 0.56434662E-02 0.11366634E+03</pdfrwt>
<pdfrwt beam="2">  1       21 0.56724860E-01 0.11366634E+03</pdfrwt>
<totfact> 0.64426506E+05</totfact>
</mgrwt>
</event>
<event>
 5    1  0.1281005E-004  0.2008584E+03  0.7546771E-02  0.1149017E+00
         21   -1    0    0  501  502  0.00000000000E+00  0.00000000000E+00  0.95269525072E+02  0.95269525072E+02  0.00000000000E+00 0.  1.
         21   -1    0    0  502  503 -0.00000000000E+00 -0.00000000000E+00 -0.45775694324E+03  0.45775694324E+03  0.00000000000E+00 0. -1.
         24    1    1    2    0    0  0.16139830693E+02  0.23724644722E+02 -0.46833546611E+02  0.97385573596E+02  0.80419002446E+02 0.  1.
          1    1    1    2  501    0  0.62800046656E+02  0.12952471603E+03 -0.83262690657E+02  0.16629243392E+03  0.00000000000E+00 0. -1.
         -2    1    1    2    0  503 -0.78939877349E+02 -0.15324936075E+03 -0.23239118090E+03  0.28934846080E+03  0.00000000000E+00 0.  1.
<mgrwt>
<rscale>  2 0.20085841E+03</rscale>
<asrwt>0</asrwt>
<pdfrwt beam="1">  1       21 0.14656850E-01 0.20085841E+03</pdfrwt>
<pdfrwt beam="2">  1       21 0.70424146E-01 0.20085841E+03</pdfrwt>
<totfact> 0.74533779E+04</totfact>
</mgrwt>
</event>
<event>
 5    1  0.1281005E-004  0.1643571E+03  0.7546771E-02  0.1183864E+00
         21   -1    0    0  503  502  0.00000000000E+00  0.00000000000E+00  0.15953861220E+03  0.15953861220E+03  0.00000000000E+00 0. -1.
         21   -1    0    0  501  503 -0.00000000000E+00 -0.00000000000E+00 -0.17094775972E+03  0.17094775972E+03  0.00000000000E+00 0.  1.
         24    1    1    2    0    0 -0.75202523087E+02  0.29828653073E+02  0.79161851528E+01  0.11434618474E+03  0.80419002446E+02 0.  0.
          1    1    1    2  501    0  0.83881386313E+02 -0.10757514290E+03 -0.42988048200E+01  0.13648068751E+03  0.00000000000E+00 0. -1.
         -2    1    1    2    0  502 -0.86788632258E+01  0.77746489829E+02 -0.15026527856E+02  0.79659499666E+02  0.00000000000E+00 0.  1.
<mgrwt>
<rscale>  2 0.16435710E+03</rscale>
<asrwt>0</asrwt>
<pdfrwt beam="1">  1       21 0.24544402E-01 0.16435710E+03</pdfrwt>
<pdfrwt beam="2">  1       21 0.26299655E-01 0.16435710E+03</pdfrwt>
<totfact> 0.21736327E+05</totfact>
</mgrwt>
</event>
<event>
 5    1  0.1281005E-004  0.1031511E+03  0.7546771E-02  0.1273806E+00
         21   -1    0    0  501  502  0.00000000000E+00  0.00000000000E+00  0.48572912457E+03  0.48572912457E+03  0.00000000000E+00 0. -1.
         21   -1    0    0  502  503 -0.00000000000E+00 -0.00000000000E+00 -0.22606739383E+02  0.22606739383E+02  0.00000000000E+00 0.  1.
         24    1    1    2    0    0 -0.23421846637E+02  0.25854044530E+01  0.14554731209E+03  0.16794791820E+03  0.80419002446E+02 0.  0.
          1    1    1    2  501    0 -0.35910455718E+02  0.36696907016E+02  0.13560553567E+03  0.14500029352E+03  0.00000000000E+00 0. -1.
         -2    1    1    2    0  503  0.59332302356E+02 -0.39282311469E+02  0.18196953742E+03  0.19538765223E+03  0.00000000000E+00 0.  1.
<mgrwt>
<rscale>  2 0.10315108E+03</rscale>
<asrwt>0</asrwt>
<pdfrwt beam="1">  1       21 0.74727550E-01 0.10315108E+03</pdfrwt>
<pdfrwt beam="2">  1       21 0.34779603E-02 0.10315108E+03</pdfrwt>
<totfact> 0.79806887E+05</totfact>
</mgrwt>
</event>
<event>
 5    1  0.1281005E-004  0.1204393E+03  0.7546771E-02  0.1242374E+00
         21   -1    0    0  503  502  0.00000000000E+00  0.00000000000E+00  0.16290756112E+03  0.16290756112E+03  0.00000000000E+00 0.  1.
         21   -1    0    0  501  503 -0.00000000000E+00 -0.00000000000E+00 -0.10778608600E+03  0.10778608600E+03  0.00000000000E+00 0. -1.
         24    1    1    2    0    0  0.74293116852E+02 -0.32232625218E+02  0.79131153888E+02  0.13887895741E+03  0.80419002446E+02 0.  0.
          1    1    1    2  501    0  0.19449799896E+02 -0.12251274615E+02  0.60813896568E+01  0.23777547095E+02  0.00000000000E+00 0. -1.
         -2    1    1    2    0  502 -0.93742916748E+02  0.44483899834E+02 -0.30091068424E+02  0.10803714261E+03  0.00000000000E+00 0.  1.
<mgrwt>
<rscale>  2 0.12043928E+03</rscale>
<asrwt>0</asrwt>
<pdfrwt beam="1">  1       21 0.25062702E-01 0.12043928E+03</pdfrwt>
<pdfrwt beam="2">  1       21 0.16582475E-01 0.12043928E+03</pdfrwt>
<totfact> 0.49653708E+05</totfact>
</mgrwt>
</event>
<event>
 5    1  0.1281005E-004  0.1059544E+03  0.7546771E-02  0.1268251E+00
         21   -1    0    0  501  502  0.00000000000E+00  0.00000000000E+00  0.26816432023E+03  0.26816432023E+03  0.00000000000E+00 0. -1.
         21   -1    0    0  502  503 -0.00000000000E+00 -0.00000000000E+00 -0.43455746463E+02  0.43455746463E+02  0.00000000000E+00 0.  1.
         24    1    1    2    0    0  0.18077793455E+02 -0.19021295726E+02  0.11214948760E+03  0.14047540650E+03  0.80419002446E+02 0. -1.
          1    1    1    2  501    0  0.50794013428E+02 -0.11348207713E+02  0.59510440617E+02  0.79058877812E+02  0.00000000000E+00 0. -1.
         -2    1    1    2    0  503 -0.68871806884E+02  0.30369503439E+02  0.53048645548E+02  0.92085782383E+02  0.00000000000E+00 0.  1.
<mgrwt>
<rscale>  2 0.10595441E+03</rscale>
<asrwt>0</asrwt>
<pdfrwt beam="1">  1       21 0.41256048E-01 0.10595441E+03</pdfrwt>
<pdfrwt beam="2">  1       21 0.66854996E-02 0.10595441E+03</pdfrwt>
<totfact> 0.92733989E+05</totfact>
</mgrwt>
</event>
<event>
 5    1  0.1281005E-004  0.1551536E+03  0.7546771E-02  0.1194280E+00
         21   -1    0    0  501  502  0.00000000000E+00  0.00000000000E+00  0.33616890040E+03  0.33616890040E+03  0.00000000000E+00 0. -1.
         21   -1    0    0  502  503 -0.00000000000E+00 -0.00000000000E+00 -0.74639603021E+02  0.74639603021E+02  0.00000000000E+00 0.  1.
         24    1    1    2    0    0 -0.53791048264E+02 -0.44569617172E+02  0.12601548117E+03  0.16500619715E+03  0.80419002446E+02 0.  1.
          1    1    1    2  501    0  0.12039099347E+03 -0.54160753797E+01  0.93510998913E+02  0.15253731379E+03  0.00000000000E+00 0. -1.
         -2    1    1    2    0  503 -0.66599945206E+02  0.49985692552E+02  0.42002817293E+02  0.93264992478E+02  0.00000000000E+00 0.  1.
<mgrwt>
<rscale>  2 0.15515355E+03</rscale>
<asrwt>0</asrwt>
<pdfrwt beam="1">  1       21 0.51718291E-01 0.15515355E+03</pdfrwt>
<pdfrwt beam="2">  1       21 0.11483016E-01 0.15515355E+03</pdfrwt>
<totfact> 0.22775109E+05</totfact>
</mgrwt>
</event>
<event>
 5    1  0.1281005E-004  0.1833416E+03  0.7546771E-02  0.1164608E+00
         21   -1    0    0  501  502  0.00000000000E+00  0.00000000000E+00  0.18664962643E+03  0.18664962643E+03  0.00000000000E+00 0. -1.
         21   -1    0    0  502  503 -0.00000000000E+00 -0.00000000000E+00 -0.19652871126E+03  0.19652871126E+03  0.00000000000E+00 0.  1.
         24    1    1    2    0    0 -0.24225536000E+01 -0.69761170298E+02 -0.51440469111E+02  0.11826169060E+03  0.80419002446E+02 0.  0.
          1    1    1    2  501    0  0.60647373184E+02  0.14957388313E+03  0.12246826094E+02  0.16186548471E+03  0.00000000000E+00 0. -1.
         -2    1    1    2    0  503 -0.58224819584E+02 -0.79812712836E+02  0.29314558191E+02  0.10305116238E+03  0.00000000000E+00 0.  1.
<mgrwt>
<rscale>  2 0.18334165E+03</rscale>
<asrwt>0</asrwt>
<pdfrwt beam="1">  1       21 0.28715327E-01 0.18334165E+03</pdfrwt>
<pdfrwt beam="2">  1       21 0.30235186E-01 0.18334165E+03</pdfrwt>
<totfact> 0.12216528E+05</totfact>
</mgrwt>
</event>
<event>
 5    1  0.1281005E-004  0.1255149E+03  0.7546771E-02  0.1234267E+00
         21   -1    0    0  503  502  0.00000000000E+00  0.00000000000E+00  0.61872415525E+02  0.61872415525E+02  0.00000000000E+00 0. -1.
         21   -1    0    0  501  503 -0.00000000000E+00 -0.00000000000E+00 -0.27106423924E+03  0.27106423924E+03  0.00000000000E+00 0.  1.
         24    1    1    2    0    0 -0.34032722816E+01 -0.12145010188E+02 -0.51088755242E+02  0.96105985252E+02  0.80419002446E+02 0. -1.
          1    1    1    2  501    0 -0.65587745776E+02  0.57367241350E+02 -0.11338056137E+03  0.14299616943E+03  0.00000000000E+00 0. -1.
         -2    1    1    2    0  502  0.68991018057E+02 -0.45222231162E+02 -0.44722507105E+02  0.93834500081E+02  0.00000000000E+00 0.  1.
<mgrwt>
<rscale>  2 0.12551488E+03</rscale>
<asrwt>0</asrwt>
<pdfrwt beam="1">  1       21 0.95188332E-02 0.12551488E+03</pdfrwt>
<pdfrwt beam="2">  1       21 0.41702190E-01 0.12551488E+03</pdfrwt>
<totfact> 0.49435932E+05</totfact>
</mgrwt>
</event>
<event>
 5    1  0.1281005E-004  0.2750685E+03  0.7546771E-02  0.1098413E+00
         21   -1    0    0  501  502  0.00000000000E+00  0.00000000000E+00  0.17523773622E+04  0.17523773622E+04  0.00000000000E+00 0.  1.
         21   -1    0    0  502  503 -0.00000000000E+00 -0.00000000000E+00 -0.45049934739E+02  0.45049934739E+02  0.00000000000E+00 0. -1.
         24    1    1    2    0    0 -0.18403776539E+03 -0.54229285445E+02  0.48572638279E+03  0.52840140933E+03  0.80419002446E+02 0. -1.
          1    1    1    2  501    0  0.23447579041E+03 -0.37467291427E+02  0.90176086923E+03  0.93249952252E+03  0.00000000000E+00 0. -1.
         -2    1    1    2    0  503 -0.50438025011E+02  0.91696576872E+02  0.31984017545E+03  0.33652636510E+03  0.00000000000E+00 0.  1.
<mgrwt>
<rscale>  2 0.27506846E+03</rscale>
<asrwt>0</asrwt>
<pdfrwt beam="1">  1       21 0.26959646E+00 0.27506846E+03</pdfrwt>
<pdfrwt beam="2">  1       21 0.69307605E-02 0.27506846E+03</pdfrwt>
<totfact> 0.73174676E+03</totfact>
</mgrwt>
</event>
<event>
 5    1  0.1281005E-004  0.1461073E+03  0.7546771E-02  0.1205340E+00
         21   -1    0    0  503  502  0.00000000000E+00  0.00000000000E+00  0.62424550058E+02  0.62424550058E+02  0.00000000000E+00 0. -1.
         21   -1    0    0  501  503 -0.00000000000E+00 -0.00000000000E+00 -0.36103699869E+03  0.36103699869E+03  0.00000000000E+00 0.  1.
         24    1    1    2    0    0  0.36773036347E+02  0.30503552071E+02 -0.57780470511E+02  0.10994781316E+03  0.80419002446E+02 0.  1.
          1    1    1    2  501    0 -0.71470273156E+02 -0.98875423692E+02 -0.12555052469E+03  0.17506365587E+03  0.00000000000E+00 0. -1.
         -2    1    1    2    0  502  0.34697236809E+02  0.68371871621E+02 -0.11528145343E+03  0.13845007972E+03  0.00000000000E+00 0.  1.
<mgrwt>
<rscale>  2 0.14610732E+03</rscale>
<asrwt>0</asrwt>
<pdfrwt beam="1">  1       21 0.96037773E-02 0.14610732E+03</pdfrwt>
<pdfrwt beam="2">  1       21 0.55544151E-01 0.14610732E+03</pdfrwt>
<totfact> 0.26925608E+05</totfact>
</mgrwt>
</event>
<event>
 5    1  0.1281005E-004  0.1353791E+03  0.7546771E-02  0.1219686E+00
         21   -1    0    0  501  502  0.00000000000E+00  0.00000000000E+00  0.28099993752E+02  0.28099993752E+02  0.00000000000E+00 0.  1.
         21   -1    0    0  502  503 -0.00000000000E+00 -0.00000000000E+00 -0.70039338672E+03  0.70039338672E+03  0.00000000000E+00 0. -1.
         24    1    1    2    0    0  0.37707812934E+02 -0.45109164520E+02 -0.16227017183E+03  0.19040887715E+03  0.80419002446E+02 0.  1.
          1    1    1    2  501    0 -0.10064409124E+03  0.16428993889E+02 -0.28665230136E+03  0.30425102599E+03  0.00000000000E+00 0. -1.
         -2    1    1    2    0  503  0.62936278308E+02  0.28680170631E+02 -0.22337091977E+03  0.23383347732E+03  0.00000000000E+00 0.  1.
<mgrwt>
<rscale>  2 0.13537909E+03</rscale>
<asrwt>0</asrwt>
<pdfrwt beam="1">  1       21 0.43230764E-02 0.13537909E+03</pdfrwt>
<pdfrwt beam="2">  1       21 0.10775282E+00 0.13537909E+03</pdfrwt>
<totfact> 0.24025499E+05</totfact>
</mgrwt>
</event>
<event>
 5    1  0.1281005E-004  0.1287418E+03  0.7546771E-02  0.1229335E+00
         21   -1    0    0  503  502  0.00000000000E+00  0.00000000000E+00  0.20090557661E+02  0.20090557661E+02  0.00000000000E+00 0.  1.
         21   -1    0    0  501  503 -0.00000000000E+00 -0.00000000000E+00 -0.89793905332E+03  0.89793905332E+03  0.00000000000E+00 0.  1.
         24    1    1    2    0    0 -0.91529157691E+02  0.20652349224E+02 -0.45775275281E+03  0.47414017431E+03  0.80419002446E+02 0.  1.
          1    1    1    2  501    0 -0.15040948719E+02  0.15280885227E+02 -0.14680319507E+03  0.14836075517E+03  0.00000000000E+00 0. -1.
         -2    1    1    2    0  502  0.10657010641E+03 -0.35933234452E+02 -0.27329254778E+03  0.29552868150E+03  0.00000000000E+00 0.  1.
<mgrwt>
<rscale>  2 0.12874184E+03</rscale>
<asrwt>0</asrwt>
<pdfrwt beam="1">  1       21 0.30908554E-02 0.12874184E+03</pdfrwt>
<pdfrwt beam="2">  1       21 0.13814445E+00 0.12874184E+03</pdfrwt>
<totfact> 0.22821391E+05</totfact>
</mgrwt>
</event>
<event>
 5    1  0.1281005E-004  0.1178744E+03  0.7546771E-02  0.1246645E+00
         21   -1    0    0  503  502  0.00000000000E+00  0.00000000000E+00  0.16631106736E+03  0.16631106736E+03  0.00000000000E+00 0.  1.
         21   -1    0    0  501  503 -0.00000000000E+00 -0.00000000000E+00 -0.92305409098E+02  0.92305409098E+02  0.00000000000E+00 0.  1.
         24    1    1    2    0    0  0.39111225408E+02 -0.35856593169E+02  0.21066379298E+02  0.98622469639E+02  0.80419002446E+02 0.  1.
          1    1    1    2  501    0 -0.38676760403E+01 -0.48148644704E+02 -0.99215618930E+01  0.49312151597E+02  0.00000000000E+00 0. -1.
         -2    1    1    2    0  502 -0.35243549368E+02  0.84005237873E+02  0.62860840856E+02  0.11068185522E+03  0.00000000000E+00 0.  1.
<mgrwt>
<rscale>  2 0.11787438E+03</rscale>
<asrwt>0</asrwt>
<pdfrwt beam="1">  1       21 0.25586318E-01 0.11787438E+03</pdfrwt>
<pdfrwt beam="2">  1       21 0.14200832E-01 0.11787438E+03</pdfrwt>
<totfact> 0.63154533E+05</totfact>
</mgrwt>
</event>
<event>
 5    1  0.1281005E-004  0.9537861E+02  0.7546771E-02  0.1290326E+00
         21   -1    0    0  501  502  0.00000000000E+00  0.00000000000E+00  0.13893841181E+04  0.13893841181E+04  0.00000000000E+00 0.  1.
         21   -1    0    0  502  503 -0.00000000000E+00 -0.00000000000E+00 -0.65745802796E+01  0.65745802796E+01  0.00000000000E+00 0. -1.
         24    1    1    2    0    0  0.45831236003E+02 -0.16342081663E+02  0.71181002719E+03  0.71798906440E+03  0.80419002446E+02 0. -1.
          1    1    1    2  501    0  0.22334782756E+02  0.17833994254E+02  0.17877179428E+03  0.18104211748E+03  0.00000000000E+00 0. -1.
         -2    1    1    2    0  503 -0.68166018759E+02 -0.14919125915E+01  0.49222771637E+03  0.49692751653E+03  0.00000000000E+00 0.  1.
<mgrwt>
<rscale>  2 0.95378609E+02</rscale>
<asrwt>0</asrwt>
<pdfrwt beam="1">  1       21 0.21375117E+00 0.95378609E+02</pdfrwt>
<pdfrwt beam="2">  1       21 0.10114750E-02 0.95378609E+02</pdfrwt>
<totfact> 0.42487695E+05</totfact>
</mgrwt>
</event>
<event>
 5    1  0.1281005E-004  0.1322369E+03  0.7546771E-02  0.1224174E+00
         21   -1    0    0  503  502  0.00000000000E+00  0.00000000000E+00  0.52169706193E+02  0.52169706193E+02  0.00000000000E+00 0. -1.
         21   -1    0    0  501  503 -0.00000000000E+00 -0.00000000000E+00 -0.41130700594E+03  0.41130700594E+03  0.00000000000E+00 0.  1.
         24    1    1    2    0    0 -0.25418207464E+02  0.23258974061E+01 -0.38913643225E+02  0.92913845323E+02  0.80419002446E+02 0. -1.
          1    1    1    2  501    0  0.91831253220E+02  0.41248135110E+02 -0.13000207000E+03  0.16442300911E+03  0.00000000000E+00 0. -1.
         -2    1    1    2    0  502 -0.66413045757E+02 -0.43574032516E+02 -0.19022158652E+03  0.20613985771E+03  0.00000000000E+00 0.  1.
<mgrwt>
<rscale>  2 0.13223691E+03</rscale>
<asrwt>0</asrwt>
<pdfrwt beam="1">  1       21 0.80261088E-02 0.13223691E+03</pdfrwt>
<pdfrwt beam="2">  1       21 0.63278000E-01 0.13223691E+03</pdfrwt>
<totfact> 0.27965671E+05</totfact>
</mgrwt>
</event>
<event>
 5    1  0.1281005E-004  0.1920522E+03  0.7546771E-02  0.1156623E+00
         21   -1    0    0  501  502  0.00000000000E+00  0.00000000000E+00  0.71973706336E+03  0.71973706336E+03  0.00000000000E+00 0.  1.
         21   -1    0    0  502  503 -0.00000000000E+00 -0.00000000000E+00 -0.60919032962E+02  0.60919032962E+02  0.00000000000E+00 0. -1.
         24    1    1    2    0    0  0.58004188946E+02  0.63170228016E+02  0.13722404336E+03  0.18070035327E+03  0.80419002446E+02 0.  0.
          1    1    1    2  501    0  0.97011647074E+02 -0.54514332923E+02  0.96137317404E+02  0.14705596200E+03  0.00000000000E+00 0. -1.
         -2    1    1    2    0  503 -0.15501583602E+03 -0.86558950934E+01  0.42545666964E+03  0.45289978105E+03  0.00000000000E+00 0.  1.
<mgrwt>
<rscale>  2 0.19205217E+03</rscale>
<asrwt>0</asrwt>
<pdfrwt beam="1">  1       21 0.11072877E+00 0.19205217E+03</pdfrwt>
<pdfrwt beam="2">  1       21 0.93721595E-02 0.19205217E+03</pdfrwt>
<totfact> 0.58490881E+04</totfact>
</mgrwt>
</event>
<event>
 5    1  0.1281005E-004  0.1097942E+03  0.7546771E-02  0.1260951E+00
         21   -1    0    0  501  502  0.00000000000E+00  0.00000000000E+00  0.33453665606E+03  0.33453665606E+03  0.00000000000E+00 0.  1.
         21   -1    0    0  502  503 -0.00000000000E+00 -0.00000000000E+00 -0.39787441188E+02  0.39787441188E+02  0.00000000000E+00 0. -1.
         24    1    1    2    0    0  0.59924249640E+01 -0.15459787873E+02  0.73582427840E+02  0.11025653649E+03  0.80419002446E+02 0.  0.
          1    1    1    2  501    0 -0.60973465609E+02  0.44323327523E+02  0.80391038509E+02  0.11020453686E+03  0.00000000000E+00 0. -1.
         -2    1    1    2    0  503  0.54981040645E+02 -0.28863539651E+02  0.14077574852E+03  0.15386302390E+03  0.00000000000E+00 0.  1.
<mgrwt>
<rscale>  2 0.10979425E+03</rscale>
<asrwt>0</asrwt>
<pdfrwt beam="1">  1       21 0.51467176E-01 0.10979425E+03</pdfrwt>
<pdfrwt beam="2">  1       21 0.61211450E-02 0.10979425E+03</pdfrwt>
<totfact> 0.68767016E+05</totfact>
</mgrwt>
</event>
<event>
 5    1  0.1281005E-004  0.2361649E+03  0.7546771E-02  0.1122374E+00
         21   -1    0    0  501  502  0.00000000000E+00  0.00000000000E+00  0.68674822178E+03  0.68674822178E+03  0.00000000000E+00 0. -1.
         21   -1    0    0  502  503 -0.00000000000E+00 -0.00000000000E+00 -0.86452964876E+02  0.86452964876E+02  0.00000000000E+00 0.  1.
         24    1    1    2    0    0  0.17952338968E+03  0.73365133502E+02  0.36004883782E+03  0.41678948142E+03  0.80419002446E+02 0. -1.
          1    1    1    2  501    0  0.25322904977E+02  0.24609263329E+02  0.42945630424E+02  0.55598493960E+02  0.00000000000E+00 0. -1.
         -2    1    1    2    0  503 -0.20484629466E+03 -0.97974396831E+02  0.19730078866E+03  0.30081321127E+03  0.00000000000E+00 0.  1.
<mgrwt>
<rscale>  2 0.23616488E+03</rscale>
<asrwt>0</asrwt>
<pdfrwt beam="1">  1       21 0.10565357E+00 0.23616488E+03</pdfrwt>
<pdfrwt beam="2">  1       21 0.13300457E-01 0.23616488E+03</pdfrwt>
<totfact> 0.34315707E+04</totfact>
</mgrwt>
</event>
<event>
 5    1  0.1281005E-004  0.1785363E+03  0.7546771E-02  0.1169227E+00
         21   -1    0    0  501  502  0.00000000000E+00  0.00000000000E+00  0.12615166454E+03  0.12615166454E+03  0.00000000000E+00 0.  1.
         21   -1    0    0  502  503 -0.00000000000E+00 -0.00000000000E+00 -0.26697119882E+03  0.26697119882E+03  0.00000000000E+00 0.  1.
         24    1    1    2    0    0 -0.38927450448E+02 -0.89070020375E+02 -0.16632771426E+02  0.12725046156E+03  0.80419002446E+02 0.  1.
          1    1    1    2  501    0 -0.11904757767E+02 -0.66341106280E+02 -0.14401145337E+02  0.68922120012E+02  0.00000000000E+00 0. -1.
         -2    1    1    2    0  503  0.50832208216E+02  0.15541112665E+03 -0.10978561752E+03  0.19695028179E+03  0.00000000000E+00 0.  1.
<mgrwt>
<rscale>  2 0.17853631E+03</rscale>
<asrwt>0</asrwt>
<pdfrwt beam="1">  1       21 0.19407949E-01 0.17853631E+03</pdfrwt>
<pdfrwt beam="2">  1       21 0.41072491E-01 0.17853631E+03</pdfrwt>
<totfact> 0.14004370E+05</totfact>
</mgrwt>
</event>
<event>
 5    1  0.1281005E-004  0.9608912E+02  0.7546771E-02  0.1288742E+00
         21   -1    0    0  501  502  0.00000000000E+00  0.00000000000E+00  0.10891744746E+03  0.10891744746E+03  0.00000000000E+00 0. -1.
         21   -1    0    0  502  503 -0.00000000000E+00 -0.00000000000E+00 -0.89760599640E+02  0.89760599640E+02  0.00000000000E+00 0.  1.
         24    1    1    2    0    0 -0.20688340648E+02 -0.35895766854E+02 -0.58214743690E+01  0.90651084026E+02  0.80419002446E+02 0.  0.
          1    1    1    2  501    0 -0.35544333792E+02  0.10489697625E+01 -0.40387860508E+01  0.35788431022E+02  0.00000000000E+00 0. -1.
         -2    1    1    2    0  503  0.56232674440E+02  0.34846797092E+02  0.29017108238E+02  0.72238532050E+02  0.00000000000E+00 0.  1.
<mgrwt>
<rscale>  2 0.96089120E+02</rscale>
<asrwt>0</asrwt>
<pdfrwt beam="1">  1       21 0.16756530E-01 0.96089120E+02</pdfrwt>
<pdfrwt beam="2">  1       21 0.13809323E-01 0.96089120E+02</pdfrwt>
<totfact> 0.14461389E+06</totfact>
</mgrwt>
</event>
<event>
 5    1  0.1281005E-004  0.1851601E+03  0.7546771E-02  0.1162900E+00
         21   -1    0    0  503  502  0.00000000000E+00  0.00000000000E+00  0.60045691651E+03  0.60045691651E+03  0.00000000000E+00 0. -1.
         21   -1    0    0  501  503 -0.00000000000E+00 -0.00000000000E+00 -0.58450836159E+02  0.58450836159E+02  0.00000000000E+00 0.  1.
         24    1    1    2    0    0 -0.27866475234E+02 -0.64733381132E+02  0.18639679284E+03  0.21489051029E+03  0.80419002446E+02 0.  0.
          1    1    1    2  501    0 -0.53498609946E+02 -0.80653339724E+02  0.10228611444E+03  0.14081729894E+03  0.00000000000E+00 0. -1.
         -2    1    1    2    0  502  0.81365085179E+02  0.14538672086E+03  0.25332317307E+03  0.30319994344E+03  0.00000000000E+00 0.  1.
<mgrwt>
<rscale>  2 0.18516015E+03</rscale>
<asrwt>0</asrwt>
<pdfrwt beam="1">  1       21 0.92377983E-01 0.18516015E+03</pdfrwt>
<pdfrwt beam="2">  1       21 0.89924368E-02 0.18516015E+03</pdfrwt>
<totfact> 0.97033885E+04</totfact>
</mgrwt>
</event>
<event>
 5    1  0.1281005E-004  0.1805786E+03  0.7546771E-02  0.1167244E+00
         21   -1    0    0  503  502  0.00000000000E+00  0.00000000000E+00  0.69552923314E+02  0.69552923314E+02  0.00000000000E+00 0.  1.
         21   -1    0    0  501  503 -0.00000000000E+00 -0.00000000000E+00 -0.60491077995E+03  0.60491077995E+03  0.00000000000E+00 0. -1.
         24    1    1    2    0    0 -0.11372532568E+02  0.54459835615E+02 -0.75170866845E+02  0.12334132871E+03  0.80419002446E+02 0.  0.
          1    1    1    2  501    0 -0.47125332385E+02 -0.14673362184E+03 -0.39475701293E+03  0.42377429369E+03  0.00000000000E+00 0. -1.
         -2    1    1    2    0  502  0.58497864953E+02  0.92273786221E+02 -0.65429976853E+02  0.12734808086E+03  0.00000000000E+00 0.  1.
<mgrwt>
<rscale>  2 0.18057855E+03</rscale>
<asrwt>0</asrwt>
<pdfrwt beam="1">  1       21 0.10700450E-01 0.18057855E+03</pdfrwt>
<pdfrwt beam="2">  1       21 0.93063199E-01 0.18057855E+03</pdfrwt>
<totfact> 0.70344028E+04</totfact>
</mgrwt>
</event>
<event>
 5    1  0.1281005E-004  0.1722246E+03  0.7546771E-02  0.1175548E+00
         21   -1    0    0  503  502  0.00000000000E+00  0.00000000000E+00  0.83976690982E+02  0.83976690982E+02  0.00000000000E+00 0. -1.
         21   -1    0    0  501  503 -0.00000000000E+00 -0.00000000000E+00 -0.41512289832E+03  0.41512289832E+03  0.00000000000E+00 0.  1.
         24    1    1    2    0    0 -0.10577519714E+03  0.67985794015E+02 -0.21992714946E+03  0.26579245200E+03  0.80419002446E+02 0.  0.
          1    1    1    2  501    0 -0.38450400923E+02 -0.18882434394E+02 -0.57619829548E+02  0.71798498709E+02  0.00000000000E+00 0. -1.
         -2    1    1    2    0  502  0.14422559806E+03 -0.49103359621E+02 -0.53599228337E+02  0.16150863859E+03  0.00000000000E+00 0.  1.
<mgrwt>
<rscale>  2 0.17222456E+03</rscale>
<asrwt>0</asrwt>
<pdfrwt beam="1">  1       21 0.12919491E-01 0.17222456E+03</pdfrwt>
<pdfrwt beam="2">  1       21 0.63865060E-01 0.17222456E+03</pdfrwt>
<totfact> 0.11728581E+05</totfact>
</mgrwt>
</event>
<event>
 5    1  0.1281005E-004  0.2592701E+03  0.7546771E-02  0.1107583E+00
         21   -1    0    0  503  502  0.00000000000E+00  0.00000000000E+00  0.35333926668E+03  0.35333926668E+03  0.00000000000E+00 0. -1.
         21   -1    0    0  501  503 -0.00000000000E+00 -0.00000000000E+00 -0.19678701439E+03  0.19678701439E+03  0.00000000000E+00 0. -1.
         24    1    1    2    0    0 -0.19740581855E+03  0.12576845644E+03  0.12416982327E+03  0.27689731453E+03  0.80419002446E+02 0. -1.
          1    1    1    2  501    0  0.21756198434E+03 -0.10323672910E+03  0.24988508593E+02  0.24210630894E+03  0.00000000000E+00 0. -1.
         -2    1    1    2    0  502 -0.20156165794E+02 -0.22531727341E+02  0.73939204343E+01  0.31122657596E+02  0.00000000000E+00 0.  1.
<mgrwt>
<rscale>  2 0.25927015E+03</rscale>
<asrwt>0</asrwt>
<pdfrwt beam="1">  1       21 0.54359887E-01 0.25927015E+03</pdfrwt>
<pdfrwt beam="2">  1       21 0.30274925E-01 0.25927015E+03</pdfrwt>
<totfact> 0.32410513E+04</totfact>
</mgrwt>
</event>
<event>
 5    1  0.1281005E-004  0.1414653E+03  0.7546771E-02  0.1211371E+00
         21   -1    0    0  501  502  0.00000000000E+00  0.00000000000E+00  0.15817352026E+03  0.15817352026E+03  0.00000000000E+00 0. -1.
         21   -1    0    0  502  503 -0.00000000000E+00 -0.00000000000E+00 -0.12925103829E+03  0.12925103829E+03  0.00000000000E+00 0.  1.
         24    1    1    2    0    0 -0.27430663675E+02  0.81747496831E+02  0.19143066732E+02  0.11945194643E+03  0.80419002446E+02 0.  0.
          1    1    1    2  501    0 -0.40979113128E+02  0.17436491560E+02  0.16006888471E+02  0.47323772348E+02  0.00000000000E+00 0. -1.
         -2    1    1    2    0  503  0.68409776803E+02 -0.99183988391E+02 -0.62274732347E+01  0.12064883977E+03  0.00000000000E+00 0.  1.
<mgrwt>
<rscale>  2 0.14146527E+03</rscale>
<asrwt>0</asrwt>
<pdfrwt beam="1">  1       21 0.24334388E-01 0.14146527E+03</pdfrwt>
<pdfrwt beam="2">  1       21 0.19884775E-01 0.14146527E+03</pdfrwt>
<totfact> 0.37551095E+05</totfact>
</mgrwt>
</event>
<event>
 5    1  0.1281005E-004  0.1122643E+03  0.7546771E-02  0.1256433E+00
         21   -1    0    0  501  502  0.00000000000E+00  0.00000000000E+00  0.12250096168E+03  0.12250096168E+03  0.00000000000E+00 0. -1.
         21   -1    0    0  502  503 -0.00000000000E+00 -0.00000000000E+00 -0.11201510419E+03  0.11201510419E+03  0.00000000000E+00 0.  1.
         24    1    1    2    0    0 -0.50753009471E+02  0.54641347871E+02 -0.28211508969E+02  0.11324597150E+03  0.80419002446E+02 0.  1.
          1    1    1    2  501    0  0.56867874302E+02  0.29438509323E+01  0.16964023434E+02  0.59417164835E+02  0.00000000000E+00 0. -1.
         -2    1    1    2    0  503 -0.61148648313E+01 -0.57585198803E+02  0.21733343031E+02  0.61852929537E+02  0.00000000000E+00 0.  1.
<mgrwt>
<rscale>  2 0.11226434E+03</rscale>
<asrwt>0</asrwt>
<pdfrwt beam="1">  1       21 0.18846302E-01 0.11226434E+03</pdfrwt>
<pdfrwt beam="2">  1       21 0.17233093E-01 0.11226434E+03</pdfrwt>
<totfact> 0.78664919E+05</totfact>
</mgrwt>
</event>
<event>
 5    1  0.1281005E-004  0.9554207E+02  0.7546771E-02  0.1289960E+00
         21   -1    0    0  503  502  0.00000000000E+00  0.00000000000E+00  0.14832432872E+03  0.14832432872E+03  0.00000000000E+00 0. -1.
         21   -1    0    0  501  503 -0.00000000000E+00 -0.00000000000E+00 -0.62305650687E+02  0.62305650687E+02  0.00000000000E+00 0.  1.
         24    1    1    2    0    0  0.10295000643E+02 -0.22893856447E+02  0.31074602153E+02  0.89794000660E+02  0.80419002446E+02 0.  1.
          1    1    1    2  501    0  0.27461805098E+02  0.52239930429E+02  0.23072285508E+02  0.63367905355E+02  0.00000000000E+00 0. -1.
         -2    1    1    2    0  502 -0.37756805741E+02 -0.29346073983E+02  0.31871790375E+02  0.57468073394E+02  0.00000000000E+00 0.  1.
<mgrwt>
<rscale>  2 0.95542071E+02</rscale>
<asrwt>0</asrwt>
<pdfrwt beam="1">  1       21 0.22819127E-01 0.95542071E+02</pdfrwt>
<pdfrwt beam="2">  1       21 0.95854847E-02 0.95542071E+02</pdfrwt>
<totfact> 0.15581355E+06</totfact>
</mgrwt>
</event>
<event>
 5    1  0.1281005E-004  0.2069690E+03  0.7546771E-02  0.1143989E+00
         21   -1    0    0  501  502  0.00000000000E+00  0.00000000000E+00  0.23070286780E+03  0.23070286780E+03  0.00000000000E+00 0.  1.
         21   -1    0    0  502  503 -0.00000000000E+00 -0.00000000000E+00 -0.20363707369E+03  0.20363707369E+03  0.00000000000E+00 0. -1.
         24    1    1    2    0    0  0.92758328919E+02 -0.33895067205E+02 -0.49894430732E+01  0.12745624214E+03  0.80419002446E+02 0.  1.
          1    1    1    2  501    0 -0.18771123920E+03  0.67918437451E+01  0.70904179981E+02  0.20077111645E+03  0.00000000000E+00 0. -1.
         -2    1    1    2    0  503  0.94952910277E+02  0.27103223460E+02 -0.38848942793E+02  0.10611258289E+03  0.00000000000E+00 0.  1.
<mgrwt>
<rscale>  2 0.20696897E+03</rscale>
<asrwt>0</asrwt>
<pdfrwt beam="1">  1       21 0.35492749E-01 0.20696897E+03</pdfrwt>
<pdfrwt beam="2">  1       21 0.31328780E-01 0.20696897E+03</pdfrwt>
<totfact> 0.74471666E+04</totfact>
</mgrwt>
</event>
<event>
 5    1  0.1281005E-004  0.1486780E+03  0.7546771E-02  0.1202107E+00
         21   -1    0    0  501  502  0.00000000000E+00  0.00000000000E+00  0.63954162721E+03  0.63954162721E+03  0.00000000000E+00 0. -1.
         21   -1    0    0  502  503 -0.00000000000E+00 -0.00000000000E+00 -0.39788511307E+02  0.39788511307E+02  0.00000000000E+00 0. -1.
         24    1    1    2    0    0 -0.40986553413E+02 -0.46017444418E+02  0.11433554750E+03  0.15276562483E+03  0.80419002446E+02 0. -1.
          1    1    1    2  501    0  0.99339811686E+02 -0.26642059219E+02  0.32674073986E+03  0.34254592187E+03  0.00000000000E+00 0. -1.
         -2    1    1    2    0  503 -0.58353258273E+02  0.72659503638E+02  0.15867682853E+03  0.18401859181E+03  0.00000000000E+00 0.  1.
<mgrwt>
<rscale>  2 0.14867801E+03</rscale>
<asrwt>0</asrwt>
<pdfrwt beam="1">  1       21 0.98391012E-01 0.14867801E+03</pdfrwt>
<pdfrwt beam="2">  1       21 0.61213099E-02 0.14867801E+03</pdfrwt>
<totfact> 0.16505743E+05</totfact>
</mgrwt>
</event>
<event>
 5    1  0.1281005E-004  0.9833107E+02  0.7546771E-02  0.1283845E+00
         21   -1    0    0  503  502  0.00000000000E+00  0.00000000000E+00  0.97171788988E+02  0.97171788988E+02  0.00000000000E+00 0.  1.
         21   -1    0    0  501  503 -0.00000000000E+00 -0.00000000000E+00 -0.10352539593E+03  0.10352539593E+03  0.00000000000E+00 0. -1.
         24    1    1    2    0    0  0.30536023611E+02 -0.25032609429E+02 -0.19856004249E+02  0.91763593717E+02  0.80419002446E+02 0.  0.
          1    1    1    2  501    0 -0.66541730211E+02  0.73117238589E+01  0.11748920116E+01  0.66952546901E+02  0.00000000000E+00 0. -1.
         -2    1    1    2    0  502  0.36005706600E+02  0.17720885570E+02  0.12327505300E+02  0.41981044295E+02  0.00000000000E+00 0.  1.
<mgrwt>
<rscale>  2 0.98331066E+02</rscale>
<asrwt>0</asrwt>
<pdfrwt beam="1">  1       21 0.14949506E-01 0.98331066E+02</pdfrwt>
<pdfrwt beam="2">  1       21 0.15926984E-01 0.98331066E+02</pdfrwt>
<totfact> 0.13764479E+06</totfact>
</mgrwt>
</event>
<event>
 5    1  0.1281005E-004  0.1300946E+03  0.7546771E-02  0.1227315E+00
         21   -1    0    0  503  502  0.00000000000E+00  0.00000000000E+00  0.49146038990E+03  0.49146038990E+03  0.00000000000E+00 0. -1.
         21   -1    0    0  501  503 -0.00000000000E+00 -0.00000000000E+00 -0.34765103096E+02  0.34765103096E+02  0.00000000000E+00 0.  1.
         24    1    1    2    0    0 -0.36371383144E+00 -0.52482022904E+02  0.19344792139E+03  0.21597177885E+03  0.80419002446E+02 0.  0.
          1    1    1    2  501    0  0.26016280819E+01 -0.55796854369E+02  0.86777755020E+02  0.10320095054E+03  0.00000000000E+00 0. -1.
         -2    1    1    2    0  502 -0.22379142505E+01  0.10827887727E+03  0.17646961040E+03  0.20705276361E+03  0.00000000000E+00 0.  1.
<mgrwt>
<rscale>  2 0.13009461E+03</rscale>
<asrwt>0</asrwt>
<pdfrwt beam="1">  1       21 0.75609286E-01 0.13009461E+03</pdfrwt>
<pdfrwt beam="2">  1       21 0.53484778E-02 0.13009461E+03</pdfrwt>
<totfact> 0.37932629E+05</totfact>
</mgrwt>
</event>
<event>
 5    1  0.1281005E-004  0.1397634E+03  0.7546771E-02  0.1213648E+00
         21   -1    0    0  503  502  0.00000000000E+00  0.00000000000E+00  0.48430684555E+03  0.48430684555E+03  0.00000000000E+00 0.  1.
         21   -1    0    0  501  503 -0.00000000000E+00 -0.00000000000E+00 -0.44295535095E+02  0.44295535095E+02  0.00000000000E+00 0. -1.
         24    1    1    2    0    0  0.40116990114E+01 -0.48435619141E+02  0.80319758083E+02  0.12361465295E+03  0.80419002446E+02 0. -1.
          1    1    1    2  501    0  0.45603935836E+02  0.10249685745E+03  0.20204906002E+03  0.23110419167E+03  0.00000000000E+00 0. -1.
         -2    1    1    2    0  502 -0.49615634848E+02 -0.54061238304E+02  0.15764249235E+03  0.17388353603E+03  0.00000000000E+00 0.  1.
<mgrwt>
<rscale>  2 0.13976339E+03</rscale>
<asrwt>0</asrwt>
<pdfrwt beam="1">  1       21 0.74508742E-01 0.13976339E+03</pdfrwt>
<pdfrwt beam="2">  1       21 0.68146981E-02 0.13976339E+03</pdfrwt>
<totfact> 0.25915003E+05</totfact>
</mgrwt>
</event>
<event>
 5    1  0.1281005E-004  0.2497938E+03  0.7546771E-02  0.1113435E+00
         21   -1    0    0  501  502  0.00000000000E+00  0.00000000000E+00  0.11100019646E+04  0.11100019646E+04  0.00000000000E+00 0. -1.
         21   -1    0    0  502  503 -0.00000000000E+00 -0.00000000000E+00 -0.63233979191E+02  0.63233979191E+02  0.00000000000E+00 0.  1.
         24    1    1    2    0    0 -0.22428017792E+02  0.11666136677E+03  0.38841334947E+03  0.41405921856E+03  0.80419002446E+02 0. -1.
          1    1    1    2  501    0  0.30410858083E+02 -0.23528288190E+03  0.54721675669E+03  0.59643024203E+03  0.00000000000E+00 0. -1.
         -2    1    1    2    0  503 -0.79828402914E+01  0.11862151513E+03  0.11113787927E+03  0.16274648322E+03  0.00000000000E+00 0.  1.
<mgrwt>
<rscale>  2 0.24979379E+03</rscale>
<asrwt>0</asrwt>
<pdfrwt beam="1">  1       21 0.17076952E+00 0.24979379E+03</pdfrwt>
<pdfrwt beam="2">  1       21 0.97283053E-02 0.24979379E+03</pdfrwt>
<totfact> 0.17293613E+04</totfact>
</mgrwt>
</event>
<event>
 5    1  0.1281005E-004  0.1427421E+03  0.7546771E-02  0.1209686E+00
         21   -1    0    0  503  502  0.00000000000E+00  0.00000000000E+00  0.81052995418E+03  0.81052995418E+03  0.00000000000E+00 0. -1.
         21   -1    0    0  501  503 -0.00000000000E+00 -0.00000000000E+00 -0.25497171429E+02  0.25497171429E+02  0.00000000000E+00 0. -1.
         24    1    1    2    0    0  0.68977130971E+02 -0.33013006234E+02  0.29378328601E+03  0.31404384769E+03  0.80419002446E+02 0. -1.
          1    1    1    2  501    0 -0.10921028134E+03 -0.16783915700E+02  0.27221958797E+03  0.29378919220E+03  0.00000000000E+00 0. -1.
         -2    1    1    2    0  502  0.40233150372E+02  0.49796921934E+02  0.21902990877E+03  0.22819408572E+03  0.00000000000E+00 0.  1.
<mgrwt>
<rscale>  2 0.14274207E+03</rscale>
<asrwt>0</asrwt>
<pdfrwt beam="1">  1       21 0.12469690E+00 0.14274207E+03</pdfrwt>
<pdfrwt beam="2">  1       21 0.39226424E-02 0.14274207E+03</pdfrwt>
<totfact> 0.19780566E+05</totfact>
</mgrwt>
</event>
<event>
 5    1  0.1281005E-004  0.1016462E+03  0.7546771E-02  0.1276872E+00
         21   -1    0    0  503  502  0.00000000000E+00  0.00000000000E+00  0.15290846158E+02  0.15290846158E+02  0.00000000000E+00 0.  1.
         21   -1    0    0  501  503 -0.00000000000E+00 -0.00000000000E+00 -0.82975153327E+03  0.82975153327E+03  0.00000000000E+00 0. -1.
         24    1    1    2    0    0  0.16942498736E+02  0.44413902385E+02 -0.46080020721E+03  0.47017410595E+03  0.80419002446E+02 0.  0.
          1    1    1    2  501    0  0.11940464853E+02  0.28795935869E+02 -0.19804478091E+03  0.20048320595E+03  0.00000000000E+00 0. -1.
         -2    1    1    2    0  502 -0.28882963588E+02 -0.73209838254E+02 -0.15561569900E+03  0.17438506753E+03  0.00000000000E+00 0.  1.
<mgrwt>
<rscale>  2 0.10164621E+03</rscale>
<asrwt>0</asrwt>
<pdfrwt beam="1">  1       21 0.23524375E-02 0.10164621E+03</pdfrwt>
<pdfrwt beam="2">  1       21 0.12765410E+00 0.10164621E+03</pdfrwt>
<totfact> 0.43687423E+05</totfact>
</mgrwt>
</event>
<event>
 5    1  0.1281005E-004  0.1337894E+03  0.7546771E-02  0.1221939E+00
         21   -1    0    0  501  502  0.00000000000E+00  0.00000000000E+00  0.11473704040E+02  0.11473704040E+02  0.00000000000E+00 0. -1.
         21   -1    0    0  502  503 -0.00000000000E+00 -0.00000000000E+00 -0.21378367143E+04  0.21378367143E+04  0.00000000000E+00 0. -1.
         24    1    1    2    0    0  0.33848631184E+02  0.60672198603E+02 -0.35466125615E+03  0.37024136464E+03  0.80419002446E+02 0. -1.
          1    1    1    2  501    0 -0.55016544375E+02 -0.10142337127E+03 -0.12064697762E+04  0.12119747693E+04  0.00000000000E+00 0. -1.
         -2    1    1    2    0  503  0.21167913191E+02  0.40751172671E+02 -0.56523197794E+03  0.56709428450E+03  0.00000000000E+00 0.  1.
<mgrwt>
<rscale>  2 0.13378938E+03</rscale>
<asrwt>0</asrwt>
<pdfrwt beam="1">  1       21 0.17651842E-02 0.13378938E+03</pdfrwt>
<pdfrwt beam="2">  1       21 0.32889814E+00 0.13378938E+03</pdfrwt>
<totfact> 0.37473655E+04</totfact>
</mgrwt>
</event>
<event>
 5    1  0.1281005E-004  0.1424857E+03  0.7546771E-02  0.1210023E+00
         21   -1    0    0  501  502  0.00000000000E+00  0.00000000000E+00  0.19591419039E+03  0.19591419039E+03  0.00000000000E+00 0.  1.
         21   -1    0    0  502  503 -0.00000000000E+00 -0.00000000000E+00 -0.10372684463E+03  0.10372684463E+03  0.00000000000E+00 0. -1.
         24    1    1    2    0    0 -0.21588702657E+02  0.28207362007E+02  0.27906428759E+02  0.92237259686E+02  0.80419002446E+02 0.  0.
          1    1    1    2  501    0 -0.31889653606E+02  0.74623184445E+02  0.22715745649E+02  0.84270841720E+02  0.00000000000E+00 0. -1.
         -2    1    1    2    0  503  0.53478356264E+02 -0.10283054645E+03  0.41565171346E+02  0.12313293362E+03  0.00000000000E+00 0.  1.
<mgrwt>
<rscale>  2 0.14248565E+03</rscale>
<asrwt>0</asrwt>
<pdfrwt beam="1">  1       21 0.30140645E-01 0.14248565E+03</pdfrwt>
<pdfrwt beam="2">  1       21 0.15957976E-01 0.14248565E+03</pdfrwt>
<totfact> 0.37335880E+05</totfact>
</mgrwt>
</event>
<event>
 5    1  0.1281005E-004  0.1601124E+03  0.7546771E-02  0.1188570E+00
         21   -1    0    0  501  502  0.00000000000E+00  0.00000000000E+00  0.10326672387E+03  0.10326672387E+03  0.00000000000E+00 0.  1.
         21   -1    0    0  502  503 -0.00000000000E+00 -0.00000000000E+00 -0.25382307929E+03  0.25382307929E+03  0.00000000000E+00 0. -1.
         24    1    1    2    0    0  0.62256864681E+02 -0.80214045562E+01 -0.43814702833E+02  0.11102794364E+03  0.80419002446E+02 0. -1.
          1    1    1    2  501    0 -0.13989916126E+03 -0.20549407733E+01 -0.88876871199E+02  0.16575613515E+03  0.00000000000E+00 0. -1.
         -2    1    1    2    0  503  0.77642296583E+02  0.10076345329E+02 -0.17864781388E+02  0.80305724378E+02  0.00000000000E+00 0.  1.
<mgrwt>
<rscale>  2 0.16011235E+03</rscale>
<asrwt>0</asrwt>
<pdfrwt beam="1">  1       21 0.15887188E-01 0.16011235E+03</pdfrwt>
<pdfrwt beam="2">  1       21 0.39049704E-01 0.16011235E+03</pdfrwt>
<totfact> 0.22538852E+05</totfact>
</mgrwt>
</event>
<event>
 5    1  0.1281005E-004  0.1433404E+03  0.7546771E-02  0.1208904E+00
         21   -1    0    0  503  502  0.00000000000E+00  0.00000000000E+00  0.31641363778E+02  0.31641363778E+02  0.00000000000E+00 0.  1.
         21   -1    0    0  501  503 -0.00000000000E+00 -0.00000000000E+00 -0.66867979123E+03  0.66867979123E+03  0.00000000000E+00 0. -1.
         24    1    1    2    0    0 -0.87622560132E+02  0.83678796028E+01 -0.31321019480E+03  0.33513516159E+03  0.80419002446E+02 0. -1.
          1    1    1    2  501    0 -0.39077013603E+02  0.74188655676E+01 -0.58575237760E+02  0.70803326455E+02  0.00000000000E+00 0. -1.
         -2    1    1    2    0  502  0.12669957374E+03 -0.15786745170E+02 -0.26525299488E+03  0.29438266695E+03  0.00000000000E+00 0.  1.
<mgrwt>
<rscale>  2 0.14334039E+03</rscale>
<asrwt>0</asrwt>
<pdfrwt beam="1">  1       21 0.48679019E-02 0.14334039E+03</pdfrwt>
<pdfrwt beam="2">  1       21 0.10287382E+00 0.14334039E+03</pdfrwt>
<totfact> 0.21934337E+05</totfact>
</mgrwt>
</event>
<event>
 5    1  0.1281005E-004  0.2147774E+03  0.7546771E-02  0.1137838E+00
         21   -1    0    0  503  502  0.00000000000E+00  0.00000000000E+00  0.13252556224E+03  0.13252556224E+03  0.00000000000E+00 0.  1.
         21   -1    0    0  501  503 -0.00000000000E+00 -0.00000000000E+00 -0.35967285265E+03  0.35967285265E+03  0.00000000000E+00 0. -1.
         24    1    1    2    0    0  0.64871305055E+01  0.78803657308E+02 -0.10023537288E+03  0.15088553674E+03  0.80419002446E+02 0.  1.
          1    1    1    2  501    0 -0.10884445484E+03 -0.15483813784E+03 -0.72416399966E+02  0.20264772208E+03  0.00000000000E+00 0. -1.
         -2    1    1    2    0  502  0.10235732433E+03  0.76034480531E+02 -0.54495517558E+02  0.13866515607E+03  0.00000000000E+00 0.  1.
<mgrwt>
<rscale>  2 0.21477738E+03</rscale>
<asrwt>0</asrwt>
<pdfrwt beam="1">  1       21 0.20388548E-01 0.21477738E+03</pdfrwt>
<pdfrwt beam="2">  1       21 0.55334284E-01 0.21477738E+03</pdfrwt>
<totfact> 0.67899326E+04</totfact>
</mgrwt>
</event>
<event>
 5    1  0.1281005E-004  0.3302817E+03  0.7546771E-02  0.1071012E+00
         21   -1    0    0  501  502  0.00000000000E+00  0.00000000000E+00  0.50549845750E+03  0.50549845750E+03  0.00000000000E+00 0. -1.
         21   -1    0    0  502  503 -0.00000000000E+00 -0.00000000000E+00 -0.27464547562E+03  0.27464547562E+03  0.00000000000E+00 0.  1.
         24    1    1    2    0    0 -0.12812551452E+03 -0.62658578186E+02  0.93730959941E+01  0.16400401146E+03  0.80419002446E+02 0.  0.
          1    1    1    2  501    0  0.30947197706E+03  0.17627111444E+02  0.28268545026E+03  0.41951720278E+03  0.00000000000E+00 0. -1.
         -2    1    1    2    0  503 -0.18134646253E+03  0.45031466742E+02 -0.61205564379E+02  0.19662271888E+03  0.00000000000E+00 0.  1.
<mgrwt>
<rscale>  2 0.33028170E+03</rscale>
<asrwt>0</asrwt>
<pdfrwt beam="1">  1       21 0.77768993E-01 0.33028170E+03</pdfrwt>
<pdfrwt beam="2">  1       21 0.42253150E-01 0.33028170E+03</pdfrwt>
<totfact> 0.73104859E+03</totfact>
</mgrwt>
</event>
<event>
 5    1  0.1281005E-004  0.2375158E+03  0.7546771E-02  0.1121459E+00
         21   -1    0    0  501  502  0.00000000000E+00  0.00000000000E+00  0.48295187768E+03  0.48295187768E+03  0.00000000000E+00 0.  1.
         21   -1    0    0  502  503 -0.00000000000E+00 -0.00000000000E+00 -0.13146654901E+03  0.13146654901E+03  0.00000000000E+00 0. -1.
         24    1    1    2    0    0 -0.20844107723E+02  0.30439335684E+02  0.12765052231E+01  0.88486583184E+02  0.80419002446E+02 0.  1.
          1    1    1    2  501    0  0.11465959911E+03 -0.17797797385E+03  0.14638938786E+03  0.25739626206E+03  0.00000000000E+00 0. -1.
         -2    1    1    2    0  503 -0.93815491389E+02  0.14753863816E+03  0.20381943559E+03  0.26853558144E+03  0.00000000000E+00 0.  1.
<mgrwt>
<rscale>  2 0.23751584E+03</rscale>
<asrwt>0</asrwt>
<pdfrwt beam="1">  1       21 0.74300288E-01 0.23751584E+03</pdfrwt>
<pdfrwt beam="2">  1       21 0.20225623E-01 0.23751584E+03</pdfrwt>
<totfact> 0.35882051E+04</totfact>
</mgrwt>
</event>
<event>
 5    1  0.1281005E-004  0.2108189E+03  0.7546771E-02  0.1140919E+00
         21   -1    0    0  503  502  0.00000000000E+00  0.00000000000E+00  0.27036354293E+02  0.27036354293E+02  0.00000000000E+00 0.  1.
         21   -1    0    0  501  503 -0.00000000000E+00 -0.00000000000E+00 -0.16455478390E+04  0.16455478390E+04  0.00000000000E+00 0. -1.
         24    1    1    2    0    0  0.80559652602E+02  0.69685132980E+02 -0.48919831633E+03  0.50707798615E+03  0.80419002446E+02 0. -1.
          1    1    1    2  501    0  0.97954155353E+02 -0.42595857262E+01 -0.39124792940E+03  0.40334613284E+03  0.00000000000E+00 0. -1.
         -2    1    1    2    0  502 -0.17851380796E+03 -0.65425547254E+02 -0.73806523897E+03  0.76216007429E+03  0.00000000000E+00 0.  1.
<mgrwt>
<rscale>  2 0.21081893E+03</rscale>
<asrwt>0</asrwt>
<pdfrwt beam="1">  1       21 0.41594376E-02 0.21081893E+03</pdfrwt>
<pdfrwt beam="2">  1       21 0.25316130E+00 0.21081893E+03</pdfrwt>
<totfact> 0.23025258E+04</totfact>
</mgrwt>
</event>
<event>
 5    1  0.1281005E-004  0.9149333E+02  0.7546771E-02  0.1299275E+00
         21   -1    0    0  503  502  0.00000000000E+00  0.00000000000E+00  0.99387888396E+02  0.99387888396E+02  0.00000000000E+00 0.  1.
         21   -1    0    0  501  503 -0.00000000000E+00 -0.00000000000E+00 -0.94317723549E+02  0.94317723549E+02  0.00000000000E+00 0. -1.
         24    1    1    2    0    0 -0.20670047867E+02 -0.63935739360E+01 -0.94789609418E+01  0.83816438253E+02  0.80419002446E+02 0.  0.
          1    1    1    2  501    0 -0.39409295526E+02  0.33539168806E+01 -0.15702425974E+02  0.42554759003E+02  0.00000000000E+00 0. -1.
         -2    1    1    2    0  502  0.60079343393E+02  0.30396570554E+01  0.30251551763E+02  0.67334414690E+02  0.00000000000E+00 0.  1.
<mgrwt>
<rscale>  2 0.91493330E+02</rscale>
<asrwt>0</asrwt>
<pdfrwt beam="1">  1       21 0.15290444E-01 0.91493330E+02</pdfrwt>
<pdfrwt beam="2">  1       21 0.14510419E-01 0.91493330E+02</pdfrwt>
<totfact> 0.15588420E+06</totfact>
</mgrwt>
</event>
<event>
 5    1  0.1281005E-004  0.1454614E+03  0.7546771E-02  0.1206164E+00
         21   -1    0    0  501  502  0.00000000000E+00  0.00000000000E+00  0.61491537742E+02  0.61491537742E+02  0.00000000000E+00 0. -1.
         21   -1    0    0  502  503 -0.00000000000E+00 -0.00000000000E+00 -0.40251728906E+03  0.40251728906E+03  0.00000000000E+00 0. -1.
         24    1    1    2    0    0  0.43447880166E+01 -0.94031801263E+01 -0.12025578047E+03  0.14503780773E+03  0.80419002446E+02 0. -1.
          1    1    1    2  501    0  0.10073532219E+03 -0.15310621512E+02 -0.42150045506E+02  0.11026625324E+03  0.00000000000E+00 0. -1.
         -2    1    1    2    0  503 -0.10508011021E+03  0.24713801639E+02 -0.17861992534E+03  0.20870476583E+03  0.00000000000E+00 0.  1.
<mgrwt>
<rscale>  2 0.14546139E+03</rscale>
<asrwt>0</asrwt>
<pdfrwt beam="1">  1       21 0.94602370E-02 0.14546139E+03</pdfrwt>
<pdfrwt beam="2">  1       21 0.61925734E-01 0.14546139E+03</pdfrwt>
<totfact> 0.21948148E+05</totfact>
</mgrwt>
</event>
<event>
 5    1  0.1281005E-004  0.1511684E+03  0.7546771E-02  0.1199045E+00
         21   -1    0    0  501  502  0.00000000000E+00  0.00000000000E+00  0.23492765185E+03  0.23492765185E+03  0.00000000000E+00 0. -1.
         21   -1    0    0  502  503 -0.00000000000E+00 -0.00000000000E+00 -0.98595989269E+02  0.98595989269E+02  0.00000000000E+00 0.  1.
         24    1    1    2    0    0 -0.21209747592E+02  0.20552621623E+02  0.56466086343E+02  0.10260554814E+03  0.80419002446E+02 0.  0.
          1    1    1    2  501    0  0.11528316655E+03  0.14674441790E+02  0.42481423143E+02  0.12373446991E+03  0.00000000000E+00 0. -1.
         -2    1    1    2    0  503 -0.94073418957E+02 -0.35227063413E+02  0.37384153093E+02  0.10718362307E+03  0.00000000000E+00 0.  1.
<mgrwt>
<rscale>  2 0.15116844E+03</rscale>
<asrwt>0</asrwt>
<pdfrwt beam="1">  1       21 0.36142715E-01 0.15116844E+03</pdfrwt>
<pdfrwt beam="2">  1       21 0.15168614E-01 0.15116844E+03</pdfrwt>
<totfact> 0.28649539E+05</totfact>
</mgrwt>
</event>
<event>
 5    1  0.1281005E-004  0.2665392E+03  0.7546771E-02  0.1103277E+00
         21   -1    0    0  503  502  0.00000000000E+00  0.00000000000E+00  0.12332407539E+03  0.12332407539E+03  0.00000000000E+00 0. -1.
         21   -1    0    0  501  503 -0.00000000000E+00 -0.00000000000E+00 -0.62375207261E+03  0.62375207261E+03  0.00000000000E+00 0.  1.
         24    1    1    2    0    0  0.71519677846E+02  0.10567002734E+03 -0.18011811403E+03  0.23492758449E+03  0.80419002446E+02 0.  1.
          1    1    1    2  501    0 -0.12183817077E+03 -0.22326416372E+03 -0.27946355311E+03  0.37787736658E+03  0.00000000000E+00 0. -1.
         -2    1    1    2    0  502  0.50318492928E+02  0.11759413638E+03 -0.40846330090E+02  0.13427119693E+03  0.00000000000E+00 0.  1.
<mgrwt>
<rscale>  2 0.26653922E+03</rscale>
<asrwt>0</asrwt>
<pdfrwt beam="1">  1       21 0.18972934E-01 0.26653922E+03</pdfrwt>
<pdfrwt beam="2">  1       21 0.95961858E-01 0.26653922E+03</pdfrwt>
<totfact> 0.22152179E+04</totfact>
</mgrwt>
</event>
<event>
 5    1  0.1281005E-004  0.8648050E+02  0.7546771E-02  0.1311606E+00
         21   -1    0    0  503  502  0.00000000000E+00  0.00000000000E+00  0.11674058971E+04  0.11674058971E+04  0.00000000000E+00 0. -1.
         21   -1    0    0  501  503 -0.00000000000E+00 -0.00000000000E+00 -0.66751228798E+01  0.66751228798E+01  0.00000000000E+00 0.  1.
         24    1    1    2    0    0  0.20482531229E+00  0.63865931845E+01  0.42991880472E+03  0.43742225038E+03  0.80419002446E+02 0.  1.
          1    1    1    2  501    0 -0.33163609495E+02 -0.35307364767E+02  0.35197060974E+03  0.35528825638E+03  0.00000000000E+00 0. -1.
         -2    1    1    2    0  502  0.32958784182E+02  0.28920771583E+02  0.37884135978E+03  0.38137051323E+03  0.00000000000E+00 0.  1.
<mgrwt>
<rscale>  2 0.86480498E+02</rscale>
<asrwt>0</asrwt>
<pdfrwt beam="1">  1       21 0.17960074E+00 0.86480498E+02</pdfrwt>
<pdfrwt beam="2">  1       21 0.10269429E-02 0.86480498E+02</pdfrwt>
<totfact> 0.68013295E+05</totfact>
</mgrwt>
</event>
<event>
 5    1  0.1281005E-004  0.1141615E+03  0.7546771E-02  0.1253052E+00
         21   -1    0    0  503  502  0.00000000000E+00  0.00000000000E+00  0.37024661469E+03  0.37024661469E+03  0.00000000000E+00 0. -1.
         21   -1    0    0  501  503 -0.00000000000E+00 -0.00000000000E+00 -0.37906928105E+02  0.37906928105E+02  0.00000000000E+00 0.  1.
         24    1    1    2    0    0  0.54375647678E+01  0.69723503939E+01  0.17165734371E+03  0.18976733224E+03  0.80419002446E+02 0. -1.
          1    1    1    2  501    0  0.37432423705E+02  0.58326815386E+02  0.84331341533E+02  0.10915575524E+03  0.00000000000E+00 0. -1.
         -2    1    1    2    0  502 -0.42869988472E+02 -0.65299165780E+02  0.76351001346E+02  0.10923045532E+03  0.00000000000E+00 0.  1.
<mgrwt>
<rscale>  2 0.11416145E+03</rscale>
<asrwt>0</asrwt>
<pdfrwt beam="1">  1       21 0.56961015E-01 0.11416145E+03</pdfrwt>
<pdfrwt beam="2">  1       21 0.58318353E-02 0.11416145E+03</pdfrwt>
<totfact> 0.60426785E+05</totfact>
</mgrwt>
</event>
<event>
 5    1  0.1281005E-004  0.1713647E+03  0.7546771E-02  0.1176432E+00
         21   -1    0    0  501  502  0.00000000000E+00  0.00000000000E+00  0.88543137114E+02  0.88543137114E+02  0.00000000000E+00 0.  1.
         21   -1    0    0  502  503 -0.00000000000E+00 -0.00000000000E+00 -0.34173532721E+03  0.34173532721E+03  0.00000000000E+00 0. -1.
         24    1    1    2    0    0 -0.11915401676E+03  0.10698359373E+02 -0.71850356779E+02  0.16106465884E+03  0.80419002446E+02 0.  0.
          1    1    1    2  501    0  0.15512219425E+03  0.12745559028E+02 -0.14892907463E+03  0.21541869393E+03  0.00000000000E+00 0. -1.
         -2    1    1    2    0  503 -0.35968177487E+02 -0.23443918401E+02 -0.32412758693E+02  0.53795111560E+02  0.00000000000E+00 0.  1.
<mgrwt>
<rscale>  2 0.17136468E+03</rscale>
<asrwt>0</asrwt>
<pdfrwt beam="1">  1       21 0.13622021E-01 0.17136468E+03</pdfrwt>
<pdfrwt beam="2">  1       21 0.52574667E-01 0.17136468E+03</pdfrwt>
<totfact> 0.16137223E+05</totfact>
</mgrwt>
</event>
<event>
 5    1  0.1281005E-004  0.1897057E+03  0.7546771E-02  0.1158727E+00
         21   -1    0    0  501  502  0.00000000000E+00  0.00000000000E+00  0.17258177578E+02  0.17258177578E+02  0.00000000000E+00 0. -1.
         21   -1    0    0  502  503 -0.00000000000E+00 -0.00000000000E+00 -0.21662228030E+04  0.21662228030E+04  0.00000000000E+00 0.  1.
         24    1    1    2    0    0 -0.25376421595E+02 -0.22727654265E+02 -0.53617355910E+03  0.54324010389E+03  0.80419002446E+02 0.  0.
          1    1    1    2  501    0 -0.59832032540E+02 -0.11527963465E+03 -0.54887879380E+03  0.56403652060E+03  0.00000000000E+00 0. -1.
         -2    1    1    2    0  503  0.85208454135E+02  0.13800728892E+03 -0.10639122725E+04  0.10762043561E+04  0.00000000000E+00 0.  1.
<mgrwt>
<rscale>  2 0.18970568E+03</rscale>
<asrwt>0</asrwt>
<pdfrwt beam="1">  1       21 0.26551028E-02 0.18970568E+03</pdfrwt>
<pdfrwt beam="2">  1       21 0.33326523E+00 0.18970568E+03</pdfrwt>
<totfact> 0.17022044E+04</totfact>
</mgrwt>
</event>
<event>
 5    1  0.1281005E-004  0.1647560E+03  0.7546771E-02  0.1183430E+00
         21   -1    0    0  503  502  0.00000000000E+00  0.00000000000E+00  0.21565628254E+02  0.21565628254E+02  0.00000000000E+00 0. -1.
         21   -1    0    0  501  503 -0.00000000000E+00 -0.00000000000E+00 -0.12826053298E+04  0.12826053298E+04  0.00000000000E+00 0.  1.
         24    1    1    2    0    0 -0.90162837002E+02 -0.21770207375E+01 -0.42074108249E+03  0.43774918737E+03  0.80419002446E+02 0.  0.
          1    1    1    2  501    0  0.14411355431E+03 -0.28074695277E+02 -0.52669232428E+03  0.54677391078E+03  0.00000000000E+00 0. -1.
         -2    1    1    2    0  502 -0.53950717306E+02  0.30251716014E+02 -0.31360629482E+03  0.31964785995E+03  0.00000000000E+00 0.  1.
<mgrwt>
<rscale>  2 0.16475597E+03</rscale>
<asrwt>0</asrwt>
<pdfrwt beam="1">  1       21 0.33177892E-02 0.16475597E+03</pdfrwt>
<pdfrwt beam="2">  1       21 0.19732388E+00 0.16475597E+03</pdfrwt>
<totfact> 0.76110940E+04</totfact>
</mgrwt>
</event>
<event>
 5    1  0.1281005E-004  0.1083720E+03  0.7546771E-02  0.1263615E+00
         21   -1    0    0  503  502  0.00000000000E+00  0.00000000000E+00  0.58653567117E+02  0.58653567117E+02  0.00000000000E+00 0. -1.
         21   -1    0    0  501  503 -0.00000000000E+00 -0.00000000000E+00 -0.20420951538E+03  0.20420951538E+03  0.00000000000E+00 0.  1.
         24    1    1    2    0    0  0.60077402463E+02 -0.31531078281E+02 -0.65791128518E+02  0.12409347981E+03  0.80419002446E+02 0.  1.
          1    1    1    2  501    0 -0.71914861830E+02  0.51402384770E+02 -0.73078223575E+02  0.11469254236E+03  0.00000000000E+00 0. -1.
         -2    1    1    2    0  502  0.11837459366E+02 -0.19871306489E+02 -0.66865961687E+01  0.24077060330E+02  0.00000000000E+00 0.  1.
<mgrwt>
<rscale>  2 0.10837200E+03</rscale>
<asrwt>0</asrwt>
<pdfrwt beam="1">  1       21 0.90236257E-02 0.10837200E+03</pdfrwt>
<pdfrwt beam="2">  1       21 0.31416848E-01 0.10837200E+03</pdfrwt>
<totfact> 0.94706679E+05</totfact>
</mgrwt>
</event>
<event>
 5    1  0.1281005E-004  0.1547680E+03  0.7546771E-02  0.1194733E+00
         21   -1    0    0  503  502  0.00000000000E+00  0.00000000000E+00  0.31913591591E+02  0.31913591591E+02  0.00000000000E+00 0.  1.
         21   -1    0    0  501  503 -0.00000000000E+00 -0.00000000000E+00 -0.81390254063E+03  0.81390254063E+03  0.00000000000E+00 0. -1.
         24    1    1    2    0    0 -0.57017392990E+02  0.10055156452E+03 -0.40561223926E+03  0.42936011089E+03  0.80419002446E+02 0.  0.
          1    1    1    2  501    0 -0.11536774001E+02  0.23955424068E+02 -0.12390529715E+03  0.12672601216E+03  0.00000000000E+00 0. -1.
         -2    1    1    2    0  502  0.68554166991E+02 -0.12450698859E+03 -0.25247141263E+03  0.28973000917E+03  0.00000000000E+00 0.  1.
<mgrwt>
<rscale>  2 0.15476805E+03</rscale>
<asrwt>0</asrwt>
<pdfrwt beam="1">  1       21 0.49097837E-02 0.15476805E+03</pdfrwt>
<pdfrwt beam="2">  1       21 0.12521577E+00 0.15476805E+03</pdfrwt>
<totfact> 0.13385689E+05</totfact>
</mgrwt>
</event>
<event>
 5    1  0.1281005E-004  0.1308293E+03  0.7546771E-02  0.1226230E+00
         21   -1    0    0  503  502  0.00000000000E+00  0.00000000000E+00  0.37806148281E+03  0.37806148281E+03  0.00000000000E+00 0. -1.
         21   -1    0    0  501  503 -0.00000000000E+00 -0.00000000000E+00 -0.70783586390E+02  0.70783586390E+02  0.00000000000E+00 0.  1.
         24    1    1    2    0    0 -0.29257466933E+02 -0.56612238390E+01  0.24358856448E+03  0.25824533592E+03  0.80419002446E+02 0. -1.
          1    1    1    2  501    0 -0.12724261631E+01  0.88036130654E+02  0.51244079314E+02  0.10187215043E+03  0.00000000000E+00 0. -1.
         -2    1    1    2    0  502  0.30529893096E+02 -0.82374906815E+02  0.12445252630E+02  0.88727582849E+02  0.00000000000E+00 0.  1.
<mgrwt>
<rscale>  2 0.13082930E+03</rscale>
<asrwt>0</asrwt>
<pdfrwt beam="1">  1       21 0.58163304E-01 0.13082930E+03</pdfrwt>
<pdfrwt beam="2">  1       21 0.10889783E-01 0.13082930E+03</pdfrwt>
<totfact> 0.19669620E+05</totfact>
</mgrwt>
</event>
<event>
 5    1  0.1281005E-004  0.1207030E+03  0.7546771E-02  0.1241942E+00
         21   -1    0    0  501  502  0.00000000000E+00  0.00000000000E+00  0.16942193032E+03  0.16942193032E+03  0.00000000000E+00 0. -1.
         21   -1    0    0  502  503 -0.00000000000E+00 -0.00000000000E+00 -0.92711046113E+02  0.92711046113E+02  0.00000000000E+00 0.  1.
         24    1    1    2    0    0  0.75504400905E+00 -0.16996245876E+02  0.18884257008E+02  0.84340225174E+02  0.80419002446E+02 0.  1.
          1    1    1    2  501    0 -0.79012093336E+02 -0.51932977045E+00  0.15262157668E+00  0.79013947440E+02  0.00000000000E+00 0. -1.
         -2    1    1    2    0  503  0.78257049326E+02  0.17515575647E+02  0.57674005623E+02  0.98778803820E+02  0.00000000000E+00 0.  1.
<mgrwt>
<rscale>  2 0.12070298E+03</rscale>
<asrwt>0</asrwt>
<pdfrwt beam="1">  1       21 0.26064912E-01 0.12070298E+03</pdfrwt>
<pdfrwt beam="2">  1       21 0.14263238E-01 0.12070298E+03</pdfrwt>
<totfact> 0.60497679E+05</totfact>
</mgrwt>
</event>
<event>
 5    1  0.1281005E-004  0.9286592E+02  0.7546771E-02  0.1296056E+00
         21   -1    0    0  501  502  0.00000000000E+00  0.00000000000E+00  0.30442865447E+02  0.30442865447E+02  0.00000000000E+00 0.  1.
         21   -1    0    0  502  503 -0.00000000000E+00 -0.00000000000E+00 -0.30294832055E+03  0.30294832055E+03  0.00000000000E+00 0.  1.
         24    1    1    2    0    0  0.53738680288E+02  0.40046288483E+02 -0.11032567181E+03  0.15208721444E+03  0.80419002446E+02 0.  1.
          1    1    1    2  501    0 -0.25298680790E+02  0.68427974351E+01 -0.52799046698E+02  0.58945622897E+02  0.00000000000E+00 0. -1.
         -2    1    1    2    0  503 -0.28439999498E+02 -0.46889085918E+02 -0.10938073659E+03  0.12235834866E+03  0.00000000000E+00 0.  1.
<mgrwt>
<rscale>  2 0.92865923E+02</rscale>
<asrwt>0</asrwt>
<pdfrwt beam="1">  1       21 0.46835177E-02 0.92865923E+02</pdfrwt>
<pdfrwt beam="2">  1       21 0.46607434E-01 0.92865923E+02</pdfrwt>
<totfact> 0.13159940E+06</totfact>
</mgrwt>
</event>
<event>
 5    1  0.1281005E-004  0.1053090E+03  0.7546771E-02  0.1269512E+00
         21   -1    0    0  503  502  0.00000000000E+00  0.00000000000E+00  0.72669456870E+03  0.72669456870E+03  0.00000000000E+00 0. -1.
         21   -1    0    0  501  503 -0.00000000000E+00 -0.00000000000E+00 -0.16453647518E+02  0.16453647518E+02  0.00000000000E+00 0.  1.
         24    1    1    2    0    0  0.27878348675E+02 -0.13178384999E+01  0.28620455213E+03  0.29859537947E+03  0.80419002446E+02 0.  0.
          1    1    1    2  501    0  0.32274845918E+02 -0.40828709186E+02  0.25486834421E+03  0.26012789556E+03  0.00000000000E+00 0. -1.
         -2    1    1    2    0  502 -0.60153194593E+02  0.42146547686E+02  0.16916802484E+03  0.18442494118E+03  0.00000000000E+00 0.  1.
<mgrwt>
<rscale>  2 0.10530896E+03</rscale>
<asrwt>0</asrwt>
<pdfrwt beam="1">  1       21 0.11179914E+00 0.10530896E+03</pdfrwt>
<pdfrwt beam="2">  1       21 0.25313309E-02 0.10530896E+03</pdfrwt>
<totfact> 0.53424494E+05</totfact>
</mgrwt>
</event>
<event>
 5    1  0.1281005E-004  0.1279625E+03  0.7546771E-02  0.1230511E+00
         21   -1    0    0  503  502  0.00000000000E+00  0.00000000000E+00  0.14080336944E+03  0.14080336944E+03  0.00000000000E+00 0. -1.
         21   -1    0    0  501  503 -0.00000000000E+00 -0.00000000000E+00 -0.13437504535E+03  0.13437504535E+03  0.00000000000E+00 0.  1.
         24    1    1    2    0    0  0.65263208800E+01  0.15626006706E+02  0.47627095343E+02  0.94985899559E+02  0.80419002446E+02 0. -1.
          1    1    1    2  501    0  0.49089025141E+02  0.61478958145E+02 -0.31066597980E+02  0.84584444160E+02  0.00000000000E+00 0. -1.
         -2    1    1    2    0  502 -0.55615346021E+02 -0.77104964851E+02 -0.10132173271E+02  0.95608071066E+02  0.00000000000E+00 0.  1.
<mgrwt>
<rscale>  2 0.12796249E+03</rscale>
<asrwt>0</asrwt>
<pdfrwt beam="1">  1       21 0.21662057E-01 0.12796249E+03</pdfrwt>
<pdfrwt beam="2">  1       21 0.20673084E-01 0.12796249E+03</pdfrwt>
<totfact> 0.43531023E+05</totfact>
</mgrwt>
</event>
<event>
 5    1  0.1281005E-004  0.4620240E+03  0.7546771E-02  0.1024196E+00
         21   -1    0    0  501  502  0.00000000000E+00  0.00000000000E+00  0.23998801504E+03  0.23998801504E+03  0.00000000000E+00 0.  1.
         21   -1    0    0  502  503 -0.00000000000E+00 -0.00000000000E+00 -0.92940251134E+03  0.92940251134E+03  0.00000000000E+00 0. -1.
         24    1    1    2    0    0  0.80171744507E+02 -0.18703117218E+02 -0.15863690784E+03  0.19598520275E+03  0.80419002446E+02 0. -1.
          1    1    1    2  501    0 -0.43708955982E+03  0.86753828954E+02 -0.35520013141E+03  0.56986019645E+03  0.00000000000E+00 0. -1.
         -2    1    1    2    0  503  0.35691781531E+03 -0.68050711736E+02 -0.17557745705E+03  0.40354512719E+03  0.00000000000E+00 0.  1.
<mgrwt>
<rscale>  2 0.46202401E+03</rscale>
<asrwt>0</asrwt>
<pdfrwt beam="1">  1       21 0.36921234E-01 0.46202401E+03</pdfrwt>
<pdfrwt beam="2">  1       21 0.14298500E+00 0.46202401E+03</pdfrwt>
<totfact> 0.20465359E+03</totfact>
</mgrwt>
</event>
<event>
 5    1  0.1281005E-004  0.1761989E+03  0.7546771E-02  0.1171533E+00
         21   -1    0    0  503  502  0.00000000000E+00  0.00000000000E+00  0.32868887813E+03  0.32868887813E+03  0.00000000000E+00 0. -1.
         21   -1    0    0  501  503 -0.00000000000E+00 -0.00000000000E+00 -0.12000765808E+03  0.12000765808E+03  0.00000000000E+00 0.  1.
         24    1    1    2    0    0  0.34945772338E+02  0.32054528706E+02  0.65494603077E+02  0.11404147843E+03  0.80419002446E+02 0.  1.
          1    1    1    2  501    0 -0.12203675633E+03  0.56811043736E+02  0.16000381593E+03  0.20909731155E+03  0.00000000000E+00 0. -1.
         -2    1    1    2    0  502  0.87090983997E+02 -0.88865572442E+02 -0.16817198950E+02  0.12555774623E+03  0.00000000000E+00 0.  1.
<mgrwt>
<rscale>  2 0.17619887E+03</rscale>
<asrwt>0</asrwt>
<pdfrwt beam="1">  1       21 0.50567519E-01 0.17619887E+03</pdfrwt>
<pdfrwt beam="2">  1       21 0.18462717E-01 0.17619887E+03</pdfrwt>
<totfact> 0.10032217E+05</totfact>
</mgrwt>
</event>
<event>
 5    1  0.1281005E-004  0.2061172E+03  0.7546771E-02  0.1144678E+00
         21   -1    0    0  503  502  0.00000000000E+00  0.00000000000E+00  0.22928917120E+03  0.22928917120E+03  0.00000000000E+00 0.  1.
         21   -1    0    0  501  503 -0.00000000000E+00 -0.00000000000E+00 -0.23536700766E+03  0.23536700766E+03  0.00000000000E+00 0. -1.
         24    1    1    2    0    0  0.46810578471E+02  0.42923520115E+02  0.63198291590E+02  0.12039476255E+03  0.80419002446E+02 0.  1.
          1    1    1    2  501    0 -0.18321872567E+01 -0.17254626024E+03 -0.10563331818E+03  0.20232144410E+03  0.00000000000E+00 0. -1.
         -2    1    1    2    0  502 -0.44978391214E+02  0.12962274013E+03  0.36357190126E+02  0.14193997220E+03  0.00000000000E+00 0.  1.
<mgrwt>
<rscale>  2 0.20611720E+03</rscale>
<asrwt>0</asrwt>
<pdfrwt beam="1">  1       21 0.35275257E-01 0.20611720E+03</pdfrwt>
<pdfrwt beam="2">  1       21 0.36210309E-01 0.20611720E+03</pdfrwt>
<totfact> 0.56625026E+04</totfact>
</mgrwt>
</event>
<event>
 5    1  0.1281005E-004  0.2055021E+03  0.7546771E-02  0.1145178E+00
         21   -1    0    0  501  502  0.00000000000E+00  0.00000000000E+00  0.43141310778E+02  0.43141310778E+02  0.00000000000E+00 0. -1.
         21   -1    0    0  502  503 -0.00000000000E+00 -0.00000000000E+00 -0.10665593212E+04  0.10665593212E+04  0.00000000000E+00 0.  1.
         24    1    1    2    0    0 -0.46195169671E+02 -0.15582442912E+02 -0.25143539989E+03  0.26844698266E+03  0.80419002446E+02 0. -1.
          1    1    1    2  501    0  0.18099328148E+03 -0.21216456768E+01 -0.30285891552E+03  0.35282657501E+03  0.00000000000E+00 0. -1.
         -2    1    1    2    0  503 -0.13479811181E+03  0.17704088589E+02 -0.46912369504E+03  0.48842707434E+03  0.00000000000E+00 0.  1.
<mgrwt>
<rscale>  2 0.20550206E+03</rscale>
<asrwt>0</asrwt>
<pdfrwt beam="1">  1       21 0.66371253E-02 0.20550206E+03</pdfrwt>
<pdfrwt beam="2">  1       21 0.16408603E+00 0.20550206E+03</pdfrwt>
<totfact> 0.38670776E+04</totfact>
</mgrwt>
</event>
<event>
 5    1  0.1281005E-004  0.1358298E+03  0.7546771E-02  0.1219053E+00
         21   -1    0    0  501  502  0.00000000000E+00  0.00000000000E+00  0.15385508220E+04  0.15385508220E+04  0.00000000000E+00 0.  1.
         21   -1    0    0  502  503 -0.00000000000E+00 -0.00000000000E+00 -0.12498990837E+02  0.12498990837E+02  0.00000000000E+00 0. -1.
         24    1    1    2    0    0 -0.70626342439E+02  0.62908576233E+02  0.58098190955E+03  0.59409827840E+03  0.80419002446E+02 0.  0.
          1    1    1    2  501    0  0.44009697385E+02 -0.95666085993E+02  0.58344508916E+03  0.59287184580E+03  0.00000000000E+00 0. -1.
         -2    1    1    2    0  503  0.26616645054E+02  0.32757509760E+02  0.36162483242E+03  0.36407968862E+03  0.00000000000E+00 0.  1.
<mgrwt>
<rscale>  2 0.13582984E+03</rscale>
<asrwt>0</asrwt>
<pdfrwt beam="1">  1       21 0.23669998E+00 0.13582984E+03</pdfrwt>
<pdfrwt beam="2">  1       21 0.19229229E-02 0.13582984E+03</pdfrwt>
<totfact> 0.10886598E+05</totfact>
</mgrwt>
</event>
<event>
 5    1  0.1281005E-004  0.1585899E+03  0.7546771E-02  0.1190298E+00
         21   -1    0    0  501  502  0.00000000000E+00  0.00000000000E+00  0.98773155385E+02  0.98773155385E+02  0.00000000000E+00 0.  1.
         21   -1    0    0  502  503 -0.00000000000E+00 -0.00000000000E+00 -0.26866273975E+03  0.26866273975E+03  0.00000000000E+00 0. -1.
         24    1    1    2    0    0 -0.12333891589E+03  0.16032629884E+02 -0.12063302052E+03  0.19102113754E+03  0.80419002446E+02 0. -1.
          1    1    1    2  501    0 -0.61997966664E+01 -0.37286626485E+02 -0.15651288312E+02  0.40910790986E+02  0.00000000000E+00 0. -1.
         -2    1    1    2    0  503  0.12953871256E+03  0.21253996600E+02 -0.33605275533E+02  0.13550396661E+03  0.00000000000E+00 0.  1.
<mgrwt>
<rscale>  2 0.15858995E+03</rscale>
<asrwt>0</asrwt>
<pdfrwt beam="1">  1       21 0.15195870E-01 0.15858995E+03</pdfrwt>
<pdfrwt beam="2">  1       21 0.41332729E-01 0.15858995E+03</pdfrwt>
<totfact> 0.21804855E+05</totfact>
</mgrwt>
</event>
<event>
 5    1  0.1281005E-004  0.9071364E+02  0.7546771E-02  0.1301133E+00
         21   -1    0    0  503  502  0.00000000000E+00  0.00000000000E+00  0.85654780357E+02  0.85654780357E+02  0.00000000000E+00 0.  1.
         21   -1    0    0  501  503 -0.00000000000E+00 -0.00000000000E+00 -0.10127309934E+03  0.10127309934E+03  0.00000000000E+00 0.  1.
         24    1    1    2    0    0  0.32590980375E+02 -0.10107728871E+02 -0.19161397103E+02  0.89435525816E+02  0.80419002446E+02 0.  1.
          1    1    1    2  501    0  0.73605136378E+00  0.45470323796E+02 -0.10966954502E+02  0.46779976579E+02  0.00000000000E+00 0. -1.
         -2    1    1    2    0  502 -0.33327031739E+02 -0.35362594925E+02  0.14510032626E+02  0.50712377298E+02  0.00000000000E+00 0.  1.
<mgrwt>
<rscale>  2 0.90713635E+02</rscale>
<asrwt>0</asrwt>
<pdfrwt beam="1">  1       21 0.13177659E-01 0.90713635E+02</pdfrwt>
<pdfrwt beam="2">  1       21 0.15580477E-01 0.90713635E+02</pdfrwt>
<totfact> 0.17878024E+06</totfact>
</mgrwt>
</event>
<event>
 5    1  0.1281005E-004  0.1529156E+03  0.7546771E-02  0.1196935E+00
         21   -1    0    0  503  502  0.00000000000E+00  0.00000000000E+00  0.16549604933E+03  0.16549604933E+03  0.00000000000E+00 0. -1.
         21   -1    0    0  501  503 -0.00000000000E+00 -0.00000000000E+00 -0.16218987439E+03  0.16218987439E+03  0.00000000000E+00 0.  1.
         24    1    1    2    0    0  0.22852150233E+02  0.26012173194E+02 -0.52221517765E+02  0.10194683319E+03  0.80419002446E+02 0.  1.
          1    1    1    2  501    0 -0.88931826090E+02 -0.89833169074E+02  0.24397405486E+02  0.12874044179E+03  0.00000000000E+00 0. -1.
         -2    1    1    2    0  502  0.66079675857E+02  0.63820995880E+02  0.31130287218E+02  0.96998648747E+02  0.00000000000E+00 0.  1.
<mgrwt>
<rscale>  2 0.15291559E+03</rscale>
<asrwt>0</asrwt>
<pdfrwt beam="1">  1       21 0.25460931E-01 0.15291559E+03</pdfrwt>
<pdfrwt beam="2">  1       21 0.24952288E-01 0.15291559E+03</pdfrwt>
<totfact> 0.22473248E+05</totfact>
</mgrwt>
</event>
<event>
 5    1  0.1281005E-004  0.1691341E+03  0.7546771E-02  0.1178754E+00
         21   -1    0    0  503  502  0.00000000000E+00  0.00000000000E+00  0.57468116072E+02  0.57468116072E+02  0.00000000000E+00 0.  1.
         21   -1    0    0  501  503 -0.00000000000E+00 -0.00000000000E+00 -0.50247934362E+03  0.50247934362E+03  0.00000000000E+00 0. -1.
         24    1    1    2    0    0 -0.33269283079E+01  0.32427360611E+02 -0.92087040194E+02  0.12653000077E+03  0.80419002446E+02 0.  0.
          1    1    1    2  501    0  0.10408501776E+03 -0.88111798582E+02 -0.19719253706E+03  0.23975461756E+03  0.00000000000E+00 0. -1.
         -2    1    1    2    0  502 -0.10075808945E+03  0.55684437971E+02 -0.15573165030E+03  0.19366284136E+03  0.00000000000E+00 0.  1.
<mgrwt>
<rscale>  2 0.16913409E+03</rscale>
<asrwt>0</asrwt>
<pdfrwt beam="1">  1       21 0.88412487E-02 0.16913409E+03</pdfrwt>
<pdfrwt beam="2">  1       21 0.77304514E-01 0.16913409E+03</pdfrwt>
<totfact> 0.15095994E+05</totfact>
</mgrwt>
</event>
<event>
 5    1  0.1281005E-004  0.2867524E+03  0.7546771E-02  0.1092057E+00
         21   -1    0    0  501  502  0.00000000000E+00  0.00000000000E+00  0.32150100108E+02  0.32150100108E+02  0.00000000000E+00 0. -1.
         21   -1    0    0  502  503 -0.00000000000E+00 -0.00000000000E+00 -0.29312534769E+04  0.29312534769E+04  0.00000000000E+00 0.  1.
         24    1    1    2    0    0 -0.25501707194E+03 -0.27066751723E+02 -0.18957735833E+04  0.19147300099E+04  0.80419002446E+02 0.  0.
          1    1    1    2  501    0  0.27859885158E+03  0.32657499170E+02 -0.93516840729E+03  0.97633179931E+03  0.00000000000E+00 0. -1.
         -2    1    1    2    0  503 -0.23581779636E+02 -0.55907474471E+01 -0.68161386269E+02  0.72341767783E+02  0.00000000000E+00 0.  1.
<mgrwt>
<rscale>  2 0.28675240E+03</rscale>
<asrwt>0</asrwt>
<pdfrwt beam="1">  1       21 0.49461687E-02 0.28675240E+03</pdfrwt>
<pdfrwt beam="2">  1       21 0.45096213E+00 0.28675240E+03</pdfrwt>
<totfact> 0.99545832E+02</totfact>
</mgrwt>
</event>
<event>
 5    1  0.1281005E-004  0.1206654E+03  0.7546771E-02  0.1242003E+00
         21   -1    0    0  501  502  0.00000000000E+00  0.00000000000E+00  0.30413465524E+02  0.30413465524E+02  0.00000000000E+00 0.  1.
         21   -1    0    0  502  503 -0.00000000000E+00 -0.00000000000E+00 -0.52949416250E+03  0.52949416250E+03  0.00000000000E+00 0.  1.
         24    1    1    2    0    0 -0.64534422385E+02 -0.29889692649E+02 -0.13846775782E+03  0.17521022033E+03  0.80419002446E+02 0.  1.
          1    1    1    2  501    0 -0.26959349442E+02 -0.16278295968E+02 -0.83471513632E+02  0.89214813960E+02  0.00000000000E+00 0. -1.
         -2    1    1    2    0  503  0.91493771826E+02  0.46167988617E+02 -0.27714142553E+03  0.29548259373E+03  0.00000000000E+00 0.  1.
<mgrwt>
<rscale>  2 0.12066540E+03</rscale>
<asrwt>0</asrwt>
<pdfrwt beam="1">  1       21 0.46789954E-02 0.12066540E+03</pdfrwt>
<pdfrwt beam="2">  1       21 0.81460627E-01 0.12066540E+03</pdfrwt>
<totfact> 0.40285696E+05</totfact>
</mgrwt>
</event>
<event>
 5    1  0.1281005E-004  0.1960531E+03  0.7546771E-02  0.1153112E+00
         21   -1    0    0  503  502  0.00000000000E+00  0.00000000000E+00  0.17742805037E+03  0.17742805037E+03  0.00000000000E+00 0.  1.
         21   -1    0    0  501  503 -0.00000000000E+00 -0.00000000000E+00 -0.23011447938E+03  0.23011447938E+03  0.00000000000E+00 0.  1.
         24    1    1    2    0    0  0.51024344903E+02  0.66678016158E+02 -0.62225845704E+01  0.11642756600E+03  0.80419002446E+02 0.  1.
          1    1    1    2  501    0  0.85003506285E+02  0.48270675172E+02 -0.56200338319E+02  0.11275696071E+03  0.00000000000E+00 0. -1.
         -2    1    1    2    0  502 -0.13602785119E+03 -0.11494869133E+03  0.97364938794E+01  0.17835800305E+03  0.00000000000E+00 0.  1.
<mgrwt>
<rscale>  2 0.19605312E+03</rscale>
<asrwt>0</asrwt>
<pdfrwt beam="1">  1       21 0.27296623E-01 0.19605312E+03</pdfrwt>
<pdfrwt beam="2">  1       21 0.35402228E-01 0.19605312E+03</pdfrwt>
<totfact> 0.98313401E+04</totfact>
</mgrwt>
</event>
<event>
 5    1  0.1281005E-004  0.1851223E+03  0.7546771E-02  0.1162936E+00
         21   -1    0    0  501  502  0.00000000000E+00  0.00000000000E+00  0.25445752962E+04  0.25445752962E+04  0.00000000000E+00 0. -1.
         21   -1    0    0  502  503 -0.00000000000E+00 -0.00000000000E+00 -0.13547924068E+02  0.13547924068E+02  0.00000000000E+00 0.  1.
         24    1    1    2    0    0  0.45694214534E+02 -0.75642845004E+02  0.84649812047E+03  0.85488951635E+03  0.80419002446E+02 0.  0.
          1    1    1    2  501    0 -0.96186437778E+02  0.13944033766E+03  0.10657803637E+04  0.10791585714E+04  0.00000000000E+00 0. -1.
         -2    1    1    2    0  503  0.50492223244E+02 -0.63797492658E+02  0.61874888790E+03  0.62407513246E+03  0.00000000000E+00 0.  1.
<mgrwt>
<rscale>  2 0.18512229E+03</rscale>
<asrwt>0</asrwt>
<pdfrwt beam="1">  1       21 0.39147274E+00 0.18512229E+03</pdfrwt>
<pdfrwt beam="2">  1       21 0.20842980E-02 0.18512229E+03</pdfrwt>
<totfact> 0.11432791E+04</totfact>
</mgrwt>
</event>
<event>
 5    1  0.1281005E-004  0.1678013E+03  0.7546771E-02  0.1180160E+00
         21   -1    0    0  501  502  0.00000000000E+00  0.00000000000E+00  0.34487887091E+03  0.34487887091E+03  0.00000000000E+00 0. -1.
         21   -1    0    0  502  503 -0.00000000000E+00 -0.00000000000E+00 -0.82403307277E+02  0.82403307277E+02  0.00000000000E+00 0.  1.
         24    1    1    2    0    0  0.31024483045E+02 -0.79669178807E+02  0.79179135421E+02  0.14158477334E+03  0.80419002446E+02 0.  1.
          1    1    1    2  501    0  0.63229871698E+02 -0.33007188626E+02  0.47904700402E+02  0.85920611594E+02  0.00000000000E+00 0. -1.
         -2    1    1    2    0  503 -0.94254354743E+02  0.11267636743E+03  0.13539172781E+03  0.19977679326E+03  0.00000000000E+00 0.  1.
<mgrwt>
<rscale>  2 0.16780128E+03</rscale>
<asrwt>0</asrwt>
<pdfrwt beam="1">  1       21 0.53058287E-01 0.16780128E+03</pdfrwt>
<pdfrwt beam="2">  1       21 0.12677432E-01 0.16780128E+03</pdfrwt>
<totfact> 0.18033360E+05</totfact>
</mgrwt>
</event>
<event>
 5    1  0.1281005E-004  0.2161439E+03  0.7546771E-02  0.1136791E+00
         21   -1    0    0  503  502  0.00000000000E+00  0.00000000000E+00  0.90915060164E+02  0.90915060164E+02  0.00000000000E+00 0.  1.
         21   -1    0    0  501  503 -0.00000000000E+00 -0.00000000000E+00 -0.53543734760E+03  0.53543734760E+03  0.00000000000E+00 0. -1.
         24    1    1    2    0    0 -0.97629232993E+02 -0.10288510414E+03 -0.22736625556E+03  0.27978463487E+03  0.80419002446E+02 0.  1.
          1    1    1    2  501    0  0.16196862120E+03  0.12125879610E+03 -0.17476653161E+03  0.26735906653E+03  0.00000000000E+00 0. -1.
         -2    1    1    2    0  502 -0.64339388203E+02 -0.18373691962E+02 -0.42389500271E+02  0.79208706364E+02  0.00000000000E+00 0.  1.
<mgrwt>
<rscale>  2 0.21614392E+03</rscale>
<asrwt>0</asrwt>
<pdfrwt beam="1">  1       21 0.13986932E-01 0.21614392E+03</pdfrwt>
<pdfrwt beam="2">  1       21 0.82374978E-01 0.21614392E+03</pdfrwt>
<totfact> 0.56689814E+04</totfact>
</mgrwt>
</event>
<event>
 5    1  0.1281005E-004  0.2179571E+03  0.7546771E-02  0.1135415E+00
         21   -1    0    0  501  502  0.00000000000E+00  0.00000000000E+00  0.34542704379E+03  0.34542704379E+03  0.00000000000E+00 0. -1.
         21   -1    0    0  502  503 -0.00000000000E+00 -0.00000000000E+00 -0.17450364759E+03  0.17450364759E+03  0.00000000000E+00 0. -1.
         24    1    1    2    0    0 -0.43024952876E+02 -0.12988105404E+03 -0.26792397152E+02  0.16095118287E+03  0.80419002446E+02 0. -1.
          1    1    1    2  501    0  0.43274533853E+02  0.20124449886E+03  0.20078067365E+03  0.28754984353E+03  0.00000000000E+00 0. -1.
         -2    1    1    2    0  503 -0.24958097740E+00 -0.71363444821E+02 -0.30648802900E+01  0.71429664976E+02  0.00000000000E+00 0.  1.
<mgrwt>
<rscale>  2 0.21795706E+03</rscale>
<asrwt>0</asrwt>
<pdfrwt beam="1">  1       21 0.53142622E-01 0.21795706E+03</pdfrwt>
<pdfrwt beam="2">  1       21 0.26846715E-01 0.21795706E+03</pdfrwt>
<totfact> 0.43763873E+04</totfact>
</mgrwt>
</event>
<event>
 5    1  0.1281005E-004  0.1455377E+03  0.7546771E-02  0.1206066E+00
         21   -1    0    0  501  502  0.00000000000E+00  0.00000000000E+00  0.98593037759E+03  0.98593037759E+03  0.00000000000E+00 0. -1.
         21   -1    0    0  502  503 -0.00000000000E+00 -0.00000000000E+00 -0.22062153389E+02  0.22062153389E+02  0.00000000000E+00 0. -1.
         24    1    1    2    0    0  0.81872535604E+02  0.43529707557E+02  0.48530782355E+03  0.50058850075E+03  0.80419002446E+02 0. -1.
          1    1    1    2  501    0 -0.11504585989E+03 -0.61663067526E+02  0.35791393318E+03  0.38097279081E+03  0.00000000000E+00 0. -1.
         -2    1    1    2    0  503  0.33173324287E+02  0.18133359970E+02  0.12064646748E+03  0.12643123942E+03  0.00000000000E+00 0.  1.
<mgrwt>
<rscale>  2 0.14553770E+03</rscale>
<asrwt>0</asrwt>
<pdfrwt beam="1">  1       21 0.15168156E+00 0.14553770E+03</pdfrwt>
<pdfrwt beam="2">  1       21 0.33941782E-02 0.14553770E+03</pdfrwt>
<totfact> 0.15275117E+05</totfact>
</mgrwt>
</event>
<event>
 5    1  0.1281005E-004  0.1359809E+03  0.7546771E-02  0.1218842E+00
         21   -1    0    0  501  502  0.00000000000E+00  0.00000000000E+00  0.43277158118E+03  0.43277158118E+03  0.00000000000E+00 0. -1.
         21   -1    0    0  502  503 -0.00000000000E+00 -0.00000000000E+00 -0.56136648817E+02  0.56136648817E+02  0.00000000000E+00 0. -1.
         24    1    1    2    0    0 -0.63427660998E+02 -0.25825290633E+02  0.39405726227E+02  0.11273881776E+03  0.80419002446E+02 0. -1.
          1    1    1    2  501    0  0.11146980358E+03  0.36169224021E+02  0.24825872905E+03  0.27452891729E+03  0.00000000000E+00 0. -1.
         -2    1    1    2    0  503 -0.48042142579E+02 -0.10343933388E+02  0.88970477087E+02  0.10164049495E+03  0.00000000000E+00 0.  1.
<mgrwt>
<rscale>  2 0.13598094E+03</rscale>
<asrwt>0</asrwt>
<pdfrwt beam="1">  1       21 0.66580241E-01 0.13598094E+03</pdfrwt>
<pdfrwt beam="2">  1       21 0.86364078E-02 0.13598094E+03</pdfrwt>
<totfact> 0.22058497E+05</totfact>
</mgrwt>
</event>
<event>
 5    1  0.1281005E-004  0.1520864E+03  0.7546771E-02  0.1197932E+00
         21   -1    0    0  501  502  0.00000000000E+00  0.00000000000E+00  0.13178025544E+04  0.13178025544E+04  0.00000000000E+00 0.  1.
         21   -1    0    0  502  503 -0.00000000000E+00 -0.00000000000E+00 -0.22892713093E+02  0.22892713093E+02  0.00000000000E+00 0.  1.
         24    1    1    2    0    0 -0.94137435599E+02  0.52117411090E+02  0.89443333240E+03  0.90446463910E+03  0.80419002446E+02 0.  1.
          1    1    1    2  501    0 -0.33641982789E+02 -0.72672105228E+01  0.11890389433E+03  0.12378502107E+03  0.00000000000E+00 0. -1.
         -2    1    1    2    0  503  0.12777941839E+03 -0.44850200567E+02  0.28157261456E+03  0.31244560731E+03  0.00000000000E+00 0.  1.
<mgrwt>
<rscale>  2 0.15208637E+03</rscale>
<asrwt>0</asrwt>
<pdfrwt beam="1">  1       21 0.20273880E+00 0.15208637E+03</pdfrwt>
<pdfrwt beam="2">  1       21 0.35219569E-02 0.15208637E+03</pdfrwt>
<totfact> 0.64224046E+04</totfact>
</mgrwt>
</event>
<event>
 5    1  0.1281005E-004  0.2152389E+03  0.7546771E-02  0.1137483E+00
         21   -1    0    0  501  502  0.00000000000E+00  0.00000000000E+00  0.95549776609E+02  0.95549776609E+02  0.00000000000E+00 0.  1.
         21   -1    0    0  502  503 -0.00000000000E+00 -0.00000000000E+00 -0.48825551676E+03  0.48825551676E+03  0.00000000000E+00 0. -1.
         24    1    1    2    0    0  0.88406021411E+02 -0.33958133488E+02 -0.10309576302E+03  0.16144575485E+03  0.80419002446E+02 0. -1.
          1    1    1    2  501    0  0.72960598614E+02 -0.80313615953E+02 -0.85143522941E+02  0.13792369396E+03  0.00000000000E+00 0. -1.
         -2    1    1    2    0  503 -0.16136662003E+03  0.11427174944E+03 -0.20446645419E+03  0.28443584456E+03  0.00000000000E+00 0.  1.
<mgrwt>
<rscale>  2 0.21523886E+03</rscale>
<asrwt>0</asrwt>
<pdfrwt beam="1">  1       21 0.14699965E-01 0.21523886E+03</pdfrwt>
<pdfrwt beam="2">  1       21 0.75116235E-01 0.21523886E+03</pdfrwt>
<totfact> 0.63816293E+04</totfact>
</mgrwt>
</event>
<event>
 5    1  0.1281005E-004  0.1202588E+03  0.7546771E-02  0.1242671E+00
         21   -1    0    0  501  502  0.00000000000E+00  0.00000000000E+00  0.68859014419E+02  0.68859014419E+02  0.00000000000E+00 0. -1.
         21   -1    0    0  502  503 -0.00000000000E+00 -0.00000000000E+00 -0.21901115651E+03  0.21901115651E+03  0.00000000000E+00 0.  1.
         24    1    1    2    0    0 -0.59855801433E+02 -0.53470462160E+02 -0.44819765469E+02  0.12213858776E+03  0.80419002446E+02 0.  0.
          1    1    1    2  501    0  0.85503745016E+02  0.54211277581E+02 -0.92082994357E+02  0.13685404955E+03  0.00000000000E+00 0. -1.
         -2    1    1    2    0  503 -0.25647943583E+02 -0.74081542058E+00 -0.13249382265E+02  0.28877533619E+02  0.00000000000E+00 0.  1.
<mgrwt>
<rscale>  2 0.12025879E+03</rscale>
<asrwt>0</asrwt>
<pdfrwt beam="1">  1       21 0.10593695E-01 0.12025879E+03</pdfrwt>
<pdfrwt beam="2">  1       21 0.33694023E-01 0.12025879E+03</pdfrwt>
<totfact> 0.62553338E+05</totfact>
</mgrwt>
</event>
<event>
 5    1  0.1281005E-004  0.1223775E+03  0.7546771E-02  0.1239226E+00
         21   -1    0    0  503  502  0.00000000000E+00  0.00000000000E+00  0.33200061348E+03  0.33200061348E+03  0.00000000000E+00 0.  1.
         21   -1    0    0  501  503 -0.00000000000E+00 -0.00000000000E+00 -0.45231483170E+02  0.45231483170E+02  0.00000000000E+00 0. -1.
         24    1    1    2    0    0  0.65150345981E+02 -0.28187023892E+02  0.12683046914E+03  0.16610918022E+03  0.80419002446E+02 0.  1.
          1    1    1    2  501    0 -0.96163953209E+02  0.40200430637E+02  0.12727153344E+03  0.16450417547E+03  0.00000000000E+00 0. -1.
         -2    1    1    2    0  502  0.31013607228E+02 -0.12013406745E+02  0.32667127723E+02  0.46618740959E+02  0.00000000000E+00 0.  1.
<mgrwt>
<rscale>  2 0.12237748E+03</rscale>
<asrwt>0</asrwt>
<pdfrwt beam="1">  1       21 0.51077016E-01 0.12237748E+03</pdfrwt>
<pdfrwt beam="2">  1       21 0.69586900E-02 0.12237748E+03</pdfrwt>
<totfact> 0.56149631E+05</totfact>
</mgrwt>
</event>
<event>
 5    1  0.1281005E-004  0.1250625E+03  0.7546771E-02  0.1234972E+00
         21   -1    0    0  503  502  0.00000000000E+00  0.00000000000E+00  0.17240288009E+02  0.17240288009E+02  0.00000000000E+00 0. -1.
         21   -1    0    0  501  503 -0.00000000000E+00 -0.00000000000E+00 -0.97164066456E+03  0.97164066456E+03  0.00000000000E+00 0.  1.
         24    1    1    2    0    0 -0.19123369043E+02 -0.39576882784E+02 -0.43780199608E+03  0.44729166840E+03  0.80419002446E+02 0.  1.
          1    1    1    2  501    0  0.23687198922E+02 -0.57034869020E+02 -0.14487501134E+03  0.15748913800E+03  0.00000000000E+00 0. -1.
         -2    1    1    2    0  502 -0.45638298790E+01  0.96611751804E+02 -0.37172336913E+03  0.38410014617E+03  0.00000000000E+00 0.  1.
<mgrwt>
<rscale>  2 0.12506249E+03</rscale>
<asrwt>0</asrwt>
<pdfrwt beam="1">  1       21 0.26523511E-02 0.12506249E+03</pdfrwt>
<pdfrwt beam="2">  1       21 0.14948323E+00 0.12506249E+03</pdfrwt>
<totfact> 0.23987476E+05</totfact>
</mgrwt>
</event>
<event>
 5    1  0.1281005E-004  0.4984574E+03  0.7546771E-02  0.1014182E+00
         21   -1    0    0  503  502  0.00000000000E+00  0.00000000000E+00  0.34901428375E+03  0.34901428375E+03  0.00000000000E+00 0.  1.
         21   -1    0    0  501  503 -0.00000000000E+00 -0.00000000000E+00 -0.72007435737E+03  0.72007435737E+03  0.00000000000E+00 0. -1.
         24    1    1    2    0    0 -0.81953411747E+01  0.11932320878E+03 -0.20013365198E+02  0.14550925232E+03  0.80419002446E+02 0.  1.
          1    1    1    2  501    0  0.19076844623E+03  0.32251726076E+03 -0.18124329304E+03  0.41624405682E+03  0.00000000000E+00 0. -1.
         -2    1    1    2    0  502 -0.18257310506E+03 -0.44184046953E+03 -0.16980341537E+03  0.50733533198E+03  0.00000000000E+00 0.  1.
<mgrwt>
<rscale>  2 0.49845740E+03</rscale>
<asrwt>0</asrwt>
<pdfrwt beam="1">  1       21 0.53694505E-01 0.49845740E+03</pdfrwt>
<pdfrwt beam="2">  1       21 0.11078067E+00 0.49845740E+03</pdfrwt>
<totfact> 0.17795389E+03</totfact>
</mgrwt>
</event>
<event>
 5    1  0.1281005E-004  0.1822516E+03  0.7546771E-02  0.1165642E+00
         21   -1    0    0  501  502  0.00000000000E+00  0.00000000000E+00  0.32314543014E+02  0.32314543014E+02  0.00000000000E+00 0.  1.
         21   -1    0    0  502  503 -0.00000000000E+00 -0.00000000000E+00 -0.11983470568E+04  0.11983470568E+04  0.00000000000E+00 0. -1.
         24    1    1    2    0    0 -0.34354023325E+01  0.53826102797E+02 -0.13977232604E+03  0.17003696778E+03  0.80419002446E+02 0.  1.
          1    1    1    2  501    0  0.39056546688E+02 -0.15529568224E+03 -0.59804783111E+03  0.61911499017E+03  0.00000000000E+00 0. -1.
         -2    1    1    2    0  503 -0.35621144355E+02  0.10146957945E+03 -0.42821235666E+03  0.44150964188E+03  0.00000000000E+00 0.  1.
<mgrwt>
<rscale>  2 0.18225162E+03</rscale>
<asrwt>0</asrwt>
<pdfrwt beam="1">  1       21 0.49714686E-02 0.18225162E+03</pdfrwt>
<pdfrwt beam="2">  1       21 0.18436107E+00 0.18225162E+03</pdfrwt>
<totfact> 0.46485882E+04</totfact>
</mgrwt>
</event>
<event>
 5    1  0.1281005E-004  0.2029946E+03  0.7546771E-02  0.1147237E+00
         21   -1    0    0  501  502  0.00000000000E+00  0.00000000000E+00  0.37036231134E+03  0.37036231134E+03  0.00000000000E+00 0. -1.
         21   -1    0    0  502  503 -0.00000000000E+00 -0.00000000000E+00 -0.11177013327E+03  0.11177013327E+03  0.00000000000E+00 0.  1.
         24    1    1    2    0    0 -0.96099356012E+02  0.41669122198E+02  0.83910583661E+02  0.15645959215E+03  0.80419002446E+02 0. -1.
          1    1    1    2  501    0  0.32250608542E+02 -0.14714518610E+03  0.10930453454E+03  0.18611633140E+03  0.00000000000E+00 0. -1.
         -2    1    1    2    0  503  0.63848747469E+02  0.10547606390E+03  0.65377059872E+02  0.13955652105E+03  0.00000000000E+00 0.  1.
<mgrwt>
<rscale>  2 0.20299460E+03</rscale>
<asrwt>0</asrwt>
<pdfrwt beam="1">  1       21 0.56978817E-01 0.20299460E+03</pdfrwt>
<pdfrwt beam="2">  1       21 0.17195405E-01 0.20299460E+03</pdfrwt>
<totfact> 0.88013889E+04</totfact>
</mgrwt>
</event>
<event>
 5    1  0.1281005E-004  0.1273713E+03  0.7546771E-02  0.1231409E+00
         21   -1    0    0  501  502  0.00000000000E+00  0.00000000000E+00  0.71315991505E+02  0.71315991505E+02  0.00000000000E+00 0.  1.
         21   -1    0    0  502  503 -0.00000000000E+00 -0.00000000000E+00 -0.25949344104E+03  0.25949344104E+03  0.00000000000E+00 0. -1.
         24    1    1    2    0    0 -0.18343575470E+02 -0.12432280010E+02 -0.11571473843E+03  0.14264699433E+03  0.80419002446E+02 0. -1.
          1    1    1    2  501    0 -0.49787698175E+02 -0.55882585377E+02 -0.16558166477E+02  0.76654100446E+02  0.00000000000E+00 0. -1.
         -2    1    1    2    0  503  0.68131273645E+02  0.68314865387E+02 -0.55904544623E+02  0.11150833776E+03  0.00000000000E+00 0.  1.
<mgrwt>
<rscale>  2 0.12737132E+03</rscale>
<asrwt>0</asrwt>
<pdfrwt beam="1">  1       21 0.10971691E-01 0.12737132E+03</pdfrwt>
<pdfrwt beam="2">  1       21 0.39922068E-01 0.12737132E+03</pdfrwt>
<totfact> 0.42063840E+05</totfact>
</mgrwt>
</event>
<event>
 5    1  0.1281005E-004  0.1293445E+03  0.7546771E-02  0.1228432E+00
         21   -1    0    0  501  502  0.00000000000E+00  0.00000000000E+00  0.34745808104E+02  0.34745808104E+02  0.00000000000E+00 0.  1.
         21   -1    0    0  502  503 -0.00000000000E+00 -0.00000000000E+00 -0.49530069513E+03  0.49530069513E+03  0.00000000000E+00 0. -1.
         24    1    1    2    0    0 -0.66370039401E+01 -0.23278818635E+02 -0.11575558199E+03  0.14301232092E+03  0.80419002446E+02 0.  1.
          1    1    1    2  501    0 -0.78300989134E+02 -0.17886839820E+02 -0.18026635422E+03  0.19734979707E+03  0.00000000000E+00 0. -1.
         -2    1    1    2    0  503  0.84937993074E+02  0.41165658456E+02 -0.16453295081E+03  0.18968438525E+03  0.00000000000E+00 0.  1.
<mgrwt>
<rscale>  2 0.12934453E+03</rscale>
<asrwt>0</asrwt>
<pdfrwt beam="1">  1       21 0.53455088E-02 0.12934453E+03</pdfrwt>
<pdfrwt beam="2">  1       21 0.76200108E-01 0.12934453E+03</pdfrwt>
<totfact> 0.37324370E+05</totfact>
</mgrwt>
</event>
<event>
 5    1  0.1281005E-004  0.2303933E+03  0.7546771E-02  0.1126363E+00
         21   -1    0    0  503  502  0.00000000000E+00  0.00000000000E+00  0.60857128678E+03  0.60857128678E+03  0.00000000000E+00 0.  1.
         21   -1    0    0  501  503 -0.00000000000E+00 -0.00000000000E+00 -0.13409645254E+03  0.13409645254E+03  0.00000000000E+00 0. -1.
         24    1    1    2    0    0 -0.16983016138E+02 -0.19555949897E+03  0.42907674201E+03  0.47865019269E+03  0.80419002446E+02 0.  1.
          1    1    1    2  501    0  0.18319768021E+02  0.22171313140E+03  0.13684667928E+02  0.22288920268E+03  0.00000000000E+00 0. -1.
         -2    1    1    2    0  502 -0.13367518828E+01 -0.26153632429E+02  0.31713424306E+02  0.41128343950E+02  0.00000000000E+00 0.  1.
<mgrwt>
<rscale>  2 0.23039326E+03</rscale>
<asrwt>0</asrwt>
<pdfrwt beam="1">  1       21 0.93626350E-01 0.23039326E+03</pdfrwt>
<pdfrwt beam="2">  1       21 0.20630224E-01 0.23039326E+03</pdfrwt>
<totfact> 0.20421762E+04</totfact>
</mgrwt>
</event>
<event>
 5    1  0.1281005E-004  0.1388907E+03  0.7546771E-02  0.1214829E+00
         21   -1    0    0  501  502  0.00000000000E+00  0.00000000000E+00  0.41314041418E+03  0.41314041418E+03  0.00000000000E+00 0.  1.
         21   -1    0    0  502  503 -0.00000000000E+00 -0.00000000000E+00 -0.46955559403E+02  0.46955559403E+02  0.00000000000E+00 0. -1.
         24    1    1    2    0    0  0.37676758887E+02 -0.20391992808E+01  0.10142187356E+03  0.13482325053E+03  0.80419002446E+02 0. -1.
          1    1    1    2  501    0 -0.44429252514E+01 -0.90508100972E+02  0.12761854601E+03  0.15651820729E+03  0.00000000000E+00 0. -1.
         -2    1    1    2    0  503 -0.33233833636E+02  0.92547300253E+02  0.13714443521E+03  0.16875451577E+03  0.00000000000E+00 0.  1.
<mgrwt>
<rscale>  2 0.13889073E+03</rscale>
<asrwt>0</asrwt>
<pdfrwt beam="1">  1       21 0.63560061E-01 0.13889073E+03</pdfrwt>
<pdfrwt beam="2">  1       21 0.72239325E-02 0.13889073E+03</pdfrwt>
<totfact> 0.33159374E+05</totfact>
</mgrwt>
</event>
<event>
 5    1  0.1281005E-004  0.1285312E+03  0.7546771E-02  0.1229652E+00
         21   -1    0    0  503  502  0.00000000000E+00  0.00000000000E+00  0.65897887417E+03  0.65897887417E+03  0.00000000000E+00 0.  1.
         21   -1    0    0  501  503 -0.00000000000E+00 -0.00000000000E+00 -0.25835168336E+02  0.25835168336E+02  0.00000000000E+00 0. -1.
         24    1    1    2    0    0  0.68045118509E+01  0.17580147513E+02  0.18024166634E+03  0.19826658117E+03  0.80419002446E+02 0.  1.
          1    1    1    2  501    0 -0.72693364110E+02 -0.61549728376E+02  0.29312411869E+03  0.30821168571E+03  0.00000000000E+00 0. -1.
         -2    1    1    2    0  502  0.65888852260E+02  0.43969580863E+02  0.15977792079E+03  0.17833577562E+03  0.00000000000E+00 0.  1.
<mgrwt>
<rscale>  2 0.12853119E+03</rscale>
<asrwt>0</asrwt>
<pdfrwt beam="1">  1       21 0.10138135E+00 0.12853119E+03</pdfrwt>
<pdfrwt beam="2">  1       21 0.39746418E-02 0.12853119E+03</pdfrwt>
<totfact> 0.31984672E+05</totfact>
</mgrwt>
</event>
<event>
 5    1  0.1281005E-004  0.1812673E+03  0.7546771E-02  0.1166582E+00
         21   -1    0    0  503  502  0.00000000000E+00  0.00000000000E+00  0.82879278722E+02  0.82879278722E+02  0.00000000000E+00 0. -1.
         21   -1    0    0  501  503 -0.00000000000E+00 -0.00000000000E+00 -0.48277514242E+03  0.48277514242E+03  0.00000000000E+00 0. -1.
         24    1    1    2    0    0  0.24228259623E+02  0.14607583456E+03 -0.71525678982E+02  0.18305271567E+03  0.80419002446E+02 0. -1.
          1    1    1    2  501    0  0.45609940396E+02 -0.19778531478E+02 -0.11173928173E+03  0.12229932155E+03  0.00000000000E+00 0. -1.
         -2    1    1    2    0  502 -0.69838200019E+02 -0.12629730308E+03 -0.21663090299E+03  0.26030238392E+03  0.00000000000E+00 0.  1.
<mgrwt>
<rscale>  2 0.18126727E+03</rscale>
<asrwt>0</asrwt>
<pdfrwt beam="1">  1       21 0.12750658E-01 0.18126727E+03</pdfrwt>
<pdfrwt beam="2">  1       21 0.74273098E-01 0.18126727E+03</pdfrwt>
<totfact> 0.85919415E+04</totfact>
</mgrwt>
</event>
<event>
 5    1  0.1281005E-004  0.3240069E+03  0.7546771E-02  0.1073820E+00
         21   -1    0    0  503  502  0.00000000000E+00  0.00000000000E+00  0.14327987737E+03  0.14327987737E+03  0.00000000000E+00 0. -1.
         21   -1    0    0  501  503 -0.00000000000E+00 -0.00000000000E+00 -0.75203391779E+03  0.75203391779E+03  0.00000000000E+00 0. -1.
         24    1    1    2    0    0  0.26856535453E+03  0.69620534214E+02 -0.31715587377E+03  0.42898651804E+03  0.80419002446E+02 0. -1.
          1    1    1    2  501    0 -0.28386358598E+03 -0.11874536866E+03 -0.22042964011E+03  0.37850789194E+03  0.00000000000E+00 0. -1.
         -2    1    1    2    0  502  0.15298231446E+02  0.49124834447E+02 -0.71168526537E+02  0.87819385185E+02  0.00000000000E+00 0.  1.
<mgrwt>
<rscale>  2 0.32400694E+03</rscale>
<asrwt>0</asrwt>
<pdfrwt beam="1">  1       21 0.22043058E-01 0.32400694E+03</pdfrwt>
<pdfrwt beam="2">  1       21 0.11569752E+00 0.32400694E+03</pdfrwt>
<totfact> 0.10324876E+04</totfact>
</mgrwt>
</event>
<event>
 5    1  0.1281005E-004  0.2277082E+03  0.7546771E-02  0.1128263E+00
         21   -1    0    0  501  502  0.00000000000E+00  0.00000000000E+00  0.95265080115E+02  0.95265080115E+02  0.00000000000E+00 0. -1.
         21   -1    0    0  502  503 -0.00000000000E+00 -0.00000000000E+00 -0.56485610639E+03  0.56485610639E+03  0.00000000000E+00 0.  1.
         24    1    1    2    0    0  0.10500432960E+01  0.54921450980E+02 -0.56288595514E+02  0.11248595605E+03  0.80419002446E+02 0.  1.
          1    1    1    2  501    0  0.16616371074E+03  0.32541847332E+02 -0.17268336904E+03  0.24184477777E+03  0.00000000000E+00 0. -1.
         -2    1    1    2    0  503 -0.16721375403E+03 -0.87463298311E+02 -0.24061906172E+03  0.30579045268E+03  0.00000000000E+00 0.  1.
<mgrwt>
<rscale>  2 0.22770822E+03</rscale>
<asrwt>0</asrwt>
<pdfrwt beam="1">  1       21 0.14656166E-01 0.22770822E+03</pdfrwt>
<pdfrwt beam="2">  1       21 0.86900942E-01 0.22770822E+03</pdfrwt>
<totfact> 0.45810389E+04</totfact>
</mgrwt>
</event>
<event>
 5    1  0.1281005E-004  0.1418379E+03  0.7546771E-02  0.1210877E+00
         21   -1    0    0  503  502  0.00000000000E+00  0.00000000000E+00  0.40811956153E+03  0.40811956153E+03  0.00000000000E+00 0. -1.
         21   -1    0    0  501  503 -0.00000000000E+00 -0.00000000000E+00 -0.67939755493E+02  0.67939755493E+02  0.00000000000E+00 0.  1.
         24    1    1    2    0    0 -0.21329023264E+02 -0.90969711907E+02  0.30150174947E+02  0.12691203537E+03  0.80419002446E+02 0.  1.
          1    1    1    2  501    0  0.18588128041E+02  0.12494065594E+03  0.25074244975E+03  0.28076228756E+03  0.00000000000E+00 0. -1.
         -2    1    1    2    0  502  0.27408952233E+01 -0.33970944036E+02  0.59287181340E+02  0.68384994089E+02  0.00000000000E+00 0.  1.
<mgrwt>
<rscale>  2 0.14183792E+03</rscale>
<asrwt>0</asrwt>
<pdfrwt beam="1">  1       21 0.62787623E-01 0.14183792E+03</pdfrwt>
<pdfrwt beam="2">  1       21 0.10452270E-01 0.14183792E+03</pdfrwt>
<totfact> 0.17906315E+05</totfact>
</mgrwt>
</event>
<event>
 5    1  0.1281005E-004  0.1189715E+03  0.7546771E-02  0.1244803E+00
         21   -1    0    0  501  502  0.00000000000E+00  0.00000000000E+00  0.59100514083E+03  0.59100514083E+03  0.00000000000E+00 0.  1.
         21   -1    0    0  502  503 -0.00000000000E+00 -0.00000000000E+00 -0.24181599029E+02  0.24181599029E+02  0.00000000000E+00 0. -1.
         24    1    1    2    0    0  0.28274376024E+02  0.14165487329E+02  0.20015183553E+03  0.21800934520E+03  0.80419002446E+02 0.  0.
          1    1    1    2  501    0 -0.63993305300E+02 -0.63809790515E+02  0.19459666829E+03  0.21455697564E+03  0.00000000000E+00 0. -1.
         -2    1    1    2    0  503  0.35718929276E+02  0.49644303186E+02  0.17207503798E+03  0.18262041902E+03  0.00000000000E+00 0.  1.
<mgrwt>
<rscale>  2 0.11897148E+03</rscale>
<asrwt>0</asrwt>
<pdfrwt beam="1">  1       21 0.90923856E-01 0.11897148E+03</pdfrwt>
<pdfrwt beam="2">  1       21 0.37202465E-02 0.11897148E+03</pdfrwt>
<totfact> 0.46005749E+05</totfact>
</mgrwt>
</event>
<event>
 5    1  0.1281005E-004  0.1574953E+03  0.7546771E-02  0.1191554E+00
         21   -1    0    0  501  502  0.00000000000E+00  0.00000000000E+00  0.31812340870E+03  0.31812340870E+03  0.00000000000E+00 0. -1.
         21   -1    0    0  502  503 -0.00000000000E+00 -0.00000000000E+00 -0.86793742052E+02  0.86793742052E+02  0.00000000000E+00 0.  1.
         24    1    1    2    0    0 -0.33894651727E+02 -0.31430444524E+02  0.11126460728E+03  0.14485768549E+03  0.80419002446E+02 0.  0.
          1    1    1    2  501    0  0.21236938257E+02  0.12551599363E+03  0.10267555141E+03  0.16354675497E+03  0.00000000000E+00 0. -1.
         -2    1    1    2    0  503  0.12657713470E+02 -0.94085549107E+02  0.17389507964E+02  0.96512710294E+02  0.00000000000E+00 0.  1.
<mgrwt>
<rscale>  2 0.15749526E+03</rscale>
<asrwt>0</asrwt>
<pdfrwt beam="1">  1       21 0.48942062E-01 0.15749526E+03</pdfrwt>
<pdfrwt beam="2">  1       21 0.13352884E-01 0.15749526E+03</pdfrwt>
<totfact> 0.19500809E+05</totfact>
</mgrwt>
</event>
<event>
 5    1  0.1281005E-004  0.3054643E+03  0.7546771E-02  0.1082541E+00
         21   -1    0    0  501  502  0.00000000000E+00  0.00000000000E+00  0.31784872285E+03  0.31784872285E+03  0.00000000000E+00 0. -1.
         21   -1    0    0  502  503 -0.00000000000E+00 -0.00000000000E+00 -0.29408187046E+03  0.29408187046E+03  0.00000000000E+00 0.  1.
         24    1    1    2    0    0 -0.13214981289E+03 -0.12737182937E+02  0.11953694485E+02  0.15567888630E+03  0.80419002446E+02 0.  0.
          1    1    1    2  501    0 -0.16164557697E+03  0.17776221687E+00  0.13211410612E+02  0.16218466488E+03  0.00000000000E+00 0. -1.
         -2    1    1    2    0  503  0.29379538986E+03  0.12559420720E+02 -0.13982527000E+01  0.29406704212E+03  0.00000000000E+00 0.  1.
<mgrwt>
<rscale>  2 0.30546434E+03</rscale>
<asrwt>0</asrwt>
<pdfrwt beam="1">  1       21 0.48899803E-01 0.30546434E+03</pdfrwt>
<pdfrwt beam="2">  1       21 0.45243365E-01 0.30546434E+03</pdfrwt>
<totfact> 0.17678842E+04</totfact>
</mgrwt>
</event>
<event>
 5    1  0.1281005E-004  0.1215113E+03  0.7546771E-02  0.1240624E+00
         21   -1    0    0  503  502  0.00000000000E+00  0.00000000000E+00  0.35373374988E+03  0.35373374988E+03  0.00000000000E+00 0. -1.
         21   -1    0    0  501  503 -0.00000000000E+00 -0.00000000000E+00 -0.42646688358E+02  0.42646688358E+02  0.00000000000E+00 0. -1.
         24    1    1    2    0    0 -0.10135047620E+03 -0.36117311756E+02  0.18622337748E+03  0.22961433211E+03  0.80419002446E+02 0. -1.
          1    1    1    2  501    0  0.56859308893E+02  0.12085526227E+02  0.51484940040E+02  0.77651400522E+02  0.00000000000E+00 0. -1.
         -2    1    1    2    0  502  0.44491167309E+02  0.24031785529E+02  0.73378743999E+02  0.89114705605E+02  0.00000000000E+00 0.  1.
<mgrwt>
<rscale>  2 0.12151133E+03</rscale>
<asrwt>0</asrwt>
<pdfrwt beam="1">  1       21 0.54420575E-01 0.12151133E+03</pdfrwt>
<pdfrwt beam="2">  1       21 0.65610292E-02 0.12151133E+03</pdfrwt>
<totfact> 0.54420954E+05</totfact>
</mgrwt>
</event>
<event>
 5    1  0.1281005E-004  0.1127506E+03  0.7546771E-02  0.1255559E+00
         21   -1    0    0  503  502  0.00000000000E+00  0.00000000000E+00  0.12741746645E+02  0.12741746645E+02  0.00000000000E+00 0. -1.
         21   -1    0    0  501  503 -0.00000000000E+00 -0.00000000000E+00 -0.10956329917E+04  0.10956329917E+04  0.00000000000E+00 0.  1.
         24    1    1    2    0    0 -0.45143794145E+02  0.66329564140E+01 -0.28958751972E+03  0.30399030543E+03  0.80419002446E+02 0. -1.
          1    1    1    2  501    0  0.88901009570E+02 -0.87791859857E+00 -0.52438757581E+03  0.53187074549E+03  0.00000000000E+00 0. -1.
         -2    1    1    2    0  502 -0.43757215425E+02 -0.57550378154E+01 -0.26891614957E+03  0.27251368748E+03  0.00000000000E+00 0.  1.
<mgrwt>
<rscale>  2 0.11275057E+03</rscale>
<asrwt>0</asrwt>
<pdfrwt beam="1">  1       21 0.19602683E-02 0.11275057E+03</pdfrwt>
<pdfrwt beam="2">  1       21 0.16855896E+00 0.11275057E+03</pdfrwt>
<totfact> 0.28676032E+05</totfact>
</mgrwt>
</event>
<event>
 5    1  0.1281005E-004  0.1224744E+03  0.7546771E-02  0.1239070E+00
         21   -1    0    0  503  502  0.00000000000E+00  0.00000000000E+00  0.16302857670E+03  0.16302857670E+03  0.00000000000E+00 0. -1.
         21   -1    0    0  501  503 -0.00000000000E+00 -0.00000000000E+00 -0.97068957449E+02  0.97068957449E+02  0.00000000000E+00 0.  1.
         24    1    1    2    0    0 -0.32225830197E+02 -0.18185560864E+02  0.60676203098E+01  0.88731340159E+02  0.80419002446E+02 0.  1.
          1    1    1    2  501    0 -0.48049720671E+02 -0.35596459535E+02  0.42057731465E+02  0.73107703862E+02  0.00000000000E+00 0. -1.
         -2    1    1    2    0  502  0.80275550868E+02  0.53782020399E+02  0.17834267473E+02  0.98258490125E+02  0.00000000000E+00 0.  1.
<mgrwt>
<rscale>  2 0.12247439E+03</rscale>
<asrwt>0</asrwt>
<pdfrwt beam="1">  1       21 0.25081319E-01 0.12247439E+03</pdfrwt>
<pdfrwt beam="2">  1       21 0.14933686E-01 0.12247439E+03</pdfrwt>
<totfact> 0.59907655E+05</totfact>
</mgrwt>
</event>
<event>
 5    1  0.1281005E-004  0.2141118E+03  0.7546771E-02  0.1138351E+00
         21   -1    0    0  501  502  0.00000000000E+00  0.00000000000E+00  0.25872308079E+03  0.25872308079E+03  0.00000000000E+00 0. -1.
         21   -1    0    0  502  503 -0.00000000000E+00 -0.00000000000E+00 -0.21333804516E+03  0.21333804516E+03  0.00000000000E+00 0.  1.
         24    1    1    2    0    0 -0.10947987495E+02 -0.34615243537E+02 -0.38172283303E+02  0.96137467630E+02  0.80419002446E+02 0.  0.
          1    1    1    2  501    0 -0.13291186803E+03  0.11450645569E+03  0.11310887610E+03  0.20873646282E+03  0.00000000000E+00 0. -1.
         -2    1    1    2    0  503  0.14385985552E+03 -0.79891212151E+02 -0.29551557176E+02  0.16718719551E+03  0.00000000000E+00 0.  1.
<mgrwt>
<rscale>  2 0.21411181E+03</rscale>
<asrwt>0</asrwt>
<pdfrwt beam="1">  1       21 0.39803551E-01 0.21411181E+03</pdfrwt>
<pdfrwt beam="2">  1       21 0.32821238E-01 0.21411181E+03</pdfrwt>
<totfact> 0.53816923E+04</totfact>
</mgrwt>
</event>
<event>
 5    1  0.1281005E-004  0.1956820E+03  0.7546771E-02  0.1153434E+00
         21   -1    0    0  501  502  0.00000000000E+00  0.00000000000E+00  0.27964701408E+03  0.27964701408E+03  0.00000000000E+00 0. -1.
         21   -1    0    0  502  503 -0.00000000000E+00 -0.00000000000E+00 -0.14133662176E+03  0.14133662176E+03  0.00000000000E+00 0.  1.
         24    1    1    2    0    0 -0.11165846942E+03  0.66374438225E+02  0.90485489441E+02  0.17756131222E+03  0.80419002446E+02 0. -1.
          1    1    1    2  501    0  0.15118126501E+03 -0.10441378539E+03  0.39628706362E+02  0.18795863332E+03  0.00000000000E+00 0. -1.
         -2    1    1    2    0  503 -0.39522795594E+02  0.38039347168E+02  0.81961965177E+01  0.55463690302E+02  0.00000000000E+00 0.  1.
<mgrwt>
<rscale>  2 0.19568196E+03</rscale>
<asrwt>0</asrwt>
<pdfrwt beam="1">  1       21 0.43022618E-01 0.19568196E+03</pdfrwt>
<pdfrwt beam="2">  1       21 0.21744096E-01 0.19568196E+03</pdfrwt>
<totfact> 0.10239936E+05</totfact>
</mgrwt>
</event>
<event>
 5    1  0.1281005E-004  0.1075769E+03  0.7546771E-02  0.1265124E+00
         21   -1    0    0  501  502  0.00000000000E+00  0.00000000000E+00  0.44350494775E+03  0.44350494775E+03  0.00000000000E+00 0.  1.
         21   -1    0    0  502  503 -0.00000000000E+00 -0.00000000000E+00 -0.31364992501E+02  0.31364992501E+02  0.00000000000E+00 0.  1.
         24    1    1    2    0    0 -0.53301265128E+02  0.29147903593E+02  0.26501201869E+03  0.28352991228E+03  0.80419002446E+02 0.  1.
          1    1    1    2  501    0 -0.28001232757E+02 -0.90566528169E-02  0.70585755113E+02  0.75936933983E+02  0.00000000000E+00 0. -1.
         -2    1    1    2    0  503  0.81302497885E+02 -0.29138846940E+02  0.76542181445E+02  0.11540309399E+03  0.00000000000E+00 0.  1.
<mgrwt>
<rscale>  2 0.10757691E+03</rscale>
<asrwt>0</asrwt>
<pdfrwt beam="1">  1       21 0.68231526E-01 0.10757691E+03</pdfrwt>
<pdfrwt beam="2">  1       21 0.48253838E-02 0.10757691E+03</pdfrwt>
<totfact> 0.56569184E+05</totfact>
</mgrwt>
</event>
<event>
 5    1  0.1281005E-004  0.2070654E+03  0.7546771E-02  0.1143911E+00
         21   -1    0    0  501  502  0.00000000000E+00  0.00000000000E+00  0.27824883313E+03  0.27824883313E+03  0.00000000000E+00 0.  1.
         21   -1    0    0  502  503 -0.00000000000E+00 -0.00000000000E+00 -0.15636325333E+03  0.15636325333E+03  0.00000000000E+00 0. -1.
         24    1    1    2    0    0  0.95866080590E+02 -0.72836137709E+02  0.18467813772E+02  0.14595781741E+03  0.80419002446E+02 0.  1.
          1    1    1    2  501    0 -0.16937564959E+03  0.92856187951E+02  0.78423833623E+02  0.20847225234E+03  0.00000000000E+00 0. -1.
         -2    1    1    2    0  503  0.73509569004E+02 -0.20020050243E+02  0.24993932407E+02  0.80182016712E+02  0.00000000000E+00 0.  1.
<mgrwt>
<rscale>  2 0.20706535E+03</rscale>
<asrwt>0</asrwt>
<pdfrwt beam="1">  1       21 0.42807513E-01 0.20706535E+03</pdfrwt>
<pdfrwt beam="2">  1       21 0.24055885E-01 0.20706535E+03</pdfrwt>
<totfact> 0.85032381E+04</totfact>
</mgrwt>
</event>
<event>
 5    1  0.1281005E-004  0.2278915E+03  0.7546771E-02  0.1128133E+00
         21   -1    0    0  503  502  0.00000000000E+00  0.00000000000E+00  0.10161417807E+03  0.10161417807E+03  0.00000000000E+00 0. -1.
         21   -1    0    0  501  503 -0.00000000000E+00 -0.00000000000E+00 -0.51120215769E+03  0.51120215769E+03  0.00000000000E+00 0.  1.
         24    1    1    2    0    0 -0.35547888157E+02  0.63780083321E+01 -0.77469550256E+02  0.11735875985E+03  0.80419002446E+02 0.  1.
          1    1    1    2  501    0 -0.16423811798E+03  0.22472072801E+02 -0.14632916337E+03  0.22111394688E+03  0.00000000000E+00 0. -1.
         -2    1    1    2    0  502  0.19978600613E+03 -0.28850081133E+02 -0.18578926600E+03  0.27434362903E+03  0.00000000000E+00 0.  1.
<mgrwt>
<rscale>  2 0.22789153E+03</rscale>
<asrwt>0</asrwt>
<pdfrwt beam="1">  1       21 0.15632950E-01 0.22789153E+03</pdfrwt>
<pdfrwt beam="2">  1       21 0.78646486E-01 0.22789153E+03</pdfrwt>
<totfact> 0.51137258E+04</totfact>
</mgrwt>
</event>
<event>
 5    1  0.1281005E-004  0.1957176E+03  0.7546771E-02  0.1153403E+00
         21   -1    0    0  501  502  0.00000000000E+00  0.00000000000E+00  0.44892311305E+03  0.44892311305E+03  0.00000000000E+00 0. -1.
         21   -1    0    0  502  503 -0.00000000000E+00 -0.00000000000E+00 -0.92958284763E+02  0.92958284763E+02  0.00000000000E+00 0. -1.
         24    1    1    2    0    0 -0.40819972517E+02  0.35685838709E+02  0.63953143453E+02  0.11617645955E+03  0.80419002446E+02 0. -1.
          1    1    1    2  501    0 -0.95168154186E+01 -0.16002302149E+03  0.22360011705E+03  0.27512715156E+03  0.00000000000E+00 0. -1.
         -2    1    1    2    0  503  0.50336787936E+02  0.12433718278E+03  0.68411567790E+02  0.15057778671E+03  0.00000000000E+00 0.  1.
<mgrwt>
<rscale>  2 0.19571761E+03</rscale>
<asrwt>0</asrwt>
<pdfrwt beam="1">  1       21 0.69065093E-01 0.19571761E+03</pdfrwt>
<pdfrwt beam="2">  1       21 0.14301275E-01 0.19571761E+03</pdfrwt>
<totfact> 0.81545256E+04</totfact>
</mgrwt>
</event>
<event>
 5    1  0.1281005E-004  0.1576326E+03  0.7546771E-02  0.1191396E+00
         21   -1    0    0  501  502  0.00000000000E+00  0.00000000000E+00  0.53371593557E+02  0.53371593557E+02  0.00000000000E+00 0.  1.
         21   -1    0    0  502  503 -0.00000000000E+00 -0.00000000000E+00 -0.46952749921E+03  0.46952749921E+03  0.00000000000E+00 0. -1.
         24    1    1    2    0    0 -0.28694911749E+02  0.85332904616E+02 -0.17688581886E+03  0.21415160853E+03  0.80419002446E+02 0.  1.
          1    1    1    2  501    0  0.60652599197E+02 -0.12776403948E+03 -0.16302796927E+03  0.21582517540E+03  0.00000000000E+00 0. -1.
         -2    1    1    2    0  503 -0.31957687449E+02  0.42431134867E+02 -0.76242117531E+02  0.92922308833E+02  0.00000000000E+00 0.  1.
<mgrwt>
<rscale>  2 0.15763264E+03</rscale>
<asrwt>0</asrwt>
<pdfrwt beam="1">  1       21 0.82110144E-02 0.15763264E+03</pdfrwt>
<pdfrwt beam="2">  1       21 0.72234999E-01 0.15763264E+03</pdfrwt>
<totfact> 0.20038921E+05</totfact>
</mgrwt>
</event>
<event>
 5    1  0.1281005E-004  0.1188381E+03  0.7546771E-02  0.1245026E+00
         21   -1    0    0  501  502  0.00000000000E+00  0.00000000000E+00  0.85599788943E+03  0.85599788943E+03  0.00000000000E+00 0.  1.
         21   -1    0    0  502  503 -0.00000000000E+00 -0.00000000000E+00 -0.16863776889E+02  0.16863776889E+02  0.00000000000E+00 0. -1.
         24    1    1    2    0    0 -0.57982857610E+02  0.27073535027E+02  0.38086415979E+03  0.39448664394E+03  0.80419002446E+02 0.  0.
          1    1    1    2  501    0  0.86211792775E+02 -0.48996074989E+02  0.29436981849E+03  0.31062304907E+03  0.00000000000E+00 0. -1.
         -2    1    1    2    0  503 -0.28228935165E+02  0.21922539962E+02  0.16390013426E+03  0.16775197331E+03  0.00000000000E+00 0.  1.
<mgrwt>
<rscale>  2 0.11883812E+03</rscale>
<asrwt>0</asrwt>
<pdfrwt beam="1">  1       21 0.13169195E+00 0.11883812E+03</pdfrwt>
<pdfrwt beam="2">  1       21 0.25944279E-02 0.11883812E+03</pdfrwt>
<totfact> 0.34361680E+05</totfact>
</mgrwt>
</event>
<event>
 5    1  0.1281005E-004  0.1813836E+03  0.7546771E-02  0.1166471E+00
         21   -1    0    0  503  502  0.00000000000E+00  0.00000000000E+00  0.17235511823E+04  0.17235511823E+04  0.00000000000E+00 0. -1.
         21   -1    0    0  501  503 -0.00000000000E+00 -0.00000000000E+00 -0.20833186590E+02  0.20833186590E+02  0.00000000000E+00 0.  1.
         24    1    1    2    0    0  0.57014081144E+02 -0.10800705523E+02  0.29174169412E+03  0.30813583487E+03  0.80419002446E+02 0.  1.
          1    1    1    2  501    0 -0.26799158162E+02 -0.12327801832E+03  0.54334965215E+03  0.55780328896E+03  0.00000000000E+00 0. -1.
         -2    1    1    2    0  502 -0.30214922982E+02  0.13407872384E+03  0.86762664949E+03  0.87844524511E+03  0.00000000000E+00 0.  1.
<mgrwt>
<rscale>  2 0.18138365E+03</rscale>
<asrwt>0</asrwt>
<pdfrwt beam="1">  1       21 0.26516161E+00 0.18138365E+03</pdfrwt>
<pdfrwt beam="2">  1       21 0.32051070E-02 0.18138365E+03</pdfrwt>
<totfact> 0.31056724E+04</totfact>
</mgrwt>
</event>
<event>
 5    1  0.1281005E-004  0.1307496E+03  0.7546771E-02  0.1226348E+00
         21   -1    0    0  501  502  0.00000000000E+00  0.00000000000E+00  0.10550491338E+03  0.10550491338E+03  0.00000000000E+00 0. -1.
         21   -1    0    0  502  503 -0.00000000000E+00 -0.00000000000E+00 -0.21589057464E+03  0.21589057464E+03  0.00000000000E+00 0.  1.
         24    1    1    2    0    0 -0.11936529610E+02  0.23968383352E+02 -0.24919681007E+02  0.88346876547E+02  0.80419002446E+02 0. -1.
          1    1    1    2  501    0  0.26552275050E+02  0.73516855096E+02  0.27738836958E+02  0.82940908901E+02  0.00000000000E+00 0. -1.
         -2    1    1    2    0  503 -0.14615745441E+02 -0.97485238448E+02 -0.11320481721E+03  0.15010770257E+03  0.00000000000E+00 0.  1.
<mgrwt>
<rscale>  2 0.13074962E+03</rscale>
<asrwt>0</asrwt>
<pdfrwt beam="1">  1       21 0.16231525E-01 0.13074962E+03</pdfrwt>
<pdfrwt beam="2">  1       21 0.33213934E-01 0.13074962E+03</pdfrwt>
<totfact> 0.30032162E+05</totfact>
</mgrwt>
</event>
<event>
 5    1  0.1281005E-004  0.1334042E+03  0.7546771E-02  0.1222490E+00
         21   -1    0    0  503  502  0.00000000000E+00  0.00000000000E+00  0.14866534578E+03  0.14866534578E+03  0.00000000000E+00 0. -1.
         21   -1    0    0  501  503 -0.00000000000E+00 -0.00000000000E+00 -0.14747132878E+03  0.14747132878E+03  0.00000000000E+00 0. -1.
         24    1    1    2    0    0 -0.33150197113E+02 -0.32286565530E+02  0.52260606402E+02  0.10648823793E+03  0.80419002446E+02 0. -1.
          1    1    1    2  501    0  0.13336406612E+02  0.10132581367E+03 -0.57961980567E+02  0.11749200589E+03  0.00000000000E+00 0. -1.
         -2    1    1    2    0  502  0.19813790501E+02 -0.69039248138E+02  0.68953911585E+01  0.72156430737E+02  0.00000000000E+00 0.  1.
<mgrwt>
<rscale>  2 0.13340416E+03</rscale>
<asrwt>0</asrwt>
<pdfrwt beam="1">  1       21 0.22871592E-01 0.13340416E+03</pdfrwt>
<pdfrwt beam="2">  1       21 0.22687897E-01 0.13340416E+03</pdfrwt>
<totfact> 0.33048247E+05</totfact>
</mgrwt>
</event>
<event>
 5    1  0.1281005E-004  0.1795384E+03  0.7546771E-02  0.1168251E+00
         21   -1    0    0  501  502  0.00000000000E+00  0.00000000000E+00  0.83623746838E+02  0.83623746838E+02  0.00000000000E+00 0.  1.
         21   -1    0    0  502  503 -0.00000000000E+00 -0.00000000000E+00 -0.39654896699E+03  0.39654896699E+03  0.00000000000E+00 0.  1.
         24    1    1    2    0    0  0.30837419100E+01 -0.12156162130E+03 -0.99574689702E+02  0.17654764802E+03  0.80419002446E+02 0.  1.
          1    1    1    2  501    0  0.42758704131E+02 -0.31758505771E+02 -0.33663053005E+02  0.63008813712E+02  0.00000000000E+00 0. -1.
         -2    1    1    2    0  503 -0.45842446041E+02  0.15332012707E+03 -0.17968747745E+03  0.24061625210E+03  0.00000000000E+00 0.  1.
<mgrwt>
<rscale>  2 0.17953842E+03</rscale>
<asrwt>0</asrwt>
<pdfrwt beam="1">  1       21 0.12865192E-01 0.17953842E+03</pdfrwt>
<pdfrwt beam="2">  1       21 0.61007534E-01 0.17953842E+03</pdfrwt>
<totfact> 0.13008123E+05</totfact>
</mgrwt>
</event>
<event>
 5    1  0.1281005E-004  0.1475421E+03  0.7546771E-02  0.1203526E+00
         21   -1    0    0  501  502  0.00000000000E+00  0.00000000000E+00  0.60597448711E+02  0.60597448711E+02  0.00000000000E+00 0.  1.
         21   -1    0    0  502  503 -0.00000000000E+00 -0.00000000000E+00 -0.37242950984E+03  0.37242950984E+03  0.00000000000E+00 0. -1.
         24    1    1    2    0    0 -0.31634588016E+02  0.37285713064E+02 -0.13613067235E+03  0.16549848176E+03  0.80419002446E+02 0. -1.
          1    1    1    2  501    0  0.65571961179E+02 -0.10582019194E+03 -0.12007208088E+03  0.17295924295E+03  0.00000000000E+00 0. -1.
         -2    1    1    2    0  503 -0.33937373163E+02  0.68534478872E+02 -0.55629307900E+02  0.94569233839E+02  0.00000000000E+00 0.  1.
<mgrwt>
<rscale>  2 0.14754210E+03</rscale>
<asrwt>0</asrwt>
<pdfrwt beam="1">  1       21 0.93226843E-02 0.14754210E+03</pdfrwt>
<pdfrwt beam="2">  1       21 0.57296849E-01 0.14754210E+03</pdfrwt>
<totfact> 0.26554793E+05</totfact>
</mgrwt>
</event>
<event>
 5    1  0.1281005E-004  0.1127028E+03  0.7546771E-02  0.1255645E+00
         21   -1    0    0  501  502  0.00000000000E+00  0.00000000000E+00  0.17424247772E+02  0.17424247772E+02  0.00000000000E+00 0.  1.
         21   -1    0    0  502  503 -0.00000000000E+00 -0.00000000000E+00 -0.74177355160E+03  0.74177355160E+03  0.00000000000E+00 0. -1.
         24    1    1    2    0    0 -0.31704745022E+02  0.32063607555E+02 -0.34645279927E+03  0.35851084204E+03  0.80419002446E+02 0. -1.
          1    1    1    2  501    0 -0.20133180186E+02 -0.67484501524E+02 -0.19994596017E+03  0.21198558885E+03  0.00000000000E+00 0. -1.
         -2    1    1    2    0  503  0.51837925208E+02  0.35420893968E+02 -0.17795054440E+03  0.18870136849E+03  0.00000000000E+00 0.  1.
<mgrwt>
<rscale>  2 0.11270282E+03</rscale>
<asrwt>0</asrwt>
<pdfrwt beam="1">  1       21 0.26806537E-02 0.11270282E+03</pdfrwt>
<pdfrwt beam="2">  1       21 0.11411900E+00 0.11270282E+03</pdfrwt>
<totfact> 0.46293284E+05</totfact>
</mgrwt>
</event>
<event>
 5    1  0.1281005E-004  0.9168678E+02  0.7546771E-02  0.1298818E+00
         21   -1    0    0  503  502  0.00000000000E+00  0.00000000000E+00  0.27270702041E+03  0.27270702041E+03  0.00000000000E+00 0.  1.
         21   -1    0    0  501  503 -0.00000000000E+00 -0.00000000000E+00 -0.34875881869E+02  0.34875881869E+02  0.00000000000E+00 0.  1.
         24    1    1    2    0    0  0.38003225321E+01 -0.18933029275E+02  0.72593505979E+02  0.11004515034E+03  0.80419002446E+02 0.  0.
          1    1    1    2  501    0  0.36933760748E+02  0.40305178523E+02  0.52578906409E+02  0.75849531956E+02  0.00000000000E+00 0. -1.
         -2    1    1    2    0  502 -0.40734083281E+02 -0.21372149248E+02  0.11265872616E+03  0.12168821998E+03  0.00000000000E+00 0.  1.
<mgrwt>
<rscale>  2 0.91686780E+02</rscale>
<asrwt>0</asrwt>
<pdfrwt beam="1">  1       21 0.41954925E-01 0.91686780E+02</pdfrwt>
<pdfrwt beam="2">  1       21 0.53655205E-02 0.91686780E+02</pdfrwt>
<totfact> 0.12957042E+06</totfact>
</mgrwt>
</event>
<event>
 5    1  0.1281005E-004  0.1299043E+03  0.7546771E-02  0.1227598E+00
         21   -1    0    0  503  502  0.00000000000E+00  0.00000000000E+00  0.19782147191E+02  0.19782147191E+02  0.00000000000E+00 0. -1.
         21   -1    0    0  501  503 -0.00000000000E+00 -0.00000000000E+00 -0.95412548581E+03  0.95412548581E+03  0.00000000000E+00 0.  1.
         24    1    1    2    0    0  0.28727792480E+02 -0.75493236658E+01 -0.18403567069E+03  0.20302369908E+03  0.80419002446E+02 0.  0.
          1    1    1    2  501    0 -0.63092926094E+02  0.75223470032E+02 -0.35340483084E+03  0.36678912501E+03  0.00000000000E+00 0. -1.
         -2    1    1    2    0  502  0.34365133614E+02 -0.67674146366E+02 -0.39690283710E+03  0.40409480891E+03  0.00000000000E+00 0.  1.
<mgrwt>
<rscale>  2 0.12990434E+03</rscale>
<asrwt>0</asrwt>
<pdfrwt beam="1">  1       21 0.30434077E-02 0.12990434E+03</pdfrwt>
<pdfrwt beam="2">  1       21 0.14678852E+00 0.12990434E+03</pdfrwt>
<totfact> 0.20036172E+05</totfact>
</mgrwt>
</event>
<event>
 5    1  0.1281005E-004  0.1428276E+03  0.7546771E-02  0.1209574E+00
         21   -1    0    0  503  502  0.00000000000E+00  0.00000000000E+00  0.10126263336E+04  0.10126263336E+04  0.00000000000E+00 0. -1.
         21   -1    0    0  501  503 -0.00000000000E+00 -0.00000000000E+00 -0.20928886207E+02  0.20928886207E+02  0.00000000000E+00 0.  1.
         24    1    1    2    0    0  0.81659673398E+02 -0.53600935909E+02  0.38698749613E+03  0.40714604346E+03  0.80419002446E+02 0.  0.
          1    1    1    2  501    0 -0.11125842936E+03  0.17792025265E+02  0.35624654498E+03  0.37363965940E+03  0.00000000000E+00 0. -1.
         -2    1    1    2    0  502  0.29598755960E+02  0.35808910643E+02  0.24846340634E+03  0.25276951700E+03  0.00000000000E+00 0.  1.
<mgrwt>
<rscale>  2 0.14282764E+03</rscale>
<asrwt>0</asrwt>
<pdfrwt beam="1">  1       21 0.15578863E+00 0.14282764E+03</pdfrwt>
<pdfrwt beam="2">  1       21 0.32198294E-02 0.14282764E+03</pdfrwt>
<totfact> 0.15556320E+05</totfact>
</mgrwt>
</event>
<event>
 5    1  0.1281005E-004  0.1723643E+03  0.7546771E-02  0.1175404E+00
         21   -1    0    0  503  502  0.00000000000E+00  0.00000000000E+00  0.17912353866E+03  0.17912353866E+03  0.00000000000E+00 0.  1.
         21   -1    0    0  501  503 -0.00000000000E+00 -0.00000000000E+00 -0.16898600301E+03  0.16898600301E+03  0.00000000000E+00 0. -1.
         24    1    1    2    0    0  0.31175192215E+02 -0.47632968454E+02 -0.18843832316E+01  0.98547243228E+02  0.80419002446E+02 0. -1.
          1    1    1    2  501    0  0.10434513003E+03  0.35145052445E+02 -0.14035144283E+02  0.11099579337E+03  0.00000000000E+00 0. -1.
         -2    1    1    2    0  502 -0.13552032224E+03  0.12487916009E+02  0.26057063165E+02  0.13856650507E+03  0.00000000000E+00 0.  1.
<mgrwt>
<rscale>  2 0.17236428E+03</rscale>
<asrwt>0</asrwt>
<pdfrwt beam="1">  1       21 0.27557468E-01 0.17236428E+03</pdfrwt>
<pdfrwt beam="2">  1       21 0.25997847E-01 0.17236428E+03</pdfrwt>
<totfact> 0.17766690E+05</totfact>
</mgrwt>
</event>
<event>
 5    1  0.1281005E-004  0.1662440E+03  0.7546771E-02  0.1181822E+00
         21   -1    0    0  503  502  0.00000000000E+00  0.00000000000E+00  0.11470727975E+03  0.11470727975E+03  0.00000000000E+00 0. -1.
         21   -1    0    0  501  503 -0.00000000000E+00 -0.00000000000E+00 -0.25502202908E+03  0.25502202908E+03  0.00000000000E+00 0. -1.
         24    1    1    2    0    0  0.21925545792E+02 -0.10818870107E+03 -0.97147261103E+02  0.16760170313E+03  0.80419002446E+02 0. -1.
          1    1    1    2  501    0  0.18650171286E+02  0.14192454642E+03 -0.42625797093E+02  0.14935650084E+03  0.00000000000E+00 0. -1.
         -2    1    1    2    0  502 -0.40575717078E+02 -0.33735845358E+02 -0.54169112923E+00  0.52771104856E+02  0.00000000000E+00 0.  1.
<mgrwt>
<rscale>  2 0.16624403E+03</rscale>
<asrwt>0</asrwt>
<pdfrwt beam="1">  1       21 0.17647274E-01 0.16624403E+03</pdfrwt>
<pdfrwt beam="2">  1       21 0.39234158E-01 0.16624403E+03</pdfrwt>
<totfact> 0.18385924E+05</totfact>
</mgrwt>
</event>
<event>
 5    1  0.1281005E-004  0.1854159E+03  0.7546771E-02  0.1162662E+00
         21   -1    0    0  501  502  0.00000000000E+00  0.00000000000E+00  0.59334132195E+03  0.59334132195E+03  0.00000000000E+00 0. -1.
         21   -1    0    0  502  503 -0.00000000000E+00 -0.00000000000E+00 -0.77108457742E+02  0.77108457742E+02  0.00000000000E+00 0.  1.
         24    1    1    2    0    0 -0.93174471720E+02 -0.54771996178E+02  0.78867240165E+02  0.15610480861E+03  0.80419002446E+02 0.  0.
          1    1    1    2  501    0  0.15207938075E+03  0.80229037473E+02  0.40997716958E+03  0.44457408390E+03  0.00000000000E+00 0. -1.
         -2    1    1    2    0  503 -0.58904909030E+02 -0.25457041295E+02  0.27388454461E+02  0.69770887174E+02  0.00000000000E+00 0.  1.
<mgrwt>
<rscale>  2 0.18541588E+03</rscale>
<asrwt>0</asrwt>
<pdfrwt beam="1">  1       21 0.91283277E-01 0.18541588E+03</pdfrwt>
<pdfrwt beam="2">  1       21 0.11862840E-01 0.18541588E+03</pdfrwt>
<totfact> 0.61103719E+04</totfact>
</mgrwt>
</event>
<event>
 5    1  0.1281005E-004  0.1905910E+03  0.7546771E-02  0.1157929E+00
         21   -1    0    0  503  502  0.00000000000E+00  0.00000000000E+00  0.26026437113E+03  0.26026437113E+03  0.00000000000E+00 0. -1.
         21   -1    0    0  501  503 -0.00000000000E+00 -0.00000000000E+00 -0.14421114602E+03  0.14421114602E+03  0.00000000000E+00 0. -1.
         24    1    1    2    0    0 -0.96955649893E+02  0.10865340452E+03  0.26213559489E+02  0.16840524640E+03  0.80419002446E+02 0. -1.
          1    1    1    2  501    0  0.10842180343E+03 -0.14252065937E+03  0.58110448623E+02  0.18826643367E+03  0.00000000000E+00 0. -1.
         -2    1    1    2    0  502 -0.11466153541E+02  0.33867254847E+02  0.31729217006E+02  0.47803837081E+02  0.00000000000E+00 0.  1.
<mgrwt>
<rscale>  2 0.19059099E+03</rscale>
<asrwt>0</asrwt>
<pdfrwt beam="1">  1       21 0.40040672E-01 0.19059099E+03</pdfrwt>
<pdfrwt beam="2">  1       21 0.22186330E-01 0.19059099E+03</pdfrwt>
<totfact> 0.11429175E+05</totfact>
</mgrwt>
</event>
<event>
 5    1  0.1281005E-004  0.2654419E+03  0.7546771E-02  0.1103917E+00
         21   -1    0    0  501  502  0.00000000000E+00  0.00000000000E+00  0.34139816189E+03  0.34139816189E+03  0.00000000000E+00 0.  1.
         21   -1    0    0  502  503 -0.00000000000E+00 -0.00000000000E+00 -0.21173729387E+03  0.21173729387E+03  0.00000000000E+00 0. -1.
         24    1    1    2    0    0 -0.13907808114E+03 -0.52766927052E+02  0.28806009022E+02  0.17153443781E+03  0.80419002446E+02 0.  0.
          1    1    1    2  501    0  0.24836572223E+03  0.43019594836E+02  0.10188065908E+03  0.27187476200E+03  0.00000000000E+00 0. -1.
         -2    1    1    2    0  503 -0.10928764109E+03  0.97473322156E+01 -0.10258000838E+01  0.10972625595E+03  0.00000000000E+00 0.  1.
<mgrwt>
<rscale>  2 0.26544190E+03</rscale>
<asrwt>0</asrwt>
<pdfrwt beam="1">  1       21 0.52522794E-01 0.26544190E+03</pdfrwt>
<pdfrwt beam="2">  1       21 0.32574968E-01 0.26544190E+03</pdfrwt>
<totfact> 0.30094231E+04</totfact>
</mgrwt>
</event>
<event>
 5    1  0.1281005E-004  0.1893752E+03  0.7546771E-02  0.1159026E+00
         21   -1    0    0  503  502  0.00000000000E+00  0.00000000000E+00  0.41195871170E+02  0.41195871170E+02  0.00000000000E+00 0.  1.
         21   -1    0    0  501  503 -0.00000000000E+00 -0.00000000000E+00 -0.90350791972E+03  0.90350791972E+03  0.00000000000E+00 0. -1.
         24    1    1    2    0    0 -0.23124408235E+02 -0.10549511841E+02 -0.17803147410E+03  0.19699860959E+03  0.80419002446E+02 0.  0.
          1    1    1    2  501    0  0.11228429560E+03  0.11251786624E+03 -0.44784160598E+03  0.47521588495E+03  0.00000000000E+00 0. -1.
         -2    1    1    2    0  502 -0.89159887366E+02 -0.10196835440E+03 -0.23643896848E+03  0.27248929635E+03  0.00000000000E+00 0.  1.
<mgrwt>
<rscale>  2 0.18937525E+03</rscale>
<asrwt>0</asrwt>
<pdfrwt beam="1">  1       21 0.63378267E-02 0.18937525E+03</pdfrwt>
<pdfrwt beam="2">  1       21 0.13900121E+00 0.18937525E+03</pdfrwt>
<totfact> 0.65539636E+04</totfact>
</mgrwt>
</event>
<event>
 5    1  0.1281005E-004  0.1486306E+03  0.7546771E-02  0.1202166E+00
         21   -1    0    0  503  502  0.00000000000E+00  0.00000000000E+00  0.17064351671E+03  0.17064351671E+03  0.00000000000E+00 0. -1.
         21   -1    0    0  501  503 -0.00000000000E+00 -0.00000000000E+00 -0.14207519999E+03  0.14207519999E+03  0.00000000000E+00 0.  1.
         24    1    1    2    0    0 -0.25246156186E+02  0.36031041359E+02  0.49602208170E+02  0.10422667295E+03  0.80419002446E+02 0.  0.
          1    1    1    2  501    0  0.19763704501E+02 -0.11991429311E+03 -0.26004301094E+02  0.12428300521E+03  0.00000000000E+00 0. -1.
         -2    1    1    2    0  502  0.54824516845E+01  0.83883251756E+02  0.49704096449E+01  0.84209038551E+02  0.00000000000E+00 0.  1.
<mgrwt>
<rscale>  2 0.14863059E+03</rscale>
<asrwt>0</asrwt>
<pdfrwt beam="1">  1       21 0.26252849E-01 0.14863059E+03</pdfrwt>
<pdfrwt beam="2">  1       21 0.21857723E-01 0.14863059E+03</pdfrwt>
<totfact> 0.27231917E+05</totfact>
</mgrwt>
</event>
<event>
 5    1  0.1281005E-004  0.1817039E+03  0.7546771E-02  0.1166164E+00
         21   -1    0    0  503  502  0.00000000000E+00  0.00000000000E+00  0.20733053648E+03  0.20733053648E+03  0.00000000000E+00 0. -1.
         21   -1    0    0  501  503 -0.00000000000E+00 -0.00000000000E+00 -0.16354487119E+03  0.16354487119E+03  0.00000000000E+00 0.  1.
         24    1    1    2    0    0  0.15084373987E+02  0.63437756987E+02  0.27870219790E+02  0.10721871318E+03  0.80419002446E+02 0.  0.
          1    1    1    2  501    0 -0.73237921631E+02 -0.14338961168E+03  0.30039327925E+02  0.16378869047E+03  0.00000000000E+00 0. -1.
         -2    1    1    2    0  502  0.58153547643E+02  0.79951854696E+02 -0.14123882418E+02  0.99868004022E+02  0.00000000000E+00 0.  1.
<mgrwt>
<rscale>  2 0.18170390E+03</rscale>
<asrwt>0</asrwt>
<pdfrwt beam="1">  1       21 0.31897006E-01 0.18170390E+03</pdfrwt>
<pdfrwt beam="2">  1       21 0.25160750E-01 0.18170390E+03</pdfrwt>
<totfact> 0.14193190E+05</totfact>
</mgrwt>
</event>
<event>
 5    1  0.1281005E-004  0.2577290E+03  0.7546771E-02  0.1108515E+00
         21   -1    0    0  501  502  0.00000000000E+00  0.00000000000E+00  0.44381110508E+03  0.44381110508E+03  0.00000000000E+00 0. -1.
         21   -1    0    0  502  503 -0.00000000000E+00 -0.00000000000E+00 -0.15084285700E+03  0.15084285700E+03  0.00000000000E+00 0. -1.
         24    1    1    2    0    0 -0.21531668542E+03  0.58687539770E+01  0.15684083603E+03  0.27831992579E+03  0.80419002446E+02 0. -1.
          1    1    1    2  501    0  0.23170314316E+03  0.41522489344E+02  0.11309358694E+03  0.26115249009E+03  0.00000000000E+00 0. -1.
         -2    1    1    2    0  503 -0.16386457744E+02 -0.47391243321E+02  0.23033825113E+02  0.55181546193E+02  0.00000000000E+00 0.  1.
<mgrwt>
<rscale>  2 0.25772897E+03</rscale>
<asrwt>0</asrwt>
<pdfrwt beam="1">  1       21 0.68278631E-01 0.25772897E+03</pdfrwt>
<pdfrwt beam="2">  1       21 0.23206594E-01 0.25772897E+03</pdfrwt>
<totfact> 0.33090835E+04</totfact>
</mgrwt>
</event>
<event>
 5    1  0.1281005E-004  0.2546295E+03  0.7546771E-02  0.1110414E+00
         21   -1    0    0  501  502  0.00000000000E+00  0.00000000000E+00  0.43088727693E+03  0.43088727693E+03  0.00000000000E+00 0. -1.
         21   -1    0    0  502  503 -0.00000000000E+00 -0.00000000000E+00 -0.16087805999E+03  0.16087805999E+03  0.00000000000E+00 0.  1.
         24    1    1    2    0    0  0.14498866646E+02 -0.60619022031E+02 -0.20210943360E+01  0.10176533665E+03  0.80419002446E+02 0.  1.
          1    1    1    2  501    0  0.47607181285E+02  0.22594568056E+03  0.15076294489E+03  0.27576685774E+03  0.00000000000E+00 0. -1.
         -2    1    1    2    0  503 -0.62106047931E+02 -0.16532665853E+03  0.12126736639E+03  0.21423314254E+03  0.00000000000E+00 0.  1.
<mgrwt>
<rscale>  2 0.25462952E+03</rscale>
<asrwt>0</asrwt>
<pdfrwt beam="1">  1       21 0.66290350E-01 0.25462952E+03</pdfrwt>
<pdfrwt beam="2">  1       21 0.24750471E-01 0.25462952E+03</pdfrwt>
<totfact> 0.31265213E+04</totfact>
</mgrwt>
</event>
<event>
 5    1  0.1281005E-004  0.1786711E+03  0.7546771E-02  0.1169095E+00
         21   -1    0    0  501  502  0.00000000000E+00  0.00000000000E+00  0.12299021275E+03  0.12299021275E+03  0.00000000000E+00 0. -1.
         21   -1    0    0  502  503 -0.00000000000E+00 -0.00000000000E+00 -0.26238419670E+03  0.26238419670E+03  0.00000000000E+00 0.  1.
         24    1    1    2    0    0  0.85401269321E+02 -0.13256329755E+02 -0.27812822448E+02  0.12128427815E+03  0.80419002446E+02 0.  0.
          1    1    1    2  501    0  0.76748849855E+02  0.26912811831E+01 -0.38805500759E+02  0.86043569415E+02  0.00000000000E+00 0. -1.
         -2    1    1    2    0  503 -0.16215011918E+03  0.10565048572E+02 -0.72775660744E+02  0.17804656188E+03  0.00000000000E+00 0.  1.
<mgrwt>
<rscale>  2 0.17867108E+03</rscale>
<asrwt>0</asrwt>
<pdfrwt beam="1">  1       21 0.18921571E-01 0.17867108E+03</pdfrwt>
<pdfrwt beam="2">  1       21 0.40366800E-01 0.17867108E+03</pdfrwt>
<totfact> 0.15202994E+05</totfact>
</mgrwt>
</event>
<event>
 5    1  0.1281005E-004  0.1922407E+03  0.7546771E-02  0.1156456E+00
         21   -1    0    0  501  502  0.00000000000E+00  0.00000000000E+00  0.18417046267E+03  0.18417046267E+03  0.00000000000E+00 0. -1.
         21   -1    0    0  502  503 -0.00000000000E+00 -0.00000000000E+00 -0.20125032363E+03  0.20125032363E+03  0.00000000000E+00 0.  1.
         24    1    1    2    0    0 -0.80603530454E+02 -0.10357817816E+03 -0.71061998545E+00  0.15392559581E+03  0.80419002446E+02 0. -1.
          1    1    1    2  501    0 -0.40876915121E+02 -0.29470136226E+02  0.17396990708E+01  0.50422590888E+02  0.00000000000E+00 0. -1.
         -2    1    1    2    0  503  0.12148044557E+03  0.13304831438E+03 -0.18108940043E+02  0.18107259960E+03  0.00000000000E+00 0.  1.
<mgrwt>
<rscale>  2 0.19224066E+03</rscale>
<asrwt>0</asrwt>
<pdfrwt beam="1">  1       21 0.28333917E-01 0.19224066E+03</pdfrwt>
<pdfrwt beam="2">  1       21 0.30961588E-01 0.19224066E+03</pdfrwt>
<totfact> 0.11932913E+05</totfact>
</mgrwt>
</event>
<event>
 5    1  0.1281005E-004  0.1747696E+03  0.7546771E-02  0.1172963E+00
         21   -1    0    0  503  502  0.00000000000E+00  0.00000000000E+00  0.41232659122E+03  0.41232659122E+03  0.00000000000E+00 0. -1.
         21   -1    0    0  501  503 -0.00000000000E+00 -0.00000000000E+00 -0.85901759443E+02  0.85901759443E+02  0.00000000000E+00 0.  1.
         24    1    1    2    0    0 -0.96030051907E+02 -0.72417093372E+02  0.22393242761E+03  0.26660636596E+03  0.80419002446E+02 0. -1.
          1    1    1    2  501    0 -0.43429171550E+02 -0.75738441490E+01  0.70212954686E+01  0.44640280541E+02  0.00000000000E+00 0. -1.
         -2    1    1    2    0  502  0.13945922346E+03  0.79990937521E+02  0.95471108691E+02  0.18698170415E+03  0.00000000000E+00 0.  1.
<mgrwt>
<rscale>  2 0.17476958E+03</rscale>
<asrwt>0</asrwt>
<pdfrwt beam="1">  1       21 0.63434859E-01 0.17476958E+03</pdfrwt>
<pdfrwt beam="2">  1       21 0.13215655E-01 0.17476958E+03</pdfrwt>
<totfact> 0.11415127E+05</totfact>
</mgrwt>
</event>
<event>
 5    1  0.1281005E-004  0.2228695E+03  0.7546771E-02  0.1131762E+00
         21   -1    0    0  503  502  0.00000000000E+00  0.00000000000E+00  0.72743471202E+03  0.72743471202E+03  0.00000000000E+00 0. -1.
         21   -1    0    0  501  503 -0.00000000000E+00 -0.00000000000E+00 -0.74214574190E+02  0.74214574190E+02  0.00000000000E+00 0.  1.
         24    1    1    2    0    0 -0.70536114786E+02  0.10915836264E+03  0.28646023170E+03  0.32468072306E+03  0.80419002446E+02 0.  1.
          1    1    1    2  501    0  0.17113786763E+03 -0.65636468509E+02  0.16157879271E+03  0.24434406477E+03  0.00000000000E+00 0. -1.
         -2    1    1    2    0  502 -0.10060175284E+03 -0.43521894135E+02  0.20518111342E+03  0.23262449839E+03  0.00000000000E+00 0.  1.
<mgrwt>
<rscale>  2 0.22286946E+03</rscale>
<asrwt>0</asrwt>
<pdfrwt beam="1">  1       21 0.11191303E+00 0.22286946E+03</pdfrwt>
<pdfrwt beam="2">  1       21 0.11417627E-01 0.22286946E+03</pdfrwt>
<totfact> 0.39531722E+04</totfact>
</mgrwt>
</event>
<event>
 5    1  0.1281005E-004  0.1516578E+03  0.7546771E-02  0.1198451E+00
         21   -1    0    0  503  502  0.00000000000E+00  0.00000000000E+00  0.91922399617E+03  0.91922399617E+03  0.00000000000E+00 0. -1.
         21   -1    0    0  501  503 -0.00000000000E+00 -0.00000000000E+00 -0.26683115069E+02  0.26683115069E+02  0.00000000000E+00 0.  1.
         24    1    1    2    0    0  0.56186696794E+02 -0.42515145040E+02  0.30357924002E+03  0.32185719408E+03  0.80419002446E+02 0. -1.
          1    1    1    2  501    0  0.54436919720E+02 -0.31879019732E+02  0.10921389925E+03  0.12612424794E+03  0.00000000000E+00 0. -1.
         -2    1    1    2    0  502 -0.11062361651E+03  0.74394164772E+02  0.47974774183E+03  0.49792566922E+03  0.00000000000E+00 0.  1.
<mgrwt>
<rscale>  2 0.15165777E+03</rscale>
<asrwt>0</asrwt>
<pdfrwt beam="1">  1       21 0.14141905E+00 0.15165777E+03</pdfrwt>
<pdfrwt beam="2">  1       21 0.41050953E-02 0.15165777E+03</pdfrwt>
<totfact> 0.13316655E+05</totfact>
</mgrwt>
</event>
<event>
 5    1  0.1281005E-004  0.1276389E+03  0.7546771E-02  0.1231002E+00
         21   -1    0    0  503  502  0.00000000000E+00  0.00000000000E+00  0.27223145727E+03  0.27223145727E+03  0.00000000000E+00 0.  1.
         21   -1    0    0  501  503 -0.00000000000E+00 -0.00000000000E+00 -0.76069039302E+02  0.76069039302E+02  0.00000000000E+00 0. -1.
         24    1    1    2    0    0 -0.20718296362E+02 -0.49922279644E+02  0.15796825796E+03  0.18531774952E+03  0.80419002446E+02 0.  1.
          1    1    1    2  501    0  0.84028086324E+02  0.43851580896E+02  0.20622698880E+02  0.96999877049E+02  0.00000000000E+00 0. -1.
         -2    1    1    2    0  502 -0.63309789962E+02  0.60706987479E+01  0.17571461132E+02  0.65982870009E+02  0.00000000000E+00 0.  1.
<mgrwt>
<rscale>  2 0.12763888E+03</rscale>
<asrwt>0</asrwt>
<pdfrwt beam="1">  1       21 0.41881762E-01 0.12763888E+03</pdfrwt>
<pdfrwt beam="2">  1       21 0.11702929E-01 0.12763888E+03</pdfrwt>
<totfact> 0.34099458E+05</totfact>
</mgrwt>
</event>
<event>
 5    1  0.1281005E-004  0.2440688E+03  0.7546771E-02  0.1117112E+00
         21   -1    0    0  501  502  0.00000000000E+00  0.00000000000E+00  0.40113770408E+03  0.40113770408E+03  0.00000000000E+00 0. -1.
         21   -1    0    0  502  503 -0.00000000000E+00 -0.00000000000E+00 -0.15059001696E+03  0.15059001696E+03  0.00000000000E+00 0. -1.
         24    1    1    2    0    0 -0.84845976346E+02 -0.16460684380E+03  0.11730178724E+03  0.23349770443E+03  0.80419002446E+02 0. -1.
          1    1    1    2  501    0  0.93864102348E+02  0.21523820746E+03  0.91579200157E+02  0.25204107912E+03  0.00000000000E+00 0. -1.
         -2    1    1    2    0  503 -0.90181260018E+01 -0.50631363660E+02  0.41666699720E+02  0.66188937507E+02  0.00000000000E+00 0.  1.
<mgrwt>
<rscale>  2 0.24406882E+03</rscale>
<asrwt>0</asrwt>
<pdfrwt beam="1">  1       21 0.61713492E-01 0.24406882E+03</pdfrwt>
<pdfrwt beam="2">  1       21 0.23167695E-01 0.24406882E+03</pdfrwt>
<totfact> 0.41667407E+04</totfact>
</mgrwt>
</event>
<event>
 5    1  0.1281005E-004  0.1606833E+03  0.7546771E-02  0.1187927E+00
         21   -1    0    0  503  502  0.00000000000E+00  0.00000000000E+00  0.11276441243E+03  0.11276441243E+03  0.00000000000E+00 0. -1.
         21   -1    0    0  501  503 -0.00000000000E+00 -0.00000000000E+00 -0.25755763150E+03  0.25755763150E+03  0.00000000000E+00 0.  1.
         24    1    1    2    0    0  0.65830947085E+02 -0.95522017434E+01 -0.10806566453E+03  0.15023435678E+03  0.80419002446E+02 0. -1.
          1    1    1    2  501    0  0.46478319417E+02 -0.66667857196E+02 -0.13517367451E+02  0.82386628659E+02  0.00000000000E+00 0. -1.
         -2    1    1    2    0  502 -0.11230926650E+03  0.76220058940E+02 -0.23210187089E+02  0.13770105850E+03  0.00000000000E+00 0.  1.
<mgrwt>
<rscale>  2 0.16068330E+03</rscale>
<asrwt>0</asrwt>
<pdfrwt beam="1">  1       21 0.17348371E-01 0.16068330E+03</pdfrwt>
<pdfrwt beam="2">  1       21 0.39624251E-01 0.16068330E+03</pdfrwt>
<totfact> 0.18632945E+05</totfact>
</mgrwt>
</event>
<event>
 5    1  0.1281005E-004  0.1690013E+03  0.7546771E-02  0.1178893E+00
         21   -1    0    0  503  502  0.00000000000E+00  0.00000000000E+00  0.44737730288E+02  0.44737730288E+02  0.00000000000E+00 0.  1.
         21   -1    0    0  501  503 -0.00000000000E+00 -0.00000000000E+00 -0.69241465758E+03  0.69241465758E+03  0.00000000000E+00 0. -1.
         24    1    1    2    0    0  0.37007298105E+02  0.25234246631E+02 -0.26355035266E+03  0.27916359300E+03  0.80419002446E+02 0. -1.
          1    1    1    2  501    0  0.71337897014E+02  0.71284350025E+02 -0.12110415276E+03  0.15759685887E+03  0.00000000000E+00 0. -1.
         -2    1    1    2    0  502 -0.10834519512E+03 -0.96518596656E+02 -0.26302242187E+03  0.30039193600E+03  0.00000000000E+00 0.  1.
<mgrwt>
<rscale>  2 0.16900133E+03</rscale>
<asrwt>0</asrwt>
<pdfrwt beam="1">  1       21 0.68827275E-02 0.16900133E+03</pdfrwt>
<pdfrwt beam="2">  1       21 0.10652534E+00 0.16900133E+03</pdfrwt>
<totfact> 0.11099182E+05</totfact>
</mgrwt>
</event>
<event>
 5    1  0.1281005E-004  0.1565518E+03  0.7546771E-02  0.1192646E+00
         21   -1    0    0  503  502  0.00000000000E+00  0.00000000000E+00  0.12444765430E+04  0.12444765430E+04  0.00000000000E+00 0.  1.
         21   -1    0    0  501  503 -0.00000000000E+00 -0.00000000000E+00 -0.23142080661E+02  0.23142080661E+02  0.00000000000E+00 0. -1.
         24    1    1    2    0    0  0.84965469790E+02  0.50497680931E+02  0.27537782697E+03  0.30342925102E+03  0.80419002446E+02 0.  0.
          1    1    1    2  501    0 -0.92101170400E+02  0.36002318802E+02  0.55167063160E+03  0.56046344958E+03  0.00000000000E+00 0. -1.
         -2    1    1    2    0  502  0.71357006094E+01 -0.86499999734E+02  0.39428600374E+03  0.40372592303E+03  0.00000000000E+00 0.  1.
<mgrwt>
<rscale>  2 0.15655180E+03</rscale>
<asrwt>0</asrwt>
<pdfrwt beam="1">  1       21 0.19145788E+00 0.15655180E+03</pdfrwt>
<pdfrwt beam="2">  1       21 0.35603211E-02 0.15655180E+03</pdfrwt>
<totfact> 0.74271547E+04</totfact>
</mgrwt>
</event>
<event>
 5    1  0.1281005E-004  0.1237645E+03  0.7546771E-02  0.1237013E+00
         21   -1    0    0  503  502  0.00000000000E+00  0.00000000000E+00  0.64130160565E+02  0.64130160565E+02  0.00000000000E+00 0.  1.
         21   -1    0    0  501  503 -0.00000000000E+00 -0.00000000000E+00 -0.25911639651E+03  0.25911639651E+03  0.00000000000E+00 0. -1.
         24    1    1    2    0    0 -0.18585543982E+02 -0.63320512566E+02 -0.12718315837E+03  0.16430971208E+03  0.80419002446E+02 0.  0.
          1    1    1    2  501    0 -0.11669526892E+00  0.10122877251E+03 -0.43517190414E+02  0.11018631432E+03  0.00000000000E+00 0. -1.
         -2    1    1    2    0  502  0.18702239251E+02 -0.37908259949E+02 -0.24285887157E+02  0.48750530667E+02  0.00000000000E+00 0.  1.
<mgrwt>
<rscale>  2 0.12376448E+03</rscale>
<asrwt>0</asrwt>
<pdfrwt beam="1">  1       21 0.98661785E-02 0.12376448E+03</pdfrwt>
<pdfrwt beam="2">  1       21 0.39864061E-01 0.12376448E+03</pdfrwt>
<totfact> 0.50834396E+05</totfact>
</mgrwt>
</event>
<event>
 5    1  0.1281005E-004  0.1979277E+03  0.7546771E-02  0.1151499E+00
         21   -1    0    0  503  502  0.00000000000E+00  0.00000000000E+00  0.10150237507E+03  0.10150237507E+03  0.00000000000E+00 0. -1.
         21   -1    0    0  501  503 -0.00000000000E+00 -0.00000000000E+00 -0.39433876177E+03  0.39433876177E+03  0.00000000000E+00 0.  1.
         24    1    1    2    0    0 -0.75141106145E+02 -0.10052039940E+03 -0.90926559769E+02  0.17460066367E+03  0.80419002446E+02 0. -1.
          1    1    1    2  501    0  0.28128306387E+02 -0.67075295775E+02 -0.83407650106E+02  0.11066676565E+03  0.00000000000E+00 0. -1.
         -2    1    1    2    0  502  0.47012799758E+02  0.16759569518E+03 -0.11850217682E+03  0.21057370751E+03  0.00000000000E+00 0.  1.
<mgrwt>
<rscale>  2 0.19792767E+03</rscale>
<asrwt>0</asrwt>
<pdfrwt beam="1">  1       21 0.15615750E-01 0.19792767E+03</pdfrwt>
<pdfrwt beam="2">  1       21 0.60667500E-01 0.19792767E+03</pdfrwt>
<totfact> 0.92035472E+04</totfact>
</mgrwt>
</event>
<event>
 5    1  0.1281005E-004  0.1511946E+03  0.7546771E-02  0.1199013E+00
         21   -1    0    0  501  502  0.00000000000E+00  0.00000000000E+00  0.20585676299E+03  0.20585676299E+03  0.00000000000E+00 0. -1.
         21   -1    0    0  502  503 -0.00000000000E+00 -0.00000000000E+00 -0.11131962802E+03  0.11131962802E+03  0.00000000000E+00 0.  1.
         24    1    1    2    0    0 -0.46491165645E+02 -0.74193805064E+02  0.40232678392E+02  0.12550710561E+03  0.80419002446E+02 0.  1.
          1    1    1    2  501    0  0.82490923477E+02  0.10679057605E+03  0.34977661450E+02  0.13940020226E+03  0.00000000000E+00 0. -1.
         -2    1    1    2    0  503 -0.35999757832E+02 -0.32596770987E+02  0.19326795128E+02  0.52269083143E+02  0.00000000000E+00 0.  1.
<mgrwt>
<rscale>  2 0.15119460E+03</rscale>
<asrwt>0</asrwt>
<pdfrwt beam="1">  1       21 0.31670271E-01 0.15119460E+03</pdfrwt>
<pdfrwt beam="2">  1       21 0.17126097E-01 0.15119460E+03</pdfrwt>
<totfact> 0.29774780E+05</totfact>
</mgrwt>
</event>
<event>
 5    1  0.1281005E-004  0.1741805E+03  0.7546771E-02  0.1173557E+00
         21   -1    0    0  503  502  0.00000000000E+00  0.00000000000E+00  0.21641388087E+03  0.21641388087E+03  0.00000000000E+00 0.  1.
         21   -1    0    0  501  503 -0.00000000000E+00 -0.00000000000E+00 -0.15745355484E+03  0.15745355484E+03  0.00000000000E+00 0. -1.
         24    1    1    2    0    0 -0.34329315754E+02  0.92116295135E+02  0.80918396826E+02  0.15059520792E+03  0.80419002446E+02 0.  1.
          1    1    1    2  501    0  0.18804985659E+02  0.62853937769E+02  0.23078074667E+01  0.65647322519E+02  0.00000000000E+00 0. -1.
         -2    1    1    2    0  502  0.15524330095E+02 -0.15497023290E+03 -0.24265878264E+02  0.15762490526E+03  0.00000000000E+00 0.  1.
<mgrwt>
<rscale>  2 0.17418050E+03</rscale>
<asrwt>0</asrwt>
<pdfrwt beam="1">  1       21 0.33294443E-01 0.17418050E+03</pdfrwt>
<pdfrwt beam="2">  1       21 0.24223624E-01 0.17418050E+03</pdfrwt>
<totfact> 0.14059917E+05</totfact>
</mgrwt>
</event>
<event>
 5    1  0.1281005E-004  0.1235680E+03  0.7546771E-02  0.1237324E+00
         21   -1    0    0  501  502  0.00000000000E+00  0.00000000000E+00  0.15701002723E+02  0.15701002723E+02  0.00000000000E+00 0.  1.
         21   -1    0    0  502  503 -0.00000000000E+00 -0.00000000000E+00 -0.99634588135E+03  0.99634588135E+03  0.00000000000E+00 0. -1.
         24    1    1    2    0    0 -0.18112107209E+02  0.56280231807E+01 -0.33242652328E+03  0.34254099376E+03  0.80419002446E+02 0. -1.
          1    1    1    2  501    0 -0.40165716281E+02  0.62851792828E+02 -0.23242905070E+03  0.24410427328E+03  0.00000000000E+00 0. -1.
         -2    1    1    2    0  503  0.58277823490E+02 -0.68479816009E+02 -0.41578930466E+03  0.42540161704E+03  0.00000000000E+00 0.  1.
<mgrwt>
<rscale>  2 0.12356804E+03</rscale>
<asrwt>0</asrwt>
<pdfrwt beam="1">  1       21 0.24155382E-02 0.12356804E+03</pdfrwt>
<pdfrwt beam="2">  1       21 0.15328402E+00 0.12356804E+03</pdfrwt>
<totfact> 0.26185813E+05</totfact>
</mgrwt>
</event>
<event>
 5    1  0.1281005E-004  0.1557515E+03  0.7546771E-02  0.1193578E+00
         21   -1    0    0  503  502  0.00000000000E+00  0.00000000000E+00  0.14607192200E+03  0.14607192200E+03  0.00000000000E+00 0. -1.
         21   -1    0    0  501  503 -0.00000000000E+00 -0.00000000000E+00 -0.17723972739E+03  0.17723972739E+03  0.00000000000E+00 0.  1.
         24    1    1    2    0    0 -0.48762045388E+02  0.65726737367E+02  0.17528609762E+02  0.11606984617E+03  0.80419002446E+02 0. -1.
          1    1    1    2  501    0  0.81544153884E+02 -0.11293059769E+03 -0.54289742331E+02  0.14949964899E+03  0.00000000000E+00 0. -1.
         -2    1    1    2    0  502 -0.32782108496E+02  0.47203860319E+02  0.55933271798E+01  0.57742154233E+02  0.00000000000E+00 0.  1.
<mgrwt>
<rscale>  2 0.15575154E+03</rscale>
<asrwt>0</asrwt>
<pdfrwt beam="1">  1       21 0.22472603E-01 0.15575154E+03</pdfrwt>
<pdfrwt beam="2">  1       21 0.27267650E-01 0.15575154E+03</pdfrwt>
<totfact> 0.24010427E+05</totfact>
</mgrwt>
</event>
<event>
 5    1  0.1281005E-004  0.1432503E+03  0.7546771E-02  0.1209021E+00
         21   -1    0    0  501  502  0.00000000000E+00  0.00000000000E+00  0.80421058370E+02  0.80421058370E+02  0.00000000000E+00 0. -1.
         21   -1    0    0  502  503 -0.00000000000E+00 -0.00000000000E+00 -0.26428067631E+03  0.26428067631E+03  0.00000000000E+00 0. -1.
         24    1    1    2    0    0  0.11675950356E+02 -0.46142417375E+02 -0.38863370247E+02  0.10120784554E+03  0.80419002446E+02 0. -1.
          1    1    1    2  501    0 -0.26694802593E+02  0.11731400907E+03 -0.10895413514E+03  0.16231510334E+03  0.00000000000E+00 0. -1.
         -2    1    1    2    0  503  0.15018852237E+02 -0.71171591691E+02 -0.36042112556E+02  0.81178785799E+02  0.00000000000E+00 0.  1.
<mgrwt>
<rscale>  2 0.14325031E+03</rscale>
<asrwt>0</asrwt>
<pdfrwt beam="1">  1       21 0.12372470E-01 0.14325031E+03</pdfrwt>
<pdfrwt beam="2">  1       21 0.40658566E-01 0.14325031E+03</pdfrwt>
<totfact> 0.32707978E+05</totfact>
</mgrwt>
</event>
<event>
 5    1  0.1281005E-004  0.3001185E+03  0.7546771E-02  0.1085181E+00
         21   -1    0    0  501  502  0.00000000000E+00  0.00000000000E+00  0.19721592847E+03  0.19721592847E+03  0.00000000000E+00 0. -1.
         21   -1    0    0  502  503 -0.00000000000E+00 -0.00000000000E+00 -0.58784062420E+03  0.58784062420E+03  0.00000000000E+00 0.  1.
         24    1    1    2    0    0 -0.31626943533E+02 -0.43817074665E+02 -0.79803042023E+02  0.12552267150E+03  0.80419002446E+02 0.  0.
          1    1    1    2  501    0  0.15959428205E+03  0.22846779210E+03 -0.33223989900E+01  0.27870935619E+03  0.00000000000E+00 0. -1.
         -2    1    1    2    0  503 -0.12796733852E+03 -0.18465071744E+03 -0.30749925472E+03  0.38082452499E+03  0.00000000000E+00 0.  1.
<mgrwt>
<rscale>  2 0.30011846E+03</rscale>
<asrwt>0</asrwt>
<pdfrwt beam="1">  1       21 0.30340912E-01 0.30011846E+03</pdfrwt>
<pdfrwt beam="2">  1       21 0.90437019E-01 0.30011846E+03</pdfrwt>
<totfact> 0.10186633E+04</totfact>
</mgrwt>
</event>
<event>
 5    1  0.1281005E-004  0.2024406E+03  0.7546771E-02  0.1147696E+00
         21   -1    0    0  501  502  0.00000000000E+00  0.00000000000E+00  0.11394772068E+04  0.11394772068E+04  0.00000000000E+00 0. -1.
         21   -1    0    0  502  503 -0.00000000000E+00 -0.00000000000E+00 -0.39300226256E+02  0.39300226256E+02  0.00000000000E+00 0.  1.
         24    1    1    2    0    0  0.16947379409E+02 -0.86800425986E+02  0.19099121688E+03  0.22531397760E+03  0.80419002446E+02 0.  0.
          1    1    1    2  501    0 -0.48620286240E+02  0.18024076030E+03  0.64427545905E+03  0.67077681165E+03  0.00000000000E+00 0. -1.
         -2    1    1    2    0  503  0.31672906831E+02 -0.93440334309E+02  0.26491030465E+03  0.28268664385E+03  0.00000000000E+00 0.  1.
<mgrwt>
<rscale>  2 0.20244063E+03</rscale>
<asrwt>0</asrwt>
<pdfrwt beam="1">  1       21 0.17530416E+00 0.20244063E+03</pdfrwt>
<pdfrwt beam="2">  1       21 0.60461895E-02 0.20244063E+03</pdfrwt>
<totfact> 0.37899335E+04</totfact>
</mgrwt>
</event>
<event>
 5    1  0.1281005E-004  0.1836787E+03  0.7546771E-02  0.1164290E+00
         21   -1    0    0  503  502  0.00000000000E+00  0.00000000000E+00  0.31482771217E+03  0.31482771217E+03  0.00000000000E+00 0.  1.
         21   -1    0    0  501  503 -0.00000000000E+00 -0.00000000000E+00 -0.13284206127E+03  0.13284206127E+03  0.00000000000E+00 0. -1.
         24    1    1    2    0    0 -0.12608446322E+03  0.45390897135E+02  0.14684606531E+03  0.21444954712E+03  0.80419002446E+02 0.  1.
          1    1    1    2  501    0  0.15298733298E+03 -0.75578001809E+02 -0.12066545410E+02  0.17106361369E+03  0.00000000000E+00 0. -1.
         -2    1    1    2    0  502 -0.26902869767E+02  0.30187104674E+02  0.47206131004E+02  0.62156612638E+02  0.00000000000E+00 0.  1.
<mgrwt>
<rscale>  2 0.18367872E+03</rscale>
<asrwt>0</asrwt>
<pdfrwt beam="1">  1       21 0.48435033E-01 0.18367872E+03</pdfrwt>
<pdfrwt beam="2">  1       21 0.20437240E-01 0.18367872E+03</pdfrwt>
<totfact> 0.90563553E+04</totfact>
</mgrwt>
</event>
<event>
 5    1  0.1281005E-004  0.3517964E+03  0.7546771E-02  0.1061880E+00
         21   -1    0    0  503  502  0.00000000000E+00  0.00000000000E+00  0.13019095915E+03  0.13019095915E+03  0.00000000000E+00 0. -1.
         21   -1    0    0  501  503 -0.00000000000E+00 -0.00000000000E+00 -0.12006500548E+04  0.12006500548E+04  0.00000000000E+00 0.  1.
         24    1    1    2    0    0  0.11561077796E+02 -0.14096527247E+03 -0.40609761195E+03  0.43747840284E+03  0.80419002446E+02 0.  0.
          1    1    1    2  501    0 -0.20498149232E+02 -0.19937846165E+03 -0.44580391721E+03  0.48878735427E+03  0.00000000000E+00 0. -1.
         -2    1    1    2    0  502  0.89370714354E+01  0.34034373412E+03 -0.21855756653E+03  0.40457525689E+03  0.00000000000E+00 0.  1.
<mgrwt>
<rscale>  2 0.35179645E+03</rscale>
<asrwt>0</asrwt>
<pdfrwt beam="1">  1       21 0.20029378E-01 0.35179645E+03</pdfrwt>
<pdfrwt beam="2">  1       21 0.18471540E+00 0.35179645E+03</pdfrwt>
<totfact> 0.34871244E+03</totfact>
</mgrwt>
</event>
<event>
 5    1  0.1281005E-004  0.2756702E+03  0.7546771E-02  0.1098078E+00
         21   -1    0    0  501  502  0.00000000000E+00  0.00000000000E+00  0.28727194144E+03  0.28727194144E+03  0.00000000000E+00 0. -1.
         21   -1    0    0  502  503 -0.00000000000E+00 -0.00000000000E+00 -0.27843768435E+03  0.27843768435E+03  0.00000000000E+00 0.  1.
         24    1    1    2    0    0  0.38060270053E+02  0.31288999077E+02  0.42785140480E+02  0.10356336138E+03  0.80419002446E+02 0. -1.
          1    1    1    2  501    0 -0.21927392870E+03 -0.12564520887E+03  0.10970533198E+02  0.25295874548E+03  0.00000000000E+00 0. -1.
         -2    1    1    2    0  503  0.18121365864E+03  0.94356209789E+02 -0.44921416584E+02  0.20918751892E+03  0.00000000000E+00 0.  1.
<mgrwt>
<rscale>  2 0.27567016E+03</rscale>
<asrwt>0</asrwt>
<pdfrwt beam="1">  1       21 0.44195683E-01 0.27567016E+03</pdfrwt>
<pdfrwt beam="2">  1       21 0.42836567E-01 0.27567016E+03</pdfrwt>
<totfact> 0.24736828E+04</totfact>
</mgrwt>
</event>
<event>
 5    1  0.1281005E-004  0.1674417E+03  0.7546771E-02  0.1180542E+00
         21   -1    0    0  501  502  0.00000000000E+00  0.00000000000E+00  0.15741689150E+03  0.15741689150E+03  0.00000000000E+00 0. -1.
         21   -1    0    0  502  503 -0.00000000000E+00 -0.00000000000E+00 -0.18556078663E+03  0.18556078663E+03  0.00000000000E+00 0.  1.
         24    1    1    2    0    0 -0.79593276226E+01  0.64157092503E+02  0.16188898268E+02  0.10444510422E+03  0.80419002446E+02 0.  0.
          1    1    1    2  501    0  0.64805194128E+02  0.64260189222E+02  0.26851084105E-02  0.91263821485E+02  0.00000000000E+00 0. -1.
         -2    1    1    2    0  503 -0.56845866505E+02 -0.12841728173E+03 -0.44335478512E+02  0.14726875242E+03  0.00000000000E+00 0.  1.
<mgrwt>
<rscale>  2 0.16744165E+03</rscale>
<asrwt>0</asrwt>
<pdfrwt beam="1">  1       21 0.24217983E-01 0.16744165E+03</pdfrwt>
<pdfrwt beam="2">  1       21 0.28547813E-01 0.16744165E+03</pdfrwt>
<totfact> 0.19026312E+05</totfact>
</mgrwt>
</event>
<event>
 5    1  0.1281005E-004  0.1427397E+03  0.7546771E-02  0.1209689E+00
         21   -1    0    0  503  502  0.00000000000E+00  0.00000000000E+00  0.19586521137E+03  0.19586521137E+03  0.00000000000E+00 0. -1.
         21   -1    0    0  501  503 -0.00000000000E+00 -0.00000000000E+00 -0.10691517818E+03  0.10691517818E+03  0.00000000000E+00 0.  1.
         24    1    1    2    0    0  0.52470216320E+02 -0.27903442310E+02  0.80637842171E+01  0.10031932149E+03  0.80419002446E+02 0.  1.
          1    1    1    2  501    0 -0.11698477092E+03  0.30577160289E+02  0.49293677394E+02  0.13057666709E+03  0.00000000000E+00 0. -1.
         -2    1    1    2    0  502  0.64514554599E+02 -0.26737179792E+01  0.31592571579E+02  0.71884400964E+02  0.00000000000E+00 0.  1.
<mgrwt>
<rscale>  2 0.14273974E+03</rscale>
<asrwt>0</asrwt>
<pdfrwt beam="1">  1       21 0.30133109E-01 0.14273974E+03</pdfrwt>
<pdfrwt beam="2">  1       21 0.16448489E-01 0.14273974E+03</pdfrwt>
<totfact> 0.35351439E+05</totfact>
</mgrwt>
</event>
<event>
 5    1  0.1281005E-004  0.1797747E+03  0.7546771E-02  0.1168021E+00
         21   -1    0    0  503  502  0.00000000000E+00  0.00000000000E+00  0.19769221835E+03  0.19769221835E+03  0.00000000000E+00 0. -1.
         21   -1    0    0  501  503 -0.00000000000E+00 -0.00000000000E+00 -0.16739918108E+03  0.16739918108E+03  0.00000000000E+00 0.  1.
         24    1    1    2    0    0 -0.11263169397E+03  0.65845169005E+01  0.17101638306E+02  0.13960278055E+03  0.80419002446E+02 0. -1.
          1    1    1    2  501    0 -0.45766531915E+02  0.34552686737E+02 -0.15353535227E+02  0.59364927762E+02  0.00000000000E+00 0. -1.
         -2    1    1    2    0  502  0.15839822588E+03 -0.41137203637E+02  0.28544934188E+02  0.16612369113E+03  0.00000000000E+00 0.  1.
<mgrwt>
<rscale>  2 0.17977467E+03</rscale>
<asrwt>0</asrwt>
<pdfrwt beam="1">  1       21 0.30414187E-01 0.17977467E+03</pdfrwt>
<pdfrwt beam="2">  1       21 0.25753720E-01 0.17977467E+03</pdfrwt>
<totfact> 0.14908673E+05</totfact>
</mgrwt>
</event>
<event>
 5    1  0.1281005E-004  0.2611966E+03  0.7546771E-02  0.1106426E+00
         21   -1    0    0  503  502  0.00000000000E+00  0.00000000000E+00  0.85050411066E+02  0.85050411066E+02  0.00000000000E+00 0.  1.
         21   -1    0    0  501  503 -0.00000000000E+00 -0.00000000000E+00 -0.80910800266E+03  0.80910800266E+03  0.00000000000E+00 0. -1.
         24    1    1    2    0    0 -0.96288557609E+01 -0.10620307136E+03 -0.17493350031E+03  0.22009260032E+03  0.80419002446E+02 0.  0.
          1    1    1    2  501    0 -0.17178705758E+02 -0.14006148188E+03 -0.23366412727E+03  0.27296749076E+03  0.00000000000E+00 0. -1.
         -2    1    1    2    0  502  0.26807561519E+02  0.24626455324E+03 -0.31545996402E+03  0.40109832265E+03  0.00000000000E+00 0.  1.
<mgrwt>
<rscale>  2 0.26119660E+03</rscale>
<asrwt>0</asrwt>
<pdfrwt beam="1">  1       21 0.13084678E-01 0.26119660E+03</pdfrwt>
<pdfrwt beam="2">  1       21 0.12447816E+00 0.26119660E+03</pdfrwt>
<totfact> 0.23315477E+04</totfact>
</mgrwt>
</event>
<event>
 5    1  0.1281005E-004  0.1537621E+03  0.7546771E-02  0.1195925E+00
         21   -1    0    0  503  502  0.00000000000E+00  0.00000000000E+00  0.81040355300E+02  0.81040355300E+02  0.00000000000E+00 0. -1.
         21   -1    0    0  501  503 -0.00000000000E+00 -0.00000000000E+00 -0.30079399267E+03  0.30079399267E+03  0.00000000000E+00 0.  1.
         24    1    1    2    0    0 -0.63532965235E+01 -0.18935657081E+02 -0.47059210088E+02  0.95292752580E+02  0.80419002446E+02 0. -1.
          1    1    1    2  501    0 -0.38619709394E+02  0.11353115513E+03 -0.65382273966E+02  0.13658567600E+03  0.00000000000E+00 0. -1.
         -2    1    1    2    0  502  0.44973005918E+02 -0.94595498047E+02 -0.10731215332E+03  0.14995591940E+03  0.00000000000E+00 0.  1.
<mgrwt>
<rscale>  2 0.15376207E+03</rscale>
<asrwt>0</asrwt>
<pdfrwt beam="1">  1       21 0.12467747E-01 0.15376207E+03</pdfrwt>
<pdfrwt beam="2">  1       21 0.46275999E-01 0.15376207E+03</pdfrwt>
<totfact> 0.24763208E+05</totfact>
</mgrwt>
</event>
<event>
 5    1  0.1281005E-004  0.2193794E+03  0.7546771E-02  0.1134347E+00
         21   -1    0    0  503  502  0.00000000000E+00  0.00000000000E+00  0.53472713730E+03  0.53472713730E+03  0.00000000000E+00 0.  1.
         21   -1    0    0  501  503 -0.00000000000E+00 -0.00000000000E+00 -0.99914628823E+02  0.99914628823E+02  0.00000000000E+00 0. -1.
         24    1    1    2    0    0  0.82049361048E+02 -0.83523484884E+02  0.77780889478E+02  0.16194243699E+03  0.80419002446E+02 0. -1.
          1    1    1    2  501    0 -0.80202596866E+02  0.18165350836E+03  0.16966590682E+03  0.26118379272E+03  0.00000000000E+00 0. -1.
         -2    1    1    2    0  502 -0.18467641822E+01 -0.98130023473E+02  0.18736571218E+03  0.21151553642E+03  0.00000000000E+00 0.  1.
<mgrwt>
<rscale>  2 0.21937943E+03</rscale>
<asrwt>0</asrwt>
<pdfrwt beam="1">  1       21 0.82265712E-01 0.21937943E+03</pdfrwt>
<pdfrwt beam="2">  1       21 0.15371482E-01 0.21937943E+03</pdfrwt>
<totfact> 0.47802233E+04</totfact>
</mgrwt>
</event>
<event>
 5    1  0.1281005E-004  0.9556250E+02  0.7546771E-02  0.1289914E+00
         21   -1    0    0  503  502  0.00000000000E+00  0.00000000000E+00  0.26002631012E+04  0.26002631012E+04  0.00000000000E+00 0.  1.
         21   -1    0    0  501  503 -0.00000000000E+00 -0.00000000000E+00 -0.35982623754E+01  0.35982623754E+01  0.00000000000E+00 0.  1.
         24    1    1    2    0    0 -0.31275482515E+02  0.41217915052E+02  0.14827699157E+04  0.14858502317E+04  0.80419002446E+02 0.  1.
          1    1    1    2  501    0 -0.19779198051E+02  0.10864510277E+02  0.22477189959E+03  0.22590188380E+03  0.00000000000E+00 0. -1.
         -2    1    1    2    0  502  0.51054680565E+02 -0.52082425329E+02  0.88912302356E+03  0.89210924805E+03  0.00000000000E+00 0.  1.
<mgrwt>
<rscale>  2 0.95562501E+02</rscale>
<asrwt>0</asrwt>
<pdfrwt beam="1">  1       21 0.40003898E+00 0.95562501E+02</pdfrwt>
<pdfrwt beam="2">  1       21 0.55358091E-03 0.95562501E+02</pdfrwt>
<totfact> 0.95142866E+04</totfact>
</mgrwt>
</event>
<event>
 5    1  0.1281005E-004  0.1337731E+03  0.7546771E-02  0.1221962E+00
         21   -1    0    0  503  502  0.00000000000E+00  0.00000000000E+00  0.22620338462E+03  0.22620338462E+03  0.00000000000E+00 0. -1.
         21   -1    0    0  501  503 -0.00000000000E+00 -0.00000000000E+00 -0.82731947297E+02  0.82731947297E+02  0.00000000000E+00 0.  1.
         24    1    1    2    0    0  0.19703148244E+02  0.45576968299E+02  0.60395754093E+02  0.11216210214E+03  0.80419002446E+02 0.  0.
          1    1    1    2  501    0  0.53884963190E+02 -0.76200160076E+02  0.20784556552E+02  0.95614075558E+02  0.00000000000E+00 0. -1.
         -2    1    1    2    0  502 -0.73588111434E+02  0.30623191778E+02  0.62291126677E+02  0.10115915422E+03  0.00000000000E+00 0.  1.
<mgrwt>
<rscale>  2 0.13377311E+03</rscale>
<asrwt>0</asrwt>
<pdfrwt beam="1">  1       21 0.34800520E-01 0.13377311E+03</pdfrwt>
<pdfrwt beam="2">  1       21 0.12727992E-01 0.13377311E+03</pdfrwt>
<totfact> 0.42419484E+05</totfact>
</mgrwt>
</event>
<event>
 5    1  0.1281005E-004  0.1592797E+03  0.7546771E-02  0.1189512E+00
         21   -1    0    0  501  502  0.00000000000E+00  0.00000000000E+00  0.14562481188E+03  0.14562481188E+03  0.00000000000E+00 0.  1.
         21   -1    0    0  502  503 -0.00000000000E+00 -0.00000000000E+00 -0.18711250337E+03  0.18711250337E+03  0.00000000000E+00 0. -1.
         24    1    1    2    0    0  0.17174590253E+02 -0.51459006967E+02  0.18403696109E+02  0.98736558241E+02  0.80419002446E+02 0.  1.
          1    1    1    2  501    0 -0.10987432787E+03  0.65317800843E+02 -0.11026545575E+02  0.12829796467E+03  0.00000000000E+00 0. -1.
         -2    1    1    2    0  503  0.92699737612E+02 -0.13858793876E+02 -0.48864842023E+02  0.10570279233E+03  0.00000000000E+00 0.  1.
<mgrwt>
<rscale>  2 0.15927973E+03</rscale>
<asrwt>0</asrwt>
<pdfrwt beam="1">  1       21 0.22403817E-01 0.15927973E+03</pdfrwt>
<pdfrwt beam="2">  1       21 0.28786539E-01 0.15927973E+03</pdfrwt>
<totfact> 0.21741329E+05</totfact>
</mgrwt>
</event>
<event>
 5    1  0.1281005E-004  0.1279599E+03  0.7546771E-02  0.1230515E+00
         21   -1    0    0  503  502  0.00000000000E+00  0.00000000000E+00  0.14745407837E+03  0.14745407837E+03  0.00000000000E+00 0. -1.
         21   -1    0    0  501  503 -0.00000000000E+00 -0.00000000000E+00 -0.11616752979E+03  0.11616752979E+03  0.00000000000E+00 0.  1.
         24    1    1    2    0    0  0.13198753592E+02  0.11903046896E+02 -0.10656357681E+02  0.83046153043E+02  0.80419002446E+02 0.  1.
          1    1    1    2  501    0 -0.91039174704E+02 -0.25495569098E+02  0.90140582829E+01  0.94970567131E+02  0.00000000000E+00 0. -1.
         -2    1    1    2    0  502  0.77840421112E+02  0.13592522202E+02  0.32928847982E+02  0.85604887992E+02  0.00000000000E+00 0.  1.
<mgrwt>
<rscale>  2 0.12795985E+03</rscale>
<asrwt>0</asrwt>
<pdfrwt beam="1">  1       21 0.22685243E-01 0.12795985E+03</pdfrwt>
<pdfrwt beam="2">  1       21 0.17871928E-01 0.12795985E+03</pdfrwt>
<totfact> 0.52219594E+05</totfact>
</mgrwt>
</event>
<event>
 5    1  0.1281005E-004  0.1488949E+03  0.7546771E-02  0.1201838E+00
         21   -1    0    0  501  502  0.00000000000E+00  0.00000000000E+00  0.13670172597E+04  0.13670172597E+04  0.00000000000E+00 0. -1.
         21   -1    0    0  502  503 -0.00000000000E+00 -0.00000000000E+00 -0.16598776131E+02  0.16598776131E+02  0.00000000000E+00 0. -1.
         24    1    1    2    0    0 -0.95781414346E+02 -0.56506548965E+02  0.58394577913E+03  0.59985578128E+03  0.80419002446E+02 0. -1.
          1    1    1    2  501    0  0.11612676147E+03  0.70506341158E+02  0.69464852862E+03  0.70780869392E+03  0.00000000000E+00 0. -1.
         -2    1    1    2    0  503 -0.20345347124E+02 -0.13999792193E+02  0.71824175773E+02  0.75951560593E+02  0.00000000000E+00 0.  1.
<mgrwt>
<rscale>  2 0.14889486E+03</rscale>
<asrwt>0</asrwt>
<pdfrwt beam="1">  1       21 0.21031026E+00 0.14889486E+03</pdfrwt>
<pdfrwt beam="2">  1       21 0.25536589E-02 0.14889486E+03</pdfrwt>
<totfact> 0.98007010E+04</totfact>
</mgrwt>
</event>
<event>
 5    1  0.1281005E-004  0.1558143E+03  0.7546771E-02  0.1193505E+00
         21   -1    0    0  501  502  0.00000000000E+00  0.00000000000E+00  0.48853832762E+03  0.48853832762E+03  0.00000000000E+00 0. -1.
         21   -1    0    0  502  503 -0.00000000000E+00 -0.00000000000E+00 -0.52552042204E+02  0.52552042204E+02  0.00000000000E+00 0. -1.
         24    1    1    2    0    0  0.90446607639E+02 -0.67791535841E+02  0.14008092363E+03  0.19714502855E+03  0.80419002446E+02 0. -1.
          1    1    1    2  501    0 -0.49312686808E+02  0.10590979006E+03  0.22519902593E+03  0.25369908551E+03  0.00000000000E+00 0. -1.
         -2    1    1    2    0  503 -0.41133920831E+02 -0.38118254216E+02  0.70706335860E+02  0.90246255757E+02  0.00000000000E+00 0.  1.
<mgrwt>
<rscale>  2 0.15581428E+03</rscale>
<asrwt>0</asrwt>
<pdfrwt beam="1">  1       21 0.75159740E-01 0.15581428E+03</pdfrwt>
<pdfrwt beam="2">  1       21 0.80849299E-02 0.15581428E+03</pdfrwt>
<totfact> 0.18862136E+05</totfact>
</mgrwt>
</event>
<event>
 5    1  0.1281005E-004  0.1296149E+03  0.7546771E-02  0.1228028E+00
         21   -1    0    0  503  502  0.00000000000E+00  0.00000000000E+00  0.69585055625E+03  0.69585055625E+03  0.00000000000E+00 0.  1.
         21   -1    0    0  501  503 -0.00000000000E+00 -0.00000000000E+00 -0.24452682474E+02  0.24452682474E+02  0.00000000000E+00 0.  1.
         24    1    1    2    0    0 -0.28412976434E+02 -0.75170022622E+02  0.32594810169E+03  0.34520604062E+03  0.80419002446E+02 0.  1.
          1    1    1    2  501    0 -0.88230733619E+01 -0.31419663883E+02  0.92651738952E+02  0.98231291516E+02  0.00000000000E+00 0. -1.
         -2    1    1    2    0  502  0.37236049796E+02  0.10658968650E+03  0.25279803313E+03  0.27686590658E+03  0.00000000000E+00 0.  1.
<mgrwt>
<rscale>  2 0.12961494E+03</rscale>
<asrwt>0</asrwt>
<pdfrwt beam="1">  1       21 0.10705392E+00 0.12961494E+03</pdfrwt>
<pdfrwt beam="2">  1       21 0.37619517E-02 0.12961494E+03</pdfrwt>
<totfact> 0.30795199E+05</totfact>
</mgrwt>
</event>
<event>
 5    1  0.1281005E-004  0.8381787E+02  0.7546771E-02  0.1318553E+00
         21   -1    0    0  501  502  0.00000000000E+00  0.00000000000E+00  0.26749066086E+02  0.26749066086E+02  0.00000000000E+00 0.  1.
         21   -1    0    0  502  503 -0.00000000000E+00 -0.00000000000E+00 -0.28834591596E+03  0.28834591596E+03  0.00000000000E+00 0.  1.
         24    1    1    2    0    0  0.25057985055E+02 -0.20251990867E+02 -0.89807894261E+02  0.12478268940E+03  0.80419002446E+02 0.  1.
          1    1    1    2  501    0 -0.30913064949E+02 -0.22257385535E+02 -0.66887648244E+02  0.76973802576E+02  0.00000000000E+00 0. -1.
         -2    1    1    2    0  503  0.58550798937E+01  0.42509376402E+02 -0.10490130736E+03  0.11333849006E+03  0.00000000000E+00 0.  1.
<mgrwt>
<rscale>  2 0.83817866E+02</rscale>
<asrwt>0</asrwt>
<pdfrwt beam="1">  1       21 0.41152407E-02 0.83817866E+02</pdfrwt>
<pdfrwt beam="2">  1       21 0.44360913E-01 0.83817866E+02</pdfrwt>
<totfact> 0.17945313E+06</totfact>
</mgrwt>
</event>
<event>
 5    1  0.1281005E-004  0.1019280E+03  0.7546771E-02  0.1276293E+00
         21   -1    0    0  503  502  0.00000000000E+00  0.00000000000E+00  0.76317301382E+01  0.76317301382E+01  0.00000000000E+00 0.  1.
         21   -1    0    0  501  503 -0.00000000000E+00 -0.00000000000E+00 -0.14101058171E+04  0.14101058171E+04  0.00000000000E+00 0. -1.
         24    1    1    2    0    0  0.29473839026E+02  0.57257309047E+02 -0.78764490035E+03  0.79435433632E+03  0.80419002446E+02 0.  1.
          1    1    1    2  501    0  0.20441513529E+02  0.49894117273E+01 -0.18675633308E+03  0.18793796224E+03  0.00000000000E+00 0. -1.
         -2    1    1    2    0  502 -0.49915352555E+02 -0.62246720775E+02 -0.42807285349E+03  0.43544524864E+03  0.00000000000E+00 0.  1.
<mgrwt>
<rscale>  2 0.10192795E+03</rscale>
<asrwt>0</asrwt>
<pdfrwt beam="1">  1       21 0.11741139E-02 0.10192795E+03</pdfrwt>
<pdfrwt beam="2">  1       21 0.21693906E+00 0.10192795E+03</pdfrwt>
<totfact> 0.32045237E+05</totfact>
</mgrwt>
</event>
<event>
 5    1  0.1281005E-004  0.1648997E+03  0.7546771E-02  0.1183274E+00
         21   -1    0    0  503  502  0.00000000000E+00  0.00000000000E+00  0.51297795553E+02  0.51297795553E+02  0.00000000000E+00 0. -1.
         21   -1    0    0  501  503 -0.00000000000E+00 -0.00000000000E+00 -0.59376123326E+03  0.59376123326E+03  0.00000000000E+00 0. -1.
         24    1    1    2    0    0 -0.12369526116E+03 -0.31314522266E+02 -0.34227812801E+03  0.37403562638E+03  0.80419002446E+02 0. -1.
          1    1    1    2  501    0  0.14979308789E+03  0.30480112204E+02 -0.14850535847E+03  0.21312167397E+03  0.00000000000E+00 0. -1.
         -2    1    1    2    0  502 -0.26097826731E+02  0.83441006179E+00 -0.51679951226E+02  0.57901728463E+02  0.00000000000E+00 0.  1.
<mgrwt>
<rscale>  2 0.16489969E+03</rscale>
<asrwt>0</asrwt>
<pdfrwt beam="1">  1       21 0.78919691E-02 0.16489969E+03</pdfrwt>
<pdfrwt beam="2">  1       21 0.91347876E-01 0.16489969E+03</pdfrwt>
<totfact> 0.12606213E+05</totfact>
</mgrwt>
</event>
<event>
 5    1  0.1281005E-004  0.8000990E+02  0.7546771E-02  0.1329023E+00
         21   -1    0    0  503  502  0.00000000000E+00  0.00000000000E+00  0.92518080105E+01  0.92518080105E+01  0.00000000000E+00 0.  1.
         21   -1    0    0  501  503 -0.00000000000E+00 -0.00000000000E+00 -0.70364597622E+03  0.70364597622E+03  0.00000000000E+00 0. -1.
         24    1    1    2    0    0 -0.15269907089E+02  0.29263788878E+02 -0.42148024114E+03  0.43035142503E+03  0.80419002446E+02 0.  0.
          1    1    1    2  501    0  0.29922842777E+02  0.97052084018E+01 -0.12298425976E+03  0.12694367152E+03  0.00000000000E+00 0. -1.
         -2    1    1    2    0  502 -0.14652935689E+02 -0.38968997280E+02 -0.14992966732E+03  0.15560268769E+03  0.00000000000E+00 0.  1.
<mgrwt>
<rscale>  2 0.80009904E+02</rscale>
<asrwt>0</asrwt>
<pdfrwt beam="1">  1       21 0.14233551E-02 0.80009904E+02</pdfrwt>
<pdfrwt beam="2">  1       21 0.10825323E+00 0.80009904E+02</pdfrwt>
<totfact> 0.14456536E+06</totfact>
</mgrwt>
</event>
<event>
 5    1  0.1281005E-004  0.1760641E+03  0.7546771E-02  0.1171668E+00
         21   -1    0    0  503  502  0.00000000000E+00  0.00000000000E+00  0.95826407279E+03  0.95826407279E+03  0.00000000000E+00 0.  1.
         21   -1    0    0  501  503 -0.00000000000E+00 -0.00000000000E+00 -0.34212819481E+02  0.34212819481E+02  0.00000000000E+00 0. -1.
         24    1    1    2    0    0 -0.10033039413E+03 -0.44659744002E+02  0.46269320086E+03  0.48229959029E+03  0.80419002446E+02 0.  0.
          1    1    1    2  501    0 -0.24770873649E+02 -0.52210694867E+02  0.96345274974E+02  0.11234751822E+03  0.00000000000E+00 0. -1.
         -2    1    1    2    0  502  0.12510126778E+03  0.96870438869E+02  0.36501277748E+03  0.39782978376E+03  0.00000000000E+00 0.  1.
<mgrwt>
<rscale>  2 0.17606405E+03</rscale>
<asrwt>0</asrwt>
<pdfrwt beam="1">  1       21 0.14742522E+00 0.17606405E+03</pdfrwt>
<pdfrwt beam="2">  1       21 0.52635114E-02 0.17606405E+03</pdfrwt>
<totfact> 0.77767363E+04</totfact>
</mgrwt>
</event>
<event>
 5    1  0.1281005E-004  0.2201342E+03  0.7546771E-02  0.1133783E+00
         21   -1    0    0  501  502  0.00000000000E+00  0.00000000000E+00  0.53898526676E+02  0.53898526676E+02  0.00000000000E+00 0.  1.
         21   -1    0    0  502  503 -0.00000000000E+00 -0.00000000000E+00 -0.94637275333E+03  0.94637275333E+03  0.00000000000E+00 0. -1.
         24    1    1    2    0    0 -0.32580703291E+02 -0.74080087424E+02 -0.25976823783E+03  0.28371837254E+03  0.80419002446E+02 0. -1.
          1    1    1    2  501    0  0.17511081452E+03  0.42340716493E+02 -0.26049724160E+03  0.31672598018E+03  0.00000000000E+00 0. -1.
         -2    1    1    2    0  503 -0.14253011123E+03  0.31739370931E+02 -0.37220874722E+03  0.39982692728E+03  0.00000000000E+00 0.  1.
<mgrwt>
<rscale>  2 0.22013424E+03</rscale>
<asrwt>0</asrwt>
<pdfrwt beam="1">  1       21 0.82920805E-02 0.22013424E+03</pdfrwt>
<pdfrwt beam="2">  1       21 0.14559582E+00 0.22013424E+03</pdfrwt>
<totfact> 0.35855592E+04</totfact>
</mgrwt>
</event>
<event>
 5    1  0.1281005E-004  0.1362934E+03  0.7546771E-02  0.1218405E+00
         21   -1    0    0  503  502  0.00000000000E+00  0.00000000000E+00  0.13795023038E+03  0.13795023038E+03  0.00000000000E+00 0.  1.
         21   -1    0    0  501  503 -0.00000000000E+00 -0.00000000000E+00 -0.14573922481E+03  0.14573922481E+03  0.00000000000E+00 0.  1.
         24    1    1    2    0    0  0.64906521713E+02 -0.46361220716E+02 -0.22185203494E+02  0.11541931622E+03  0.80419002446E+02 0.  1.
          1    1    1    2  501    0  0.13294168679E+01 -0.45803520391E+02 -0.19530032287E+02  0.49811163313E+02  0.00000000000E+00 0. -1.
         -2    1    1    2    0  502 -0.66235938580E+02  0.92164741108E+02  0.33926241347E+02  0.11845897566E+03  0.00000000000E+00 0.  1.
<mgrwt>
<rscale>  2 0.13629339E+03</rscale>
<asrwt>0</asrwt>
<pdfrwt beam="1">  1       21 0.21223112E-01 0.13629339E+03</pdfrwt>
<pdfrwt beam="2">  1       21 0.22421419E-01 0.13629339E+03</pdfrwt>
<totfact> 0.38838038E+05</totfact>
</mgrwt>
</event>
<event>
 5    1  0.1281005E-004  0.2089820E+03  0.7546771E-02  0.1142375E+00
         21   -1    0    0  501  502  0.00000000000E+00  0.00000000000E+00  0.99728382386E+03  0.99728382386E+03  0.00000000000E+00 0.  1.
         21   -1    0    0  502  503 -0.00000000000E+00 -0.00000000000E+00 -0.44867322949E+02  0.44867322949E+02  0.00000000000E+00 0. -1.
         24    1    1    2    0    0  0.16523884153E+01  0.16316426119E+03  0.37351665799E+03  0.41546024632E+03  0.80419002446E+02 0.  1.
          1    1    1    2  501    0 -0.34870780563E+02 -0.19010744274E+03  0.51221709121E+03  0.54746977967E+03  0.00000000000E+00 0. -1.
         -2    1    1    2    0  503  0.33218392148E+02  0.26943181550E+02  0.66682751713E+02  0.79221120826E+02  0.00000000000E+00 0.  1.
<mgrwt>
<rscale>  2 0.20898203E+03</rscale>
<asrwt>0</asrwt>
<pdfrwt beam="1">  1       21 0.15342826E+00 0.20898203E+03</pdfrwt>
<pdfrwt beam="2">  1       21 0.69026658E-02 0.20898203E+03</pdfrwt>
<totfact> 0.43222463E+04</totfact>
</mgrwt>
</event>
<event>
 5    1  0.1281005E-004  0.2646627E+03  0.7546771E-02  0.1104374E+00
         21   -1    0    0  503  502  0.00000000000E+00  0.00000000000E+00  0.16304452348E+03  0.16304452348E+03  0.00000000000E+00 0.  1.
         21   -1    0    0  501  503 -0.00000000000E+00 -0.00000000000E+00 -0.43448148058E+03  0.43448148058E+03  0.00000000000E+00 0. -1.
         24    1    1    2    0    0 -0.70028952559E+02  0.85459202309E+02 -0.83942156391E+02  0.16037715246E+03  0.80419002446E+02 0.  0.
          1    1    1    2  501    0  0.22093316364E+03 -0.97076279034E+02 -0.92409830894E+02  0.25840828856E+03  0.00000000000E+00 0. -1.
         -2    1    1    2    0  502 -0.15090421108E+03  0.11617076725E+02 -0.95084969812E+02  0.17874056305E+03  0.00000000000E+00 0.  1.
<mgrwt>
<rscale>  2 0.26466270E+03</rscale>
<asrwt>0</asrwt>
<pdfrwt beam="1">  1       21 0.25083773E-01 0.26466270E+03</pdfrwt>
<pdfrwt beam="2">  1       21 0.66843305E-01 0.26466270E+03</pdfrwt>
<totfact> 0.29791269E+04</totfact>
</mgrwt>
</event>
<event>
 5    1  0.1281005E-004  0.1819055E+03  0.7546771E-02  0.1165972E+00
         21   -1    0    0  501  502  0.00000000000E+00  0.00000000000E+00  0.94168869780E+02  0.94168869780E+02  0.00000000000E+00 0. -1.
         21   -1    0    0  502  503 -0.00000000000E+00 -0.00000000000E+00 -0.36315111149E+03  0.36315111149E+03  0.00000000000E+00 0.  1.
         24    1    1    2    0    0 -0.10480337514E+03 -0.54349620142E+02 -0.68379074960E+02  0.15836837594E+03  0.80419002446E+02 0. -1.
          1    1    1    2  501    0  0.15098272028E+03  0.17797900086E+01 -0.12589418825E+03  0.19659169899E+03  0.00000000000E+00 0. -1.
         -2    1    1    2    0  503 -0.46179345141E+02  0.52569830134E+02 -0.74708978501E+02  0.10235990634E+03  0.00000000000E+00 0.  1.
<mgrwt>
<rscale>  2 0.18190550E+03</rscale>
<asrwt>0</asrwt>
<pdfrwt beam="1">  1       21 0.14487519E-01 0.18190550E+03</pdfrwt>
<pdfrwt beam="2">  1       21 0.55869401E-01 0.18190550E+03</pdfrwt>
<totfact> 0.12655947E+05</totfact>
</mgrwt>
</event>
<event>
 5    1  0.1281005E-004  0.8826728E+02  0.7546771E-02  0.1307103E+00
         21   -1    0    0  503  502  0.00000000000E+00  0.00000000000E+00  0.26734730885E+02  0.26734730885E+02  0.00000000000E+00 0.  1.
         21   -1    0    0  501  503 -0.00000000000E+00 -0.00000000000E+00 -0.32217720580E+03  0.32217720580E+03  0.00000000000E+00 0.  1.
         24    1    1    2    0    0  0.44100453674E+02  0.61845551263E+01 -0.20656479586E+03  0.22609584158E+03  0.80419002446E+02 0.  1.
          1    1    1    2  501    0  0.19950275300E+02  0.19428074795E+01 -0.24276185601E+02  0.31482077008E+02  0.00000000000E+00 0. -1.
         -2    1    1    2    0  502 -0.64050728974E+02 -0.81273626059E+01 -0.64601493451E+02  0.91334018094E+02  0.00000000000E+00 0.  1.
<mgrwt>
<rscale>  2 0.88267276E+02</rscale>
<asrwt>0</asrwt>
<pdfrwt beam="1">  1       21 0.41130355E-02 0.88267276E+02</pdfrwt>
<pdfrwt beam="2">  1       21 0.49565724E-01 0.88267276E+02</pdfrwt>
<totfact> 0.14378849E+06</totfact>
</mgrwt>
</event>
<event>
 5    1  0.1281005E-004  0.3613578E+03  0.7546771E-02  0.1058048E+00
         21   -1    0    0  503  502  0.00000000000E+00  0.00000000000E+00  0.10202939810E+04  0.10202939810E+04  0.00000000000E+00 0. -1.
         21   -1    0    0  501  503 -0.00000000000E+00 -0.00000000000E+00 -0.13262148361E+03  0.13262148361E+03  0.00000000000E+00 0.  1.
         24    1    1    2    0    0  0.16923048328E+03 -0.14321923269E+03  0.19871465457E+03  0.30839169084E+03  0.80419002446E+02 0.  0.
          1    1    1    2  501    0  0.11761684404E+03 -0.63163541940E+02  0.21983728293E+03  0.25719989502E+03  0.00000000000E+00 0. -1.
         -2    1    1    2    0  502 -0.28684732732E+03  0.20638277464E+03  0.46912055993E+03  0.58732387880E+03  0.00000000000E+00 0.  1.
<mgrwt>
<rscale>  2 0.36135778E+03</rscale>
<asrwt>0</asrwt>
<pdfrwt beam="1">  1       21 0.15696830E+00 0.36135778E+03</pdfrwt>
<pdfrwt beam="2">  1       21 0.20403306E-01 0.36135778E+03</pdfrwt>
<totfact> 0.53128991E+03</totfact>
</mgrwt>
</event>
<event>
 5    1  0.1281005E-004  0.1859334E+03  0.7546771E-02  0.1162181E+00
         21   -1    0    0  503  502  0.00000000000E+00  0.00000000000E+00  0.63551224099E+03  0.63551224099E+03  0.00000000000E+00 0.  1.
         21   -1    0    0  501  503 -0.00000000000E+00 -0.00000000000E+00 -0.55218800808E+02  0.55218800808E+02  0.00000000000E+00 0. -1.
         24    1    1    2    0    0  0.88107005523E+02  0.23110533869E+02  0.16388860194E+03  0.20401870257E+03  0.80419002446E+02 0.  0.
          1    1    1    2  501    0  0.78895174447E+02  0.11726836433E+02  0.10789662205E+03  0.13417767435E+03  0.00000000000E+00 0. -1.
         -2    1    1    2    0  502 -0.16700217997E+03 -0.34837370302E+02  0.30850821618E+03  0.35253466487E+03  0.00000000000E+00 0.  1.
<mgrwt>
<rscale>  2 0.18593344E+03</rscale>
<asrwt>0</asrwt>
<pdfrwt beam="1">  1       21 0.97771109E-01 0.18593344E+03</pdfrwt>
<pdfrwt beam="2">  1       21 0.84952006E-02 0.18593344E+03</pdfrwt>
<totfact> 0.93833974E+04</totfact>
</mgrwt>
</event>
<event>
 5    1  0.1281005E-004  0.2585212E+03  0.7546771E-02  0.1108035E+00
         21   -1    0    0  501  502  0.00000000000E+00  0.00000000000E+00  0.11252656941E+04  0.11252656941E+04  0.00000000000E+00 0. -1.
         21   -1    0    0  502  503 -0.00000000000E+00 -0.00000000000E+00 -0.66621492113E+02  0.66621492113E+02  0.00000000000E+00 0. -1.
         24    1    1    2    0    0  0.99895670721E+02 -0.19421144151E+03  0.57240360261E+03  0.61790802656E+03  0.80419002446E+02 0. -1.
          1    1    1    2  501    0 -0.10394554628E+03  0.22784377391E+03  0.33088228059E+03  0.41497053571E+03  0.00000000000E+00 0. -1.
         -2    1    1    2    0  503  0.40498755581E+01 -0.33632332391E+02  0.15535831879E+03  0.15900862395E+03  0.00000000000E+00 0.  1.
<mgrwt>
<rscale>  2 0.25852120E+03</rscale>
<asrwt>0</asrwt>
<pdfrwt beam="1">  1       21 0.17311779E+00 0.25852120E+03</pdfrwt>
<pdfrwt beam="2">  1       21 0.10249461E-01 0.25852120E+03</pdfrwt>
<totfact> 0.15095475E+04</totfact>
</mgrwt>
</event>
<event>
 5    1  0.1281005E-004  0.1242508E+03  0.7546771E-02  0.1236245E+00
         21   -1    0    0  501  502  0.00000000000E+00  0.00000000000E+00  0.62322163365E+02  0.62322163365E+02  0.00000000000E+00 0.  1.
         21   -1    0    0  502  503 -0.00000000000E+00 -0.00000000000E+00 -0.24912921468E+03  0.24912921468E+03  0.00000000000E+00 0. -1.
         24    1    1    2    0    0  0.18941845909E+02 -0.22384068282E+02 -0.57617764194E+02  0.10318363603E+03  0.80419002446E+02 0.  0.
          1    1    1    2  501    0  0.53380168899E+01 -0.68563354503E+02 -0.46931594889E+02  0.83258648823E+02  0.00000000000E+00 0. -1.
         -2    1    1    2    0  503 -0.24279862799E+02  0.90947422786E+02 -0.82257692227E+02  0.12500909319E+03  0.00000000000E+00 0.  1.
<mgrwt>
<rscale>  2 0.12425083E+03</rscale>
<asrwt>0</asrwt>
<pdfrwt beam="1">  1       21 0.95880250E-02 0.12425083E+03</pdfrwt>
<pdfrwt beam="2">  1       21 0.38327572E-01 0.12425083E+03</pdfrwt>
<totfact> 0.57780916E+05</totfact>
</mgrwt>
</event>
<event>
 5    1  0.1281005E-004  0.1511406E+03  0.7546771E-02  0.1199078E+00
         21   -1    0    0  503  502  0.00000000000E+00  0.00000000000E+00  0.51307611162E+02  0.51307611162E+02  0.00000000000E+00 0.  1.
         21   -1    0    0  501  503 -0.00000000000E+00 -0.00000000000E+00 -0.44539189369E+03  0.44539189369E+03  0.00000000000E+00 0. -1.
         24    1    1    2    0    0  0.44758564950E+02 -0.20293290301E+02 -0.11846922495E+03  0.15138467552E+03  0.80419002446E+02 0.  0.
          1    1    1    2  501    0  0.75142361722E+02 -0.25991479348E+02 -0.10563671122E+03  0.13221590782E+03  0.00000000000E+00 0. -1.
         -2    1    1    2    0  502 -0.11990092667E+03  0.46284769649E+02 -0.16997834635E+03  0.21309892150E+03  0.00000000000E+00 0.  1.
<mgrwt>
<rscale>  2 0.15114061E+03</rscale>
<asrwt>0</asrwt>
<pdfrwt beam="1">  1       21 0.78934788E-02 0.15114061E+03</pdfrwt>
<pdfrwt beam="2">  1       21 0.68521828E-01 0.15114061E+03</pdfrwt>
<totfact> 0.24126436E+05</totfact>
</mgrwt>
</event>
<event>
 5    1  0.1281005E-004  0.1745642E+03  0.7546771E-02  0.1173170E+00
         21   -1    0    0  503  502  0.00000000000E+00  0.00000000000E+00  0.27721288061E+02  0.27721288061E+02  0.00000000000E+00 0. -1.
         21   -1    0    0  501  503 -0.00000000000E+00 -0.00000000000E+00 -0.14211279558E+04  0.14211279558E+04  0.00000000000E+00 0.  1.
         24    1    1    2    0    0  0.93916433183E+02  0.74066694065E+02 -0.27243992474E+03  0.30821567146E+03  0.80419002446E+02 0. -1.
          1    1    1    2  501    0 -0.14248623306E+03 -0.58026809228E+02 -0.70877119279E+03  0.72527652722E+03  0.00000000000E+00 0. -1.
         -2    1    1    2    0  502  0.48569799877E+02 -0.16039884838E+02 -0.41219555018E+03  0.41535704515E+03  0.00000000000E+00 0.  1.
<mgrwt>
<rscale>  2 0.17456416E+03</rscale>
<asrwt>0</asrwt>
<pdfrwt beam="1">  1       21 0.42648126E-02 0.17456416E+03</pdfrwt>
<pdfrwt beam="2">  1       21 0.21863512E+00 0.17456416E+03</pdfrwt>
<totfact> 0.36579882E+04</totfact>
</mgrwt>
</event>
<event>
 5    1  0.1281005E-004  0.1686677E+03  0.7546771E-02  0.1179244E+00
         21   -1    0    0  503  502  0.00000000000E+00  0.00000000000E+00  0.27297111213E+04  0.27297111213E+04  0.00000000000E+00 0.  1.
         21   -1    0    0  501  503 -0.00000000000E+00 -0.00000000000E+00 -0.11582906503E+02  0.11582906503E+02  0.00000000000E+00 0. -1.
         24    1    1    2    0    0 -0.11374089050E+03 -0.32110659260E+02  0.74599120965E+03  0.75956447089E+03  0.80419002446E+02 0. -1.
          1    1    1    2  501    0  0.14631994618E+03  0.53067398336E+02  0.15282649115E+04  0.15361703405E+04  0.00000000000E+00 0. -1.
         -2    1    1    2    0  502 -0.32579055681E+02 -0.20956739076E+02  0.44387209366E+03  0.44555921640E+03  0.00000000000E+00 0.  1.
<mgrwt>
<rscale>  2 0.16866770E+03</rscale>
<asrwt>0</asrwt>
<pdfrwt beam="1">  1       21 0.41995504E+00 0.16866770E+03</pdfrwt>
<pdfrwt beam="2">  1       21 0.17819878E-02 0.16866770E+03</pdfrwt>
<totfact> 0.10016537E+04</totfact>
</mgrwt>
</event>
<event>
 5    1  0.1281005E-004  0.1504305E+03  0.7546771E-02  0.1199945E+00
         21   -1    0    0  501  502  0.00000000000E+00  0.00000000000E+00  0.98134713984E+02  0.98134713984E+02  0.00000000000E+00 0.  1.
         21   -1    0    0  502  503 -0.00000000000E+00 -0.00000000000E+00 -0.25045940004E+03  0.25045940004E+03  0.00000000000E+00 0. -1.
         24    1    1    2    0    0 -0.46372282020E+02  0.10665156525E+02 -0.53949737015E+01  0.93597306580E+02  0.80419002446E+02 0.  1.
          1    1    1    2  501    0  0.11648649717E+03  0.37478819216E+02 -0.74335551921E+02  0.14317660491E+03  0.00000000000E+00 0. -1.
         -2    1    1    2    0  503 -0.70114215151E+02 -0.48143975741E+02 -0.72594160430E+02  0.11182020253E+03  0.00000000000E+00 0.  1.
<mgrwt>
<rscale>  2 0.15043053E+03</rscale>
<asrwt>0</asrwt>
<pdfrwt beam="1">  1       21 0.15097649E-01 0.15043053E+03</pdfrwt>
<pdfrwt beam="2">  1       21 0.38532215E-01 0.15043053E+03</pdfrwt>
<totfact> 0.25443886E+05</totfact>
</mgrwt>
</event>
<event>
 5    1  0.1281005E-004  0.2403986E+03  0.7546771E-02  0.1119528E+00
         21   -1    0    0  501  502  0.00000000000E+00  0.00000000000E+00  0.18351831563E+04  0.18351831563E+04  0.00000000000E+00 0. -1.
         21   -1    0    0  502  503 -0.00000000000E+00 -0.00000000000E+00 -0.36482621849E+02  0.36482621849E+02  0.00000000000E+00 0.  1.
         24    1    1    2    0    0 -0.32875151785E+02  0.20781217017E+02  0.17904072857E+03  0.20008856296E+03  0.80419002446E+02 0.  0.
          1    1    1    2  501    0  0.21072033001E+03  0.10093142465E+02  0.11340406773E+04  0.11534960714E+04  0.00000000000E+00 0. -1.
         -2    1    1    2    0  503 -0.17784517822E+03 -0.30874359482E+02  0.48561912859E+03  0.51808114378E+03  0.00000000000E+00 0.  1.
<mgrwt>
<rscale>  2 0.24039857E+03</rscale>
<asrwt>0</asrwt>
<pdfrwt beam="1">  1       21 0.28233580E+00 0.24039857E+03</pdfrwt>
<pdfrwt beam="2">  1       21 0.56127125E-02 0.24039857E+03</pdfrwt>
<totfact> 0.91117627E+03</totfact>
</mgrwt>
</event>
<event>
 5    1  0.1281005E-004  0.2299465E+03  0.7546771E-02  0.1126677E+00
         21   -1    0    0  501  502  0.00000000000E+00  0.00000000000E+00  0.17680726158E+03  0.17680726158E+03  0.00000000000E+00 0. -1.
         21   -1    0    0  502  503 -0.00000000000E+00 -0.00000000000E+00 -0.30253612445E+03  0.30253612445E+03  0.00000000000E+00 0.  1.
         24    1    1    2    0    0  0.12675929360E+03  0.46764959655E+01 -0.65254429902E+02  0.16375330441E+03  0.80419002446E+02 0.  0.
          1    1    1    2  501    0 -0.21575313228E+03  0.21806832573E+02 -0.44622610456E+02  0.22139586581E+03  0.00000000000E+00 0. -1.
         -2    1    1    2    0  503  0.88993838676E+02 -0.26483328538E+02 -0.15851822513E+02  0.94194215798E+02  0.00000000000E+00 0.  1.
<mgrwt>
<rscale>  2 0.22994653E+03</rscale>
<asrwt>0</asrwt>
<pdfrwt beam="1">  1       21 0.27201117E-01 0.22994653E+03</pdfrwt>
<pdfrwt beam="2">  1       21 0.46544019E-01 0.22994653E+03</pdfrwt>
<totfact> 0.56005867E+04</totfact>
</mgrwt>
</event>
<event>
 5    1  0.1281005E-004  0.1362969E+03  0.7546771E-02  0.1218400E+00
         21   -1    0    0  503  502  0.00000000000E+00  0.00000000000E+00  0.26204467216E+03  0.26204467216E+03  0.00000000000E+00 0. -1.
         21   -1    0    0  501  503 -0.00000000000E+00 -0.00000000000E+00 -0.77934627435E+02  0.77934627435E+02  0.00000000000E+00 0.  1.
         24    1    1    2    0    0 -0.34874309377E+02 -0.31531890401E+02  0.87694603576E+02  0.12793762940E+03  0.80419002446E+02 0.  1.
          1    1    1    2  501    0  0.59252607643E+02 -0.60232909369E+02  0.12666321063E+02  0.85436002791E+02  0.00000000000E+00 0. -1.
         -2    1    1    2    0  502 -0.24378298266E+02  0.91764799770E+02  0.83749120088E+02  0.12660566740E+03  0.00000000000E+00 0.  1.
<mgrwt>
<rscale>  2 0.13629689E+03</rscale>
<asrwt>0</asrwt>
<pdfrwt beam="1">  1       21 0.40314564E-01 0.13629689E+03</pdfrwt>
<pdfrwt beam="2">  1       21 0.11989943E-01 0.13629689E+03</pdfrwt>
<totfact> 0.35220207E+05</totfact>
</mgrwt>
</event>
<event>
 5    1  0.1281005E-004  0.1091220E+03  0.7546771E-02  0.1262205E+00
         21   -1    0    0  501  502  0.00000000000E+00  0.00000000000E+00  0.17612010697E+03  0.17612010697E+03  0.00000000000E+00 0.  1.
         21   -1    0    0  502  503 -0.00000000000E+00 -0.00000000000E+00 -0.68698651883E+02  0.68698651883E+02  0.00000000000E+00 0. -1.
         24    1    1    2    0    0  0.18017838567E+02  0.34165984589E+02  0.30854897087E+02  0.94399140029E+02  0.80419002446E+02 0.  1.
          1    1    1    2  501    0 -0.28053479703E+02  0.42929972136E+02  0.24388880561E+02  0.56787302507E+02  0.00000000000E+00 0. -1.
         -2    1    1    2    0  503  0.10035641136E+02 -0.77095956725E+02  0.52177677443E+02  0.93632316321E+02  0.00000000000E+00 0.  1.
<mgrwt>
<rscale>  2 0.10912196E+03</rscale>
<asrwt>0</asrwt>
<pdfrwt beam="1">  1       21 0.27095401E-01 0.10912196E+03</pdfrwt>
<pdfrwt beam="2">  1       21 0.10569023E-01 0.10912196E+03</pdfrwt>
<totfact> 0.95508126E+05</totfact>
</mgrwt>
</event>
<event>
 5    1  0.1281005E-004  0.1739280E+03  0.7546771E-02  0.1173812E+00
         21   -1    0    0  503  502  0.00000000000E+00  0.00000000000E+00  0.52250814432E+02  0.52250814432E+02  0.00000000000E+00 0. -1.
         21   -1    0    0  501  503 -0.00000000000E+00 -0.00000000000E+00 -0.64960058509E+03  0.64960058509E+03  0.00000000000E+00 0.  1.
         24    1    1    2    0    0  0.51475209544E+02  0.61611270969E+02 -0.24168165985E+03  0.26706345045E+03  0.80419002446E+02 0.  1.
          1    1    1    2  501    0 -0.10752329124E+03 -0.11456167313E+03 -0.30330446618E+03  0.34158342219E+03  0.00000000000E+00 0. -1.
         -2    1    1    2    0  502  0.56048081700E+02  0.52950402163E+02 -0.52363644634E+02  0.93204526880E+02  0.00000000000E+00 0.  1.
<mgrwt>
<rscale>  2 0.17392804E+03</rscale>
<asrwt>0</asrwt>
<pdfrwt beam="1">  1       21 0.80385866E-02 0.17392804E+03</pdfrwt>
<pdfrwt beam="2">  1       21 0.99938555E-01 0.17392804E+03</pdfrwt>
<totfact> 0.98607330E+04</totfact>
</mgrwt>
</event>
<event>
 5    1  0.1281005E-004  0.1615010E+03  0.7546771E-02  0.1187013E+00
         21   -1    0    0  501  502  0.00000000000E+00  0.00000000000E+00  0.24742132536E+02  0.24742132536E+02  0.00000000000E+00 0. -1.
         21   -1    0    0  502  503 -0.00000000000E+00 -0.00000000000E+00 -0.10542114558E+04  0.10542114558E+04  0.00000000000E+00 0.  1.
         24    1    1    2    0    0  0.17104125663E+01  0.71787386869E+02 -0.34625812049E+03  0.36265445865E+03  0.80419002446E+02 0.  0.
          1    1    1    2  501    0 -0.40393183596E+02 -0.13509191186E+03 -0.44658095179E+03  0.46831184101E+03  0.00000000000E+00 0. -1.
         -2    1    1    2    0  503  0.38682771030E+02  0.63304524989E+02 -0.23663025094E+03  0.24798728862E+03  0.00000000000E+00 0.  1.
<mgrwt>
<rscale>  2 0.16150097E+03</rscale>
<asrwt>0</asrwt>
<pdfrwt beam="1">  1       21 0.38064820E-02 0.16150097E+03</pdfrwt>
<pdfrwt beam="2">  1       21 0.16218637E+00 0.16150097E+03</pdfrwt>
<totfact> 0.10496617E+05</totfact>
</mgrwt>
</event>
<event>
 5    1  0.1281005E-004  0.1019083E+03  0.7546771E-02  0.1276334E+00
         21   -1    0    0  501  502  0.00000000000E+00  0.00000000000E+00  0.38757050228E+02  0.38757050228E+02  0.00000000000E+00 0. -1.
         21   -1    0    0  502  503 -0.00000000000E+00 -0.00000000000E+00 -0.26993449231E+03  0.26993449231E+03  0.00000000000E+00 0.  1.
         24    1    1    2    0    0 -0.27587353245E+01 -0.50843835394E+02 -0.11593459080E+03  0.15000250503E+03  0.80419002446E+02 0. -1.
          1    1    1    2  501    0 -0.38478534299E+02 -0.54378373348E+01 -0.34382024363E+02  0.51887293974E+02  0.00000000000E+00 0. -1.
         -2    1    1    2    0  503  0.41237269623E+02  0.56281672729E+02 -0.80860826927E+02  0.10680174354E+03  0.00000000000E+00 0.  1.
<mgrwt>
<rscale>  2 0.10190828E+03</rscale>
<asrwt>0</asrwt>
<pdfrwt beam="1">  1       21 0.59626231E-02 0.10190828E+03</pdfrwt>
<pdfrwt beam="2">  1       21 0.41528384E-01 0.10190828E+03</pdfrwt>
<totfact> 0.11100568E+06</totfact>
</mgrwt>
</event>
<event>
 5    1  0.1281005E-004  0.1251440E+03  0.7546771E-02  0.1234844E+00
         21   -1    0    0  503  502  0.00000000000E+00  0.00000000000E+00  0.11124844640E+04  0.11124844640E+04  0.00000000000E+00 0. -1.
         21   -1    0    0  501  503 -0.00000000000E+00 -0.00000000000E+00 -0.14344554673E+02  0.14344554673E+02  0.00000000000E+00 0. -1.
         24    1    1    2    0    0  0.43354977116E+02 -0.45501585471E+02  0.38044803402E+03  0.39390096581E+03  0.80419002446E+02 0.  1.
          1    1    1    2  501    0  0.48855593419E+02  0.15782292309E+02  0.27619513900E+03  0.28092651097E+03  0.00000000000E+00 0. -1.
         -2    1    1    2    0  502 -0.92210570535E+02  0.29719293162E+02  0.44149673628E+03  0.45200154187E+03  0.00000000000E+00 0.  1.
<mgrwt>
<rscale>  2 0.12514400E+03</rscale>
<asrwt>0</asrwt>
<pdfrwt beam="1">  1       21 0.17115139E+00 0.12514400E+03</pdfrwt>
<pdfrwt beam="2">  1       21 0.22068554E-02 0.12514400E+03</pdfrwt>
<totfact> 0.22606726E+05</totfact>
</mgrwt>
</event>
<event>
 5    1  0.1281005E-004  0.1210439E+03  0.7546771E-02  0.1241385E+00
         21   -1    0    0  503  502  0.00000000000E+00  0.00000000000E+00  0.51555919010E+02  0.51555919010E+02  0.00000000000E+00 0.  1.
         21   -1    0    0  501  503 -0.00000000000E+00 -0.00000000000E+00 -0.33952499423E+03  0.33952499423E+03  0.00000000000E+00 0.  1.
         24    1    1    2    0    0  0.41027685034E+02  0.49203963675E+02 -0.52215367632E+02  0.11531678781E+03  0.80419002446E+02 0.  1.
          1    1    1    2  501    0 -0.34552091385E+01  0.41212799960E+02 -0.43553843677E+02  0.60061390675E+02  0.00000000000E+00 0. -1.
         -2    1    1    2    0  502 -0.37572475895E+02 -0.90416763635E+02 -0.19219986391E+03  0.21570273475E+03  0.00000000000E+00 0.  1.
<mgrwt>
<rscale>  2 0.12104395E+03</rscale>
<asrwt>0</asrwt>
<pdfrwt beam="1">  1       21 0.79316800E-02 0.12104395E+03</pdfrwt>
<pdfrwt beam="2">  1       21 0.52234614E-01 0.12104395E+03</pdfrwt>
<totfact> 0.42838366E+05</totfact>
</mgrwt>
</event>
<event>
 5    1  0.1281005E-004  0.2461845E+03  0.7546771E-02  0.1115740E+00
         21   -1    0    0  501  502  0.00000000000E+00  0.00000000000E+00  0.64952327772E+02  0.64952327772E+02  0.00000000000E+00 0. -1.
         21   -1    0    0  502  503 -0.00000000000E+00 -0.00000000000E+00 -0.11334225844E+04  0.11334225844E+04  0.00000000000E+00 0.  1.
         24    1    1    2    0    0 -0.10091711533E+03  0.26008145853E+02 -0.43464143325E+03  0.45413773161E+03  0.80419002446E+02 0. -1.
          1    1    1    2  501    0  0.18896494057E+03  0.94666937105E+02 -0.22370644882E+03  0.30775664573E+03  0.00000000000E+00 0. -1.
         -2    1    1    2    0  503 -0.88047825238E+02 -0.12067508296E+03 -0.41012237451E+03  0.43648053479E+03  0.00000000000E+00 0.  1.
<mgrwt>
<rscale>  2 0.24618450E+03</rscale>
<asrwt>0</asrwt>
<pdfrwt beam="1">  1       21 0.99926666E-02 0.24618450E+03</pdfrwt>
<pdfrwt beam="2">  1       21 0.17437269E+00 0.24618450E+03</pdfrwt>
<totfact> 0.15586754E+04</totfact>
</mgrwt>
</event>
<event>
 5    1  0.1281005E-004  0.1467670E+03  0.7546771E-02  0.1204503E+00
         21   -1    0    0  503  502  0.00000000000E+00  0.00000000000E+00  0.25188212907E+02  0.25188212907E+02  0.00000000000E+00 0.  1.
         21   -1    0    0  501  503 -0.00000000000E+00 -0.00000000000E+00 -0.92937007823E+03  0.92937007823E+03  0.00000000000E+00 0. -1.
         24    1    1    2    0    0 -0.18343288635E+02 -0.57158337288E+02 -0.19243586033E+03  0.21703070763E+03  0.80419002446E+02 0.  0.
          1    1    1    2  501    0  0.74022453285E+02  0.98942051330E+02 -0.46753470537E+03  0.48358820689E+03  0.00000000000E+00 0. -1.
         -2    1    1    2    0  502 -0.55679164650E+02 -0.41783714042E+02 -0.24421129962E+03  0.25393937662E+03  0.00000000000E+00 0.  1.
<mgrwt>
<rscale>  2 0.14676699E+03</rscale>
<asrwt>0</asrwt>
<pdfrwt beam="1">  1       21 0.38751101E-02 0.14676699E+03</pdfrwt>
<pdfrwt beam="2">  1       21 0.14298000E+00 0.14676699E+03</pdfrwt>
<totfact> 0.14281323E+05</totfact>
</mgrwt>
</event>
<event>
 5    1  0.1281005E-004  0.2034472E+03  0.7546771E-02  0.1146863E+00
         21   -1    0    0  503  502  0.00000000000E+00  0.00000000000E+00  0.41394529391E+02  0.41394529391E+02  0.00000000000E+00 0. -1.
         21   -1    0    0  501  503 -0.00000000000E+00 -0.00000000000E+00 -0.10173616693E+04  0.10173616693E+04  0.00000000000E+00 0.  1.
         24    1    1    2    0    0 -0.69632701196E+02  0.15291250343E+03 -0.37870062466E+03  0.42203356010E+03  0.80419002446E+02 0.  1.
          1    1    1    2  501    0  0.76078866875E+02 -0.17860386811E+03 -0.52915102797E+03  0.56363831141E+03  0.00000000000E+00 0. -1.
         -2    1    1    2    0  502 -0.64461656782E+01  0.25691364684E+02 -0.68115487232E+02  0.73084327130E+02  0.00000000000E+00 0.  1.
<mgrwt>
<rscale>  2 0.20344721E+03</rscale>
<asrwt>0</asrwt>
<pdfrwt beam="1">  1       21 0.63683893E-02 0.20344721E+03</pdfrwt>
<pdfrwt beam="2">  1       21 0.15651718E+00 0.20344721E+03</pdfrwt>
<totfact> 0.47239816E+04</totfact>
</mgrwt>
</event>
<event>
 5    1  0.1281005E-004  0.1364961E+03  0.7546771E-02  0.1218123E+00
         21   -1    0    0  503  502  0.00000000000E+00  0.00000000000E+00  0.65804344175E+03  0.65804344175E+03  0.00000000000E+00 0. -1.
         21   -1    0    0  501  503 -0.00000000000E+00 -0.00000000000E+00 -0.31024340091E+02  0.31024340091E+02  0.00000000000E+00 0.  1.
         24    1    1    2    0    0 -0.91094834604E+01 -0.41222535016E+02  0.30373370056E+03  0.31702311728E+03  0.80419002446E+02 0. -1.
          1    1    1    2  501    0 -0.14640348592E+02 -0.68425852610E+02  0.15135447557E+03  0.16674715706E+03  0.00000000000E+00 0. -1.
         -2    1    1    2    0  502  0.23749832052E+02  0.10964838763E+03  0.17193092553E+03  0.20529750750E+03  0.00000000000E+00 0.  1.
<mgrwt>
<rscale>  2 0.13649615E+03</rscale>
<asrwt>0</asrwt>
<pdfrwt beam="1">  1       21 0.10123744E+00 0.13649615E+03</pdfrwt>
<pdfrwt beam="2">  1       21 0.47729759E-02 0.13649615E+03</pdfrwt>
<totfact> 0.23594478E+05</totfact>
</mgrwt>
</event>
<event>
 5    1  0.1281005E-004  0.9602935E+02  0.7546771E-02  0.1288874E+00
         21   -1    0    0  503  502  0.00000000000E+00  0.00000000000E+00  0.67135119162E+01  0.67135119162E+01  0.00000000000E+00 0. -1.
         21   -1    0    0  501  503 -0.00000000000E+00 -0.00000000000E+00 -0.16489923600E+04  0.16489923600E+04  0.00000000000E+00 0. -1.
         24    1    1    2    0    0  0.60080986333E+01 -0.50838112170E+02 -0.11523711165E+04  0.11563074924E+04  0.80419002446E+02 0. -1.
          1    1    1    2  501    0 -0.33640819597E+02  0.58998952796E+02 -0.33014353239E+03  0.33705686931E+03  0.00000000000E+00 0. -1.
         -2    1    1    2    0  502  0.27632720964E+02 -0.81608406259E+01 -0.15976419913E+03  0.16234151013E+03  0.00000000000E+00 0.  1.
<mgrwt>
<rscale>  2 0.96029346E+02</rscale>
<asrwt>0</asrwt>
<pdfrwt beam="1">  1       21 0.10328484E-02 0.96029346E+02</pdfrwt>
<pdfrwt beam="2">  1       21 0.25369103E+00 0.96029346E+02</pdfrwt>
<totfact> 0.24193424E+05</totfact>
</mgrwt>
</event>
<event>
 5    1  0.1281005E-004  0.1008175E+03  0.7546771E-02  0.1278586E+00
         21   -1    0    0  501  502  0.00000000000E+00  0.00000000000E+00  0.90691360425E+03  0.90691360425E+03  0.00000000000E+00 0. -1.
         21   -1    0    0  502  503 -0.00000000000E+00 -0.00000000000E+00 -0.11458256065E+02  0.11458256065E+02  0.00000000000E+00 0.  1.
         24    1    1    2    0    0  0.11510032513E+02 -0.29337411839E+02  0.44584865738E+03  0.45413809114E+03  0.80419002446E+02 0.  0.
          1    1    1    2  501    0 -0.59359358412E+02  0.31815509949E+02  0.24459878422E+03  0.25370125216E+03  0.00000000000E+00 0. -1.
         -2    1    1    2    0  503  0.47849325899E+02 -0.24780981095E+01  0.20500790658E+03  0.21053251702E+03  0.00000000000E+00 0.  1.
<mgrwt>
<rscale>  2 0.10081750E+03</rscale>
<asrwt>0</asrwt>
<pdfrwt beam="1">  1       21 0.13952511E+00 0.10081750E+03</pdfrwt>
<pdfrwt beam="2">  1       21 0.17628093E-02 0.10081750E+03</pdfrwt>
<totfact> 0.55697969E+05</totfact>
</mgrwt>
</event>
<event>
 5    1  0.1281005E-004  0.1622062E+03  0.7546771E-02  0.1186228E+00
         21   -1    0    0  503  502  0.00000000000E+00  0.00000000000E+00  0.31196655423E+03  0.31196655423E+03  0.00000000000E+00 0. -1.
         21   -1    0    0  501  503 -0.00000000000E+00 -0.00000000000E+00 -0.84602516257E+02  0.84602516257E+02  0.00000000000E+00 0.  1.
         24    1    1    2    0    0 -0.67873090581E+02  0.44593630186E+02  0.81514722087E+02  0.14038238547E+03  0.80419002446E+02 0.  0.
          1    1    1    2  501    0  0.13376424616E+03 -0.52621350007E+02  0.91473440634E+02  0.17037978274E+03  0.00000000000E+00 0. -1.
         -2    1    1    2    0  502 -0.65891155576E+02  0.80277198211E+01  0.54375875251E+02  0.85806902275E+02  0.00000000000E+00 0.  1.
<mgrwt>
<rscale>  2 0.16220618E+03</rscale>
<asrwt>0</asrwt>
<pdfrwt beam="1">  1       21 0.47994854E-01 0.16220618E+03</pdfrwt>
<pdfrwt beam="2">  1       21 0.13015772E-01 0.16220618E+03</pdfrwt>
<totfact> 0.21230088E+05</totfact>
</mgrwt>
</event>
<event>
 5    1  0.1281005E-004  0.1197744E+03  0.7546771E-02  0.1243470E+00
         21   -1    0    0  501  502  0.00000000000E+00  0.00000000000E+00  0.25829460904E+02  0.25829460904E+02  0.00000000000E+00 0.  1.
         21   -1    0    0  502  503 -0.00000000000E+00 -0.00000000000E+00 -0.56029503156E+03  0.56029503156E+03  0.00000000000E+00 0. -1.
         24    1    1    2    0    0  0.15774878373E+02 -0.71685651450E+02 -0.21820932948E+03  0.24386514068E+03  0.80419002446E+02 0.  1.
          1    1    1    2  501    0 -0.33237160913E+02  0.95511156801E+02 -0.25218853417E+03  0.27170967356E+03  0.00000000000E+00 0. -1.
         -2    1    1    2    0  503  0.17462282540E+02 -0.23825505352E+02 -0.64067707003E+02  0.70549678223E+02  0.00000000000E+00 0.  1.
<mgrwt>
<rscale>  2 0.11977442E+03</rscale>
<asrwt>0</asrwt>
<pdfrwt beam="1">  1       21 0.39737632E-02 0.11977442E+03</pdfrwt>
<pdfrwt beam="2">  1       21 0.86199235E-01 0.11977442E+03</pdfrwt>
<totfact> 0.46565644E+05</totfact>
</mgrwt>
</event>
<event>
 5    1  0.1281005E-004  0.3026896E+03  0.7546771E-02  0.1083904E+00
         21   -1    0    0  501  502  0.00000000000E+00  0.00000000000E+00  0.34708306361E+03  0.34708306361E+03  0.00000000000E+00 0. -1.
         21   -1    0    0  502  503 -0.00000000000E+00 -0.00000000000E+00 -0.26455715052E+03  0.26455715052E+03  0.00000000000E+00 0.  1.
         24    1    1    2    0    0  0.21451510272E+02 -0.28218924487E+03  0.38774516691E+02  0.29675177559E+03  0.80419002446E+02 0.  1.
          1    1    1    2  501    0  0.35731723638E+01  0.28585719979E+03  0.34483339936E+02  0.28795174416E+03  0.00000000000E+00 0. -1.
         -2    1    1    2    0  503 -0.25024682636E+02 -0.36679549147E+01  0.92680564618E+01  0.26936694394E+02  0.00000000000E+00 0.  1.
<mgrwt>
<rscale>  2 0.30268963E+03</rscale>
<asrwt>0</asrwt>
<pdfrwt beam="1">  1       21 0.53397394E-01 0.30268963E+03</pdfrwt>
<pdfrwt beam="2">  1       21 0.40701100E-01 0.30268963E+03</pdfrwt>
<totfact> 0.18275904E+04</totfact>
</mgrwt>
</event>
<event>
 5    1  0.1281005E-004  0.2211387E+03  0.7546771E-02  0.1133037E+00
         21   -1    0    0  501  502  0.00000000000E+00  0.00000000000E+00  0.36133572165E+03  0.36133572165E+03  0.00000000000E+00 0. -1.
         21   -1    0    0  502  503 -0.00000000000E+00 -0.00000000000E+00 -0.15852750262E+03  0.15852750262E+03  0.00000000000E+00 0.  1.
         24    1    1    2    0    0  0.24496595538E+02 -0.16096547733E+02 -0.32838758687E+02  0.91677598509E+02  0.80419002446E+02 0.  1.
          1    1    1    2  501    0  0.81150388133E+02  0.15926909385E+03  0.13264769040E+03  0.22259254147E+03  0.00000000000E+00 0. -1.
         -2    1    1    2    0  503 -0.10564698367E+03 -0.14317254612E+03  0.10299928731E+03  0.20559308429E+03  0.00000000000E+00 0.  1.
<mgrwt>
<rscale>  2 0.22113866E+03</rscale>
<asrwt>0</asrwt>
<pdfrwt beam="1">  1       21 0.55590111E-01 0.22113866E+03</pdfrwt>
<pdfrwt beam="2">  1       21 0.24388847E-01 0.22113866E+03</pdfrwt>
<totfact> 0.47764385E+04</totfact>
</mgrwt>
</event>
<event>
 5    1  0.5183716E-004  0.4992144E+03  0.7546771E-02  0.1013984E+00
         21   -1    0    0  503  502  0.00000000000E+00  0.00000000000E+00  0.35448140623E+03  0.35448140623E+03  0.00000000000E+00 0. -1.
         21   -1    0    0  501  503 -0.00000000000E+00 -0.00000000000E+00 -0.87977538357E+03  0.87977538357E+03  0.00000000000E+00 0.  1.
         24    1    1    2    0    0 -0.89126637958E+02 -0.60902163316E+02 -0.23342759327E+03  0.26945925173E+03  0.80419002446E+02 0.  1.
          1    1    1    2  501    0 -0.36493785683E+03 -0.10604927986E+03  0.33919074014E+02  0.38154500743E+03  0.00000000000E+00 0. -1.
         -2    1    1    2    0  502  0.45406449479E+03  0.16695144318E+03 -0.32578545808E+03  0.58325253065E+03  0.00000000000E+00 0.  1.
<mgrwt>
<rscale>  2 0.49921436E+03</rscale>
<asrwt>0</asrwt>
<pdfrwt beam="1">  1       21 0.54535602E-01 0.49921436E+03</pdfrwt>
<pdfrwt beam="2">  1       21 0.13535006E+00 0.49921436E+03</pdfrwt>
<totfact> 0.10301052E+03</totfact>
</mgrwt>
</event>
<event>
 5    1  0.1281005E-004  0.2245033E+03  0.7546771E-02  0.1130570E+00
         21   -1    0    0  501  502  0.00000000000E+00  0.00000000000E+00  0.82712114396E+02  0.82712114396E+02  0.00000000000E+00 0.  1.
         21   -1    0    0  502  503 -0.00000000000E+00 -0.00000000000E+00 -0.10188478045E+04  0.10188478045E+04  0.00000000000E+00 0. -1.
         24    1    1    2    0    0  0.70788560962E+02 -0.49037727743E+02 -0.15295185409E+02  0.11881446779E+03  0.80419002446E+02 0.  1.
          1    1    1    2  501    0 -0.19129858723E+03  0.79052727866E+02 -0.69304756782E+03  0.72329759748E+03  0.00000000000E+00 0. -1.
         -2    1    1    2    0  503  0.12051002627E+03 -0.30015000123E+02 -0.22779293691E+03  0.25944785366E+03  0.00000000000E+00 0.  1.
<mgrwt>
<rscale>  2 0.22450331E+03</rscale>
<asrwt>0</asrwt>
<pdfrwt beam="1">  1       21 0.12724941E-01 0.22450331E+03</pdfrwt>
<pdfrwt beam="2">  1       21 0.15674582E+00 0.22450331E+03</pdfrwt>
<totfact> 0.13741831E+04</totfact>
</mgrwt>
</event>
<event>
 5    1  0.1281005E-004  0.2044351E+03  0.7546771E-02  0.1146050E+00
         21   -1    0    0  501  502  0.00000000000E+00  0.00000000000E+00  0.42094564741E+03  0.42094564741E+03  0.00000000000E+00 0.  1.
         21   -1    0    0  502  503 -0.00000000000E+00 -0.00000000000E+00 -0.99658642404E+02  0.99658642404E+02  0.00000000000E+00 0. -1.
         24    1    1    2    0    0 -0.25988649779E+02 -0.57016873862E+02  0.70612136301E+02  0.12401461031E+03  0.80419002446E+02 0.  0.
          1    1    1    2  501    0 -0.32202057553E+02 -0.11808840068E+03  0.90148907844E+02  0.15201535604E+03  0.00000000000E+00 0. -1.
         -2    1    1    2    0  503  0.58190707332E+02  0.17510527454E+03  0.16052596086E+03  0.24457432347E+03  0.00000000000E+00 0.  1.
<mgrwt>
<rscale>  2 0.20443507E+03</rscale>
<asrwt>0</asrwt>
<pdfrwt beam="1">  1       21 0.64760868E-01 0.20443507E+03</pdfrwt>
<pdfrwt beam="2">  1       21 0.15332099E-01 0.20443507E+03</pdfrwt>
<totfact> 0.82392689E+04</totfact>
</mgrwt>
</event>
<event>
 5    1  0.1281005E-004  0.1883902E+03  0.7546771E-02  0.1159921E+00
         21   -1    0    0  501  502  0.00000000000E+00  0.00000000000E+00  0.21049063122E+04  0.21049063122E+04  0.00000000000E+00 0.  1.
         21   -1    0    0  502  503 -0.00000000000E+00 -0.00000000000E+00 -0.17851891699E+02  0.17851891699E+02  0.00000000000E+00 0.  1.
         24    1    1    2    0    0 -0.13674087548E+03 -0.43628782334E+02  0.67084116910E+03  0.69072181650E+03  0.80419002446E+02 0.  1.
          1    1    1    2  501    0 -0.34533338754E+02 -0.32354700898E+01  0.22154750271E+03  0.22424610523E+03  0.00000000000E+00 0. -1.
         -2    1    1    2    0  503  0.17127421423E+03  0.46864252424E+02  0.11946657486E+04  0.12077902821E+04  0.00000000000E+00 0.  1.
<mgrwt>
<rscale>  2 0.18839022E+03</rscale>
<asrwt>0</asrwt>
<pdfrwt beam="1">  1       21 0.32383154E+00 0.18839022E+03</pdfrwt>
<pdfrwt beam="2">  1       21 0.27464465E-02 0.18839022E+03</pdfrwt>
<totfact> 0.18290589E+04</totfact>
</mgrwt>
</event>
<event>
 5    1  0.1281005E-004  0.1193497E+03  0.7546771E-02  0.1244174E+00
         21   -1    0    0  503  502  0.00000000000E+00  0.00000000000E+00  0.54162855283E+03  0.54162855283E+03  0.00000000000E+00 0.  1.
         21   -1    0    0  501  503 -0.00000000000E+00 -0.00000000000E+00 -0.27273587942E+02  0.27273587942E+02  0.00000000000E+00 0. -1.
         24    1    1    2    0    0  0.29293260285E+02 -0.71791594287E+02  0.18896155777E+03  0.21951267475E+03  0.80419002446E+02 0. -1.
          1    1    1    2  501    0 -0.43727091996E+02  0.92169809945E+02  0.25212190287E+03  0.27197938589E+03  0.00000000000E+00 0. -1.
         -2    1    1    2    0  502  0.14433831711E+02 -0.20378215659E+02  0.73271504253E+02  0.77410080137E+02  0.00000000000E+00 0.  1.
<mgrwt>
<rscale>  2 0.11934972E+03</rscale>
<asrwt>0</asrwt>
<pdfrwt beam="1">  1       21 0.83327461E-01 0.11934972E+03</pdfrwt>
<pdfrwt beam="2">  1       21 0.41959370E-02 0.11934972E+03</pdfrwt>
<totfact> 0.45924966E+05</totfact>
</mgrwt>
</event>
<event>
 5    1  0.1281005E-004  0.1752310E+03  0.7546771E-02  0.1172500E+00
         21   -1    0    0  503  502  0.00000000000E+00  0.00000000000E+00  0.39697714604E+03  0.39697714604E+03  0.00000000000E+00 0.  1.
         21   -1    0    0  501  503 -0.00000000000E+00 -0.00000000000E+00 -0.80674879055E+02  0.80674879055E+02  0.00000000000E+00 0. -1.
         24    1    1    2    0    0  0.67979443902E+02 -0.10831349610E+02  0.88937738639E+02  0.13825939475E+03  0.80419002446E+02 0.  0.
          1    1    1    2  501    0  0.79025833911E+02  0.48666230838E+02  0.12746539518E+03  0.15767343282E+03  0.00000000000E+00 0. -1.
         -2    1    1    2    0  502 -0.14700527781E+03 -0.37834881228E+02  0.99899133169E+02  0.18171919753E+03  0.00000000000E+00 0.  1.
<mgrwt>
<rscale>  2 0.17523102E+03</rscale>
<asrwt>0</asrwt>
<pdfrwt beam="1">  1       21 0.61073406E-01 0.17523102E+03</pdfrwt>
<pdfrwt beam="2">  1       21 0.12411520E-01 0.17523102E+03</pdfrwt>
<totfact> 0.13861723E+05</totfact>
</mgrwt>
</event>
<event>
 5    1  0.1281005E-004  0.2353817E+03  0.7546771E-02  0.1122908E+00
         21   -1    0    0  503  502  0.00000000000E+00  0.00000000000E+00  0.11138546828E+03  0.11138546828E+03  0.00000000000E+00 0.  1.
         21   -1    0    0  501  503 -0.00000000000E+00 -0.00000000000E+00 -0.59246720125E+03  0.59246720125E+03  0.00000000000E+00 0. -1.
         24    1    1    2    0    0  0.96867893898E+02  0.14516497639E+02 -0.26529522110E+03  0.29401171382E+03  0.80419002446E+02 0.  1.
          1    1    1    2  501    0 -0.21071743034E+03  0.45139233947E+02 -0.16592911759E+03  0.27197767914E+03  0.00000000000E+00 0. -1.
         -2    1    1    2    0  502  0.11384953644E+03 -0.59655731586E+02 -0.49857394279E+02  0.13786327656E+03  0.00000000000E+00 0.  1.
<mgrwt>
<rscale>  2 0.23538175E+03</rscale>
<asrwt>0</asrwt>
<pdfrwt beam="1">  1       21 0.17136226E-01 0.23538175E+03</pdfrwt>
<pdfrwt beam="2">  1       21 0.91148801E-01 0.23538175E+03</pdfrwt>
<totfact> 0.30659199E+04</totfact>
</mgrwt>
</event>
<event>
 5    1  0.1281005E-004  0.1967082E+03  0.7546771E-02  0.1152546E+00
         21   -1    0    0  503  502  0.00000000000E+00  0.00000000000E+00  0.62514679036E+02  0.62514679036E+02  0.00000000000E+00 0. -1.
         21   -1    0    0  501  503 -0.00000000000E+00 -0.00000000000E+00 -0.63261638907E+03  0.63261638907E+03  0.00000000000E+00 0.  1.
         24    1    1    2    0    0  0.51908023602E+02  0.39522913777E+02 -0.13525610515E+03  0.17034651027E+03  0.80419002446E+02 0.  0.
          1    1    1    2  501    0 -0.14644505800E+03 -0.10027545897E+03 -0.22330100208E+03  0.28524491268E+03  0.00000000000E+00 0. -1.
         -2    1    1    2    0  502  0.94537034398E+02  0.60752545193E+02 -0.21154460281E+03  0.23953964515E+03  0.00000000000E+00 0.  1.
<mgrwt>
<rscale>  2 0.19670822E+03</rscale>
<asrwt>0</asrwt>
<pdfrwt beam="1">  1       21 0.96176433E-02 0.19670822E+03</pdfrwt>
<pdfrwt beam="2">  1       21 0.97325594E-01 0.19670822E+03</pdfrwt>
<totfact> 0.75935862E+04</totfact>
</mgrwt>
</event>
<event>
 5    1  0.1281005E-004  0.8756831E+02  0.7546771E-02  0.1308850E+00
         21   -1    0    0  503  502  0.00000000000E+00  0.00000000000E+00  0.58256866865E+02  0.58256866865E+02  0.00000000000E+00 0. -1.
         21   -1    0    0  501  503 -0.00000000000E+00 -0.00000000000E+00 -0.13533044351E+03  0.13533044351E+03  0.00000000000E+00 0.  1.
         24    1    1    2    0    0 -0.11964460109E+01  0.22502186514E+02 -0.40986358512E+02  0.93031593663E+02  0.80419002446E+02 0. -1.
          1    1    1    2  501    0 -0.40241919959E+02  0.68749676321E+01 -0.27022306102E+02  0.48957964919E+02  0.00000000000E+00 0. -1.
         -2    1    1    2    0  502  0.41438365970E+02 -0.29377154146E+02 -0.90649120312E+01  0.51597751793E+02  0.00000000000E+00 0.  1.
<mgrwt>
<rscale>  2 0.87568315E+02</rscale>
<asrwt>0</asrwt>
<pdfrwt beam="1">  1       21 0.89625948E-02 0.87568315E+02</pdfrwt>
<pdfrwt beam="2">  1       21 0.20820068E-01 0.87568315E+02</pdfrwt>
<totfact> 0.20660034E+06</totfact>
</mgrwt>
</event>
<event>
 5    1  0.1281005E-004  0.1358555E+03  0.7546771E-02  0.1219017E+00
         21   -1    0    0  503  502  0.00000000000E+00  0.00000000000E+00  0.54284112572E+03  0.54284112572E+03  0.00000000000E+00 0.  1.
         21   -1    0    0  501  503 -0.00000000000E+00 -0.00000000000E+00 -0.35395565912E+02  0.35395565912E+02  0.00000000000E+00 0. -1.
         24    1    1    2    0    0 -0.40435927993E+02  0.19601559586E+02  0.16057777270E+03  0.18512623383E+03  0.80419002446E+02 0.  1.
          1    1    1    2  501    0  0.10734477951E+03  0.70299436591E+01  0.25204198295E+03  0.27403919969E+03  0.00000000000E+00 0. -1.
         -2    1    1    2    0  502 -0.66908851515E+02 -0.26631503245E+02  0.94825804161E+02  0.11907125812E+03  0.00000000000E+00 0.  1.
<mgrwt>
<rscale>  2 0.13585552E+03</rscale>
<asrwt>0</asrwt>
<pdfrwt beam="1">  1       21 0.83514013E-01 0.13585552E+03</pdfrwt>
<pdfrwt beam="2">  1       21 0.54454721E-02 0.13585552E+03</pdfrwt>
<totfact> 0.29437575E+05</totfact>
</mgrwt>
</event>
<event>
 5    1  0.1281005E-004  0.2021657E+03  0.7546771E-02  0.1147925E+00
         21   -1    0    0  501  502  0.00000000000E+00  0.00000000000E+00  0.47514238153E+03  0.47514238153E+03  0.00000000000E+00 0. -1.
         21   -1    0    0  502  503 -0.00000000000E+00 -0.00000000000E+00 -0.88421570060E+02  0.88421570060E+02  0.00000000000E+00 0. -1.
         24    1    1    2    0    0  0.17380995074E+02 -0.15885912496E+03  0.16488739235E+03  0.24329691466E+03  0.80419002446E+02 0. -1.
          1    1    1    2  501    0 -0.36070819892E+01  0.19070204686E+03  0.20980659285E+03  0.28354732960E+03  0.00000000000E+00 0. -1.
         -2    1    1    2    0  503 -0.13773913085E+02 -0.31842921902E+02  0.12026826272E+02  0.36719707339E+02  0.00000000000E+00 0.  1.
<mgrwt>
<rscale>  2 0.20216567E+03</rscale>
<asrwt>0</asrwt>
<pdfrwt beam="1">  1       21 0.73098826E-01 0.20216567E+03</pdfrwt>
<pdfrwt beam="2">  1       21 0.13603319E-01 0.20216567E+03</pdfrwt>
<totfact> 0.78518776E+04</totfact>
</mgrwt>
</event>
<event>
 5    1  0.1281005E-004  0.1614035E+03  0.7546771E-02  0.1187121E+00
         21   -1    0    0  503  502  0.00000000000E+00  0.00000000000E+00  0.11137131516E+03  0.11137131516E+03  0.00000000000E+00 0.  1.
         21   -1    0    0  501  503 -0.00000000000E+00 -0.00000000000E+00 -0.23484873087E+03  0.23484873087E+03  0.00000000000E+00 0.  1.
         24    1    1    2    0    0  0.10648438882E+03 -0.71432503530E+02 -0.68821790712E+02  0.16626840486E+03  0.80419002446E+02 0.  1.
          1    1    1    2  501    0  0.22711351491E+02  0.25944806384E+02 -0.10894414148E+02  0.36161121726E+02  0.00000000000E+00 0. -1.
         -2    1    1    2    0  502 -0.12919574031E+03  0.45487697146E+02 -0.43761210856E+02  0.14379051944E+03  0.00000000000E+00 0.  1.
<mgrwt>
<rscale>  2 0.16140346E+03</rscale>
<asrwt>0</asrwt>
<pdfrwt beam="1">  1       21 0.17134049E-01 0.16140346E+03</pdfrwt>
<pdfrwt beam="2">  1       21 0.36130573E-01 0.16140346E+03</pdfrwt>
<totfact> 0.22912574E+05</totfact>
</mgrwt>
</event>
<event>
 5    1  0.1281005E-004  0.2118292E+03  0.7546771E-02  0.1140126E+00
         21   -1    0    0  503  502  0.00000000000E+00  0.00000000000E+00  0.10979117648E+04  0.10979117648E+04  0.00000000000E+00 0. -1.
         21   -1    0    0  501  503 -0.00000000000E+00 -0.00000000000E+00 -0.42205573710E+02  0.42205573710E+02  0.00000000000E+00 0. -1.
         24    1    1    2    0    0  0.14425446615E+03  0.60865722760E+02  0.39137738701E+03  0.42913571540E+03  0.80419002446E+02 0. -1.
          1    1    1    2  501    0 -0.19183130247E+03 -0.41455118656E+02  0.57919409371E+03  0.61154196394E+03  0.00000000000E+00 0. -1.
         -2    1    1    2    0  502  0.47576836324E+02 -0.19410604104E+02  0.85134710327E+02  0.99439659135E+02  0.00000000000E+00 0.  1.
<mgrwt>
<rscale>  2 0.21182918E+03</rscale>
<asrwt>0</asrwt>
<pdfrwt beam="1">  1       21 0.16890948E+00 0.21182918E+03</pdfrwt>
<pdfrwt beam="2">  1       21 0.64931660E-02 0.21182918E+03</pdfrwt>
<totfact> 0.36953010E+04</totfact>
</mgrwt>
</event>
<event>
 5    1  0.1293720E-004  0.3971921E+03  0.7546771E-02  0.1044756E+00
         21   -1    0    0  501  502  0.00000000000E+00  0.00000000000E+00  0.18106754213E+04  0.18106754213E+04  0.00000000000E+00 0. -1.
         21   -1    0    0  502  503 -0.00000000000E+00 -0.00000000000E+00 -0.87312170508E+02  0.87312170508E+02  0.00000000000E+00 0.  1.
         24    1    1    2    0    0  0.56461756570E+02  0.15302645709E+02  0.18831481667E+03  0.21295959019E+03  0.80419002446E+02 0. -1.
          1    1    1    2  501    0  0.17119292909E+03 -0.29086335366E+03  0.74273708789E+03  0.81582283077E+03  0.00000000000E+00 0. -1.
         -2    1    1    2    0  503 -0.22765468566E+03  0.27556070795E+03  0.79231134624E+03  0.86920517087E+03  0.00000000000E+00 0.  1.
<mgrwt>
<rscale>  2 0.39719210E+03</rscale>
<asrwt>0</asrwt>
<pdfrwt beam="1">  1       21 0.27856542E+00 0.39719210E+03</pdfrwt>
<pdfrwt beam="2">  1       21 0.13432643E-01 0.39719210E+03</pdfrwt>
<totfact> 0.18374483E+03</totfact>
</mgrwt>
</event>
<event>
 5    1  0.1281005E-004  0.3060061E+03  0.7546771E-02  0.1082276E+00
         21   -1    0    0  503  502  0.00000000000E+00  0.00000000000E+00  0.96134005359E+03  0.96134005359E+03  0.00000000000E+00 0.  1.
         21   -1    0    0  501  503 -0.00000000000E+00 -0.00000000000E+00 -0.12724302036E+03  0.12724302036E+03  0.00000000000E+00 0. -1.
         24    1    1    2    0    0 -0.11065325173E+03 -0.17744900737E+03  0.42393574587E+03  0.47950080804E+03  0.80419002446E+02 0. -1.
          1    1    1    2  501    0  0.14852967483E+03  0.25870432106E+03  0.14998346454E+03  0.33389224261E+03  0.00000000000E+00 0. -1.
         -2    1    1    2    0  502 -0.37876423107E+02 -0.81255313691E+02  0.26017782282E+03  0.27519002329E+03  0.00000000000E+00 0.  1.
<mgrwt>
<rscale>  2 0.30600614E+03</rscale>
<asrwt>0</asrwt>
<pdfrwt beam="1">  1       21 0.14789846E+00 0.30600614E+03</pdfrwt>
<pdfrwt beam="2">  1       21 0.19575850E-01 0.30600614E+03</pdfrwt>
<totfact> 0.69292405E+03</totfact>
</mgrwt>
</event>
<event>
 5    1  0.1281005E-004  0.1261160E+03  0.7546771E-02  0.1233335E+00
         21   -1    0    0  503  502  0.00000000000E+00  0.00000000000E+00  0.38583409400E+03  0.38583409400E+03  0.00000000000E+00 0.  1.
         21   -1    0    0  501  503 -0.00000000000E+00 -0.00000000000E+00 -0.41850652548E+02  0.41850652548E+02  0.00000000000E+00 0. -1.
         24    1    1    2    0    0 -0.52431342312E+02  0.69915218446E+02  0.14094992646E+03  0.18431299778E+03  0.80419002446E+02 0. -1.
          1    1    1    2  501    0 -0.30198669277E+02 -0.11670849725E+02  0.60628227610E+02  0.68730999866E+02  0.00000000000E+00 0. -1.
         -2    1    1    2    0  502  0.82630011590E+02 -0.58244368721E+02  0.14240528738E+03  0.17464074890E+03  0.00000000000E+00 0.  1.
<mgrwt>
<rscale>  2 0.12611600E+03</rscale>
<asrwt>0</asrwt>
<pdfrwt beam="1">  1       21 0.59359089E-01 0.12611600E+03</pdfrwt>
<pdfrwt beam="2">  1       21 0.64385622E-02 0.12611600E+03</pdfrwt>
<totfact> 0.46797007E+05</totfact>
</mgrwt>
</event>
<event>
 5    1  0.1281005E-004  0.1663341E+03  0.7546771E-02  0.1181726E+00
         21   -1    0    0  501  502  0.00000000000E+00  0.00000000000E+00  0.16795848473E+03  0.16795848473E+03  0.00000000000E+00 0.  1.
         21   -1    0    0  502  503 -0.00000000000E+00 -0.00000000000E+00 -0.16767619119E+03  0.16767619119E+03  0.00000000000E+00 0.  1.
         24    1    1    2    0    0  0.79264291311E+02 -0.25353559128E+02 -0.14834307877E+02  0.11667434800E+03  0.80419002446E+02 0.  1.
          1    1    1    2  501    0  0.67030018044E+02 -0.60879006152E+01  0.16581350423E+02  0.69318302307E+02  0.00000000000E+00 0. -1.
         -2    1    1    2    0  503 -0.14629430935E+03  0.31441459744E+02 -0.14647490057E+01  0.14964202561E+03  0.00000000000E+00 0.  1.
<mgrwt>
<rscale>  2 0.16633412E+03</rscale>
<asrwt>0</asrwt>
<pdfrwt beam="1">  1       21 0.25839767E-01 0.16633412E+03</pdfrwt>
<pdfrwt beam="2">  1       21 0.25796337E-01 0.16633412E+03</pdfrwt>
<totfact> 0.20438147E+05</totfact>
</mgrwt>
</event>
<event>
 5    1  0.1281005E-004  0.3238338E+03  0.7546771E-02  0.1073898E+00
         21   -1    0    0  501  502  0.00000000000E+00  0.00000000000E+00  0.40229844822E+03  0.40229844822E+03  0.00000000000E+00 0. -1.
         21   -1    0    0  502  503 -0.00000000000E+00 -0.00000000000E+00 -0.27472299905E+03  0.27472299905E+03  0.00000000000E+00 0.  1.
         24    1    1    2    0    0 -0.37105665078E+02 -0.82352819419E+02  0.96316987137E+01  0.12132107328E+03  0.80419002446E+02 0. -1.
          1    1    1    2  501    0 -0.23261242413E+03 -0.30014309287E+02  0.12010334378E+03  0.26350372257E+03  0.00000000000E+00 0. -1.
         -2    1    1    2    0  503  0.26971808921E+03  0.11236712871E+03 -0.21595933309E+01  0.29219665142E+03  0.00000000000E+00 0.  1.
<mgrwt>
<rscale>  2 0.32383382E+03</rscale>
<asrwt>0</asrwt>
<pdfrwt beam="1">  1       21 0.61892069E-01 0.32383382E+03</pdfrwt>
<pdfrwt beam="2">  1       21 0.42265077E-01 0.32383382E+03</pdfrwt>
<totfact> 0.12195948E+04</totfact>
</mgrwt>
</event>
<event>
 5    1  0.1281005E-004  0.1910396E+03  0.7546771E-02  0.1157527E+00
         21   -1    0    0  501  502  0.00000000000E+00  0.00000000000E+00  0.20116951241E+03  0.20116951241E+03  0.00000000000E+00 0. -1.
         21   -1    0    0  502  503 -0.00000000000E+00 -0.00000000000E+00 -0.19072802335E+03  0.19072802335E+03  0.00000000000E+00 0.  1.
         24    1    1    2    0    0  0.14901559394E+02  0.97054448057E+02  0.41246293240E+02  0.13345446797E+03  0.80419002446E+02 0.  1.
          1    1    1    2  501    0 -0.70547759129E+02  0.57423415073E+02  0.20797350419E+01  0.90987692655E+02  0.00000000000E+00 0. -1.
         -2    1    1    2    0  503  0.55646199736E+02 -0.15447786313E+03 -0.32884539223E+02  0.16745537514E+03  0.00000000000E+00 0.  1.
<mgrwt>
<rscale>  2 0.19103963E+03</rscale>
<asrwt>0</asrwt>
<pdfrwt beam="1">  1       21 0.30949156E-01 0.19103963E+03</pdfrwt>
<pdfrwt beam="2">  1       21 0.29342773E-01 0.19103963E+03</pdfrwt>
<totfact> 0.11163183E+05</totfact>
</mgrwt>
</event>
<event>
 5    1  0.1281005E-004  0.1671456E+03  0.7546771E-02  0.1180858E+00
         21   -1    0    0  503  502  0.00000000000E+00  0.00000000000E+00  0.50727209711E+02  0.50727209711E+02  0.00000000000E+00 0.  1.
         21   -1    0    0  501  503 -0.00000000000E+00 -0.00000000000E+00 -0.56093818209E+03  0.56093818209E+03  0.00000000000E+00 0. -1.
         24    1    1    2    0    0 -0.43925846277E+02  0.59975230206E+02 -0.14801844562E+03  0.18412817385E+03  0.80419002446E+02 0.  1.
          1    1    1    2  501    0 -0.29766126217E+02  0.69607187264E+02 -0.15250156775E+03  0.17025836530E+03  0.00000000000E+00 0. -1.
         -2    1    1    2    0  502  0.73691972493E+02 -0.12958241747E+03 -0.20969095901E+03  0.25727885264E+03  0.00000000000E+00 0.  1.
<mgrwt>
<rscale>  2 0.16714563E+03</rscale>
<asrwt>0</asrwt>
<pdfrwt beam="1">  1       21 0.78041859E-02 0.16714563E+03</pdfrwt>
<pdfrwt beam="2">  1       21 0.86298185E-01 0.16714563E+03</pdfrwt>
<totfact> 0.14634138E+05</totfact>
</mgrwt>
</event>
<event>
 5    1  0.1281005E-004  0.1128576E+03  0.7546771E-02  0.1255368E+00
         21   -1    0    0  501  502  0.00000000000E+00  0.00000000000E+00  0.10985241161E+02  0.10985241161E+02  0.00000000000E+00 0.  1.
         21   -1    0    0  502  503 -0.00000000000E+00 -0.00000000000E+00 -0.11647785380E+04  0.11647785380E+04  0.00000000000E+00 0. -1.
         24    1    1    2    0    0 -0.39538243572E+02 -0.29918233963E+02 -0.45200904530E+03  0.46177674954E+03  0.80419002446E+02 0.  0.
          1    1    1    2  501    0  0.24163303886E+02 -0.46974539658E+02 -0.26338407218E+03  0.26862919073E+03  0.00000000000E+00 0. -1.
         -2    1    1    2    0  503  0.15374939686E+02  0.76892773621E+02 -0.43840017931E+03  0.44535783885E+03  0.00000000000E+00 0.  1.
<mgrwt>
<rscale>  2 0.11285755E+03</rscale>
<asrwt>0</asrwt>
<pdfrwt beam="1">  1       21 0.16900386E-02 0.11285755E+03</pdfrwt>
<pdfrwt beam="2">  1       21 0.17919654E+00 0.11285755E+03</pdfrwt>
<totfact> 0.30811795E+05</totfact>
</mgrwt>
</event>
<event>
 5    1  0.1281005E-004  0.1249765E+03  0.7546771E-02  0.1235106E+00
         21   -1    0    0  503  502  0.00000000000E+00  0.00000000000E+00  0.41157372250E+03  0.41157372250E+03  0.00000000000E+00 0.  1.
         21   -1    0    0  501  503 -0.00000000000E+00 -0.00000000000E+00 -0.42940274165E+02  0.42940274165E+02  0.00000000000E+00 0. -1.
         24    1    1    2    0    0  0.44502893352E+02 -0.74932332087E+01  0.18806792538E+03  0.20945982090E+03  0.80419002446E+02 0. -1.
          1    1    1    2  501    0 -0.81983637085E+02  0.53876888323E+02  0.73795753117E+02  0.12275931339E+03  0.00000000000E+00 0. -1.
         -2    1    1    2    0  502  0.37480743734E+02 -0.46383655114E+02  0.10676976985E+03  0.12229486238E+03  0.00000000000E+00 0.  1.
<mgrwt>
<rscale>  2 0.12497646E+03</rscale>
<asrwt>0</asrwt>
<pdfrwt beam="1">  1       21 0.63319032E-01 0.12497646E+03</pdfrwt>
<pdfrwt beam="2">  1       21 0.66061963E-02 0.12497646E+03</pdfrwt>
<totfact> 0.39042476E+05</totfact>
</mgrwt>
</event>
<event>
 5    1  0.1281005E-004  0.3302301E+03  0.7546771E-02  0.1071035E+00
         21   -1    0    0  501  502  0.00000000000E+00  0.00000000000E+00  0.13035748760E+03  0.13035748760E+03  0.00000000000E+00 0.  1.
         21   -1    0    0  502  503 -0.00000000000E+00 -0.00000000000E+00 -0.84169201098E+03  0.84169201098E+03  0.00000000000E+00 0. -1.
         24    1    1    2    0    0  0.15838509475E+02  0.12855828861E+03 -0.14299428557E+03  0.20902792544E+03  0.80419002446E+02 0. -1.
          1    1    1    2  501    0 -0.13071227335E+03  0.15458306030E+03 -0.25142097007E+03  0.32279114784E+03  0.00000000000E+00 0. -1.
         -2    1    1    2    0  503  0.11487376387E+03 -0.28314134891E+03 -0.31691926774E+03  0.44023042529E+03  0.00000000000E+00 0.  1.
<mgrwt>
<rscale>  2 0.33023009E+03</rscale>
<asrwt>0</asrwt>
<pdfrwt beam="1">  1       21 0.20054999E-01 0.33023009E+03</pdfrwt>
<pdfrwt beam="2">  1       21 0.12949107E+00 0.33023009E+03</pdfrwt>
<totfact> 0.92667250E+03</totfact>
</mgrwt>
</event>
<event>
 5    1  0.1281005E-004  0.1887795E+03  0.7546771E-02  0.1159567E+00
         21   -1    0    0  503  502  0.00000000000E+00  0.00000000000E+00  0.88874935534E+02  0.88874935534E+02  0.00000000000E+00 0.  1.
         21   -1    0    0  501  503 -0.00000000000E+00 -0.00000000000E+00 -0.53671239005E+03  0.53671239005E+03  0.00000000000E+00 0.  1.
         24    1    1    2    0    0 -0.16324430532E+03 -0.68972976563E+02 -0.72275617639E+02  0.20759806255E+03  0.80419002446E+02 0.  1.
          1    1    1    2  501    0  0.21242119834E+02 -0.63965266207E+01 -0.35869640609E+02  0.42175518079E+02  0.00000000000E+00 0. -1.
         -2    1    1    2    0  502  0.14200218548E+03  0.75369503184E+02 -0.33969219627E+03  0.37581374496E+03  0.00000000000E+00 0.  1.
<mgrwt>
<rscale>  2 0.18877951E+03</rscale>
<asrwt>0</asrwt>
<pdfrwt beam="1">  1       21 0.13673067E-01 0.18877951E+03</pdfrwt>
<pdfrwt beam="2">  1       21 0.82571138E-01 0.18877951E+03</pdfrwt>
<totfact> 0.59514779E+04</totfact>
</mgrwt>
</event>
<event>
 5    1  0.1281005E-004  0.8961559E+02  0.7546771E-02  0.1303785E+00
         21   -1    0    0  501  502  0.00000000000E+00  0.00000000000E+00  0.65546407266E+02  0.65546407266E+02  0.00000000000E+00 0.  1.
         21   -1    0    0  502  503 -0.00000000000E+00 -0.00000000000E+00 -0.13519821853E+03  0.13519821853E+03  0.00000000000E+00 0. -1.
         24    1    1    2    0    0  0.72854132795E+01  0.92728215172E+01 -0.25574320361E+01  0.81319240519E+02  0.80419002446E+02 0.  1.
          1    1    1    2  501    0 -0.39934127411E+02  0.27720285556E+02 -0.41092475695E+02  0.63653282101E+02  0.00000000000E+00 0. -1.
         -2    1    1    2    0  503  0.32648714132E+02 -0.36993107073E+02 -0.26001903530E+02  0.55772103175E+02  0.00000000000E+00 0.  1.
<mgrwt>
<rscale>  2 0.89615586E+02</rscale>
<asrwt>0</asrwt>
<pdfrwt beam="1">  1       21 0.10084063E-01 0.89615586E+02</pdfrwt>
<pdfrwt beam="2">  1       21 0.20799726E-01 0.89615586E+02</pdfrwt>
<totfact> 0.16901604E+06</totfact>
</mgrwt>
</event>
<event>
 5    1  0.1281005E-004  0.1113649E+03  0.7546771E-02  0.1258063E+00
         21   -1    0    0  501  502  0.00000000000E+00  0.00000000000E+00  0.57221327737E+03  0.57221327737E+03  0.00000000000E+00 0.  1.
         21   -1    0    0  502  503 -0.00000000000E+00 -0.00000000000E+00 -0.24379456504E+02  0.24379456504E+02  0.00000000000E+00 0. -1.
         24    1    1    2    0    0 -0.60872818120E+02 -0.29359618345E+02  0.34806802655E+03  0.36357400105E+03  0.80419002446E+02 0.  0.
          1    1    1    2  501    0  0.11228954773E+01  0.53302996752E+02  0.11336705546E+03  0.12527792951E+03  0.00000000000E+00 0. -1.
         -2    1    1    2    0  503  0.59749922643E+02 -0.23943378406E+02  0.86398738853E+02  0.10774080332E+03  0.00000000000E+00 0.  1.
<mgrwt>
<rscale>  2 0.11136489E+03</rscale>
<asrwt>0</asrwt>
<pdfrwt beam="1">  1       21 0.88032802E-01 0.11136489E+03</pdfrwt>
<pdfrwt beam="2">  1       21 0.37506860E-02 0.11136489E+03</pdfrwt>
<totfact> 0.48907243E+05</totfact>
</mgrwt>
</event>
<event>
 5    1  0.1281005E-004  0.1374705E+03  0.7546771E-02  0.1216774E+00
         21   -1    0    0  503  502  0.00000000000E+00  0.00000000000E+00  0.69840682138E+03  0.69840682138E+03  0.00000000000E+00 0. -1.
         21   -1    0    0  501  503 -0.00000000000E+00 -0.00000000000E+00 -0.29386596422E+02  0.29386596422E+02  0.00000000000E+00 0.  1.
         24    1    1    2    0    0 -0.79700502721E+02  0.38446990919E+02  0.39072635259E+03  0.40861306857E+03  0.80419002446E+02 0.  0.
          1    1    1    2  501    0 -0.33537663003E+02  0.53388620913E+01  0.47364078170E+02  0.58280650211E+02  0.00000000000E+00 0. -1.
         -2    1    1    2    0  502  0.11323816572E+03 -0.43785853010E+02  0.23092979420E+03  0.26089969902E+03  0.00000000000E+00 0.  1.
<mgrwt>
<rscale>  2 0.13747054E+03</rscale>
<asrwt>0</asrwt>
<pdfrwt beam="1">  1       21 0.10744719E+00 0.13747054E+03</pdfrwt>
<pdfrwt beam="2">  1       21 0.45210153E-02 0.13747054E+03</pdfrwt>
<totfact> 0.22430535E+05</totfact>
</mgrwt>
</event>
<event>
 5    1  0.1281005E-004  0.2432086E+03  0.7546771E-02  0.1117674E+00
         21   -1    0    0  503  502  0.00000000000E+00  0.00000000000E+00  0.19562469619E+04  0.19562469619E+04  0.00000000000E+00 0.  1.
         21   -1    0    0  501  503 -0.00000000000E+00 -0.00000000000E+00 -0.36754735810E+02  0.36754735810E+02  0.00000000000E+00 0. -1.
         24    1    1    2    0    0 -0.15983703214E+02 -0.36498857174E+02  0.80324685421E+03  0.80824524130E+03  0.80419002446E+02 0.  1.
          1    1    1    2  501    0 -0.11241985390E+02 -0.17905218067E+03  0.47930331476E+03  0.51177898861E+03  0.00000000000E+00 0. -1.
         -2    1    1    2    0  502  0.27225688604E+02  0.21555103784E+03  0.63694205710E+03  0.67297746777E+03  0.00000000000E+00 0.  1.
<mgrwt>
<rscale>  2 0.24320863E+03</rscale>
<asrwt>0</asrwt>
<pdfrwt beam="1">  1       21 0.30096099E+00 0.24320863E+03</pdfrwt>
<pdfrwt beam="2">  1       21 0.56545763E-02 0.24320863E+03</pdfrwt>
<totfact> 0.69891662E+03</totfact>
</mgrwt>
</event>
<event>
 5    1  0.1281005E-004  0.1606807E+03  0.7546771E-02  0.1187930E+00
         21   -1    0    0  501  502  0.00000000000E+00  0.00000000000E+00  0.10557681768E+03  0.10557681768E+03  0.00000000000E+00 0. -1.
         21   -1    0    0  502  503 -0.00000000000E+00 -0.00000000000E+00 -0.25890324652E+03  0.25890324652E+03  0.00000000000E+00 0.  1.
         24    1    1    2    0    0 -0.10338353517E+03 -0.38098563542E+01 -0.21649368078E+02  0.13281032130E+03  0.80419002446E+02 0.  0.
          1    1    1    2  501    0 -0.34044625929E+02  0.35612483914E+02 -0.39701271352E+02  0.63273031476E+02  0.00000000000E+00 0. -1.
         -2    1    1    2    0  503  0.13742816110E+03 -0.31802627560E+02 -0.91975789408E+02  0.16839671143E+03  0.00000000000E+00 0.  1.
<mgrwt>
<rscale>  2 0.16068067E+03</rscale>
<asrwt>0</asrwt>
<pdfrwt beam="1">  1       21 0.16242587E-01 0.16068067E+03</pdfrwt>
<pdfrwt beam="2">  1       21 0.39831268E-01 0.16068067E+03</pdfrwt>
<totfact> 0.20800329E+05</totfact>
</mgrwt>
</event>
<event>
 5    1  0.1281005E-004  0.1819988E+03  0.7546771E-02  0.1165882E+00
         21   -1    0    0  501  502  0.00000000000E+00  0.00000000000E+00  0.22479689027E+02  0.22479689027E+02  0.00000000000E+00 0. -1.
         21   -1    0    0  502  503 -0.00000000000E+00 -0.00000000000E+00 -0.16035065026E+04  0.16035065026E+04  0.00000000000E+00 0. -1.
         24    1    1    2    0    0 -0.12981914797E+02  0.90336432445E+02 -0.76205896821E+03  0.77170608921E+03  0.80419002446E+02 0. -1.
          1    1    1    2  501    0 -0.38771734305E+02 -0.15486144799E+03 -0.56983737498E+03  0.59177694225E+03  0.00000000000E+00 0. -1.
         -2    1    1    2    0  503  0.51753649102E+02  0.64525015541E+02 -0.24913047042E+03  0.26250316020E+03  0.00000000000E+00 0.  1.
<mgrwt>
<rscale>  2 0.18199881E+03</rscale>
<asrwt>0</asrwt>
<pdfrwt beam="1">  1       21 0.34584144E-02 0.18199881E+03</pdfrwt>
<pdfrwt beam="2">  1       21 0.24669326E+00 0.18199881E+03</pdfrwt>
<totfact> 0.35053680E+04</totfact>
</mgrwt>
</event>
<event>
 5    1  0.1281005E-004  0.3227098E+03  0.7546771E-02  0.1074409E+00
         21   -1    0    0  501  502  0.00000000000E+00  0.00000000000E+00  0.75934402992E+03  0.75934402992E+03  0.00000000000E+00 0. -1.
         21   -1    0    0  502  503 -0.00000000000E+00 -0.00000000000E+00 -0.15354194550E+03  0.15354194550E+03  0.00000000000E+00 0.  1.
         24    1    1    2    0    0 -0.48078265242E+02 -0.21911959783E+03  0.90905681877E+02  0.25506073138E+03  0.80419002446E+02 0.  1.
          1    1    1    2  501    0  0.98237679003E+02  0.29791978132E+03  0.36584562925E+03  0.48192308735E+03  0.00000000000E+00 0. -1.
         -2    1    1    2    0  503 -0.50159413760E+02 -0.78800183490E+02  0.14905077330E+03  0.17590215669E+03  0.00000000000E+00 0.  1.
<mgrwt>
<rscale>  2 0.32270984E+03</rscale>
<asrwt>0</asrwt>
<pdfrwt beam="1">  1       21 0.11682216E+00 0.32270984E+03</pdfrwt>
<pdfrwt beam="2">  1       21 0.23621838E-01 0.32270984E+03</pdfrwt>
<totfact> 0.88347302E+03</totfact>
</mgrwt>
</event>
<event>
 5    1  0.1281005E-004  0.1540977E+03  0.7546771E-02  0.1195526E+00
         21   -1    0    0  503  502  0.00000000000E+00  0.00000000000E+00  0.31279264409E+03  0.31279264409E+03  0.00000000000E+00 0.  1.
         21   -1    0    0  501  503 -0.00000000000E+00 -0.00000000000E+00 -0.91793038509E+02  0.91793038509E+02  0.00000000000E+00 0. -1.
         24    1    1    2    0    0 -0.12233710635E+01  0.41642697607E+02  0.41988026538E+02  0.99828959865E+02  0.80419002446E+02 0.  0.
          1    1    1    2  501    0 -0.30657516381E+02  0.83256784216E+02  0.58920490081E+01  0.88917330539E+02  0.00000000000E+00 0. -1.
         -2    1    1    2    0  502  0.31880887444E+02 -0.12489948182E+03  0.17311953003E+03  0.21583939219E+03  0.00000000000E+00 0.  1.
<mgrwt>
<rscale>  2 0.15409774E+03</rscale>
<asrwt>0</asrwt>
<pdfrwt beam="1">  1       21 0.48121945E-01 0.15409774E+03</pdfrwt>
<pdfrwt beam="2">  1       21 0.14122006E-01 0.15409774E+03</pdfrwt>
<totfact> 0.18273279E+05</totfact>
</mgrwt>
</event>
<event>
 5    1  0.1281005E-004  0.2333358E+03  0.7546771E-02  0.1124314E+00
         21   -1    0    0  501  502  0.00000000000E+00  0.00000000000E+00  0.43780142162E+03  0.43780142162E+03  0.00000000000E+00 0.  1.
         21   -1    0    0  502  503 -0.00000000000E+00 -0.00000000000E+00 -0.12831639713E+03  0.12831639713E+03  0.00000000000E+00 0. -1.
         24    1    1    2    0    0  0.43952502651E+00  0.97354532144E+01  0.91971370692E+02  0.12255986787E+03  0.80419002446E+02 0.  1.
          1    1    1    2  501    0  0.13429254161E+02  0.18748070813E+03  0.12113738131E+03  0.22361490545E+03  0.00000000000E+00 0. -1.
         -2    1    1    2    0  503 -0.13868779187E+02 -0.19721616135E+03  0.96376272489E+02  0.21994304543E+03  0.00000000000E+00 0.  1.
<mgrwt>
<rscale>  2 0.23333580E+03</rscale>
<asrwt>0</asrwt>
<pdfrwt beam="1">  1       21 0.67354064E-01 0.23333580E+03</pdfrwt>
<pdfrwt beam="2">  1       21 0.19740984E-01 0.23333580E+03</pdfrwt>
<totfact> 0.46785813E+04</totfact>
</mgrwt>
</event>
<event>
 5    1  0.1281005E-004  0.1294245E+03  0.7546771E-02  0.1228312E+00
         21   -1    0    0  503  502  0.00000000000E+00  0.00000000000E+00  0.10860473192E+03  0.10860473192E+03  0.00000000000E+00 0. -1.
         21   -1    0    0  501  503 -0.00000000000E+00 -0.00000000000E+00 -0.16476295763E+03  0.16476295763E+03  0.00000000000E+00 0.  1.
         24    1    1    2    0    0 -0.37363726366E+01 -0.11892200676E+02 -0.21098509898E+02  0.84069899439E+02  0.80419002446E+02 0.  0.
          1    1    1    2  501    0 -0.69718926063E+02 -0.46355242099E+02  0.11700019199E+02  0.84536545770E+02  0.00000000000E+00 0. -1.
         -2    1    1    2    0  502  0.73455298700E+02  0.58247442774E+02 -0.46759735015E+02  0.10476124434E+03  0.00000000000E+00 0.  1.
<mgrwt>
<rscale>  2 0.12942453E+03</rscale>
<asrwt>0</asrwt>
<pdfrwt beam="1">  1       21 0.16708420E-01 0.12942453E+03</pdfrwt>
<pdfrwt beam="2">  1       21 0.25348147E-01 0.12942453E+03</pdfrwt>
<totfact> 0.47908755E+05</totfact>
</mgrwt>
</event>
<event>
 5    1  0.1281005E-004  0.9325465E+02  0.7546771E-02  0.1295156E+00
         21   -1    0    0  501  502  0.00000000000E+00  0.00000000000E+00  0.17621015579E+04  0.17621015579E+04  0.00000000000E+00 0.  1.
         21   -1    0    0  502  503 -0.00000000000E+00 -0.00000000000E+00 -0.50427709439E+01  0.50427709439E+01  0.00000000000E+00 0. -1.
         24    1    1    2    0    0 -0.19271663029E+02 -0.24618625461E+01  0.87872926742E+03  0.88261531775E+03  0.80419002446E+02 0.  0.
          1    1    1    2  501    0 -0.40371102033E+02 -0.12544421602E+02  0.41145689218E+03  0.41362297145E+03  0.00000000000E+00 0. -1.
         -2    1    1    2    0  503  0.59642765062E+02  0.15006284148E+02  0.46687262735E+03  0.47090603963E+03  0.00000000000E+00 0.  1.
<mgrwt>
<rscale>  2 0.93254652E+02</rscale>
<asrwt>0</asrwt>
<pdfrwt beam="1">  1       21 0.27109206E+00 0.93254652E+02</pdfrwt>
<pdfrwt beam="2">  1       21 0.77581232E-03 0.93254652E+02</pdfrwt>
<totfact> 0.30332122E+05</totfact>
</mgrwt>
</event>
<event>
 5    1  0.1281005E-004  0.2194020E+03  0.7546771E-02  0.1134330E+00
         21   -1    0    0  503  502  0.00000000000E+00  0.00000000000E+00  0.34620367590E+03  0.34620367590E+03  0.00000000000E+00 0.  1.
         21   -1    0    0  501  503 -0.00000000000E+00 -0.00000000000E+00 -0.15037774162E+03  0.15037774162E+03  0.00000000000E+00 0. -1.
         24    1    1    2    0    0  0.18418920069E+02 -0.15306274997E+03  0.13295532203E+03  0.21888763248E+03  0.80419002446E+02 0.  0.
          1    1    1    2  501    0  0.54983522344E+02 -0.33537473930E+02  0.40145063677E+02  0.75891870610E+02  0.00000000000E+00 0. -1.
         -2    1    1    2    0  502 -0.73402442413E+02  0.18660022390E+03  0.22725548571E+02  0.20180191443E+03  0.00000000000E+00 0.  1.
<mgrwt>
<rscale>  2 0.21940202E+03</rscale>
<asrwt>0</asrwt>
<pdfrwt beam="1">  1       21 0.53262104E-01 0.21940202E+03</pdfrwt>
<pdfrwt beam="2">  1       21 0.23135037E-01 0.21940202E+03</pdfrwt>
<totfact> 0.57874044E+04</totfact>
</mgrwt>
</event>
<event>
 5    1  0.1281005E-004  0.1151115E+03  0.7546771E-02  0.1251387E+00
         21   -1    0    0  501  502  0.00000000000E+00  0.00000000000E+00  0.26574600217E+03  0.26574600217E+03  0.00000000000E+00 0.  1.
         21   -1    0    0  502  503 -0.00000000000E+00 -0.00000000000E+00 -0.51477958569E+02  0.51477958569E+02  0.00000000000E+00 0. -1.
         24    1    1    2    0    0  0.34349885186E+02  0.38750309721E+02  0.11155603084E+03  0.14694715066E+03  0.80419002446E+02 0.  1.
          1    1    1    2  501    0 -0.47661432979E+01 -0.82019744138E+02  0.51317808877E+02  0.96868323297E+02  0.00000000000E+00 0. -1.
         -2    1    1    2    0  503 -0.29583741888E+02  0.43269434417E+02  0.51394203884E+02  0.73408486782E+02  0.00000000000E+00 0.  1.
<mgrwt>
<rscale>  2 0.11511154E+03</rscale>
<asrwt>0</asrwt>
<pdfrwt beam="1">  1       21 0.40884000E-01 0.11511154E+03</pdfrwt>
<pdfrwt beam="2">  1       21 0.79196861E-02 0.11511154E+03</pdfrwt>
<totfact> 0.70738025E+05</totfact>
</mgrwt>
</event>
<event>
 5    1  0.1281005E-004  0.1298230E+03  0.7546771E-02  0.1227719E+00
         21   -1    0    0  503  502  0.00000000000E+00  0.00000000000E+00  0.22083271530E+03  0.22083271530E+03  0.00000000000E+00 0. -1.
         21   -1    0    0  501  503 -0.00000000000E+00 -0.00000000000E+00 -0.76644719269E+02  0.76644719269E+02  0.00000000000E+00 0.  1.
         24    1    1    2    0    0  0.12475256533E+02  0.55933468977E+02  0.62858686690E+02  0.11705817111E+03  0.80419002446E+02 0.  1.
          1    1    1    2  501    0 -0.58444875713E+02 -0.87434650810E+02  0.56864122734E+02  0.11955814533E+03  0.00000000000E+00 0. -1.
         -2    1    1    2    0  502  0.45969619181E+02  0.31501181833E+02  0.24465186608E+02  0.60861118131E+02  0.00000000000E+00 0.  1.
<mgrwt>
<rscale>  2 0.12982298E+03</rscale>
<asrwt>0</asrwt>
<pdfrwt beam="1">  1       21 0.33974264E-01 0.12982298E+03</pdfrwt>
<pdfrwt beam="2">  1       21 0.11791495E-01 0.12982298E+03</pdfrwt>
<totfact> 0.50945342E+05</totfact>
</mgrwt>
</event>
<event>
 5    1  0.1281005E-004  0.1084632E+03  0.7546771E-02  0.1263443E+00
         21   -1    0    0  501  502  0.00000000000E+00  0.00000000000E+00  0.17757174855E+02  0.17757174855E+02  0.00000000000E+00 0. -1.
         21   -1    0    0  502  503 -0.00000000000E+00 -0.00000000000E+00 -0.74716956735E+03  0.74716956735E+03  0.00000000000E+00 0. -1.
         24    1    1    2    0    0  0.10563582744E+02  0.60999177633E+02 -0.21575677992E+03  0.23843383356E+03  0.80419002446E+02 0. -1.
          1    1    1    2  501    0  0.64938516321E+01 -0.85411374757E+02 -0.39116894096E+03  0.40043777721E+03  0.00000000000E+00 0. -1.
         -2    1    1    2    0  503 -0.17057434376E+02  0.24412197124E+02 -0.12248667162E+03  0.12605513143E+03  0.00000000000E+00 0.  1.
<mgrwt>
<rscale>  2 0.10846320E+03</rscale>
<asrwt>0</asrwt>
<pdfrwt beam="1">  1       21 0.27318739E-02 0.10846320E+03</pdfrwt>
<pdfrwt beam="2">  1       21 0.11494913E+00 0.10846320E+03</pdfrwt>
<totfact> 0.44154916E+05</totfact>
</mgrwt>
</event>
<event>
 5    1  0.1281005E-004  0.9843639E+02  0.7546771E-02  0.1283619E+00
         21   -1    0    0  503  502  0.00000000000E+00  0.00000000000E+00  0.72668099764E+02  0.72668099764E+02  0.00000000000E+00 0. -1.
         21   -1    0    0  501  503 -0.00000000000E+00 -0.00000000000E+00 -0.13632972389E+03  0.13632972389E+03  0.00000000000E+00 0.  1.
         24    1    1    2    0    0 -0.17872971178E+02 -0.29492500391E+02 -0.13018395043E+02  0.88464372726E+02  0.80419002446E+02 0. -1.
          1    1    1    2  501    0  0.45386727880E+02  0.55374023268E+02 -0.32522687078E+02  0.78638175814E+02  0.00000000000E+00 0. -1.
         -2    1    1    2    0  502 -0.27513756702E+02 -0.25881522877E+02 -0.18120542004E+02  0.41895275113E+02  0.00000000000E+00 0.  1.
<mgrwt>
<rscale>  2 0.98436393E+02</rscale>
<asrwt>0</asrwt>
<pdfrwt beam="1">  1       21 0.11179708E-01 0.98436393E+02</pdfrwt>
<pdfrwt beam="2">  1       21 0.20973804E-01 0.98436393E+02</pdfrwt>
<totfact> 0.13945375E+06</totfact>
</mgrwt>
</event>
<event>
 5    1  0.1281005E-004  0.1393222E+03  0.7546771E-02  0.1214244E+00
         21   -1    0    0  503  502  0.00000000000E+00  0.00000000000E+00  0.15909097170E+02  0.15909097170E+02  0.00000000000E+00 0.  1.
         21   -1    0    0  501  503 -0.00000000000E+00 -0.00000000000E+00 -0.12898797608E+04  0.12898797608E+04  0.00000000000E+00 0. -1.
         24    1    1    2    0    0 -0.40002420404E+02 -0.19843180740E+02 -0.39372048927E+03  0.40432287232E+03  0.80419002446E+02 0.  1.
          1    1    1    2  501    0  0.66544256848E+02 -0.67851450291E+02 -0.57362478357E+03  0.58144419316E+03  0.00000000000E+00 0. -1.
         -2    1    1    2    0  502 -0.26541836444E+02  0.87694631031E+02 -0.30662539082E+03  0.32002179253E+03  0.00000000000E+00 0.  1.
<mgrwt>
<rscale>  2 0.13932221E+03</rscale>
<asrwt>0</asrwt>
<pdfrwt beam="1">  1       21 0.24475530E-02 0.13932221E+03</pdfrwt>
<pdfrwt beam="2">  1       21 0.19844308E+00 0.13932221E+03</pdfrwt>
<totfact> 0.12534879E+05</totfact>
</mgrwt>
</event>
<event>
 5    1  0.1281005E-004  0.1314687E+03  0.7546771E-02  0.1225293E+00
         21   -1    0    0  501  502  0.00000000000E+00  0.00000000000E+00  0.10039118580E+03  0.10039118580E+03  0.00000000000E+00 0. -1.
         21   -1    0    0  502  503 -0.00000000000E+00 -0.00000000000E+00 -0.17622861545E+03  0.17622861545E+03  0.00000000000E+00 0.  1.
         24    1    1    2    0    0 -0.63611261517E+01  0.33820723450E+02 -0.37997943936E+02  0.95369622828E+02  0.80419002446E+02 0. -1.
          1    1    1    2  501    0  0.52595947515E+02  0.54520888408E+02 -0.36530652071E+01  0.75843298011E+02  0.00000000000E+00 0. -1.
         -2    1    1    2    0  503 -0.46234821363E+02 -0.88341611858E+02 -0.34186420505E+02  0.10540688042E+03  0.00000000000E+00 0.  1.
<mgrwt>
<rscale>  2 0.13146866E+03</rscale>
<asrwt>0</asrwt>
<pdfrwt beam="1">  1       21 0.15444798E-01 0.13146866E+03</pdfrwt>
<pdfrwt beam="2">  1       21 0.27112094E-01 0.13146866E+03</pdfrwt>
<totfact> 0.48616238E+05</totfact>
</mgrwt>
</event>
<event>
 5    1  0.1281005E-004  0.1031213E+03  0.7546771E-02  0.1273866E+00
         21   -1    0    0  503  502  0.00000000000E+00  0.00000000000E+00  0.15704521016E+04  0.15704521016E+04  0.00000000000E+00 0. -1.
         21   -1    0    0  501  503 -0.00000000000E+00 -0.00000000000E+00 -0.75583444488E+01  0.75583444488E+01  0.00000000000E+00 0.  1.
         24    1    1    2    0    0 -0.82900250218E+01  0.24808467686E+02  0.42828363708E+03  0.43655271655E+03  0.80419002446E+02 0.  1.
          1    1    1    2  501    0  0.39750545230E+02 -0.61572513144E+02  0.55244574253E+03  0.55728590387E+03  0.00000000000E+00 0. -1.
         -2    1    1    2    0  502 -0.31460520208E+02  0.36764045458E+02  0.58216437756E+03  0.58417182564E+03  0.00000000000E+00 0.  1.
<mgrwt>
<rscale>  2 0.10312128E+03</rscale>
<asrwt>0</asrwt>
<pdfrwt beam="1">  1       21 0.24160776E+00 0.10312128E+03</pdfrwt>
<pdfrwt beam="2">  1       21 0.11628235E-02 0.10312128E+03</pdfrwt>
<totfact> 0.23354523E+05</totfact>
</mgrwt>
</event>
<event>
 5    1  0.1281005E-004  0.2175759E+03  0.7546771E-02  0.1135703E+00
         21   -1    0    0  503  502  0.00000000000E+00  0.00000000000E+00  0.26980424384E+03  0.26980424384E+03  0.00000000000E+00 0. -1.
         21   -1    0    0  501  503 -0.00000000000E+00 -0.00000000000E+00 -0.17904337845E+03  0.17904337845E+03  0.00000000000E+00 0. -1.
         24    1    1    2    0    0 -0.77117758960E+02 -0.16398838052E+03  0.69177119347E+02  0.20998101697E+03  0.80419002446E+02 0. -1.
          1    1    1    2  501    0  0.89567300846E+02  0.18889173834E+03  0.26052979659E+02  0.21066833635E+03  0.00000000000E+00 0. -1.
         -2    1    1    2    0  502 -0.12449541886E+02 -0.24903357816E+02 -0.44692336083E+01  0.28198268967E+02  0.00000000000E+00 0.  1.
<mgrwt>
<rscale>  2 0.21757591E+03</rscale>
<asrwt>0</asrwt>
<pdfrwt beam="1">  1       21 0.41508345E-01 0.21757591E+03</pdfrwt>
<pdfrwt beam="2">  1       21 0.27545135E-01 0.21757591E+03</pdfrwt>
<totfact> 0.69514491E+04</totfact>
</mgrwt>
</event>
<event>
 5    1  0.1281005E-004  0.1432336E+03  0.7546771E-02  0.1209043E+00
         21   -1    0    0  503  502  0.00000000000E+00  0.00000000000E+00  0.82980176173E+02  0.82980176173E+02  0.00000000000E+00 0.  1.
         21   -1    0    0  501  503 -0.00000000000E+00 -0.00000000000E+00 -0.28738622303E+03  0.28738622303E+03  0.00000000000E+00 0. -1.
         24    1    1    2    0    0 -0.63947224146E+02 -0.18339525764E+01 -0.87542119125E+02  0.13499425704E+03  0.80419002446E+02 0.  0.
          1    1    1    2  501    0  0.11545242528E+03  0.37120093569E+02 -0.12288465967E+03  0.17264936557E+03  0.00000000000E+00 0. -1.
         -2    1    1    2    0  502 -0.51505201138E+02 -0.35286140993E+02  0.60207319361E+01  0.62722776592E+02  0.00000000000E+00 0.  1.
<mgrwt>
<rscale>  2 0.14323363E+03</rscale>
<asrwt>0</asrwt>
<pdfrwt beam="1">  1       21 0.12766181E-01 0.14323363E+03</pdfrwt>
<pdfrwt beam="2">  1       21 0.44213266E-01 0.14323363E+03</pdfrwt>
<totfact> 0.26112118E+05</totfact>
</mgrwt>
</event>
<event>
 5    1  0.1281005E-004  0.1301122E+03  0.7546771E-02  0.1227289E+00
         21   -1    0    0  503  502  0.00000000000E+00  0.00000000000E+00  0.13036294811E+03  0.13036294811E+03  0.00000000000E+00 0.  1.
         21   -1    0    0  501  503 -0.00000000000E+00 -0.00000000000E+00 -0.13521284977E+03  0.13521284977E+03  0.00000000000E+00 0. -1.
         24    1    1    2    0    0  0.27095992548E+02 -0.54578016559E+02  0.13749193476E+02  0.10182931297E+03  0.80419002446E+02 0.  1.
          1    1    1    2  501    0 -0.43274546169E+02  0.10115392843E+03  0.26572171637E+01  0.11005391581E+03  0.00000000000E+00 0. -1.
         -2    1    1    2    0  502  0.16178553621E+02 -0.46575911871E+02 -0.21256312293E+02  0.53692569097E+02  0.00000000000E+00 0.  1.
<mgrwt>
<rscale>  2 0.13011222E+03</rscale>
<asrwt>0</asrwt>
<pdfrwt beam="1">  1       21 0.20055838E-01 0.13011222E+03</pdfrwt>
<pdfrwt beam="2">  1       21 0.20801977E-01 0.13011222E+03</pdfrwt>
<totfact> 0.49639295E+05</totfact>
</mgrwt>
</event>
<event>
 5    1  0.1281005E-004  0.1180000E+03  0.7546771E-02  0.1246433E+00
         21   -1    0    0  501  502  0.00000000000E+00  0.00000000000E+00  0.47901396580E+02  0.47901396580E+02  0.00000000000E+00 0.  1.
         21   -1    0    0  502  503 -0.00000000000E+00 -0.00000000000E+00 -0.31994370642E+03  0.31994370642E+03  0.00000000000E+00 0. -1.
         24    1    1    2    0    0 -0.17500745969E+01 -0.26795809406E+02 -0.14410208102E+03  0.16719361193E+03  0.80419002446E+02 0.  0.
          1    1    1    2  501    0 -0.64060332438E+02 -0.23659671760E+02 -0.37347559150E+02  0.77835380350E+02  0.00000000000E+00 0. -1.
         -2    1    1    2    0  503  0.65810407035E+02  0.50455481165E+02 -0.90592669674E+02  0.12281611072E+03  0.00000000000E+00 0.  1.
<mgrwt>
<rscale>  2 0.11799997E+03</rscale>
<asrwt>0</asrwt>
<pdfrwt beam="1">  1       21 0.73694457E-02 0.11799997E+03</pdfrwt>
<pdfrwt beam="2">  1       21 0.49222108E-01 0.11799997E+03</pdfrwt>
<totfact> 0.54949996E+05</totfact>
</mgrwt>
</event>
<event>
 5    1  0.1281005E-004  0.1631486E+03  0.7546771E-02  0.1185187E+00
         21   -1    0    0  503  502  0.00000000000E+00  0.00000000000E+00  0.19197162345E+03  0.19197162345E+03  0.00000000000E+00 0.  1.
         21   -1    0    0  501  503 -0.00000000000E+00 -0.00000000000E+00 -0.14635570053E+03  0.14635570053E+03  0.00000000000E+00 0. -1.
         24    1    1    2    0    0 -0.31040741471E+02  0.23938383194E+02 -0.19803891817E+02  0.91629601693E+02  0.80419002446E+02 0.  0.
          1    1    1    2  501    0 -0.96258028894E+02 -0.47551960447E+02  0.18253718550E+02  0.10890360559E+03  0.00000000000E+00 0. -1.
         -2    1    1    2    0  502  0.12729877037E+03  0.23613577252E+02  0.47166096186E+02  0.13779411670E+03  0.00000000000E+00 0.  1.
<mgrwt>
<rscale>  2 0.16314860E+03</rscale>
<asrwt>0</asrwt>
<pdfrwt beam="1">  1       21 0.29534096E-01 0.16314860E+03</pdfrwt>
<pdfrwt beam="2">  1       21 0.22516262E-01 0.16314860E+03</pdfrwt>
<totfact> 0.20472509E+05</totfact>
</mgrwt>
</event>
<event>
 5    1  0.1281005E-004  0.1189364E+03  0.7546771E-02  0.1244862E+00
         21   -1    0    0  503  502  0.00000000000E+00  0.00000000000E+00  0.51368926770E+03  0.51368926770E+03  0.00000000000E+00 0. -1.
         21   -1    0    0  501  503 -0.00000000000E+00 -0.00000000000E+00 -0.31576333994E+02  0.31576333994E+02  0.00000000000E+00 0. -1.
         24    1    1    2    0    0  0.20821341630E+02 -0.49448081943E+02  0.27931058472E+03  0.29556769067E+03  0.80419002446E+02 0. -1.
          1    1    1    2  501    0  0.40937748231E+02  0.65633451800E+02  0.79947719325E+02  0.11124426750E+03  0.00000000000E+00 0. -1.
         -2    1    1    2    0  502 -0.61759089861E+02 -0.16185369857E+02  0.12285462966E+03  0.13845364353E+03  0.00000000000E+00 0.  1.
<mgrwt>
<rscale>  2 0.11893638E+03</rscale>
<asrwt>0</asrwt>
<pdfrwt beam="1">  1       21 0.79029112E-01 0.11893638E+03</pdfrwt>
<pdfrwt beam="2">  1       21 0.48578979E-02 0.11893638E+03</pdfrwt>
<totfact> 0.40492050E+05</totfact>
</mgrwt>
</event>
<event>
 5    1  0.1281005E-004  0.1345076E+03  0.7546771E-02  0.1220916E+00
         21   -1    0    0  501  502  0.00000000000E+00  0.00000000000E+00  0.41630126906E+02  0.41630126906E+02  0.00000000000E+00 0.  1.
         21   -1    0    0  502  503 -0.00000000000E+00 -0.00000000000E+00 -0.45207839136E+03  0.45207839136E+03  0.00000000000E+00 0. -1.
         24    1    1    2    0    0  0.72491396474E+02  0.17912581790E+02 -0.19306011887E+03  0.22207045864E+03  0.80419002446E+02 0.  0.
          1    1    1    2  501    0 -0.11368970295E+03 -0.27514720028E+02 -0.18267484841E+03  0.21691590218E+03  0.00000000000E+00 0. -1.
         -2    1    1    2    0  503  0.41198306473E+02  0.96021382384E+01 -0.34713297166E+02  0.54722157442E+02  0.00000000000E+00 0.  1.
<mgrwt>
<rscale>  2 0.13450765E+03</rscale>
<asrwt>0</asrwt>
<pdfrwt beam="1">  1       21 0.64046350E-02 0.13450765E+03</pdfrwt>
<pdfrwt beam="2">  1       21 0.69550521E-01 0.13450765E+03</pdfrwt>
<totfact> 0.33551587E+05</totfact>
</mgrwt>
</event>
<event>
 5    1  0.1281005E-004  0.1935868E+03  0.7546771E-02  0.1155265E+00
         21   -1    0    0  501  502  0.00000000000E+00  0.00000000000E+00  0.12741590076E+04  0.12741590076E+04  0.00000000000E+00 0. -1.
         21   -1    0    0  502  503 -0.00000000000E+00 -0.00000000000E+00 -0.29593246299E+02  0.29593246299E+02  0.00000000000E+00 0.  1.
         24    1    1    2    0    0 -0.21880092234E+02  0.76068058366E+02  0.31832172863E+03  0.33772922114E+03  0.80419002446E+02 0.  0.
          1    1    1    2  501    0  0.70515110921E+02 -0.16139208831E+03  0.60051926491E+03  0.62581400956E+03  0.00000000000E+00 0. -1.
         -2    1    1    2    0  503 -0.48635018687E+02  0.85324029949E+02  0.32572476776E+03  0.34020902319E+03  0.00000000000E+00 0.  1.
<mgrwt>
<rscale>  2 0.19358682E+03</rscale>
<asrwt>0</asrwt>
<pdfrwt beam="1">  1       21 0.19602442E+00 0.19358682E+03</pdfrwt>
<pdfrwt beam="2">  1       21 0.45528081E-02 0.19358682E+03</pdfrwt>
<totfact> 0.44868432E+04</totfact>
</mgrwt>
</event>
<event>
 5    1  0.1281005E-004  0.1652453E+03  0.7546771E-02  0.1182899E+00
         21   -1    0    0  503  502  0.00000000000E+00  0.00000000000E+00  0.67156618853E+02  0.67156618853E+02  0.00000000000E+00 0.  1.
         21   -1    0    0  501  503 -0.00000000000E+00 -0.00000000000E+00 -0.42742895580E+03  0.42742895580E+03  0.00000000000E+00 0. -1.
         24    1    1    2    0    0 -0.67775379243E+02 -0.47613633410E+02 -0.79637385640E+02  0.14024938240E+03  0.80419002446E+02 0.  1.
          1    1    1    2  501    0  0.13864481482E+03  0.35857764965E+02 -0.20453173863E+03  0.24968259068E+03  0.00000000000E+00 0. -1.
         -2    1    1    2    0  502 -0.70869435572E+02  0.11755868445E+02 -0.76103212672E+02  0.10465360156E+03  0.00000000000E+00 0.  1.
<mgrwt>
<rscale>  2 0.16524528E+03</rscale>
<asrwt>0</asrwt>
<pdfrwt beam="1">  1       21 0.10331787E-01 0.16524528E+03</pdfrwt>
<pdfrwt beam="2">  1       21 0.65758301E-01 0.16524528E+03</pdfrwt>
<totfact> 0.16425769E+05</totfact>
</mgrwt>
</event>
<event>
 5    1  0.1281005E-004  0.2568136E+03  0.7546771E-02  0.1109073E+00
         21   -1    0    0  501  502  0.00000000000E+00  0.00000000000E+00  0.49689052320E+03  0.49689052320E+03  0.00000000000E+00 0.  1.
         21   -1    0    0  502  503 -0.00000000000E+00 -0.00000000000E+00 -0.13904594329E+03  0.13904594329E+03  0.00000000000E+00 0. -1.
         24    1    1    2    0    0 -0.37508447812E+02 -0.26617558869E+02  0.12237744127E+03  0.15348886664E+03  0.80419002446E+02 0.  0.
          1    1    1    2  501    0  0.22728740741E+03  0.39812254334E+02  0.12387635725E+03  0.26189679847E+03  0.00000000000E+00 0. -1.
         -2    1    1    2    0  503 -0.18977895960E+03 -0.13194695465E+02  0.11159078139E+03  0.22055080137E+03  0.00000000000E+00 0.  1.
<mgrwt>
<rscale>  2 0.25681363E+03</rscale>
<asrwt>0</asrwt>
<pdfrwt beam="1">  1       21 0.76444695E-01 0.25681363E+03</pdfrwt>
<pdfrwt beam="2">  1       21 0.21391684E-01 0.25681363E+03</pdfrwt>
<totfact> 0.30022741E+04</totfact>
</mgrwt>
</event>
<event>
 5    1  0.1281005E-004  0.2313626E+03  0.7546771E-02  0.1125684E+00
         21   -1    0    0  503  502  0.00000000000E+00  0.00000000000E+00  0.13438958306E+03  0.13438958306E+03  0.00000000000E+00 0. -1.
         21   -1    0    0  501  503 -0.00000000000E+00 -0.00000000000E+00 -0.41683715165E+03  0.41683715165E+03  0.00000000000E+00 0.  1.
         24    1    1    2    0    0 -0.14171695054E+03  0.56480528595E+02 -0.13297117522E+03  0.21776660344E+03  0.80419002446E+02 0.  0.
          1    1    1    2  501    0  0.19715210106E+03 -0.98803915010E+02 -0.14426402520E+03  0.26352091671E+03  0.00000000000E+00 0. -1.
         -2    1    1    2    0  502 -0.55435150529E+02  0.42323386416E+02 -0.52123681777E+01  0.69939214564E+02  0.00000000000E+00 0.  1.
<mgrwt>
<rscale>  2 0.23136257E+03</rscale>
<asrwt>0</asrwt>
<pdfrwt beam="1">  1       21 0.20675320E-01 0.23136257E+03</pdfrwt>
<pdfrwt beam="2">  1       21 0.64128793E-01 0.23136257E+03</pdfrwt>
<totfact> 0.47804424E+04</totfact>
</mgrwt>
</event>
<event>
 5    1  0.1281005E-004  0.1520889E+03  0.7546771E-02  0.1197929E+00
         21   -1    0    0  501  502  0.00000000000E+00  0.00000000000E+00  0.61486627601E+02  0.61486627601E+02  0.00000000000E+00 0. -1.
         21   -1    0    0  502  503 -0.00000000000E+00 -0.00000000000E+00 -0.39245235721E+03  0.39245235721E+03  0.00000000000E+00 0. -1.
         24    1    1    2    0    0 -0.92747629811E+01 -0.96665682761E+02 -0.10776788344E+03  0.16586563269E+03  0.80419002446E+02 0. -1.
          1    1    1    2  501    0 -0.14713033185E+02  0.13340591990E+03 -0.13956131074E+03  0.19362585640E+03  0.00000000000E+00 0. -1.
         -2    1    1    2    0  503  0.23987796166E+02 -0.36740237139E+02 -0.83636535430E+02  0.94447495724E+02  0.00000000000E+00 0.  1.
<mgrwt>
<rscale>  2 0.15208892E+03</rscale>
<asrwt>0</asrwt>
<pdfrwt beam="1">  1       21 0.94594814E-02 0.15208892E+03</pdfrwt>
<pdfrwt beam="2">  1       21 0.60377284E-01 0.15208892E+03</pdfrwt>
<totfact> 0.23136836E+05</totfact>
</mgrwt>
</event>
<event>
 5    1  0.1281005E-004  0.1799254E+03  0.7546771E-02  0.1167875E+00
         21   -1    0    0  501  502  0.00000000000E+00  0.00000000000E+00  0.56090684854E+03  0.56090684854E+03  0.00000000000E+00 0. -1.
         21   -1    0    0  502  503 -0.00000000000E+00 -0.00000000000E+00 -0.61991286306E+02  0.61991286306E+02  0.00000000000E+00 0.  1.
         24    1    1    2    0    0  0.35561663683E+02  0.35845007212E+02  0.85335332267E+02  0.12766687649E+03  0.80419002446E+02 0.  1.
          1    1    1    2  501    0  0.10656132456E+03  0.26330558779E+02  0.23024871378E+03  0.25507466439E+03  0.00000000000E+00 0. -1.
         -2    1    1    2    0  503 -0.14212298825E+03 -0.62175565991E+02  0.18333151619E+03  0.24015659396E+03  0.00000000000E+00 0.  1.
<mgrwt>
<rscale>  2 0.17992535E+03</rscale>
<asrwt>0</asrwt>
<pdfrwt beam="1">  1       21 0.86293358E-01 0.17992535E+03</pdfrwt>
<pdfrwt beam="2">  1       21 0.95371214E-02 0.17992535E+03</pdfrwt>
<totfact> 0.10263045E+05</totfact>
</mgrwt>
</event>
<event>
 5    1  0.1281005E-004  0.1384870E+03  0.7546771E-02  0.1215379E+00
         21   -1    0    0  503  502  0.00000000000E+00  0.00000000000E+00  0.11313064989E+03  0.11313064989E+03  0.00000000000E+00 0.  1.
         21   -1    0    0  501  503 -0.00000000000E+00 -0.00000000000E+00 -0.18787685442E+03  0.18787685442E+03  0.00000000000E+00 0. -1.
         24    1    1    2    0    0 -0.16539325327E+01 -0.72360365719E+01 -0.48826360198E+02  0.94373328450E+02  0.80419002446E+02 0. -1.
          1    1    1    2  501    0  0.98619680442E+02  0.10609583867E+02 -0.43016695392E+02  0.10811494218E+03  0.00000000000E+00 0. -1.
         -2    1    1    2    0  502 -0.96965747910E+02 -0.33735472946E+01  0.17096851059E+02  0.98519233681E+02  0.00000000000E+00 0.  1.
<mgrwt>
<rscale>  2 0.13848699E+03</rscale>
<asrwt>0</asrwt>
<pdfrwt beam="1">  1       21 0.17404715E-01 0.13848699E+03</pdfrwt>
<pdfrwt beam="2">  1       21 0.28904131E-01 0.13848699E+03</pdfrwt>
<totfact> 0.34578619E+05</totfact>
</mgrwt>
</event>
<event>
 5    1  0.1281005E-004  0.1070839E+03  0.7546771E-02  0.1266067E+00
         21   -1    0    0  501  502  0.00000000000E+00  0.00000000000E+00  0.12901609690E+03  0.12901609690E+03  0.00000000000E+00 0.  1.
         21   -1    0    0  502  503 -0.00000000000E+00 -0.00000000000E+00 -0.89595023529E+02  0.89595023529E+02  0.00000000000E+00 0.  1.
         24    1    1    2    0    0  0.31508280124E+02  0.31906316859E+02  0.25740959994E+02  0.95606473356E+02  0.80419002446E+02 0.  1.
          1    1    1    2  501    0  0.42180054258E+02 -0.10202986133E+01  0.76276097478E+01  0.42876315338E+02  0.00000000000E+00 0. -1.
         -2    1    1    2    0  503 -0.73688334382E+02 -0.30886018246E+02  0.60525036334E+01  0.80128331739E+02  0.00000000000E+00 0.  1.
<mgrwt>
<rscale>  2 0.10708393E+03</rscale>
<asrwt>0</asrwt>
<pdfrwt beam="1">  1       21 0.19848630E-01 0.10708393E+03</pdfrwt>
<pdfrwt beam="2">  1       21 0.13783850E-01 0.10708393E+03</pdfrwt>
<totfact> 0.10684261E+06</totfact>
</mgrwt>
</event>
<event>
 5    1  0.1281005E-004  0.2973480E+03  0.7546771E-02  0.1086574E+00
         21   -1    0    0  503  502  0.00000000000E+00  0.00000000000E+00  0.99740457368E+02  0.99740457368E+02  0.00000000000E+00 0.  1.
         21   -1    0    0  501  503 -0.00000000000E+00 -0.00000000000E+00 -0.95994007287E+03  0.95994007287E+03  0.00000000000E+00 0. -1.
         24    1    1    2    0    0 -0.78610144598E+02  0.68675506892E+02 -0.17240029579E+03  0.21699068649E+03  0.80419002446E+02 0.  1.
          1    1    1    2  501    0  0.26820736743E+03 -0.40228217735E+02 -0.52607662848E+03  0.59187001992E+03  0.00000000000E+00 0. -1.
         -2    1    1    2    0  502 -0.18959722283E+03 -0.28447289157E+02 -0.16172269123E+03  0.25081982383E+03  0.00000000000E+00 0.  1.
<mgrwt>
<rscale>  2 0.29734803E+03</rscale>
<asrwt>0</asrwt>
<pdfrwt beam="1">  1       21 0.15344685E-01 0.29734803E+03</pdfrwt>
<pdfrwt beam="2">  1       21 0.14768309E+00 0.29734803E+03</pdfrwt>
<totfact> 0.10995458E+04</totfact>
</mgrwt>
</event>
<event>
 5    1  0.1281005E-004  0.1063911E+03  0.7546771E-02  0.1267403E+00
         21   -1    0    0  503  502  0.00000000000E+00  0.00000000000E+00  0.50961819128E+03  0.50961819128E+03  0.00000000000E+00 0. -1.
         21   -1    0    0  501  503 -0.00000000000E+00 -0.00000000000E+00 -0.22249715973E+02  0.22249715973E+02  0.00000000000E+00 0. -1.
         24    1    1    2    0    0 -0.29066985684E+02 -0.27509560463E+02  0.20711790999E+03  0.22575807885E+03  0.80419002446E+02 0. -1.
          1    1    1    2  501    0  0.38472805655E+02  0.69762675738E+02  0.18941457162E+03  0.20548690383E+03  0.00000000000E+00 0. -1.
         -2    1    1    2    0  502 -0.94058199710E+01 -0.42253115275E+02  0.90835993695E+02  0.10062292458E+03  0.00000000000E+00 0.  1.
<mgrwt>
<rscale>  2 0.10639115E+03</rscale>
<asrwt>0</asrwt>
<pdfrwt beam="1">  1       21 0.78402790E-01 0.10639115E+03</pdfrwt>
<pdfrwt beam="2">  1       21 0.34230336E-02 0.10639115E+03</pdfrwt>
<totfact> 0.73705545E+05</totfact>
</mgrwt>
</event>
<event>
 5    1  0.1281005E-004  0.2804522E+03  0.7546771E-02  0.1095442E+00
         21   -1    0    0  501  502  0.00000000000E+00  0.00000000000E+00  0.22599465660E+03  0.22599465660E+03  0.00000000000E+00 0.  1.
         21   -1    0    0  502  503 -0.00000000000E+00 -0.00000000000E+00 -0.40512818594E+03  0.40512818594E+03  0.00000000000E+00 0.  1.
         24    1    1    2    0    0 -0.40457217540E+02  0.48265318973E+02  0.22584086036E+02  0.10461158809E+03  0.80419002446E+02 0.  1.
          1    1    1    2  501    0 -0.91405440587E+02  0.17616026672E+03 -0.20825415291E+01  0.19847350231E+03  0.00000000000E+00 0. -1.
         -2    1    1    2    0  503  0.13186265813E+03 -0.22442558569E+03 -0.19963507384E+03  0.32803775214E+03  0.00000000000E+00 0.  1.
<mgrwt>
<rscale>  2 0.28045222E+03</rscale>
<asrwt>0</asrwt>
<pdfrwt beam="1">  1       21 0.34768409E-01 0.28045222E+03</pdfrwt>
<pdfrwt beam="2">  1       21 0.62327413E-01 0.28045222E+03</pdfrwt>
<totfact> 0.18180163E+04</totfact>
</mgrwt>
</event>
<event>
 5    1  0.1281005E-004  0.1539502E+03  0.7546771E-02  0.1195701E+00
         21   -1    0    0  503  502  0.00000000000E+00  0.00000000000E+00  0.13301241715E+03  0.13301241715E+03  0.00000000000E+00 0. -1.
         21   -1    0    0  501  503 -0.00000000000E+00 -0.00000000000E+00 -0.18062691910E+03  0.18062691910E+03  0.00000000000E+00 0. -1.
         24    1    1    2    0    0  0.20249340152E+02  0.20937374017E+02 -0.14221888929E+00  0.85531547326E+02  0.80419002446E+02 0. -1.
          1    1    1    2  501    0 -0.66256591252E+02 -0.10638062811E+03 -0.35968362297E+02  0.13038595403E+03  0.00000000000E+00 0. -1.
         -2    1    1    2    0  502  0.46007251100E+02  0.85443254092E+02 -0.11503920764E+02  0.97721834901E+02  0.00000000000E+00 0.  1.
<mgrwt>
<rscale>  2 0.15395022E+03</rscale>
<asrwt>0</asrwt>
<pdfrwt beam="1">  1       21 0.20463449E-01 0.15395022E+03</pdfrwt>
<pdfrwt beam="2">  1       21 0.27788757E-01 0.15395022E+03</pdfrwt>
<totfact> 0.27595013E+05</totfact>
</mgrwt>
</event>
<event>
 5    1  0.1281005E-004  0.1783655E+03  0.7546771E-02  0.1169394E+00
         21   -1    0    0  503  502  0.00000000000E+00  0.00000000000E+00  0.16314591004E+03  0.16314591004E+03  0.00000000000E+00 0. -1.
         21   -1    0    0  501  503 -0.00000000000E+00 -0.00000000000E+00 -0.21060077564E+03  0.21060077564E+03  0.00000000000E+00 0. -1.
         24    1    1    2    0    0 -0.11276291474E+03 -0.31466064673E+02 -0.62200638406E+02  0.15505393751E+03  0.80419002446E+02 0. -1.
          1    1    1    2  501    0  0.15770593978E+03  0.50926485595E+02  0.27722464949E+02  0.16802739491E+03  0.00000000000E+00 0. -1.
         -2    1    1    2    0  502 -0.44943025043E+02 -0.19460420923E+02 -0.12976692140E+02  0.50665353265E+02  0.00000000000E+00 0.  1.
<mgrwt>
<rscale>  2 0.17836551E+03</rscale>
<asrwt>0</asrwt>
<pdfrwt beam="1">  1       21 0.25099371E-01 0.17836551E+03</pdfrwt>
<pdfrwt beam="2">  1       21 0.32400119E-01 0.17836551E+03</pdfrwt>
<totfact> 0.13843911E+05</totfact>
</mgrwt>
</event>
<event>
 5    1  0.1281005E-004  0.1427821E+03  0.7546771E-02  0.1209634E+00
         21   -1    0    0  501  502  0.00000000000E+00  0.00000000000E+00  0.14608223670E+03  0.14608223670E+03  0.00000000000E+00 0. -1.
         21   -1    0    0  502  503 -0.00000000000E+00 -0.00000000000E+00 -0.14594811717E+03  0.14594811717E+03  0.00000000000E+00 0. -1.
         24    1    1    2    0    0 -0.12810975607E+01  0.70548547742E+02  0.37556072535E+00  0.10698642811E+03  0.80419002446E+02 0.  0.
          1    1    1    2  501    0 -0.70492860422E+02  0.94251894256E+01 -0.23868889729E+02  0.75018674096E+02  0.00000000000E+00 0. -1.
         -2    1    1    2    0  503  0.71773957983E+02 -0.79973737167E+02  0.23627448536E+02  0.11002525167E+03  0.00000000000E+00 0.  1.
<mgrwt>
<rscale>  2 0.14278215E+03</rscale>
<asrwt>0</asrwt>
<pdfrwt beam="1">  1       21 0.22474190E-01 0.14278215E+03</pdfrwt>
<pdfrwt beam="2">  1       21 0.22453557E-01 0.14278215E+03</pdfrwt>
<totfact> 0.34770532E+05</totfact>
</mgrwt>
</event>
<event>
 5    1  0.1281005E-004  0.1538506E+03  0.7546771E-02  0.1195820E+00
         21   -1    0    0  501  502  0.00000000000E+00  0.00000000000E+00  0.13064879227E+03  0.13064879227E+03  0.00000000000E+00 0.  1.
         21   -1    0    0  502  503 -0.00000000000E+00 -0.00000000000E+00 -0.19063298058E+03  0.19063298058E+03  0.00000000000E+00 0. -1.
         24    1    1    2    0    0  0.56984892807E+02  0.15992585077E+01  0.41924242481E+01  0.98664218496E+02  0.80419002446E+02 0.  0.
          1    1    1    2  501    0  0.68219116478E+02  0.37643878064E+02 -0.33339256626E+01  0.77987335312E+02  0.00000000000E+00 0. -1.
         -2    1    1    2    0  503 -0.12520400929E+03 -0.39243136571E+02 -0.60842686896E+02  0.14463021903E+03  0.00000000000E+00 0.  1.
<mgrwt>
<rscale>  2 0.15385058E+03</rscale>
<asrwt>0</asrwt>
<pdfrwt beam="1">  1       21 0.20099814E-01 0.15385058E+03</pdfrwt>
<pdfrwt beam="2">  1       21 0.29328151E-01 0.15385058E+03</pdfrwt>
<totfact> 0.25715615E+05</totfact>
</mgrwt>
</event>
<event>
 5    1  0.1281005E-004  0.1247315E+03  0.7546771E-02  0.1235489E+00
         21   -1    0    0  501  502  0.00000000000E+00  0.00000000000E+00  0.13343102510E+03  0.13343102510E+03  0.00000000000E+00 0. -1.
         21   -1    0    0  502  503 -0.00000000000E+00 -0.00000000000E+00 -0.15989119529E+03  0.15989119529E+03  0.00000000000E+00 0.  1.
         24    1    1    2    0    0  0.44317677365E+02 -0.36081941097E+02  0.53524294792E+02  0.11224094212E+03  0.80419002446E+02 0. -1.
          1    1    1    2  501    0  0.12586054537E+02 -0.47808459840E+02  0.37800890170E+01  0.49581717135E+02  0.00000000000E+00 0. -1.
         -2    1    1    2    0  503 -0.56903731902E+02  0.83890400936E+02 -0.83764553992E+02  0.13149956114E+03  0.00000000000E+00 0.  1.
<mgrwt>
<rscale>  2 0.12473154E+03</rscale>
<asrwt>0</asrwt>
<pdfrwt beam="1">  1       21 0.20527850E-01 0.12473154E+03</pdfrwt>
<pdfrwt beam="2">  1       21 0.24598646E-01 0.12473154E+03</pdfrwt>
<totfact> 0.34769074E+05</totfact>
</mgrwt>
</event>
<event>
 5    1  0.1281005E-004  0.2093651E+03  0.7546771E-02  0.1142070E+00
         21   -1    0    0  501  502  0.00000000000E+00  0.00000000000E+00  0.74535279198E+03  0.74535279198E+03  0.00000000000E+00 0.  1.
         21   -1    0    0  502  503 -0.00000000000E+00 -0.00000000000E+00 -0.59886526310E+02  0.59886526310E+02  0.00000000000E+00 0. -1.
         24    1    1    2    0    0 -0.13359357070E+03 -0.92430543988E+02  0.32989670531E+03  0.37641692274E+03  0.80419002446E+02 0. -1.
          1    1    1    2  501    0 -0.37657198444E+02 -0.86060425826E+01  0.81843240309E+02  0.90501074844E+02  0.00000000000E+00 0. -1.
         -2    1    1    2    0  503  0.17125076914E+03  0.10103658657E+03  0.27372632005E+03  0.33832132071E+03  0.00000000000E+00 0.  1.
<mgrwt>
<rscale>  2 0.20936506E+03</rscale>
<asrwt>0</asrwt>
<pdfrwt beam="1">  1       21 0.11466965E+00 0.20936506E+03</pdfrwt>
<pdfrwt beam="2">  1       21 0.92133123E-02 0.20936506E+03</pdfrwt>
<totfact> 0.54876090E+04</totfact>
</mgrwt>
</event>
<event>
 5    1  0.1281005E-004  0.9860655E+02  0.7546771E-02  0.1283254E+00
         21   -1    0    0  501  502  0.00000000000E+00  0.00000000000E+00  0.32466434314E+03  0.32466434314E+03  0.00000000000E+00 0.  1.
         21   -1    0    0  502  503 -0.00000000000E+00 -0.00000000000E+00 -0.30012992040E+02  0.30012992040E+02  0.00000000000E+00 0. -1.
         24    1    1    2    0    0 -0.31545386462E+02  0.27712012844E+02  0.14151126631E+03  0.16809438274E+03  0.80419002446E+02 0.  0.
          1    1    1    2  501    0 -0.35300309811E+02 -0.15440273895E+02  0.59275026742E+02  0.70696836747E+02  0.00000000000E+00 0. -1.
         -2    1    1    2    0  503  0.66845696273E+02 -0.12271738948E+02  0.93865058048E+02  0.11588611569E+03  0.00000000000E+00 0.  1.
<mgrwt>
<rscale>  2 0.98606551E+02</rscale>
<asrwt>0</asrwt>
<pdfrwt beam="1">  1       21 0.49948358E-01 0.98606551E+02</pdfrwt>
<pdfrwt beam="2">  1       21 0.46173836E-02 0.98606551E+02</pdfrwt>
<totfact> 0.11717379E+06</totfact>
</mgrwt>
</event>
<event>
 5    1  0.1281005E-004  0.1480521E+03  0.7546771E-02  0.1202887E+00
         21   -1    0    0  501  502  0.00000000000E+00  0.00000000000E+00  0.18832839185E+03  0.18832839185E+03  0.00000000000E+00 0. -1.
         21   -1    0    0  502  503 -0.00000000000E+00 -0.00000000000E+00 -0.11840159647E+03  0.11840159647E+03  0.00000000000E+00 0. -1.
         24    1    1    2    0    0 -0.50041139993E+01 -0.61600438312E+02  0.25119505297E+02  0.10448856712E+03  0.80419002446E+02 0. -1.
          1    1    1    2  501    0  0.14253445424E+02  0.12741949084E+03  0.44677818273E+02  0.13577553092E+03  0.00000000000E+00 0. -1.
         -2    1    1    2    0  503 -0.92493314246E+01 -0.65819052526E+02  0.12947181066E+00  0.66465890276E+02  0.00000000000E+00 0.  1.
<mgrwt>
<rscale>  2 0.14805210E+03</rscale>
<asrwt>0</asrwt>
<pdfrwt beam="1">  1       21 0.28973599E-01 0.14805210E+03</pdfrwt>
<pdfrwt beam="2">  1       21 0.18215630E-01 0.14805210E+03</pdfrwt>
<totfact> 0.31613307E+05</totfact>
</mgrwt>
</event>
<event>
 5    1  0.1281005E-004  0.1341921E+03  0.7546771E-02  0.1221365E+00
         21   -1    0    0  503  502  0.00000000000E+00  0.00000000000E+00  0.10125136203E+02  0.10125136203E+02  0.00000000000E+00 0.  1.
         21   -1    0    0  501  503 -0.00000000000E+00 -0.00000000000E+00 -0.18489415827E+04  0.18489415827E+04  0.00000000000E+00 0. -1.
         24    1    1    2    0    0  0.46512286491E+02  0.12611594787E+02 -0.48203051311E+03  0.49106321043E+03  0.80419002446E+02 0.  0.
          1    1    1    2  501    0 -0.10929299230E+03 -0.21000636272E+02 -0.83288490371E+03  0.84028759821E+03  0.00000000000E+00 0. -1.
         -2    1    1    2    0  502  0.62780705805E+02  0.83890414850E+01 -0.52390102972E+03  0.52771591030E+03  0.00000000000E+00 0.  1.
<mgrwt>
<rscale>  2 0.13419212E+03</rscale>
<asrwt>0</asrwt>
<pdfrwt beam="1">  1       21 0.15577140E-02 0.13419212E+03</pdfrwt>
<pdfrwt beam="2">  1       21 0.28445241E+00 0.13419212E+03</pdfrwt>
<totfact> 0.81574931E+04</totfact>
</mgrwt>
</event>
<event>
 5    1  0.1281005E-004  0.1056781E+03  0.7546771E-02  0.1268789E+00
         21   -1    0    0  501  502  0.00000000000E+00  0.00000000000E+00  0.97976525216E+01  0.97976525216E+01  0.00000000000E+00 0.  1.
         21   -1    0    0  502  503 -0.00000000000E+00 -0.00000000000E+00 -0.13733940194E+04  0.13733940194E+04  0.00000000000E+00 0. -1.
         24    1    1    2    0    0 -0.28591590745E+02 -0.31832300458E+02 -0.32199362930E+03  0.33463097239E+03  0.80419002446E+02 0.  1.
          1    1    1    2  501    0  0.77878933544E+01  0.73383023838E+02 -0.67638978416E+03  0.68040345354E+03  0.00000000000E+00 0. -1.
         -2    1    1    2    0  503  0.20803697391E+02 -0.41550723380E+02 -0.36521295346E+03  0.36815724605E+03  0.00000000000E+00 0.  1.
<mgrwt>
<rscale>  2 0.10567811E+03</rscale>
<asrwt>0</asrwt>
<pdfrwt beam="1">  1       21 0.15073308E-02 0.10567811E+03</pdfrwt>
<pdfrwt beam="2">  1       21 0.21129144E+00 0.10567811E+03</pdfrwt>
<totfact> 0.23272589E+05</totfact>
</mgrwt>
</event>
<event>
 5    1  0.1281005E-004  0.2521801E+03  0.7546771E-02  0.1111935E+00
         21   -1    0    0  503  502  0.00000000000E+00  0.00000000000E+00  0.60930700517E+02  0.60930700517E+02  0.00000000000E+00 0.  1.
         21   -1    0    0  501  503 -0.00000000000E+00 -0.00000000000E+00 -0.12840919660E+04  0.12840919660E+04  0.00000000000E+00 0. -1.
         24    1    1    2    0    0  0.13453643722E+03 -0.38980073851E+02 -0.53740299553E+03  0.56114944057E+03  0.80419002446E+02 0.  0.
          1    1    1    2  501    0  0.10215967593E+03  0.27854092949E+02 -0.39416335782E+03  0.40813870502E+03  0.00000000000E+00 0. -1.
         -2    1    1    2    0  502 -0.23669611316E+03  0.11125980902E+02 -0.29159491213E+03  0.37573452093E+03  0.00000000000E+00 0.  1.
<mgrwt>
<rscale>  2 0.25218007E+03</rscale>
<asrwt>0</asrwt>
<pdfrwt beam="1">  1       21 0.93739536E-02 0.25218007E+03</pdfrwt>
<pdfrwt beam="2">  1       21 0.19755262E+00 0.25218007E+03</pdfrwt>
<totfact> 0.12124046E+04</totfact>
</mgrwt>
</event>
<event>
 5    1  0.1281005E-004  0.3713358E+03  0.7546771E-02  0.1054183E+00
         21   -1    0    0  503  502  0.00000000000E+00  0.00000000000E+00  0.14527524612E+03  0.14527524612E+03  0.00000000000E+00 0. -1.
         21   -1    0    0  501  503 -0.00000000000E+00 -0.00000000000E+00 -0.96447555190E+03  0.96447555190E+03  0.00000000000E+00 0.  1.
         24    1    1    2    0    0  0.49802972771E+02  0.19331546812E+02 -0.67998209487E+02  0.11808902255E+03  0.80419002446E+02 0.  0.
          1    1    1    2  501    0 -0.32935729056E+03 -0.11771852635E+03 -0.37588611148E+03  0.51344351694E+03  0.00000000000E+00 0. -1.
         -2    1    1    2    0  502  0.27955431778E+03  0.98386979542E+02 -0.37531598481E+03  0.47821825853E+03  0.00000000000E+00 0.  1.
<mgrwt>
<rscale>  2 0.37133579E+03</rscale>
<asrwt>0</asrwt>
<pdfrwt beam="1">  1       21 0.22350037E-01 0.37133579E+03</pdfrwt>
<pdfrwt beam="2">  1       21 0.14838086E+00 0.37133579E+03</pdfrwt>
<totfact> 0.51788174E+03</totfact>
</mgrwt>
</event>
<event>
 5    1  0.1281005E-004  0.1321323E+03  0.7546771E-02  0.1224326E+00
         21   -1    0    0  503  502  0.00000000000E+00  0.00000000000E+00  0.72123506454E+03  0.72123506454E+03  0.00000000000E+00 0. -1.
         21   -1    0    0  501  503 -0.00000000000E+00 -0.00000000000E+00 -0.24235622952E+02  0.24235622952E+02  0.00000000000E+00 0. -1.
         24    1    1    2    0    0 -0.28997012098E+02  0.54871388816E+02  0.25557575839E+03  0.27502341764E+03  0.80419002446E+02 0. -1.
          1    1    1    2  501    0  0.52595097426E+02 -0.99303996453E+02  0.30542138102E+03  0.32543777895E+03  0.00000000000E+00 0. -1.
         -2    1    1    2    0  502 -0.23598085328E+02  0.44432607636E+02  0.13600230217E+03  0.14500949089E+03  0.00000000000E+00 0.  1.
<mgrwt>
<rscale>  2 0.13213231E+03</rscale>
<asrwt>0</asrwt>
<pdfrwt beam="1">  1       21 0.11095922E+00 0.13213231E+03</pdfrwt>
<pdfrwt beam="2">  1       21 0.37285579E-02 0.13213231E+03</pdfrwt>
<totfact> 0.28673959E+05</totfact>
</mgrwt>
</event>
<event>
 5    1  0.1281005E-004  0.1849740E+03  0.7546771E-02  0.1163074E+00
         21   -1    0    0  501  502  0.00000000000E+00  0.00000000000E+00  0.17153771046E+04  0.17153771046E+04  0.00000000000E+00 0. -1.
         21   -1    0    0  502  503 -0.00000000000E+00 -0.00000000000E+00 -0.22595079900E+02  0.22595079900E+02  0.00000000000E+00 0.  1.
         24    1    1    2    0    0  0.23626960703E+01  0.16218324453E+02  0.23429826221E+03  0.24825693950E+03  0.80419002446E+02 0.  1.
          1    1    1    2  501    0 -0.13138570193E+03  0.52746264977E+02  0.95395127127E+03  0.96440002027E+03  0.00000000000E+00 0. -1.
         -2    1    1    2    0  503  0.12902300586E+03 -0.68964589430E+02  0.50453249118E+03  0.52531522469E+03  0.00000000000E+00 0.  1.
<mgrwt>
<rscale>  2 0.18497404E+03</rscale>
<asrwt>0</asrwt>
<pdfrwt beam="1">  1       21 0.26390407E+00 0.18497404E+03</pdfrwt>
<pdfrwt beam="2">  1       21 0.34761675E-02 0.18497404E+03</pdfrwt>
<totfact> 0.27508701E+04</totfact>
</mgrwt>
</event>
<event>
 5    1  0.1281005E-004  0.1023643E+03  0.7546771E-02  0.1275401E+00
         21   -1    0    0  501  502  0.00000000000E+00  0.00000000000E+00  0.32623352706E+03  0.32623352706E+03  0.00000000000E+00 0.  1.
         21   -1    0    0  502  503 -0.00000000000E+00 -0.00000000000E+00 -0.32369300278E+02  0.32369300278E+02  0.00000000000E+00 0. -1.
         24    1    1    2    0    0 -0.35069760066E+02 -0.18643806582E+02  0.13511548012E+03  0.16217548680E+03  0.80419002446E+02 0.  1.
          1    1    1    2  501    0 -0.20073566277E+02  0.48385093786E+02  0.62039200324E+02  0.81196845632E+02  0.00000000000E+00 0. -1.
         -2    1    1    2    0  503  0.55143326343E+02 -0.29741287203E+02  0.96709546340E+02  0.11523049491E+03  0.00000000000E+00 0.  1.
<mgrwt>
<rscale>  2 0.10236426E+03</rscale>
<asrwt>0</asrwt>
<pdfrwt beam="1">  1       21 0.50189771E-01 0.10236426E+03</pdfrwt>
<pdfrwt beam="2">  1       21 0.49798926E-02 0.10236426E+03</pdfrwt>
<totfact> 0.10235698E+06</totfact>
</mgrwt>
</event>
<event>
 5    1  0.1281005E-004  0.1218003E+03  0.7546771E-02  0.1240156E+00
         21   -1    0    0  501  502  0.00000000000E+00  0.00000000000E+00  0.47294193092E+03  0.47294193092E+03  0.00000000000E+00 0.  1.
         21   -1    0    0  502  503 -0.00000000000E+00 -0.00000000000E+00 -0.32107128216E+02  0.32107128216E+02  0.00000000000E+00 0. -1.
         24    1    1    2    0    0  0.23856458217E+02  0.10758076839E+02  0.11851247994E+03  0.14559289362E+03  0.80419002446E+02 0. -1.
          1    1    1    2  501    0 -0.82426710199E+02 -0.42149634837E+02  0.19332509895E+03  0.21434866026E+03  0.00000000000E+00 0. -1.
         -2    1    1    2    0  503  0.58570251983E+02  0.31391557998E+02  0.12899722381E+03  0.14510750526E+03  0.00000000000E+00 0.  1.
<mgrwt>
<rscale>  2 0.12180031E+03</rscale>
<asrwt>0</asrwt>
<pdfrwt beam="1">  1       21 0.72760292E-01 0.12180031E+03</pdfrwt>
<pdfrwt beam="2">  1       21 0.49395585E-02 0.12180031E+03</pdfrwt>
<totfact> 0.47239002E+05</totfact>
</mgrwt>
</event>
<event>
 5    1  0.1281005E-004  0.9541099E+02  0.7546771E-02  0.1290253E+00
         21   -1    0    0  501  502  0.00000000000E+00  0.00000000000E+00  0.35104172842E+03  0.35104172842E+03  0.00000000000E+00 0. -1.
         21   -1    0    0  502  503 -0.00000000000E+00 -0.00000000000E+00 -0.25986324003E+02  0.25986324003E+02  0.00000000000E+00 0.  1.
         24    1    1    2    0    0  0.98709343944E+01  0.93641400038E+01  0.13302756466E+03  0.15604060811E+03  0.80419002446E+02 0.  0.
          1    1    1    2  501    0 -0.42092631409E+02 -0.44727012474E+02  0.10311624811E+03  0.12002189754E+03  0.00000000000E+00 0. -1.
         -2    1    1    2    0  503  0.32221697014E+02  0.35362872470E+02  0.88911591636E+02  0.10096554677E+03  0.00000000000E+00 0.  1.
<mgrwt>
<rscale>  2 0.95410989E+02</rscale>
<asrwt>0</asrwt>
<pdfrwt beam="1">  1       21 0.54006416E-01 0.95410989E+02</pdfrwt>
<pdfrwt beam="2">  1       21 0.39978962E-02 0.95410989E+02</pdfrwt>
<totfact> 0.12656409E+06</totfact>
</mgrwt>
</event>
<event>
 5    1  0.1281005E-004  0.2644424E+03  0.7546771E-02  0.1104503E+00
         21   -1    0    0  503  502  0.00000000000E+00  0.00000000000E+00  0.27134623025E+03  0.27134623025E+03  0.00000000000E+00 0.  1.
         21   -1    0    0  501  503 -0.00000000000E+00 -0.00000000000E+00 -0.31522474501E+03  0.31522474501E+03  0.00000000000E+00 0. -1.
         24    1    1    2    0    0 -0.27502756000E+02 -0.58811933822E+02  0.88362584243E+02  0.13597943740E+03  0.80419002446E+02 0.  1.
          1    1    1    2  501    0  0.66589927830E+02  0.23541508839E+03 -0.11037617286E+03  0.26839780525E+03  0.00000000000E+00 0. -1.
         -2    1    1    2    0  502 -0.39087171830E+02 -0.17660315457E+03 -0.21864926150E+02  0.18219373261E+03  0.00000000000E+00 0.  1.
<mgrwt>
<rscale>  2 0.26444236E+03</rscale>
<asrwt>0</asrwt>
<pdfrwt beam="1">  1       21 0.41745574E-01 0.26444236E+03</pdfrwt>
<pdfrwt beam="2">  1       21 0.48496114E-01 0.26444236E+03</pdfrwt>
<totfact> 0.21607661E+04</totfact>
</mgrwt>
</event>
<event>
 5    1  0.1281005E-004  0.1334614E+03  0.7546771E-02  0.1222408E+00
         21   -1    0    0  501  502  0.00000000000E+00  0.00000000000E+00  0.26031393621E+03  0.26031393621E+03  0.00000000000E+00 0.  1.
         21   -1    0    0  502  503 -0.00000000000E+00 -0.00000000000E+00 -0.68507538121E+02  0.68507538121E+02  0.00000000000E+00 0. -1.
         24    1    1    2    0    0 -0.28278350019E+02  0.10486751805E+01  0.58853468895E+02  0.10359397451E+03  0.80419002446E+02 0.  0.
          1    1    1    2  501    0 -0.76586178628E+02  0.39367680833E+01  0.60325940858E+02  0.97571307464E+02  0.00000000000E+00 0. -1.
         -2    1    1    2    0  503  0.10486452865E+03 -0.49854432638E+01  0.72626988338E+02  0.12765619236E+03  0.00000000000E+00 0.  1.
<mgrwt>
<rscale>  2 0.13346136E+03</rscale>
<asrwt>0</asrwt>
<pdfrwt beam="1">  1       21 0.40048297E-01 0.13346136E+03</pdfrwt>
<pdfrwt beam="2">  1       21 0.10539621E-01 0.13346136E+03</pdfrwt>
<totfact> 0.44830821E+05</totfact>
</mgrwt>
</event>
<event>
 5    1  0.1281005E-004  0.1882649E+03  0.7546771E-02  0.1160036E+00
         21   -1    0    0  503  502  0.00000000000E+00  0.00000000000E+00  0.92221438883E+03  0.92221438883E+03  0.00000000000E+00 0.  1.
         21   -1    0    0  501  503 -0.00000000000E+00 -0.00000000000E+00 -0.39809223589E+02  0.39809223589E+02  0.00000000000E+00 0. -1.
         24    1    1    2    0    0  0.25814472532E+02 -0.38284299759E+02  0.26003263476E+03  0.27607292822E+03  0.80419002446E+02 0.  0.
          1    1    1    2  501    0 -0.10152675394E+03  0.12994926327E+03  0.29972721763E+03  0.34209778979E+03  0.00000000000E+00 0. -1.
         -2    1    1    2    0  502  0.75712281406E+02 -0.91664963512E+02  0.32264531285E+03  0.34385289441E+03  0.00000000000E+00 0.  1.
<mgrwt>
<rscale>  2 0.18826491E+03</rscale>
<asrwt>0</asrwt>
<pdfrwt beam="1">  1       21 0.14187912E+00 0.18826491E+03</pdfrwt>
<pdfrwt beam="2">  1       21 0.61244966E-02 0.18826491E+03</pdfrwt>
<totfact> 0.65954698E+04</totfact>
</mgrwt>
</event>
<event>
 5    1  0.1281005E-004  0.3736463E+03  0.7546771E-02  0.1053307E+00
         21   -1    0    0  503  502  0.00000000000E+00  0.00000000000E+00  0.53517590198E+03  0.53517590198E+03  0.00000000000E+00 0.  1.
         21   -1    0    0  501  503 -0.00000000000E+00 -0.00000000000E+00 -0.26151398129E+03  0.26151398129E+03  0.00000000000E+00 0. -1.
         24    1    1    2    0    0 -0.40457992797E+02  0.10811847553E+03  0.39913167211E+02  0.14624202817E+03  0.80419002446E+02 0.  0.
          1    1    1    2  501    0  0.24902726623E+03 -0.25116507753E+03  0.14780862330E+03  0.38333518573E+03  0.00000000000E+00 0. -1.
         -2    1    1    2    0  502 -0.20856927343E+03  0.14304660199E+03  0.85940130181E+02  0.26711266937E+03  0.00000000000E+00 0.  1.
<mgrwt>
<rscale>  2 0.37364631E+03</rscale>
<asrwt>0</asrwt>
<pdfrwt beam="1">  1       21 0.82334754E-01 0.37364631E+03</pdfrwt>
<pdfrwt beam="2">  1       21 0.40232920E-01 0.37364631E+03</pdfrwt>
<totfact> 0.69696195E+03</totfact>
</mgrwt>
</event>
<event>
 5    1  0.1281005E-004  0.7161114E+02  0.7546771E-02  0.1354698E+00
         21   -1    0    0  503  502  0.00000000000E+00  0.00000000000E+00  0.12157819408E+03  0.12157819408E+03  0.00000000000E+00 0. -1.
         21   -1    0    0  501  503 -0.00000000000E+00 -0.00000000000E+00 -0.43239302395E+02  0.43239302395E+02  0.00000000000E+00 0.  1.
         24    1    1    2    0    0  0.13768562312E+02  0.88543102866E+01  0.32001121453E+02  0.88086661007E+02  0.80419002446E+02 0.  1.
          1    1    1    2  501    0 -0.33945290112E+02 -0.18643453719E+02  0.28872021558E+02  0.48305845570E+02  0.00000000000E+00 0. -1.
         -2    1    1    2    0  502  0.20176727800E+02  0.97891434327E+01  0.17465748672E+02  0.28424989895E+02  0.00000000000E+00 0.  1.
<mgrwt>
<rscale>  2 0.71611140E+02</rscale>
<asrwt>0</asrwt>
<pdfrwt beam="1">  1       21 0.18704337E-01 0.71611140E+02</pdfrwt>
<pdfrwt beam="2">  1       21 0.66522004E-02 0.71611140E+02</pdfrwt>
<totfact> 0.41206309E+06</totfact>
</mgrwt>
</event>
<event>
 5    1  0.1281005E-004  0.1518294E+03  0.7546771E-02  0.1198243E+00
         21   -1    0    0  503  502  0.00000000000E+00  0.00000000000E+00  0.43524759656E+03  0.43524759656E+03  0.00000000000E+00 0.  1.
         21   -1    0    0  501  503 -0.00000000000E+00 -0.00000000000E+00 -0.55648628478E+02  0.55648628478E+02  0.00000000000E+00 0. -1.
         24    1    1    2    0    0  0.10537125311E+03  0.30116845742E+02  0.12197724568E+03  0.18263567504E+03  0.80419002446E+02 0.  0.
          1    1    1    2  501    0  0.29814928319E+02 -0.53213659713E+01  0.31898686681E+02  0.43986055727E+02  0.00000000000E+00 0. -1.
         -2    1    1    2    0  502 -0.13518618143E+03 -0.24795479770E+02  0.22572303573E+03  0.26427449428E+03  0.00000000000E+00 0.  1.
<mgrwt>
<rscale>  2 0.15182940E+03</rscale>
<asrwt>0</asrwt>
<pdfrwt beam="1">  1       21 0.66961167E-01 0.15182940E+03</pdfrwt>
<pdfrwt beam="2">  1       21 0.85613277E-02 0.15182940E+03</pdfrwt>
<totfact> 0.22032241E+05</totfact>
</mgrwt>
</event>
<event>
 5    1  0.1281005E-004  0.1333374E+03  0.7546771E-02  0.1222586E+00
         21   -1    0    0  501  502  0.00000000000E+00  0.00000000000E+00  0.12300162188E+04  0.12300162188E+04  0.00000000000E+00 0. -1.
         21   -1    0    0  502  503 -0.00000000000E+00 -0.00000000000E+00 -0.14970859311E+02  0.14970859311E+02  0.00000000000E+00 0. -1.
         24    1    1    2    0    0 -0.24376833888E+02  0.57952050497E+02  0.56768172085E+03  0.57678628826E+03  0.80419002446E+02 0. -1.
          1    1    1    2  501    0 -0.61593654707E+02 -0.12404808769E+01  0.20827470243E+03  0.21719500171E+03  0.00000000000E+00 0. -1.
         -2    1    1    2    0  503  0.85970488595E+02 -0.56711569620E+02  0.43908893624E+03  0.45100578818E+03  0.00000000000E+00 0.  1.
<mgrwt>
<rscale>  2 0.13333745E+03</rscale>
<asrwt>0</asrwt>
<pdfrwt beam="1">  1       21 0.18923318E+00 0.13333745E+03</pdfrwt>
<pdfrwt beam="2">  1       21 0.23032101E-02 0.13333745E+03</pdfrwt>
<totfact> 0.15908219E+05</totfact>
</mgrwt>
</event>
<event>
 5    1  0.1281005E-004  0.1893524E+03  0.7546771E-02  0.1159047E+00
         21   -1    0    0  501  502  0.00000000000E+00  0.00000000000E+00  0.13114292991E+04  0.13114292991E+04  0.00000000000E+00 0.  1.
         21   -1    0    0  502  503 -0.00000000000E+00 -0.00000000000E+00 -0.27659674143E+02  0.27659674143E+02  0.00000000000E+00 0. -1.
         24    1    1    2    0    0 -0.59106058074E+02  0.63386308521E+02  0.36305838424E+03  0.38182451012E+03  0.80419002446E+02 0. -1.
          1    1    1    2  501    0  0.13646686936E+03 -0.10540897192E+03  0.55888232918E+03  0.58487923169E+03  0.00000000000E+00 0. -1.
         -2    1    1    2    0  503 -0.77360811289E+02  0.42022663401E+02  0.36182891155E+03  0.37238523144E+03  0.00000000000E+00 0.  1.
<mgrwt>
<rscale>  2 0.18935236E+03</rscale>
<asrwt>0</asrwt>
<pdfrwt beam="1">  1       21 0.20175831E+00 0.18935236E+03</pdfrwt>
<pdfrwt beam="2">  1       21 0.42553355E-02 0.18935236E+03</pdfrwt>
<totfact> 0.46309727E+04</totfact>
</mgrwt>
</event>
<event>
 5    1  0.4306813E-004  0.3787126E+03  0.7546771E-02  0.1051411E+00
         21   -1    0    0  503  502  0.00000000000E+00  0.00000000000E+00  0.29232337454E+03  0.29232337454E+03  0.00000000000E+00 0.  1.
         21   -1    0    0  501  503 -0.00000000000E+00 -0.00000000000E+00 -0.75092912211E+03  0.75092912211E+03  0.00000000000E+00 0. -1.
         24    1    1    2    0    0 -0.60684762977E+02 -0.41215281160E+02 -0.26171858576E+03  0.28345224280E+03  0.80419002446E+02 0. -1.
          1    1    1    2  501    0 -0.15325884669E+03  0.28538585681E+03 -0.27610179378E+03  0.42563548006E+03  0.00000000000E+00 0. -1.
         -2    1    1    2    0  502  0.21394360967E+03 -0.24417057565E+03  0.79214631967E+02  0.33416477380E+03  0.00000000000E+00 0.  1.
<mgrwt>
<rscale>  2 0.37871264E+03</rscale>
<asrwt>0</asrwt>
<pdfrwt beam="1">  1       21 0.44972827E-01 0.37871264E+03</pdfrwt>
<pdfrwt beam="2">  1       21 0.11552756E+00 0.37871264E+03</pdfrwt>
<totfact> 0.24468677E+03</totfact>
</mgrwt>
</event>
<event>
 5    1  0.1281005E-004  0.2956145E+03  0.7546771E-02  0.1087454E+00
         21   -1    0    0  503  502  0.00000000000E+00  0.00000000000E+00  0.24257677910E+03  0.24257677910E+03  0.00000000000E+00 0.  1.
         21   -1    0    0  501  503 -0.00000000000E+00 -0.00000000000E+00 -0.38324960891E+03  0.38324960891E+03  0.00000000000E+00 0. -1.
         24    1    1    2    0    0  0.52047471901E+02 -0.95414616357E+02 -0.84199539802E+02  0.15927858237E+03  0.80419002446E+02 0. -1.
          1    1    1    2  501    0 -0.24566400765E+03  0.14227442389E+02 -0.70950354607E+02  0.25609993672E+03  0.00000000000E+00 0. -1.
         -2    1    1    2    0  502  0.19361653575E+03  0.81187173968E+02  0.14477064597E+02  0.21044786891E+03  0.00000000000E+00 0.  1.
<mgrwt>
<rscale>  2 0.29561446E+03</rscale>
<asrwt>0</asrwt>
<pdfrwt beam="1">  1       21 0.37319505E-01 0.29561446E+03</pdfrwt>
<pdfrwt beam="2">  1       21 0.58961478E-01 0.29561446E+03</pdfrwt>
<totfact> 0.17675072E+04</totfact>
</mgrwt>
</event>
<event>
 5    1  0.1281005E-004  0.1192367E+03  0.7546771E-02  0.1244362E+00
         21   -1    0    0  501  502  0.00000000000E+00  0.00000000000E+00  0.46925885025E+02  0.46925885025E+02  0.00000000000E+00 0.  1.
         21   -1    0    0  502  503 -0.00000000000E+00 -0.00000000000E+00 -0.33150944544E+03  0.33150944544E+03  0.00000000000E+00 0. -1.
         24    1    1    2    0    0  0.49021257042E+02 -0.33290877084E+02 -0.16657897420E+03  0.19423474648E+03  0.80419002446E+02 0.  0.
          1    1    1    2  501    0 -0.70418915846E+02  0.67944289184E+02 -0.65500553517E+02  0.11775216623E+03  0.00000000000E+00 0. -1.
         -2    1    1    2    0  503  0.21397658803E+02 -0.34653412101E+02 -0.52504032693E+02  0.66448417750E+02  0.00000000000E+00 0.  1.
<mgrwt>
<rscale>  2 0.11923672E+03</rscale>
<asrwt>0</asrwt>
<pdfrwt beam="1">  1       21 0.72193669E-02 0.11923672E+03</pdfrwt>
<pdfrwt beam="2">  1       21 0.51001453E-01 0.11923672E+03</pdfrwt>
<totfact> 0.52901649E+05</totfact>
</mgrwt>
</event>
<event>
 5    1  0.1281005E-004  0.1594619E+03  0.7546771E-02  0.1189306E+00
         21   -1    0    0  503  502  0.00000000000E+00  0.00000000000E+00  0.38355945921E+02  0.38355945921E+02  0.00000000000E+00 0. -1.
         21   -1    0    0  501  503 -0.00000000000E+00 -0.00000000000E+00 -0.70660820656E+03  0.70660820656E+03  0.00000000000E+00 0.  1.
         24    1    1    2    0    0  0.32593442289E+01  0.42381696037E+01 -0.25535425234E+03  0.26777153611E+03  0.80419002446E+02 0.  1.
          1    1    1    2  501    0 -0.75978465102E+02 -0.95243884527E+02 -0.23167693388E+03  0.26176005499E+03  0.00000000000E+00 0. -1.
         -2    1    1    2    0  502  0.72719120873E+02  0.91005714923E+02 -0.18122107442E+03  0.21543256138E+03  0.00000000000E+00 0.  1.
<mgrwt>
<rscale>  2 0.15946191E+03</rscale>
<asrwt>0</asrwt>
<pdfrwt beam="1">  1       21 0.59009150E-02 0.15946191E+03</pdfrwt>
<pdfrwt beam="2">  1       21 0.10870895E+00 0.15946191E+03</pdfrwt>
<totfact> 0.13814014E+05</totfact>
</mgrwt>
</event>
<event>
 5    1  0.1281005E-004  0.2115129E+03  0.7546771E-02  0.1140374E+00
         21   -1    0    0  503  502  0.00000000000E+00  0.00000000000E+00  0.50298632889E+03  0.50298632889E+03  0.00000000000E+00 0.  1.
         21   -1    0    0  501  503 -0.00000000000E+00 -0.00000000000E+00 -0.94595615901E+02  0.94595615901E+02  0.00000000000E+00 0. -1.
         24    1    1    2    0    0  0.24469711620E+02 -0.40072758555E+02  0.58635309758E+02  0.11004502837E+03  0.80419002446E+02 0.  0.
          1    1    1    2  501    0  0.38666306725E+02 -0.13676861517E+03  0.94592757224E+02  0.17072939727E+03  0.00000000000E+00 0. -1.
         -2    1    1    2    0  502 -0.63136018345E+02  0.17684137373E+03  0.25516264601E+03  0.31680751915E+03  0.00000000000E+00 0.  1.
<mgrwt>
<rscale>  2 0.21151286E+03</rscale>
<asrwt>0</asrwt>
<pdfrwt beam="1">  1       21 0.77382511E-01 0.21151286E+03</pdfrwt>
<pdfrwt beam="2">  1       21 0.14553172E-01 0.21151286E+03</pdfrwt>
<totfact> 0.60898289E+04</totfact>
</mgrwt>
</event>
<event>
 5    1  0.1281005E-004  0.2391179E+03  0.7546771E-02  0.1120382E+00
         21   -1    0    0  503  502  0.00000000000E+00  0.00000000000E+00  0.19820184706E+03  0.19820184706E+03  0.00000000000E+00 0. -1.
         21   -1    0    0  501  503 -0.00000000000E+00 -0.00000000000E+00 -0.29289735207E+03  0.29289735207E+03  0.00000000000E+00 0.  1.
         24    1    1    2    0    0  0.57819152441E+02  0.13490991941E+02 -0.20650453316E+02  0.10207212366E+03  0.80419002446E+02 0.  1.
          1    1    1    2  501    0 -0.96369174361E+02 -0.18171621972E+03 -0.66895443992E+02  0.21629332561E+03  0.00000000000E+00 0. -1.
         -2    1    1    2    0  502  0.38550021921E+02  0.16822522777E+03 -0.71496076981E+01  0.17273374986E+03  0.00000000000E+00 0.  1.
<mgrwt>
<rscale>  2 0.23911785E+03</rscale>
<asrwt>0</asrwt>
<pdfrwt beam="1">  1       21 0.30492592E-01 0.23911785E+03</pdfrwt>
<pdfrwt beam="2">  1       21 0.45061131E-01 0.23911785E+03</pdfrwt>
<totfact> 0.47749557E+04</totfact>
</mgrwt>
</event>
<event>
 5    1  0.1281005E-004  0.1775828E+03  0.7546771E-02  0.1170163E+00
         21   -1    0    0  503  502  0.00000000000E+00  0.00000000000E+00  0.43318010026E+03  0.43318010026E+03  0.00000000000E+00 0.  1.
         21   -1    0    0  501  503 -0.00000000000E+00 -0.00000000000E+00 -0.75512314760E+02  0.75512314760E+02  0.00000000000E+00 0. -1.
         24    1    1    2    0    0  0.34472338231E+02 -0.21796399325E+02  0.97154565117E+02  0.13255055867E+03  0.80419002446E+02 0. -1.
          1    1    1    2  501    0  0.10109144501E+03  0.67932446715E+02  0.16047105742E+03  0.20145783142E+03  0.00000000000E+00 0. -1.
         -2    1    1    2    0  502 -0.13556378324E+03 -0.46136047389E+02  0.10004216297E+03  0.17468402493E+03  0.00000000000E+00 0.  1.
<mgrwt>
<rscale>  2 0.17758281E+03</rscale>
<asrwt>0</asrwt>
<pdfrwt beam="1">  1       21 0.66643091E-01 0.17758281E+03</pdfrwt>
<pdfrwt beam="2">  1       21 0.11617279E-01 0.17758281E+03</pdfrwt>
<totfact> 0.12902948E+05</totfact>
</mgrwt>
</event>
<event>
 5    1  0.1281005E-004  0.1100134E+03  0.7546771E-02  0.1260545E+00
         21   -1    0    0  503  502  0.00000000000E+00  0.00000000000E+00  0.30218906190E+03  0.30218906190E+03  0.00000000000E+00 0. -1.
         21   -1    0    0  501  503 -0.00000000000E+00 -0.00000000000E+00 -0.46859408839E+02  0.46859408839E+02  0.00000000000E+00 0. -1.
         24    1    1    2    0    0  0.73392517948E+02 -0.96593893127E+00  0.19218831252E+03  0.22088675414E+03  0.80419002446E+02 0. -1.
          1    1    1    2  501    0 -0.72569482904E+02  0.32562797739E+02  0.40317144272E+02  0.89174759702E+02  0.00000000000E+00 0. -1.
         -2    1    1    2    0  502 -0.82303504347E+00 -0.31596858808E+02  0.22824196268E+02  0.38986956902E+02  0.00000000000E+00 0.  1.
<mgrwt>
<rscale>  2 0.11001340E+03</rscale>
<asrwt>0</asrwt>
<pdfrwt beam="1">  1       21 0.46490624E-01 0.11001340E+03</pdfrwt>
<pdfrwt beam="2">  1       21 0.72091400E-02 0.11001340E+03</pdfrwt>
<totfact> 0.64135676E+05</totfact>
</mgrwt>
</event>
<event>
 5    1  0.1281005E-004  0.1289847E+03  0.7546771E-02  0.1228970E+00
         21   -1    0    0  503  502  0.00000000000E+00  0.00000000000E+00  0.84789765256E+02  0.84789765256E+02  0.00000000000E+00 0. -1.
         21   -1    0    0  501  503 -0.00000000000E+00 -0.00000000000E+00 -0.20064487872E+03  0.20064487872E+03  0.00000000000E+00 0. -1.
         24    1    1    2    0    0 -0.50384093734E+02  0.24094334115E+02 -0.56599048516E+02  0.11309183032E+03  0.80419002446E+02 0. -1.
          1    1    1    2  501    0  0.74912260700E+02 -0.73470091096E+02 -0.50757507057E+02  0.11655910780E+03  0.00000000000E+00 0. -1.
         -2    1    1    2    0  502 -0.24528166967E+02  0.49375756981E+02 -0.84985578865E+01  0.55783705850E+02  0.00000000000E+00 0.  1.
<mgrwt>
<rscale>  2 0.12898468E+03</rscale>
<asrwt>0</asrwt>
<pdfrwt beam="1">  1       21 0.13044579E-01 0.12898468E+03</pdfrwt>
<pdfrwt beam="2">  1       21 0.30868442E-01 0.12898468E+03</pdfrwt>
<totfact> 0.51317532E+05</totfact>
</mgrwt>
</event>
<event>
 5    1  0.1281005E-004  0.1357761E+03  0.7546771E-02  0.1219128E+00
         21   -1    0    0  501  502  0.00000000000E+00  0.00000000000E+00  0.23939211736E+03  0.23939211736E+03  0.00000000000E+00 0. -1.
         21   -1    0    0  502  503 -0.00000000000E+00 -0.00000000000E+00 -0.88567483720E+02  0.88567483720E+02  0.00000000000E+00 0.  1.
         24    1    1    2    0    0  0.11072670418E+02  0.27498056880E+02  0.10386273210E+03  0.13466042565E+03  0.80419002446E+02 0. -1.
          1    1    1    2  501    0 -0.36750602921E+02 -0.10126908925E+03  0.39843982553E+02  0.11486330222E+03  0.00000000000E+00 0. -1.
         -2    1    1    2    0  503  0.25677932503E+02  0.73771032367E+02  0.71179189788E+01  0.78435873201E+02  0.00000000000E+00 0.  1.
<mgrwt>
<rscale>  2 0.13577607E+03</rscale>
<asrwt>0</asrwt>
<pdfrwt beam="1">  1       21 0.36829556E-01 0.13577607E+03</pdfrwt>
<pdfrwt beam="2">  1       21 0.13625767E-01 0.13577607E+03</pdfrwt>
<totfact> 0.33575290E+05</totfact>
</mgrwt>
</event>
<event>
 5    1  0.1281005E-004  0.2324042E+03  0.7546771E-02  0.1124959E+00
         21   -1    0    0  501  502  0.00000000000E+00  0.00000000000E+00  0.16132341469E+03  0.16132341469E+03  0.00000000000E+00 0. -1.
         21   -1    0    0  502  503 -0.00000000000E+00 -0.00000000000E+00 -0.33861010619E+03  0.33861010619E+03  0.00000000000E+00 0.  1.
         24    1    1    2    0    0  0.14579477590E+03  0.12289853307E+03 -0.82795474560E+02  0.22289565423E+03  0.80419002446E+02 0.  0.
          1    1    1    2  501    0  0.45305458638E+01  0.37649534075E+02 -0.68021043322E+00  0.37927245459E+02  0.00000000000E+00 0. -1.
         -2    1    1    2    0  503 -0.15032532176E+03 -0.16054806714E+03 -0.93811006506E+02  0.23911062120E+03  0.00000000000E+00 0.  1.
<mgrwt>
<rscale>  2 0.23240421E+03</rscale>
<asrwt>0</asrwt>
<pdfrwt beam="1">  1       21 0.24818987E-01 0.23240421E+03</pdfrwt>
<pdfrwt beam="2">  1       21 0.52093862E-01 0.23240421E+03</pdfrwt>
<totfact> 0.52743244E+04</totfact>
</mgrwt>
</event>
<event>
 5    1  0.1281005E-004  0.2421092E+03  0.7546771E-02  0.1118396E+00
         21   -1    0    0  501  502  0.00000000000E+00  0.00000000000E+00  0.54070728329E+03  0.54070728329E+03  0.00000000000E+00 0. -1.
         21   -1    0    0  502  503 -0.00000000000E+00 -0.00000000000E+00 -0.10867109034E+03  0.10867109034E+03  0.00000000000E+00 0.  1.
         24    1    1    2    0    0 -0.15592805911E+03 -0.78124070567E+02  0.18651718975E+03  0.26771777686E+03  0.80419002446E+02 0. -1.
          1    1    1    2  501    0 -0.62799537535E+02  0.17364531865E+02  0.52091691117E+02  0.83419740859E+02  0.00000000000E+00 0. -1.
         -2    1    1    2    0  503  0.21872759664E+03  0.60759538702E+02  0.19342731209E+03  0.29824085592E+03  0.00000000000E+00 0.  1.
<mgrwt>
<rscale>  2 0.24210918E+03</rscale>
<asrwt>0</asrwt>
<pdfrwt beam="1">  1       21 0.83185734E-01 0.24210918E+03</pdfrwt>
<pdfrwt beam="2">  1       21 0.16718630E-01 0.24210918E+03</pdfrwt>
<totfact> 0.39523409E+04</totfact>
</mgrwt>
</event>
<event>
 5    1  0.1281005E-004  0.1480257E+03  0.7546771E-02  0.1202920E+00
         21   -1    0    0  503  502  0.00000000000E+00  0.00000000000E+00  0.13317945961E+04  0.13317945961E+04  0.00000000000E+00 0.  1.
         21   -1    0    0  501  503 -0.00000000000E+00 -0.00000000000E+00 -0.16821695045E+02  0.16821695045E+02  0.00000000000E+00 0. -1.
         24    1    1    2    0    0 -0.43160476743E+02 -0.54318795631E+02  0.38147739952E+03  0.39598684399E+03  0.80419002446E+02 0. -1.
          1    1    1    2  501    0  0.42748832440E+02 -0.61018567255E+02  0.38367893004E+03  0.39084555720E+03  0.00000000000E+00 0. -1.
         -2    1    1    2    0  502  0.41164430263E+00  0.11533736289E+03  0.54981657148E+03  0.56178388994E+03  0.00000000000E+00 0.  1.
<mgrwt>
<rscale>  2 0.14802568E+03</rscale>
<asrwt>0</asrwt>
<pdfrwt beam="1">  1       21 0.20489139E+00 0.14802568E+03</pdfrwt>
<pdfrwt beam="2">  1       21 0.25879541E-02 0.14802568E+03</pdfrwt>
<totfact> 0.10367479E+05</totfact>
</mgrwt>
</event>
<event>
 5    1  0.1281005E-004  0.1426299E+03  0.7546771E-02  0.1209833E+00
         21   -1    0    0  503  502  0.00000000000E+00  0.00000000000E+00  0.51903241210E+03  0.51903241210E+03  0.00000000000E+00 0. -1.
         21   -1    0    0  501  503 -0.00000000000E+00 -0.00000000000E+00 -0.41298542571E+02  0.41298542571E+02  0.00000000000E+00 0.  1.
         24    1    1    2    0    0 -0.24381526707E+02  0.48822817698E+02  0.12117264093E+03  0.15533238953E+03  0.80419002446E+02 0.  0.
          1    1    1    2  501    0 -0.16264914711E+02 -0.11187684342E+03  0.25309850089E+03  0.27719997600E+03  0.00000000000E+00 0. -1.
         -2    1    1    2    0  502  0.40646441418E+02  0.63054025726E+02  0.10346272771E+03  0.12779858914E+03  0.00000000000E+00 0.  1.
<mgrwt>
<rscale>  2 0.14262987E+03</rscale>
<asrwt>0</asrwt>
<pdfrwt beam="1">  1       21 0.79851136E-01 0.14262987E+03</pdfrwt>
<pdfrwt beam="2">  1       21 0.63536223E-02 0.14262987E+03</pdfrwt>
<totfact> 0.25022260E+05</totfact>
</mgrwt>
</event>
<event>
 5    1  0.1281005E-004  0.2223266E+03  0.7546771E-02  0.1132160E+00
         21   -1    0    0  503  502  0.00000000000E+00  0.00000000000E+00  0.90731132371E+02  0.90731132371E+02  0.00000000000E+00 0. -1.
         21   -1    0    0  501  503 -0.00000000000E+00 -0.00000000000E+00 -0.60023975911E+03  0.60023975911E+03  0.00000000000E+00 0.  1.
         24    1    1    2    0    0 -0.17598186690E+02 -0.54296927421E+02 -0.83381273257E+02  0.12914141546E+03  0.80419002446E+02 0. -1.
          1    1    1    2  501    0  0.17961070217E+03  0.23821831977E+02 -0.13030748939E+03  0.22317599737E+03  0.00000000000E+00 0. -1.
         -2    1    1    2    0  502 -0.16201251548E+03  0.30475095444E+02 -0.29581986409E+03  0.33865347866E+03  0.00000000000E+00 0.  1.
<mgrwt>
<rscale>  2 0.22232658E+03</rscale>
<asrwt>0</asrwt>
<pdfrwt beam="1">  1       21 0.13958636E-01 0.22232658E+03</pdfrwt>
<pdfrwt beam="2">  1       21 0.92344576E-01 0.22232658E+03</pdfrwt>
<totfact> 0.43583919E+04</totfact>
</mgrwt>
</event>
<event>
 5    1  0.1281005E-004  0.1346589E+03  0.7546771E-02  0.1220702E+00
         21   -1    0    0  503  502  0.00000000000E+00  0.00000000000E+00  0.31401599261E+03  0.31401599261E+03  0.00000000000E+00 0. -1.
         21   -1    0    0  501  503 -0.00000000000E+00 -0.00000000000E+00 -0.58472210057E+02  0.58472210057E+02  0.00000000000E+00 0.  1.
         24    1    1    2    0    0  0.98907705546E+01  0.47066436993E+02  0.98387006457E+02  0.13586867125E+03  0.80419002446E+02 0. -1.
          1    1    1    2  501    0  0.78695287966E+02 -0.90434292829E+01  0.56876636350E+02  0.97517607250E+02  0.00000000000E+00 0. -1.
         -2    1    1    2    0  502 -0.88586058521E+02 -0.38023007710E+02  0.10028013975E+03  0.13910192417E+03  0.00000000000E+00 0.  1.
<mgrwt>
<rscale>  2 0.13465893E+03</rscale>
<asrwt>0</asrwt>
<pdfrwt beam="1">  1       21 0.48310152E-01 0.13465893E+03</pdfrwt>
<pdfrwt beam="2">  1       21 0.89957248E-02 0.13465893E+03</pdfrwt>
<totfact> 0.40417899E+05</totfact>
</mgrwt>
</event>
<event>
 5    1  0.1281005E-004  0.1880301E+03  0.7546771E-02  0.1160250E+00
         21   -1    0    0  501  502  0.00000000000E+00  0.00000000000E+00  0.91095101312E+02  0.91095101312E+02  0.00000000000E+00 0. -1.
         21   -1    0    0  502  503 -0.00000000000E+00 -0.00000000000E+00 -0.39765032200E+03  0.39765032200E+03  0.00000000000E+00 0.  1.
         24    1    1    2    0    0  0.34384020471E+02  0.28954767627E+02 -0.10434741473E+03  0.13919855728E+03  0.80419002446E+02 0.  0.
          1    1    1    2  501    0 -0.43583316976E+02 -0.15323391951E+03 -0.97507004627E+02  0.18678264255E+03  0.00000000000E+00 0. -1.
         -2    1    1    2    0  503  0.91992965044E+01  0.12427915188E+03 -0.10470080133E+03  0.16276422349E+03  0.00000000000E+00 0.  1.
<mgrwt>
<rscale>  2 0.18803009E+03</rscale>
<asrwt>0</asrwt>
<pdfrwt beam="1">  1       21 0.14014631E-01 0.18803009E+03</pdfrwt>
<pdfrwt beam="2">  1       21 0.61176974E-01 0.18803009E+03</pdfrwt>
<totfact> 0.11048146E+05</totfact>
</mgrwt>
</event>
<event>
 5    1  0.1281005E-004  0.1296181E+03  0.7546771E-02  0.1228023E+00
         21   -1    0    0  501  502  0.00000000000E+00  0.00000000000E+00  0.10481014089E+03  0.10481014089E+03  0.00000000000E+00 0.  1.
         21   -1    0    0  502  503 -0.00000000000E+00 -0.00000000000E+00 -0.23020612392E+03  0.23020612392E+03  0.00000000000E+00 0.  1.
         24    1    1    2    0    0  0.20695129415E+02 -0.12734744868E+02 -0.66373531887E+01  0.84271777720E+02  0.80419002446E+02 0.  1.
          1    1    1    2  501    0  0.29327594828E+02 -0.71487147450E+02  0.21002801933E+02  0.80072702952E+02  0.00000000000E+00 0. -1.
         -2    1    1    2    0  503 -0.50022724244E+02  0.84221892319E+02 -0.13976143178E+03  0.17067178413E+03  0.00000000000E+00 0.  1.
<mgrwt>
<rscale>  2 0.12961813E+03</rscale>
<asrwt>0</asrwt>
<pdfrwt beam="1">  1       21 0.16124637E-01 0.12961813E+03</pdfrwt>
<pdfrwt beam="2">  1       21 0.35416327E-01 0.12961813E+03</pdfrwt>
<totfact> 0.26805868E+05</totfact>
</mgrwt>
</event>
<event>
 5    1  0.1312618E-004  0.2642267E+03  0.7546771E-02  0.1104630E+00
         21   -1    0    0  503  502  0.00000000000E+00  0.00000000000E+00  0.33557432003E+03  0.33557432003E+03  0.00000000000E+00 0.  1.
         21   -1    0    0  501  503 -0.00000000000E+00 -0.00000000000E+00 -0.27733897695E+03  0.27733897695E+03  0.00000000000E+00 0. -1.
         24    1    1    2    0    0 -0.48294119169E+02  0.29157893317E+02  0.14375992830E+03  0.17411673563E+03  0.80419002446E+02 0.  1.
          1    1    1    2  501    0 -0.18097533307E+03  0.49856598092E+02 -0.31372035133E+02  0.19032066661E+03  0.00000000000E+00 0. -1.
         -2    1    1    2    0  502  0.22926945223E+03 -0.79014491409E+02 -0.54152550083E+02  0.24847589473E+03  0.00000000000E+00 0.  1.
<mgrwt>
<rscale>  2 0.26422667E+03</rscale>
<asrwt>0</asrwt>
<pdfrwt beam="1">  1       21 0.51626818E-01 0.26422667E+03</pdfrwt>
<pdfrwt beam="2">  1       21 0.42667535E-01 0.26422667E+03</pdfrwt>
<totfact> 0.18117166E+04</totfact>
</mgrwt>
</event>
<event>
 5    1  0.1281005E-004  0.2056734E+03  0.7546771E-02  0.1145039E+00
         21   -1    0    0  501  502  0.00000000000E+00  0.00000000000E+00  0.42342811276E+03  0.42342811276E+03  0.00000000000E+00 0.  1.
         21   -1    0    0  502  503 -0.00000000000E+00 -0.00000000000E+00 -0.10156371628E+03  0.10156371628E+03  0.00000000000E+00 0. -1.
         24    1    1    2    0    0 -0.10486509283E+03  0.77037315943E+01  0.85991502852E+02  0.15785369711E+03  0.80419002446E+02 0. -1.
          1    1    1    2  501    0 -0.69718126364E+02  0.59741613324E+02  0.10068728377E+03  0.13626300532E+03  0.00000000000E+00 0. -1.
         -2    1    1    2    0  503  0.17458321920E+03 -0.67445344918E+02  0.13518560985E+03  0.23087512661E+03  0.00000000000E+00 0.  1.
<mgrwt>
<rscale>  2 0.20567342E+03</rscale>
<asrwt>0</asrwt>
<pdfrwt beam="1">  1       21 0.65142786E-01 0.20567342E+03</pdfrwt>
<pdfrwt beam="2">  1       21 0.15625187E-01 0.20567342E+03</pdfrwt>
<totfact> 0.78533875E+04</totfact>
</mgrwt>
</event>
<event>
 5    1  0.1281005E-004  0.1619354E+03  0.7546771E-02  0.1186529E+00
         21   -1    0    0  503  502  0.00000000000E+00  0.00000000000E+00  0.27355574780E+03  0.27355574780E+03  0.00000000000E+00 0. -1.
         21   -1    0    0  501  503 -0.00000000000E+00 -0.00000000000E+00 -0.12485830422E+03  0.12485830422E+03  0.00000000000E+00 0.  1.
         24    1    1    2    0    0  0.10850675489E+03 -0.21887912879E+01  0.15743348280E+03  0.20743920585E+03  0.80419002446E+02 0. -1.
          1    1    1    2  501    0  0.24417911913E+02 -0.42113965979E+02  0.97495538831E+01  0.49647500980E+02  0.00000000000E+00 0. -1.
         -2    1    1    2    0  502 -0.13292466680E+03  0.44302757266E+02 -0.18485593098E+02  0.14132734519E+03  0.00000000000E+00 0.  1.
<mgrwt>
<rscale>  2 0.16193535E+03</rscale>
<asrwt>0</asrwt>
<pdfrwt beam="1">  1       21 0.42085500E-01 0.16193535E+03</pdfrwt>
<pdfrwt beam="2">  1       21 0.19208970E-01 0.16193535E+03</pdfrwt>
<totfact> 0.13668821E+05</totfact>
</mgrwt>
</event>
<event>
 5    1  0.1281005E-004  0.1710417E+03  0.7546771E-02  0.1176766E+00
         21   -1    0    0  503  502  0.00000000000E+00  0.00000000000E+00  0.17173434714E+03  0.17173434714E+03  0.00000000000E+00 0.  1.
         21   -1    0    0  501  503 -0.00000000000E+00 -0.00000000000E+00 -0.21611851081E+03  0.21611851081E+03  0.00000000000E+00 0. -1.
         24    1    1    2    0    0  0.26086548766E+02  0.11715546031E+03  0.60255905965E+02  0.15653721623E+03  0.80419002446E+02 0.  1.
          1    1    1    2  501    0 -0.41688203323E+02 -0.15296676075E+03 -0.10841843597E+03  0.19207106354E+03  0.00000000000E+00 0. -1.
         -2    1    1    2    0  502  0.15601654557E+02  0.35811300440E+02  0.37783663344E+01  0.39244578177E+02  0.00000000000E+00 0.  1.
<mgrwt>
<rscale>  2 0.17104165E+03</rscale>
<asrwt>0</asrwt>
<pdfrwt beam="1">  1       21 0.26420669E-01 0.17104165E+03</pdfrwt>
<pdfrwt beam="2">  1       21 0.33249001E-01 0.17104165E+03</pdfrwt>
<totfact> 0.11960952E+05</totfact>
</mgrwt>
</event>
<event>
 5    1  0.1281005E-004  0.1417680E+03  0.7546771E-02  0.1210970E+00
         21   -1    0    0  501  502  0.00000000000E+00  0.00000000000E+00  0.87922864730E+02  0.87922864730E+02  0.00000000000E+00 0.  1.
         21   -1    0    0  502  503 -0.00000000000E+00 -0.00000000000E+00 -0.25050999300E+03  0.25050999300E+03  0.00000000000E+00 0.  1.
         24    1    1    2    0    0 -0.58006836901E+02  0.60615806260E+01 -0.83967298563E+02  0.13007405225E+03  0.80419002446E+02 0.  0.
          1    1    1    2  501    0 -0.30600115537E+02 -0.69019036873E+02 -0.63428857983E+02  0.98606361594E+02  0.00000000000E+00 0. -1.
         -2    1    1    2    0  503  0.88606952438E+02  0.62957456247E+02 -0.15190971726E+02  0.10975244389E+03  0.00000000000E+00 0.  1.
<mgrwt>
<rscale>  2 0.14176798E+03</rscale>
<asrwt>0</asrwt>
<pdfrwt beam="1">  1       21 0.13526595E-01 0.14176798E+03</pdfrwt>
<pdfrwt beam="2">  1       21 0.38539999E-01 0.14176798E+03</pdfrwt>
<totfact> 0.31052217E+05</totfact>
</mgrwt>
</event>
<event>
 5    1  0.1281005E-004  0.3426713E+03  0.7546771E-02  0.1065664E+00
         21   -1    0    0  501  502  0.00000000000E+00  0.00000000000E+00  0.12873322103E+03  0.12873322103E+03  0.00000000000E+00 0. -1.
         21   -1    0    0  502  503 -0.00000000000E+00 -0.00000000000E+00 -0.99117291863E+03  0.99117291863E+03  0.00000000000E+00 0.  1.
         24    1    1    2    0    0  0.69851589414E+02 -0.23894009752E+03 -0.28009829544E+03  0.38326738162E+03  0.80419002446E+02 0. -1.
          1    1    1    2  501    0  0.51820510486E+02 -0.72646169511E+02 -0.24855882462E+03  0.26409150033E+03  0.00000000000E+00 0. -1.
         -2    1    1    2    0  503 -0.12167209990E+03  0.31158626703E+03 -0.33378257755E+03  0.47254725771E+03  0.00000000000E+00 0.  1.
<mgrwt>
<rscale>  2 0.34267132E+03</rscale>
<asrwt>0</asrwt>
<pdfrwt beam="1">  1       21 0.19805112E-01 0.34267132E+03</pdfrwt>
<pdfrwt beam="2">  1       21 0.15248814E+00 0.34267132E+03</pdfrwt>
<totfact> 0.61337705E+03</totfact>
</mgrwt>
</event>
<event>
 5    1  0.1281005E-004  0.1368066E+03  0.7546771E-02  0.1217692E+00
         21   -1    0    0  501  502  0.00000000000E+00  0.00000000000E+00  0.51266261834E+02  0.51266261834E+02  0.00000000000E+00 0. -1.
         21   -1    0    0  502  503 -0.00000000000E+00 -0.00000000000E+00 -0.38300302207E+03  0.38300302207E+03  0.00000000000E+00 0.  1.
         24    1    1    2    0    0 -0.22524559055E+02 -0.27488673855E+02 -0.10249852354E+03  0.13504127603E+03  0.80419002446E+02 0.  0.
          1    1    1    2  501    0 -0.75249151917E+02 -0.18728756350E+02 -0.58563476864E+02  0.97174492543E+02  0.00000000000E+00 0. -1.
         -2    1    1    2    0  503  0.97773710973E+02  0.46217430204E+02 -0.17067475984E+03  0.20205351533E+03  0.00000000000E+00 0.  1.
<mgrwt>
<rscale>  2 0.13680664E+03</rscale>
<asrwt>0</asrwt>
<pdfrwt beam="1">  1       21 0.78871172E-02 0.13680664E+03</pdfrwt>
<pdfrwt beam="2">  1       21 0.58923542E-01 0.13680664E+03</pdfrwt>
<totfact> 0.33523773E+05</totfact>
</mgrwt>
</event>
<event>
 5    1  0.1281005E-004  0.1201523E+03  0.7546771E-02  0.1242846E+00
         21   -1    0    0  503  502  0.00000000000E+00  0.00000000000E+00  0.53188167162E+02  0.53188167162E+02  0.00000000000E+00 0. -1.
         21   -1    0    0  501  503 -0.00000000000E+00 -0.00000000000E+00 -0.28871659234E+03  0.28871659234E+03  0.00000000000E+00 0.  1.
         24    1    1    2    0    0 -0.58982068922E+02  0.39873314231E+02 -0.12304251243E+03  0.16332618119E+03  0.80419002446E+02 0.  1.
          1    1    1    2  501    0  0.87323900142E+02 -0.52479277058E+02 -0.10573952072E+03  0.14683454736E+03  0.00000000000E+00 0. -1.
         -2    1    1    2    0  502 -0.28341831219E+02  0.12605962827E+02 -0.67463920252E+01  0.31744030951E+02  0.00000000000E+00 0.  1.
<mgrwt>
<rscale>  2 0.12015228E+03</rscale>
<asrwt>0</asrwt>
<pdfrwt beam="1">  1       21 0.81827951E-02 0.12015228E+03</pdfrwt>
<pdfrwt beam="2">  1       21 0.44417936E-01 0.12015228E+03</pdfrwt>
<totfact> 0.56590741E+05</totfact>
</mgrwt>
</event>
<event>
 5    1  0.1281005E-004  0.1636277E+03  0.7546771E-02  0.1184661E+00
         21   -1    0    0  503  502  0.00000000000E+00  0.00000000000E+00  0.38263984569E+03  0.38263984569E+03  0.00000000000E+00 0. -1.
         21   -1    0    0  501  503 -0.00000000000E+00 -0.00000000000E+00 -0.70517630950E+02  0.70517630950E+02  0.00000000000E+00 0. -1.
         24    1    1    2    0    0  0.12370932148E+03 -0.38532645279E+02  0.14812333429E+03  0.21259468264E+03  0.80419002446E+02 0. -1.
          1    1    1    2  501    0 -0.10996868484E+03 -0.22456801737E+02  0.91327488808E+02  0.14470013753E+03  0.00000000000E+00 0. -1.
         -2    1    1    2    0  502 -0.13740636639E+02  0.60989447016E+02  0.72671391645E+02  0.95862656473E+02  0.00000000000E+00 0.  1.
<mgrwt>
<rscale>  2 0.16362774E+03</rscale>
<asrwt>0</asrwt>
<pdfrwt beam="1">  1       21 0.58867667E-01 0.16362774E+03</pdfrwt>
<pdfrwt beam="2">  1       21 0.10848867E-01 0.16362774E+03</pdfrwt>
<totfact> 0.19130023E+05</totfact>
</mgrwt>
</event>
<event>
 5    1  0.1281005E-004  0.1829731E+03  0.7546771E-02  0.1164956E+00
         21   -1    0    0  501  502  0.00000000000E+00  0.00000000000E+00  0.14365360196E+03  0.14365360196E+03  0.00000000000E+00 0.  1.
         21   -1    0    0  502  503 -0.00000000000E+00 -0.00000000000E+00 -0.23995952657E+03  0.23995952657E+03  0.00000000000E+00 0. -1.
         24    1    1    2    0    0  0.46386141219E+02  0.31207395527E+02 -0.30758732097E+01  0.97991084203E+02  0.80419002446E+02 0. -1.
          1    1    1    2  501    0 -0.12981789272E+03 -0.96750682889E+02 -0.73048556778E+02  0.17762170914E+03  0.00000000000E+00 0. -1.
         -2    1    1    2    0  503  0.83431751502E+02  0.65543287362E+02 -0.20181494619E+02  0.10800033519E+03  0.00000000000E+00 0.  1.
<mgrwt>
<rscale>  2 0.18297312E+03</rscale>
<asrwt>0</asrwt>
<pdfrwt beam="1">  1       21 0.22100555E-01 0.18297312E+03</pdfrwt>
<pdfrwt beam="2">  1       21 0.36916850E-01 0.18297312E+03</pdfrwt>
<totfact> 0.13586942E+05</totfact>
</mgrwt>
</event>
<event>
 5    1  0.1281005E-004  0.2275274E+03  0.7546771E-02  0.1128392E+00
         21   -1    0    0  503  502  0.00000000000E+00  0.00000000000E+00  0.37955978669E+02  0.37955978669E+02  0.00000000000E+00 0. -1.
         21   -1    0    0  501  503 -0.00000000000E+00 -0.00000000000E+00 -0.14760780193E+04  0.14760780193E+04  0.00000000000E+00 0.  1.
         24    1    1    2    0    0  0.66134402139E+02  0.33749672598E+02 -0.49851941556E+03  0.51039359635E+03  0.80419002446E+02 0.  0.
          1    1    1    2  501    0  0.13723766013E+03 -0.37236036266E+02 -0.48901734952E+03  0.50927268323E+03  0.00000000000E+00 0. -1.
         -2    1    1    2    0  502 -0.20337206227E+03  0.34863636679E+01 -0.45058527552E+03  0.49436771836E+03  0.00000000000E+00 0.  1.
<mgrwt>
<rscale>  2 0.22752735E+03</rscale>
<asrwt>0</asrwt>
<pdfrwt beam="1">  1       21 0.58393814E-02 0.22752735E+03</pdfrwt>
<pdfrwt beam="2">  1       21 0.22708892E+00 0.22752735E+03</pdfrwt>
<totfact> 0.18301920E+04</totfact>
</mgrwt>
</event>
<event>
 5    1  0.1281005E-004  0.1562993E+03  0.7546771E-02  0.1192939E+00
         21   -1    0    0  503  502  0.00000000000E+00  0.00000000000E+00  0.12660035845E+03  0.12660035845E+03  0.00000000000E+00 0.  1.
         21   -1    0    0  501  503 -0.00000000000E+00 -0.00000000000E+00 -0.19734376069E+03  0.19734376069E+03  0.00000000000E+00 0. -1.
         24    1    1    2    0    0 -0.95810305679E+02  0.36061658719E+02 -0.48804076669E+02  0.13902917592E+03  0.80419002446E+02 0. -1.
          1    1    1    2  501    0  0.34529932167E+02 -0.92730245975E+02 -0.14079076117E+01  0.98960582748E+02  0.00000000000E+00 0. -1.
         -2    1    1    2    0  502  0.61280373513E+02  0.56668587256E+02 -0.20531417966E+02  0.85954360466E+02  0.00000000000E+00 0.  1.
<mgrwt>
<rscale>  2 0.15629925E+03</rscale>
<asrwt>0</asrwt>
<pdfrwt beam="1">  1       21 0.19476978E-01 0.15629925E+03</pdfrwt>
<pdfrwt beam="2">  1       21 0.30360578E-01 0.15629925E+03</pdfrwt>
<totfact> 0.25483585E+05</totfact>
</mgrwt>
</event>
<event>
 5    1  0.1281005E-004  0.1276512E+03  0.7546771E-02  0.1230983E+00
         21   -1    0    0  503  502  0.00000000000E+00  0.00000000000E+00  0.67166858855E+03  0.67166858855E+03  0.00000000000E+00 0. -1.
         21   -1    0    0  501  503 -0.00000000000E+00 -0.00000000000E+00 -0.24358988330E+02  0.24358988330E+02  0.00000000000E+00 0. -1.
         24    1    1    2    0    0  0.68948910993E+02 -0.36924954382E+02  0.30616976100E+03  0.32607444409E+03  0.80419002446E+02 0. -1.
          1    1    1    2  501    0 -0.10184730745E+03  0.13506724123E+02  0.24753528188E+03  0.26800936813E+03  0.00000000000E+00 0. -1.
         -2    1    1    2    0  502  0.32898396455E+02  0.23418230260E+02  0.93604557342E+02  0.10194376466E+03  0.00000000000E+00 0.  1.
<mgrwt>
<rscale>  2 0.12765118E+03</rscale>
<asrwt>0</asrwt>
<pdfrwt beam="1">  1       21 0.10333362E+00 0.12765118E+03</pdfrwt>
<pdfrwt beam="2">  1       21 0.37475372E-02 0.12765118E+03</pdfrwt>
<totfact> 0.33717801E+05</totfact>
</mgrwt>
</event>
<event>
 5    1  0.1281005E-004  0.2253360E+03  0.7546771E-02  0.1129966E+00
         21   -1    0    0  501  502  0.00000000000E+00  0.00000000000E+00  0.92422797073E+02  0.92422797073E+02  0.00000000000E+00 0.  1.
         21   -1    0    0  502  503 -0.00000000000E+00 -0.00000000000E+00 -0.60390093364E+03  0.60390093364E+03  0.00000000000E+00 0. -1.
         24    1    1    2    0    0 -0.18337541900E+02 -0.87284734656E+02 -0.60206837194E+02  0.13433900977E+03  0.80419002446E+02 0.  0.
          1    1    1    2  501    0  0.11298734414E+03  0.17050757025E+03 -0.32174310820E+03  0.38125791680E+03  0.00000000000E+00 0. -1.
         -2    1    1    2    0  503 -0.94649802236E+02 -0.83222835594E+02 -0.12952819117E+03  0.18072680414E+03  0.00000000000E+00 0.  1.
<mgrwt>
<rscale>  2 0.22533603E+03</rscale>
<asrwt>0</asrwt>
<pdfrwt beam="1">  1       21 0.14218892E-01 0.22533603E+03</pdfrwt>
<pdfrwt beam="2">  1       21 0.92907837E-01 0.22533603E+03</pdfrwt>
<totfact> 0.41489620E+04</totfact>
</mgrwt>
</event>
<event>
 5    1  0.1281005E-004  0.1013760E+03  0.7546771E-02  0.1277429E+00
         21   -1    0    0  501  502  0.00000000000E+00  0.00000000000E+00  0.33196521164E+02  0.33196521164E+02  0.00000000000E+00 0.  1.
         21   -1    0    0  502  503 -0.00000000000E+00 -0.00000000000E+00 -0.32654470542E+03  0.32654470542E+03  0.00000000000E+00 0. -1.
         24    1    1    2    0    0 -0.30005223162E+01 -0.36953810610E+01 -0.15821223232E+03  0.17754150327E+03  0.80419002446E+02 0. -1.
          1    1    1    2  501    0 -0.45149357422E+02 -0.37602879808E+02 -0.63475314979E+02  0.86495992145E+02  0.00000000000E+00 0. -1.
         -2    1    1    2    0  503  0.48149879739E+02  0.41298260869E+02 -0.71660636960E+02  0.95703731167E+02  0.00000000000E+00 0.  1.
<mgrwt>
<rscale>  2 0.10137595E+03</rscale>
<asrwt>0</asrwt>
<pdfrwt beam="1">  1       21 0.51071569E-02 0.10137595E+03</pdfrwt>
<pdfrwt beam="2">  1       21 0.50237649E-01 0.10137595E+03</pdfrwt>
<totfact> 0.97928555E+05</totfact>
</mgrwt>
</event>
<event>
 5    1  0.1281005E-004  0.1620960E+03  0.7546771E-02  0.1186350E+00
         21   -1    0    0  503  502  0.00000000000E+00  0.00000000000E+00  0.85314296982E+02  0.85314296982E+02  0.00000000000E+00 0.  1.
         21   -1    0    0  501  503 -0.00000000000E+00 -0.00000000000E+00 -0.38614825225E+03  0.38614825225E+03  0.00000000000E+00 0. -1.
         24    1    1    2    0    0 -0.52002613739E+02  0.21752595262E+02 -0.18983699897E+03  0.21373523193E+03  0.80419002446E+02 0. -1.
          1    1    1    2  501    0 -0.86370115624E+02 -0.38151187620E+01 -0.72905075485E+02  0.11309068059E+03  0.00000000000E+00 0. -1.
         -2    1    1    2    0  502  0.13837272936E+03 -0.17937476500E+02 -0.38091880807E+02  0.14463663671E+03  0.00000000000E+00 0.  1.
<mgrwt>
<rscale>  2 0.16209605E+03</rscale>
<asrwt>0</asrwt>
<pdfrwt beam="1">  1       21 0.13125277E-01 0.16209605E+03</pdfrwt>
<pdfrwt beam="2">  1       21 0.59407423E-01 0.16209605E+03</pdfrwt>
<totfact> 0.13370332E+05</totfact>
</mgrwt>
</event>
<event>
 5    1  0.1281005E-004  0.4381117E+03  0.7546771E-02  0.1031328E+00
         21   -1    0    0  501  502  0.00000000000E+00  0.00000000000E+00  0.96031419992E+03  0.96031419992E+03  0.00000000000E+00 0. -1.
         21   -1    0    0  502  503 -0.00000000000E+00 -0.00000000000E+00 -0.22149538589E+03  0.22149538589E+03  0.00000000000E+00 0.  1.
         24    1    1    2    0    0 -0.20316616464E+03 -0.25038089694E+03  0.28085715655E+03  0.43510348464E+03  0.80419002446E+02 0.  1.
          1    1    1    2  501    0 -0.11499340847E+03 -0.31078100952E+02  0.24299821701E+03  0.27062421514E+03  0.00000000000E+00 0. -1.
         -2    1    1    2    0  503  0.31815957311E+03  0.28145899790E+03  0.21496344048E+03  0.47608188603E+03  0.00000000000E+00 0.  1.
<mgrwt>
<rscale>  2 0.43811168E+03</rscale>
<asrwt>0</asrwt>
<pdfrwt beam="1">  1       21 0.14774064E+00 0.43811168E+03</pdfrwt>
<pdfrwt beam="2">  1       21 0.34076214E-01 0.43811168E+03</pdfrwt>
<totfact> 0.22255900E+03</totfact>
</mgrwt>
</event>
<event>
 5    1  0.1281005E-004  0.1813892E+03  0.7546771E-02  0.1166465E+00
         21   -1    0    0  501  502  0.00000000000E+00  0.00000000000E+00  0.79109464325E+03  0.79109464325E+03  0.00000000000E+00 0. -1.
         21   -1    0    0  502  503 -0.00000000000E+00 -0.00000000000E+00 -0.44095099590E+02  0.44095099590E+02  0.00000000000E+00 0.  1.
         24    1    1    2    0    0  0.11635110075E+03  0.65329498712E+02  0.29174753396E+03  0.33074062583E+03  0.80419002446E+02 0.  0.
          1    1    1    2  501    0 -0.14740750775E+03 -0.85058820107E+02  0.42133280324E+03  0.45440654409E+03  0.00000000000E+00 0. -1.
         -2    1    1    2    0  503  0.31056406999E+02  0.19729321395E+02  0.33919206464E+02  0.50042572931E+02  0.00000000000E+00 0.  1.
<mgrwt>
<rscale>  2 0.18138923E+03</rscale>
<asrwt>0</asrwt>
<pdfrwt beam="1">  1       21 0.12170686E+00 0.18138923E+03</pdfrwt>
<pdfrwt beam="2">  1       21 0.67838620E-02 0.18138923E+03</pdfrwt>
<totfact> 0.81840538E+04</totfact>
</mgrwt>
</event>
<event>
 5    1  0.1281005E-004  0.1290377E+03  0.7546771E-02  0.1228891E+00
         21   -1    0    0  503  502  0.00000000000E+00  0.00000000000E+00  0.18913310234E+03  0.18913310234E+03  0.00000000000E+00 0. -1.
         21   -1    0    0  501  503 -0.00000000000E+00 -0.00000000000E+00 -0.91948081885E+02  0.91948081885E+02  0.00000000000E+00 0. -1.
         24    1    1    2    0    0 -0.20643027543E+02 -0.20562012747E+02  0.39241950295E+02  0.94106734996E+02  0.80419002446E+02 0. -1.
          1    1    1    2  501    0  0.73268200665E+02  0.69273450577E+02  0.11375199808E+02  0.10147135238E+03  0.00000000000E+00 0. -1.
         -2    1    1    2    0  502 -0.52625173122E+02 -0.48711437830E+02  0.46567870357E+02  0.85503096851E+02  0.00000000000E+00 0.  1.
<mgrwt>
<rscale>  2 0.12903772E+03</rscale>
<asrwt>0</asrwt>
<pdfrwt beam="1">  1       21 0.29097400E-01 0.12903772E+03</pdfrwt>
<pdfrwt beam="2">  1       21 0.14145859E-01 0.12903772E+03</pdfrwt>
<totfact> 0.49749774E+05</totfact>
</mgrwt>
</event>
<event>
 5    1  0.1281005E-004  0.1355981E+03  0.7546771E-02  0.1219378E+00
         21   -1    0    0  501  502  0.00000000000E+00  0.00000000000E+00  0.18354613122E+03  0.18354613122E+03  0.00000000000E+00 0.  1.
         21   -1    0    0  502  503 -0.00000000000E+00 -0.00000000000E+00 -0.10380513865E+03  0.10380513865E+03  0.00000000000E+00 0. -1.
         24    1    1    2    0    0  0.85598686241E+02 -0.31799856862E+02  0.92578108400E+01  0.12202986929E+03  0.80419002446E+02 0. -1.
          1    1    1    2  501    0  0.25852343568E+02 -0.13556637360E+02  0.14980177439E+02  0.32810544046E+02  0.00000000000E+00 0. -1.
         -2    1    1    2    0  503 -0.11145102981E+03  0.45356494223E+02  0.55503004291E+02  0.13251085653E+03  0.00000000000E+00 0.  1.
<mgrwt>
<rscale>  2 0.13559810E+03</rscale>
<asrwt>0</asrwt>
<pdfrwt beam="1">  1       21 0.28237866E-01 0.13559810E+03</pdfrwt>
<pdfrwt beam="2">  1       21 0.15970021E-01 0.13559810E+03</pdfrwt>
<totfact> 0.42314544E+05</totfact>
</mgrwt>
</event>
<event>
 5    1  0.1281005E-004  0.1073854E+03  0.7546771E-02  0.1265490E+00
         21   -1    0    0  503  502  0.00000000000E+00  0.00000000000E+00  0.28770297415E+03  0.28770297415E+03  0.00000000000E+00 0.  1.
         21   -1    0    0  501  503 -0.00000000000E+00 -0.00000000000E+00 -0.41608238678E+02  0.41608238678E+02  0.00000000000E+00 0. -1.
         24    1    1    2    0    0  0.23506023445E+02 -0.50816662976E+01  0.66513067294E+02  0.10709603422E+03  0.80419002446E+02 0. -1.
          1    1    1    2  501    0 -0.64170442951E+02  0.41354385625E+02  0.10178451579E+03  0.12723253756E+03  0.00000000000E+00 0. -1.
         -2    1    1    2    0  502  0.40664419506E+02 -0.36272719327E+02  0.77797152395E+02  0.94982641056E+02  0.00000000000E+00 0.  1.
<mgrwt>
<rscale>  2 0.10738539E+03</rscale>
<asrwt>0</asrwt>
<pdfrwt beam="1">  1       21 0.44261995E-01 0.10738539E+03</pdfrwt>
<pdfrwt beam="2">  1       21 0.64012677E-02 0.10738539E+03</pdfrwt>
<totfact> 0.86697487E+05</totfact>
</mgrwt>
</event>
<event>
 5    1  0.1281005E-004  0.1735176E+03  0.7546771E-02  0.1174228E+00
         21   -1    0    0  503  502  0.00000000000E+00  0.00000000000E+00  0.79742609420E+02  0.79742609420E+02  0.00000000000E+00 0. -1.
         21   -1    0    0  501  503 -0.00000000000E+00 -0.00000000000E+00 -0.51219990038E+03  0.51219990038E+03  0.00000000000E+00 0. -1.
         24    1    1    2    0    0  0.10527390103E+02  0.11450343960E+03 -0.33509860830E+03  0.36329073325E+03  0.80419002446E+02 0. -1.
          1    1    1    2  501    0  0.36913950718E+02 -0.14545908233E+03 -0.74792845254E+02  0.16767514452E+03  0.00000000000E+00 0. -1.
         -2    1    1    2    0  502 -0.47441340822E+02  0.30955642727E+02 -0.22565837403E+02  0.60976632027E+02  0.00000000000E+00 0.  1.
<mgrwt>
<rscale>  2 0.17351758E+03</rscale>
<asrwt>0</asrwt>
<pdfrwt beam="1">  1       21 0.12268093E-01 0.17351758E+03</pdfrwt>
<pdfrwt beam="2">  1       21 0.78799987E-01 0.17351758E+03</pdfrwt>
<totfact> 0.80927206E+04</totfact>
</mgrwt>
</event>
<event>
 5    1  0.1281005E-004  0.1966715E+03  0.7546771E-02  0.1152578E+00
         21   -1    0    0  501  502  0.00000000000E+00  0.00000000000E+00  0.10171016391E+03  0.10171016391E+03  0.00000000000E+00 0.  1.
         21   -1    0    0  502  503 -0.00000000000E+00 -0.00000000000E+00 -0.38327402249E+03  0.38327402249E+03  0.00000000000E+00 0. -1.
         24    1    1    2    0    0  0.48747002198E+02 -0.10451201687E+01 -0.82925166678E+02  0.12538405689E+03  0.80419002446E+02 0. -1.
          1    1    1    2  501    0 -0.84210867176E+02 -0.13477665667E+03 -0.95509426339E+02  0.18541377471E+03  0.00000000000E+00 0. -1.
         -2    1    1    2    0  503  0.35463864979E+02  0.13582177684E+03 -0.10312926556E+03  0.17418635480E+03  0.00000000000E+00 0.  1.
<mgrwt>
<rscale>  2 0.19667151E+03</rscale>
<asrwt>0</asrwt>
<pdfrwt beam="1">  1       21 0.15647718E-01 0.19667151E+03</pdfrwt>
<pdfrwt beam="2">  1       21 0.58965234E-01 0.19667151E+03</pdfrwt>
<totfact> 0.97522781E+04</totfact>
</mgrwt>
</event>
<event>
 5    1  0.1281005E-004  0.1197753E+03  0.7546771E-02  0.1243468E+00
         21   -1    0    0  503  502  0.00000000000E+00  0.00000000000E+00  0.60160526436E+02  0.60160526436E+02  0.00000000000E+00 0. -1.
         21   -1    0    0  501  503 -0.00000000000E+00 -0.00000000000E+00 -0.27440498256E+03  0.27440498256E+03  0.00000000000E+00 0. -1.
         24    1    1    2    0    0 -0.72940586303E+02  0.44198959645E+02 -0.10146376562E+03  0.15503544386E+03  0.80419002446E+02 0. -1.
          1    1    1    2  501    0  0.61145512680E+02  0.14181230951E+02 -0.14201003224E+02  0.64354871802E+02  0.00000000000E+00 0. -1.
         -2    1    1    2    0  502  0.11795073623E+02 -0.58380190596E+02 -0.98579687272E+02  0.11517519333E+03  0.00000000000E+00 0.  1.
<mgrwt>
<rscale>  2 0.11977534E+03</rscale>
<asrwt>0</asrwt>
<pdfrwt beam="1">  1       21 0.92554652E-02 0.11977534E+03</pdfrwt>
<pdfrwt beam="2">  1       21 0.42216153E-01 0.11977534E+03</pdfrwt>
<totfact> 0.50668929E+05</totfact>
</mgrwt>
</event>
<event>
 5    1  0.1281005E-004  0.2858493E+03  0.7546771E-02  0.1092536E+00
         21   -1    0    0  503  502  0.00000000000E+00  0.00000000000E+00  0.19273679716E+04  0.19273679716E+04  0.00000000000E+00 0. -1.
         21   -1    0    0  501  503 -0.00000000000E+00 -0.00000000000E+00 -0.43950233981E+02  0.43950233981E+02  0.00000000000E+00 0.  1.
         24    1    1    2    0    0  0.64561580212E+02  0.60503188534E+01  0.33548898496E+03  0.35103401400E+03  0.80419002446E+02 0.  0.
          1    1    1    2  501    0  0.11735073178E+03 -0.18119069403E+03  0.88341247927E+03  0.90940577873E+03  0.00000000000E+00 0. -1.
         -2    1    1    2    0  502 -0.18191231199E+03  0.17514037517E+03  0.66451627339E+03  0.71087841286E+03  0.00000000000E+00 0.  1.
<mgrwt>
<rscale>  2 0.28584925E+03</rscale>
<asrwt>0</asrwt>
<pdfrwt beam="1">  1       21 0.29651808E+00 0.28584925E+03</pdfrwt>
<pdfrwt beam="2">  1       21 0.67615760E-02 0.28584925E+03</pdfrwt>
<totfact> 0.52604097E+03</totfact>
</mgrwt>
</event>
<event>
 5    1  0.1281005E-004  0.1509575E+03  0.7546771E-02  0.1199301E+00
         21   -1    0    0  501  502  0.00000000000E+00  0.00000000000E+00  0.61586834137E+02  0.61586834137E+02  0.00000000000E+00 0.  1.
         21   -1    0    0  502  503 -0.00000000000E+00 -0.00000000000E+00 -0.37548278363E+03  0.37548278363E+03  0.00000000000E+00 0. -1.
         24    1    1    2    0    0  0.41892174437E+02 -0.49845826532E+02 -0.11494105647E+03  0.15465517489E+03  0.80419002446E+02 0.  0.
          1    1    1    2  501    0 -0.37934958442E+02  0.12118958775E+03 -0.10766901078E+03  0.16648901806E+03  0.00000000000E+00 0. -1.
         -2    1    1    2    0  503 -0.39572159958E+01 -0.71343761222E+02 -0.91285882246E+02  0.11592542483E+03  0.00000000000E+00 0.  1.
<mgrwt>
<rscale>  2 0.15095754E+03</rscale>
<asrwt>0</asrwt>
<pdfrwt beam="1">  1       21 0.94748974E-02 0.15095754E+03</pdfrwt>
<pdfrwt beam="2">  1       21 0.57766583E-01 0.15095754E+03</pdfrwt>
<totfact> 0.25352645E+05</totfact>
</mgrwt>
</event>
<event>
 5    1  0.1281005E-004  0.2664723E+03  0.7546771E-02  0.1103316E+00
         21   -1    0    0  501  502  0.00000000000E+00  0.00000000000E+00  0.16163886508E+03  0.16163886508E+03  0.00000000000E+00 0.  1.
         21   -1    0    0  502  503 -0.00000000000E+00 -0.00000000000E+00 -0.47247686354E+03  0.47247686354E+03  0.00000000000E+00 0. -1.
         24    1    1    2    0    0  0.12344902516E+02  0.34638907497E+01 -0.90018119772E+02  0.12138728516E+03  0.80419002446E+02 0.  0.
          1    1    1    2  501    0  0.21957144209E+03 -0.28178717892E+00 -0.51412379685E+02  0.22551037752E+03  0.00000000000E+00 0. -1.
         -2    1    1    2    0  503 -0.23191634461E+03 -0.31821035708E+01 -0.16940749901E+03  0.28721806594E+03  0.00000000000E+00 0.  1.
<mgrwt>
<rscale>  2 0.26647225E+03</rscale>
<asrwt>0</asrwt>
<pdfrwt beam="1">  1       21 0.24867518E-01 0.26647225E+03</pdfrwt>
<pdfrwt beam="2">  1       21 0.72688748E-01 0.26647225E+03</pdfrwt>
<totfact> 0.25124291E+04</totfact>
</mgrwt>
</event>
<event>
 5    1  0.1281005E-004  0.1924658E+03  0.7546771E-02  0.1156256E+00
         21   -1    0    0  501  502  0.00000000000E+00  0.00000000000E+00  0.68574619417E+02  0.68574619417E+02  0.00000000000E+00 0.  1.
         21   -1    0    0  502  503 -0.00000000000E+00 -0.00000000000E+00 -0.60639096446E+03  0.60639096446E+03  0.00000000000E+00 0. -1.
         24    1    1    2    0    0  0.26228894088E+02 -0.12934047524E+03 -0.32472253956E+03  0.35962321543E+03  0.80419002446E+02 0.  1.
          1    1    1    2  501    0 -0.70921895976E+01  0.17797835569E+03 -0.18133478128E+03  0.25418280262E+03  0.00000000000E+00 0. -1.
         -2    1    1    2    0  503 -0.19136704491E+02 -0.48637880453E+02 -0.31759024200E+02  0.61159565825E+02  0.00000000000E+00 0.  1.
<mgrwt>
<rscale>  2 0.19246584E+03</rscale>
<asrwt>0</asrwt>
<pdfrwt beam="1">  1       21 0.10549941E-01 0.19246584E+03</pdfrwt>
<pdfrwt beam="2">  1       21 0.93290918E-01 0.19246584E+03</pdfrwt>
<totfact> 0.71346013E+04</totfact>
</mgrwt>
</event>
<event>
 5    1  0.1281005E-004  0.1144038E+03  0.7546771E-02  0.1252625E+00
         21   -1    0    0  501  502  0.00000000000E+00  0.00000000000E+00  0.55074075138E+03  0.55074075138E+03  0.00000000000E+00 0.  1.
         21   -1    0    0  502  503 -0.00000000000E+00 -0.00000000000E+00 -0.24951346596E+02  0.24951346596E+02  0.00000000000E+00 0.  1.
         24    1    1    2    0    0  0.23981432080E+02  0.36617733644E+02  0.23471931564E+03  0.25194511424E+03  0.80419002446E+02 0.  1.
          1    1    1    2  501    0 -0.25058327945E+02  0.47191429447E+02  0.15481751474E+03  0.16377855074E+03  0.00000000000E+00 0. -1.
         -2    1    1    2    0  503  0.10768958648E+01 -0.83809163091E+02  0.13625257440E+03  0.15996843299E+03  0.00000000000E+00 0.  1.
<mgrwt>
<rscale>  2 0.11440377E+03</rscale>
<asrwt>0</asrwt>
<pdfrwt beam="1">  1       21 0.84729337E-01 0.11440377E+03</pdfrwt>
<pdfrwt beam="2">  1       21 0.38386691E-02 0.11440377E+03</pdfrwt>
<totfact> 0.51296155E+05</totfact>
</mgrwt>
</event>
<event>
 5    1  0.1281005E-004  0.1571217E+03  0.7546771E-02  0.1191985E+00
         21   -1    0    0  501  502  0.00000000000E+00  0.00000000000E+00  0.13441361701E+02  0.13441361701E+02  0.00000000000E+00 0.  1.
         21   -1    0    0  502  503 -0.00000000000E+00 -0.00000000000E+00 -0.18743570076E+04  0.18743570076E+04  0.00000000000E+00 0. -1.
         24    1    1    2    0    0 -0.33316555808E+02  0.65874081648E+01 -0.60985721217E+03  0.61607339013E+03  0.80419002446E+02 0. -1.
          1    1    1    2  501    0 -0.91873084240E+02 -0.35447162877E+02 -0.61325646360E+03  0.62111243355E+03  0.00000000000E+00 0. -1.
         -2    1    1    2    0  503  0.12518964005E+03  0.28859754712E+02 -0.63780197010E+03  0.65061254559E+03  0.00000000000E+00 0.  1.
<mgrwt>
<rscale>  2 0.15712166E+03</rscale>
<asrwt>0</asrwt>
<pdfrwt beam="1">  1       21 0.20679031E-02 0.15712166E+03</pdfrwt>
<pdfrwt beam="2">  1       21 0.28836244E+00 0.15712166E+03</pdfrwt>
<totfact> 0.47998742E+04</totfact>
</mgrwt>
</event>
<event>
 5    1  0.1281005E-004  0.1299771E+03  0.7546771E-02  0.1227490E+00
         21   -1    0    0  503  502  0.00000000000E+00  0.00000000000E+00  0.19823571176E+03  0.19823571176E+03  0.00000000000E+00 0. -1.
         21   -1    0    0  501  503 -0.00000000000E+00 -0.00000000000E+00 -0.89017183293E+02  0.89017183293E+02  0.00000000000E+00 0.  1.
         24    1    1    2    0    0  0.18994098149E+02  0.43745166326E+02  0.34648809172E+02  0.99710437130E+02  0.80419002446E+02 0.  0.
          1    1    1    2  501    0 -0.41700153776E+02  0.52798337280E+02  0.72369330093E+01  0.67667868622E+02  0.00000000000E+00 0. -1.
         -2    1    1    2    0  502  0.22706055627E+02 -0.96543503606E+02  0.67332786282E+02  0.11987458930E+03  0.00000000000E+00 0.  1.
<mgrwt>
<rscale>  2 0.12997707E+03</rscale>
<asrwt>0</asrwt>
<pdfrwt beam="1">  1       21 0.30497802E-01 0.12997707E+03</pdfrwt>
<pdfrwt beam="2">  1       21 0.13694951E-01 0.12997707E+03</pdfrwt>
<totfact> 0.48153596E+05</totfact>
</mgrwt>
</event>
<event>
 5    1  0.1281005E-004  0.1128690E+03  0.7546771E-02  0.1255347E+00
         21   -1    0    0  503  502  0.00000000000E+00  0.00000000000E+00  0.11808188654E+03  0.11808188654E+03  0.00000000000E+00 0.  1.
         21   -1    0    0  501  503 -0.00000000000E+00 -0.00000000000E+00 -0.11079446935E+03  0.11079446935E+03  0.00000000000E+00 0.  1.
         24    1    1    2    0    0  0.33233260214E+02 -0.39468470343E+02 -0.14826108433E+02  0.96691463849E+02  0.80419002446E+02 0.  1.
          1    1    1    2  501    0  0.23870507886E+02 -0.31231465888E+02  0.39531023102E+01  0.39507374325E+02  0.00000000000E+00 0. -1.
         -2    1    1    2    0  502 -0.57103768099E+02  0.70699936231E+02  0.18160423318E+02  0.92677517712E+02  0.00000000000E+00 0.  1.
<mgrwt>
<rscale>  2 0.11286897E+03</rscale>
<asrwt>0</asrwt>
<pdfrwt beam="1">  1       21 0.18166444E-01 0.11286897E+03</pdfrwt>
<pdfrwt beam="2">  1       21 0.17045303E-01 0.11286897E+03</pdfrwt>
<totfact> 0.85824003E+05</totfact>
</mgrwt>
</event>
<event>
 5    1  0.1281005E-004  0.1613119E+03  0.7546771E-02  0.1187224E+00
         21   -1    0    0  501  502  0.00000000000E+00  0.00000000000E+00  0.65725453722E+02  0.65725453722E+02  0.00000000000E+00 0. -1.
         21   -1    0    0  502  503 -0.00000000000E+00 -0.00000000000E+00 -0.39992606549E+03  0.39992606549E+03  0.00000000000E+00 0. -1.
         24    1    1    2    0    0  0.40221531380E+02  0.99083818106E+02 -0.16061139012E+03  0.20904212300E+03  0.80419002446E+02 0. -1.
          1    1    1    2  501    0 -0.71550961119E+02 -0.12770827420E+03 -0.13006758851E+03  0.19582267723E+03  0.00000000000E+00 0. -1.
         -2    1    1    2    0  503  0.31329429739E+02  0.28624456090E+02 -0.43521633131E+02  0.60786718982E+02  0.00000000000E+00 0.  1.
<mgrwt>
<rscale>  2 0.16131188E+03</rscale>
<asrwt>0</asrwt>
<pdfrwt beam="1">  1       21 0.10111608E-01 0.16131188E+03</pdfrwt>
<pdfrwt beam="2">  1       21 0.61527086E-01 0.16131188E+03</pdfrwt>
<totfact> 0.19722128E+05</totfact>
</mgrwt>
</event>
<event>
 5    1  0.1281005E-004  0.2100772E+03  0.7546771E-02  0.1141505E+00
         21   -1    0    0  501  502  0.00000000000E+00  0.00000000000E+00  0.10749092303E+03  0.10749092303E+03  0.00000000000E+00 0. -1.
         21   -1    0    0  502  503 -0.00000000000E+00 -0.00000000000E+00 -0.50511462278E+03  0.50511462278E+03  0.00000000000E+00 0.  1.
         24    1    1    2    0    0  0.80934897658E+02  0.28630948636E+02 -0.23155335854E+03  0.25971977723E+03  0.80419002446E+02 0.  1.
          1    1    1    2  501    0 -0.42798975748E+02 -0.16005405333E+03 -0.48930054764E+02  0.17275185258E+03  0.00000000000E+00 0. -1.
         -2    1    1    2    0  503 -0.38135921910E+02  0.13142310469E+03 -0.11714028644E+03  0.18013391600E+03  0.00000000000E+00 0.  1.
<mgrwt>
<rscale>  2 0.21007721E+03</rscale>
<asrwt>0</asrwt>
<pdfrwt beam="1">  1       21 0.16537065E-01 0.21007721E+03</pdfrwt>
<pdfrwt beam="2">  1       21 0.77709943E-01 0.21007721E+03</pdfrwt>
<totfact> 0.47776624E+04</totfact>
</mgrwt>
</event>
<event>
 5    1  0.1281005E-004  0.1710868E+03  0.7546771E-02  0.1176719E+00
         21   -1    0    0  503  502  0.00000000000E+00  0.00000000000E+00  0.50371313319E+03  0.50371313319E+03  0.00000000000E+00 0. -1.
         21   -1    0    0  501  503 -0.00000000000E+00 -0.00000000000E+00 -0.61765365986E+02  0.61765365986E+02  0.00000000000E+00 0.  1.
         24    1    1    2    0    0  0.14062325013E+02  0.30268652993E+02  0.84612241393E+02  0.12140999830E+03  0.80419002446E+02 0.  1.
          1    1    1    2  501    0  0.66308627734E+02  0.89181967187E+02  0.21275191386E+03  0.24002840297E+03  0.00000000000E+00 0. -1.
         -2    1    1    2    0  502 -0.80370952747E+02 -0.11945062018E+03  0.14458361195E+03  0.20404009790E+03  0.00000000000E+00 0.  1.
<mgrwt>
<rscale>  2 0.17108678E+03</rscale>
<asrwt>0</asrwt>
<pdfrwt beam="1">  1       21 0.77494325E-01 0.17108678E+03</pdfrwt>
<pdfrwt beam="2">  1       21 0.95023643E-02 0.17108678E+03</pdfrwt>
<totfact> 0.13222560E+05</totfact>
</mgrwt>
</event>
<event>
 5    1  0.1281005E-004  0.1150603E+03  0.7546771E-02  0.1251476E+00
         21   -1    0    0  501  502  0.00000000000E+00  0.00000000000E+00  0.92353158289E+02  0.92353158289E+02  0.00000000000E+00 0. -1.
         21   -1    0    0  502  503 -0.00000000000E+00 -0.00000000000E+00 -0.16739804725E+03  0.16739804725E+03  0.00000000000E+00 0.  1.
         24    1    1    2    0    0  0.78556931428E+01  0.42430954998E+02  0.10581893449E+02  0.91876494710E+02  0.80419002446E+02 0. -1.
          1    1    1    2  501    0 -0.36220622710E+02 -0.82304655212E+02 -0.32421037588E+02  0.95588249578E+02  0.00000000000E+00 0. -1.
         -2    1    1    2    0  503  0.28364929568E+02  0.39873700213E+02 -0.53205744823E+02  0.72286461251E+02  0.00000000000E+00 0.  1.
<mgrwt>
<rscale>  2 0.11506032E+03</rscale>
<asrwt>0</asrwt>
<pdfrwt beam="1">  1       21 0.14208178E-01 0.11506032E+03</pdfrwt>
<pdfrwt beam="2">  1       21 0.25753545E-01 0.11506032E+03</pdfrwt>
<totfact> 0.62327253E+05</totfact>
</mgrwt>
</event>
<event>
 5    1  0.1281005E-004  0.2165543E+03  0.7546771E-02  0.1136478E+00
         21   -1    0    0  503  502  0.00000000000E+00  0.00000000000E+00  0.10484333307E+03  0.10484333307E+03  0.00000000000E+00 0.  1.
         21   -1    0    0  501  503 -0.00000000000E+00 -0.00000000000E+00 -0.45500424436E+03  0.45500424436E+03  0.00000000000E+00 0. -1.
         24    1    1    2    0    0 -0.64274466722E+02 -0.89620993516E+02 -0.12517547267E+03  0.18520055201E+03  0.80419002446E+02 0.  0.
          1    1    1    2  501    0 -0.60066967222E+02 -0.71315064440E+02 -0.95947985333E+02  0.13379048866E+03  0.00000000000E+00 0. -1.
         -2    1    1    2    0  502  0.12434143394E+03  0.16093605796E+03 -0.12903745329E+03  0.24085653675E+03  0.00000000000E+00 0.  1.
<mgrwt>
<rscale>  2 0.21655427E+03</rscale>
<asrwt>0</asrwt>
<pdfrwt beam="1">  1       21 0.16129744E-01 0.21655427E+03</pdfrwt>
<pdfrwt beam="2">  1       21 0.70000653E-01 0.21655427E+03</pdfrwt>
<totfact> 0.62965510E+04</totfact>
</mgrwt>
</event>
<event>
 5    1  0.1281005E-004  0.1552088E+03  0.7546771E-02  0.1194215E+00
         21   -1    0    0  501  502  0.00000000000E+00  0.00000000000E+00  0.52402698705E+02  0.52402698705E+02  0.00000000000E+00 0.  1.
         21   -1    0    0  502  503 -0.00000000000E+00 -0.00000000000E+00 -0.46830324530E+03  0.46830324530E+03  0.00000000000E+00 0. -1.
         24    1    1    2    0    0 -0.92355884384E+01 -0.25055502504E+02 -0.95464405402E+02  0.12764694651E+03  0.80419002446E+02 0. -1.
          1    1    1    2  501    0  0.11442247650E+03  0.35935904511E+02 -0.14449442883E+03  0.18778320566E+03  0.00000000000E+00 0. -1.
         -2    1    1    2    0  503 -0.10518688806E+03 -0.10880402007E+02 -0.17594171235E+03  0.20527579184E+03  0.00000000000E+00 0.  1.
<mgrwt>
<rscale>  2 0.15520879E+03</rscale>
<asrwt>0</asrwt>
<pdfrwt beam="1">  1       21 0.80619533E-02 0.15520879E+03</pdfrwt>
<pdfrwt beam="2">  1       21 0.72046656E-01 0.15520879E+03</pdfrwt>
<totfact> 0.20817717E+05</totfact>
</mgrwt>
</event>
<event>
 5    1  0.1281005E-004  0.1454686E+03  0.7546771E-02  0.1206154E+00
         21   -1    0    0  503  502  0.00000000000E+00  0.00000000000E+00  0.19119958156E+03  0.19119958156E+03  0.00000000000E+00 0. -1.
         21   -1    0    0  501  503 -0.00000000000E+00 -0.00000000000E+00 -0.11641520614E+03  0.11641520614E+03  0.00000000000E+00 0.  1.
         24    1    1    2    0    0 -0.76880918652E+02 -0.45210883840E+02  0.36247534745E+02  0.12544241468E+03  0.80419002446E+02 0.  1.
          1    1    1    2  501    0  0.11676335113E+03  0.56046106048E+02  0.61458956084E+01  0.12966348061E+03  0.00000000000E+00 0. -1.
         -2    1    1    2    0  502 -0.39882432480E+02 -0.10835222208E+02  0.32390945059E+02  0.52508892415E+02  0.00000000000E+00 0.  1.
<mgrwt>
<rscale>  2 0.14546855E+03</rscale>
<asrwt>0</asrwt>
<pdfrwt beam="1">  1       21 0.29415320E-01 0.14546855E+03</pdfrwt>
<pdfrwt beam="2">  1       21 0.17910032E-01 0.14546855E+03</pdfrwt>
<totfact> 0.31686405E+05</totfact>
</mgrwt>
</event>
<event>
 5    1  0.1281005E-004  0.4227061E+03  0.7546771E-02  0.1036189E+00
         21   -1    0    0  503  502  0.00000000000E+00  0.00000000000E+00  0.36224802970E+03  0.36224802970E+03  0.00000000000E+00 0. -1.
         21   -1    0    0  501  503 -0.00000000000E+00 -0.00000000000E+00 -0.55241518832E+03  0.55241518832E+03  0.00000000000E+00 0.  1.
         24    1    1    2    0    0  0.69387356779E+01  0.15534027185E+03 -0.62642835808E+01  0.17517192502E+03  0.80419002446E+02 0.  0.
          1    1    1    2  501    0 -0.89487134973E+02  0.24539541032E+03 -0.20160851567E+03  0.32995885852E+03  0.00000000000E+00 0. -1.
         -2    1    1    2    0  502  0.82548399295E+02 -0.40073568216E+03  0.17705640629E+02  0.40953243449E+03  0.00000000000E+00 0.  1.
<mgrwt>
<rscale>  2 0.42270605E+03</rscale>
<asrwt>0</asrwt>
<pdfrwt beam="1">  1       21 0.55730466E-01 0.42270605E+03</pdfrwt>
<pdfrwt beam="2">  1       21 0.84986952E-01 0.42270605E+03</pdfrwt>
<totfact> 0.32001142E+03</totfact>
</mgrwt>
</event>
<event>
 5    1  0.1281005E-004  0.1407241E+03  0.7546771E-02  0.1212358E+00
         21   -1    0    0  501  502  0.00000000000E+00  0.00000000000E+00  0.39139444376E+03  0.39139444376E+03  0.00000000000E+00 0. -1.
         21   -1    0    0  502  503 -0.00000000000E+00 -0.00000000000E+00 -0.55558291826E+02  0.55558291826E+02  0.00000000000E+00 0.  1.
         24    1    1    2    0    0  0.73708651534E+02  0.42362980833E+01  0.78847747963E+02  0.13466660627E+03  0.80419002446E+02 0.  1.
          1    1    1    2  501    0  0.31411305523E+02 -0.48854198478E+02  0.12445231949E+03  0.13733820535E+03  0.00000000000E+00 0. -1.
         -2    1    1    2    0  503 -0.10511995706E+03  0.44617900395E+02  0.13253608449E+03  0.17494792396E+03  0.00000000000E+00 0.  1.
<mgrwt>
<rscale>  2 0.14072411E+03</rscale>
<asrwt>0</asrwt>
<pdfrwt beam="1">  1       21 0.60214528E-01 0.14072411E+03</pdfrwt>
<pdfrwt beam="2">  1       21 0.85474297E-02 0.14072411E+03</pdfrwt>
<totfact> 0.27836096E+05</totfact>
</mgrwt>
</event>
<event>
 5    1  0.1281005E-004  0.3226846E+03  0.7546771E-02  0.1074420E+00
         21   -1    0    0  503  502  0.00000000000E+00  0.00000000000E+00  0.61296825905E+03  0.61296825905E+03  0.00000000000E+00 0.  1.
         21   -1    0    0  501  503 -0.00000000000E+00 -0.00000000000E+00 -0.18595124420E+03  0.18595124420E+03  0.00000000000E+00 0. -1.
         24    1    1    2    0    0  0.37325848920E+02  0.23041589201E+03  0.14449807080E+03  0.28606224971E+03  0.80419002446E+02 0.  1.
          1    1    1    2  501    0  0.27212618214E+02  0.78404440229E+02 -0.87730430563E+01  0.83455072477E+02  0.00000000000E+00 0. -1.
         -2    1    1    2    0  502 -0.64538467134E+02 -0.30882033224E+03  0.29129198711E+03  0.42940218106E+03  0.00000000000E+00 0.  1.
<mgrwt>
<rscale>  2 0.32268455E+03</rscale>
<asrwt>0</asrwt>
<pdfrwt beam="1">  1       21 0.94302808E-01 0.32268455E+03</pdfrwt>
<pdfrwt beam="2">  1       21 0.28607884E-01 0.32268455E+03</pdfrwt>
<totfact> 0.10258289E+04</totfact>
</mgrwt>
</event>
<event>
 5    1  0.1281005E-004  0.1902604E+03  0.7546771E-02  0.1158227E+00
         21   -1    0    0  503  502  0.00000000000E+00  0.00000000000E+00  0.50510160984E+03  0.50510160984E+03  0.00000000000E+00 0.  1.
         21   -1    0    0  501  503 -0.00000000000E+00 -0.00000000000E+00 -0.79003019213E+02  0.79003019213E+02  0.00000000000E+00 0. -1.
         24    1    1    2    0    0  0.11938537003E+03  0.83316224671E+01  0.91848732998E+02  0.17095522285E+03  0.80419002446E+02 0. -1.
          1    1    1    2  501    0 -0.17775262450E+03 -0.87255059725E+01  0.20590986231E+03  0.27215988200E+03  0.00000000000E+00 0. -1.
         -2    1    1    2    0  502  0.58367254467E+02  0.39388350542E+00  0.12833999531E+03  0.14098952420E+03  0.00000000000E+00 0.  1.
<mgrwt>
<rscale>  2 0.19026044E+03</rscale>
<asrwt>0</asrwt>
<pdfrwt beam="1">  1       21 0.77707938E-01 0.19026044E+03</pdfrwt>
<pdfrwt beam="2">  1       21 0.12154311E-01 0.19026044E+03</pdfrwt>
<totfact> 0.84310574E+04</totfact>
</mgrwt>
</event>
<event>
 5    1  0.1281005E-004  0.1187509E+03  0.7546771E-02  0.1245172E+00
         21   -1    0    0  501  502  0.00000000000E+00  0.00000000000E+00  0.71623249531E+02  0.71623249531E+02  0.00000000000E+00 0.  1.
         21   -1    0    0  502  503 -0.00000000000E+00 -0.00000000000E+00 -0.20981901380E+03  0.20981901380E+03  0.00000000000E+00 0.  1.
         24    1    1    2    0    0  0.52341178027E+02  0.99378250186E+01 -0.88401742684E+02  0.13084511205E+03  0.80419002446E+02 0.  1.
          1    1    1    2  501    0  0.37896199858E+02  0.23741351741E+02 -0.72528685685E+01  0.45303177026E+02  0.00000000000E+00 0. -1.
         -2    1    1    2    0  503 -0.90237377885E+02 -0.33679176760E+02 -0.42541153019E+02  0.10529397426E+03  0.00000000000E+00 0.  1.
<mgrwt>
<rscale>  2 0.11875090E+03</rscale>
<asrwt>0</asrwt>
<pdfrwt beam="1">  1       21 0.11018962E-01 0.11875090E+03</pdfrwt>
<pdfrwt beam="2">  1       21 0.32279848E-01 0.11875090E+03</pdfrwt>
<totfact> 0.63460937E+05</totfact>
</mgrwt>
</event>
<event>
 5    1  0.1281005E-004  0.2975721E+03  0.7546771E-02  0.1086461E+00
         21   -1    0    0  503  502  0.00000000000E+00  0.00000000000E+00  0.23653477908E+03  0.23653477908E+03  0.00000000000E+00 0. -1.
         21   -1    0    0  501  503 -0.00000000000E+00 -0.00000000000E+00 -0.41529476025E+03  0.41529476025E+03  0.00000000000E+00 0.  1.
         24    1    1    2    0    0  0.99624049734E+02  0.55886473989E+02 -0.13464429850E+03  0.19402204084E+03  0.80419002446E+02 0.  0.
          1    1    1    2  501    0 -0.25313601534E+03 -0.13046364118E+03 -0.34626441492E+02  0.28687557300E+03  0.00000000000E+00 0. -1.
         -2    1    1    2    0  502  0.15351196561E+03  0.74577167188E+02 -0.94892411733E+01  0.17093192548E+03  0.00000000000E+00 0.  1.
<mgrwt>
<rscale>  2 0.29757213E+03</rscale>
<asrwt>0</asrwt>
<pdfrwt beam="1">  1       21 0.36389966E-01 0.29757213E+03</pdfrwt>
<pdfrwt beam="2">  1       21 0.63891501E-01 0.29757213E+03</pdfrwt>
<totfact> 0.15600003E+04</totfact>
</mgrwt>
</event>
<event>
 5    1  0.1281005E-004  0.2673869E+03  0.7546771E-02  0.1102785E+00
         21   -1    0    0  501  502  0.00000000000E+00  0.00000000000E+00  0.48397226796E+03  0.48397226796E+03  0.00000000000E+00 0. -1.
         21   -1    0    0  502  503 -0.00000000000E+00 -0.00000000000E+00 -0.16194356260E+03  0.16194356260E+03  0.00000000000E+00 0.  1.
         24    1    1    2    0    0  0.69349428458E+02  0.52237247715E+02  0.55750583087E+02  0.13081825845E+03  0.80419002446E+02 0.  0.
          1    1    1    2  501    0 -0.19352772937E+03 -0.16070211001E+03  0.24086348097E+03  0.34827197226E+03  0.00000000000E+00 0. -1.
         -2    1    1    2    0  503  0.12417830091E+03  0.10846486230E+03  0.25414641304E+02  0.16682559984E+03  0.00000000000E+00 0.  1.
<mgrwt>
<rscale>  2 0.26738690E+03</rscale>
<asrwt>0</asrwt>
<pdfrwt beam="1">  1       21 0.74457271E-01 0.26738690E+03</pdfrwt>
<pdfrwt beam="2">  1       21 0.24914394E-01 0.26738690E+03</pdfrwt>
<totfact> 0.23709409E+04</totfact>
</mgrwt>
</event>
<event>
 5    1  0.1281005E-004  0.2412420E+03  0.7546771E-02  0.1118968E+00
         21   -1    0    0  503  502  0.00000000000E+00  0.00000000000E+00  0.13324559581E+03  0.13324559581E+03  0.00000000000E+00 0.  1.
         21   -1    0    0  501  503 -0.00000000000E+00 -0.00000000000E+00 -0.52246792977E+03  0.52246792977E+03  0.00000000000E+00 0. -1.
         24    1    1    2    0    0  0.73874830485E+02  0.63156641184E+02 -0.68004663004E+02  0.14331120699E+03  0.80419002446E+02 0.  0.
          1    1    1    2  501    0  0.27931149509E+02  0.13269569787E+03 -0.24289988879E+03  0.27818816172E+03  0.00000000000E+00 0. -1.
         -2    1    1    2    0  502 -0.10180597999E+03 -0.19585233906E+03 -0.78317782171E+02  0.23421415687E+03  0.00000000000E+00 0.  1.
<mgrwt>
<rscale>  2 0.24124200E+03</rscale>
<asrwt>0</asrwt>
<pdfrwt beam="1">  1       21 0.20499322E-01 0.24124200E+03</pdfrwt>
<pdfrwt beam="2">  1       21 0.80379682E-01 0.24124200E+03</pdfrwt>
<totfact> 0.29242451E+04</totfact>
</mgrwt>
</event>
<event>
 5    1  0.1281005E-004  0.2915175E+03  0.7546771E-02  0.1089559E+00
         21   -1    0    0  501  502  0.00000000000E+00  0.00000000000E+00  0.90660798905E+02  0.90660798905E+02  0.00000000000E+00 0. -1.
         21   -1    0    0  502  503 -0.00000000000E+00 -0.00000000000E+00 -0.94361921133E+03  0.94361921133E+03  0.00000000000E+00 0.  1.
         24    1    1    2    0    0 -0.12775637600E+03  0.27876904217E+02 -0.25289990698E+03  0.29584521680E+03  0.80419002446E+02 0.  1.
          1    1    1    2  501    0 -0.14051005911E+03  0.51672698902E+02 -0.18747224870E+03  0.23991454428E+03  0.00000000000E+00 0. -1.
         -2    1    1    2    0  503  0.26826643511E+03 -0.79549603119E+02 -0.41258625674E+03  0.49852024915E+03  0.00000000000E+00 0.  1.
<mgrwt>
<rscale>  2 0.29151749E+03</rscale>
<asrwt>0</asrwt>
<pdfrwt beam="1">  1       21 0.13947816E-01 0.29151749E+03</pdfrwt>
<pdfrwt beam="2">  1       21 0.14517218E+00 0.29151749E+03</pdfrwt>
<totfact> 0.13749491E+04</totfact>
</mgrwt>
</event>
<event>
 5    1  0.1281005E-004  0.1550178E+03  0.7546771E-02  0.1194439E+00
         21   -1    0    0  501  502  0.00000000000E+00  0.00000000000E+00  0.23546284370E+03  0.23546284370E+03  0.00000000000E+00 0. -1.
         21   -1    0    0  502  503 -0.00000000000E+00 -0.00000000000E+00 -0.11286608793E+03  0.11286608793E+03  0.00000000000E+00 0.  1.
         24    1    1    2    0    0 -0.41554113817E+01 -0.11066356164E+03  0.67972402537E+01  0.13702959442E+03  0.80419002446E+02 0.  1.
          1    1    1    2  501    0  0.15980558730E+02  0.14033070893E+03  0.10958074322E+03  0.17876248323E+03  0.00000000000E+00 0. -1.
         -2    1    1    2    0  503 -0.11825147349E+02 -0.29667147293E+02  0.62187722966E+01  0.32536853985E+02  0.00000000000E+00 0.  1.
<mgrwt>
<rscale>  2 0.15501781E+03</rscale>
<asrwt>0</asrwt>
<pdfrwt beam="1">  1       21 0.36225053E-01 0.15501781E+03</pdfrwt>
<pdfrwt beam="2">  1       21 0.17364014E-01 0.15501781E+03</pdfrwt>
<totfact> 0.22276632E+05</totfact>
</mgrwt>
</event>
<event>
 5    1  0.1281005E-004  0.1072444E+03  0.7546771E-02  0.1265760E+00
         21   -1    0    0  503  502  0.00000000000E+00  0.00000000000E+00  0.35647236826E+03  0.35647236826E+03  0.00000000000E+00 0. -1.
         21   -1    0    0  501  503 -0.00000000000E+00 -0.00000000000E+00 -0.36261989095E+02  0.36261989095E+02  0.00000000000E+00 0.  1.
         24    1    1    2    0    0 -0.13961125092E+02 -0.51218767933E+01  0.18351946235E+03  0.20091728559E+03  0.80419002446E+02 0. -1.
          1    1    1    2  501    0  0.61002571337E+02  0.41037745448E+02  0.91346239185E+02  0.11725845673E+03  0.00000000000E+00 0. -1.
         -2    1    1    2    0  502 -0.47041446245E+02 -0.35915868655E+02  0.45344677634E+02  0.74558615034E+02  0.00000000000E+00 0.  1.
<mgrwt>
<rscale>  2 0.10724438E+03</rscale>
<asrwt>0</asrwt>
<pdfrwt beam="1">  1       21 0.54841900E-01 0.10724438E+03</pdfrwt>
<pdfrwt beam="2">  1       21 0.55787678E-02 0.10724438E+03</pdfrwt>
<totfact> 0.70491307E+05</totfact>
</mgrwt>
</event>
<event>
 5    1  0.1281005E-004  0.2150671E+03  0.7546771E-02  0.1137615E+00
         21   -1    0    0  501  502  0.00000000000E+00  0.00000000000E+00  0.30194409561E+03  0.30194409561E+03  0.00000000000E+00 0. -1.
         21   -1    0    0  502  503 -0.00000000000E+00 -0.00000000000E+00 -0.29527209857E+03  0.29527209857E+03  0.00000000000E+00 0.  1.
         24    1    1    2    0    0 -0.16699591270E+02  0.75492536791E+02 -0.78263904852E+02  0.13627345382E+03  0.80419002446E+02 0.  0.
          1    1    1    2  501    0  0.84814421142E+02 -0.17703551321E+03  0.20901270229E+03  0.28674268725E+03  0.00000000000E+00 0. -1.
         -2    1    1    2    0  503 -0.68114829872E+02  0.10154297642E+03 -0.12407680039E+03  0.17420005311E+03  0.00000000000E+00 0.  1.
<mgrwt>
<rscale>  2 0.21506714E+03</rscale>
<asrwt>0</asrwt>
<pdfrwt beam="1">  1       21 0.46452938E-01 0.21506714E+03</pdfrwt>
<pdfrwt beam="2">  1       21 0.45426476E-01 0.21506714E+03</pdfrwt>
<totfact> 0.20360132E+04</totfact>
</mgrwt>
</event>
<event>
 5    1  0.1281005E-004  0.1987929E+03  0.7546771E-02  0.1150761E+00
         21   -1    0    0  501  502  0.00000000000E+00  0.00000000000E+00  0.17475663350E+03  0.17475663350E+03  0.00000000000E+00 0.  1.
         21   -1    0    0  502  503 -0.00000000000E+00 -0.00000000000E+00 -0.22634949469E+03  0.22634949469E+03  0.00000000000E+00 0. -1.
         24    1    1    2    0    0 -0.11275861417E+03 -0.12843892976E+02 -0.18490861747E+02  0.14031606671E+03  0.80419002446E+02 0.  1.
          1    1    1    2  501    0  0.17016123122E+03 -0.46019574604E+02 -0.27186670452E+02  0.17835851790E+03  0.00000000000E+00 0. -1.
         -2    1    1    2    0  503 -0.57402617052E+02  0.58863467580E+02 -0.59153289910E+01  0.82431543580E+02  0.00000000000E+00 0.  1.
<mgrwt>
<rscale>  2 0.19879287E+03</rscale>
<asrwt>0</asrwt>
<pdfrwt beam="1">  1       21 0.26885636E-01 0.19879287E+03</pdfrwt>
<pdfrwt beam="2">  1       21 0.34822999E-01 0.19879287E+03</pdfrwt>
<totfact> 0.10448502E+05</totfact>
</mgrwt>
</event>
<event>
 5    1  0.1281005E-004  0.1617657E+03  0.7546771E-02  0.1186718E+00
         21   -1    0    0  501  502  0.00000000000E+00  0.00000000000E+00  0.21521406969E+03  0.21521406969E+03  0.00000000000E+00 0.  1.
         21   -1    0    0  502  503 -0.00000000000E+00 -0.00000000000E+00 -0.14952946080E+03  0.14952946080E+03  0.00000000000E+00 0. -1.
         24    1    1    2    0    0 -0.17878413954E+02 -0.51488043372E+02  0.94708203919E+02  0.13567430169E+03  0.80419002446E+02 0.  1.
          1    1    1    2  501    0  0.43631486645E+02  0.13348593934E+03 -0.27533452228E+02  0.14310937642E+03  0.00000000000E+00 0. -1.
         -2    1    1    2    0  503 -0.25753072691E+02 -0.81997895966E+02 -0.14901428054E+01  0.85959852381E+02  0.00000000000E+00 0.  1.
<mgrwt>
<rscale>  2 0.16176570E+03</rscale>
<asrwt>0</asrwt>
<pdfrwt beam="1">  1       21 0.33109857E-01 0.16176570E+03</pdfrwt>
<pdfrwt beam="2">  1       21 0.23004532E-01 0.16176570E+03</pdfrwt>
<totfact> 0.15741272E+05</totfact>
</mgrwt>
</event>
<event>
 5    1  0.1281005E-004  0.2261935E+03  0.7546771E-02  0.1129348E+00
         21   -1    0    0  503  502  0.00000000000E+00  0.00000000000E+00  0.79157523082E+03  0.79157523082E+03  0.00000000000E+00 0. -1.
         21   -1    0    0  501  503 -0.00000000000E+00 -0.00000000000E+00 -0.71260701399E+02  0.71260701399E+02  0.00000000000E+00 0.  1.
         24    1    1    2    0    0 -0.48805487664E+02  0.12844620149E+02  0.64660506718E+02  0.11487017444E+03  0.80419002446E+02 0.  1.
          1    1    1    2  501    0  0.12086391325E+02  0.17026280315E+03  0.26921335736E+03  0.31876532869E+03  0.00000000000E+00 0. -1.
         -2    1    1    2    0  502  0.36719096339E+02 -0.18310742330E+03  0.38644066534E+03  0.42920042909E+03  0.00000000000E+00 0.  1.
<mgrwt>
<rscale>  2 0.22619355E+03</rscale>
<asrwt>0</asrwt>
<pdfrwt beam="1">  1       21 0.12178080E+00 0.22619355E+03</pdfrwt>
<pdfrwt beam="2">  1       21 0.10963185E-01 0.22619355E+03</pdfrwt>
<totfact> 0.34455861E+04</totfact>
</mgrwt>
</event>
<event>
 5    1  0.1281005E-004  0.1217088E+03  0.7546771E-02  0.1240304E+00
         21   -1    0    0  501  502  0.00000000000E+00  0.00000000000E+00  0.28179063552E+02  0.28179063552E+02  0.00000000000E+00 0. -1.
         21   -1    0    0  502  503 -0.00000000000E+00 -0.00000000000E+00 -0.57234300089E+03  0.57234300089E+03  0.00000000000E+00 0.  1.
         24    1    1    2    0    0  0.12582537769E+02  0.28200528610E+02 -0.24449988355E+03  0.25923155495E+03  0.80419002446E+02 0.  1.
          1    1    1    2  501    0 -0.52793575437E+02 -0.77425921725E+02 -0.13117061609E+03  0.16120690273E+03  0.00000000000E+00 0. -1.
         -2    1    1    2    0  503  0.40211037667E+02  0.49225393114E+02 -0.16849343771E+03  0.18008360677E+03  0.00000000000E+00 0.  1.
<mgrwt>
<rscale>  2 0.12170880E+03</rscale>
<asrwt>0</asrwt>
<pdfrwt beam="1">  1       21 0.43352409E-02 0.12170880E+03</pdfrwt>
<pdfrwt beam="2">  1       21 0.88052763E-01 0.12170880E+03</pdfrwt>
<totfact> 0.38385536E+05</totfact>
</mgrwt>
</event>
<event>
 5    1  0.1281005E-004  0.2078806E+03  0.7546771E-02  0.1143255E+00
         21   -1    0    0  501  502  0.00000000000E+00  0.00000000000E+00  0.28634978978E+02  0.28634978978E+02  0.00000000000E+00 0. -1.
         21   -1    0    0  502  503 -0.00000000000E+00 -0.00000000000E+00 -0.16357658836E+04  0.16357658836E+04  0.00000000000E+00 0.  1.
         24    1    1    2    0    0  0.41808020736E+02  0.81914929520E+02 -0.34336406759E+03  0.36445036033E+03  0.80419002446E+02 0. -1.
          1    1    1    2  501    0 -0.78716736782E+02  0.88954575967E+02 -0.68983522646E+03  0.69998705767E+03  0.00000000000E+00 0. -1.
         -2    1    1    2    0  503  0.36908716046E+02 -0.17086950549E+03 -0.57393161059E+03  0.59996344460E+03  0.00000000000E+00 0.  1.
<mgrwt>
<rscale>  2 0.20788065E+03</rscale>
<asrwt>0</asrwt>
<pdfrwt beam="1">  1       21 0.44053821E-02 0.20788065E+03</pdfrwt>
<pdfrwt beam="2">  1       21 0.25165625E+00 0.20788065E+03</pdfrwt>
<totfact> 0.21383485E+04</totfact>
</mgrwt>
</event>
<event>
 5    1  0.1281005E-004  0.1738984E+03  0.7546771E-02  0.1173842E+00
         21   -1    0    0  501  502  0.00000000000E+00  0.00000000000E+00  0.77140158959E+02  0.77140158959E+02  0.00000000000E+00 0. -1.
         21   -1    0    0  502  503 -0.00000000000E+00 -0.00000000000E+00 -0.39609614870E+03  0.39609614870E+03  0.00000000000E+00 0.  1.
         24    1    1    2    0    0  0.13346099382E+03 -0.84052871492E+02 -0.14614428468E+03  0.22956935766E+03  0.80419002446E+02 0.  1.
          1    1    1    2  501    0 -0.13428040111E+03  0.60657673109E+02 -0.15759203965E+03  0.21574482703E+03  0.00000000000E+00 0. -1.
         -2    1    1    2    0  503  0.81940728488E+00  0.23395198383E+02 -0.15219665411E+02  0.27922122965E+02  0.00000000000E+00 0.  1.
<mgrwt>
<rscale>  2 0.17389842E+03</rscale>
<asrwt>0</asrwt>
<pdfrwt beam="1">  1       21 0.11867717E-01 0.17389842E+03</pdfrwt>
<pdfrwt beam="2">  1       21 0.60937868E-01 0.17389842E+03</pdfrwt>
<totfact> 0.15095580E+05</totfact>
</mgrwt>
</event>
<event>
 5    1  0.1281005E-004  0.2184826E+03  0.7546771E-02  0.1135019E+00
         21   -1    0    0  503  502  0.00000000000E+00  0.00000000000E+00  0.48132356834E+03  0.48132356834E+03  0.00000000000E+00 0.  1.
         21   -1    0    0  501  503 -0.00000000000E+00 -0.00000000000E+00 -0.10038780066E+03  0.10038780066E+03  0.00000000000E+00 0. -1.
         24    1    1    2    0    0 -0.79302812724E+02  0.56707553366E+02  0.99931939855E+02  0.16111576978E+03  0.80419002446E+02 0.  0.
          1    1    1    2  501    0  0.16893050771E+03 -0.11437547655E+03  0.15939428483E+03  0.25889342229E+03  0.00000000000E+00 0. -1.
         -2    1    1    2    0  502 -0.89627694981E+02  0.57667923188E+02  0.12160954301E+03  0.16170217693E+03  0.00000000000E+00 0.  1.
<mgrwt>
<rscale>  2 0.21848262E+03</rscale>
<asrwt>0</asrwt>
<pdfrwt beam="1">  1       21 0.74049778E-01 0.21848262E+03</pdfrwt>
<pdfrwt beam="2">  1       21 0.15444277E-01 0.21848262E+03</pdfrwt>
<totfact> 0.60120558E+04</totfact>
</mgrwt>
</event>
<event>
 5    1  0.1281005E-004  0.1804583E+03  0.7546771E-02  0.1167360E+00
         21   -1    0    0  503  502  0.00000000000E+00  0.00000000000E+00  0.67816551164E+03  0.67816551164E+03  0.00000000000E+00 0.  1.
         21   -1    0    0  501  503 -0.00000000000E+00 -0.00000000000E+00 -0.69274989505E+02  0.69274989505E+02  0.00000000000E+00 0. -1.
         24    1    1    2    0    0 -0.96282330465E+02 -0.97807764323E+02  0.44629768449E+03  0.47379899225E+03  0.80419002446E+02 0.  1.
          1    1    1    2  501    0  0.13339947292E+03  0.96609426198E+02  0.80052408224E+02  0.18313161570E+03  0.00000000000E+00 0. -1.
         -2    1    1    2    0  502 -0.37117142452E+02  0.11983381242E+01  0.82540429425E+02  0.90509893204E+02  0.00000000000E+00 0.  1.
<mgrwt>
<rscale>  2 0.18045829E+03</rscale>
<asrwt>0</asrwt>
<pdfrwt beam="1">  1       21 0.10433315E+00 0.18045829E+03</pdfrwt>
<pdfrwt beam="2">  1       21 0.10657691E-01 0.18045829E+03</pdfrwt>
<totfact> 0.54103553E+04</totfact>
</mgrwt>
</event>
<event>
 5    1  0.1281005E-004  0.1430186E+03  0.7546771E-02  0.1209324E+00
         21   -1    0    0  501  502  0.00000000000E+00  0.00000000000E+00  0.33683664696E+03  0.33683664696E+03  0.00000000000E+00 0. -1.
         21   -1    0    0  502  503 -0.00000000000E+00 -0.00000000000E+00 -0.63591573704E+02  0.63591573704E+02  0.00000000000E+00 0.  1.
         24    1    1    2    0    0 -0.20964827619E+02 -0.15397526876E+02  0.44841110791E+02  0.95679407410E+02  0.80419002446E+02 0.  0.
          1    1    1    2  501    0  0.54949561898E+02  0.97911797330E+02  0.13453151658E+03  0.17522814661E+03  0.00000000000E+00 0. -1.
         -2    1    1    2    0  503 -0.33984734279E+02 -0.82514270453E+02  0.93872445878E+02  0.12952066664E+03  0.00000000000E+00 0.  1.
<mgrwt>
<rscale>  2 0.14301859E+03</rscale>
<asrwt>0</asrwt>
<pdfrwt beam="1">  1       21 0.51821022E-01 0.14301859E+03</pdfrwt>
<pdfrwt beam="2">  1       21 0.97833192E-02 0.14301859E+03</pdfrwt>
<totfact> 0.30155667E+05</totfact>
</mgrwt>
</event>
<event>
 5    1  0.1281005E-004  0.1100992E+03  0.7546771E-02  0.1260386E+00
         21   -1    0    0  501  502  0.00000000000E+00  0.00000000000E+00  0.80539517364E+02  0.80539517364E+02  0.00000000000E+00 0.  1.
         21   -1    0    0  502  503 -0.00000000000E+00 -0.00000000000E+00 -0.18462585002E+03  0.18462585002E+03  0.00000000000E+00 0. -1.
         24    1    1    2    0    0  0.89889424748E+01  0.24892028176E+02  0.12080423222E+02  0.85519393901E+02  0.80419002446E+02 0.  1.
          1    1    1    2  501    0 -0.40977790666E+02  0.43666302330E+02 -0.38322678523E+02  0.71095379429E+02  0.00000000000E+00 0. -1.
         -2    1    1    2    0  503  0.31988848191E+02 -0.68558330505E+02 -0.77844077353E+02  0.10855059405E+03  0.00000000000E+00 0.  1.
<mgrwt>
<rscale>  2 0.11009924E+03</rscale>
<asrwt>0</asrwt>
<pdfrwt beam="1">  1       21 0.12390695E-01 0.11009924E+03</pdfrwt>
<pdfrwt beam="2">  1       21 0.28403977E-01 0.11009924E+03</pdfrwt>
<totfact> 0.66018323E+05</totfact>
</mgrwt>
</event>
<event>
 5    1  0.1281005E-004  0.1422108E+03  0.7546771E-02  0.1210385E+00
         21   -1    0    0  501  502  0.00000000000E+00  0.00000000000E+00  0.30173878359E+03  0.30173878359E+03  0.00000000000E+00 0. -1.
         21   -1    0    0  502  503 -0.00000000000E+00 -0.00000000000E+00 -0.68970887476E+02  0.68970887476E+02  0.00000000000E+00 0.  1.
         24    1    1    2    0    0  0.75778829872E+02 -0.11586639105E+02  0.10058707571E+03  0.14987213556E+03  0.80419002446E+02 0.  0.
          1    1    1    2  501    0  0.43400744548E+02 -0.23137983745E+02  0.58711962463E+02  0.76590374431E+02  0.00000000000E+00 0. -1.
         -2    1    1    2    0  503 -0.11917957442E+03  0.34724622851E+02  0.73468857936E+02  0.14424716107E+03  0.00000000000E+00 0.  1.
<mgrwt>
<rscale>  2 0.14221081E+03</rscale>
<asrwt>0</asrwt>
<pdfrwt beam="1">  1       21 0.46421351E-01 0.14221081E+03</pdfrwt>
<pdfrwt beam="2">  1       21 0.10610906E-01 0.14221081E+03</pdfrwt>
<totfact> 0.32816108E+05</totfact>
</mgrwt>
</event>
<event>
 5    1  0.1281005E-004  0.2095999E+03  0.7546771E-02  0.1141883E+00
         21   -1    0    0  503  502  0.00000000000E+00  0.00000000000E+00  0.77285008947E+03  0.77285008947E+03  0.00000000000E+00 0. -1.
         21   -1    0    0  501  503 -0.00000000000E+00 -0.00000000000E+00 -0.62324545415E+02  0.62324545415E+02  0.00000000000E+00 0.  1.
         24    1    1    2    0    0  0.93581909853E+02  0.70199232014E+02  0.15228092269E+03  0.20818789925E+03  0.80419002446E+02 0.  0.
          1    1    1    2  501    0  0.82418188194E+02  0.11472773274E+02  0.10512560260E+03  0.13407376549E+03  0.00000000000E+00 0. -1.
         -2    1    1    2    0  502 -0.17600009805E+03 -0.81672005287E+02  0.45311901877E+03  0.49291297014E+03  0.00000000000E+00 0.  1.
<mgrwt>
<rscale>  2 0.20959992E+03</rscale>
<asrwt>0</asrwt>
<pdfrwt beam="1">  1       21 0.11890001E+00 0.20959992E+03</pdfrwt>
<pdfrwt beam="2">  1       21 0.95883921E-02 0.20959992E+03</pdfrwt>
<totfact> 0.46791845E+04</totfact>
</mgrwt>
</event>
<event>
 5    1  0.1281005E-004  0.1635271E+03  0.7546771E-02  0.1184771E+00
         21   -1    0    0  503  502  0.00000000000E+00  0.00000000000E+00  0.56370460972E+02  0.56370460972E+02  0.00000000000E+00 0.  1.
         21   -1    0    0  501  503 -0.00000000000E+00 -0.00000000000E+00 -0.53935939751E+03  0.53935939751E+03  0.00000000000E+00 0. -1.
         24    1    1    2    0    0 -0.56739308468E+02 -0.85360756291E+01 -0.61508558598E+02  0.11637324627E+03  0.80419002446E+02 0.  0.
          1    1    1    2  501    0 -0.66999636067E+02 -0.57247270706E+02 -0.15693422890E+03  0.17998487002E+03  0.00000000000E+00 0. -1.
         -2    1    1    2    0  502  0.12373894453E+03  0.65783346335E+02 -0.26454614904E+03  0.29937174219E+03  0.00000000000E+00 0.  1.
<mgrwt>
<rscale>  2 0.16352715E+03</rscale>
<asrwt>0</asrwt>
<pdfrwt beam="1">  1       21 0.86723791E-02 0.16352715E+03</pdfrwt>
<pdfrwt beam="2">  1       21 0.82978364E-01 0.16352715E+03</pdfrwt>
<totfact> 0.13339841E+05</totfact>
</mgrwt>
</event>
<event>
 5    1  0.1281005E-004  0.1498830E+03  0.7546771E-02  0.1200617E+00
         21   -1    0    0  501  502  0.00000000000E+00  0.00000000000E+00  0.13808323613E+03  0.13808323613E+03  0.00000000000E+00 0. -1.
         21   -1    0    0  502  503 -0.00000000000E+00 -0.00000000000E+00 -0.16439807059E+03  0.16439807059E+03  0.00000000000E+00 0. -1.
         24    1    1    2    0    0  0.68092533406E+02 -0.11001988186E+02 -0.77970495186E+01  0.10623392483E+03  0.80419002446E+02 0. -1.
          1    1    1    2  501    0 -0.12576874678E+03  0.36205099795E+02 -0.24030382323E+02  0.13306406800E+03  0.00000000000E+00 0. -1.
         -2    1    1    2    0  503  0.57676213377E+02 -0.25203111609E+02  0.55125973837E+01  0.63183313890E+02  0.00000000000E+00 0.  1.
<mgrwt>
<rscale>  2 0.14988300E+03</rscale>
<asrwt>0</asrwt>
<pdfrwt beam="1">  1       21 0.21243575E-01 0.14988300E+03</pdfrwt>
<pdfrwt beam="2">  1       21 0.25292011E-01 0.14988300E+03</pdfrwt>
<totfact> 0.30827004E+05</totfact>
</mgrwt>
</event>
<event>
 5    1  0.1281005E-004  0.1787805E+03  0.7546771E-02  0.1168989E+00
         21   -1    0    0  503  502  0.00000000000E+00  0.00000000000E+00  0.30575311482E+03  0.30575311482E+03  0.00000000000E+00 0. -1.
         21   -1    0    0  501  503 -0.00000000000E+00 -0.00000000000E+00 -0.10916987602E+03  0.10916987602E+03  0.00000000000E+00 0.  1.
         24    1    1    2    0    0 -0.94047726238E+01 -0.68608814215E+02  0.84309411068E+02  0.13553933704E+03  0.80419002446E+02 0.  1.
          1    1    1    2  501    0  0.82494283902E+02  0.13135170463E+03  0.93911728896E+02  0.18132288882E+03  0.00000000000E+00 0. -1.
         -2    1    1    2    0  502 -0.73089511278E+02 -0.62742890415E+02  0.18362098837E+02  0.98060764989E+02  0.00000000000E+00 0.  1.
<mgrwt>
<rscale>  2 0.17878052E+03</rscale>
<asrwt>0</asrwt>
<pdfrwt beam="1">  1       21 0.47038940E-01 0.17878052E+03</pdfrwt>
<pdfrwt beam="2">  1       21 0.16795366E-01 0.17878052E+03</pdfrwt>
<totfact> 0.13861616E+05</totfact>
</mgrwt>
</event>
<event>
 5    1  0.1281005E-004  0.2009564E+03  0.7546771E-02  0.1148935E+00
         21   -1    0    0  503  502  0.00000000000E+00  0.00000000000E+00  0.10354221288E+03  0.10354221288E+03  0.00000000000E+00 0. -1.
         21   -1    0    0  501  503 -0.00000000000E+00 -0.00000000000E+00 -0.40534173187E+03  0.40534173187E+03  0.00000000000E+00 0.  1.
         24    1    1    2    0    0 -0.44915355516E+02 -0.53736459753E+02 -0.11751652061E+03  0.15868946039E+03  0.80419002446E+02 0.  1.
          1    1    1    2  501    0 -0.54948111453E+02 -0.98742569114E+02 -0.48812934939E+02  0.12309383626E+03  0.00000000000E+00 0. -1.
         -2    1    1    2    0  502  0.99863466969E+02  0.15247902887E+03 -0.13547006343E+03  0.22710064810E+03  0.00000000000E+00 0.  1.
<mgrwt>
<rscale>  2 0.20095644E+03</rscale>
<asrwt>0</asrwt>
<pdfrwt beam="1">  1       21 0.15929571E-01 0.20095644E+03</pdfrwt>
<pdfrwt beam="2">  1       21 0.62360267E-01 0.20095644E+03</pdfrwt>
<totfact> 0.83518903E+04</totfact>
</mgrwt>
</event>
<event>
 5    1  0.1281005E-004  0.1499950E+03  0.7546771E-02  0.1200479E+00
         21   -1    0    0  503  502  0.00000000000E+00  0.00000000000E+00  0.68286562215E+02  0.68286562215E+02  0.00000000000E+00 0.  1.
         21   -1    0    0  501  503 -0.00000000000E+00 -0.00000000000E+00 -0.33444092264E+03  0.33444092264E+03  0.00000000000E+00 0. -1.
         24    1    1    2    0    0  0.19697387906E+02 -0.89210101606E+02 -0.87016626846E+02  0.14961797559E+03  0.80419002446E+02 0.  1.
          1    1    1    2  501    0  0.32987460442E+01  0.13075361267E+03 -0.12252577447E+03  0.17922040721E+03  0.00000000000E+00 0. -1.
         -2    1    1    2    0  502 -0.22996133950E+02 -0.41543511059E+02 -0.56611959111E+02  0.73889102053E+02  0.00000000000E+00 0.  1.
<mgrwt>
<rscale>  2 0.14999503E+03</rscale>
<asrwt>0</asrwt>
<pdfrwt beam="1">  1       21 0.10505625E-01 0.14999503E+03</pdfrwt>
<pdfrwt beam="2">  1       21 0.51452449E-01 0.14999503E+03</pdfrwt>
<totfact> 0.26970649E+05</totfact>
</mgrwt>
</event>
<event>
 5    1  0.1281005E-004  0.1325659E+03  0.7546771E-02  0.1223697E+00
         21   -1    0    0  503  502  0.00000000000E+00  0.00000000000E+00  0.50642813821E+02  0.50642813821E+02  0.00000000000E+00 0. -1.
         21   -1    0    0  501  503 -0.00000000000E+00 -0.00000000000E+00 -0.36273958333E+03  0.36273958333E+03  0.00000000000E+00 0.  1.
         24    1    1    2    0    0  0.54273645454E+02  0.52361531844E+02 -0.17211137892E+03  0.20439398552E+03  0.80419002446E+02 0.  1.
          1    1    1    2  501    0 -0.28893044436E+02 -0.98268489371E+02 -0.98578055241E+02  0.14215884424E+03  0.00000000000E+00 0. -1.
         -2    1    1    2    0  502 -0.25380601018E+02  0.45906957527E+02 -0.41407335344E+02  0.66829567391E+02  0.00000000000E+00 0.  1.
<mgrwt>
<rscale>  2 0.13256588E+03</rscale>
<asrwt>0</asrwt>
<pdfrwt beam="1">  1       21 0.77912021E-02 0.13256588E+03</pdfrwt>
<pdfrwt beam="2">  1       21 0.55806090E-01 0.13256588E+03</pdfrwt>
<totfact> 0.38427473E+05</totfact>
</mgrwt>
</event>
<event>
 5    1  0.1281005E-004  0.3797496E+03  0.7546771E-02  0.1051026E+00
         21   -1    0    0  501  502  0.00000000000E+00  0.00000000000E+00  0.25083975867E+03  0.25083975867E+03  0.00000000000E+00 0. -1.
         21   -1    0    0  502  503 -0.00000000000E+00 -0.00000000000E+00 -0.59407859798E+03  0.59407859798E+03  0.00000000000E+00 0. -1.
         24    1    1    2    0    0  0.28096143785E+03  0.12466970569E+03 -0.13922801464E+03  0.34689122372E+03  0.80419002446E+02 0. -1.
          1    1    1    2  501    0 -0.35147713645E+03 -0.11881320956E+03 -0.12393597612E+03  0.39116861121E+03  0.00000000000E+00 0. -1.
         -2    1    1    2    0  503  0.70515698606E+02 -0.58564961298E+01 -0.80074848549E+02  0.10685852173E+03  0.00000000000E+00 0.  1.
<mgrwt>
<rscale>  2 0.37974959E+03</rscale>
<asrwt>0</asrwt>
<pdfrwt beam="1">  1       21 0.38590733E-01 0.37974959E+03</pdfrwt>
<pdfrwt beam="2">  1       21 0.91396706E-01 0.37974959E+03</pdfrwt>
<totfact> 0.59314199E+03</totfact>
</mgrwt>
</event>
<event>
 5    1  0.1281005E-004  0.3797890E+03  0.7546771E-02  0.1051012E+00
         21   -1    0    0  503  502  0.00000000000E+00  0.00000000000E+00  0.20474693091E+04  0.20474693091E+04  0.00000000000E+00 0. -1.
         21   -1    0    0  501  503 -0.00000000000E+00 -0.00000000000E+00 -0.73323672035E+02  0.73323672035E+02  0.00000000000E+00 0.  1.
         24    1    1    2    0    0  0.12945136873E+03  0.21624178192E+03  0.55366975161E+03  0.61362494646E+03  0.80419002446E+02 0. -1.
          1    1    1    2  501    0  0.11021401448E+03  0.63073873759E+02  0.25344955710E+03  0.28348213441E+03  0.00000000000E+00 0. -1.
         -2    1    1    2    0  502 -0.23966538322E+03 -0.27931565568E+03  0.11670263284E+04  0.12236859003E+04  0.00000000000E+00 0.  1.
<mgrwt>
<rscale>  2 0.37978898E+03</rscale>
<asrwt>0</asrwt>
<pdfrwt beam="1">  1       21 0.31499523E+00 0.37978898E+03</pdfrwt>
<pdfrwt beam="2">  1       21 0.11280567E-01 0.37978898E+03</pdfrwt>
<totfact> 0.15458444E+03</totfact>
</mgrwt>
</event>
<event>
 5    1  0.1281005E-004  0.1978082E+03  0.7546771E-02  0.1151602E+00
         21   -1    0    0  503  502  0.00000000000E+00  0.00000000000E+00  0.12691210311E+03  0.12691210311E+03  0.00000000000E+00 0.  1.
         21   -1    0    0  501  503 -0.00000000000E+00 -0.00000000000E+00 -0.32306723734E+03  0.32306723734E+03  0.00000000000E+00 0. -1.
         24    1    1    2    0    0  0.58618518737E+01  0.31768255242E+02 -0.48614662096E+02  0.99368932135E+02  0.80419002446E+02 0.  1.
          1    1    1    2  501    0  0.88519797042E+02  0.10841127340E+03 -0.25759477724E+02  0.14231060875E+03  0.00000000000E+00 0. -1.
         -2    1    1    2    0  502 -0.94381648916E+02 -0.14017952864E+03 -0.12178099441E+03  0.20829979957E+03  0.00000000000E+00 0.  1.
<mgrwt>
<rscale>  2 0.19780821E+03</rscale>
<asrwt>0</asrwt>
<pdfrwt beam="1">  1       21 0.19524939E-01 0.19780821E+03</pdfrwt>
<pdfrwt beam="2">  1       21 0.49702652E-01 0.19780821E+03</pdfrwt>
<totfact> 0.92944877E+04</totfact>
</mgrwt>
</event>
<event>
 5    1  0.1281005E-004  0.1143223E+03  0.7546771E-02  0.1252769E+00
         21   -1    0    0  503  502  0.00000000000E+00  0.00000000000E+00  0.65155586268E+02  0.65155586268E+02  0.00000000000E+00 0.  1.
         21   -1    0    0  501  503 -0.00000000000E+00 -0.00000000000E+00 -0.20191579665E+03  0.20191579665E+03  0.00000000000E+00 0. -1.
         24    1    1    2    0    0 -0.31879093623E+02 -0.77850548969E+01 -0.62547620667E+02  0.10703412771E+03  0.80419002446E+02 0. -1.
          1    1    1    2  501    0 -0.42966386814E+02 -0.35140594214E+02 -0.28611046511E+02  0.62446487011E+02  0.00000000000E+00 0. -1.
         -2    1    1    2    0  502  0.74845480437E+02  0.42925649111E+02 -0.45601543200E+02  0.97590768189E+02  0.00000000000E+00 0.  1.
<mgrwt>
<rscale>  2 0.11432227E+03</rscale>
<asrwt>0</asrwt>
<pdfrwt beam="1">  1       21 0.10023937E-01 0.11432227E+03</pdfrwt>
<pdfrwt beam="2">  1       21 0.31063968E-01 0.11432227E+03</pdfrwt>
<totfact> 0.80671351E+05</totfact>
</mgrwt>
</event>
<event>
 5    1  0.1281005E-004  0.1137274E+03  0.7546771E-02  0.1253819E+00
         21   -1    0    0  501  502  0.00000000000E+00  0.00000000000E+00  0.12580632486E+02  0.12580632486E+02  0.00000000000E+00 0.  1.
         21   -1    0    0  502  503 -0.00000000000E+00 -0.00000000000E+00 -0.10299240586E+04  0.10299240586E+04  0.00000000000E+00 0. -1.
         24    1    1    2    0    0  0.33351674760E+02  0.46492467898E+02 -0.44864311726E+03  0.45937103348E+03  0.80419002446E+02 0.  0.
          1    1    1    2  501    0  0.36467389593E+02  0.11240941149E+02 -0.18292223875E+03  0.18686030796E+03  0.00000000000E+00 0. -1.
         -2    1    1    2    0  503 -0.69819064353E+02 -0.57733409047E+02 -0.38577807009E+03  0.39627334963E+03  0.00000000000E+00 0.  1.
<mgrwt>
<rscale>  2 0.11372738E+03</rscale>
<asrwt>0</asrwt>
<pdfrwt beam="1">  1       21 0.19354815E-02 0.11372738E+03</pdfrwt>
<pdfrwt beam="2">  1       21 0.15844989E+00 0.11372738E+03</pdfrwt>
<totfact> 0.34472200E+05</totfact>
</mgrwt>
</event>
<event>
 5    1  0.1281005E-004  0.1468991E+03  0.7546771E-02  0.1204336E+00
         21   -1    0    0  501  502  0.00000000000E+00  0.00000000000E+00  0.47253758054E+02  0.47253758054E+02  0.00000000000E+00 0. -1.
         21   -1    0    0  502  503 -0.00000000000E+00 -0.00000000000E+00 -0.46710324365E+03  0.46710324365E+03  0.00000000000E+00 0.  1.
         24    1    1    2    0    0  0.66778746936E+02 -0.47890085334E+02 -0.12784017885E+03  0.17193949110E+03  0.80419002446E+02 0.  0.
          1    1    1    2  501    0 -0.11953116863E+03  0.33778122444E+02 -0.20456844421E+03  0.23932594970E+03  0.00000000000E+00 0. -1.
         -2    1    1    2    0  503  0.52752421694E+02  0.14111962890E+02 -0.87440862529E+02  0.10309156091E+03  0.00000000000E+00 0.  1.
<mgrwt>
<rscale>  2 0.14689907E+03</rscale>
<asrwt>0</asrwt>
<pdfrwt beam="1">  1       21 0.72698090E-02 0.14689907E+03</pdfrwt>
<pdfrwt beam="2">  1       21 0.71862037E-01 0.14689907E+03</pdfrwt>
<totfact> 0.25077654E+05</totfact>
</mgrwt>
</event>
<event>
 5    1  0.1281005E-004  0.2635980E+03  0.7546771E-02  0.1105001E+00
         21   -1    0    0  503  502  0.00000000000E+00  0.00000000000E+00  0.10571249535E+03  0.10571249535E+03  0.00000000000E+00 0. -1.
         21   -1    0    0  501  503 -0.00000000000E+00 -0.00000000000E+00 -0.66865294335E+03  0.66865294335E+03  0.00000000000E+00 0.  1.
         24    1    1    2    0    0  0.17805419697E+03 -0.25994284037E+02 -0.24545585067E+03  0.31479325032E+03  0.80419002446E+02 0.  0.
          1    1    1    2  501    0  0.75377080423E+02  0.11572640986E+02 -0.96665643166E+02  0.12312545164E+03  0.00000000000E+00 0. -1.
         -2    1    1    2    0  502 -0.25343127740E+03  0.14421643051E+02 -0.22081895416E+03  0.33644673675E+03  0.00000000000E+00 0.  1.
<mgrwt>
<rscale>  2 0.26359800E+03</rscale>
<asrwt>0</asrwt>
<pdfrwt beam="1">  1       21 0.16263461E-01 0.26359800E+03</pdfrwt>
<pdfrwt beam="2">  1       21 0.10286968E+00 0.26359800E+03</pdfrwt>
<totfact> 0.25016063E+04</totfact>
</mgrwt>
</event>
<event>
 5    1  0.1281005E-004  0.2927315E+03  0.7546771E-02  0.1088932E+00
         21   -1    0    0  501  502  0.00000000000E+00  0.00000000000E+00  0.15186646827E+03  0.15186646827E+03  0.00000000000E+00 0.  1.
         21   -1    0    0  502  503 -0.00000000000E+00 -0.00000000000E+00 -0.57359443148E+03  0.57359443148E+03  0.00000000000E+00 0. -1.
         24    1    1    2    0    0 -0.20268238373E+03 -0.14196814762E+03 -0.23270128025E+03  0.34907335246E+03  0.80419002446E+02 0. -1.
          1    1    1    2  501    0 -0.44626806849E+02  0.13759790529E+02 -0.22454775341E+02  0.51817956931E+02  0.00000000000E+00 0. -1.
         -2    1    1    2    0  503  0.24730919058E+03  0.12820835709E+03 -0.16657190762E+03  0.32456959035E+03  0.00000000000E+00 0.  1.
<mgrwt>
<rscale>  2 0.29273149E+03</rscale>
<asrwt>0</asrwt>
<pdfrwt beam="1">  1       21 0.23364072E-01 0.29273149E+03</pdfrwt>
<pdfrwt beam="2">  1       21 0.88245296E-01 0.29273149E+03</pdfrwt>
<totfact> 0.17979642E+04</totfact>
</mgrwt>
</event>
<event>
 5    1  0.1281005E-004  0.3047019E+03  0.7546771E-02  0.1082914E+00
         21   -1    0    0  501  502  0.00000000000E+00  0.00000000000E+00  0.10866333125E+03  0.10866333125E+03  0.00000000000E+00 0. -1.
         21   -1    0    0  502  503 -0.00000000000E+00 -0.00000000000E+00 -0.93444197312E+03  0.93444197312E+03  0.00000000000E+00 0.  1.
         24    1    1    2    0    0  0.95068723336E+02  0.16634925766E+02 -0.22953321796E+03  0.26166294543E+03  0.80419002446E+02 0.  1.
          1    1    1    2  501    0 -0.14106936023E+03  0.20974466086E+03 -0.19816145453E+03  0.32118740513E+03  0.00000000000E+00 0. -1.
         -2    1    1    2    0  503  0.46000636889E+02 -0.22637958662E+03 -0.39808396938E+03  0.46025495381E+03  0.00000000000E+00 0.  1.
<mgrwt>
<rscale>  2 0.30470192E+03</rscale>
<asrwt>0</asrwt>
<pdfrwt beam="1">  1       21 0.16717436E-01 0.30470192E+03</pdfrwt>
<pdfrwt beam="2">  1       21 0.14376030E+00 0.30470192E+03</pdfrwt>
<totfact> 0.10043653E+04</totfact>
</mgrwt>
</event>
<event>
 5    1  0.1281005E-004  0.2918361E+03  0.7546771E-02  0.1089394E+00
         21   -1    0    0  501  502  0.00000000000E+00  0.00000000000E+00  0.13167953451E+03  0.13167953451E+03  0.00000000000E+00 0.  1.
         21   -1    0    0  502  503 -0.00000000000E+00 -0.00000000000E+00 -0.65863259044E+03  0.65863259044E+03  0.00000000000E+00 0. -1.
         24    1    1    2    0    0  0.21491830610E+02 -0.33690926686E+02 -0.69887642549E+02  0.11379136988E+03  0.80419002446E+02 0. -1.
          1    1    1    2  501    0  0.95089558124E+02  0.23930575666E+03 -0.19087489635E+03  0.32053470216E+03  0.00000000000E+00 0. -1.
         -2    1    1    2    0  503 -0.11658138873E+03 -0.20561482998E+03 -0.26619051704E+03  0.35598605291E+03  0.00000000000E+00 0.  1.
<mgrwt>
<rscale>  2 0.29183614E+03</rscale>
<asrwt>0</asrwt>
<pdfrwt beam="1">  1       21 0.20258390E-01 0.29183614E+03</pdfrwt>
<pdfrwt beam="2">  1       21 0.10132809E+00 0.29183614E+03</pdfrwt>
<totfact> 0.17003197E+04</totfact>
</mgrwt>
</event>
<event>
 5    1  0.1281005E-004  0.1789106E+03  0.7546771E-02  0.1168862E+00
         21   -1    0    0  501  502  0.00000000000E+00  0.00000000000E+00  0.36632133707E+03  0.36632133707E+03  0.00000000000E+00 0. -1.
         21   -1    0    0  502  503 -0.00000000000E+00 -0.00000000000E+00 -0.88677540499E+02  0.88677540499E+02  0.00000000000E+00 0.  1.
         24    1    1    2    0    0  0.89483065577E+02 -0.10592869744E+03  0.14708628376E+03  0.21755389859E+03  0.80419002446E+02 0. -1.
          1    1    1    2  501    0 -0.27807377769E+01 -0.33348604460E+02  0.14419529070E+02  0.36438780724E+02  0.00000000000E+00 0. -1.
         -2    1    1    2    0  503 -0.86702327800E+02  0.13927730190E+03  0.11613798373E+03  0.20100619825E+03  0.00000000000E+00 0.  1.
<mgrwt>
<rscale>  2 0.17891063E+03</rscale>
<asrwt>0</asrwt>
<pdfrwt beam="1">  1       21 0.56357128E-01 0.17891063E+03</pdfrwt>
<pdfrwt beam="2">  1       21 0.13642699E-01 0.17891063E+03</pdfrwt>
<totfact> 0.13865879E+05</totfact>
</mgrwt>
</event>
<event>
 5    1  0.1281005E-004  0.3952836E+03  0.7546771E-02  0.1045425E+00
         21   -1    0    0  503  502  0.00000000000E+00  0.00000000000E+00  0.20829938773E+04  0.20829938773E+04  0.00000000000E+00 0. -1.
         21   -1    0    0  501  503 -0.00000000000E+00 -0.00000000000E+00 -0.75073027849E+02  0.75073027849E+02  0.00000000000E+00 0.  1.
         24    1    1    2    0    0  0.16988907644E+02 -0.45421379176E+02  0.25808603564E+03  0.27464038745E+03  0.80419002446E+02 0. -1.
          1    1    1    2  501    0 -0.16040644142E+03 -0.29025390489E+03  0.84162961036E+03  0.90460928405E+03  0.00000000000E+00 0. -1.
         -2    1    1    2    0  502  0.14341753377E+03  0.33567528406E+03  0.90820520343E+03  0.97881723363E+03  0.00000000000E+00 0.  1.
<mgrwt>
<rscale>  2 0.39528364E+03</rscale>
<asrwt>0</asrwt>
<pdfrwt beam="1">  1       21 0.32046055E+00 0.39528364E+03</pdfrwt>
<pdfrwt beam="2">  1       21 0.11549698E-01 0.39528364E+03</pdfrwt>
<totfact> 0.13601298E+03</totfact>
</mgrwt>
</event>
<event>
 5    1  0.1281005E-004  0.1451780E+03  0.7546771E-02  0.1206527E+00
         21   -1    0    0  503  502  0.00000000000E+00  0.00000000000E+00  0.78545852847E+03  0.78545852847E+03  0.00000000000E+00 0. -1.
         21   -1    0    0  501  503 -0.00000000000E+00 -0.00000000000E+00 -0.27081810092E+02  0.27081810092E+02  0.00000000000E+00 0.  1.
         24    1    1    2    0    0  0.99482515852E+02  0.48658330544E+02  0.32011034063E+03  0.34814113550E+03  0.80419002446E+02 0. -1.
          1    1    1    2  501    0 -0.10805866858E+03 -0.71178203808E+02  0.37522965907E+03  0.39691347873E+03  0.00000000000E+00 0. -1.
         -2    1    1    2    0  502  0.85761527256E+01  0.22519873264E+02  0.63036718677E+02  0.67485724335E+02  0.00000000000E+00 0.  1.
<mgrwt>
<rscale>  2 0.14517796E+03</rscale>
<asrwt>0</asrwt>
<pdfrwt beam="1">  1       21 0.12083976E+00 0.14517796E+03</pdfrwt>
<pdfrwt beam="2">  1       21 0.41664329E-02 0.14517796E+03</pdfrwt>
<totfact> 0.19316235E+05</totfact>
</mgrwt>
</event>
<event>
 5    1  0.1281005E-004  0.2059625E+03  0.7546771E-02  0.1144804E+00
         21   -1    0    0  501  502  0.00000000000E+00  0.00000000000E+00  0.55289930963E+03  0.55289930963E+03  0.00000000000E+00 0.  1.
         21   -1    0    0  502  503 -0.00000000000E+00 -0.00000000000E+00 -0.87821009540E+02  0.87821009540E+02  0.00000000000E+00 0. -1.
         24    1    1    2    0    0  0.69223677965E+02  0.95411942534E+02  0.27818769753E+03  0.31265151108E+03  0.80419002446E+02 0.  0.
          1    1    1    2  501    0 -0.11874007108E+03 -0.15274670796E+03  0.12610571327E+03  0.23094027841E+03  0.00000000000E+00 0. -1.
         -2    1    1    2    0  503  0.49516393113E+02  0.57334765423E+02  0.60784889293E+02  0.97128529688E+02  0.00000000000E+00 0.  1.
<mgrwt>
<rscale>  2 0.20596248E+03</rscale>
<asrwt>0</asrwt>
<pdfrwt beam="1">  1       21 0.85061430E-01 0.20596248E+03</pdfrwt>
<pdfrwt beam="2">  1       21 0.13510925E-01 0.20596248E+03</pdfrwt>
<totfact> 0.56357816E+04</totfact>
</mgrwt>
</event>
<event>
 5    1  0.1281005E-004  0.9814060E+02  0.7546771E-02  0.1284255E+00
         21   -1    0    0  503  502  0.00000000000E+00  0.00000000000E+00  0.42635130694E+02  0.42635130694E+02  0.00000000000E+00 0. -1.
         21   -1    0    0  501  503 -0.00000000000E+00 -0.00000000000E+00 -0.24301218641E+03  0.24301218641E+03  0.00000000000E+00 0. -1.
         24    1    1    2    0    0  0.33021290287E+02 -0.20003789390E+02 -0.12857068428E+03  0.15648704104E+03  0.80419002446E+02 0. -1.
          1    1    1    2  501    0 -0.67628323845E+02  0.25015864976E+02 -0.43874785272E+02  0.84406045217E+02  0.00000000000E+00 0. -1.
         -2    1    1    2    0  502  0.34607033558E+02 -0.50120755859E+01 -0.27931586168E+02  0.44754230853E+02  0.00000000000E+00 0.  1.
<mgrwt>
<rscale>  2 0.98140599E+02</rscale>
<asrwt>0</asrwt>
<pdfrwt beam="1">  1       21 0.65592508E-02 0.98140599E+02</pdfrwt>
<pdfrwt beam="2">  1       21 0.37386490E-01 0.98140599E+02</pdfrwt>
<totfact> 0.11627730E+06</totfact>
</mgrwt>
</event>
<event>
 5    1  0.1281005E-004  0.2089558E+03  0.7546771E-02  0.1142396E+00
         21   -1    0    0  503  502  0.00000000000E+00  0.00000000000E+00  0.34947158830E+02  0.34947158830E+02  0.00000000000E+00 0. -1.
         21   -1    0    0  501  503 -0.00000000000E+00 -0.00000000000E+00 -0.13133281966E+04  0.13133281966E+04  0.00000000000E+00 0.  1.
         24    1    1    2    0    0 -0.24988605211E+02 -0.12439020189E+03 -0.42359176041E+03  0.44943803595E+03  0.80419002446E+02 0.  0.
          1    1    1    2  501    0  0.90109897996E+02  0.16707974983E+03 -0.70381326038E+03  0.72896401970E+03  0.00000000000E+00 0. -1.
         -2    1    1    2    0  502 -0.65121292785E+02 -0.42689547946E+02 -0.15097601699E+03  0.16987329980E+03  0.00000000000E+00 0.  1.
<mgrwt>
<rscale>  2 0.20895576E+03</rscale>
<asrwt>0</asrwt>
<pdfrwt beam="1">  1       21 0.53764864E-02 0.20895576E+03</pdfrwt>
<pdfrwt beam="2">  1       21 0.20205048E+00 0.20895576E+03</pdfrwt>
<totfact> 0.30622413E+04</totfact>
</mgrwt>
</event>
<event>
 5    1  0.1281005E-004  0.2308589E+03  0.7546771E-02  0.1126037E+00
         21   -1    0    0  501  502  0.00000000000E+00  0.00000000000E+00  0.20316878794E+03  0.20316878794E+03  0.00000000000E+00 0. -1.
         21   -1    0    0  502  503 -0.00000000000E+00 -0.00000000000E+00 -0.28138916973E+03  0.28138916973E+03  0.00000000000E+00 0.  1.
         24    1    1    2    0    0 -0.17691414660E+01 -0.10609170429E+03 -0.77658117661E+02  0.15413169296E+03  0.80419002446E+02 0.  0.
          1    1    1    2  501    0 -0.44252114968E+02  0.21017118447E+03  0.16239307471E+02  0.21539241298E+03  0.00000000000E+00 0. -1.
         -2    1    1    2    0  503  0.46021256434E+02 -0.10407948018E+03 -0.16801571603E+02  0.11503385174E+03  0.00000000000E+00 0.  1.
<mgrwt>
<rscale>  2 0.23085893E+03</rscale>
<asrwt>0</asrwt>
<pdfrwt beam="1">  1       21 0.31256737E-01 0.23085893E+03</pdfrwt>
<pdfrwt beam="2">  1       21 0.43290641E-01 0.23085893E+03</pdfrwt>
<totfact> 0.49566773E+04</totfact>
</mgrwt>
</event>
<event>
 5    1  0.1281005E-004  0.1614796E+03  0.7546771E-02  0.1187036E+00
         21   -1    0    0  501  502  0.00000000000E+00  0.00000000000E+00  0.94038379600E+02  0.94038379600E+02  0.00000000000E+00 0. -1.
         21   -1    0    0  502  503 -0.00000000000E+00 -0.00000000000E+00 -0.27964964772E+03  0.27964964772E+03  0.00000000000E+00 0.  1.
         24    1    1    2    0    0 -0.66601849969E+02 -0.57459818300E+02 -0.82227288923E+02  0.14479634020E+03  0.80419002446E+02 0.  1.
          1    1    1    2  501    0  0.12231133070E+03  0.77240607283E+02 -0.80098451909E+02  0.16535396889E+03  0.00000000000E+00 0. -1.
         -2    1    1    2    0  503 -0.55709480728E+02 -0.19780788983E+02 -0.23285527285E+02  0.63537718221E+02  0.00000000000E+00 0.  1.
<mgrwt>
<rscale>  2 0.16147957E+03</rscale>
<asrwt>0</asrwt>
<pdfrwt beam="1">  1       21 0.14467443E-01 0.16147957E+03</pdfrwt>
<pdfrwt beam="2">  1       21 0.43023022E-01 0.16147957E+03</pdfrwt>
<totfact> 0.21958365E+05</totfact>
</mgrwt>
</event>
<event>
 5    1  0.1281005E-004  0.1730905E+03  0.7546771E-02  0.1174663E+00
         21   -1    0    0  501  502  0.00000000000E+00  0.00000000000E+00  0.73204500039E+02  0.73204500039E+02  0.00000000000E+00 0.  1.
         21   -1    0    0  502  503 -0.00000000000E+00 -0.00000000000E+00 -0.44593131712E+03  0.44593131712E+03  0.00000000000E+00 0. -1.
         24    1    1    2    0    0  0.26580637075E+02 -0.11691261588E+02 -0.16339726165E+03  0.18441555502E+03  0.80419002446E+02 0. -1.
          1    1    1    2  501    0  0.10558207682E+03  0.58215061151E+02 -0.86451155416E+02  0.14835892478E+03  0.00000000000E+00 0. -1.
         -2    1    1    2    0  503 -0.13216271390E+03 -0.46523799564E+02 -0.12287840002E+03  0.18636133736E+03  0.00000000000E+00 0.  1.
<mgrwt>
<rscale>  2 0.17309051E+03</rscale>
<asrwt>0</asrwt>
<pdfrwt beam="1">  1       21 0.11262231E-01 0.17309051E+03</pdfrwt>
<pdfrwt beam="2">  1       21 0.68604818E-01 0.17309051E+03</pdfrwt>
<totfact> 0.12818878E+05</totfact>
</mgrwt>
</event>
<event>
 5    1  0.1281005E-004  0.1234650E+03  0.7546771E-02  0.1237488E+00
         21   -1    0    0  503  502  0.00000000000E+00  0.00000000000E+00  0.20456730297E+03  0.20456730297E+03  0.00000000000E+00 0.  1.
         21   -1    0    0  501  503 -0.00000000000E+00 -0.00000000000E+00 -0.79376500429E+02  0.79376500429E+02  0.00000000000E+00 0. -1.
         24    1    1    2    0    0 -0.22869026423E+02  0.10821871952E+02  0.24291766085E+02  0.87734891212E+02  0.80419002446E+02 0. -1.
          1    1    1    2  501    0  0.92385511921E+02 -0.11549868885E+02  0.32317897542E+02  0.98554192127E+02  0.00000000000E+00 0. -1.
         -2    1    1    2    0  502 -0.69516485498E+02  0.72799693341E+00  0.68581138914E+02  0.97654720061E+02  0.00000000000E+00 0.  1.
<mgrwt>
<rscale>  2 0.12346496E+03</rscale>
<asrwt>0</asrwt>
<pdfrwt beam="1">  1       21 0.31471892E-01 0.12346496E+03</pdfrwt>
<pdfrwt beam="2">  1       21 0.12211769E-01 0.12346496E+03</pdfrwt>
<totfact> 0.55594317E+05</totfact>
</mgrwt>
</event>
<event>
 5    1  0.1281005E-004  0.1595284E+03  0.7546771E-02  0.1189230E+00
         21   -1    0    0  501  502  0.00000000000E+00  0.00000000000E+00  0.22230872300E+02  0.22230872300E+02  0.00000000000E+00 0. -1.
         21   -1    0    0  502  503 -0.00000000000E+00 -0.00000000000E+00 -0.12151185412E+04  0.12151185412E+04  0.00000000000E+00 0.  1.
         24    1    1    2    0    0  0.37775445435E+02  0.73560896224E+02 -0.58103489142E+03  0.59237399566E+03  0.80419002446E+02 0.  1.
          1    1    1    2  501    0 -0.98786934854E+02 -0.96906236446E+02 -0.39829799040E+03  0.42165266075E+03  0.00000000000E+00 0. -1.
         -2    1    1    2    0  503  0.61011489419E+02  0.23345340222E+02 -0.21355478712E+03  0.22332275713E+03  0.00000000000E+00 0.  1.
<mgrwt>
<rscale>  2 0.15952841E+03</rscale>
<asrwt>0</asrwt>
<pdfrwt beam="1">  1       21 0.34201339E-02 0.15952841E+03</pdfrwt>
<pdfrwt beam="2">  1       21 0.18694133E+00 0.15952841E+03</pdfrwt>
<totfact> 0.84826911E+04</totfact>
</mgrwt>
</event>
<event>
 5    1  0.1281005E-004  0.1663603E+03  0.7546771E-02  0.1181697E+00
         21   -1    0    0  503  502  0.00000000000E+00  0.00000000000E+00  0.12727781027E+03  0.12727781027E+03  0.00000000000E+00 0.  1.
         21   -1    0    0  501  503 -0.00000000000E+00 -0.00000000000E+00 -0.21777425094E+03  0.21777425094E+03  0.00000000000E+00 0. -1.
         24    1    1    2    0    0  0.51957812720E+02 -0.21393462490E+02 -0.29093634506E+02  0.10232766030E+03  0.80419002446E+02 0. -1.
          1    1    1    2  501    0 -0.82718878606E+02  0.11182584218E+03 -0.41475182497E+02  0.14514690014E+03  0.00000000000E+00 0. -1.
         -2    1    1    2    0  502  0.30761065886E+02 -0.90432379686E+02 -0.19927623671E+02  0.97577500764E+02  0.00000000000E+00 0.  1.
<mgrwt>
<rscale>  2 0.16636031E+03</rscale>
<asrwt>0</asrwt>
<pdfrwt beam="1">  1       21 0.19581202E-01 0.16636031E+03</pdfrwt>
<pdfrwt beam="2">  1       21 0.33503730E-01 0.16636031E+03</pdfrwt>
<totfact> 0.20759331E+05</totfact>
</mgrwt>
</event>
<event>
 5    1  0.1281005E-004  0.1864548E+03  0.7546771E-02  0.1161698E+00
         21   -1    0    0  501  502  0.00000000000E+00  0.00000000000E+00  0.37596602816E+02  0.37596602816E+02  0.00000000000E+00 0. -1.
         21   -1    0    0  502  503 -0.00000000000E+00 -0.00000000000E+00 -0.93407822510E+03  0.93407822510E+03  0.00000000000E+00 0. -1.
         24    1    1    2    0    0  0.72165245130E+02  0.75124026661E+02 -0.28642220734E+03  0.31520840534E+03  0.80419002446E+02 0. -1.
          1    1    1    2  501    0 -0.14713330614E+03 -0.20506896600E+02 -0.34413806714E+03  0.37483296525E+03  0.00000000000E+00 0. -1.
         -2    1    1    2    0  503  0.74968061006E+02 -0.54617130061E+02 -0.26592134780E+03  0.28163345732E+03  0.00000000000E+00 0.  1.
<mgrwt>
<rscale>  2 0.18645478E+03</rscale>
<asrwt>0</asrwt>
<pdfrwt beam="1">  1       21 0.57840932E-02 0.18645478E+03</pdfrwt>
<pdfrwt beam="2">  1       21 0.14370433E+00 0.18645478E+03</pdfrwt>
<totfact> 0.70420346E+04</totfact>
</mgrwt>
</event>
<event>
 5    1  0.1281005E-004  0.2557204E+03  0.7546771E-02  0.1109742E+00
         21   -1    0    0  501  502  0.00000000000E+00  0.00000000000E+00  0.88253227558E+02  0.88253227558E+02  0.00000000000E+00 0.  1.
         21   -1    0    0  502  503 -0.00000000000E+00 -0.00000000000E+00 -0.80922600353E+03  0.80922600353E+03  0.00000000000E+00 0. -1.
         24    1    1    2    0    0 -0.45582330070E+02 -0.73884797621E+02 -0.13093683160E+03  0.17648904204E+03  0.80419002446E+02 0. -1.
          1    1    1    2  501    0  0.16254418229E+03 -0.94548057553E+02 -0.16966554756E+03  0.25327128619E+03  0.00000000000E+00 0. -1.
         -2    1    1    2    0  503 -0.11696185222E+03  0.16843285517E+03 -0.42037039681E+03  0.46771890286E+03  0.00000000000E+00 0.  1.
<mgrwt>
<rscale>  2 0.25572042E+03</rscale>
<asrwt>0</asrwt>
<pdfrwt beam="1">  1       21 0.13577420E-01 0.25572042E+03</pdfrwt>
<pdfrwt beam="2">  1       21 0.12449631E+00 0.25572042E+03</pdfrwt>
<totfact> 0.21851628E+04</totfact>
</mgrwt>
</event>
<event>
 5    1  0.1281005E-004  0.1213904E+03  0.7546771E-02  0.1240821E+00
         21   -1    0    0  503  502  0.00000000000E+00  0.00000000000E+00  0.20169996452E+02  0.20169996452E+02  0.00000000000E+00 0. -1.
         21   -1    0    0  501  503 -0.00000000000E+00 -0.00000000000E+00 -0.85277486211E+03  0.85277486211E+03  0.00000000000E+00 0.  1.
         24    1    1    2    0    0 -0.30080849295E+02  0.29306896583E+02 -0.17478024876E+03  0.19692410465E+03  0.80419002446E+02 0. -1.
          1    1    1    2  501    0  0.77961351793E+02  0.22863244638E+02 -0.27700828662E+03  0.28867679364E+03  0.00000000000E+00 0. -1.
         -2    1    1    2    0  502 -0.47880502498E+02 -0.52170141220E+02 -0.38081633027E+03  0.38734396027E+03  0.00000000000E+00 0.  1.
<mgrwt>
<rscale>  2 0.12139043E+03</rscale>
<asrwt>0</asrwt>
<pdfrwt beam="1">  1       21 0.31030767E-02 0.12139043E+03</pdfrwt>
<pdfrwt beam="2">  1       21 0.13119612E+00 0.12139043E+03</pdfrwt>
<totfact> 0.25870622E+05</totfact>
</mgrwt>
</event>
<event>
 5    1  0.1281005E-004  0.1789704E+03  0.7546771E-02  0.1168803E+00
         21   -1    0    0  503  502  0.00000000000E+00  0.00000000000E+00  0.40130089579E+03  0.40130089579E+03  0.00000000000E+00 0.  1.
         21   -1    0    0  501  503 -0.00000000000E+00 -0.00000000000E+00 -0.81667641137E+02  0.81667641137E+02  0.00000000000E+00 0. -1.
         24    1    1    2    0    0  0.30800732521E+02  0.26517802212E+02  0.11254967018E+03  0.14417532095E+03  0.80419002446E+02 0.  1.
          1    1    1    2  501    0 -0.27164735087E+02 -0.14589490845E+03  0.12270398772E+03  0.19256042103E+03  0.00000000000E+00 0. -1.
         -2    1    1    2    0  502 -0.36359974344E+01  0.11937710624E+03  0.84379596750E+02  0.14623279495E+03  0.00000000000E+00 0.  1.
<mgrwt>
<rscale>  2 0.17897040E+03</rscale>
<asrwt>0</asrwt>
<pdfrwt beam="1">  1       21 0.61738599E-01 0.17897040E+03</pdfrwt>
<pdfrwt beam="2">  1       21 0.12564253E-01 0.17897040E+03</pdfrwt>
<totfact> 0.13231544E+05</totfact>
</mgrwt>
</event>
<event>
 5    1  0.1281005E-004  0.1178545E+03  0.7546771E-02  0.1246679E+00
         21   -1    0    0  503  502  0.00000000000E+00  0.00000000000E+00  0.57291948705E+02  0.57291948705E+02  0.00000000000E+00 0.  1.
         21   -1    0    0  501  503 -0.00000000000E+00 -0.00000000000E+00 -0.24707675900E+03  0.24707675900E+03  0.00000000000E+00 0. -1.
         24    1    1    2    0    0 -0.30483323488E+02  0.36679043624E+02 -0.55620822516E+02  0.10879097896E+03  0.80419002446E+02 0. -1.
          1    1    1    2  501    0 -0.38357350046E+02  0.28206024960E+02 -0.48292040150E+02  0.67815833612E+02  0.00000000000E+00 0. -1.
         -2    1    1    2    0  502  0.68840673534E+02 -0.64885068583E+02 -0.85871947629E+02  0.12776189513E+03  0.00000000000E+00 0.  1.
<mgrwt>
<rscale>  2 0.11785448E+03</rscale>
<asrwt>0</asrwt>
<pdfrwt beam="1">  1       21 0.88141458E-02 0.11785448E+03</pdfrwt>
<pdfrwt beam="2">  1       21 0.38011810E-01 0.11785448E+03</pdfrwt>
<totfact> 0.67991870E+05</totfact>
</mgrwt>
</event>
<event>
 5    1  0.1281005E-004  0.1645649E+03  0.7546771E-02  0.1183637E+00
         21   -1    0    0  503  502  0.00000000000E+00  0.00000000000E+00  0.37568442933E+03  0.37568442933E+03  0.00000000000E+00 0. -1.
         21   -1    0    0  501  503 -0.00000000000E+00 -0.00000000000E+00 -0.72455925974E+02  0.72455925974E+02  0.00000000000E+00 0.  1.
         24    1    1    2    0    0  0.11769441364E+02 -0.74510835502E+02  0.11385937968E+03  0.15849781908E+03  0.80419002446E+02 0.  0.
          1    1    1    2  501    0  0.54476969132E+02 -0.52476023144E+02  0.72656798835E+02  0.10488319021E+03  0.00000000000E+00 0. -1.
         -2    1    1    2    0  502 -0.66246410496E+02  0.12698685865E+03  0.11671232485E+03  0.18475934603E+03  0.00000000000E+00 0.  1.
<mgrwt>
<rscale>  2 0.16456495E+03</rscale>
<asrwt>0</asrwt>
<pdfrwt beam="1">  1       21 0.57797603E-01 0.16456495E+03</pdfrwt>
<pdfrwt beam="2">  1       21 0.11147066E-01 0.16456495E+03</pdfrwt>
<totfact> 0.18953003E+05</totfact>
</mgrwt>
</event>
<event>
 5    1  0.1281005E-004  0.3971236E+03  0.7546771E-02  0.1044780E+00
         21   -1    0    0  503  502  0.00000000000E+00  0.00000000000E+00  0.20731149449E+03  0.20731149449E+03  0.00000000000E+00 0. -1.
         21   -1    0    0  501  503 -0.00000000000E+00 -0.00000000000E+00 -0.77649664106E+03  0.77649664106E+03  0.00000000000E+00 0.  1.
         24    1    1    2    0    0 -0.10387969148E+03 -0.26575381423E+02 -0.91000304605E+02  0.16200466843E+03  0.80419002446E+02 0. -1.
          1    1    1    2  501    0  0.29667685239E+03 -0.20370793741E+03 -0.32381694428E+03  0.48411929512E+03  0.00000000000E+00 0. -1.
         -2    1    1    2    0  502 -0.19279716090E+03  0.23028331883E+03 -0.15436789768E+03  0.33768417200E+03  0.00000000000E+00 0.  1.
<mgrwt>
<rscale>  2 0.39712363E+03</rscale>
<asrwt>0</asrwt>
<pdfrwt beam="1">  1       21 0.31894077E-01 0.39712363E+03</pdfrwt>
<pdfrwt beam="2">  1       21 0.11946102E+00 0.39712363E+03</pdfrwt>
<totfact> 0.44988478E+03</totfact>
</mgrwt>
</event>
<event>
 5    1  0.1281005E-004  0.3712593E+03  0.7546771E-02  0.1054212E+00
         21   -1    0    0  503  502  0.00000000000E+00  0.00000000000E+00  0.14162093594E+03  0.14162093594E+03  0.00000000000E+00 0. -1.
         21   -1    0    0  501  503 -0.00000000000E+00 -0.00000000000E+00 -0.10991914266E+04  0.10991914266E+04  0.00000000000E+00 0.  1.
         24    1    1    2    0    0  0.11910748016E+03  0.75776050117E+02 -0.30703853006E+03  0.34737368424E+03  0.80419002446E+02 0.  1.
          1    1    1    2  501    0 -0.20001662615E+03 -0.28929992790E+03 -0.24698760153E+03  0.42977200273E+03  0.00000000000E+00 0. -1.
         -2    1    1    2    0  502  0.80909145991E+02  0.21352387779E+03 -0.40354435905E+03  0.46366667555E+03  0.00000000000E+00 0.  1.
<mgrwt>
<rscale>  2 0.37125932E+03</rscale>
<asrwt>0</asrwt>
<pdfrwt beam="1">  1       21 0.21787836E-01 0.37125932E+03</pdfrwt>
<pdfrwt beam="2">  1       21 0.16910638E+00 0.37125932E+03</pdfrwt>
<totfact> 0.37933711E+03</totfact>
</mgrwt>
</event>
<event>
 5    1  0.1281005E-004  0.1541424E+03  0.7546771E-02  0.1195473E+00
         21   -1    0    0  501  502  0.00000000000E+00  0.00000000000E+00  0.21462277937E+03  0.21462277937E+03  0.00000000000E+00 0. -1.
         21   -1    0    0  502  503 -0.00000000000E+00 -0.00000000000E+00 -0.12877299949E+03  0.12877299949E+03  0.00000000000E+00 0. -1.
         24    1    1    2    0    0 -0.65107077632E+02 -0.55560727750E+02 -0.23442048980E+02  0.11976089362E+03  0.80419002446E+02 0. -1.
          1    1    1    2  501    0  0.10435042549E+03  0.90628382293E+02  0.98997362970E+02  0.17000880228E+03  0.00000000000E+00 0. -1.
         -2    1    1    2    0  503 -0.39243347855E+02 -0.35067654543E+02  0.10294465890E+02  0.53626082963E+02  0.00000000000E+00 0.  1.
<mgrwt>
<rscale>  2 0.15414238E+03</rscale>
<asrwt>0</asrwt>
<pdfrwt beam="1">  1       21 0.33018889E-01 0.15414238E+03</pdfrwt>
<pdfrwt beam="2">  1       21 0.19811231E-01 0.15414238E+03</pdfrwt>
<totfact> 0.20972385E+05</totfact>
</mgrwt>
</event>
<event>
 5    1  0.1281005E-004  0.1669233E+03  0.7546771E-02  0.1181095E+00
         21   -1    0    0  501  502  0.00000000000E+00  0.00000000000E+00  0.41139670063E+02  0.41139670063E+02  0.00000000000E+00 0.  1.
         21   -1    0    0  502  503 -0.00000000000E+00 -0.00000000000E+00 -0.68147323448E+03  0.68147323448E+03  0.00000000000E+00 0. -1.
         24    1    1    2    0    0 -0.44108946268E+02 -0.20564559133E+02 -0.15609338820E+03  0.18221103706E+03  0.80419002446E+02 0.  0.
          1    1    1    2  501    0 -0.97310299549E+02  0.13616533810E+02 -0.19362964012E+03  0.21713392624E+03  0.00000000000E+00 0. -1.
         -2    1    1    2    0  503  0.14141924582E+03  0.69480253235E+01 -0.29061053610E+03  0.32326794124E+03  0.00000000000E+00 0.  1.
<mgrwt>
<rscale>  2 0.16692333E+03</rscale>
<asrwt>0</asrwt>
<pdfrwt beam="1">  1       21 0.63291802E-02 0.16692333E+03</pdfrwt>
<pdfrwt beam="2">  1       21 0.10484203E+00 0.16692333E+03</pdfrwt>
<totfact> 0.13326364E+05</totfact>
</mgrwt>
</event>
<event>
 5    1  0.1281005E-004  0.1578327E+03  0.7546771E-02  0.1191166E+00
         21   -1    0    0  501  502  0.00000000000E+00  0.00000000000E+00  0.43806943528E+03  0.43806943528E+03  0.00000000000E+00 0. -1.
         21   -1    0    0  502  503 -0.00000000000E+00 -0.00000000000E+00 -0.79783247323E+02  0.79783247323E+02  0.00000000000E+00 0.  1.
         24    1    1    2    0    0 -0.88630634892E+02  0.83710284780E+01  0.28143354567E+02  0.12322632803E+03  0.80419002446E+02 0.  1.
          1    1    1    2  501    0  0.11073407588E+03  0.58520856505E+02  0.28405343182E+03  0.31044013647E+03  0.00000000000E+00 0. -1.
         -2    1    1    2    0  503 -0.22103440992E+02 -0.66891884983E+02  0.46089401573E+02  0.84186218098E+02  0.00000000000E+00 0.  1.
<mgrwt>
<rscale>  2 0.15783267E+03</rscale>
<asrwt>0</asrwt>
<pdfrwt beam="1">  1       21 0.67395297E-01 0.15783267E+03</pdfrwt>
<pdfrwt beam="2">  1       21 0.12274346E-01 0.15783267E+03</pdfrwt>
<totfact> 0.11501675E+05</totfact>
</mgrwt>
</event>
<event>
 5    1  0.1281005E-004  0.1467578E+03  0.7546771E-02  0.1204515E+00
         21   -1    0    0  501  502  0.00000000000E+00  0.00000000000E+00  0.23306479042E+04  0.23306479042E+04  0.00000000000E+00 0.  1.
         21   -1    0    0  502  503 -0.00000000000E+00 -0.00000000000E+00 -0.10152215056E+02  0.10152215056E+02  0.00000000000E+00 0. -1.
         24    1    1    2    0    0  0.48513280343E+02  0.65204904557E+02  0.10261671077E+04  0.10325170056E+04  0.80419002446E+02 0. -1.
          1    1    1    2  501    0  0.17969371362E+02  0.46130148700E+02  0.59330867262E+03  0.59537053163E+03  0.00000000000E+00 0. -1.
         -2    1    1    2    0  503 -0.66482651706E+02 -0.11133505326E+03  0.70101990879E+03  0.71291258201E+03  0.00000000000E+00 0.  1.
<mgrwt>
<rscale>  2 0.14675777E+03</rscale>
<asrwt>0</asrwt>
<pdfrwt beam="1">  1       21 0.35856079E+00 0.14675777E+03</pdfrwt>
<pdfrwt beam="2">  1       21 0.15618811E-02 0.14675777E+03</pdfrwt>
<totfact> 0.30232995E+04</totfact>
</mgrwt>
</event>
<event>
 5    1  0.8180184E-004  0.3503383E+03  0.7546771E-02  0.1062476E+00
         21   -1    0    0  503  502  0.00000000000E+00  0.00000000000E+00  0.87194809310E+03  0.87194809310E+03  0.00000000000E+00 0. -1.
         21   -1    0    0  501  503 -0.00000000000E+00 -0.00000000000E+00 -0.17724420254E+03  0.17724420254E+03  0.00000000000E+00 0.  1.
         24    1    1    2    0    0 -0.47431810403E+02  0.22766610599E+02  0.28485222012E+02  0.10023332292E+03  0.80419002446E+02 0.  1.
          1    1    1    2  501    0 -0.25523806295E+03 -0.12618369031E+03  0.52932762303E+03  0.60104619205E+03  0.00000000000E+00 0. -1.
         -2    1    1    2    0  502  0.30266987335E+03  0.10341707971E+03  0.13689104552E+03  0.34791278067E+03  0.00000000000E+00 0.  1.
<mgrwt>
<rscale>  2 0.35033827E+03</rscale>
<asrwt>0</asrwt>
<pdfrwt beam="1">  1       21 0.13414586E+00 0.35033827E+03</pdfrwt>
<pdfrwt beam="2">  1       21 0.27268339E-01 0.35033827E+03</pdfrwt>
<totfact> 0.46454642E+03</totfact>
</mgrwt>
</event>
<event>
 5    1  0.1281005E-004  0.1712838E+03  0.7546771E-02  0.1176516E+00
         21   -1    0    0  501  502  0.00000000000E+00  0.00000000000E+00  0.40758025476E+03  0.40758025476E+03  0.00000000000E+00 0. -1.
         21   -1    0    0  502  503 -0.00000000000E+00 -0.00000000000E+00 -0.74541258739E+02  0.74541258739E+02  0.00000000000E+00 0.  1.
         24    1    1    2    0    0  0.42266906233E+02 -0.17124859317E+02  0.57235991390E+02  0.10873328301E+03  0.80419002446E+02 0.  1.
          1    1    1    2  501    0  0.67539840175E+02  0.94236220343E+02  0.10714542536E+03  0.15786778459E+03  0.00000000000E+00 0. -1.
         -2    1    1    2    0  503 -0.10980674641E+03 -0.77111361026E+02  0.16865757928E+03  0.21552044591E+03  0.00000000000E+00 0.  1.
<mgrwt>
<rscale>  2 0.17128384E+03</rscale>
<asrwt>0</asrwt>
<pdfrwt beam="1">  1       21 0.62704653E-01 0.17128384E+03</pdfrwt>
<pdfrwt beam="2">  1       21 0.11467886E-01 0.17128384E+03</pdfrwt>
<totfact> 0.15102334E+05</totfact>
</mgrwt>
</event>
<event>
 5    1  0.1281005E-004  0.2024617E+03  0.7546771E-02  0.1147679E+00
         21   -1    0    0  501  502  0.00000000000E+00  0.00000000000E+00  0.17318414998E+03  0.17318414998E+03  0.00000000000E+00 0.  1.
         21   -1    0    0  502  503 -0.00000000000E+00 -0.00000000000E+00 -0.25200197240E+03  0.25200197240E+03  0.00000000000E+00 0. -1.
         24    1    1    2    0    0 -0.34715214420E+01  0.91894155816E+02  0.15876382017E+02  0.12319035187E+03  0.80419002446E+02 0.  0.
          1    1    1    2  501    0  0.51248742191E+02 -0.17748594438E+03 -0.37493127708E+02  0.18850312638E+03  0.00000000000E+00 0. -1.
         -2    1    1    2    0  503 -0.47777220749E+02  0.85591788564E+02 -0.57201076730E+02  0.11349264413E+03  0.00000000000E+00 0.  1.
<mgrwt>
<rscale>  2 0.20246170E+03</rscale>
<asrwt>0</asrwt>
<pdfrwt beam="1">  1       21 0.26643715E-01 0.20246170E+03</pdfrwt>
<pdfrwt beam="2">  1       21 0.38769534E-01 0.20246170E+03</pdfrwt>
<totfact> 0.85654687E+04</totfact>
</mgrwt>
</event>
<event>
 5    1  0.1281005E-004  0.1656838E+03  0.7546771E-02  0.1182425E+00
         21   -1    0    0  501  502  0.00000000000E+00  0.00000000000E+00  0.62060044623E+03  0.62060044623E+03  0.00000000000E+00 0.  1.
         21   -1    0    0  502  503 -0.00000000000E+00 -0.00000000000E+00 -0.44404636678E+02  0.44404636678E+02  0.00000000000E+00 0. -1.
         24    1    1    2    0    0 -0.19265756523E+02  0.22782471856E+02  0.16779783046E+03  0.18845036020E+03  0.80419002446E+02 0. -1.
          1    1    1    2  501    0  0.40700544866E+02  0.10677725859E+03  0.19006752030E+03  0.22177371255E+03  0.00000000000E+00 0. -1.
         -2    1    1    2    0  503 -0.21434788343E+02 -0.12955973044E+03  0.21833045879E+03  0.25478101016E+03  0.00000000000E+00 0.  1.
<mgrwt>
<rscale>  2 0.16568378E+03</rscale>
<asrwt>0</asrwt>
<pdfrwt beam="1">  1       21 0.95476985E-01 0.16568378E+03</pdfrwt>
<pdfrwt beam="2">  1       21 0.68314830E-02 0.16568378E+03</pdfrwt>
<totfact> 0.14588924E+05</totfact>
</mgrwt>
</event>
<event>
 5    1  0.1281005E-004  0.2823973E+03  0.7546771E-02  0.1094387E+00
         21   -1    0    0  501  502  0.00000000000E+00  0.00000000000E+00  0.13682785385E+03  0.13682785385E+03  0.00000000000E+00 0.  1.
         21   -1    0    0  502  503 -0.00000000000E+00 -0.00000000000E+00 -0.58897419593E+03  0.58897419593E+03  0.00000000000E+00 0. -1.
         24    1    1    2    0    0  0.25790110790E+02  0.63005293005E+02 -0.92359329599E+02  0.14011516149E+03  0.80419002446E+02 0.  0.
          1    1    1    2  501    0 -0.24842657169E+02 -0.26062513240E+03 -0.17330556002E+03  0.31397043553E+03  0.00000000000E+00 0. -1.
         -2    1    1    2    0  503 -0.94745362151E+00  0.19761983939E+03 -0.18648145246E+03  0.27171645276E+03  0.00000000000E+00 0.  1.
<mgrwt>
<rscale>  2 0.28239732E+03</rscale>
<asrwt>0</asrwt>
<pdfrwt beam="1">  1       21 0.21050439E-01 0.28239732E+03</pdfrwt>
<pdfrwt beam="2">  1       21 0.90611417E-01 0.28239732E+03</pdfrwt>
<totfact> 0.20704139E+04</totfact>
</mgrwt>
</event>
<event>
 5    1  0.1281005E-004  0.2302645E+03  0.7546771E-02  0.1126454E+00
         21   -1    0    0  501  502  0.00000000000E+00  0.00000000000E+00  0.56307598298E+02  0.56307598298E+02  0.00000000000E+00 0. -1.
         21   -1    0    0  502  503 -0.00000000000E+00 -0.00000000000E+00 -0.13163800460E+04  0.13163800460E+04  0.00000000000E+00 0.  1.
         24    1    1    2    0    0  0.81572565046E+02  0.55947633855E+02 -0.74553916338E+03  0.75635975646E+03  0.80419002446E+02 0.  1.
          1    1    1    2  501    0 -0.12706317881E+03 -0.16885423810E+03 -0.26721647892E+03  0.34067792963E+03  0.00000000000E+00 0. -1.
         -2    1    1    2    0  503  0.45490613767E+02  0.11290660425E+03 -0.24731680540E+03  0.27564995820E+03  0.00000000000E+00 0.  1.
<mgrwt>
<rscale>  2 0.23026451E+03</rscale>
<asrwt>0</asrwt>
<pdfrwt beam="1">  1       21 0.86627079E-02 0.23026451E+03</pdfrwt>
<pdfrwt beam="2">  1       21 0.20252000E+00 0.23026451E+03</pdfrwt>
<totfact> 0.13127160E+04</totfact>
</mgrwt>
</event>
<event>
 5    1  0.1281005E-004  0.1063774E+03  0.7546771E-02  0.1267429E+00
         21   -1    0    0  503  502  0.00000000000E+00  0.00000000000E+00  0.66551382374E+01  0.66551382374E+01  0.00000000000E+00 0. -1.
         21   -1    0    0  501  503 -0.00000000000E+00 -0.00000000000E+00 -0.17307448681E+04  0.17307448681E+04  0.00000000000E+00 0.  1.
         24    1    1    2    0    0 -0.46272964141E+02 -0.94486792222E+01 -0.67954815630E+03  0.68591790867E+03  0.80419002446E+02 0.  0.
          1    1    1    2  501    0 -0.33188437914E+02 -0.14907915325E+02 -0.38769793200E+03  0.38940134158E+03  0.00000000000E+00 0. -1.
         -2    1    1    2    0  502  0.79461402055E+02  0.24356594547E+02 -0.65684364158E+03  0.66208075610E+03  0.00000000000E+00 0.  1.
<mgrwt>
<rscale>  2 0.10637741E+03</rscale>
<asrwt>0</asrwt>
<pdfrwt beam="1">  1       21 0.10238661E-02 0.10637741E+03</pdfrwt>
<pdfrwt beam="2">  1       21 0.26626877E+00 0.10637741E+03</pdfrwt>
<totfact> 0.20644127E+05</totfact>
</mgrwt>
</event>
<event>
 5    1  0.1281005E-004  0.1890287E+03  0.7546771E-02  0.1159340E+00
         21   -1    0    0  501  502  0.00000000000E+00  0.00000000000E+00  0.35127078839E+03  0.35127078839E+03  0.00000000000E+00 0.  1.
         21   -1    0    0  502  503 -0.00000000000E+00 -0.00000000000E+00 -0.10651572117E+03  0.10651572117E+03  0.00000000000E+00 0.  1.
         24    1    1    2    0    0 -0.49486900404E+02 -0.77884436590E+02  0.44745190854E+02  0.13032377693E+03  0.80419002446E+02 0.  1.
          1    1    1    2  501    0 -0.83362691835E+01 -0.83660081789E+02  0.92417602431E+02  0.12493804828E+03  0.00000000000E+00 0. -1.
         -2    1    1    2    0  503  0.57823169587E+02  0.16154451838E+03  0.10759227393E+03  0.20252468435E+03  0.00000000000E+00 0.  1.
<mgrwt>
<rscale>  2 0.18902866E+03</rscale>
<asrwt>0</asrwt>
<pdfrwt beam="1">  1       21 0.54041659E-01 0.18902866E+03</pdfrwt>
<pdfrwt beam="2">  1       21 0.16387034E-01 0.18902866E+03</pdfrwt>
<totfact> 0.10818479E+05</totfact>
</mgrwt>
</event>
<event>
 5    1  0.1281005E-004  0.2134417E+03  0.7546771E-02  0.1138869E+00
         21   -1    0    0  501  502  0.00000000000E+00  0.00000000000E+00  0.20927249620E+03  0.20927249620E+03  0.00000000000E+00 0.  1.
         21   -1    0    0  502  503 -0.00000000000E+00 -0.00000000000E+00 -0.30135611442E+03  0.30135611442E+03  0.00000000000E+00 0. -1.
         24    1    1    2    0    0 -0.43723495516E+02  0.13074371082E+03 -0.14539092192E+03  0.21589673020E+03  0.80419002446E+02 0.  0.
          1    1    1    2  501    0 -0.40624743634E+02  0.52013471946E+02 -0.35258171409E+02  0.74825862577E+02  0.00000000000E+00 0. -1.
         -2    1    1    2    0  503  0.84348239150E+02 -0.18275718277E+03  0.88565475113E+02  0.21990601784E+03  0.00000000000E+00 0.  1.
<mgrwt>
<rscale>  2 0.21344172E+03</rscale>
<asrwt>0</asrwt>
<pdfrwt beam="1">  1       21 0.32195769E-01 0.21344172E+03</pdfrwt>
<pdfrwt beam="2">  1       21 0.46362479E-01 0.21344172E+03</pdfrwt>
<totfact> 0.40927300E+04</totfact>
</mgrwt>
</event>
<event>
 5    1  0.1281005E-004  0.1785689E+03  0.7546771E-02  0.1169195E+00
         21   -1    0    0  503  502  0.00000000000E+00  0.00000000000E+00  0.14196281555E+03  0.14196281555E+03  0.00000000000E+00 0.  1.
         21   -1    0    0  501  503 -0.00000000000E+00 -0.00000000000E+00 -0.23904442217E+03  0.23904442217E+03  0.00000000000E+00 0. -1.
         24    1    1    2    0    0 -0.30866511044E+02 -0.58665425149E+01  0.90325608749E+01  0.86809912656E+02  0.80419002446E+02 0.  1.
          1    1    1    2  501    0  0.46855840649E+02  0.13385334913E+03 -0.31800957434E+02  0.14533922310E+03  0.00000000000E+00 0. -1.
         -2    1    1    2    0  502 -0.15989329605E+02 -0.12798680662E+03 -0.74313210062E+02  0.14885810196E+03  0.00000000000E+00 0.  1.
<mgrwt>
<rscale>  2 0.17856894E+03</rscale>
<asrwt>0</asrwt>
<pdfrwt beam="1">  1       21 0.21840433E-01 0.17856894E+03</pdfrwt>
<pdfrwt beam="2">  1       21 0.36776064E-01 0.17856894E+03</pdfrwt>
<totfact> 0.14020103E+05</totfact>
</mgrwt>
</event>
<event>
 5    1  0.1281005E-004  0.2552809E+03  0.7546771E-02  0.1110012E+00
         21   -1    0    0  503  502  0.00000000000E+00  0.00000000000E+00  0.41358215871E+03  0.41358215871E+03  0.00000000000E+00 0.  1.
         21   -1    0    0  501  503 -0.00000000000E+00 -0.00000000000E+00 -0.16317490900E+03  0.16317490900E+03  0.00000000000E+00 0. -1.
         24    1    1    2    0    0 -0.10381468792E+03  0.25625846671E+02  0.26473896459E+02  0.13639008979E+03  0.80419002446E+02 0.  1.
          1    1    1    2  501    0 -0.13481618417E+03  0.11324521872E+02  0.57000119291E+02  0.14680824878E+03  0.00000000000E+00 0. -1.
         -2    1    1    2    0  502  0.23863087209E+03 -0.36950368543E+02  0.16693323396E+03  0.29355872913E+03  0.00000000000E+00 0.  1.
<mgrwt>
<rscale>  2 0.25528087E+03</rscale>
<asrwt>0</asrwt>
<pdfrwt beam="1">  1       21 0.63628024E-01 0.25528087E+03</pdfrwt>
<pdfrwt beam="2">  1       21 0.25103832E-01 0.25528087E+03</pdfrwt>
<totfact> 0.33275983E+04</totfact>
</mgrwt>
</event>
<event>
 5    1  0.1281005E-004  0.1752894E+03  0.7546771E-02  0.1172441E+00
         21   -1    0    0  501  502  0.00000000000E+00  0.00000000000E+00  0.44136836628E+02  0.44136836628E+02  0.00000000000E+00 0. -1.
         21   -1    0    0  502  503 -0.00000000000E+00 -0.00000000000E+00 -0.72890536851E+03  0.72890536851E+03  0.00000000000E+00 0. -1.
         24    1    1    2    0    0  0.13472273286E+03 -0.48928407994E+02 -0.24075294558E+03  0.29150197361E+03  0.80419002446E+02 0. -1.
          1    1    1    2  501    0 -0.15718362389E+03  0.44107928869E+02 -0.39504549960E+03  0.42744958505E+03  0.00000000000E+00 0. -1.
         -2    1    1    2    0  503  0.22460891025E+02  0.48204791257E+01 -0.48970086693E+02  0.54090646468E+02  0.00000000000E+00 0.  1.
<mgrwt>
<rscale>  2 0.17528944E+03</rscale>
<asrwt>0</asrwt>
<pdfrwt beam="1">  1       21 0.67902823E-02 0.17528944E+03</pdfrwt>
<pdfrwt beam="2">  1       21 0.11213929E+00 0.17528944E+03</pdfrwt>
<totfact> 0.10010808E+05</totfact>
</mgrwt>
</event>
<event>
 5    1  0.1281005E-004  0.1136295E+03  0.7546771E-02  0.1253993E+00
         21   -1    0    0  501  502  0.00000000000E+00  0.00000000000E+00  0.11063578964E+04  0.11063578964E+04  0.00000000000E+00 0. -1.
         21   -1    0    0  502  503 -0.00000000000E+00 -0.00000000000E+00 -0.12137124773E+02  0.12137124773E+02  0.00000000000E+00 0.  1.
         24    1    1    2    0    0  0.54637940307E+02 -0.18622951658E+00  0.57426624248E+03  0.58243821338E+03  0.80419002446E+02 0.  0.
          1    1    1    2  501    0  0.34544617585E+02 -0.18096221756E+02  0.17490202565E+03  0.17919688174E+03  0.00000000000E+00 0. -1.
         -2    1    1    2    0  503 -0.89182557891E+02  0.18282451273E+02  0.34505250346E+03  0.35685992602E+03  0.00000000000E+00 0.  1.
<mgrwt>
<rscale>  2 0.11362948E+03</rscale>
<asrwt>0</asrwt>
<pdfrwt beam="1">  1       21 0.17020883E+00 0.11362948E+03</pdfrwt>
<pdfrwt beam="2">  1       21 0.18672508E-02 0.11362948E+03</pdfrwt>
<totfact> 0.30193334E+05</totfact>
</mgrwt>
</event>
<event>
 5    1  0.1281005E-004  0.2818238E+03  0.7546771E-02  0.1094697E+00
         21   -1    0    0  503  502  0.00000000000E+00  0.00000000000E+00  0.72694654943E+03  0.72694654943E+03  0.00000000000E+00 0. -1.
         21   -1    0    0  501  503 -0.00000000000E+00 -0.00000000000E+00 -0.11436479808E+03  0.11436479808E+03  0.00000000000E+00 0.  1.
         24    1    1    2    0    0  0.12474944906E+03  0.56142059492E+02  0.12646499941E+03  0.20291615982E+03  0.80419002446E+02 0.  1.
          1    1    1    2  501    0 -0.17475734080E+03 -0.19233846648E+03  0.24595428750E+03  0.35780962171E+03  0.00000000000E+00 0. -1.
         -2    1    1    2    0  502  0.50007891742E+02  0.13619640698E+03  0.24016246443E+03  0.28058556598E+03  0.00000000000E+00 0.  1.
<mgrwt>
<rscale>  2 0.28182376E+03</rscale>
<asrwt>0</asrwt>
<pdfrwt beam="1">  1       21 0.11183793E+00 0.28182376E+03</pdfrwt>
<pdfrwt beam="2">  1       21 0.17594585E-01 0.28182376E+03</pdfrwt>
<totfact> 0.17492280E+04</totfact>
</mgrwt>
</event>
<event>
 5    1  0.2290814E-004  0.3885164E+03  0.7546771E-02  0.1047830E+00
         21   -1    0    0  503  502  0.00000000000E+00  0.00000000000E+00  0.14243392648E+03  0.14243392648E+03  0.00000000000E+00 0. -1.
         21   -1    0    0  501  503 -0.00000000000E+00 -0.00000000000E+00 -0.10678454811E+04  0.10678454811E+04  0.00000000000E+00 0.  1.
         24    1    1    2    0    0  0.33675785394E+02  0.12823717856E+02 -0.10840129963E+03  0.13970169640E+03  0.80419002446E+02 0. -1.
          1    1    1    2  501    0 -0.62626746478E+02 -0.34744197248E+03 -0.46773343850E+03  0.58601416630E+03  0.00000000000E+00 0. -1.
         -2    1    1    2    0  502  0.28950961083E+02  0.33461825462E+03 -0.34927681649E+03  0.48456354486E+03  0.00000000000E+00 0.  1.
<mgrwt>
<rscale>  2 0.38851639E+03</rscale>
<asrwt>0</asrwt>
<pdfrwt beam="1">  1       21 0.21912912E-01 0.38851639E+03</pdfrwt>
<pdfrwt beam="2">  1       21 0.16428392E+00 0.38851639E+03</pdfrwt>
<totfact> 0.40381075E+03</totfact>
</mgrwt>
</event>
<event>
 5    1  0.1281005E-004  0.1411771E+03  0.7546771E-02  0.1211754E+00
         21   -1    0    0  503  502  0.00000000000E+00  0.00000000000E+00  0.48554266788E+02  0.48554266788E+02  0.00000000000E+00 0.  1.
         21   -1    0    0  501  503 -0.00000000000E+00 -0.00000000000E+00 -0.42598338962E+03  0.42598338962E+03  0.00000000000E+00 0.  1.
         24    1    1    2    0    0 -0.41278993053E+02  0.62337260808E+02 -0.19088722664E+03  0.22021589090E+03  0.80419002446E+02 0.  1.
          1    1    1    2  501    0  0.61305845146E+01  0.52293126684E+02 -0.49996389321E+02  0.72607121620E+02  0.00000000000E+00 0. -1.
         -2    1    1    2    0  502  0.35148408538E+02 -0.11463038749E+03 -0.13654550687E+03  0.18171464389E+03  0.00000000000E+00 0.  1.
<mgrwt>
<rscale>  2 0.14117707E+03</rscale>
<asrwt>0</asrwt>
<pdfrwt beam="1">  1       21 0.74698873E-02 0.14117707E+03</pdfrwt>
<pdfrwt beam="2">  1       21 0.65535905E-01 0.14117707E+03</pdfrwt>
<totfact> 0.29293443E+05</totfact>
</mgrwt>
</event>
<event>
 5    1  0.1281005E-004  0.1194919E+03  0.7546771E-02  0.1243938E+00
         21   -1    0    0  501  502  0.00000000000E+00  0.00000000000E+00  0.18521680164E+02  0.18521680164E+02  0.00000000000E+00 0. -1.
         21   -1    0    0  502  503 -0.00000000000E+00 -0.00000000000E+00 -0.99641548123E+03  0.99641548123E+03  0.00000000000E+00 0. -1.
         24    1    1    2    0    0 -0.21665481218E+02 -0.74579179370E+02 -0.52443989901E+03  0.53622371330E+03  0.80419002446E+02 0. -1.
          1    1    1    2  501    0 -0.88566365149E+01  0.91742808906E+02 -0.17244536716E+03  0.19553155155E+03  0.00000000000E+00 0. -1.
         -2    1    1    2    0  503  0.30522117733E+02 -0.17163629537E+02 -0.28100853489E+03  0.28318189654E+03  0.00000000000E+00 0.  1.
<mgrwt>
<rscale>  2 0.11949187E+03</rscale>
<asrwt>0</asrwt>
<pdfrwt beam="1">  1       21 0.28494888E-02 0.11949187E+03</pdfrwt>
<pdfrwt beam="2">  1       21 0.15329471E+00 0.11949187E+03</pdfrwt>
<totfact> 0.20039645E+05</totfact>
</mgrwt>
</event>
<event>
 5    1  0.1281005E-004  0.1465431E+03  0.7546771E-02  0.1204786E+00
         21   -1    0    0  503  502  0.00000000000E+00  0.00000000000E+00  0.14389443425E+03  0.14389443425E+03  0.00000000000E+00 0. -1.
         21   -1    0    0  501  503 -0.00000000000E+00 -0.00000000000E+00 -0.16078142678E+03  0.16078142678E+03  0.00000000000E+00 0.  1.
         24    1    1    2    0    0  0.18435789605E+01  0.19499963249E-01 -0.12091789102E+02  0.81343877961E+02  0.80419002446E+02 0.  0.
          1    1    1    2  501    0 -0.88841994462E+02  0.59776147318E+02  0.31637373313E+02  0.11165577082E+03  0.00000000000E+00 0. -1.
         -2    1    1    2    0  502  0.86998415501E+02 -0.59795647282E+02 -0.36432576736E+02  0.11167621224E+03  0.00000000000E+00 0.  1.
<mgrwt>
<rscale>  2 0.14654313E+03</rscale>
<asrwt>0</asrwt>
<pdfrwt beam="1">  1       21 0.22137605E-01 0.14654313E+03</pdfrwt>
<pdfrwt beam="2">  1       21 0.24735604E-01 0.14654313E+03</pdfrwt>
<totfact> 0.29786731E+05</totfact>
</mgrwt>
</event>
<event>
 5    1  0.1281005E-004  0.1585429E+03  0.7546771E-02  0.1190352E+00
         21   -1    0    0  503  502  0.00000000000E+00  0.00000000000E+00  0.65437939843E+02  0.65437939843E+02  0.00000000000E+00 0. -1.
         21   -1    0    0  501  503 -0.00000000000E+00 -0.00000000000E+00 -0.41054546595E+03  0.41054546595E+03  0.00000000000E+00 0.  1.
         24    1    1    2    0    0  0.40027573079E+02  0.10581696404E+03 -0.20668062510E+03  0.24896492369E+03  0.80419002446E+02 0.  1.
          1    1    1    2  501    0 -0.36774282441E+02 -0.13958963602E+03 -0.99190072884E+02  0.17514646697E+03  0.00000000000E+00 0. -1.
         -2    1    1    2    0  502 -0.32532906378E+01  0.33772671980E+02 -0.39236828122E+02  0.51872015131E+02  0.00000000000E+00 0.  1.
<mgrwt>
<rscale>  2 0.15854288E+03</rscale>
<asrwt>0</asrwt>
<pdfrwt beam="1">  1       21 0.10067376E-01 0.15854288E+03</pdfrwt>
<pdfrwt beam="2">  1       21 0.63160840E-01 0.15854288E+03</pdfrwt>
<totfact> 0.18800981E+05</totfact>
</mgrwt>
</event>
<event>
 5    1  0.1281005E-004  0.1400446E+03  0.7546771E-02  0.1213269E+00
         21   -1    0    0  503  502  0.00000000000E+00  0.00000000000E+00  0.15582183304E+03  0.15582183304E+03  0.00000000000E+00 0.  1.
         21   -1    0    0  501  503 -0.00000000000E+00 -0.00000000000E+00 -0.13316780947E+03  0.13316780947E+03  0.00000000000E+00 0.  1.
         24    1    1    2    0    0 -0.14183952934E+02 -0.24799039154E+02 -0.23902784413E+02  0.88626948051E+02  0.80419002446E+02 0.  1.
          1    1    1    2  501    0 -0.89467536134E+02  0.13515637455E+02  0.17954296844E+02  0.92246784512E+02  0.00000000000E+00 0. -1.
         -2    1    1    2    0  502  0.10365148907E+03  0.11283401700E+02  0.28602511142E+02  0.10811590995E+03  0.00000000000E+00 0.  1.
<mgrwt>
<rscale>  2 0.14004465E+03</rscale>
<asrwt>0</asrwt>
<pdfrwt beam="1">  1       21 0.23972590E-01 0.14004465E+03</pdfrwt>
<pdfrwt beam="2">  1       21 0.20487355E-01 0.14004465E+03</pdfrwt>
<totfact> 0.36554456E+05</totfact>
</mgrwt>
</event>
<event>
 5    1  0.1281005E-004  0.5403364E+03  0.7546771E-02  0.1003756E+00
         21   -1    0    0  501  502  0.00000000000E+00  0.00000000000E+00  0.51816389467E+03  0.51816389467E+03  0.00000000000E+00 0.  1.
         21   -1    0    0  502  503 -0.00000000000E+00 -0.00000000000E+00 -0.56769565773E+03  0.56769565773E+03  0.00000000000E+00 0. -1.
         24    1    1    2    0    0  0.20449387811E+03 -0.31677297626E+03 -0.60540776394E+01  0.38557325177E+03  0.80419002446E+02 0.  1.
          1    1    1    2  501    0 -0.38060785931E+03  0.34866570453E+03 -0.28062389760E+00  0.51616876584E+03  0.00000000000E+00 0. -1.
         -2    1    1    2    0  503  0.17611398120E+03 -0.31892728272E+02 -0.43197061517E+02  0.18411753478E+03  0.00000000000E+00 0.  1.
<mgrwt>
<rscale>  2 0.54033642E+03</rscale>
<asrwt>0</asrwt>
<pdfrwt beam="1">  1       21 0.79717523E-01 0.54033642E+03</pdfrwt>
<pdfrwt beam="2">  1       21 0.87337793E-01 0.54033642E+03</pdfrwt>
<totfact> 0.12934307E+03</totfact>
</mgrwt>
</event>
<event>
 5    1  0.1281005E-004  0.1147159E+03  0.7546771E-02  0.1252078E+00
         21   -1    0    0  503  502  0.00000000000E+00  0.00000000000E+00  0.33044984076E+03  0.33044984076E+03  0.00000000000E+00 0. -1.
         21   -1    0    0  501  503 -0.00000000000E+00 -0.00000000000E+00 -0.50361384707E+02  0.50361384707E+02  0.00000000000E+00 0.  1.
         24    1    1    2    0    0  0.10103603476E+02  0.44476870692E+02  0.39502118036E+02  0.10053809285E+03  0.80419002446E+02 0.  0.
          1    1    1    2  501    0  0.32503983059E+02  0.34401780785E+02  0.45868773676E+02  0.65908541437E+02  0.00000000000E+00 0. -1.
         -2    1    1    2    0  502 -0.42607586535E+02 -0.78878651476E+02  0.19471756434E+03  0.21436459118E+03  0.00000000000E+00 0.  1.
<mgrwt>
<rscale>  2 0.11471594E+03</rscale>
<asrwt>0</asrwt>
<pdfrwt beam="1">  1       21 0.50838436E-01 0.11471594E+03</pdfrwt>
<pdfrwt beam="2">  1       21 0.77479056E-02 0.11471594E+03</pdfrwt>
<totfact> 0.47200289E+05</totfact>
</mgrwt>
</event>
<event>
 5    1  0.1281005E-004  0.1342931E+03  0.7546771E-02  0.1221221E+00
         21   -1    0    0  503  502  0.00000000000E+00  0.00000000000E+00  0.26984127076E+02  0.26984127076E+02  0.00000000000E+00 0.  1.
         21   -1    0    0  501  503 -0.00000000000E+00 -0.00000000000E+00 -0.68923351568E+03  0.68923351568E+03  0.00000000000E+00 0. -1.
         24    1    1    2    0    0 -0.28750523131E+02  0.21037658993E+02 -0.27166442649E+03  0.28554851121E+03  0.80419002446E+02 0. -1.
          1    1    1    2  501    0 -0.64506407411E+02  0.33406320714E+02 -0.13751848063E+03  0.15552617586E+03  0.00000000000E+00 0. -1.
         -2    1    1    2    0  502  0.93256930542E+02 -0.54443979706E+02 -0.25306648148E+03  0.27514295569E+03  0.00000000000E+00 0.  1.
<mgrwt>
<rscale>  2 0.13429312E+03</rscale>
<asrwt>0</asrwt>
<pdfrwt beam="1">  1       21 0.41514051E-02 0.13429312E+03</pdfrwt>
<pdfrwt beam="2">  1       21 0.10603590E+00 0.13429312E+03</pdfrwt>
<totfact> 0.26715297E+05</totfact>
</mgrwt>
</event>
<event>
 5    1  0.1281005E-004  0.1291735E+03  0.7546771E-02  0.1228687E+00
         21   -1    0    0  501  502  0.00000000000E+00  0.00000000000E+00  0.47019403115E+02  0.47019403115E+02  0.00000000000E+00 0.  1.
         21   -1    0    0  502  503 -0.00000000000E+00 -0.00000000000E+00 -0.36160740332E+03  0.36160740332E+03  0.00000000000E+00 0. -1.
         24    1    1    2    0    0 -0.19958588325E+02  0.24422275223E+02 -0.85965304190E+02  0.12186895525E+03  0.80419002446E+02 0.  0.
          1    1    1    2  501    0 -0.49488505153E+02  0.49876732861E+02 -0.10977210342E+03  0.13033309370E+03  0.00000000000E+00 0. -1.
         -2    1    1    2    0  503  0.69447093478E+02 -0.74299008084E+02 -0.11885059259E+03  0.15642475748E+03  0.00000000000E+00 0.  1.
<mgrwt>
<rscale>  2 0.12917351E+03</rscale>
<asrwt>0</asrwt>
<pdfrwt beam="1">  1       21 0.72337547E-02 0.12917351E+03</pdfrwt>
<pdfrwt beam="2">  1       21 0.55631905E-01 0.12917351E+03</pdfrwt>
<totfact> 0.43961041E+05</totfact>
</mgrwt>
</event>
<event>
 5    1  0.1281005E-004  0.2241726E+03  0.7546771E-02  0.1130810E+00
         21   -1    0    0  503  502  0.00000000000E+00  0.00000000000E+00  0.81941464537E+03  0.81941464537E+03  0.00000000000E+00 0. -1.
         21   -1    0    0  501  503 -0.00000000000E+00 -0.00000000000E+00 -0.62476107647E+02  0.62476107647E+02  0.00000000000E+00 0.  1.
         24    1    1    2    0    0  0.91528091242E+02  0.39642722312E+02  0.27336954372E+03  0.30190571426E+03  0.80419002446E+02 0.  0.
          1    1    1    2  501    0 -0.18252280307E+03 -0.10277487632E+03  0.31481113519E+03  0.37813132597E+03  0.00000000000E+00 0. -1.
         -2    1    1    2    0  502  0.90994711829E+02  0.63132154005E+02  0.16875785882E+03  0.20185371278E+03  0.00000000000E+00 0.  1.
<mgrwt>
<rscale>  2 0.22417258E+03</rscale>
<asrwt>0</asrwt>
<pdfrwt beam="1">  1       21 0.12606378E+00 0.22417258E+03</pdfrwt>
<pdfrwt beam="2">  1       21 0.96117094E-02 0.22417258E+03</pdfrwt>
<totfact> 0.39948228E+04</totfact>
</mgrwt>
</event>
<event>
 5    1  0.1281005E-004  0.1285507E+03  0.7546771E-02  0.1229622E+00
         21   -1    0    0  501  502  0.00000000000E+00  0.00000000000E+00  0.23102884433E+03  0.23102884433E+03  0.00000000000E+00 0. -1.
         21   -1    0    0  502  503 -0.00000000000E+00 -0.00000000000E+00 -0.74417857953E+02  0.74417857953E+02  0.00000000000E+00 0.  1.
         24    1    1    2    0    0  0.44677282034E+01 -0.45648778414E+02  0.71539059716E+02  0.11699925036E+03  0.80419002446E+02 0.  0.
          1    1    1    2  501    0 -0.83703211632E+01 -0.59105271002E+02  0.50125410060E+02  0.77949035083E+02  0.00000000000E+00 0. -1.
         -2    1    1    2    0  503  0.39025929598E+01  0.10475404942E+03  0.34946516599E+02  0.11049841684E+03  0.00000000000E+00 0.  1.
<mgrwt>
<rscale>  2 0.12855068E+03</rscale>
<asrwt>0</asrwt>
<pdfrwt beam="1">  1       21 0.35542899E-01 0.12855068E+03</pdfrwt>
<pdfrwt beam="2">  1       21 0.11448901E-01 0.12855068E+03</pdfrwt>
<totfact> 0.49124681E+05</totfact>
</mgrwt>
</event>
<event>
 5    1  0.1281005E-004  0.1805654E+03  0.7546771E-02  0.1167257E+00
         21   -1    0    0  503  502  0.00000000000E+00  0.00000000000E+00  0.58583080002E+03  0.58583080002E+03  0.00000000000E+00 0. -1.
         21   -1    0    0  501  503 -0.00000000000E+00 -0.00000000000E+00 -0.95392194239E+02  0.95392194239E+02  0.00000000000E+00 0.  1.
         24    1    1    2    0    0 -0.32422761830E+02  0.97927535371E+02  0.42057833528E+03  0.44044794214E+03  0.80419002446E+02 0. -1.
          1    1    1    2  501    0 -0.79518001799E+02  0.30506636154E+01  0.21033650249E+02  0.82309377360E+02  0.00000000000E+00 0. -1.
         -2    1    1    2    0  502  0.11194076363E+03 -0.10097819899E+03  0.48826620244E+02  0.15846567476E+03  0.00000000000E+00 0.  1.
<mgrwt>
<rscale>  2 0.18056544E+03</rscale>
<asrwt>0</asrwt>
<pdfrwt beam="1">  1       21 0.90127813E-01 0.18056544E+03</pdfrwt>
<pdfrwt beam="2">  1       21 0.14675723E-01 0.18056544E+03</pdfrwt>
<totfact> 0.43008144E+04</totfact>
</mgrwt>
</event>
<event>
 5    1  0.1281005E-004  0.2909300E+03  0.7546771E-02  0.1089865E+00
         21   -1    0    0  503  502  0.00000000000E+00  0.00000000000E+00  0.42142897305E+04  0.42142897305E+04  0.00000000000E+00 0. -1.
         21   -1    0    0  501  503 -0.00000000000E+00 -0.00000000000E+00 -0.22518312691E+02  0.22518312691E+02  0.00000000000E+00 0. -1.
         24    1    1    2    0    0  0.18610126963E+02  0.13419321489E+03  0.91377356588E+03  0.92725589856E+03  0.80419002446E+02 0. -1.
          1    1    1    2  501    0 -0.12937475996E+03 -0.23903315542E+03  0.14537477150E+04  0.14789378272E+04  0.00000000000E+00 0. -1.
         -2    1    1    2    0  502  0.11076463300E+03  0.10483994054E+03  0.18242501369E+04  0.18306143174E+04  0.00000000000E+00 0.  1.
<mgrwt>
<rscale>  2 0.29092999E+03</rscale>
<asrwt>0</asrwt>
<pdfrwt beam="1">  1       21 0.64835164E+00 0.29092999E+03</pdfrwt>
<pdfrwt beam="2">  1       21 0.34643591E-02 0.29092999E+03</pdfrwt>
<totfact> 0.60560462E+01</totfact>
</mgrwt>
</event>
<event>
 5    1  0.1281005E-004  0.1968038E+03  0.7546771E-02  0.1152464E+00
         21   -1    0    0  501  502  0.00000000000E+00  0.00000000000E+00  0.13340541944E+03  0.13340541944E+03  0.00000000000E+00 0.  1.
         21   -1    0    0  502  503 -0.00000000000E+00 -0.00000000000E+00 -0.29792176687E+03  0.29792176687E+03  0.00000000000E+00 0. -1.
         24    1    1    2    0    0 -0.55217262631E+02  0.13721758450E+02 -0.72113729616E+02  0.12208537464E+03  0.80419002446E+02 0.  1.
          1    1    1    2  501    0  0.16680705574E+03  0.39567410041E+02 -0.55339249338E+02  0.18014606934E+03  0.00000000000E+00 0. -1.
         -2    1    1    2    0  503 -0.11158979311E+03 -0.53289168491E+02 -0.37063368481E+02  0.12909574233E+03  0.00000000000E+00 0.  1.
<mgrwt>
<rscale>  2 0.19680384E+03</rscale>
<asrwt>0</asrwt>
<pdfrwt beam="1">  1       21 0.20523911E-01 0.19680384E+03</pdfrwt>
<pdfrwt beam="2">  1       21 0.45834117E-01 0.19680384E+03</pdfrwt>
<totfact> 0.10019077E+05</totfact>
</mgrwt>
</event>
<event>
 5    1  0.3106565E-004  0.3132002E+03  0.7546771E-02  0.1078822E+00
         21   -1    0    0  503  502  0.00000000000E+00  0.00000000000E+00  0.50555619383E+03  0.50555619383E+03  0.00000000000E+00 0. -1.
         21   -1    0    0  501  503 -0.00000000000E+00 -0.00000000000E+00 -0.25005152868E+03  0.25005152868E+03  0.00000000000E+00 0.  1.
         24    1    1    2    0    0 -0.50162907653E+02 -0.84977895053E+02  0.22119731685E+03  0.25521173345E+03  0.80419002446E+02 0. -1.
          1    1    1    2  501    0 -0.22048723392E+03  0.25133492971E+02  0.98937102034E+01  0.22213554036E+03  0.00000000000E+00 0. -1.
         -2    1    1    2    0  502  0.27065014157E+03  0.59844402083E+02  0.24413638097E+02  0.27826044871E+03  0.00000000000E+00 0.  1.
<mgrwt>
<rscale>  2 0.31320024E+03</rscale>
<asrwt>0</asrwt>
<pdfrwt beam="1">  1       21 0.77777876E-01 0.31320024E+03</pdfrwt>
<pdfrwt beam="2">  1       21 0.38469466E-01 0.31320024E+03</pdfrwt>
<totfact> 0.89229170E+03</totfact>
</mgrwt>
</event>
<event>
 5    1  0.1281005E-004  0.1952702E+03  0.7546771E-02  0.1153792E+00
         21   -1    0    0  501  502  0.00000000000E+00  0.00000000000E+00  0.24444340554E+03  0.24444340554E+03  0.00000000000E+00 0.  1.
         21   -1    0    0  502  503 -0.00000000000E+00 -0.00000000000E+00 -0.16495438298E+03  0.16495438298E+03  0.00000000000E+00 0. -1.
         24    1    1    2    0    0  0.31938919937E+02 -0.50682347444E+02 -0.18730723726E+02  0.10201397412E+03  0.80419002446E+02 0. -1.
          1    1    1    2  501    0  0.99914873432E+02 -0.61342923360E+02  0.52280261612E+02  0.12837118810E+03  0.00000000000E+00 0. -1.
         -2    1    1    2    0  503 -0.13185379337E+03  0.11202527080E+03  0.45939484673E+02  0.17901262631E+03  0.00000000000E+00 0.  1.
<mgrwt>
<rscale>  2 0.19527016E+03</rscale>
<asrwt>0</asrwt>
<pdfrwt beam="1">  1       21 0.37606678E-01 0.19527016E+03</pdfrwt>
<pdfrwt beam="2">  1       21 0.25377598E-01 0.19527016E+03</pdfrwt>
<totfact> 0.10027322E+05</totfact>
</mgrwt>
</event>
<event>
 5    1  0.1281005E-004  0.1200448E+03  0.7546771E-02  0.1243023E+00
         21   -1    0    0  503  502  0.00000000000E+00  0.00000000000E+00  0.57531531323E+03  0.57531531323E+03  0.00000000000E+00 0. -1.
         21   -1    0    0  501  503 -0.00000000000E+00 -0.00000000000E+00 -0.32024837103E+02  0.32024837103E+02  0.00000000000E+00 0. -1.
         24    1    1    2    0    0 -0.49048334996E+02 -0.26835593863E+02  0.24703584038E+03  0.26574388168E+03  0.80419002446E+02 0. -1.
          1    1    1    2  501    0  0.67081461072E+02 -0.36447042563E+02  0.24938466791E+03  0.26080840079E+03  0.00000000000E+00 0. -1.
         -2    1    1    2    0  502 -0.18033126077E+02  0.63282636427E+02  0.46869967828E+02  0.80787867860E+02  0.00000000000E+00 0.  1.
<mgrwt>
<rscale>  2 0.12004481E+03</rscale>
<asrwt>0</asrwt>
<pdfrwt beam="1">  1       21 0.88510040E-01 0.12004481E+03</pdfrwt>
<pdfrwt beam="2">  1       21 0.49268985E-02 0.12004481E+03</pdfrwt>
<totfact> 0.30647501E+05</totfact>
</mgrwt>
</event>
<event>
 5    1  0.1281005E-004  0.1113564E+03  0.7546771E-02  0.1258079E+00
         21   -1    0    0  503  502  0.00000000000E+00  0.00000000000E+00  0.72010546007E+03  0.72010546007E+03  0.00000000000E+00 0.  1.
         21   -1    0    0  501  503 -0.00000000000E+00 -0.00000000000E+00 -0.19172087455E+02  0.19172087455E+02  0.00000000000E+00 0.  1.
         24    1    1    2    0    0 -0.17120490810E+02 -0.38620190769E+02  0.35861079698E+03  0.36993722441E+03  0.80419002446E+02 0.  1.
          1    1    1    2  501    0  0.49174707757E+02 -0.28965423664E+02  0.93734953461E+02  0.10974237628E+03  0.00000000000E+00 0. -1.
         -2    1    1    2    0  502 -0.32054216947E+02  0.67585614433E+02  0.24858762217E+03  0.25959794683E+03  0.00000000000E+00 0.  1.
<mgrwt>
<rscale>  2 0.11135638E+03</rscale>
<asrwt>0</asrwt>
<pdfrwt beam="1">  1       21 0.11078543E+00 0.11135638E+03</pdfrwt>
<pdfrwt beam="2">  1       21 0.29495525E-02 0.11135638E+03</pdfrwt>
<totfact> 0.42528632E+05</totfact>
</mgrwt>
</event>
<event>
 5    1  0.1281005E-004  0.2134962E+03  0.7546771E-02  0.1138827E+00
         21   -1    0    0  501  502  0.00000000000E+00  0.00000000000E+00  0.55303563476E+03  0.55303563476E+03  0.00000000000E+00 0.  1.
         21   -1    0    0  502  503 -0.00000000000E+00 -0.00000000000E+00 -0.94156649537E+02  0.94156649537E+02  0.00000000000E+00 0.  1.
         24    1    1    2    0    0 -0.10488699823E+03 -0.60554605461E+02  0.25343630150E+03  0.29217343738E+03  0.80419002446E+02 0.  1.
          1    1    1    2  501    0 -0.25335068890E+02 -0.83596585596E+02  0.10416153931E+03  0.13594072646E+03  0.00000000000E+00 0. -1.
         -2    1    1    2    0  503  0.13022206712E+03  0.14415119106E+03  0.10128114441E+03  0.21907812045E+03  0.00000000000E+00 0.  1.
<mgrwt>
<rscale>  2 0.21349621E+03</rscale>
<asrwt>0</asrwt>
<pdfrwt beam="1">  1       21 0.85082403E-01 0.21349621E+03</pdfrwt>
<pdfrwt beam="2">  1       21 0.14485639E-01 0.21349621E+03</pdfrwt>
<totfact> 0.49459858E+04</totfact>
</mgrwt>
</event>
<event>
 5    1  0.1281005E-004  0.1798599E+03  0.7546771E-02  0.1167939E+00
         21   -1    0    0  503  502  0.00000000000E+00  0.00000000000E+00  0.31318550584E+03  0.31318550584E+03  0.00000000000E+00 0.  1.
         21   -1    0    0  501  503 -0.00000000000E+00 -0.00000000000E+00 -0.10560374873E+03  0.10560374873E+03  0.00000000000E+00 0. -1.
         24    1    1    2    0    0 -0.47788382043E+02  0.18741020937E+02  0.60705883139E+02  0.11308127841E+03  0.80419002446E+02 0.  0.
          1    1    1    2  501    0  0.13524944082E+03 -0.80364738493E+02  0.11221383959E+03  0.19324297718E+03  0.00000000000E+00 0. -1.
         -2    1    1    2    0  502 -0.87461058775E+02  0.61623717555E+02  0.34662034383E+02  0.11246499898E+03  0.00000000000E+00 0.  1.
<mgrwt>
<rscale>  2 0.17985989E+03</rscale>
<asrwt>0</asrwt>
<pdfrwt beam="1">  1       21 0.48182385E-01 0.17985989E+03</pdfrwt>
<pdfrwt beam="2">  1       21 0.16246731E-01 0.17985989E+03</pdfrwt>
<totfact> 0.14012823E+05</totfact>
</mgrwt>
</event>
<event>
 5    1  0.1281005E-004  0.1094215E+03  0.7546771E-02  0.1261645E+00
         21   -1    0    0  501  502  0.00000000000E+00  0.00000000000E+00  0.10488855866E+02  0.10488855866E+02  0.00000000000E+00 0.  1.
         21   -1    0    0  502  503 -0.00000000000E+00 -0.00000000000E+00 -0.11543528760E+04  0.11543528760E+04  0.00000000000E+00 0. -1.
         24    1    1    2    0    0  0.31793138263E+02  0.44310869709E+01 -0.39420340654E+03  0.40360126345E+03  0.80419002446E+02 0.  1.
          1    1    1    2  501    0  0.48299485116E+02  0.13557534414E+02 -0.29055110646E+03  0.29485011865E+03  0.00000000000E+00 0. -1.
         -2    1    1    2    0  503 -0.80092623380E+02 -0.17988621385E+02 -0.45910950708E+03  0.46639034972E+03  0.00000000000E+00 0.  1.
<mgrwt>
<rscale>  2 0.10942153E+03</rscale>
<asrwt>0</asrwt>
<pdfrwt beam="1">  1       21 0.16136702E-02 0.10942153E+03</pdfrwt>
<pdfrwt beam="2">  1       21 0.17759275E+00 0.10942153E+03</pdfrwt>
<totfact> 0.34051981E+05</totfact>
</mgrwt>
</event>
<event>
 5    1  0.1281005E-004  0.2256505E+03  0.7546771E-02  0.1129739E+00
         21   -1    0    0  503  502  0.00000000000E+00  0.00000000000E+00  0.28111315389E+03  0.28111315389E+03  0.00000000000E+00 0. -1.
         21   -1    0    0  501  503 -0.00000000000E+00 -0.00000000000E+00 -0.21106188245E+03  0.21106188245E+03  0.00000000000E+00 0. -1.
         24    1    1    2    0    0  0.22676766858E+02 -0.17985633220E+03 -0.58482514424E+02  0.20676062593E+03  0.80419002446E+02 0. -1.
          1    1    1    2  501    0 -0.19066430920E+02  0.21590975879E+03  0.12157772716E+03  0.24851900626E+03  0.00000000000E+00 0. -1.
         -2    1    1    2    0  502 -0.36103359371E+01 -0.36053426592E+02  0.69560587026E+01  0.36895404148E+02  0.00000000000E+00 0.  1.
<mgrwt>
<rscale>  2 0.22565051E+03</rscale>
<asrwt>0</asrwt>
<pdfrwt beam="1">  1       21 0.43248178E-01 0.22565051E+03</pdfrwt>
<pdfrwt beam="2">  1       21 0.32471059E-01 0.22565051E+03</pdfrwt>
<totfact> 0.46177733E+04</totfact>
</mgrwt>
</event>
<event>
 5    1  0.1281005E-004  0.2239606E+03  0.7546771E-02  0.1130964E+00
         21   -1    0    0  503  502  0.00000000000E+00  0.00000000000E+00  0.89665894535E+02  0.89665894535E+02  0.00000000000E+00 0.  1.
         21   -1    0    0  501  503 -0.00000000000E+00 -0.00000000000E+00 -0.56823168466E+03  0.56823168466E+03  0.00000000000E+00 0. -1.
         24    1    1    2    0    0  0.22208966041E+02  0.19439546066E+02 -0.94016240158E+02  0.12719042217E+03  0.80419002446E+02 0.  0.
          1    1    1    2  501    0 -0.18236099363E+03 -0.68433205104E+02 -0.24296371599E+03  0.31140006879E+03  0.00000000000E+00 0. -1.
         -2    1    1    2    0  502  0.16015202759E+03  0.48993659038E+02 -0.14158583398E+03  0.21930708823E+03  0.00000000000E+00 0.  1.
<mgrwt>
<rscale>  2 0.22396055E+03</rscale>
<asrwt>0</asrwt>
<pdfrwt beam="1">  1       21 0.13794753E-01 0.22396055E+03</pdfrwt>
<pdfrwt beam="2">  1       21 0.87420260E-01 0.22396055E+03</pdfrwt>
<totfact> 0.50536676E+04</totfact>
</mgrwt>
</event>
<event>
 5    1  0.1281005E-004  0.9179404E+02  0.7546771E-02  0.1298564E+00
         21   -1    0    0  501  502  0.00000000000E+00  0.00000000000E+00  0.25692245792E+03  0.25692245792E+03  0.00000000000E+00 0. -1.
         21   -1    0    0  502  503 -0.00000000000E+00 -0.00000000000E+00 -0.33394119789E+02  0.33394119789E+02  0.00000000000E+00 0.  1.
         24    1    1    2    0    0 -0.36692804662E+02 -0.27207061919E+02  0.13106235471E+03  0.16040929807E+03  0.80419002446E+02 0.  0.
          1    1    1    2  501    0 -0.14650664677E+02  0.36130769031E+02  0.35967507906E+02  0.53044661100E+02  0.00000000000E+00 0. -1.
         -2    1    1    2    0  503  0.51343469339E+02 -0.89237071125E+01  0.56498475514E+02  0.76862618533E+02  0.00000000000E+00 0.  1.
<mgrwt>
<rscale>  2 0.91794044E+02</rscale>
<asrwt>0</asrwt>
<pdfrwt beam="1">  1       21 0.39526531E-01 0.91794044E+02</pdfrwt>
<pdfrwt beam="2">  1       21 0.51375570E-02 0.91794044E+02</pdfrwt>
<totfact> 0.15681540E+06</totfact>
</mgrwt>
</event>
<event>
 5    1  0.1281005E-004  0.1625757E+03  0.7546771E-02  0.1185819E+00
         21   -1    0    0  501  502  0.00000000000E+00  0.00000000000E+00  0.15928941042E+03  0.15928941042E+03  0.00000000000E+00 0.  1.
         21   -1    0    0  502  503 -0.00000000000E+00 -0.00000000000E+00 -0.18338628919E+03  0.18338628919E+03  0.00000000000E+00 0. -1.
         24    1    1    2    0    0 -0.31569426950E+00  0.49900853187E+02  0.82790561619E+01  0.95005018483E+02  0.80419002446E+02 0.  0.
          1    1    1    2  501    0 -0.97616221784E+01  0.89857683992E+02  0.28676465194E+02  0.94826327020E+02  0.00000000000E+00 0. -1.
         -2    1    1    2    0  503  0.10077316448E+02 -0.13975853718E+03 -0.61052400131E+02  0.15284435411E+03  0.00000000000E+00 0.  1.
<mgrwt>
<rscale>  2 0.16257567E+03</rscale>
<asrwt>0</asrwt>
<pdfrwt beam="1">  1       21 0.24506063E-01 0.16257567E+03</pdfrwt>
<pdfrwt beam="2">  1       21 0.28213275E-01 0.16257567E+03</pdfrwt>
<totfact> 0.19061868E+05</totfact>
</mgrwt>
</event>
<event>
 5    1  0.1281005E-004  0.1424561E+03  0.7546771E-02  0.1210062E+00
         21   -1    0    0  501  502  0.00000000000E+00  0.00000000000E+00  0.12945302174E+03  0.12945302174E+03  0.00000000000E+00 0. -1.
         21   -1    0    0  502  503 -0.00000000000E+00 -0.00000000000E+00 -0.16006159610E+03  0.16006159610E+03  0.00000000000E+00 0. -1.
         24    1    1    2    0    0  0.62832300705E+02  0.84787997380E+02 -0.29408529018E+02  0.13590062562E+03  0.80419002446E+02 0. -1.
          1    1    1    2  501    0 -0.71894192882E+02 -0.10661947190E+03  0.64875067928E+01  0.12875781336E+03  0.00000000000E+00 0. -1.
         -2    1    1    2    0  503  0.90618921769E+01  0.21831474517E+02 -0.76875521335E+01  0.24856178854E+02  0.00000000000E+00 0.  1.
<mgrwt>
<rscale>  2 0.14245614E+03</rscale>
<asrwt>0</asrwt>
<pdfrwt beam="1">  1       21 0.19915850E-01 0.14245614E+03</pdfrwt>
<pdfrwt beam="2">  1       21 0.24624861E-01 0.14245614E+03</pdfrwt>
<totfact> 0.36606986E+05</totfact>
</mgrwt>
</event>
<event>
 5    1  0.1281005E-004  0.5083051E+03  0.7546771E-02  0.1011634E+00
         21   -1    0    0  503  502  0.00000000000E+00  0.00000000000E+00  0.32294079386E+03  0.32294079386E+03  0.00000000000E+00 0.  1.
         21   -1    0    0  501  503 -0.00000000000E+00 -0.00000000000E+00 -0.81203281323E+03  0.81203281323E+03  0.00000000000E+00 0. -1.
         24    1    1    2    0    0  0.17068228830E+03  0.35711833183E+02 -0.97130231432E+02  0.21519590234E+03  0.80419002446E+02 0.  1.
          1    1    1    2  501    0 -0.10807964935E+03  0.38466941911E+03 -0.25161235740E+03  0.47218698732E+03  0.00000000000E+00 0. -1.
         -2    1    1    2    0  502 -0.62602638951E+02 -0.42038125229E+03 -0.14034943054E+03  0.44759071743E+03  0.00000000000E+00 0.  1.
<mgrwt>
<rscale>  2 0.50830508E+03</rscale>
<asrwt>0</asrwt>
<pdfrwt beam="1">  1       21 0.49683199E-01 0.50830508E+03</pdfrwt>
<pdfrwt beam="2">  1       21 0.12492812E+00 0.50830508E+03</pdfrwt>
<totfact> 0.15449424E+03</totfact>
</mgrwt>
</event>
<event>
 5    1  0.1281005E-004  0.1392072E+03  0.7546771E-02  0.1214400E+00
         21   -1    0    0  503  502  0.00000000000E+00  0.00000000000E+00  0.12849612118E+03  0.12849612118E+03  0.00000000000E+00 0.  1.
         21   -1    0    0  501  503 -0.00000000000E+00 -0.00000000000E+00 -0.15154068812E+03  0.15154068812E+03  0.00000000000E+00 0. -1.
         24    1    1    2    0    0 -0.41949108095E+01 -0.46367945070E+02 -0.10287588095E+02  0.93491358049E+02  0.80419002446E+02 0.  0.
          1    1    1    2  501    0  0.66288848890E+02  0.88411192542E+02 -0.15046116927E+02  0.11152190856E+03  0.00000000000E+00 0. -1.
         -2    1    1    2    0  502 -0.62093938080E+02 -0.42043247472E+02  0.22891380807E+01  0.75023542688E+02  0.00000000000E+00 0.  1.
<mgrwt>
<rscale>  2 0.13920725E+03</rscale>
<asrwt>0</asrwt>
<pdfrwt beam="1">  1       21 0.19768634E-01 0.13920725E+03</pdfrwt>
<pdfrwt beam="2">  1       21 0.23313952E-01 0.13920725E+03</pdfrwt>
<totfact> 0.41164579E+05</totfact>
</mgrwt>
</event>
<event>
 5    1  0.1281005E-004  0.2423803E+03  0.7546771E-02  0.1118217E+00
         21   -1    0    0  501  502  0.00000000000E+00  0.00000000000E+00  0.20802054180E+03  0.20802054180E+03  0.00000000000E+00 0. -1.
         21   -1    0    0  502  503 -0.00000000000E+00 -0.00000000000E+00 -0.28328160595E+03  0.28328160595E+03  0.00000000000E+00 0.  1.
         24    1    1    2    0    0 -0.40279455902E+02 -0.58022063147E+02 -0.89290968103E+01  0.10740548917E+03  0.80419002446E+02 0.  1.
          1    1    1    2  501    0 -0.15944278130E+03 -0.25084290479E+02 -0.19667741119E+02  0.16259779266E+03  0.00000000000E+00 0. -1.
         -2    1    1    2    0  503  0.19972223721E+03  0.83106353625E+02 -0.46664226226E+02  0.22129886592E+03  0.00000000000E+00 0.  1.
<mgrwt>
<rscale>  2 0.24238030E+03</rscale>
<asrwt>0</asrwt>
<pdfrwt beam="1">  1       21 0.32003160E-01 0.24238030E+03</pdfrwt>
<pdfrwt beam="2">  1       21 0.43581786E-01 0.24238030E+03</pdfrwt>
<totfact> 0.46442553E+04</totfact>
</mgrwt>
</event>
<event>
 5    1  0.1281005E-004  0.2109404E+03  0.7546771E-02  0.1140823E+00
         21   -1    0    0  503  502  0.00000000000E+00  0.00000000000E+00  0.19981806466E+03  0.19981806466E+03  0.00000000000E+00 0. -1.
         21   -1    0    0  501  503 -0.00000000000E+00 -0.00000000000E+00 -0.23451174194E+03  0.23451174194E+03  0.00000000000E+00 0.  1.
         24    1    1    2    0    0 -0.83601027080E+02  0.25259796693E+02 -0.11402133491E+02  0.11926614633E+03  0.80419002446E+02 0.  0.
          1    1    1    2  501    0  0.17674998703E+03 -0.81195348323E+02  0.25101713311E+02  0.19612072434E+03  0.00000000000E+00 0. -1.
         -2    1    1    2    0  502 -0.93148959946E+02  0.55935551630E+02 -0.48393257105E+02  0.11894293593E+03  0.00000000000E+00 0.  1.
<mgrwt>
<rscale>  2 0.21094037E+03</rscale>
<asrwt>0</asrwt>
<pdfrwt beam="1">  1       21 0.30741241E-01 0.21094037E+03</pdfrwt>
<pdfrwt beam="2">  1       21 0.36078729E-01 0.21094037E+03</pdfrwt>
<totfact> 0.74678629E+04</totfact>
</mgrwt>
</event>
<event>
 5    1  0.1281005E-004  0.1354025E+03  0.7546771E-02  0.1219653E+00
         21   -1    0    0  501  502  0.00000000000E+00  0.00000000000E+00  0.32360182722E+03  0.32360182722E+03  0.00000000000E+00 0.  1.
         21   -1    0    0  502  503 -0.00000000000E+00 -0.00000000000E+00 -0.57423946399E+02  0.57423946399E+02  0.00000000000E+00 0. -1.
         24    1    1    2    0    0  0.71227150802E+02 -0.30854488841E+02  0.91986221754E+02  0.14475492199E+03  0.80419002446E+02 0. -1.
          1    1    1    2  501    0  0.19979102686E+02 -0.39221386931E+02  0.57612754391E+02  0.72503180657E+02  0.00000000000E+00 0. -1.
         -2    1    1    2    0  503 -0.91206253488E+02  0.70075875772E+02  0.11657890468E+03  0.16376767097E+03  0.00000000000E+00 0.  1.
<mgrwt>
<rscale>  2 0.13540254E+03</rscale>
<asrwt>0</asrwt>
<pdfrwt beam="1">  1       21 0.49784895E-01 0.13540254E+03</pdfrwt>
<pdfrwt beam="2">  1       21 0.88344535E-02 0.13540254E+03</pdfrwt>
<totfact> 0.39199718E+05</totfact>
</mgrwt>
</event>
<event>
 5    1  0.1281005E-004  0.1395690E+03  0.7546771E-02  0.1213910E+00
         21   -1    0    0  501  502  0.00000000000E+00  0.00000000000E+00  0.83436279220E+03  0.83436279220E+03  0.00000000000E+00 0.  1.
         21   -1    0    0  502  503 -0.00000000000E+00 -0.00000000000E+00 -0.23441126290E+02  0.23441126290E+02  0.00000000000E+00 0.  1.
         24    1    1    2    0    0 -0.55418365939E+02 -0.68026897501E+02  0.32120019336E+03  0.34254289401E+03  0.80419002446E+02 0.  1.
          1    1    1    2  501    0 -0.15903661800E+02 -0.32894322185E+02  0.11922541323E+03  0.12469828407E+03  0.00000000000E+00 0. -1.
         -2    1    1    2    0  503  0.71322027740E+02  0.10092121969E+03  0.37049605932E+03  0.39056274041E+03  0.00000000000E+00 0.  1.
<mgrwt>
<rscale>  2 0.13956904E+03</rscale>
<asrwt>0</asrwt>
<pdfrwt beam="1">  1       21 0.12836348E+00 0.13956904E+03</pdfrwt>
<pdfrwt beam="2">  1       21 0.36063278E-02 0.13956904E+03</pdfrwt>
<totfact> 0.21188088E+05</totfact>
</mgrwt>
</event>
<event>
 5    1  0.1281005E-004  0.9994380E+02  0.7546771E-02  0.1280414E+00
         21   -1    0    0  503  502  0.00000000000E+00  0.00000000000E+00  0.19538321953E+02  0.19538321953E+02  0.00000000000E+00 0. -1.
         21   -1    0    0  501  503 -0.00000000000E+00 -0.00000000000E+00 -0.52015958552E+03  0.52015958552E+03  0.00000000000E+00 0.  1.
         24    1    1    2    0    0  0.14271958141E+02  0.11060527975E+01 -0.20101193845E+03  0.21697448581E+03  0.80419002446E+02 0. -1.
          1    1    1    2  501    0  0.15651063049E+02  0.53606124674E+02 -0.16906327819E+03  0.17804764646E+03  0.00000000000E+00 0. -1.
         -2    1    1    2    0  502 -0.29923021190E+02 -0.54712177472E+02 -0.13054604694E+03  0.14467577521E+03  0.00000000000E+00 0.  1.
<mgrwt>
<rscale>  2 0.99943798E+02</rscale>
<asrwt>0</asrwt>
<pdfrwt beam="1">  1       21 0.30058960E-02 0.99943798E+02</pdfrwt>
<pdfrwt beam="2">  1       21 0.80024543E-01 0.99943798E+02</pdfrwt>
<totfact> 0.87109773E+05</totfact>
</mgrwt>
</event>
<event>
 5    1  0.1776456E-004  0.3664941E+03  0.7546771E-02  0.1056042E+00
         21   -1    0    0  501  502  0.00000000000E+00  0.00000000000E+00  0.43856684247E+03  0.43856684247E+03  0.00000000000E+00 0. -1.
         21   -1    0    0  502  503 -0.00000000000E+00 -0.00000000000E+00 -0.32731502583E+03  0.32731502583E+03  0.00000000000E+00 0.  1.
         24    1    1    2    0    0 -0.27925249183E+02  0.41532628556E+02 -0.47451328533E+02  0.10594160330E+03  0.80419002446E+02 0.  0.
          1    1    1    2  501    0 -0.92036275631E+02 -0.32111047558E+03  0.11097382447E+03  0.35199119772E+03  0.00000000000E+00 0. -1.
         -2    1    1    2    0  503  0.11996152481E+03  0.27957784702E+03  0.47729320704E+02  0.30794906727E+03  0.00000000000E+00 0.  1.
<mgrwt>
<rscale>  2 0.36649411E+03</rscale>
<asrwt>0</asrwt>
<pdfrwt beam="1">  1       21 0.67471822E-01 0.36649411E+03</pdfrwt>
<pdfrwt beam="2">  1       21 0.50356158E-01 0.36649411E+03</pdfrwt>
<totfact> 0.68736879E+03</totfact>
</mgrwt>
</event>
<event>
 5    1  0.1281005E-004  0.2604960E+03  0.7546771E-02  0.1106846E+00
         21   -1    0    0  501  502  0.00000000000E+00  0.00000000000E+00  0.45610208348E+02  0.45610208348E+02  0.00000000000E+00 0.  1.
         21   -1    0    0  502  503 -0.00000000000E+00 -0.00000000000E+00 -0.17649324749E+04  0.17649324749E+04  0.00000000000E+00 0. -1.
         24    1    1    2    0    0 -0.24144039748E+01 -0.89282507240E+02 -0.68840330965E+03  0.69881580415E+03  0.80419002446E+02 0. -1.
          1    1    1    2  501    0 -0.12672479004E+03 -0.10699758767E+03 -0.28574820877E+03  0.33039324296E+03  0.00000000000E+00 0. -1.
         -2    1    1    2    0  503  0.12913919401E+03  0.19628009491E+03 -0.74517074818E+03  0.78133363618E+03  0.00000000000E+00 0.  1.
<mgrwt>
<rscale>  2 0.26049600E+03</rscale>
<asrwt>0</asrwt>
<pdfrwt beam="1">  1       21 0.70169557E-02 0.26049600E+03</pdfrwt>
<pdfrwt beam="2">  1       21 0.27152805E+00 0.26049600E+03</pdfrwt>
<totfact> 0.70545395E+03</totfact>
</mgrwt>
</event>
<event>
 5    1  0.1281005E-004  0.2624250E+03  0.7546771E-02  0.1105695E+00
         21   -1    0    0  503  502  0.00000000000E+00  0.00000000000E+00  0.31213090642E+03  0.31213090642E+03  0.00000000000E+00 0. -1.
         21   -1    0    0  501  503 -0.00000000000E+00 -0.00000000000E+00 -0.24850898219E+03  0.24850898219E+03  0.00000000000E+00 0.  1.
         24    1    1    2    0    0 -0.31563558812E+02 -0.35226318576E+02  0.23036596168E+02  0.96099180448E+02  0.80419002446E+02 0. -1.
          1    1    1    2  501    0  0.12250200131E+03  0.20508305498E+03 -0.61254742483E+02  0.24661294216E+03  0.00000000000E+00 0. -1.
         -2    1    1    2    0  502 -0.90938442497E+02 -0.16985673641E+03  0.10184007054E+03  0.21792776600E+03  0.00000000000E+00 0.  1.
<mgrwt>
<rscale>  2 0.26242504E+03</rscale>
<asrwt>0</asrwt>
<pdfrwt beam="1">  1       21 0.48020139E-01 0.26242504E+03</pdfrwt>
<pdfrwt beam="2">  1       21 0.38232151E-01 0.26242504E+03</pdfrwt>
<totfact> 0.26403065E+04</totfact>
</mgrwt>
</event>
<event>
 5    1  0.1281005E-004  0.1838605E+03  0.7546771E-02  0.1164118E+00
         21   -1    0    0  503  502  0.00000000000E+00  0.00000000000E+00  0.43754935201E+02  0.43754935201E+02  0.00000000000E+00 0. -1.
         21   -1    0    0  501  503 -0.00000000000E+00 -0.00000000000E+00 -0.78522614923E+03  0.78522614923E+03  0.00000000000E+00 0. -1.
         24    1    1    2    0    0  0.98004974865E+02 -0.51232237401E+02 -0.27173952497E+03  0.30420273278E+03  0.80419002446E+02 0. -1.
          1    1    1    2  501    0 -0.15301988027E+03  0.75762324183E+02 -0.38124283990E+03  0.41773330786E+03  0.00000000000E+00 0. -1.
         -2    1    1    2    0  502  0.55014905401E+02 -0.24530086782E+02 -0.88488849169E+02  0.10704504380E+03  0.00000000000E+00 0.  1.
<mgrwt>
<rscale>  2 0.18386052E+03</rscale>
<asrwt>0</asrwt>
<pdfrwt beam="1">  1       21 0.67315286E-02 0.18386052E+03</pdfrwt>
<pdfrwt beam="2">  1       21 0.12080402E+00 0.18386052E+03</pdfrwt>
<totfact> 0.84389574E+04</totfact>
</mgrwt>
</event>
<event>
 5    1  0.1281005E-004  0.1755279E+03  0.7546771E-02  0.1172203E+00
         21   -1    0    0  501  502  0.00000000000E+00  0.00000000000E+00  0.17995604868E+03  0.17995604868E+03  0.00000000000E+00 0.  1.
         21   -1    0    0  502  503 -0.00000000000E+00 -0.00000000000E+00 -0.19174155184E+03  0.19174155184E+03  0.00000000000E+00 0. -1.
         24    1    1    2    0    0  0.28455269162E+02  0.68965065819E+02 -0.57993023123E+02  0.12408178485E+03  0.80419002446E+02 0. -1.
          1    1    1    2  501    0  0.30865299104E+02  0.77455880391E+02  0.30796729139E+02  0.88884861600E+02  0.00000000000E+00 0. -1.
         -2    1    1    2    0  503 -0.59320568266E+02 -0.14642094621E+03  0.15410790825E+02  0.15873095408E+03  0.00000000000E+00 0.  1.
<mgrwt>
<rscale>  2 0.17552785E+03</rscale>
<asrwt>0</asrwt>
<pdfrwt beam="1">  1       21 0.27685546E-01 0.17552785E+03</pdfrwt>
<pdfrwt beam="2">  1       21 0.29498700E-01 0.17552785E+03</pdfrwt>
<totfact> 0.13790902E+05</totfact>
</mgrwt>
</event>
<event>
 5    1  0.1281005E-004  0.1462238E+03  0.7546771E-02  0.1205191E+00
         21   -1    0    0  501  502  0.00000000000E+00  0.00000000000E+00  0.18060044025E+04  0.18060044025E+04  0.00000000000E+00 0.  1.
         21   -1    0    0  502  503 -0.00000000000E+00 -0.00000000000E+00 -0.12795288413E+02  0.12795288413E+02  0.00000000000E+00 0.  1.
         24    1    1    2    0    0 -0.84990379972E+02 -0.28219986763E+02  0.93964998319E+03  0.94732731366E+03  0.80419002446E+02 0.  1.
          1    1    1    2  501    0 -0.31853030544E+01  0.73083719640E+02  0.45348442650E+03  0.45934682029E+03  0.00000000000E+00 0. -1.
         -2    1    1    2    0  503  0.88175683027E+02 -0.44863732878E+02  0.40007470438E+03  0.41212555694E+03  0.00000000000E+00 0.  1.
<mgrwt>
<rscale>  2 0.14622384E+03</rscale>
<asrwt>0</asrwt>
<pdfrwt beam="1">  1       21 0.27784663E+00 0.14622384E+03</pdfrwt>
<pdfrwt beam="2">  1       21 0.19685073E-02 0.14622384E+03</pdfrwt>
<totfact> 0.60293126E+04</totfact>
</mgrwt>
</event>
<event>
 5    1  0.1281005E-004  0.1904516E+03  0.7546771E-02  0.1158055E+00
         21   -1    0    0  501  502  0.00000000000E+00  0.00000000000E+00  0.33181904086E+02  0.33181904086E+02  0.00000000000E+00 0. -1.
         21   -1    0    0  502  503 -0.00000000000E+00 -0.00000000000E+00 -0.11055377365E+04  0.11055377365E+04  0.00000000000E+00 0. -1.
         24    1    1    2    0    0  0.14794137484E+03 -0.16300227056E+02 -0.53428963001E+03  0.56043284387E+03  0.80419002446E+02 0. -1.
          1    1    1    2  501    0 -0.17945290394E+03  0.11135641029E+02 -0.44839911948E+03  0.48310363028E+03  0.00000000000E+00 0. -1.
         -2    1    1    2    0  503  0.31511529104E+02  0.51645860272E+01 -0.89667082939E+02  0.95183166464E+02  0.00000000000E+00 0.  1.
<mgrwt>
<rscale>  2 0.19045160E+03</rscale>
<asrwt>0</asrwt>
<pdfrwt beam="1">  1       21 0.51049087E-02 0.19045160E+03</pdfrwt>
<pdfrwt beam="2">  1       21 0.17008271E+00 0.19045160E+03</pdfrwt>
<totfact> 0.55407848E+04</totfact>
</mgrwt>
</event>
<event>
 5    1  0.1281005E-004  0.1594145E+03  0.7546771E-02  0.1189359E+00
         21   -1    0    0  501  502  0.00000000000E+00  0.00000000000E+00  0.72405606700E+02  0.72405606700E+02  0.00000000000E+00 0.  1.
         21   -1    0    0  502  503 -0.00000000000E+00 -0.00000000000E+00 -0.35219457733E+03  0.35219457733E+03  0.00000000000E+00 0. -1.
         24    1    1    2    0    0 -0.56697081038E+02 -0.84517023732E+01 -0.75348300565E+02  0.12421985600E+03  0.80419002446E+02 0.  0.
          1    1    1    2  501    0 -0.79916010779E+02  0.21719562853E+02 -0.76206374421E+02  0.11254207965E+03  0.00000000000E+00 0. -1.
         -2    1    1    2    0  503  0.13661309182E+03 -0.13267860480E+02 -0.12823429565E+03  0.18783824839E+03  0.00000000000E+00 0.  1.
<mgrwt>
<rscale>  2 0.15941455E+03</rscale>
<asrwt>0</asrwt>
<pdfrwt beam="1">  1       21 0.11139324E-01 0.15941455E+03</pdfrwt>
<pdfrwt beam="2">  1       21 0.54183781E-01 0.15941455E+03</pdfrwt>
<totfact> 0.21783980E+05</totfact>
</mgrwt>
</event>
<event>
 5    1  0.1281005E-004  0.1334361E+03  0.7546771E-02  0.1222444E+00
         21   -1    0    0  503  502  0.00000000000E+00  0.00000000000E+00  0.40016916253E+03  0.40016916253E+03  0.00000000000E+00 0.  1.
         21   -1    0    0  501  503 -0.00000000000E+00 -0.00000000000E+00 -0.61717204365E+02  0.61717204365E+02  0.00000000000E+00 0. -1.
         24    1    1    2    0    0 -0.60522169676E+02 -0.41076780787E+02  0.26641859627E+03  0.28774349573E+03  0.80419002446E+02 0.  0.
          1    1    1    2  501    0 -0.27821002187E+02 -0.32794490781E+02  0.25045290696E+02  0.49766990811E+02  0.00000000000E+00 0. -1.
         -2    1    1    2    0  502  0.88343171864E+02  0.73871271568E+02  0.46988071193E+02  0.12437588035E+03  0.00000000000E+00 0.  1.
<mgrwt>
<rscale>  2 0.13343613E+03</rscale>
<asrwt>0</asrwt>
<pdfrwt beam="1">  1       21 0.61564485E-01 0.13343613E+03</pdfrwt>
<pdfrwt beam="2">  1       21 0.94949548E-02 0.13343613E+03</pdfrwt>
<totfact> 0.22150337E+05</totfact>
</mgrwt>
</event>
<event>
 5    1  0.1281005E-004  0.3901911E+03  0.7546771E-02  0.1047230E+00
         21   -1    0    0  503  502  0.00000000000E+00  0.00000000000E+00  0.57926848100E+03  0.57926848100E+03  0.00000000000E+00 0.  1.
         21   -1    0    0  501  503 -0.00000000000E+00 -0.00000000000E+00 -0.29074476201E+03  0.29074476201E+03  0.00000000000E+00 0.  1.
         24    1    1    2    0    0  0.32768459755E+03 -0.59733102733E+01 -0.70248148926E+01  0.33753435364E+03  0.80419002446E+02 0.  1.
          1    1    1    2  501    0  0.50745893226E+02  0.37619849863E+02  0.41141937846E+02  0.75386058610E+02  0.00000000000E+00 0. -1.
         -2    1    1    2    0  502 -0.37843049078E+03 -0.31646539590E+02  0.25440659604E+03  0.45709283076E+03  0.00000000000E+00 0.  1.
<mgrwt>
<rscale>  2 0.39019113E+03</rscale>
<asrwt>0</asrwt>
<pdfrwt beam="1">  1       21 0.89118228E-01 0.39019113E+03</pdfrwt>
<pdfrwt beam="2">  1       21 0.44729963E-01 0.39019113E+03</pdfrwt>
<totfact> 0.46228647E+03</totfact>
</mgrwt>
</event>
<event>
 5    1  0.1281005E-004  0.2073000E+03  0.7546771E-02  0.1143722E+00
         21   -1    0    0  501  502  0.00000000000E+00  0.00000000000E+00  0.59615702597E+02  0.59615702597E+02  0.00000000000E+00 0.  1.
         21   -1    0    0  502  503 -0.00000000000E+00 -0.00000000000E+00 -0.72828004198E+03  0.72828004198E+03  0.00000000000E+00 0. -1.
         24    1    1    2    0    0  0.59480708277E+02  0.11345213219E+02 -0.17233702536E+03  0.19958440516E+03  0.80419002446E+02 0.  0.
          1    1    1    2  501    0  0.12411889093E+03 -0.34638235090E+02 -0.23622231200E+03  0.26908416361E+03  0.00000000000E+00 0. -1.
         -2    1    1    2    0  503 -0.18359959921E+03  0.23293021871E+02 -0.26010500203E+03  0.31922717581E+03  0.00000000000E+00 0.  1.
<mgrwt>
<rscale>  2 0.20730003E+03</rscale>
<asrwt>0</asrwt>
<pdfrwt beam="1">  1       21 0.91716463E-02 0.20730003E+03</pdfrwt>
<pdfrwt beam="2">  1       21 0.11204309E+00 0.20730003E+03</pdfrwt>
<totfact> 0.58590410E+04</totfact>
</mgrwt>
</event>
<event>
 5    1  0.1281005E-004  0.2852986E+03  0.7546771E-02  0.1092830E+00
         21   -1    0    0  503  502  0.00000000000E+00  0.00000000000E+00  0.33811337202E+03  0.33811337202E+03  0.00000000000E+00 0.  1.
         21   -1    0    0  501  503 -0.00000000000E+00 -0.00000000000E+00 -0.25875212771E+03  0.25875212771E+03  0.00000000000E+00 0. -1.
         24    1    1    2    0    0  0.10575735727E+03 -0.10182544769E+03  0.76235495783E+01  0.16756603139E+03  0.80419002446E+02 0.  0.
          1    1    1    2  501    0 -0.16658386278E+03  0.21663455696E+03  0.10887781950E+03  0.29416847925E+03  0.00000000000E+00 0. -1.
         -2    1    1    2    0  502  0.60826505505E+02 -0.11480910927E+03 -0.37140124762E+02  0.13513098908E+03  0.00000000000E+00 0.  1.
<mgrwt>
<rscale>  2 0.28529857E+03</rscale>
<asrwt>0</asrwt>
<pdfrwt beam="1">  1       21 0.52017442E-01 0.28529857E+03</pdfrwt>
<pdfrwt beam="2">  1       21 0.39808020E-01 0.28529857E+03</pdfrwt>
<totfact> 0.20360473E+04</totfact>
</mgrwt>
</event>
<event>
 5    1  0.1281005E-004  0.2731423E+03  0.7546771E-02  0.1099495E+00
         21   -1    0    0  501  502  0.00000000000E+00  0.00000000000E+00  0.24563291616E+04  0.24563291616E+04  0.00000000000E+00 0. -1.
         21   -1    0    0  502  503 -0.00000000000E+00 -0.00000000000E+00 -0.46999716947E+02  0.46999716947E+02  0.00000000000E+00 0.  1.
         24    1    1    2    0    0 -0.76612589708E+02  0.60072023860E+02  0.54427207466E+03  0.55872841718E+03  0.80419002446E+02 0.  1.
          1    1    1    2  501    0  0.24371575043E+03 -0.67017811232E+02  0.16639396653E+04  0.16830282124E+04  0.00000000000E+00 0. -1.
         -2    1    1    2    0  503 -0.16710316072E+03  0.69457873723E+01  0.20111770471E+03  0.26157224897E+03  0.00000000000E+00 0.  1.
<mgrwt>
<rscale>  2 0.27314231E+03</rscale>
<asrwt>0</asrwt>
<pdfrwt beam="1">  1       21 0.37789669E+00 0.27314231E+03</pdfrwt>
<pdfrwt beam="2">  1       21 0.72307276E-02 0.27314231E+03</pdfrwt>
<totfact> 0.15444810E+03</totfact>
</mgrwt>
</event>
<event>
 5    1  0.1281005E-004  0.1427581E+03  0.7546771E-02  0.1209665E+00
         21   -1    0    0  501  502  0.00000000000E+00  0.00000000000E+00  0.20623564993E+02  0.20623564993E+02  0.00000000000E+00 0.  1.
         21   -1    0    0  502  503 -0.00000000000E+00 -0.00000000000E+00 -0.12641697343E+04  0.12641697343E+04  0.00000000000E+00 0.  1.
         24    1    1    2    0    0  0.98525231473E+02 -0.13160498330E+02 -0.27306168976E+03  0.30151338664E+03  0.80419002446E+02 0.  1.
          1    1    1    2  501    0  0.15908316746E+02 -0.31124699415E+02 -0.18576937812E+03  0.18902931863E+03  0.00000000000E+00 0. -1.
         -2    1    1    2    0  503 -0.11443354822E+03  0.44285197745E+02 -0.78471510139E+03  0.79425059399E+03  0.00000000000E+00 0.  1.
<mgrwt>
<rscale>  2 0.14275810E+03</rscale>
<asrwt>0</asrwt>
<pdfrwt beam="1">  1       21 0.31728552E-02 0.14275810E+03</pdfrwt>
<pdfrwt beam="2">  1       21 0.19448771E+00 0.14275810E+03</pdfrwt>
<totfact> 0.86648846E+04</totfact>
</mgrwt>
</event>
<event>
 5    1  0.1281005E-004  0.1342498E+03  0.7546771E-02  0.1221283E+00
         21   -1    0    0  503  502  0.00000000000E+00  0.00000000000E+00  0.12646275073E+04  0.12646275073E+04  0.00000000000E+00 0. -1.
         21   -1    0    0  501  503 -0.00000000000E+00 -0.00000000000E+00 -0.14895494886E+02  0.14895494886E+02  0.00000000000E+00 0. -1.
         24    1    1    2    0    0 -0.65775837417E+02  0.50047756615E+02  0.47085816453E+03  0.48477403580E+03  0.80419002446E+02 0. -1.
          1    1    1    2  501    0 -0.35681432681E+01 -0.78242644658E+02  0.49561897842E+03  0.50176968308E+03  0.00000000000E+00 0. -1.
         -2    1    1    2    0  502  0.69343980685E+02  0.28194888043E+02  0.28325486949E+03  0.29297928333E+03  0.00000000000E+00 0.  1.
<mgrwt>
<rscale>  2 0.13424984E+03</rscale>
<asrwt>0</asrwt>
<pdfrwt beam="1">  1       21 0.19455799E+00 0.13424984E+03</pdfrwt>
<pdfrwt beam="2">  1       21 0.22916156E-02 0.13424984E+03</pdfrwt>
<totfact> 0.14813551E+05</totfact>
</mgrwt>
</event>
<event>
 5    1  0.1281005E-004  0.1320427E+03  0.7546771E-02  0.1224456E+00
         21   -1    0    0  501  502  0.00000000000E+00  0.00000000000E+00  0.12139516997E+03  0.12139516997E+03  0.00000000000E+00 0.  1.
         21   -1    0    0  502  503 -0.00000000000E+00 -0.00000000000E+00 -0.15478465064E+03  0.15478465064E+03  0.00000000000E+00 0.  1.
         24    1    1    2    0    0 -0.31704278262E+02  0.10576956069E+03  0.19596329465E+02  0.13799852648E+03  0.80419002446E+02 0.  1.
          1    1    1    2  501    0  0.32284719612E+02 -0.13143782016E+02 -0.11695376239E+02  0.36767430580E+02  0.00000000000E+00 0. -1.
         -2    1    1    2    0  503 -0.58044134969E+00 -0.92625778675E+02 -0.41290433905E+02  0.10141386355E+03  0.00000000000E+00 0.  1.
<mgrwt>
<rscale>  2 0.13204270E+03</rscale>
<asrwt>0</asrwt>
<pdfrwt beam="1">  1       21 0.18676180E-01 0.13204270E+03</pdfrwt>
<pdfrwt beam="2">  1       21 0.23813023E-01 0.13204270E+03</pdfrwt>
<totfact> 0.43967390E+05</totfact>
</mgrwt>
</event>
<event>
 5    1  0.1281005E-004  0.1259235E+03  0.7546771E-02  0.1233633E+00
         21   -1    0    0  503  502  0.00000000000E+00  0.00000000000E+00  0.55869268506E+02  0.55869268506E+02  0.00000000000E+00 0. -1.
         21   -1    0    0  501  503 -0.00000000000E+00 -0.00000000000E+00 -0.38974975897E+03  0.38974975897E+03  0.00000000000E+00 0. -1.
         24    1    1    2    0    0 -0.32274408181E+02 -0.98663971553E+02 -0.69084810313E+02  0.14837838008E+03  0.80419002446E+02 0. -1.
          1    1    1    2  501    0  0.49129885331E+02  0.87393119851E+02 -0.25638305511E+03  0.27528816534E+03  0.00000000000E+00 0. -1.
         -2    1    1    2    0  502 -0.16855477151E+02  0.11270851702E+02 -0.84126250411E+01  0.21952482050E+02  0.00000000000E+00 0.  1.
<mgrwt>
<rscale>  2 0.12592350E+03</rscale>
<asrwt>0</asrwt>
<pdfrwt beam="1">  1       21 0.85952719E-02 0.12592350E+03</pdfrwt>
<pdfrwt beam="2">  1       21 0.59961503E-01 0.12592350E+03</pdfrwt>
<totfact> 0.27902823E+05</totfact>
</mgrwt>
</event>
<event>
 5    1  0.1281005E-004  0.8789923E+02  0.7546771E-02  0.1308020E+00
         21   -1    0    0  503  502  0.00000000000E+00  0.00000000000E+00  0.52035861765E+02  0.52035861765E+02  0.00000000000E+00 0.  1.
         21   -1    0    0  501  503 -0.00000000000E+00 -0.00000000000E+00 -0.21997752766E+03  0.21997752766E+03  0.00000000000E+00 0. -1.
         24    1    1    2    0    0 -0.56377498078E+01  0.27379038780E+02 -0.15960176330E+03  0.18089039441E+03  0.80419002446E+02 0. -1.
          1    1    1    2  501    0  0.67426730708E+01 -0.58817044796E+02 -0.36129044918E+01  0.59312405764E+02  0.00000000000E+00 0. -1.
         -2    1    1    2    0  502 -0.11049232630E+01  0.31438006016E+02 -0.47269981097E+01  0.31810589256E+02  0.00000000000E+00 0.  1.
<mgrwt>
<rscale>  2 0.87899232E+02</rscale>
<asrwt>0</asrwt>
<pdfrwt beam="1">  1       21 0.80055172E-02 0.87899232E+02</pdfrwt>
<pdfrwt beam="2">  1       21 0.33842696E-01 0.87899232E+02</pdfrwt>
<totfact> 0.10043204E+06</totfact>
</mgrwt>
</event>
<event>
 5    1  0.1281005E-004  0.1604686E+03  0.7546771E-02  0.1188169E+00
         21   -1    0    0  503  502  0.00000000000E+00  0.00000000000E+00  0.14006068681E+03  0.14006068681E+03  0.00000000000E+00 0. -1.
         21   -1    0    0  501  503 -0.00000000000E+00 -0.00000000000E+00 -0.19086159803E+03  0.19086159803E+03  0.00000000000E+00 0.  1.
         24    1    1    2    0    0 -0.10725523258E+03 -0.30853227170E+02  0.68410311473E+01  0.13773025160E+03  0.80419002446E+02 0. -1.
          1    1    1    2  501    0 -0.35869194778E+02 -0.39378481731E+01 -0.19609798321E+02  0.41068844303E+02  0.00000000000E+00 0. -1.
         -2    1    1    2    0  502  0.14312442736E+03  0.34791075343E+02 -0.38032144050E+02  0.15212318894E+03  0.00000000000E+00 0.  1.
<mgrwt>
<rscale>  2 0.16046862E+03</rscale>
<asrwt>0</asrwt>
<pdfrwt beam="1">  1       21 0.21547798E-01 0.16046862E+03</pdfrwt>
<pdfrwt beam="2">  1       21 0.29363322E-01 0.16046862E+03</pdfrwt>
<totfact> 0.22503170E+05</totfact>
</mgrwt>
</event>
<event>
 5    1  0.1281005E-004  0.1635207E+03  0.7546771E-02  0.1184778E+00
         21   -1    0    0  501  502  0.00000000000E+00  0.00000000000E+00  0.50132306358E+02  0.50132306358E+02  0.00000000000E+00 0.  1.
         21   -1    0    0  502  503 -0.00000000000E+00 -0.00000000000E+00 -0.55696642744E+03  0.55696642744E+03  0.00000000000E+00 0.  1.
         24    1    1    2    0    0 -0.42922967045E+02 -0.27885504335E+02 -0.12695536441E+03  0.15876039481E+03  0.80419002446E+02 0.  1.
          1    1    1    2  501    0 -0.83922881778E+02 -0.34035419589E+02 -0.10021742501E+03  0.13507402469E+03  0.00000000000E+00 0. -1.
         -2    1    1    2    0  503  0.12684584882E+03  0.61920923924E+02 -0.27966133166E+03  0.31326431430E+03  0.00000000000E+00 0.  1.
<mgrwt>
<rscale>  2 0.16352068E+03</rscale>
<asrwt>0</asrwt>
<pdfrwt beam="1">  1       21 0.77126629E-02 0.16352068E+03</pdfrwt>
<pdfrwt beam="2">  1       21 0.85687138E-01 0.16352068E+03</pdfrwt>
<totfact> 0.15201370E+05</totfact>
</mgrwt>
</event>
<event>
 5    1  0.1281005E-004  0.2177806E+03  0.7546771E-02  0.1135549E+00
         21   -1    0    0  501  502  0.00000000000E+00  0.00000000000E+00  0.17593570735E+03  0.17593570735E+03  0.00000000000E+00 0.  1.
         21   -1    0    0  502  503 -0.00000000000E+00 -0.00000000000E+00 -0.29820950368E+03  0.29820950368E+03  0.00000000000E+00 0. -1.
         24    1    1    2    0    0 -0.70912346459E+01 -0.16214787756E+03  0.15625025050E+02  0.18180642774E+03  0.80419002446E+02 0.  1.
          1    1    1    2  501    0  0.29692256006E+02  0.20438129553E+03 -0.92332053195E+02  0.22622677135E+03  0.00000000000E+00 0. -1.
         -2    1    1    2    0  503 -0.22601021360E+02 -0.42233417971E+02 -0.45566768189E+02  0.66112011943E+02  0.00000000000E+00 0.  1.
<mgrwt>
<rscale>  2 0.21778061E+03</rscale>
<asrwt>0</asrwt>
<pdfrwt beam="1">  1       21 0.27067032E-01 0.21778061E+03</pdfrwt>
<pdfrwt beam="2">  1       21 0.45878385E-01 0.21778061E+03</pdfrwt>
<totfact> 0.58556768E+04</totfact>
</mgrwt>
</event>
<event>
 5    1  0.1281005E-004  0.2201466E+03  0.7546771E-02  0.1133774E+00
         21   -1    0    0  503  502  0.00000000000E+00  0.00000000000E+00  0.34760327354E+03  0.34760327354E+03  0.00000000000E+00 0. -1.
         21   -1    0    0  501  503 -0.00000000000E+00 -0.00000000000E+00 -0.15593644171E+03  0.15593644171E+03  0.00000000000E+00 0. -1.
         24    1    1    2    0    0 -0.99666108319E+02 -0.16896958156E+02 -0.14747765121E+02  0.13001366418E+03  0.80419002446E+02 0. -1.
          1    1    1    2  501    0  0.19194521710E+03 -0.48546452249E+02  0.12500250631E+03  0.23414813896E+03  0.00000000000E+00 0. -1.
         -2    1    1    2    0  502 -0.92279108777E+02  0.65443410405E+02  0.81412090639E+02  0.13937791211E+03  0.00000000000E+00 0.  1.
<mgrwt>
<rscale>  2 0.22014659E+03</rscale>
<asrwt>0</asrwt>
<pdfrwt beam="1">  1       21 0.53477427E-01 0.22014659E+03</pdfrwt>
<pdfrwt beam="2">  1       21 0.23990222E-01 0.22014659E+03</pdfrwt>
<totfact> 0.53534227E+04</totfact>
</mgrwt>
</event>
<event>
 5    1  0.1281005E-004  0.3950210E+03  0.7546771E-02  0.1045517E+00
         21   -1    0    0  501  502  0.00000000000E+00  0.00000000000E+00  0.22419026679E+03  0.22419026679E+03  0.00000000000E+00 0.  1.
         21   -1    0    0  502  503 -0.00000000000E+00 -0.00000000000E+00 -0.72303383964E+03  0.72303383964E+03  0.00000000000E+00 0. -1.
         24    1    1    2    0    0 -0.91261408776E+02  0.10427642087E+03 -0.66599376933E+02  0.17350766451E+03  0.80419002446E+02 0.  1.
          1    1    1    2  501    0  0.64518909932E+02  0.25831420034E+03 -0.25722785691E+03  0.37020951664E+03  0.00000000000E+00 0. -1.
         -2    1    1    2    0  503  0.26742498845E+02 -0.36259062121E+03 -0.17501633900E+03  0.40350692528E+03  0.00000000000E+00 0.  1.
<mgrwt>
<rscale>  2 0.39502101E+03</rscale>
<asrwt>0</asrwt>
<pdfrwt beam="1">  1       21 0.34490811E-01 0.39502101E+03</pdfrwt>
<pdfrwt beam="2">  1       21 0.11123597E+00 0.39502101E+03</pdfrwt>
<totfact> 0.45988165E+03</totfact>
</mgrwt>
</event>
<event>
 5    1  0.1281005E-004  0.1513105E+03  0.7546771E-02  0.1198872E+00
         21   -1    0    0  501  502  0.00000000000E+00  0.00000000000E+00  0.65275037489E+03  0.65275037489E+03  0.00000000000E+00 0. -1.
         21   -1    0    0  502  503 -0.00000000000E+00 -0.00000000000E+00 -0.36514979456E+02  0.36514979456E+02  0.00000000000E+00 0. -1.
         24    1    1    2    0    0  0.68859047536E+02  0.84439501074E+02  0.29803191309E+03  0.32735582314E+03  0.80419002446E+02 0. -1.
          1    1    1    2  501    0 -0.70033578355E+02 -0.11606257156E+03  0.28732167828E+03  0.31769320016E+03  0.00000000000E+00 0. -1.
         -2    1    1    2    0  503  0.11745308194E+01  0.31623070483E+02  0.30881804054E+02  0.44216331045E+02  0.00000000000E+00 0.  1.
<mgrwt>
<rscale>  2 0.15131049E+03</rscale>
<asrwt>0</asrwt>
<pdfrwt beam="1">  1       21 0.10042313E+00 0.15131049E+03</pdfrwt>
<pdfrwt beam="2">  1       21 0.56176896E-02 0.15131049E+03</pdfrwt>
<totfact> 0.18188537E+05</totfact>
</mgrwt>
</event>
<event>
 5    1  0.1281005E-004  0.3506669E+03  0.7546771E-02  0.1062342E+00
         21   -1    0    0  503  502  0.00000000000E+00  0.00000000000E+00  0.10411443350E+04  0.10411443350E+04  0.00000000000E+00 0.  1.
         21   -1    0    0  501  503 -0.00000000000E+00 -0.00000000000E+00 -0.12708532284E+03  0.12708532284E+03  0.00000000000E+00 0.  1.
         24    1    1    2    0    0  0.26568908294E+03  0.14259016462E+02  0.50569046536E+03  0.57704771991E+03  0.80419002446E+02 0.  1.
          1    1    1    2  501    0  0.25001226974E+02  0.10591319004E+03  0.71076309711E+02  0.12997887127E+03  0.00000000000E+00 0. -1.
         -2    1    1    2    0  502 -0.29069030991E+03 -0.12017220650E+03  0.33729223707E+03  0.46120306664E+03  0.00000000000E+00 0.  1.
<mgrwt>
<rscale>  2 0.35066693E+03</rscale>
<asrwt>0</asrwt>
<pdfrwt beam="1">  1       21 0.16017605E+00 0.35066693E+03</pdfrwt>
<pdfrwt beam="2">  1       21 0.19551589E-01 0.35066693E+03</pdfrwt>
<totfact> 0.54740455E+03</totfact>
</mgrwt>
</event>
<event>
 5    1  0.1281005E-004  0.1206211E+03  0.7546771E-02  0.1242076E+00
         21   -1    0    0  503  502  0.00000000000E+00  0.00000000000E+00  0.58162715443E+02  0.58162715443E+02  0.00000000000E+00 0. -1.
         21   -1    0    0  501  503 -0.00000000000E+00 -0.00000000000E+00 -0.26440971824E+03  0.26440971824E+03  0.00000000000E+00 0.  1.
         24    1    1    2    0    0  0.38879809085E+02 -0.41313795571E+02 -0.12194351769E+03  0.15670324413E+03  0.80419002446E+02 0. -1.
          1    1    1    2  501    0  0.16107499463E+01  0.83985777697E+02 -0.50999641115E+02  0.98270894800E+02  0.00000000000E+00 0. -1.
         -2    1    1    2    0  502 -0.40490559032E+02 -0.42671982127E+02 -0.33303843990E+02  0.67598294755E+02  0.00000000000E+00 0.  1.
<mgrwt>
<rscale>  2 0.12062106E+03</rscale>
<asrwt>0</asrwt>
<pdfrwt beam="1">  1       21 0.89481099E-02 0.12062106E+03</pdfrwt>
<pdfrwt beam="2">  1       21 0.40678419E-01 0.12062106E+03</pdfrwt>
<totfact> 0.57874262E+05</totfact>
</mgrwt>
</event>
<event>
 5    1  0.1281005E-004  0.2572720E+03  0.7546771E-02  0.1108793E+00
         21   -1    0    0  503  502  0.00000000000E+00  0.00000000000E+00  0.23661385670E+03  0.23661385670E+03  0.00000000000E+00 0.  1.
         21   -1    0    0  501  503 -0.00000000000E+00 -0.00000000000E+00 -0.38056986016E+03  0.38056986016E+03  0.00000000000E+00 0.  1.
         24    1    1    2    0    0 -0.93786845127E+02 -0.15272855749E+03  0.96046005320E+02  0.21866420760E+03  0.80419002446E+02 0.  1.
          1    1    1    2  501    0 -0.15125377419E+02 -0.69229906415E+02 -0.56220779330E+02  0.90456249164E+02  0.00000000000E+00 0. -1.
         -2    1    1    2    0  502  0.10891222255E+03  0.22195846391E+03 -0.18378122945E+03  0.30806326009E+03  0.00000000000E+00 0.  1.
<mgrwt>
<rscale>  2 0.25727196E+03</rscale>
<asrwt>0</asrwt>
<pdfrwt beam="1">  1       21 0.36402132E-01 0.25727196E+03</pdfrwt>
<pdfrwt beam="2">  1       21 0.58549208E-01 0.25727196E+03</pdfrwt>
<totfact> 0.19189872E+04</totfact>
</mgrwt>
</event>
<event>
 5    1  0.1281005E-004  0.1253203E+03  0.7546771E-02  0.1234570E+00
         21   -1    0    0  503  502  0.00000000000E+00  0.00000000000E+00  0.45215343082E+03  0.45215343082E+03  0.00000000000E+00 0. -1.
         21   -1    0    0  501  503 -0.00000000000E+00 -0.00000000000E+00 -0.35170223056E+02  0.35170223056E+02  0.00000000000E+00 0.  1.
         24    1    1    2    0    0 -0.15528148115E-01 -0.31551364667E+02  0.14737252096E+03  0.17082553890E+03  0.80419002446E+02 0.  0.
          1    1    1    2  501    0  0.74913565448E+02 -0.14537384575E+02  0.14676683205E+03  0.16542031565E+03  0.00000000000E+00 0. -1.
         -2    1    1    2    0  502 -0.74898037300E+02  0.46088749242E+02  0.12284385475E+03  0.15107779932E+03  0.00000000000E+00 0.  1.
<mgrwt>
<rscale>  2 0.12532027E+03</rscale>
<asrwt>0</asrwt>
<pdfrwt beam="1">  1       21 0.69562062E-01 0.12532027E+03</pdfrwt>
<pdfrwt beam="2">  1       21 0.54108039E-02 0.12532027E+03</pdfrwt>
<totfact> 0.44693036E+05</totfact>
</mgrwt>
</event>
<event>
 5    1  0.1281005E-004  0.4333085E+03  0.7546771E-02  0.1032820E+00
         21   -1    0    0  501  502  0.00000000000E+00  0.00000000000E+00  0.33334355302E+03  0.33334355302E+03  0.00000000000E+00 0.  1.
         21   -1    0    0  502  503 -0.00000000000E+00 -0.00000000000E+00 -0.65235806870E+03  0.65235806870E+03  0.00000000000E+00 0. -1.
         24    1    1    2    0    0 -0.18108053511E+03  0.34769349866E+03 -0.27184728006E+03  0.48378620158E+03  0.80419002446E+02 0.  1.
          1    1    1    2  501    0  0.18073289872E+03 -0.38700085504E+03  0.16105258798E+02  0.42742651046E+03  0.00000000000E+00 0. -1.
         -2    1    1    2    0  503  0.34763638982E+00  0.39307356376E+02 -0.63272494410E+02  0.74488909679E+02  0.00000000000E+00 0.  1.
<mgrwt>
<rscale>  2 0.43330851E+03</rscale>
<asrwt>0</asrwt>
<pdfrwt beam="1">  1       21 0.51283624E-01 0.43330851E+03</pdfrwt>
<pdfrwt beam="2">  1       21 0.10036278E+00 0.43330851E+03</pdfrwt>
<totfact> 0.25651025E+03</totfact>
</mgrwt>
</event>
<event>
 5    1  0.1281005E-004  0.9573330E+02  0.7546771E-02  0.1289533E+00
         21   -1    0    0  503  502  0.00000000000E+00  0.00000000000E+00  0.78057356116E+03  0.78057356116E+03  0.00000000000E+00 0. -1.
         21   -1    0    0  501  503 -0.00000000000E+00 -0.00000000000E+00 -0.13931239622E+02  0.13931239622E+02  0.00000000000E+00 0.  1.
         24    1    1    2    0    0 -0.15792097233E+02  0.26580577054E+02  0.43918644611E+03  0.44755766982E+03  0.80419002446E+02 0. -1.
          1    1    1    2  501    0  0.18798104240E+02  0.37082496854E+02  0.67366183140E+02  0.79162383281E+02  0.00000000000E+00 0. -1.
         -2    1    1    2    0  502 -0.30060070068E+01 -0.63663073907E+02  0.26008969229E+03  0.26778474768E+03  0.00000000000E+00 0.  1.
<mgrwt>
<rscale>  2 0.95733303E+02</rscale>
<asrwt>0</asrwt>
<pdfrwt beam="1">  1       21 0.12008821E+00 0.95733303E+02</pdfrwt>
<pdfrwt beam="2">  1       21 0.21432683E-02 0.95733303E+02</pdfrwt>
<totfact> 0.58969151E+05</totfact>
</mgrwt>
</event>
<event>
 5    1  0.1281005E-004  0.3111288E+03  0.7546771E-02  0.1079806E+00
         21   -1    0    0  503  502  0.00000000000E+00  0.00000000000E+00  0.27189334618E+03  0.27189334618E+03  0.00000000000E+00 0.  1.
         21   -1    0    0  501  503 -0.00000000000E+00 -0.00000000000E+00 -0.40941065827E+03  0.40941065827E+03  0.00000000000E+00 0. -1.
         24    1    1    2    0    0 -0.45502942350E+01 -0.81854367324E+02 -0.32149676251E+02  0.11925460270E+03  0.80419002446E+02 0.  1.
          1    1    1    2  501    0 -0.16481128002E+03 -0.14826968640E+03 -0.15705334733E+03  0.27168439748E+03  0.00000000000E+00 0. -1.
         -2    1    1    2    0  502  0.16936157425E+03  0.23012405372E+03  0.51685711488E+02  0.29036500427E+03  0.00000000000E+00 0.  1.
<mgrwt>
<rscale>  2 0.31112881E+03</rscale>
<asrwt>0</asrwt>
<pdfrwt beam="1">  1       21 0.41829746E-01 0.31112881E+03</pdfrwt>
<pdfrwt beam="2">  1       21 0.62986255E-01 0.31112881E+03</pdfrwt>
<totfact> 0.12052908E+04</totfact>
</mgrwt>
</event>
<event>
 5    1  0.1281005E-004  0.2535850E+03  0.7546771E-02  0.1111060E+00
         21   -1    0    0  503  502  0.00000000000E+00  0.00000000000E+00  0.10133786618E+03  0.10133786618E+03  0.00000000000E+00 0. -1.
         21   -1    0    0  501  503 -0.00000000000E+00 -0.00000000000E+00 -0.66012078157E+03  0.66012078157E+03  0.00000000000E+00 0.  1.
         24    1    1    2    0    0  0.29841904934E+02  0.82111307891E+02 -0.17943969748E+03  0.21517115783E+03  0.80419002446E+02 0.  1.
          1    1    1    2  501    0 -0.29741300325E+02 -0.23432890126E+03 -0.27074579504E+03  0.35930191266E+03  0.00000000000E+00 0. -1.
         -2    1    1    2    0  502 -0.10060460893E+00  0.15221759337E+03 -0.10859742287E+03  0.18698557727E+03  0.00000000000E+00 0.  1.
<mgrwt>
<rscale>  2 0.25358495E+03</rscale>
<asrwt>0</asrwt>
<pdfrwt beam="1">  1       21 0.15590440E-01 0.25358495E+03</pdfrwt>
<pdfrwt beam="2">  1       21 0.10155705E+00 0.25358495E+03</pdfrwt>
<totfact> 0.28019789E+04</totfact>
</mgrwt>
</event>
<event>
 5    1  0.1281005E-004  0.1847328E+03  0.7546771E-02  0.1163300E+00
         21   -1    0    0  503  502  0.00000000000E+00  0.00000000000E+00  0.53524359412E+03  0.53524359412E+03  0.00000000000E+00 0. -1.
         21   -1    0    0  501  503 -0.00000000000E+00 -0.00000000000E+00 -0.64294971501E+02  0.64294971501E+02  0.00000000000E+00 0.  1.
         24    1    1    2    0    0  0.40478845939E+02 -0.12734641916E+02  0.95376816621E+02  0.13177504004E+03  0.80419002446E+02 0.  1.
          1    1    1    2  501    0 -0.12803151020E+03  0.94195539997E+02  0.20358680122E+03  0.25828753936E+03  0.00000000000E+00 0. -1.
         -2    1    1    2    0  502  0.87552664261E+02 -0.81460898081E+02  0.17198500477E+03  0.20947598622E+03  0.00000000000E+00 0.  1.
<mgrwt>
<rscale>  2 0.18473281E+03</rscale>
<asrwt>0</asrwt>
<pdfrwt beam="1">  1       21 0.82345165E-01 0.18473281E+03</pdfrwt>
<pdfrwt beam="2">  1       21 0.98915345E-02 0.18473281E+03</pdfrwt>
<totfact> 0.10688737E+05</totfact>
</mgrwt>
</event>
<event>
 5    1  0.1281005E-004  0.1245844E+03  0.7546771E-02  0.1235720E+00
         21   -1    0    0  503  502  0.00000000000E+00  0.00000000000E+00  0.11780898852E+03  0.11780898852E+03  0.00000000000E+00 0.  1.
         21   -1    0    0  501  503 -0.00000000000E+00 -0.00000000000E+00 -0.15974778754E+03  0.15974778754E+03  0.00000000000E+00 0.  1.
         24    1    1    2    0    0 -0.38908390752E+01 -0.40978596734E+02  0.38794274804E+02  0.98318847282E+02  0.80419002446E+02 0.  0.
          1    1    1    2  501    0 -0.41282163018E+02 -0.45392102426E+02 -0.41992404753E+02  0.74350669150E+02  0.00000000000E+00 0. -1.
         -2    1    1    2    0  502  0.45173002093E+02  0.86370699160E+02 -0.38740669067E+02  0.10488725962E+03  0.00000000000E+00 0.  1.
<mgrwt>
<rscale>  2 0.12458445E+03</rscale>
<asrwt>0</asrwt>
<pdfrwt beam="1">  1       21 0.18124460E-01 0.12458445E+03</pdfrwt>
<pdfrwt beam="2">  1       21 0.24576582E-01 0.12458445E+03</pdfrwt>
<totfact> 0.43801563E+05</totfact>
</mgrwt>
</event>
<event>
 5    1  0.1281005E-004  0.1274545E+03  0.7546771E-02  0.1231282E+00
         21   -1    0    0  503  502  0.00000000000E+00  0.00000000000E+00  0.63632133894E+03  0.63632133894E+03  0.00000000000E+00 0.  1.
         21   -1    0    0  501  503 -0.00000000000E+00 -0.00000000000E+00 -0.25901744328E+02  0.25901744328E+02  0.00000000000E+00 0. -1.
         24    1    1    2    0    0 -0.72137178895E+02  0.21928753955E+02  0.22521234599E+03  0.25074381263E+03  0.80419002446E+02 0.  0.
          1    1    1    2  501    0 -0.32569252436E+02  0.11842760642E+02  0.91819344089E+02  0.98141729823E+02  0.00000000000E+00 0. -1.
         -2    1    1    2    0  502  0.10470643133E+03 -0.33771514597E+02  0.29338790453E+03  0.31333754082E+03  0.00000000000E+00 0.  1.
<mgrwt>
<rscale>  2 0.12745449E+03</rscale>
<asrwt>0</asrwt>
<pdfrwt beam="1">  1       21 0.97895579E-01 0.12745449E+03</pdfrwt>
<pdfrwt beam="2">  1       21 0.39848842E-02 0.12745449E+03</pdfrwt>
<totfact> 0.34572940E+05</totfact>
</mgrwt>
</event>
<event>
 5    1  0.1281005E-004  0.2189716E+03  0.7546771E-02  0.1134652E+00
         21   -1    0    0  501  502  0.00000000000E+00  0.00000000000E+00  0.87024518788E+02  0.87024518788E+02  0.00000000000E+00 0.  1.
         21   -1    0    0  502  503 -0.00000000000E+00 -0.00000000000E+00 -0.56716954189E+03  0.56716954189E+03  0.00000000000E+00 0. -1.
         24    1    1    2    0    0 -0.18476912964E+03  0.35017056879E+02 -0.18529500341E+03  0.27598420205E+03  0.80419002446E+02 0. -1.
          1    1    1    2  501    0  0.15277579515E+02  0.43875235599E+02 -0.35347100358E+02  0.58376863897E+02  0.00000000000E+00 0. -1.
         -2    1    1    2    0  503  0.16949155012E+03 -0.78892292478E+02 -0.25950291933E+03  0.31983299473E+03  0.00000000000E+00 0.  1.
<mgrwt>
<rscale>  2 0.21897159E+03</rscale>
<asrwt>0</asrwt>
<pdfrwt beam="1">  1       21 0.13388387E-01 0.21897159E+03</pdfrwt>
<pdfrwt beam="2">  1       21 0.87256855E-01 0.21897159E+03</pdfrwt>
<totfact> 0.53704660E+04</totfact>
</mgrwt>
</event>
<event>
 5    1  0.1281005E-004  0.1420773E+03  0.7546771E-02  0.1210561E+00
         21   -1    0    0  501  502  0.00000000000E+00  0.00000000000E+00  0.10203857268E+03  0.10203857268E+03  0.00000000000E+00 0. -1.
         21   -1    0    0  502  503 -0.00000000000E+00 -0.00000000000E+00 -0.19955439282E+03  0.19955439282E+03  0.00000000000E+00 0.  1.
         24    1    1    2    0    0  0.13385310409E+02  0.34022181066E+02 -0.33273194035E+02  0.94398075907E+02  0.80419002446E+02 0.  1.
          1    1    1    2  501    0  0.46865638518E+02  0.64861554311E+02 -0.15241275810E+02  0.81459841577E+02  0.00000000000E+00 0. -1.
         -2    1    1    2    0  503 -0.60250948928E+02 -0.98883735377E+02 -0.49001350300E+02  0.12573504802E+03  0.00000000000E+00 0.  1.
<mgrwt>
<rscale>  2 0.14207730E+03</rscale>
<asrwt>0</asrwt>
<pdfrwt beam="1">  1       21 0.15698242E-01 0.14207730E+03</pdfrwt>
<pdfrwt beam="2">  1       21 0.30700676E-01 0.14207730E+03</pdfrwt>
<totfact> 0.37119353E+05</totfact>
</mgrwt>
</event>
<event>
 5    1  0.1281005E-004  0.2000127E+03  0.7546771E-02  0.1149728E+00
         21   -1    0    0  503  502  0.00000000000E+00  0.00000000000E+00  0.88906530602E+02  0.88906530602E+02  0.00000000000E+00 0.  1.
         21   -1    0    0  501  503 -0.00000000000E+00 -0.00000000000E+00 -0.53515373628E+03  0.53515373628E+03  0.00000000000E+00 0. -1.
         24    1    1    2    0    0 -0.10369049177E+03  0.95837794207E+02 -0.30098563377E+03  0.34204702684E+03  0.80419002446E+02 0. -1.
          1    1    1    2  501    0 -0.98373860879E+01  0.50992096018E+02 -0.54946800845E+02  0.75605019307E+02  0.00000000000E+00 0. -1.
         -2    1    1    2    0  502  0.11352787786E+03 -0.14682989023E+03 -0.90314771069E+02  0.20640822074E+03  0.00000000000E+00 0.  1.
<mgrwt>
<rscale>  2 0.20001274E+03</rscale>
<asrwt>0</asrwt>
<pdfrwt beam="1">  1       21 0.13677928E-01 0.20001274E+03</pdfrwt>
<pdfrwt beam="2">  1       21 0.82331344E-01 0.20001274E+03</pdfrwt>
<totfact> 0.59552680E+04</totfact>
</mgrwt>
</event>
<event>
 5    1  0.1281005E-004  0.1395091E+03  0.7546771E-02  0.1213991E+00
         21   -1    0    0  501  502  0.00000000000E+00  0.00000000000E+00  0.44304493790E+03  0.44304493790E+03  0.00000000000E+00 0. -1.
         21   -1    0    0  502  503 -0.00000000000E+00 -0.00000000000E+00 -0.45726711347E+02  0.45726711347E+02  0.00000000000E+00 0.  1.
         24    1    1    2    0    0 -0.80825348442E+02  0.68104229041E+02  0.14499322832E+03  0.19662445213E+03  0.80419002446E+02 0.  1.
          1    1    1    2  501    0  0.99307738476E+02 -0.77033730058E+02  0.22774993991E+03  0.26012738728E+03  0.00000000000E+00 0. -1.
         -2    1    1    2    0  503 -0.18482390033E+02  0.89295010164E+01  0.24575058331E+02  0.32019809832E+02  0.00000000000E+00 0.  1.
<mgrwt>
<rscale>  2 0.13950906E+03</rscale>
<asrwt>0</asrwt>
<pdfrwt beam="1">  1       21 0.68160757E-01 0.13950906E+03</pdfrwt>
<pdfrwt beam="2">  1       21 0.70348790E-02 0.13950906E+03</pdfrwt>
<totfact> 0.29833362E+05</totfact>
</mgrwt>
</event>
<event>
 5    1  0.1281005E-004  0.1175680E+03  0.7546771E-02  0.1247164E+00
         21   -1    0    0  503  502  0.00000000000E+00  0.00000000000E+00  0.16569786862E+03  0.16569786862E+03  0.00000000000E+00 0. -1.
         21   -1    0    0  501  503 -0.00000000000E+00 -0.00000000000E+00 -0.92426327729E+02  0.92426327729E+02  0.00000000000E+00 0.  1.
         24    1    1    2    0    0 -0.20459041740E+02  0.45992254429E+02 -0.92086784982E+01  0.95319859266E+02  0.80419002446E+02 0.  1.
          1    1    1    2  501    0  0.57285324898E+02 -0.74295380689E+02  0.58079553499E+02  0.11033878092E+03  0.00000000000E+00 0. -1.
         -2    1    1    2    0  502 -0.36826283158E+02  0.28303126260E+02  0.24400665890E+02  0.52465556160E+02  0.00000000000E+00 0.  1.
<mgrwt>
<rscale>  2 0.11756798E+03</rscale>
<asrwt>0</asrwt>
<pdfrwt beam="1">  1       21 0.25491980E-01 0.11756798E+03</pdfrwt>
<pdfrwt beam="2">  1       21 0.14219435E-01 0.11756798E+03</pdfrwt>
<totfact> 0.63448189E+05</totfact>
</mgrwt>
</event>
<event>
 5    1  0.1281005E-004  0.1873631E+03  0.7546771E-02  0.1160861E+00
         21   -1    0    0  503  502  0.00000000000E+00  0.00000000000E+00  0.72444390664E+02  0.72444390664E+02  0.00000000000E+00 0.  1.
         21   -1    0    0  501  503 -0.00000000000E+00 -0.00000000000E+00 -0.49295264474E+03  0.49295264474E+03  0.00000000000E+00 0. -1.
         24    1    1    2    0    0  0.10122204742E+03 -0.78721233049E+02 -0.18125009324E+03  0.23613925483E+03  0.80419002446E+02 0.  1.
          1    1    1    2  501    0 -0.15106855044E+03  0.84648064694E+02 -0.20565414414E+03  0.26885056963E+03  0.00000000000E+00 0. -1.
         -2    1    1    2    0  502  0.49846503017E+02 -0.59268316449E+01 -0.33604016695E+02  0.60407210947E+02  0.00000000000E+00 0.  1.
<mgrwt>
<rscale>  2 0.18736309E+03</rscale>
<asrwt>0</asrwt>
<pdfrwt beam="1">  1       21 0.11145290E-01 0.18736309E+03</pdfrwt>
<pdfrwt beam="2">  1       21 0.75838872E-01 0.18736309E+03</pdfrwt>
<totfact> 0.10404705E+05</totfact>
</mgrwt>
</event>
<event>
 5    1  0.1281005E-004  0.8743831E+02  0.7546771E-02  0.1309177E+00
         21   -1    0    0  503  502  0.00000000000E+00  0.00000000000E+00  0.16050909773E+02  0.16050909773E+02  0.00000000000E+00 0.  1.
         21   -1    0    0  501  503 -0.00000000000E+00 -0.00000000000E+00 -0.49735525955E+03  0.49735525955E+03  0.00000000000E+00 0. -1.
         24    1    1    2    0    0 -0.26520212245E+02 -0.94749756986E+01 -0.18417979054E+03  0.20293473832E+03  0.80419002446E+02 0.  1.
          1    1    1    2  501    0  0.53158420061E+02  0.25100266318E+02 -0.18078995971E+03  0.19010747099E+03  0.00000000000E+00 0. -1.
         -2    1    1    2    0  502 -0.26638207815E+02 -0.15625290619E+02 -0.11633459953E+03  0.12036396001E+03  0.00000000000E+00 0.  1.
<mgrwt>
<rscale>  2 0.87438307E+02</rscale>
<asrwt>0</asrwt>
<pdfrwt beam="1">  1       21 0.24693706E-02 0.87438307E+02</pdfrwt>
<pdfrwt beam="2">  1       21 0.76516199E-01 0.87438307E+02</pdfrwt>
<totfact> 0.13200964E+06</totfact>
</mgrwt>
</event>
<event>
 5    1  0.1281005E-004  0.1433566E+03  0.7546771E-02  0.1208883E+00
         21   -1    0    0  501  502  0.00000000000E+00  0.00000000000E+00  0.22275659902E+03  0.22275659902E+03  0.00000000000E+00 0.  1.
         21   -1    0    0  502  503 -0.00000000000E+00 -0.00000000000E+00 -0.10086086894E+03  0.10086086894E+03  0.00000000000E+00 0. -1.
         24    1    1    2    0    0  0.46299756662E+02  0.33771604564E+02  0.79887341185E+02  0.12701729007E+03  0.80419002446E+02 0.  0.
          1    1    1    2  501    0  0.64644536130E+02  0.15646490792E+02  0.34472430849E+02  0.74913798557E+02  0.00000000000E+00 0. -1.
         -2    1    1    2    0  503 -0.11094429279E+03 -0.49418095356E+02  0.75359580498E+01  0.12168637933E+03  0.00000000000E+00 0.  1.
<mgrwt>
<rscale>  2 0.14335656E+03</rscale>
<asrwt>0</asrwt>
<pdfrwt beam="1">  1       21 0.34270246E-01 0.14335656E+03</pdfrwt>
<pdfrwt beam="2">  1       21 0.15517057E-01 0.14335656E+03</pdfrwt>
<totfact> 0.30578726E+05</totfact>
</mgrwt>
</event>
<event>
 5    1  0.1281005E-004  0.2022239E+03  0.7546771E-02  0.1147876E+00
         21   -1    0    0  501  502  0.00000000000E+00  0.00000000000E+00  0.54807335865E+02  0.54807335865E+02  0.00000000000E+00 0.  1.
         21   -1    0    0  502  503 -0.00000000000E+00 -0.00000000000E+00 -0.75291893946E+03  0.75291893946E+03  0.00000000000E+00 0. -1.
         24    1    1    2    0    0 -0.91838627374E+02  0.83331130180E+02 -0.23953605727E+03  0.28146607153E+03  0.80419002446E+02 0.  1.
          1    1    1    2  501    0  0.11756945268E+03 -0.14684818138E+03 -0.30944328440E+03  0.36213548686E+03  0.00000000000E+00 0. -1.
         -2    1    1    2    0  503 -0.25730825306E+02  0.63517051203E+02 -0.14913226192E+03  0.16412471694E+03  0.00000000000E+00 0.  1.
<mgrwt>
<rscale>  2 0.20222392E+03</rscale>
<asrwt>0</asrwt>
<pdfrwt beam="1">  1       21 0.84318985E-02 0.20222392E+03</pdfrwt>
<pdfrwt beam="2">  1       21 0.11583367E+00 0.20222392E+03</pdfrwt>
<totfact> 0.62766382E+04</totfact>
</mgrwt>
</event>
<event>
 5    1  0.1281005E-004  0.1355976E+03  0.7546771E-02  0.1219379E+00
         21   -1    0    0  503  502  0.00000000000E+00  0.00000000000E+00  0.56272682823E+03  0.56272682823E+03  0.00000000000E+00 0.  1.
         21   -1    0    0  501  503 -0.00000000000E+00 -0.00000000000E+00 -0.35343309883E+02  0.35343309883E+02  0.00000000000E+00 0. -1.
         24    1    1    2    0    0  0.43023235403E+02 -0.36802567997E+02  0.27586632407E+03  0.29287347525E+03  0.80419002446E+02 0.  1.
          1    1    1    2  501    0 -0.52971509690E+01 -0.64515047868E+02  0.91712379420E+02  0.11225600986E+03  0.00000000000E+00 0. -1.
         -2    1    1    2    0  502 -0.37726084434E+02  0.10131761586E+03  0.15980481486E+03  0.19294065301E+03  0.00000000000E+00 0.  1.
<mgrwt>
<rscale>  2 0.13559760E+03</rscale>
<asrwt>0</asrwt>
<pdfrwt beam="1">  1       21 0.86573352E-01 0.13559760E+03</pdfrwt>
<pdfrwt beam="2">  1       21 0.54374327E-02 0.13559760E+03</pdfrwt>
<totfact> 0.27204012E+05</totfact>
</mgrwt>
</event>
<event>
 5    1  0.1281005E-004  0.1593302E+03  0.7546771E-02  0.1189455E+00
         21   -1    0    0  501  502  0.00000000000E+00  0.00000000000E+00  0.14669723011E+04  0.14669723011E+04  0.00000000000E+00 0. -1.
         21   -1    0    0  502  503 -0.00000000000E+00 -0.00000000000E+00 -0.19317683263E+02  0.19317683263E+02  0.00000000000E+00 0.  1.
         24    1    1    2    0    0  0.65873565734E+02 -0.39114570921E+02  0.44440138888E+03  0.45807104986E+03  0.80419002446E+02 0. -1.
          1    1    1    2  501    0 -0.11215849856E+03  0.86282187771E+02  0.84429435698E+03  0.85607073653E+03  0.00000000000E+00 0. -1.
         -2    1    1    2    0  503  0.46284932829E+02 -0.47167616850E+02  0.15895887201E+03  0.17214819801E+03  0.00000000000E+00 0.  1.
<mgrwt>
<rscale>  2 0.15933017E+03</rscale>
<asrwt>0</asrwt>
<pdfrwt beam="1">  1       21 0.22568796E+00 0.15933017E+03</pdfrwt>
<pdfrwt beam="2">  1       21 0.29719524E-02 0.15933017E+03</pdfrwt>
<totfact> 0.61146664E+04</totfact>
</mgrwt>
</event>
<event>
 5    1  0.1281005E-004  0.1499335E+03  0.7546771E-02  0.1200555E+00
         21   -1    0    0  501  502  0.00000000000E+00  0.00000000000E+00  0.21248290469E+03  0.21248290469E+03  0.00000000000E+00 0.  1.
         21   -1    0    0  502  503 -0.00000000000E+00 -0.00000000000E+00 -0.10864814996E+03  0.10864814996E+03  0.00000000000E+00 0. -1.
         24    1    1    2    0    0  0.38619312458E+02  0.27519885837E+02  0.26939088154E+02  0.97168543450E+02  0.80419002446E+02 0.  0.
          1    1    1    2  501    0  0.97165034933E+01 -0.11025782380E+03  0.62362346826E+02  0.12704432475E+03  0.00000000000E+00 0. -1.
         -2    1    1    2    0  503 -0.48335815951E+02  0.82737937964E+02  0.14533319752E+02  0.96918186452E+02  0.00000000000E+00 0.  1.
<mgrwt>
<rscale>  2 0.14993352E+03</rscale>
<asrwt>0</asrwt>
<pdfrwt beam="1">  1       21 0.32689678E-01 0.14993352E+03</pdfrwt>
<pdfrwt beam="2">  1       21 0.16715100E-01 0.14993352E+03</pdfrwt>
<totfact> 0.29265838E+05</totfact>
</mgrwt>
</event>
<event>
 5    1  0.1281005E-004  0.1552481E+03  0.7546771E-02  0.1194168E+00
         21   -1    0    0  501  502  0.00000000000E+00  0.00000000000E+00  0.19359595381E+03  0.19359595381E+03  0.00000000000E+00 0.  1.
         21   -1    0    0  502  503 -0.00000000000E+00 -0.00000000000E+00 -0.13184549749E+03  0.13184549749E+03  0.00000000000E+00 0. -1.
         24    1    1    2    0    0  0.25252426180E+02  0.20595975950E+01  0.43864328725E+02  0.95043265196E+02  0.80419002446E+02 0.  1.
          1    1    1    2  501    0 -0.12512685862E+03  0.10271582256E+02  0.29876333706E+02  0.12905359920E+03  0.00000000000E+00 0. -1.
         -2    1    1    2    0  503  0.99874432438E+02 -0.12331179851E+02 -0.11990206111E+02  0.10134458690E+03  0.00000000000E+00 0.  1.
<mgrwt>
<rscale>  2 0.15524814E+03</rscale>
<asrwt>0</asrwt>
<pdfrwt beam="1">  1       21 0.29783993E-01 0.15524814E+03</pdfrwt>
<pdfrwt beam="2">  1       21 0.20283923E-01 0.15524814E+03</pdfrwt>
<totfact> 0.24533307E+05</totfact>
</mgrwt>
</event>
<event>
 5    1  0.1281005E-004  0.1534889E+03  0.7546771E-02  0.1196250E+00
         21   -1    0    0  501  502  0.00000000000E+00  0.00000000000E+00  0.11539370855E+04  0.11539370855E+04  0.00000000000E+00 0.  1.
         21   -1    0    0  502  503 -0.00000000000E+00 -0.00000000000E+00 -0.23334561071E+02  0.23334561071E+02  0.00000000000E+00 0.  1.
         24    1    1    2    0    0 -0.47914993770E+02 -0.75165156766E+02  0.61574644121E+03  0.62734085092E+03  0.80419002446E+02 0.  1.
          1    1    1    2  501    0 -0.50897536417E+02 -0.15099257240E+02  0.21680713996E+03  0.22321264015E+03  0.00000000000E+00 0. -1.
         -2    1    1    2    0  503  0.98812530186E+02  0.90264414006E+02  0.29804894326E+03  0.32671815551E+03  0.00000000000E+00 0.  1.
<mgrwt>
<rscale>  2 0.15348886E+03</rscale>
<asrwt>0</asrwt>
<pdfrwt beam="1">  1       21 0.17752874E+00 0.15348886E+03</pdfrwt>
<pdfrwt beam="2">  1       21 0.35899334E-02 0.15348886E+03</pdfrwt>
<totfact> 0.90798767E+04</totfact>
</mgrwt>
</event>
<event>
 5    1  0.1281005E-004  0.1264451E+03  0.7546771E-02  0.1232828E+00
         21   -1    0    0  503  502  0.00000000000E+00  0.00000000000E+00  0.51921066903E+03  0.51921066903E+03  0.00000000000E+00 0.  1.
         21   -1    0    0  501  503 -0.00000000000E+00 -0.00000000000E+00 -0.57948640742E+02  0.57948640742E+02  0.00000000000E+00 0. -1.
         24    1    1    2    0    0 -0.16312265368E+02 -0.34504501605E+02  0.45094089013E+01  0.89130249385E+02  0.80419002446E+02 0. -1.
          1    1    1    2  501    0 -0.46762970037E+02 -0.43288286203E+02  0.11022581769E+03  0.12731999833E+03  0.00000000000E+00 0. -1.
         -2    1    1    2    0  502  0.63075235405E+02  0.77792787808E+02  0.34652680169E+03  0.36070906205E+03  0.00000000000E+00 0.  1.
<mgrwt>
<rscale>  2 0.12644512E+03</rscale>
<asrwt>0</asrwt>
<pdfrwt beam="1">  1       21 0.79878561E-01 0.12644512E+03</pdfrwt>
<pdfrwt beam="2">  1       21 0.89151758E-02 0.12644512E+03</pdfrwt>
<totfact> 0.14032072E+05</totfact>
</mgrwt>
</event>
<event>
 5    1  0.1281005E-004  0.1286858E+03  0.7546771E-02  0.1229419E+00
         21   -1    0    0  501  502  0.00000000000E+00  0.00000000000E+00  0.28709132517E+03  0.28709132517E+03  0.00000000000E+00 0. -1.
         21   -1    0    0  502  503 -0.00000000000E+00 -0.00000000000E+00 -0.93416490899E+02  0.93416490899E+02  0.00000000000E+00 0. -1.
         24    1    1    2    0    0 -0.28645822320E+02 -0.58629249477E+02 -0.25993509351E+02  0.10677476534E+03  0.80419002446E+02 0. -1.
          1    1    1    2  501    0  0.27709139593E+02  0.10440715695E+03  0.19181250442E+03  0.22013788336E+03  0.00000000000E+00 0. -1.
         -2    1    1    2    0  503  0.93668272728E+00 -0.45777907475E+02  0.27855839205E+02  0.53595167367E+02  0.00000000000E+00 0.  1.
<mgrwt>
<rscale>  2 0.12868575E+03</rscale>
<asrwt>0</asrwt>
<pdfrwt beam="1">  1       21 0.44167896E-01 0.12868575E+03</pdfrwt>
<pdfrwt beam="2">  1       21 0.14371768E-01 0.12868575E+03</pdfrwt>
<totfact> 0.21236444E+05</totfact>
</mgrwt>
</event>
<event>
 5    1  0.1281005E-004  0.1563090E+03  0.7546771E-02  0.1192928E+00
         21   -1    0    0  503  502  0.00000000000E+00  0.00000000000E+00  0.14249744963E+03  0.14249744963E+03  0.00000000000E+00 0.  1.
         21   -1    0    0  501  503 -0.00000000000E+00 -0.00000000000E+00 -0.17472411940E+03  0.17472411940E+03  0.00000000000E+00 0. -1.
         24    1    1    2    0    0 -0.44091077144E+02 -0.23543366084E+01 -0.27493481469E+02  0.95774075105E+02  0.80419002446E+02 0.  1.
          1    1    1    2  501    0 -0.51942989498E+02 -0.79314805722E+02  0.54895072124E+01  0.94968664591E+02  0.00000000000E+00 0. -1.
         -2    1    1    2    0  502  0.96034066642E+02  0.81669142331E+02 -0.10222695512E+02  0.12647882933E+03  0.00000000000E+00 0.  1.
<mgrwt>
<rscale>  2 0.15630896E+03</rscale>
<asrwt>0</asrwt>
<pdfrwt beam="1">  1       21 0.21922685E-01 0.15630896E+03</pdfrwt>
<pdfrwt beam="2">  1       21 0.26880634E-01 0.15630896E+03</pdfrwt>
<totfact> 0.25848567E+05</totfact>
</mgrwt>
</event>
<event>
 5    1  0.1281005E-004  0.1021819E+03  0.7546771E-02  0.1275773E+00
         21   -1    0    0  501  502  0.00000000000E+00  0.00000000000E+00  0.88323240141E+02  0.88323240141E+02  0.00000000000E+00 0.  1.
         21   -1    0    0  502  503 -0.00000000000E+00 -0.00000000000E+00 -0.12258706614E+03  0.12258706614E+03  0.00000000000E+00 0. -1.
         24    1    1    2    0    0  0.29978383786E+02  0.14596702243E+02 -0.16704319799E+02  0.88645459360E+02  0.80419002446E+02 0.  1.
          1    1    1    2  501    0 -0.65108864972E+02 -0.37722778798E+02  0.32947298023E+01  0.75319503335E+02  0.00000000000E+00 0. -1.
         -2    1    1    2    0  503  0.35130481186E+02  0.23126076555E+02 -0.20854236004E+02  0.46945343587E+02  0.00000000000E+00 0.  1.
<mgrwt>
<rscale>  2 0.10218192E+03</rscale>
<asrwt>0</asrwt>
<pdfrwt beam="1">  1       21 0.13588191E-01 0.10218192E+03</pdfrwt>
<pdfrwt beam="2">  1       21 0.18859549E-01 0.10218192E+03</pdfrwt>
<totfact> 0.12025052E+06</totfact>
</mgrwt>
</event>
<event>
 5    1  0.1281005E-004  0.1063427E+03  0.7546771E-02  0.1267496E+00
         21   -1    0    0  501  502  0.00000000000E+00  0.00000000000E+00  0.14474843786E+03  0.14474843786E+03  0.00000000000E+00 0. -1.
         21   -1    0    0  502  503 -0.00000000000E+00 -0.00000000000E+00 -0.84177761800E+02  0.84177761800E+02  0.00000000000E+00 0.  1.
         24    1    1    2    0    0  0.22313865899E+02 -0.48461994912E+02  0.50236020414E+01  0.96638119260E+02  0.80419002446E+02 0.  1.
          1    1    1    2  501    0  0.39970971919E+02  0.51213666054E+01  0.38721250781E+01  0.40483334160E+02  0.00000000000E+00 0. -1.
         -2    1    1    2    0  503 -0.62284837818E+02  0.43340628307E+02  0.51674948939E+02  0.91804746238E+02  0.00000000000E+00 0.  1.
<mgrwt>
<rscale>  2 0.10634271E+03</rscale>
<asrwt>0</asrwt>
<pdfrwt beam="1">  1       21 0.22268990E-01 0.10634271E+03</pdfrwt>
<pdfrwt beam="2">  1       21 0.12950425E-01 0.10634271E+03</pdfrwt>
<totfact> 0.96491290E+05</totfact>
</mgrwt>
</event>
<event>
 5    1  0.1281005E-004  0.1055481E+03  0.7546771E-02  0.1269044E+00
         21   -1    0    0  501  502  0.00000000000E+00  0.00000000000E+00  0.36574380554E+02  0.36574380554E+02  0.00000000000E+00 0. -1.
         21   -1    0    0  502  503 -0.00000000000E+00 -0.00000000000E+00 -0.32152902738E+03  0.32152902738E+03  0.00000000000E+00 0.  1.
         24    1    1    2    0    0 -0.42846531220E+02  0.50052702544E+02 -0.18075335206E+03  0.20851879653E+03  0.80419002446E+02 0.  0.
          1    1    1    2  501    0  0.28425295332E+02 -0.73948099938E+02 -0.80846250538E+02  0.11319202766E+03  0.00000000000E+00 0. -1.
         -2    1    1    2    0  503  0.14421235889E+02  0.23895397394E+02 -0.23355044232E+02  0.36392583753E+02  0.00000000000E+00 0.  1.
<mgrwt>
<rscale>  2 0.10554808E+03</rscale>
<asrwt>0</asrwt>
<pdfrwt beam="1">  1       21 0.56268279E-02 0.10554808E+03</pdfrwt>
<pdfrwt beam="2">  1       21 0.49466003E-01 0.10554808E+03</pdfrwt>
<totfact> 0.85966692E+05</totfact>
</mgrwt>
</event>
<event>
 5    1  0.1281005E-004  0.1505987E+03  0.7546771E-02  0.1199739E+00
         21   -1    0    0  503  502  0.00000000000E+00  0.00000000000E+00  0.41797566989E+02  0.41797566989E+02  0.00000000000E+00 0.  1.
         21   -1    0    0  501  503 -0.00000000000E+00 -0.00000000000E+00 -0.54337337345E+03  0.54337337345E+03  0.00000000000E+00 0. -1.
         24    1    1    2    0    0  0.70037253109E+02 -0.51772016773E+02 -0.19693550360E+03  0.22986162593E+03  0.80419002446E+02 0. -1.
          1    1    1    2  501    0 -0.10984591625E+03  0.78228461552E+02 -0.23224242231E+03  0.26855606535E+03  0.00000000000E+00 0. -1.
         -2    1    1    2    0  502  0.39808663142E+02 -0.26456444780E+02 -0.72397880551E+02  0.86753249160E+02  0.00000000000E+00 0.  1.
<mgrwt>
<rscale>  2 0.15059873E+03</rscale>
<asrwt>0</asrwt>
<pdfrwt beam="1">  1       21 0.64303954E-02 0.15059873E+03</pdfrwt>
<pdfrwt beam="2">  1       21 0.83595898E-01 0.15059873E+03</pdfrwt>
<totfact> 0.22066831E+05</totfact>
</mgrwt>
</event>
<event>
 5    1  0.1281005E-004  0.1020100E+03  0.7546771E-02  0.1276125E+00
         21   -1    0    0  501  502  0.00000000000E+00  0.00000000000E+00  0.24701620233E+02  0.24701620233E+02  0.00000000000E+00 0. -1.
         21   -1    0    0  502  503 -0.00000000000E+00 -0.00000000000E+00 -0.42917427300E+03  0.42917427300E+03  0.00000000000E+00 0.  1.
         24    1    1    2    0    0  0.62413135958E+01  0.38757640610E+02 -0.14947722115E+03  0.17421757746E+03  0.80419002446E+02 0. -1.
          1    1    1    2  501    0 -0.53373071821E+02  0.21426197982E+00 -0.12895535282E+03  0.13956437126E+03  0.00000000000E+00 0. -1.
         -2    1    1    2    0  503  0.47131758225E+02 -0.38971902589E+02 -0.12604007880E+03  0.14009394451E+03  0.00000000000E+00 0.  1.
<mgrwt>
<rscale>  2 0.10201001E+03</rscale>
<asrwt>0</asrwt>
<pdfrwt beam="1">  1       21 0.38002495E-02 0.10201001E+03</pdfrwt>
<pdfrwt beam="2">  1       21 0.66026807E-01 0.10201001E+03</pdfrwt>
<totfact> 0.90201841E+05</totfact>
</mgrwt>
</event>
<event>
 5    1  0.1281005E-004  0.2209959E+03  0.7546771E-02  0.1133143E+00
         21   -1    0    0  501  502  0.00000000000E+00  0.00000000000E+00  0.17063660944E+04  0.17063660944E+04  0.00000000000E+00 0. -1.
         21   -1    0    0  502  503 -0.00000000000E+00 -0.00000000000E+00 -0.28723449668E+02  0.28723449668E+02  0.00000000000E+00 0.  1.
         24    1    1    2    0    0 -0.12920095939E+01 -0.38754721617E+02  0.36884550394E+03  0.37949679770E+03  0.80419002446E+02 0.  0.
          1    1    1    2  501    0  0.78247557013E+02 -0.13872251263E+03  0.62285935137E+03  0.64289998233E+03  0.00000000000E+00 0. -1.
         -2    1    1    2    0  503 -0.76955547419E+02  0.17747723425E+03  0.68593778945E+03  0.71269276407E+03  0.00000000000E+00 0.  1.
<mgrwt>
<rscale>  2 0.22099588E+03</rscale>
<asrwt>0</asrwt>
<pdfrwt beam="1">  1       21 0.26251778E+00 0.22099588E+03</pdfrwt>
<pdfrwt beam="2">  1       21 0.44189936E-02 0.22099588E+03</pdfrwt>
<totfact> 0.18165598E+04</totfact>
</mgrwt>
</event>
<event>
 5    1  0.1281005E-004  0.1222195E+03  0.7546771E-02  0.1239480E+00
         21   -1    0    0  501  502  0.00000000000E+00  0.00000000000E+00  0.20214401310E+03  0.20214401310E+03  0.00000000000E+00 0. -1.
         21   -1    0    0  502  503 -0.00000000000E+00 -0.00000000000E+00 -0.82156386153E+02  0.82156386153E+02  0.00000000000E+00 0.  1.
         24    1    1    2    0    0  0.12107438419E+02  0.41654759641E+02  0.29147884057E+01  0.91418931364E+02  0.80419002446E+02 0.  1.
          1    1    1    2  501    0  0.61018327953E+02  0.12229950920E+02  0.52720376837E+02  0.81561303199E+02  0.00000000000E+00 0. -1.
         -2    1    1    2    0  503 -0.73125766372E+02 -0.53884710561E+02  0.64352461706E+02  0.11132016469E+03  0.00000000000E+00 0.  1.
<mgrwt>
<rscale>  2 0.12221951E+03</rscale>
<asrwt>0</asrwt>
<pdfrwt beam="1">  1       21 0.31099079E-01 0.12221951E+03</pdfrwt>
<pdfrwt beam="2">  1       21 0.12639444E-01 0.12221951E+03</pdfrwt>
<totfact> 0.53525372E+05</totfact>
</mgrwt>
</event>
<event>
 5    1  0.1281005E-004  0.1437318E+03  0.7546771E-02  0.1208394E+00
         21   -1    0    0  501  502  0.00000000000E+00  0.00000000000E+00  0.85616520046E+02  0.85616520046E+02  0.00000000000E+00 0.  1.
         21   -1    0    0  502  503 -0.00000000000E+00 -0.00000000000E+00 -0.27186267326E+03  0.27186267326E+03  0.00000000000E+00 0. -1.
         24    1    1    2    0    0  0.49166547119E+02 -0.24476370438E+01 -0.99639427180E+02  0.13718079926E+03  0.80419002446E+02 0.  0.
          1    1    1    2  501    0 -0.11971131982E+03 -0.14600582082E+02 -0.20897008013E+02  0.12239551476E+03  0.00000000000E+00 0. -1.
         -2    1    1    2    0  503  0.70544772697E+02  0.17048219126E+02 -0.65709718024E+02  0.97902879289E+02  0.00000000000E+00 0.  1.
<mgrwt>
<rscale>  2 0.14373184E+03</rscale>
<asrwt>0</asrwt>
<pdfrwt beam="1">  1       21 0.13171773E-01 0.14373184E+03</pdfrwt>
<pdfrwt beam="2">  1       21 0.41825026E-01 0.14373184E+03</pdfrwt>
<totfact> 0.27628789E+05</totfact>
</mgrwt>
</event>
<event>
 5    1  0.1281005E-004  0.2045974E+03  0.7546771E-02  0.1145917E+00
         21   -1    0    0  501  502  0.00000000000E+00  0.00000000000E+00  0.47571131702E+03  0.47571131702E+03  0.00000000000E+00 0.  1.
         21   -1    0    0  502  503 -0.00000000000E+00 -0.00000000000E+00 -0.89256209459E+02  0.89256209459E+02  0.00000000000E+00 0. -1.
         24    1    1    2    0    0  0.29595730998E+02  0.16100552796E+01  0.87188956151E+02  0.12226049894E+03  0.80419002446E+02 0.  0.
          1    1    1    2  501    0 -0.14031544231E+03 -0.10244420594E+03  0.18912795946E+03  0.25681242908E+03  0.00000000000E+00 0. -1.
         -2    1    1    2    0  503  0.11071971131E+03  0.10083415066E+03  0.11013819195E+03  0.18589459846E+03  0.00000000000E+00 0.  1.
<mgrwt>
<rscale>  2 0.20459740E+03</rscale>
<asrwt>0</asrwt>
<pdfrwt beam="1">  1       21 0.73186355E-01 0.20459740E+03</pdfrwt>
<pdfrwt beam="2">  1       21 0.13731725E-01 0.20459740E+03</pdfrwt>
<totfact> 0.76907079E+04</totfact>
</mgrwt>
</event>
<event>
 5    1  0.1281005E-004  0.2774403E+03  0.7546771E-02  0.1097095E+00
         21   -1    0    0  501  502  0.00000000000E+00  0.00000000000E+00  0.29121530340E+02  0.29121530340E+02  0.00000000000E+00 0. -1.
         21   -1    0    0  502  503 -0.00000000000E+00 -0.00000000000E+00 -0.31913718855E+04  0.31913718855E+04  0.00000000000E+00 0.  1.
         24    1    1    2    0    0  0.10927983660E+03  0.16275683118E+02 -0.94488926874E+03  0.95471981580E+03  0.80419002446E+02 0.  0.
          1    1    1    2  501    0 -0.23028450200E+03 -0.11925789994E+03 -0.83588736453E+03  0.87519202735E+03  0.00000000000E+00 0. -1.
         -2    1    1    2    0  503  0.12100466540E+03  0.10298221682E+03 -0.13814737219E+04  0.13905815727E+04  0.00000000000E+00 0.  1.
<mgrwt>
<rscale>  2 0.27744034E+03</rscale>
<asrwt>0</asrwt>
<pdfrwt beam="1">  1       21 0.44802345E-02 0.27744034E+03</pdfrwt>
<pdfrwt beam="2">  1       21 0.49098040E+00 0.27744034E+03</pdfrwt>
<totfact> 0.63221671E+02</totfact>
</mgrwt>
</event>
<event>
 5    1  0.1281005E-004  0.4753175E+03  0.7546771E-02  0.1020430E+00
         21   -1    0    0  503  502  0.00000000000E+00  0.00000000000E+00  0.76138886489E+03  0.76138886489E+03  0.00000000000E+00 0.  1.
         21   -1    0    0  501  503 -0.00000000000E+00 -0.00000000000E+00 -0.31042019042E+03  0.31042019042E+03  0.00000000000E+00 0. -1.
         24    1    1    2    0    0  0.19328401341E+03 -0.23244464350E+03  0.46577414668E+02  0.31626870481E+03  0.80419002446E+02 0. -1.
          1    1    1    2  501    0 -0.15145014908E+02 -0.18412897000E+03  0.12926411016E+03  0.22548183795E+03  0.00000000000E+00 0. -1.
         -2    1    1    2    0  502 -0.17813899850E+03  0.41657361350E+03  0.27512714964E+03  0.53005851254E+03  0.00000000000E+00 0.  1.
<mgrwt>
<rscale>  2 0.47531751E+03</rscale>
<asrwt>0</asrwt>
<pdfrwt beam="1">  1       21 0.11713675E+00 0.47531751E+03</pdfrwt>
<pdfrwt beam="2">  1       21 0.47756952E-01 0.47531751E+03</pdfrwt>
<totfact> 0.20040811E+03</totfact>
</mgrwt>
</event>
<event>
 5    1  0.1281005E-004  0.8745471E+02  0.7546771E-02  0.1309135E+00
         21   -1    0    0  501  502  0.00000000000E+00  0.00000000000E+00  0.63362787943E+02  0.63362787943E+02  0.00000000000E+00 0. -1.
         21   -1    0    0  502  503 -0.00000000000E+00 -0.00000000000E+00 -0.13561529550E+03  0.13561529550E+03  0.00000000000E+00 0.  1.
         24    1    1    2    0    0  0.12653786798E+02 -0.34818675155E+02 -0.67237249947E+02  0.11117788537E+03  0.80419002446E+02 0.  1.
          1    1    1    2  501    0  0.20146808467E+01 -0.24845287523E+02  0.53416444792E+01  0.25492752240E+02  0.00000000000E+00 0. -1.
         -2    1    1    2    0  503 -0.14668467645E+02  0.59663962678E+02 -0.10356902087E+02  0.62307445834E+02  0.00000000000E+00 0.  1.
<mgrwt>
<rscale>  2 0.87454708E+02</rscale>
<asrwt>0</asrwt>
<pdfrwt beam="1">  1       21 0.97481212E-02 0.87454708E+02</pdfrwt>
<pdfrwt beam="2">  1       21 0.20863892E-01 0.87454708E+02</pdfrwt>
<totfact> 0.17804819E+06</totfact>
</mgrwt>
</event>
<event>
 5    1  0.1281005E-004  0.1549536E+03  0.7546771E-02  0.1194515E+00
         21   -1    0    0  503  502  0.00000000000E+00  0.00000000000E+00  0.10946932108E+03  0.10946932108E+03  0.00000000000E+00 0.  1.
         21   -1    0    0  501  503 -0.00000000000E+00 -0.00000000000E+00 -0.23827583697E+03  0.23827583697E+03  0.00000000000E+00 0.  1.
         24    1    1    2    0    0  0.61585133014E+02  0.47965476983E+00 -0.30226953049E+01  0.10133761058E+03  0.80419002446E+02 0.  1.
          1    1    1    2  501    0  0.71983177552E+02  0.16843692317E+02 -0.65791823088E+02  0.98963891428E+02  0.00000000000E+00 0. -1.
         -2    1    1    2    0  502 -0.13356831057E+03 -0.17323347086E+02 -0.59991997502E+02  0.14744365604E+03  0.00000000000E+00 0.  1.
<mgrwt>
<rscale>  2 0.15495356E+03</rscale>
<asrwt>0</asrwt>
<pdfrwt beam="1">  1       21 0.16841434E-01 0.15495356E+03</pdfrwt>
<pdfrwt beam="2">  1       21 0.36657820E-01 0.15495356E+03</pdfrwt>
<totfact> 0.23010262E+05</totfact>
</mgrwt>
</event>
<event>
 5    1  0.1281005E-004  0.1566046E+03  0.7546771E-02  0.1192584E+00
         21   -1    0    0  503  502  0.00000000000E+00  0.00000000000E+00  0.24036461019E+02  0.24036461019E+02  0.00000000000E+00 0.  1.
         21   -1    0    0  501  503 -0.00000000000E+00 -0.00000000000E+00 -0.11529172256E+04  0.11529172256E+04  0.00000000000E+00 0. -1.
         24    1    1    2    0    0  0.42084320993E+02 -0.55006813689E+02 -0.21471783405E+03  0.23951576950E+03  0.80419002446E+02 0.  1.
          1    1    1    2  501    0 -0.68383430334E+01 -0.73503525071E+02 -0.29481780412E+03  0.30391951033E+03  0.00000000000E+00 0. -1.
         -2    1    1    2    0  502 -0.35245977959E+02  0.12851033876E+03 -0.61934512639E+03  0.63351840677E+03  0.00000000000E+00 0.  1.
<mgrwt>
<rscale>  2 0.15660464E+03</rscale>
<asrwt>0</asrwt>
<pdfrwt beam="1">  1       21 0.36979177E-02 0.15660464E+03</pdfrwt>
<pdfrwt beam="2">  1       21 0.17737185E+00 0.15660464E+03</pdfrwt>
<totfact> 0.86499271E+04</totfact>
</mgrwt>
</event>
<event>
 5    1  0.1281005E-004  0.5496244E+03  0.7546771E-02  0.1001581E+00
         21   -1    0    0  503  502  0.00000000000E+00  0.00000000000E+00  0.31903982844E+03  0.31903982844E+03  0.00000000000E+00 0. -1.
         21   -1    0    0  501  503 -0.00000000000E+00 -0.00000000000E+00 -0.10207152215E+04  0.10207152215E+04  0.00000000000E+00 0.  1.
         24    1    1    2    0    0 -0.14472468246E+03  0.26018169011E+03 -0.45599444556E+02  0.31174712650E+03  0.80419002446E+02 0.  1.
          1    1    1    2  501    0 -0.13896004489E+03  0.20401053111E+03 -0.22314761744E+03  0.33275373784E+03  0.00000000000E+00 0. -1.
         -2    1    1    2    0  502  0.28368472735E+03 -0.46419222122E+03 -0.43292833110E+03  0.69525418563E+03  0.00000000000E+00 0.  1.
<mgrwt>
<rscale>  2 0.54962439E+03</rscale>
<asrwt>0</asrwt>
<pdfrwt beam="1">  1       21 0.49083049E-01 0.54962439E+03</pdfrwt>
<pdfrwt beam="2">  1       21 0.15703312E+00 0.54962439E+03</pdfrwt>
<totfact> 0.84797711E+02</totfact>
</mgrwt>
</event>
<event>
 5    1  0.1281005E-004  0.1410409E+03  0.7546771E-02  0.1211935E+00
         21   -1    0    0  501  502  0.00000000000E+00  0.00000000000E+00  0.17990949782E+03  0.17990949782E+03  0.00000000000E+00 0.  1.
         21   -1    0    0  502  503 -0.00000000000E+00 -0.00000000000E+00 -0.11157216411E+03  0.11157216411E+03  0.00000000000E+00 0.  1.
         24    1    1    2    0    0 -0.56262479938E+02 -0.90593407728E+02  0.40492789526E+02  0.13956902998E+03  0.80419002446E+02 0.  1.
          1    1    1    2  501    0 -0.22902023085E+02 -0.59529632110E+01 -0.13162369292E+01  0.23699639492E+02  0.00000000000E+00 0. -1.
         -2    1    1    2    0  503  0.79164503023E+02  0.96546370939E+02  0.29160781111E+02  0.12821299246E+03  0.00000000000E+00 0.  1.
<mgrwt>
<rscale>  2 0.14104087E+03</rscale>
<asrwt>0</asrwt>
<pdfrwt beam="1">  1       21 0.27678384E-01 0.14104087E+03</pdfrwt>
<pdfrwt beam="2">  1       21 0.17164948E-01 0.14104087E+03</pdfrwt>
<totfact> 0.38529609E+05</totfact>
</mgrwt>
</event>
<event>
 5    1  0.1281005E-004  0.2284836E+03  0.7546771E-02  0.1127712E+00
         21   -1    0    0  501  502  0.00000000000E+00  0.00000000000E+00  0.10941433627E+03  0.10941433627E+03  0.00000000000E+00 0.  1.
         21   -1    0    0  502  503 -0.00000000000E+00 -0.00000000000E+00 -0.48849343405E+03  0.48849343405E+03  0.00000000000E+00 0. -1.
         24    1    1    2    0    0 -0.20940829526E+02  0.69841266899E+02 -0.68032413235E+02  0.12810911797E+03  0.80419002446E+02 0.  1.
          1    1    1    2  501    0 -0.32310236274E+02  0.13394478668E+03 -0.15675682265E+03  0.20870519566E+03  0.00000000000E+00 0. -1.
         -2    1    1    2    0  503  0.53251065800E+02 -0.20378605358E+03 -0.15428986190E+03  0.26109345669E+03  0.00000000000E+00 0.  1.
<mgrwt>
<rscale>  2 0.22848365E+03</rscale>
<asrwt>0</asrwt>
<pdfrwt beam="1">  1       21 0.16832975E-01 0.22848365E+03</pdfrwt>
<pdfrwt beam="2">  1       21 0.75152835E-01 0.22848365E+03</pdfrwt>
<totfact> 0.49430526E+04</totfact>
</mgrwt>
</event>
<event>
 5    1  0.1281005E-004  0.1016077E+03  0.7546771E-02  0.1276951E+00
         21   -1    0    0  501  502  0.00000000000E+00  0.00000000000E+00  0.10955017152E+02  0.10955017152E+02  0.00000000000E+00 0. -1.
         21   -1    0    0  502  503 -0.00000000000E+00 -0.00000000000E+00 -0.97350706196E+03  0.97350706196E+03  0.00000000000E+00 0.  1.
         24    1    1    2    0    0 -0.33184434205E+02 -0.23247878296E+02 -0.47289763371E+03  0.48139490903E+03  0.80419002446E+02 0.  0.
          1    1    1    2  501    0  0.12016161259E+02 -0.42462594756E+02 -0.14500204705E+03  0.15156864364E+03  0.00000000000E+00 0. -1.
         -2    1    1    2    0  503  0.21168272946E+02  0.65710473053E+02 -0.34465236404E+03  0.35149852644E+03  0.00000000000E+00 0.  1.
<mgrwt>
<rscale>  2 0.10160767E+03</rscale>
<asrwt>0</asrwt>
<pdfrwt beam="1">  1       21 0.16853869E-02 0.10160767E+03</pdfrwt>
<pdfrwt beam="2">  1       21 0.14977035E+00 0.10160767E+03</pdfrwt>
<totfact> 0.49975929E+05</totfact>
</mgrwt>
</event>
<event>
 5    1  0.1281005E-004  0.3536232E+03  0.7546771E-02  0.1061138E+00
         21   -1    0    0  503  502  0.00000000000E+00  0.00000000000E+00  0.60410937870E+03  0.60410937870E+03  0.00000000000E+00 0.  1.
         21   -1    0    0  501  503 -0.00000000000E+00 -0.00000000000E+00 -0.21325409475E+03  0.21325409475E+03  0.00000000000E+00 0. -1.
         24    1    1    2    0    0  0.10342985003E+00  0.36627054098E+02  0.75632425030E+01  0.88690306016E+02  0.80419002446E+02 0. -1.
          1    1    1    2  501    0  0.30754780813E+03  0.10023039833E+02  0.20954194959E+03  0.37228207619E+03  0.00000000000E+00 0. -1.
         -2    1    1    2    0  502 -0.30765123798E+03 -0.46650093930E+02  0.17375009186E+03  0.35639109124E+03  0.00000000000E+00 0.  1.
<mgrwt>
<rscale>  2 0.35362315E+03</rscale>
<asrwt>0</asrwt>
<pdfrwt beam="1">  1       21 0.92939904E-01 0.35362315E+03</pdfrwt>
<pdfrwt beam="2">  1       21 0.32808323E-01 0.35362315E+03</pdfrwt>
<totfact> 0.79936236E+03</totfact>
</mgrwt>
</event>
<event>
 5    1  0.1281005E-004  0.1171320E+03  0.7546771E-02  0.1247905E+00
         21   -1    0    0  501  502  0.00000000000E+00  0.00000000000E+00  0.12917643245E+03  0.12917643245E+03  0.00000000000E+00 0.  1.
         21   -1    0    0  502  503 -0.00000000000E+00 -0.00000000000E+00 -0.11127077516E+03  0.11127077516E+03  0.00000000000E+00 0. -1.
         24    1    1    2    0    0 -0.17026128802E+02  0.21864052511E+02 -0.12706771279E+02  0.86003510654E+02  0.80419002446E+02 0. -1.
          1    1    1    2  501    0  0.81802716348E+01 -0.85029740672E+02  0.45534587951E+01  0.85543600753E+02  0.00000000000E+00 0. -1.
         -2    1    1    2    0  503  0.88458571671E+01  0.63165688161E+02  0.26058969773E+02  0.68900096194E+02  0.00000000000E+00 0.  1.
<mgrwt>
<rscale>  2 0.11713202E+03</rscale>
<asrwt>0</asrwt>
<pdfrwt beam="1">  1       21 0.19873297E-01 0.11713202E+03</pdfrwt>
<pdfrwt beam="2">  1       21 0.17118581E-01 0.11713202E+03</pdfrwt>
<totfact> 0.72235926E+05</totfact>
</mgrwt>
</event>
<event>
 5    1  0.1281005E-004  0.1466919E+03  0.7546771E-02  0.1204598E+00
         21   -1    0    0  501  502  0.00000000000E+00  0.00000000000E+00  0.44360175253E+03  0.44360175253E+03  0.00000000000E+00 0.  1.
         21   -1    0    0  502  503 -0.00000000000E+00 -0.00000000000E+00 -0.49490094435E+02  0.49490094435E+02  0.00000000000E+00 0. -1.
         24    1    1    2    0    0 -0.65155667002E+02 -0.43867041328E+02  0.16609871784E+03  0.20056315285E+03  0.80419002446E+02 0.  1.
          1    1    1    2  501    0  0.11704465989E+03  0.68772652924E+01  0.16891822391E+03  0.20562129159E+03  0.00000000000E+00 0. -1.
         -2    1    1    2    0  503 -0.51888992887E+02  0.36989776035E+02  0.59094716334E+02  0.86907402519E+02  0.00000000000E+00 0.  1.
<mgrwt>
<rscale>  2 0.14669187E+03</rscale>
<asrwt>0</asrwt>
<pdfrwt beam="1">  1       21 0.68246421E-01 0.14669187E+03</pdfrwt>
<pdfrwt beam="2">  1       21 0.76138610E-02 0.14669187E+03</pdfrwt>
<totfact> 0.25929208E+05</totfact>
</mgrwt>
</event>
<event>
 5    1  0.1281005E-004  0.2538131E+03  0.7546771E-02  0.1110918E+00
         21   -1    0    0  501  502  0.00000000000E+00  0.00000000000E+00  0.10985693223E+03  0.10985693223E+03  0.00000000000E+00 0. -1.
         21   -1    0    0  502  503 -0.00000000000E+00 -0.00000000000E+00 -0.61920420642E+03  0.61920420642E+03  0.00000000000E+00 0.  1.
         24    1    1    2    0    0 -0.13490557447E+03 -0.79497149435E+02 -0.23851250393E+03  0.29643674077E+03  0.80419002446E+02 0.  1.
          1    1    1    2  501    0  0.17670007141E+03  0.16160980423E+03 -0.15772209474E+03  0.28673490061E+03  0.00000000000E+00 0. -1.
         -2    1    1    2    0  503 -0.41794496938E+02 -0.82112654795E+02 -0.11311267551E+03  0.14588949727E+03  0.00000000000E+00 0.  1.
<mgrwt>
<rscale>  2 0.25381310E+03</rscale>
<asrwt>0</asrwt>
<pdfrwt beam="1">  1       21 0.16901067E-01 0.25381310E+03</pdfrwt>
<pdfrwt beam="2">  1       21 0.95262185E-01 0.25381310E+03</pdfrwt>
<totfact> 0.28113995E+04</totfact>
</mgrwt>
</event>
<event>
 5    1  0.1281005E-004  0.8183613E+02  0.7546771E-02  0.1323920E+00
         21   -1    0    0  501  502  0.00000000000E+00  0.00000000000E+00  0.10511168788E+03  0.10511168788E+03  0.00000000000E+00 0. -1.
         21   -1    0    0  502  503 -0.00000000000E+00 -0.00000000000E+00 -0.64783093285E+02  0.64783093285E+02  0.00000000000E+00 0.  1.
         24    1    1    2    0    0 -0.23786937312E+01  0.35015261988E+01  0.90653447051E+01  0.81038973948E+02  0.80419002446E+02 0.  1.
          1    1    1    2  501    0 -0.36705158619E+02  0.15305635130E+02  0.13716152015E+02  0.42067374081E+02  0.00000000000E+00 0. -1.
         -2    1    1    2    0  503  0.39083852350E+02 -0.18807161328E+02  0.17547097880E+02  0.46788433141E+02  0.00000000000E+00 0.  1.
<mgrwt>
<rscale>  2 0.81836131E+02</rscale>
<asrwt>0</asrwt>
<pdfrwt beam="1">  1       21 0.16171029E-01 0.81836131E+02</pdfrwt>
<pdfrwt beam="2">  1       21 0.99666297E-02 0.81836131E+02</pdfrwt>
<totfact> 0.27116524E+06</totfact>
</mgrwt>
</event>
<event>
 5    1  0.1281005E-004  0.3569199E+03  0.7546771E-02  0.1059810E+00
         21   -1    0    0  501  502  0.00000000000E+00  0.00000000000E+00  0.58191133056E+03  0.58191133056E+03  0.00000000000E+00 0. -1.
         21   -1    0    0  502  503 -0.00000000000E+00 -0.00000000000E+00 -0.22037098092E+03  0.22037098092E+03  0.00000000000E+00 0. -1.
         24    1    1    2    0    0 -0.21524673621E+03 -0.16013646725E+03  0.13281961261E+03  0.30997275854E+03  0.80419002446E+02 0. -1.
          1    1    1    2  501    0  0.30829251723E+03  0.10539457317E+03  0.19256063098E+03  0.37845989066E+03  0.00000000000E+00 0. -1.
         -2    1    1    2    0  503 -0.93045781020E+02  0.54741894081E+02  0.36160106047E+02  0.11384966229E+03  0.00000000000E+00 0.  1.
<mgrwt>
<rscale>  2 0.35691995E+03</rscale>
<asrwt>0</asrwt>
<pdfrwt beam="1">  1       21 0.89524819E-01 0.35691995E+03</pdfrwt>
<pdfrwt beam="2">  1       21 0.33903228E-01 0.35691995E+03</pdfrwt>
<totfact> 0.81663151E+03</totfact>
</mgrwt>
</event>
<event>
 5    1  0.1281005E-004  0.1445299E+03  0.7546771E-02  0.1207360E+00
         21   -1    0    0  503  502  0.00000000000E+00  0.00000000000E+00  0.84083852353E+02  0.84083852353E+02  0.00000000000E+00 0.  1.
         21   -1    0    0  501  503 -0.00000000000E+00 -0.00000000000E+00 -0.29467563111E+03  0.29467563111E+03  0.00000000000E+00 0. -1.
         24    1    1    2    0    0 -0.29916824272E+02 -0.69015264018E+02 -0.32893593539E+02  0.11492313732E+03  0.80419002446E+02 0. -1.
          1    1    1    2  501    0  0.10058504578E+02  0.12197250268E+03 -0.16573703422E+03  0.20602725411E+03  0.00000000000E+00 0. -1.
         -2    1    1    2    0  502  0.19858319694E+02 -0.52957238665E+02 -0.11961151001E+02  0.57809092030E+02  0.00000000000E+00 0.  1.
<mgrwt>
<rscale>  2 0.14452989E+03</rscale>
<asrwt>0</asrwt>
<pdfrwt beam="1">  1       21 0.12935977E-01 0.14452989E+03</pdfrwt>
<pdfrwt beam="2">  1       21 0.45334712E-01 0.14452989E+03</pdfrwt>
<totfact> 0.24228267E+05</totfact>
</mgrwt>
</event>
<event>
 5    1  0.1281005E-004  0.2060804E+03  0.7546771E-02  0.1144708E+00
         21   -1    0    0  503  502  0.00000000000E+00  0.00000000000E+00  0.88723598565E+02  0.88723598565E+02  0.00000000000E+00 0.  1.
         21   -1    0    0  501  503 -0.00000000000E+00 -0.00000000000E+00 -0.50633160734E+03  0.50633160734E+03  0.00000000000E+00 0. -1.
         24    1    1    2    0    0 -0.79884101260E+02  0.47422163506E+02 -0.18644365834E+03  0.22329080795E+03  0.80419002446E+02 0. -1.
          1    1    1    2  501    0  0.22512746301E+02  0.11492147872E+03 -0.73218954855E+02  0.13811149614E+03  0.00000000000E+00 0. -1.
         -2    1    1    2    0  502  0.57371354959E+02 -0.16234364222E+03 -0.15794539558E+03  0.23365290181E+03  0.00000000000E+00 0.  1.
<mgrwt>
<rscale>  2 0.20608036E+03</rscale>
<asrwt>0</asrwt>
<pdfrwt beam="1">  1       21 0.13649784E-01 0.20608036E+03</pdfrwt>
<pdfrwt beam="2">  1       21 0.77897170E-01 0.20608036E+03</pdfrwt>
<totfact> 0.67564229E+04</totfact>
</mgrwt>
</event>
<event>
 5    1  0.1281005E-004  0.1297829E+03  0.7546771E-02  0.1227778E+00
         21   -1    0    0  501  502  0.00000000000E+00  0.00000000000E+00  0.46592324163E+03  0.46592324163E+03  0.00000000000E+00 0. -1.
         21   -1    0    0  502  503 -0.00000000000E+00 -0.00000000000E+00 -0.37651382803E+02  0.37651382803E+02  0.00000000000E+00 0.  1.
         24    1    1    2    0    0  0.15377418864E+02 -0.80955958044E+01  0.12613577295E+03  0.15059698820E+03  0.80419002446E+02 0.  1.
          1    1    1    2  501    0  0.21640982809E+02  0.87257309742E+02  0.19495897812E+03  0.21468854974E+03  0.00000000000E+00 0. -1.
         -2    1    1    2    0  503 -0.37018401672E+02 -0.79161713938E+02  0.10717710775E+03  0.13828908649E+03  0.00000000000E+00 0.  1.
<mgrwt>
<rscale>  2 0.12978287E+03</rscale>
<asrwt>0</asrwt>
<pdfrwt beam="1">  1       21 0.71680495E-01 0.12978287E+03</pdfrwt>
<pdfrwt beam="2">  1       21 0.57925208E-02 0.12978287E+03</pdfrwt>
<totfact> 0.37284317E+05</totfact>
</mgrwt>
</event>
<event>
 5    1  0.1281005E-004  0.1796302E+03  0.7546771E-02  0.1168161E+00
         21   -1    0    0  501  502  0.00000000000E+00  0.00000000000E+00  0.21906441368E+03  0.21906441368E+03  0.00000000000E+00 0. -1.
         21   -1    0    0  502  503 -0.00000000000E+00 -0.00000000000E+00 -0.15256905618E+03  0.15256905618E+03  0.00000000000E+00 0. -1.
         24    1    1    2    0    0  0.12598377527E+03  0.63265333999E+02 -0.42152468071E+01  0.16235577716E+03  0.80419002446E+02 0. -1.
          1    1    1    2  501    0 -0.15434355227E+03 -0.67180795766E+02  0.61193690871E+02  0.17910851250E+03  0.00000000000E+00 0. -1.
         -2    1    1    2    0  503  0.28359777001E+02  0.39154617676E+01  0.95169134376E+01  0.30169180197E+02  0.00000000000E+00 0.  1.
<mgrwt>
<rscale>  2 0.17963022E+03</rscale>
<asrwt>0</asrwt>
<pdfrwt beam="1">  1       21 0.33702217E-01 0.17963022E+03</pdfrwt>
<pdfrwt beam="2">  1       21 0.23472163E-01 0.17963022E+03</pdfrwt>
<totfact> 0.14544978E+05</totfact>
</mgrwt>
</event>
<event>
 5    1  0.1281005E-004  0.1290775E+03  0.7546771E-02  0.1228831E+00
         21   -1    0    0  503  502  0.00000000000E+00  0.00000000000E+00  0.12488715621E+03  0.12488715621E+03  0.00000000000E+00 0.  1.
         21   -1    0    0  501  503 -0.00000000000E+00 -0.00000000000E+00 -0.13396786522E+03  0.13396786522E+03  0.00000000000E+00 0. -1.
         24    1    1    2    0    0  0.17047271924E+02 -0.38185972642E+02  0.39541733005E+01  0.90728327591E+02  0.80419002446E+02 0.  0.
          1    1    1    2  501    0  0.69709761550E+01 -0.63066560136E+02 -0.78630243614E+01  0.63936004474E+02  0.00000000000E+00 0. -1.
         -2    1    1    2    0  502 -0.24018248079E+02  0.10125253278E+03 -0.51718579532E+01  0.10419068936E+03  0.00000000000E+00 0.  1.
<mgrwt>
<rscale>  2 0.12907751E+03</rscale>
<asrwt>0</asrwt>
<pdfrwt beam="1">  1       21 0.19213409E-01 0.12907751E+03</pdfrwt>
<pdfrwt beam="2">  1       21 0.20610441E-01 0.12907751E+03</pdfrwt>
<totfact> 0.54664630E+05</totfact>
</mgrwt>
</event>
<event>
 5    1  0.1281005E-004  0.1187318E+03  0.7546771E-02  0.1245204E+00
         21   -1    0    0  501  502  0.00000000000E+00  0.00000000000E+00  0.52334008469E+02  0.52334008469E+02  0.00000000000E+00 0. -1.
         21   -1    0    0  502  503 -0.00000000000E+00 -0.00000000000E+00 -0.30710790616E+03  0.30710790616E+03  0.00000000000E+00 0. -1.
         24    1    1    2    0    0 -0.27910797303E+01  0.18758108738E+02 -0.33855157344E+02  0.89291905583E+02  0.80419002446E+02 0. -1.
          1    1    1    2  501    0  0.61144487661E+02 -0.58192699524E+02 -0.10808644347E+03  0.13714123345E+03  0.00000000000E+00 0. -1.
         -2    1    1    2    0  503 -0.58353407931E+02  0.39434590786E+02 -0.11283229687E+03  0.13300877560E+03  0.00000000000E+00 0.  1.
<mgrwt>
<rscale>  2 0.11873179E+03</rscale>
<asrwt>0</asrwt>
<pdfrwt beam="1">  1       21 0.80513857E-02 0.11873179E+03</pdfrwt>
<pdfrwt beam="2">  1       21 0.47247371E-01 0.11873179E+03</pdfrwt>
<totfact> 0.51330712E+05</totfact>
</mgrwt>
</event>
<event>
 5    1  0.1281005E-004  0.1291809E+03  0.7546771E-02  0.1228676E+00
         21   -1    0    0  503  502  0.00000000000E+00  0.00000000000E+00  0.12837679113E+02  0.12837679113E+02  0.00000000000E+00 0.  1.
         21   -1    0    0  501  503 -0.00000000000E+00 -0.00000000000E+00 -0.14264824776E+04  0.14264824776E+04  0.00000000000E+00 0. -1.
         24    1    1    2    0    0  0.16135920218E+02  0.72508456227E+02 -0.81987741878E+03  0.82715418268E+03  0.80419002446E+02 0. -1.
          1    1    1    2  501    0  0.25239794563E+02  0.29488901255E+02 -0.14674477886E+03  0.15179154340E+03  0.00000000000E+00 0. -1.
         -2    1    1    2    0  502 -0.41375714781E+02 -0.10199735748E+03 -0.44702260087E+03  0.46037443065E+03  0.00000000000E+00 0.  1.
<mgrwt>
<rscale>  2 0.12918091E+03</rscale>
<asrwt>0</asrwt>
<pdfrwt beam="1">  1       21 0.19750273E-02 0.12918091E+03</pdfrwt>
<pdfrwt beam="2">  1       21 0.21945887E+00 0.12918091E+03</pdfrwt>
<totfact> 0.13257985E+05</totfact>
</mgrwt>
</event>
<event>
 5    1  0.1281005E-004  0.2430966E+03  0.7546771E-02  0.1117747E+00
         21   -1    0    0  501  502  0.00000000000E+00  0.00000000000E+00  0.36844636229E+03  0.36844636229E+03  0.00000000000E+00 0. -1.
         21   -1    0    0  502  503 -0.00000000000E+00 -0.00000000000E+00 -0.17418547266E+03  0.17418547266E+03  0.00000000000E+00 0. -1.
         24    1    1    2    0    0 -0.21086070290E+02 -0.11435903825E+03 -0.58965251499E+01  0.14150829288E+03  0.80419002446E+02 0. -1.
          1    1    1    2  501    0  0.55011517453E+02  0.22367918568E+03  0.15715909060E+03  0.27885054226E+03  0.00000000000E+00 0. -1.
         -2    1    1    2    0  503 -0.33925447163E+02 -0.10932014743E+03  0.42998324180E+02  0.12227299981E+03  0.00000000000E+00 0.  1.
<mgrwt>
<rscale>  2 0.24309662E+03</rscale>
<asrwt>0</asrwt>
<pdfrwt beam="1">  1       21 0.56684056E-01 0.24309662E+03</pdfrwt>
<pdfrwt beam="2">  1       21 0.26797765E-01 0.24309662E+03</pdfrwt>
<totfact> 0.37862325E+04</totfact>
</mgrwt>
</event>
<event>
 5    1  0.1281005E-004  0.1419919E+03  0.7546771E-02  0.1210674E+00
         21   -1    0    0  503  502  0.00000000000E+00  0.00000000000E+00  0.17475026537E+03  0.17475026537E+03  0.00000000000E+00 0. -1.
         21   -1    0    0  501  503 -0.00000000000E+00 -0.00000000000E+00 -0.12268433748E+03  0.12268433748E+03  0.00000000000E+00 0.  1.
         24    1    1    2    0    0  0.59850664726E+00  0.61186795702E+02 -0.13185867810E+02  0.10190812157E+03  0.80419002446E+02 0.  1.
          1    1    1    2  501    0  0.78347566332E+01 -0.12164080373E+03  0.54607722384E+02  0.13356598327E+03  0.00000000000E+00 0. -1.
         -2    1    1    2    0  502 -0.84332632804E+01  0.60454008026E+02  0.10644073321E+02  0.61960498003E+02  0.00000000000E+00 0.  1.
<mgrwt>
<rscale>  2 0.14199185E+03</rscale>
<asrwt>0</asrwt>
<pdfrwt beam="1">  1       21 0.26884656E-01 0.14199185E+03</pdfrwt>
<pdfrwt beam="2">  1       21 0.18874513E-01 0.14199185E+03</pdfrwt>
<totfact> 0.34217323E+05</totfact>
</mgrwt>
</event>
<event>
 5    1  0.1281005E-004  0.1066182E+03  0.7546771E-02  0.1266964E+00
         21   -1    0    0  503  502  0.00000000000E+00  0.00000000000E+00  0.63747008242E+02  0.63747008242E+02  0.00000000000E+00 0.  1.
         21   -1    0    0  501  503 -0.00000000000E+00 -0.00000000000E+00 -0.20870056906E+03  0.20870056906E+03  0.00000000000E+00 0. -1.
         24    1    1    2    0    0 -0.60548982937E+02  0.66144095740E+01 -0.12007346737E+03  0.15682724021E+03  0.80419002446E+02 0.  0.
          1    1    1    2  501    0  0.53859010811E+02 -0.46960967510E+02 -0.10268981705E+02  0.72191256398E+02  0.00000000000E+00 0. -1.
         -2    1    1    2    0  502  0.66899721254E+01  0.40346557936E+02 -0.14611111741E+02  0.43429080702E+02  0.00000000000E+00 0.  1.
<mgrwt>
<rscale>  2 0.10661822E+03</rscale>
<asrwt>0</asrwt>
<pdfrwt beam="1">  1       21 0.98072321E-02 0.10661822E+03</pdfrwt>
<pdfrwt beam="2">  1       21 0.32107780E-01 0.10661822E+03</pdfrwt>
<totfact> 0.78584062E+05</totfact>
</mgrwt>
</event>
<event>
 5    1  0.1281005E-004  0.2538701E+03  0.7546771E-02  0.1110883E+00
         21   -1    0    0  501  502  0.00000000000E+00  0.00000000000E+00  0.99477152869E+03  0.99477152869E+03  0.00000000000E+00 0. -1.
         21   -1    0    0  502  503 -0.00000000000E+00 -0.00000000000E+00 -0.66361276150E+02  0.66361276150E+02  0.00000000000E+00 0.  1.
         24    1    1    2    0    0 -0.28384936055E+02 -0.28203102329E+02  0.18603791982E+03  0.20658761614E+03  0.80419002446E+02 0.  0.
          1    1    1    2  501    0  0.64539062534E+02  0.21663658957E+03  0.33345582214E+03  0.40285169462E+03  0.00000000000E+00 0. -1.
         -2    1    1    2    0  503 -0.36154126480E+02 -0.18843348724E+03  0.40891651058E+03  0.45169349409E+03  0.00000000000E+00 0.  1.
<mgrwt>
<rscale>  2 0.25387012E+03</rscale>
<asrwt>0</asrwt>
<pdfrwt beam="1">  1       21 0.15304176E+00 0.25387012E+03</pdfrwt>
<pdfrwt beam="2">  1       21 0.10209428E-01 0.25387012E+03</pdfrwt>
<totfact> 0.21371198E+04</totfact>
</mgrwt>
</event>
<event>
 5    1  0.1281005E-004  0.3289359E+03  0.7546771E-02  0.1071609E+00
         21   -1    0    0  503  502  0.00000000000E+00  0.00000000000E+00  0.12349405771E+04  0.12349405771E+04  0.00000000000E+00 0.  1.
         21   -1    0    0  501  503 -0.00000000000E+00 -0.00000000000E+00 -0.88999255713E+02  0.88999255713E+02  0.00000000000E+00 0. -1.
         24    1    1    2    0    0  0.93064314976E+02 -0.63621880998E+02  0.27897983549E+03  0.31145734062E+03  0.80419002446E+02 0. -1.
          1    1    1    2  501    0 -0.29761264170E+03  0.95101658636E+02  0.46242711218E+03  0.55808282903E+03  0.00000000000E+00 0. -1.
         -2    1    1    2    0  502  0.20454832673E+03 -0.31479777638E+02  0.40453437373E+03  0.45439966318E+03  0.00000000000E+00 0.  1.
<mgrwt>
<rscale>  2 0.32893592E+03</rscale>
<asrwt>0</asrwt>
<pdfrwt beam="1">  1       21 0.18999085E+00 0.32893592E+03</pdfrwt>
<pdfrwt beam="2">  1       21 0.13692194E-01 0.32893592E+03</pdfrwt>
<totfact> 0.65905464E+03</totfact>
</mgrwt>
</event>
<event>
 5    1  0.1281005E-004  0.2362303E+03  0.7546771E-02  0.1122330E+00
         21   -1    0    0  501  502  0.00000000000E+00  0.00000000000E+00  0.26092661904E+03  0.26092661904E+03  0.00000000000E+00 0. -1.
         21   -1    0    0  502  503 -0.00000000000E+00 -0.00000000000E+00 -0.21400735131E+03  0.21400735131E+03  0.00000000000E+00 0.  1.
         24    1    1    2    0    0  0.15640096873E+03 -0.17201298122E+02  0.23334876165E+02  0.17823826771E+03  0.80419002446E+02 0. -1.
          1    1    1    2  501    0  0.48043400358E+02  0.69723607633E+02  0.70028731832E+01  0.84962285822E+02  0.00000000000E+00 0. -1.
         -2    1    1    2    0  503 -0.20444436909E+03 -0.52522309511E+02  0.16581518378E+02  0.21173341682E+03  0.00000000000E+00 0.  1.
<mgrwt>
<rscale>  2 0.23623025E+03</rscale>
<asrwt>0</asrwt>
<pdfrwt beam="1">  1       21 0.40142557E-01 0.23623025E+03</pdfrwt>
<pdfrwt beam="2">  1       21 0.32924208E-01 0.23623025E+03</pdfrwt>
<totfact> 0.52073328E+04</totfact>
</mgrwt>
</event>
<event>
 5    1  0.1281005E-004  0.3075641E+03  0.7546771E-02  0.1081519E+00
         21   -1    0    0  501  502  0.00000000000E+00  0.00000000000E+00  0.48969052765E+03  0.48969052765E+03  0.00000000000E+00 0. -1.
         21   -1    0    0  502  503 -0.00000000000E+00 -0.00000000000E+00 -0.21886661735E+03  0.21886661735E+03  0.00000000000E+00 0.  1.
         24    1    1    2    0    0  0.70329655484E+01 -0.20845485095E+03  0.19134116950E+02  0.22435734415E+03  0.80419002446E+02 0. -1.
          1    1    1    2  501    0 -0.63416007317E+02 -0.77493501601E+02  0.13989758501E+03  0.17204117840E+03  0.00000000000E+00 0. -1.
         -2    1    1    2    0  503  0.56383041769E+02  0.28594835255E+03  0.11179220834E+03  0.31215862245E+03  0.00000000000E+00 0.  1.
<mgrwt>
<rscale>  2 0.30756407E+03</rscale>
<asrwt>0</asrwt>
<pdfrwt beam="1">  1       21 0.75337004E-01 0.30756407E+03</pdfrwt>
<pdfrwt beam="2">  1       21 0.33671787E-01 0.30756407E+03</pdfrwt>
<totfact> 0.12575716E+04</totfact>
</mgrwt>
</event>
<event>
 5    1  0.1281005E-004  0.2259442E+03  0.7546771E-02  0.1129527E+00
         21   -1    0    0  501  502  0.00000000000E+00  0.00000000000E+00  0.67248379826E+03  0.67248379826E+03  0.00000000000E+00 0.  1.
         21   -1    0    0  502  503 -0.00000000000E+00 -0.00000000000E+00 -0.81764772217E+02  0.81764772217E+02  0.00000000000E+00 0. -1.
         24    1    1    2    0    0 -0.54542634474E+02  0.95552393502E+02  0.13743734990E+03  0.19354947683E+03  0.80419002446E+02 0.  0.
          1    1    1    2  501    0  0.70361273096E+02 -0.19894047283E+03  0.37412164820E+03  0.42952884435E+03  0.00000000000E+00 0. -1.
         -2    1    1    2    0  503 -0.15818638622E+02  0.10338807933E+03  0.79160027946E+02  0.13117024929E+03  0.00000000000E+00 0.  1.
<mgrwt>
<rscale>  2 0.22594418E+03</rscale>
<asrwt>0</asrwt>
<pdfrwt beam="1">  1       21 0.10345904E+00 0.22594418E+03</pdfrwt>
<pdfrwt beam="2">  1       21 0.12579196E-01 0.22594418E+03</pdfrwt>
<totfact> 0.40122203E+04</totfact>
</mgrwt>
</event>
<event>
 5    1  0.1281005E-004  0.2404652E+03  0.7546771E-02  0.1119483E+00
         21   -1    0    0  501  502  0.00000000000E+00  0.00000000000E+00  0.26285629556E+03  0.26285629556E+03  0.00000000000E+00 0.  1.
         21   -1    0    0  502  503 -0.00000000000E+00 -0.00000000000E+00 -0.28034686218E+03  0.28034686218E+03  0.00000000000E+00 0. -1.
         24    1    1    2    0    0  0.48585680319E+02 -0.89003881732E+00 -0.97229684324E+02  0.13521164140E+03  0.80419002446E+02 0. -1.
          1    1    1    2  501    0  0.16860123008E+03 -0.14593952380E+02  0.86688009681E+02  0.19014249723E+03  0.00000000000E+00 0. -1.
         -2    1    1    2    0  503 -0.21718691040E+03  0.15483991197E+02 -0.69488919738E+01  0.21784901912E+03  0.00000000000E+00 0.  1.
<mgrwt>
<rscale>  2 0.24046517E+03</rscale>
<asrwt>0</asrwt>
<pdfrwt beam="1">  1       21 0.40439430E-01 0.24046517E+03</pdfrwt>
<pdfrwt beam="2">  1       21 0.43130287E-01 0.24046517E+03</pdfrwt>
<totfact> 0.29718618E+04</totfact>
</mgrwt>
</event>
<event>
 5    1  0.1281005E-004  0.1808530E+03  0.7546771E-02  0.1166980E+00
         21   -1    0    0  503  502  0.00000000000E+00  0.00000000000E+00  0.13040667973E+03  0.13040667973E+03  0.00000000000E+00 0. -1.
         21   -1    0    0  501  503 -0.00000000000E+00 -0.00000000000E+00 -0.27898718072E+03  0.27898718072E+03  0.00000000000E+00 0.  1.
         24    1    1    2    0    0  0.16566512290E+02 -0.20830103978E+01  0.17204431051E+02  0.83916605412E+02  0.80419002446E+02 0. -1.
          1    1    1    2  501    0  0.12471679973E+03  0.43920345865E+02 -0.88309919216E+02  0.15900288912E+03  0.00000000000E+00 0. -1.
         -2    1    1    2    0  502 -0.14128331202E+03 -0.41837335467E+02 -0.77475012826E+02  0.16647436591E+03  0.00000000000E+00 0.  1.
<mgrwt>
<rscale>  2 0.18085304E+03</rscale>
<asrwt>0</asrwt>
<pdfrwt beam="1">  1       21 0.20062566E-01 0.18085304E+03</pdfrwt>
<pdfrwt beam="2">  1       21 0.42921104E-01 0.18085304E+03</pdfrwt>
<totfact> 0.12029914E+05</totfact>
</mgrwt>
</event>
<event>
 5    1  0.1281005E-004  0.1131503E+03  0.7546771E-02  0.1254845E+00
         21   -1    0    0  501  502  0.00000000000E+00  0.00000000000E+00  0.21808216168E+04  0.21808216168E+04  0.00000000000E+00 0. -1.
         21   -1    0    0  502  503 -0.00000000000E+00 -0.00000000000E+00 -0.58938606636E+01  0.58938606636E+01  0.00000000000E+00 0.  1.
         24    1    1    2    0    0  0.26866139233E+02 -0.50261347282E+02  0.93436791355E+03  0.93955234356E+03  0.80419002446E+02 0. -1.
          1    1    1    2  501    0  0.43977936808E+02  0.64765079787E+01  0.48183449096E+03  0.48388064723E+03  0.00000000000E+00 0. -1.
         -2    1    1    2    0  503 -0.70844076042E+02  0.43784839304E+02  0.75872535158E+03  0.76328248663E+03  0.00000000000E+00 0.  1.
<mgrwt>
<rscale>  2 0.11315032E+03</rscale>
<asrwt>0</asrwt>
<pdfrwt beam="1">  1       21 0.33551037E+00 0.11315032E+03</pdfrwt>
<pdfrwt beam="2">  1       21 0.90674954E-03 0.11315032E+03</pdfrwt>
<totfact> 0.10177596E+05</totfact>
</mgrwt>
</event>
<event>
 5    1  0.1281005E-004  0.2993470E+03  0.7546771E-02  0.1085568E+00
         21   -1    0    0  503  502  0.00000000000E+00  0.00000000000E+00  0.35113754422E+03  0.35113754422E+03  0.00000000000E+00 0. -1.
         21   -1    0    0  501  503 -0.00000000000E+00 -0.00000000000E+00 -0.25687888837E+03  0.25687888837E+03  0.00000000000E+00 0.  1.
         24    1    1    2    0    0 -0.76175227637E+02  0.79211909773E+02  0.12124813636E+02  0.13671656452E+03  0.80419002446E+02 0. -1.
          1    1    1    2  501    0 -0.30793949404E+02  0.17973028866E+03  0.13497395122E+02  0.18284808902E+03  0.00000000000E+00 0. -1.
         -2    1    1    2    0  502  0.10696917704E+03 -0.25894219844E+03  0.68636447098E+02  0.28845177905E+03  0.00000000000E+00 0.  1.
<mgrwt>
<rscale>  2 0.29934697E+03</rscale>
<asrwt>0</asrwt>
<pdfrwt beam="1">  1       21 0.54021161E-01 0.29934697E+03</pdfrwt>
<pdfrwt beam="2">  1       21 0.39519829E-01 0.29934697E+03</pdfrwt>
<totfact> 0.18960364E+04</totfact>
</mgrwt>
</event>
<event>
 5    1  0.1281005E-004  0.4474287E+03  0.7546771E-02  0.1028492E+00
         21   -1    0    0  501  502  0.00000000000E+00  0.00000000000E+00  0.63124605534E+03  0.63124605534E+03  0.00000000000E+00 0. -1.
         21   -1    0    0  502  503 -0.00000000000E+00 -0.00000000000E+00 -0.32820831891E+03  0.32820831891E+03  0.00000000000E+00 0.  1.
         24    1    1    2    0    0  0.13657433079E+03  0.35077832409E+03  0.97647460953E+02  0.39711487390E+03  0.80419002446E+02 0.  1.
          1    1    1    2  501    0 -0.10400810208E+03 -0.42039919521E+03  0.21734642785E+03  0.48455406131E+03  0.00000000000E+00 0. -1.
         -2    1    1    2    0  503 -0.32566228715E+02  0.69620871116E+02 -0.11956152370E+02  0.77785439044E+02  0.00000000000E+00 0.  1.
<mgrwt>
<rscale>  2 0.44742875E+03</rscale>
<asrwt>0</asrwt>
<pdfrwt beam="1">  1       21 0.97114777E-01 0.44742875E+03</pdfrwt>
<pdfrwt beam="2">  1       21 0.50493588E-01 0.44742875E+03</pdfrwt>
<totfact> 0.28559747E+03</totfact>
</mgrwt>
</event>
<event>
 5    1  0.1281005E-004  0.9957705E+02  0.7546771E-02  0.1281188E+00
         21   -1    0    0  503  502  0.00000000000E+00  0.00000000000E+00  0.53405630513E+02  0.53405630513E+02  0.00000000000E+00 0.  1.
         21   -1    0    0  501  503 -0.00000000000E+00 -0.00000000000E+00 -0.19941381712E+03  0.19941381712E+03  0.00000000000E+00 0. -1.
         24    1    1    2    0    0  0.14070828098E+02  0.45075074002E+02 -0.10166805810E+03  0.13796144568E+03  0.80419002446E+02 0. -1.
          1    1    1    2  501    0  0.18618862787E+02  0.23468322131E+02 -0.14261488193E+02  0.33178520772E+02  0.00000000000E+00 0. -1.
         -2    1    1    2    0  502 -0.32689690886E+02 -0.68543396133E+02 -0.30078640308E+02  0.81679481184E+02  0.00000000000E+00 0.  1.
<mgrwt>
<rscale>  2 0.99577051E+02</rscale>
<asrwt>0</asrwt>
<pdfrwt beam="1">  1       21 0.82162510E-02 0.99577051E+02</pdfrwt>
<pdfrwt beam="2">  1       21 0.30679048E-01 0.99577051E+02</pdfrwt>
<totfact> 0.11634600E+06</totfact>
</mgrwt>
</event>
<event>
 5    1  0.1281005E-004  0.1089112E+03  0.7546771E-02  0.1262600E+00
         21   -1    0    0  501  502  0.00000000000E+00  0.00000000000E+00  0.21685547700E+02  0.21685547700E+02  0.00000000000E+00 0. -1.
         21   -1    0    0  502  503 -0.00000000000E+00 -0.00000000000E+00 -0.61852614333E+03  0.61852614333E+03  0.00000000000E+00 0. -1.
         24    1    1    2    0    0  0.16195109694E+02 -0.47905249288E+01 -0.18840398717E+03  0.20554442110E+03  0.80419002446E+02 0. -1.
          1    1    1    2  501    0 -0.75878944426E+02  0.30247233078E+01 -0.31308534632E+03  0.32216330833E+03  0.00000000000E+00 0. -1.
         -2    1    1    2    0  503  0.59683834732E+02  0.17658016210E+01 -0.95351262138E+02  0.11250396160E+03  0.00000000000E+00 0.  1.
<mgrwt>
<rscale>  2 0.10891121E+03</rscale>
<asrwt>0</asrwt>
<pdfrwt beam="1">  1       21 0.33362380E-02 0.10891121E+03</pdfrwt>
<pdfrwt beam="2">  1       21 0.95157870E-01 0.10891121E+03</pdfrwt>
<totfact> 0.49662572E+05</totfact>
</mgrwt>
</event>
<event>
 5    1  0.1281005E-004  0.1361975E+03  0.7546771E-02  0.1218539E+00
         21   -1    0    0  503  502  0.00000000000E+00  0.00000000000E+00  0.12775825366E+04  0.12775825366E+04  0.00000000000E+00 0. -1.
         21   -1    0    0  501  503 -0.00000000000E+00 -0.00000000000E+00 -0.14795908522E+02  0.14795908522E+02  0.00000000000E+00 0.  1.
         24    1    1    2    0    0 -0.21801122803E+01 -0.82174440572E+01  0.45110088426E+03  0.45829194081E+03  0.80419002446E+02 0. -1.
          1    1    1    2  501    0 -0.80206236305E+02  0.54557776881E+02  0.44049918433E+03  0.45105334802E+03  0.00000000000E+00 0. -1.
         -2    1    1    2    0  502  0.82386348585E+02 -0.46340332824E+02  0.37118655953E+03  0.38303315634E+03  0.00000000000E+00 0.  1.
<mgrwt>
<rscale>  2 0.13619749E+03</rscale>
<asrwt>0</asrwt>
<pdfrwt beam="1">  1       21 0.19655107E+00 0.13619749E+03</pdfrwt>
<pdfrwt beam="2">  1       21 0.22762946E-02 0.13619749E+03</pdfrwt>
<totfact> 0.14527129E+05</totfact>
</mgrwt>
</event>
<event>
 5    1  0.1281005E-004  0.3267592E+03  0.7546771E-02  0.1072580E+00
         21   -1    0    0  501  502  0.00000000000E+00  0.00000000000E+00  0.35955857158E+03  0.35955857158E+03  0.00000000000E+00 0.  1.
         21   -1    0    0  502  503 -0.00000000000E+00 -0.00000000000E+00 -0.34328311641E+03  0.34328311641E+03  0.00000000000E+00 0. -1.
         24    1    1    2    0    0  0.18408161531E+03  0.49779583684E+02  0.70219983739E+02  0.21854544177E+03  0.80419002446E+02 0. -1.
          1    1    1    2  501    0  0.92608934381E+02 -0.12895686945E+03  0.66737303700E+02  0.17222124320E+03  0.00000000000E+00 0. -1.
         -2    1    1    2    0  503 -0.27669054969E+03  0.79177285766E+02 -0.12068183226E+03  0.31207500302E+03  0.00000000000E+00 0.  1.
<mgrwt>
<rscale>  2 0.32675916E+03</rscale>
<asrwt>0</asrwt>
<pdfrwt beam="1">  1       21 0.55316704E-01 0.32675916E+03</pdfrwt>
<pdfrwt beam="2">  1       21 0.52812787E-01 0.32675916E+03</pdfrwt>
<totfact> 0.97425467E+03</totfact>
</mgrwt>
</event>
<event>
 5    1  0.1281005E-004  0.1863210E+03  0.7546771E-02  0.1161822E+00
         21   -1    0    0  503  502  0.00000000000E+00  0.00000000000E+00  0.86866365600E+02  0.86866365600E+02  0.00000000000E+00 0.  1.
         21   -1    0    0  501  503 -0.00000000000E+00 -0.00000000000E+00 -0.41784769428E+03  0.41784769428E+03  0.00000000000E+00 0.  1.
         24    1    1    2    0    0 -0.79281747884E+02 -0.11513411847E+03 -0.17856316045E+03  0.24061063777E+03  0.80419002446E+02 0.  1.
          1    1    1    2  501    0 -0.49879937433E+01 -0.37064787901E+02 -0.49256414571E+02  0.61845557319E+02  0.00000000000E+00 0. -1.
         -2    1    1    2    0  502  0.84269741627E+02  0.15219890637E+03 -0.10316175366E+03  0.20225786480E+03  0.00000000000E+00 0.  1.
<mgrwt>
<rscale>  2 0.18632097E+03</rscale>
<asrwt>0</asrwt>
<pdfrwt beam="1">  1       21 0.13364056E-01 0.18632097E+03</pdfrwt>
<pdfrwt beam="2">  1       21 0.64284259E-01 0.18632097E+03</pdfrwt>
<totfact> 0.10822925E+05</totfact>
</mgrwt>
</event>
<event>
 5    1  0.1281005E-004  0.3414980E+03  0.7546771E-02  0.1066160E+00
         21   -1    0    0  501  502  0.00000000000E+00  0.00000000000E+00  0.15805128105E+04  0.15805128105E+04  0.00000000000E+00 0. -1.
         21   -1    0    0  502  503 -0.00000000000E+00 -0.00000000000E+00 -0.77768356080E+02  0.77768356080E+02  0.00000000000E+00 0.  1.
         24    1    1    2    0    0 -0.62953617334E+02  0.15424137890E+02  0.18176287332E+03  0.20905984798E+03  0.80419002446E+02 0.  0.
          1    1    1    2  501    0 -0.20699679926E+03  0.15664083782E+03  0.76277306750E+03  0.80573369018E+03  0.00000000000E+00 0. -1.
         -2    1    1    2    0  503  0.26995041660E+03 -0.17206497571E+03  0.55820851363E+03  0.64348762845E+03  0.00000000000E+00 0.  1.
<mgrwt>
<rscale>  2 0.34149801E+03</rscale>
<asrwt>0</asrwt>
<pdfrwt beam="1">  1       21 0.24315579E+00 0.34149801E+03</pdfrwt>
<pdfrwt beam="2">  1       21 0.11964364E-01 0.34149801E+03</pdfrwt>
<totfact> 0.38324051E+03</totfact>
</mgrwt>
</event>
<event>
 5    1  0.1281005E-004  0.2094248E+03  0.7546771E-02  0.1142022E+00
         21   -1    0    0  501  502  0.00000000000E+00  0.00000000000E+00  0.30391740664E+04  0.30391740664E+04  0.00000000000E+00 0.  1.
         21   -1    0    0  502  503 -0.00000000000E+00 -0.00000000000E+00 -0.15158766711E+02  0.15158766711E+02  0.00000000000E+00 0. -1.
         24    1    1    2    0    0 -0.99680338717E+02  0.56000450207E+02  0.78301627923E+03  0.79539545500E+03  0.80419002446E+02 0.  1.
          1    1    1    2  501    0  0.15724039314E+03 -0.11639672862E+03  0.17499001029E+04  0.17608018372E+04  0.00000000000E+00 0. -1.
         -2    1    1    2    0  503 -0.57560054426E+02  0.60396278409E+02  0.49109891761E+03  0.49813554098E+03  0.00000000000E+00 0.  1.
<mgrwt>
<rscale>  2 0.20942478E+03</rscale>
<asrwt>0</asrwt>
<pdfrwt beam="1">  1       21 0.46756475E+00 0.20942478E+03</pdfrwt>
<pdfrwt beam="2">  1       21 0.23321204E-02 0.20942478E+03</pdfrwt>
<totfact> 0.29678179E+03</totfact>
</mgrwt>
</event>
<event>
 5    1  0.1281005E-004  0.1200688E+03  0.7546771E-02  0.1242984E+00
         21   -1    0    0  501  502  0.00000000000E+00  0.00000000000E+00  0.28068275950E+03  0.28068275950E+03  0.00000000000E+00 0.  1.
         21   -1    0    0  502  503 -0.00000000000E+00 -0.00000000000E+00 -0.51952709729E+02  0.51952709729E+02  0.00000000000E+00 0. -1.
         24    1    1    2    0    0 -0.13970490667E+02  0.36121191540E+01  0.91471291739E+02  0.12264760569E+03  0.80419002446E+02 0.  0.
          1    1    1    2  501    0 -0.63695222814E+02  0.33932230768E+02  0.54406389981E+02  0.90379936739E+02  0.00000000000E+00 0. -1.
         -2    1    1    2    0  503  0.77665713481E+02 -0.37544349922E+02  0.82852368047E+02  0.11960792680E+03  0.00000000000E+00 0.  1.
<mgrwt>
<rscale>  2 0.12006875E+03</rscale>
<asrwt>0</asrwt>
<pdfrwt beam="1">  1       21 0.43181962E-01 0.12006875E+03</pdfrwt>
<pdfrwt beam="2">  1       21 0.79927247E-02 0.12006875E+03</pdfrwt>
<totfact> 0.62385547E+05</totfact>
</mgrwt>
</event>
<event>
 5    1  0.1281005E-004  0.2067387E+03  0.7546771E-02  0.1144175E+00
         21   -1    0    0  501  502  0.00000000000E+00  0.00000000000E+00  0.21898588358E+04  0.21898588358E+04  0.00000000000E+00 0.  1.
         21   -1    0    0  502  503 -0.00000000000E+00 -0.00000000000E+00 -0.20814025973E+02  0.20814025973E+02  0.00000000000E+00 0.  1.
         24    1    1    2    0    0  0.76429948794E+01 -0.15373744599E+03  0.11176718254E+04  0.11310840565E+04  0.80419002446E+02 0.  1.
          1    1    1    2  501    0  0.24014686749E+01 -0.42873775508E+02  0.11526816951E+03  0.12300682331E+03  0.00000000000E+00 0. -1.
         -2    1    1    2    0  503 -0.10044463554E+02  0.19661122150E+03  0.93610481493E+03  0.95658198196E+03  0.00000000000E+00 0.  1.
<mgrwt>
<rscale>  2 0.20673868E+03</rscale>
<asrwt>0</asrwt>
<pdfrwt beam="1">  1       21 0.33690118E+00 0.20673868E+03</pdfrwt>
<pdfrwt beam="2">  1       21 0.32021596E-02 0.20673868E+03</pdfrwt>
<totfact> 0.11671148E+04</totfact>
</mgrwt>
</event>
<event>
 5    1  0.1281005E-004  0.2589273E+03  0.7546771E-02  0.1107789E+00
         21   -1    0    0  503  502  0.00000000000E+00  0.00000000000E+00  0.65551657055E+03  0.65551657055E+03  0.00000000000E+00 0. -1.
         21   -1    0    0  501  503 -0.00000000000E+00 -0.00000000000E+00 -0.10336571820E+03  0.10336571820E+03  0.00000000000E+00 0.  1.
         24    1    1    2    0    0  0.29689161214E+02  0.30802653204E+02  0.81018002911E+02  0.12190727004E+03  0.80419002446E+02 0.  0.
          1    1    1    2  501    0 -0.19800728002E+03 -0.12472428711E+03  0.28811786021E+03  0.37118045760E+03  0.00000000000E+00 0. -1.
         -2    1    1    2    0  502  0.16831811881E+03  0.93921633909E+02  0.18301498922E+03  0.26579456111E+03  0.00000000000E+00 0.  1.
<mgrwt>
<rscale>  2 0.25892733E+03</rscale>
<asrwt>0</asrwt>
<pdfrwt beam="1">  1       21 0.10084870E+00 0.25892733E+03</pdfrwt>
<pdfrwt beam="2">  1       21 0.15902419E-01 0.25892733E+03</pdfrwt>
<totfact> 0.27408192E+04</totfact>
</mgrwt>
</event>
<event>
 5    1  0.1281005E-004  0.1423661E+03  0.7546771E-02  0.1210180E+00
         21   -1    0    0  503  502  0.00000000000E+00  0.00000000000E+00  0.25841534091E+02  0.25841534091E+02  0.00000000000E+00 0.  1.
         21   -1    0    0  501  503 -0.00000000000E+00 -0.00000000000E+00 -0.79543861266E+03  0.79543861266E+03  0.00000000000E+00 0. -1.
         24    1    1    2    0    0  0.13500218813E+02 -0.58899800725E+02 -0.30938100054E+03  0.32532331900E+03  0.80419002446E+02 0. -1.
          1    1    1    2  501    0 -0.34781917613E+02 -0.56743580316E+02 -0.14578704783E+03  0.16026065960E+03  0.00000000000E+00 0. -1.
         -2    1    1    2    0  502  0.21281698800E+02  0.11564338104E+03 -0.31442903019E+03  0.33569616815E+03  0.00000000000E+00 0.  1.
<mgrwt>
<rscale>  2 0.14236610E+03</rscale>
<asrwt>0</asrwt>
<pdfrwt beam="1">  1       21 0.39756207E-02 0.14236610E+03</pdfrwt>
<pdfrwt beam="2">  1       21 0.12237517E+00 0.14236610E+03</pdfrwt>
<totfact> 0.20265623E+05</totfact>
</mgrwt>
</event>
<event>
 5    1  0.1281005E-004  0.1276652E+03  0.7546771E-02  0.1230962E+00
         21   -1    0    0  503  502  0.00000000000E+00  0.00000000000E+00  0.19246927660E+03  0.19246927660E+03  0.00000000000E+00 0. -1.
         21   -1    0    0  501  503 -0.00000000000E+00 -0.00000000000E+00 -0.87089237327E+02  0.87089237327E+02  0.00000000000E+00 0. -1.
         24    1    1    2    0    0 -0.58554255146E+02  0.25932403893E+02  0.63912821615E+02  0.12105021722E+03  0.80419002446E+02 0. -1.
          1    1    1    2  501    0  0.10131450454E+03 -0.37824518821E+02  0.23766191566E+02  0.11072558383E+03  0.00000000000E+00 0. -1.
         -2    1    1    2    0  502 -0.42760249389E+02  0.11892114928E+02  0.17701026095E+02  0.47782712880E+02  0.00000000000E+00 0.  1.
<mgrwt>
<rscale>  2 0.12766515E+03</rscale>
<asrwt>0</asrwt>
<pdfrwt beam="1">  1       21 0.29610658E-01 0.12766515E+03</pdfrwt>
<pdfrwt beam="2">  1       21 0.13398344E-01 0.12766515E+03</pdfrwt>
<totfact> 0.53019004E+05</totfact>
</mgrwt>
</event>
<event>
 5    1  0.1281005E-004  0.3834576E+03  0.7546771E-02  0.1049663E+00
         21   -1    0    0  503  502  0.00000000000E+00  0.00000000000E+00  0.89892809298E+03  0.89892809298E+03  0.00000000000E+00 0. -1.
         21   -1    0    0  501  503 -0.00000000000E+00 -0.00000000000E+00 -0.18166657634E+03  0.18166657634E+03  0.00000000000E+00 0. -1.
         24    1    1    2    0    0 -0.15847968690E+01 -0.22657029625E+03  0.33721273509E+03  0.41414521051E+03  0.80419002446E+02 0. -1.
          1    1    1    2  501    0 -0.14232353214E+03  0.32320094726E+03  0.16376109580E+03  0.38927180300E+03  0.00000000000E+00 0. -1.
         -2    1    1    2    0  502  0.14390832901E+03 -0.96630651012E+02  0.21628768575E+03  0.27717765581E+03  0.00000000000E+00 0.  1.
<mgrwt>
<rscale>  2 0.38345756E+03</rscale>
<asrwt>0</asrwt>
<pdfrwt beam="1">  1       21 0.13829663E+00 0.38345756E+03</pdfrwt>
<pdfrwt beam="2">  1       21 0.27948705E-01 0.38345756E+03</pdfrwt>
<totfact> 0.40285155E+03</totfact>
</mgrwt>
</event>
<event>
 5    1  0.1281005E-004  0.2265376E+03  0.7546771E-02  0.1129101E+00
         21   -1    0    0  503  502  0.00000000000E+00  0.00000000000E+00  0.37696440952E+02  0.37696440952E+02  0.00000000000E+00 0.  1.
         21   -1    0    0  501  503 -0.00000000000E+00 -0.00000000000E+00 -0.13673868805E+04  0.13673868805E+04  0.00000000000E+00 0. -1.
         24    1    1    2    0    0 -0.75476989844E+01  0.59429312456E+02 -0.26691814558E+03  0.28513386914E+03  0.80419002446E+02 0.  1.
          1    1    1    2  501    0 -0.13485400859E+03 -0.13565175148E+03 -0.54708412079E+03  0.57955848414E+03  0.00000000000E+00 0. -1.
         -2    1    1    2    0  502  0.14240170757E+03  0.76222439022E+02 -0.51568817318E+03  0.54039096818E+03  0.00000000000E+00 0.  1.
<mgrwt>
<rscale>  2 0.22653758E+03</rscale>
<asrwt>0</asrwt>
<pdfrwt beam="1">  1       21 0.57994528E-02 0.22653758E+03</pdfrwt>
<pdfrwt beam="2">  1       21 0.21036720E+00 0.22653758E+03</pdfrwt>
<totfact> 0.23535708E+04</totfact>
</mgrwt>
</event>
<event>
 5    1  0.1281005E-004  0.1344004E+03  0.7546771E-02  0.1221069E+00
         21   -1    0    0  503  502  0.00000000000E+00  0.00000000000E+00  0.71233802496E+03  0.71233802496E+03  0.00000000000E+00 0.  1.
         21   -1    0    0  501  503 -0.00000000000E+00 -0.00000000000E+00 -0.26556774676E+02  0.26556774676E+02  0.00000000000E+00 0. -1.
         24    1    1    2    0    0 -0.31467798369E+02  0.65839703519E+02  0.33370175570E+03  0.35092615549E+03  0.80419002446E+02 0.  0.
          1    1    1    2  501    0  0.44302951155E+02 -0.10768315228E+03  0.22137191904E+03  0.25012784592E+03  0.00000000000E+00 0. -1.
         -2    1    1    2    0  502 -0.12835152786E+02  0.41843448760E+02  0.13070757554E+03  0.13784079823E+03  0.00000000000E+00 0.  1.
<mgrwt>
<rscale>  2 0.13440036E+03</rscale>
<asrwt>0</asrwt>
<pdfrwt beam="1">  1       21 0.10959045E+00 0.13440036E+03</pdfrwt>
<pdfrwt beam="2">  1       21 0.40856582E-02 0.13440036E+03</pdfrwt>
<totfact> 0.25360209E+05</totfact>
</mgrwt>
</event>
<event>
 5    1  0.1281005E-004  0.1339111E+03  0.7546771E-02  0.1221765E+00
         21   -1    0    0  503  502  0.00000000000E+00  0.00000000000E+00  0.21034300689E+03  0.21034300689E+03  0.00000000000E+00 0.  1.
         21   -1    0    0  501  503 -0.00000000000E+00 -0.00000000000E+00 -0.88915051978E+02  0.88915051978E+02  0.00000000000E+00 0.  1.
         24    1    1    2    0    0 -0.33321327319E+02  0.81734320827E+02  0.26448680771E+02  0.12230109862E+03  0.80419002446E+02 0.  1.
          1    1    1    2  501    0 -0.88708881810E+01  0.28782420389E+02  0.11816900361E+02  0.32353663081E+02  0.00000000000E+00 0. -1.
         -2    1    1    2    0  502  0.42192215500E+02 -0.11051674122E+03  0.83162373776E+02  0.14460329716E+03  0.00000000000E+00 0.  1.
<mgrwt>
<rscale>  2 0.13391111E+03</rscale>
<asrwt>0</asrwt>
<pdfrwt beam="1">  1       21 0.32360462E-01 0.13391111E+03</pdfrwt>
<pdfrwt beam="2">  1       21 0.13679239E-01 0.13391111E+03</pdfrwt>
<totfact> 0.42993678E+05</totfact>
</mgrwt>
</event>
<event>
 5    1  0.1281005E-004  0.1938177E+03  0.7546771E-02  0.1155062E+00
         21   -1    0    0  503  502  0.00000000000E+00  0.00000000000E+00  0.14577627570E+03  0.14577627570E+03  0.00000000000E+00 0. -1.
         21   -1    0    0  501  503 -0.00000000000E+00 -0.00000000000E+00 -0.30206976704E+03  0.30206976704E+03  0.00000000000E+00 0.  1.
         24    1    1    2    0    0 -0.51942825463E+02  0.60464185194E+01 -0.11348750019E+03  0.14859759402E+03  0.80419002446E+02 0.  1.
          1    1    1    2  501    0  0.13855424071E+03 -0.94656468440E+02 -0.50115248303E+02  0.17512470628E+03  0.00000000000E+00 0. -1.
         -2    1    1    2    0  502 -0.86611415248E+02  0.88610049921E+02  0.73092571509E+01  0.12412374244E+03  0.00000000000E+00 0.  1.
<mgrwt>
<rscale>  2 0.19381769E+03</rscale>
<asrwt>0</asrwt>
<pdfrwt beam="1">  1       21 0.22427119E-01 0.19381769E+03</pdfrwt>
<pdfrwt beam="2">  1       21 0.46472272E-01 0.19381769E+03</pdfrwt>
<totfact> 0.82520647E+04</totfact>
</mgrwt>
</event>
<event>
 5    1  0.1281005E-004  0.2843799E+03  0.7546771E-02  0.1093321E+00
         21   -1    0    0  503  502  0.00000000000E+00  0.00000000000E+00  0.14870889146E+03  0.14870889146E+03  0.00000000000E+00 0. -1.
         21   -1    0    0  501  503 -0.00000000000E+00 -0.00000000000E+00 -0.56141286083E+03  0.56141286083E+03  0.00000000000E+00 0.  1.
         24    1    1    2    0    0  0.42843462613E+02  0.27072535253E+02 -0.91602957679E+02  0.13201061421E+03  0.80419002446E+02 0.  1.
          1    1    1    2  501    0 -0.22105744799E+02 -0.24941663491E+03 -0.12028242044E+03  0.27778621706E+03  0.00000000000E+00 0. -1.
         -2    1    1    2    0  502 -0.20737717814E+02  0.22234409965E+03 -0.20081859126E+03  0.30032492102E+03  0.00000000000E+00 0.  1.
<mgrwt>
<rscale>  2 0.28437986E+03</rscale>
<asrwt>0</asrwt>
<pdfrwt beam="1">  1       21 0.22878291E-01 0.28437986E+03</pdfrwt>
<pdfrwt beam="2">  1       21 0.86371210E-01 0.28437986E+03</pdfrwt>
<totfact> 0.19744784E+04</totfact>
</mgrwt>
</event>
<event>
 5    1  0.1281005E-004  0.1650664E+03  0.7546771E-02  0.1183093E+00
         21   -1    0    0  503  502  0.00000000000E+00  0.00000000000E+00  0.18468222682E+03  0.18468222682E+03  0.00000000000E+00 0.  1.
         21   -1    0    0  501  503 -0.00000000000E+00 -0.00000000000E+00 -0.15470487175E+03  0.15470487175E+03  0.00000000000E+00 0.  1.
         24    1    1    2    0    0 -0.20189515006E+02 -0.12694111731E+03 -0.17758260005E+02  0.15265724854E+03  0.80419002446E+02 0.  1.
          1    1    1    2  501    0 -0.52008698709E+01 -0.24454824629E+02 -0.26987123969E+01  0.25146978817E+02  0.00000000000E+00 0. -1.
         -2    1    1    2    0  502  0.25390384877E+02  0.15139594194E+03  0.50434327474E+02  0.16158287121E+03  0.00000000000E+00 0.  1.
<mgrwt>
<rscale>  2 0.16506643E+03</rscale>
<asrwt>0</asrwt>
<pdfrwt beam="1">  1       21 0.28412650E-01 0.16506643E+03</pdfrwt>
<pdfrwt beam="2">  1       21 0.23800749E-01 0.16506643E+03</pdfrwt>
<totfact> 0.19858856E+05</totfact>
</mgrwt>
</event>
<event>
 5    1  0.1281005E-004  0.1601496E+03  0.7546771E-02  0.1188528E+00
         21   -1    0    0  503  502  0.00000000000E+00  0.00000000000E+00  0.80769697048E+02  0.80769697048E+02  0.00000000000E+00 0. -1.
         21   -1    0    0  501  503 -0.00000000000E+00 -0.00000000000E+00 -0.33633606861E+03  0.33633606861E+03  0.00000000000E+00 0. -1.
         24    1    1    2    0    0 -0.10129373413E+03  0.38251253202E+02 -0.15216632498E+03  0.20333564704E+03  0.80419002446E+02 0. -1.
          1    1    1    2  501    0  0.12735384393E+03 -0.69221380981E+02 -0.92142502765E+02  0.17175809141E+03  0.00000000000E+00 0. -1.
         -2    1    1    2    0  502 -0.26060109799E+02  0.30970127779E+02 -0.11257543814E+02  0.42012027208E+02  0.00000000000E+00 0.  1.
<mgrwt>
<rscale>  2 0.16014962E+03</rscale>
<asrwt>0</asrwt>
<pdfrwt beam="1">  1       21 0.12426107E-01 0.16014962E+03</pdfrwt>
<pdfrwt beam="2">  1       21 0.51744010E-01 0.16014962E+03</pdfrwt>
<totfact> 0.19746860E+05</totfact>
</mgrwt>
</event>
<event>
 5    1  0.1281005E-004  0.1655022E+03  0.7546771E-02  0.1182621E+00
         21   -1    0    0  503  502  0.00000000000E+00  0.00000000000E+00  0.85302074309E+03  0.85302074309E+03  0.00000000000E+00 0.  1.
         21   -1    0    0  501  503 -0.00000000000E+00 -0.00000000000E+00 -0.33889327322E+02  0.33889327322E+02  0.00000000000E+00 0.  1.
         24    1    1    2    0    0  0.82307539107E+02 -0.91669830299E+02  0.46654764305E+03  0.48919506127E+03  0.80419002446E+02 0.  1.
          1    1    1    2  501    0  0.21002399868E+02 -0.21906728947E+02  0.52719265213E+02  0.60830309040E+02  0.00000000000E+00 0. -1.
         -2    1    1    2    0  502 -0.10330993898E+03  0.11357655925E+03  0.29986450751E+03  0.33688470011E+03  0.00000000000E+00 0.  1.
<mgrwt>
<rscale>  2 0.16550223E+03</rscale>
<asrwt>0</asrwt>
<pdfrwt beam="1">  1       21 0.13123394E+00 0.16550223E+03</pdfrwt>
<pdfrwt beam="2">  1       21 0.52137433E-02 0.16550223E+03</pdfrwt>
<totfact> 0.10705229E+05</totfact>
</mgrwt>
</event>
<event>
 5    1  0.1281005E-004  0.1856992E+03  0.7546771E-02  0.1162399E+00
         21   -1    0    0  503  502  0.00000000000E+00  0.00000000000E+00  0.58216734545E+02  0.58216734545E+02  0.00000000000E+00 0.  1.
         21   -1    0    0  501  503 -0.00000000000E+00 -0.00000000000E+00 -0.60710565567E+03  0.60710565567E+03  0.00000000000E+00 0. -1.
         24    1    1    2    0    0  0.28384370233E+02  0.10185670144E+03 -0.24567161832E+03  0.27928877547E+03  0.80419002446E+02 0.  0.
          1    1    1    2  501    0  0.21715515549E+02  0.62797605559E+02 -0.75123557834E+02  0.10029283036E+03  0.00000000000E+00 0. -1.
         -2    1    1    2    0  502 -0.50099885782E+02 -0.16465430700E+03 -0.22809374497E+03  0.28574078439E+03  0.00000000000E+00 0.  1.
<mgrwt>
<rscale>  2 0.18569922E+03</rscale>
<asrwt>0</asrwt>
<pdfrwt beam="1">  1       21 0.89564209E-02 0.18569922E+03</pdfrwt>
<pdfrwt beam="2">  1       21 0.93400868E-01 0.18569922E+03</pdfrwt>
<totfact> 0.95225444E+04</totfact>
</mgrwt>
</event>
<event>
 5    1  0.1281005E-004  0.1601333E+03  0.7546771E-02  0.1188546E+00
         21   -1    0    0  501  502  0.00000000000E+00  0.00000000000E+00  0.15792096887E+03  0.15792096887E+03  0.00000000000E+00 0. -1.
         21   -1    0    0  502  503 -0.00000000000E+00 -0.00000000000E+00 -0.20152380440E+03  0.20152380440E+03  0.00000000000E+00 0.  1.
         24    1    1    2    0    0  0.73956244742E+02  0.58220689196E+02  0.53186501958E+02  0.13474121393E+03  0.80419002446E+02 0. -1.
          1    1    1    2  501    0  0.36692702564E+02 -0.76004183644E+02 -0.14421227735E+02  0.85621038082E+02  0.00000000000E+00 0. -1.
         -2    1    1    2    0  503 -0.11064894731E+03  0.17783494448E+02 -0.82368109750E+02  0.13908252125E+03  0.00000000000E+00 0.  1.
<mgrwt>
<rscale>  2 0.16013326E+03</rscale>
<asrwt>0</asrwt>
<pdfrwt beam="1">  1       21 0.24295534E-01 0.16013326E+03</pdfrwt>
<pdfrwt beam="2">  1       21 0.31003662E-01 0.16013326E+03</pdfrwt>
<totfact> 0.16154101E+05</totfact>
</mgrwt>
</event>
<event>
 5    1  0.1281005E-004  0.1219715E+03  0.7546771E-02  0.1239880E+00
         21   -1    0    0  503  502  0.00000000000E+00  0.00000000000E+00  0.15598042096E+03  0.15598042096E+03  0.00000000000E+00 0.  1.
         21   -1    0    0  501  503 -0.00000000000E+00 -0.00000000000E+00 -0.19770358261E+03  0.19770358261E+03  0.00000000000E+00 0. -1.
         24    1    1    2    0    0  0.30976309859E+02  0.53811780728E+02  0.88849028940E+02  0.13496890537E+03  0.80419002446E+02 0.  1.
          1    1    1    2  501    0 -0.34589011454E+02 -0.94946423036E+02 -0.14344312574E+03  0.17546268345E+03  0.00000000000E+00 0. -1.
         -2    1    1    2    0  502  0.36127015941E+01  0.41134642308E+02  0.12870935152E+02  0.43252414757E+02  0.00000000000E+00 0.  1.
<mgrwt>
<rscale>  2 0.12197153E+03</rscale>
<asrwt>0</asrwt>
<pdfrwt beam="1">  1       21 0.23996988E-01 0.12197153E+03</pdfrwt>
<pdfrwt beam="2">  1       21 0.30415936E-01 0.12197153E+03</pdfrwt>
<totfact> 0.17346651E+05</totfact>
</mgrwt>
</event>
<event>
 5    1  0.1281005E-004  0.1384610E+03  0.7546771E-02  0.1215415E+00
         21   -1    0    0  501  502  0.00000000000E+00  0.00000000000E+00  0.40950940049E+03  0.40950940049E+03  0.00000000000E+00 0. -1.
         21   -1    0    0  502  503 -0.00000000000E+00 -0.00000000000E+00 -0.49377686919E+02  0.49377686919E+02  0.00000000000E+00 0. -1.
         24    1    1    2    0    0 -0.57988014772E+01 -0.90570330949E+02  0.11588914755E+03  0.16773229093E+03  0.80419002446E+02 0. -1.
          1    1    1    2  501    0  0.10246290142E+02  0.12275006976E+03  0.21318217421E+03  0.24620967790E+03  0.00000000000E+00 0. -1.
         -2    1    1    2    0  503 -0.44474886647E+01 -0.32179738807E+02  0.31060391800E+02  0.44945118577E+02  0.00000000000E+00 0.  1.
<mgrwt>
<rscale>  2 0.13846097E+03</rscale>
<asrwt>0</asrwt>
<pdfrwt beam="1">  1       21 0.63001444E-01 0.13846097E+03</pdfrwt>
<pdfrwt beam="2">  1       21 0.75965675E-02 0.13846097E+03</pdfrwt>
<totfact> 0.30996789E+05</totfact>
</mgrwt>
</event>
<event>
 5    1  0.1281005E-004  0.2106805E+03  0.7546771E-02  0.1141028E+00
         21   -1    0    0  503  502  0.00000000000E+00  0.00000000000E+00  0.38041166810E+03  0.38041166810E+03  0.00000000000E+00 0.  1.
         21   -1    0    0  501  503 -0.00000000000E+00 -0.00000000000E+00 -0.12304606420E+03  0.12304606420E+03  0.00000000000E+00 0. -1.
         24    1    1    2    0    0  0.29030873515E+02 -0.56633139214E+01  0.28337526103E+02  0.90250186048E+02  0.80419002446E+02 0. -1.
          1    1    1    2  501    0  0.94300608194E+02 -0.12461811793E+03  0.15188744055E+03  0.21792676435E+03  0.00000000000E+00 0. -1.
         -2    1    1    2    0  502 -0.12333148171E+03  0.13028143185E+03  0.77140637239E+02  0.19528078190E+03  0.00000000000E+00 0.  1.
<mgrwt>
<rscale>  2 0.21068049E+03</rscale>
<asrwt>0</asrwt>
<pdfrwt beam="1">  1       21 0.58524871E-01 0.21068049E+03</pdfrwt>
<pdfrwt beam="2">  1       21 0.18930164E-01 0.21068049E+03</pdfrwt>
<totfact> 0.69333872E+04</totfact>
</mgrwt>
</event>
<event>
 5    1  0.1281005E-004  0.1902944E+03  0.7546771E-02  0.1158196E+00
         21   -1    0    0  503  502  0.00000000000E+00  0.00000000000E+00  0.18052001619E+03  0.18052001619E+03  0.00000000000E+00 0. -1.
         21   -1    0    0  501  503 -0.00000000000E+00 -0.00000000000E+00 -0.21176772117E+03  0.21176772117E+03  0.00000000000E+00 0.  1.
         24    1    1    2    0    0 -0.12959441705E+03  0.68078445261E+02 -0.57787378379E+02  0.17673704958E+03  0.80419002446E+02 0.  0.
          1    1    1    2  501    0  0.15981025228E+03 -0.82764616322E+02  0.17876951837E+02  0.18085597545E+03  0.00000000000E+00 0. -1.
         -2    1    1    2    0  502 -0.30215835224E+02  0.14686171062E+02  0.86627215658E+01  0.34694712330E+02  0.00000000000E+00 0.  1.
<mgrwt>
<rscale>  2 0.19029444E+03</rscale>
<asrwt>0</asrwt>
<pdfrwt beam="1">  1       21 0.27772310E-01 0.19029444E+03</pdfrwt>
<pdfrwt beam="2">  1       21 0.32579649E-01 0.19029444E+03</pdfrwt>
<totfact> 0.11231919E+05</totfact>
</mgrwt>
</event>
<event>
 5    1  0.1281005E-004  0.1716008E+03  0.7546771E-02  0.1176189E+00
         21   -1    0    0  503  502  0.00000000000E+00  0.00000000000E+00  0.70826869687E+02  0.70826869687E+02  0.00000000000E+00 0. -1.
         21   -1    0    0  501  503 -0.00000000000E+00 -0.00000000000E+00 -0.46721272031E+03  0.46721272031E+03  0.00000000000E+00 0. -1.
         24    1    1    2    0    0 -0.27759503747E+02  0.39274838418E+02 -0.53119604683E+02  0.10771263314E+03  0.80419002446E+02 0. -1.
          1    1    1    2  501    0  0.13443486344E+03 -0.47320379937E+02 -0.25288301961E+03  0.29027878406E+03  0.00000000000E+00 0. -1.
         -2    1    1    2    0  502 -0.10667535969E+03  0.80455415184E+01 -0.90383226330E+02  0.14004817281E+03  0.00000000000E+00 0.  1.
<mgrwt>
<rscale>  2 0.17160084E+03</rscale>
<asrwt>0</asrwt>
<pdfrwt beam="1">  1       21 0.10896442E-01 0.17160084E+03</pdfrwt>
<pdfrwt beam="2">  1       21 0.71878879E-01 0.17160084E+03</pdfrwt>
<totfact> 0.12274599E+05</totfact>
</mgrwt>
</event>
<event>
 5    1  0.1281005E-004  0.1522746E+03  0.7546771E-02  0.1197706E+00
         21   -1    0    0  503  502  0.00000000000E+00  0.00000000000E+00  0.16869190498E+03  0.16869190498E+03  0.00000000000E+00 0. -1.
         21   -1    0    0  501  503 -0.00000000000E+00 -0.00000000000E+00 -0.14023107832E+03  0.14023107832E+03  0.00000000000E+00 0.  1.
         24    1    1    2    0    0  0.31300583800E+02 -0.21576478969E+02  0.15463287984E+02  0.90286212793E+02  0.80419002446E+02 0. -1.
          1    1    1    2  501    0 -0.16448806488E+02 -0.95841867743E+02  0.22791552074E+02  0.99878334454E+02  0.00000000000E+00 0. -1.
         -2    1    1    2    0  502 -0.14851777312E+02  0.11741834671E+03 -0.97940133995E+01  0.11875843605E+03  0.00000000000E+00 0.  1.
<mgrwt>
<rscale>  2 0.15227459E+03</rscale>
<asrwt>0</asrwt>
<pdfrwt beam="1">  1       21 0.25952601E-01 0.15227459E+03</pdfrwt>
<pdfrwt beam="2">  1       21 0.21574012E-01 0.15227459E+03</pdfrwt>
<totfact> 0.28505433E+05</totfact>
</mgrwt>
</event>
<event>
 5    1  0.1281005E-004  0.1436991E+03  0.7546771E-02  0.1208437E+00
         21   -1    0    0  503  502  0.00000000000E+00  0.00000000000E+00  0.12761916610E+02  0.12761916610E+02  0.00000000000E+00 0.  1.
         21   -1    0    0  501  503 -0.00000000000E+00 -0.00000000000E+00 -0.16560649969E+04  0.16560649969E+04  0.00000000000E+00 0. -1.
         24    1    1    2    0    0  0.85797399014E+01 -0.53547336802E+02 -0.50981778807E+03  0.51896273681E+03  0.80419002446E+02 0.  0.
          1    1    1    2  501    0  0.59486432380E+02 -0.42194288946E+02 -0.34030999062E+03  0.34803718677E+03  0.00000000000E+00 0. -1.
         -2    1    1    2    0  502 -0.68066172282E+02  0.95741625749E+02 -0.79317530164E+03  0.80182698997E+03  0.00000000000E+00 0.  1.
<mgrwt>
<rscale>  2 0.14369907E+03</rscale>
<asrwt>0</asrwt>
<pdfrwt beam="1">  1       21 0.19633725E-02 0.14369907E+03</pdfrwt>
<pdfrwt beam="2">  1       21 0.25477914E+00 0.14369907E+03</pdfrwt>
<totfact> 0.82176378E+04</totfact>
</mgrwt>
</event>
<event>
 5    1  0.1281005E-004  0.1579395E+03  0.7546771E-02  0.1191043E+00
         21   -1    0    0  503  502  0.00000000000E+00  0.00000000000E+00  0.39182906226E+03  0.39182906226E+03  0.00000000000E+00 0.  1.
         21   -1    0    0  501  503 -0.00000000000E+00 -0.00000000000E+00 -0.74041565369E+02  0.74041565369E+02  0.00000000000E+00 0. -1.
         24    1    1    2    0    0  0.91797854531E+02  0.14196398226E+02  0.20450846688E+03  0.23857768714E+03  0.80419002446E+02 0.  0.
          1    1    1    2  501    0 -0.13748694416E+03  0.15750257265E+02  0.59501672390E+02  0.15063591682E+03  0.00000000000E+00 0. -1.
         -2    1    1    2    0  502  0.45689089628E+02 -0.29946655491E+02  0.53777357613E+02  0.76657023670E+02  0.00000000000E+00 0.  1.
<mgrwt>
<rscale>  2 0.15793951E+03</rscale>
<asrwt>0</asrwt>
<pdfrwt beam="1">  1       21 0.60281393E-01 0.15793951E+03</pdfrwt>
<pdfrwt beam="2">  1       21 0.11391010E-01 0.15793951E+03</pdfrwt>
<totfact> 0.16709786E+05</totfact>
</mgrwt>
</event>
<event>
 5    1  0.1281005E-004  0.2983970E+03  0.7546771E-02  0.1086045E+00
         21   -1    0    0  501  502  0.00000000000E+00  0.00000000000E+00  0.18526151387E+03  0.18526151387E+03  0.00000000000E+00 0. -1.
         21   -1    0    0  502  503 -0.00000000000E+00 -0.00000000000E+00 -0.48670207340E+03  0.48670207340E+03  0.00000000000E+00 0.  1.
         24    1    1    2    0    0 -0.73057543754E+02  0.23741510728E+03 -0.16678210444E+03  0.30981740457E+03  0.80419002446E+02 0.  0.
          1    1    1    2  501    0  0.20580662287E+02  0.44453805648E+02 -0.26632299356E+02  0.55758262758E+02  0.00000000000E+00 0. -1.
         -2    1    1    2    0  503  0.52476881467E+02 -0.28186891292E+03 -0.10802615573E+03  0.30638791994E+03  0.00000000000E+00 0.  1.
<mgrwt>
<rscale>  2 0.29839696E+03</rscale>
<asrwt>0</asrwt>
<pdfrwt beam="1">  1       21 0.28501772E-01 0.29839696E+03</pdfrwt>
<pdfrwt beam="2">  1       21 0.74877242E-01 0.29839696E+03</pdfrwt>
<totfact> 0.17797324E+04</totfact>
</mgrwt>
</event>
<event>
 5    1  0.1281005E-004  0.1498994E+03  0.7546771E-02  0.1200597E+00
         21   -1    0    0  503  502  0.00000000000E+00  0.00000000000E+00  0.29472658677E+03  0.29472658677E+03  0.00000000000E+00 0. -1.
         21   -1    0    0  501  503 -0.00000000000E+00 -0.00000000000E+00 -0.80656428623E+02  0.80656428623E+02  0.00000000000E+00 0. -1.
         24    1    1    2    0    0 -0.11509746697E+03  0.15328957838E+02  0.57402020536E+02  0.15246183709E+03  0.80419002446E+02 0. -1.
          1    1    1    2  501    0  0.13584092091E+03 -0.64559561652E+01  0.13583055436E+03  0.19220919505E+03  0.00000000000E+00 0. -1.
         -2    1    1    2    0  502 -0.20743453937E+02 -0.88730016732E+01  0.20837583249E+02  0.30711983257E+02  0.00000000000E+00 0.  1.
<mgrwt>
<rscale>  2 0.14989943E+03</rscale>
<asrwt>0</asrwt>
<pdfrwt beam="1">  1       21 0.45342551E-01 0.14989943E+03</pdfrwt>
<pdfrwt beam="2">  1       21 0.12408681E-01 0.14989943E+03</pdfrwt>
<totfact> 0.26057437E+05</totfact>
</mgrwt>
</event>
<event>
 5    1  0.1281005E-004  0.2619042E+03  0.7546771E-02  0.1106005E+00
         21   -1    0    0  501  502  0.00000000000E+00  0.00000000000E+00  0.55115283553E+02  0.55115283553E+02  0.00000000000E+00 0. -1.
         21   -1    0    0  502  503 -0.00000000000E+00 -0.00000000000E+00 -0.13544519130E+04  0.13544519130E+04  0.00000000000E+00 0. -1.
         24    1    1    2    0    0 -0.18320424966E+03 -0.13457177885E+03 -0.40685240682E+03  0.47293705464E+03  0.80419002446E+02 0. -1.
          1    1    1    2  501    0  0.20700476900E+03  0.14881780221E+03 -0.82982989233E+03  0.86811022506E+03  0.00000000000E+00 0. -1.
         -2    1    1    2    0  503 -0.23800519337E+02 -0.14246023363E+02 -0.62654330330E+02  0.68519916896E+02  0.00000000000E+00 0.  1.
<mgrwt>
<rscale>  2 0.26190419E+03</rscale>
<asrwt>0</asrwt>
<pdfrwt beam="1">  1       21 0.84792749E-02 0.26190419E+03</pdfrwt>
<pdfrwt beam="2">  1       21 0.20837720E+00 0.26190419E+03</pdfrwt>
<totfact> 0.12243778E+04</totfact>
</mgrwt>
</event>
<event>
 5    1  0.1281005E-004  0.9368112E+02  0.7546771E-02  0.1294174E+00
         21   -1    0    0  503  502  0.00000000000E+00  0.00000000000E+00  0.11741177785E+04  0.11741177785E+04  0.00000000000E+00 0. -1.
         21   -1    0    0  501  503 -0.00000000000E+00 -0.00000000000E+00 -0.83743467389E+01  0.83743467389E+01  0.00000000000E+00 0.  1.
         24    1    1    2    0    0 -0.24218782665E+02  0.18852741263E+02  0.34876697994E+03  0.35923195507E+03  0.80419002446E+02 0.  1.
          1    1    1    2  501    0  0.27133145703E+02 -0.56946656010E+02  0.48110332435E+03  0.48522112272E+03  0.00000000000E+00 0. -1.
         -2    1    1    2    0  502 -0.29143630381E+01  0.38093914747E+02  0.33587312742E+03  0.33803904742E+03  0.00000000000E+00 0.  1.
<mgrwt>
<rscale>  2 0.93681116E+02</rscale>
<asrwt>0</asrwt>
<pdfrwt beam="1">  1       21 0.18063337E+00 0.93681116E+02</pdfrwt>
<pdfrwt beam="2">  1       21 0.12883620E-02 0.93681116E+02</pdfrwt>
<totfact> 0.46780920E+05</totfact>
</mgrwt>
</event>
<event>
 5    1  0.1281005E-004  0.1795084E+03  0.7546771E-02  0.1168280E+00
         21   -1    0    0  503  502  0.00000000000E+00  0.00000000000E+00  0.84771578446E+02  0.84771578446E+02  0.00000000000E+00 0.  1.
         21   -1    0    0  501  503 -0.00000000000E+00 -0.00000000000E+00 -0.38577522361E+03  0.38577522361E+03  0.00000000000E+00 0. -1.
         24    1    1    2    0    0  0.30918704404E+02  0.19276295374E+02 -0.54091529996E+02  0.10354057860E+03  0.80419002446E+02 0.  0.
          1    1    1    2  501    0 -0.19863684340E+02 -0.14407684188E+03 -0.14662834501E+03  0.20652499578E+03  0.00000000000E+00 0. -1.
         -2    1    1    2    0  502 -0.11055020064E+02  0.12480054651E+03 -0.10028377016E+03  0.16048122767E+03  0.00000000000E+00 0.  1.
<mgrwt>
<rscale>  2 0.17950842E+03</rscale>
<asrwt>0</asrwt>
<pdfrwt beam="1">  1       21 0.13041781E-01 0.17950842E+03</pdfrwt>
<pdfrwt beam="2">  1       21 0.59350035E-01 0.17950842E+03</pdfrwt>
<totfact> 0.13465772E+05</totfact>
</mgrwt>
</event>
<event>
 5    1  0.1281005E-004  0.1962935E+03  0.7546771E-02  0.1152904E+00
         21   -1    0    0  503  502  0.00000000000E+00  0.00000000000E+00  0.60867673483E+02  0.60867673483E+02  0.00000000000E+00 0. -1.
         21   -1    0    0  501  503 -0.00000000000E+00 -0.00000000000E+00 -0.71895519891E+03  0.71895519891E+03  0.00000000000E+00 0. -1.
         24    1    1    2    0    0 -0.14863741514E+03  0.58898805569E+02 -0.17061930452E+03  0.24726567393E+03  0.80419002446E+02 0. -1.
          1    1    1    2  501    0  0.17646728336E+03 -0.58073291630E+02 -0.40662145636E+03  0.44705057663E+03  0.00000000000E+00 0. -1.
         -2    1    1    2    0  502 -0.27829868213E+02 -0.82551393875E+00 -0.80846764548E+02  0.85506621825E+02  0.00000000000E+00 0.  1.
<mgrwt>
<rscale>  2 0.19629346E+03</rscale>
<asrwt>0</asrwt>
<pdfrwt beam="1">  1       21 0.93642573E-02 0.19629346E+03</pdfrwt>
<pdfrwt beam="2">  1       21 0.11060849E+00 0.19629346E+03</pdfrwt>
<totfact> 0.58605863E+04</totfact>
</mgrwt>
</event>
<event>
 5    1  0.1281005E-004  0.2581819E+03  0.7546771E-02  0.1108241E+00
         21   -1    0    0  503  502  0.00000000000E+00  0.00000000000E+00  0.35544079252E+02  0.35544079252E+02  0.00000000000E+00 0.  1.
         21   -1    0    0  501  503 -0.00000000000E+00 -0.00000000000E+00 -0.27053684141E+04  0.27053684141E+04  0.00000000000E+00 0. -1.
         24    1    1    2    0    0 -0.74237602022E+02  0.68298376462E+02 -0.26728833386E+03  0.29679312518E+03  0.80419002446E+02 0. -1.
          1    1    1    2  501    0 -0.22006705877E+02  0.14851708209E+03 -0.39422427979E+03  0.42184641939E+03  0.00000000000E+00 0. -1.
         -2    1    1    2    0  502  0.96244307900E+02 -0.21681545856E+03 -0.20083117212E+04  0.20222729488E+04  0.00000000000E+00 0.  1.
<mgrwt>
<rscale>  2 0.25818192E+03</rscale>
<asrwt>0</asrwt>
<pdfrwt beam="1">  1       21 0.54683200E-02 0.25818192E+03</pdfrwt>
<pdfrwt beam="2">  1       21 0.41621052E+00 0.25818192E+03</pdfrwt>
<totfact> 0.14617283E+03</totfact>
</mgrwt>
</event>
<event>
 5    1  0.1281005E-004  0.1022785E+03  0.7546771E-02  0.1275576E+00
         21   -1    0    0  503  502  0.00000000000E+00  0.00000000000E+00  0.28006397393E+02  0.28006397393E+02  0.00000000000E+00 0.  1.
         21   -1    0    0  501  503 -0.00000000000E+00 -0.00000000000E+00 -0.37840505017E+03  0.37840505017E+03  0.00000000000E+00 0. -1.
         24    1    1    2    0    0 -0.47988302491E+02  0.27916495935E+02 -0.14760544889E+03  0.17702201111E+03  0.80419002446E+02 0.  1.
          1    1    1    2  501    0 -0.26741893921E+02 -0.15995887102E+02 -0.50710710552E+02  0.59519521666E+02  0.00000000000E+00 0. -1.
         -2    1    1    2    0  502  0.74730196412E+02 -0.11920608833E+02 -0.15208249333E+03  0.16986991479E+03  0.00000000000E+00 0.  1.
<mgrwt>
<rscale>  2 0.10227848E+03</rscale>
<asrwt>0</asrwt>
<pdfrwt beam="1">  1       21 0.43086769E-02 0.10227848E+03</pdfrwt>
<pdfrwt beam="2">  1       21 0.58216157E-01 0.10227848E+03</pdfrwt>
<totfact> 0.95739119E+05</totfact>
</mgrwt>
</event>
<event>
 5    1  0.1281005E-004  0.1469203E+03  0.7546771E-02  0.1204309E+00
         21   -1    0    0  503  502  0.00000000000E+00  0.00000000000E+00  0.16428716951E+02  0.16428716951E+02  0.00000000000E+00 0.  1.
         21   -1    0    0  501  503 -0.00000000000E+00 -0.00000000000E+00 -0.15394644785E+04  0.15394644785E+04  0.00000000000E+00 0.  1.
         24    1    1    2    0    0  0.64829830367E+02  0.76737137568E+02 -0.89068479746E+03  0.89993228610E+03  0.80419002446E+02 0.  1.
          1    1    1    2  501    0  0.16848343354E+02  0.27794223176E+02 -0.23048721271E+03  0.23276756806E+03  0.00000000000E+00 0. -1.
         -2    1    1    2    0  502 -0.81678173721E+02 -0.10453136074E+03 -0.40186375136E+03  0.42319334127E+03  0.00000000000E+00 0.  1.
<mgrwt>
<rscale>  2 0.14692034E+03</rscale>
<asrwt>0</asrwt>
<pdfrwt beam="1">  1       21 0.25274953E-02 0.14692034E+03</pdfrwt>
<pdfrwt beam="2">  1       21 0.23684066E+00 0.14692034E+03</pdfrwt>
<totfact> 0.69120164E+04</totfact>
</mgrwt>
</event>
<event>
 5    1  0.1281005E-004  0.3123338E+03  0.7546771E-02  0.1079233E+00
         21   -1    0    0  501  502  0.00000000000E+00  0.00000000000E+00  0.10513886619E+04  0.10513886619E+04  0.00000000000E+00 0.  1.
         21   -1    0    0  502  503 -0.00000000000E+00 -0.00000000000E+00 -0.10215109341E+03  0.10215109341E+03  0.00000000000E+00 0. -1.
         24    1    1    2    0    0 -0.10019033164E+03 -0.49462692737E+02  0.37334917480E+03  0.39792145306E+03  0.80419002446E+02 0.  1.
          1    1    1    2  501    0 -0.13819982781E+03  0.17063758396E+03  0.29547534415E+03  0.36813320479E+03  0.00000000000E+00 0. -1.
         -2    1    1    2    0  503  0.23839015945E+03 -0.12117489122E+03  0.28041304950E+03  0.38748509741E+03  0.00000000000E+00 0.  1.
<mgrwt>
<rscale>  2 0.31233383E+03</rscale>
<asrwt>0</asrwt>
<pdfrwt beam="1">  1       21 0.16175209E+00 0.31233383E+03</pdfrwt>
<pdfrwt beam="2">  1       21 0.15715554E-01 0.31233383E+03</pdfrwt>
<totfact> 0.81617446E+03</totfact>
</mgrwt>
</event>
<event>
 5    1  0.1281005E-004  0.1338663E+03  0.7546771E-02  0.1221829E+00
         21   -1    0    0  503  502  0.00000000000E+00  0.00000000000E+00  0.38046490917E+03  0.38046490917E+03  0.00000000000E+00 0.  1.
         21   -1    0    0  501  503 -0.00000000000E+00 -0.00000000000E+00 -0.48013007194E+02  0.48013007194E+02  0.00000000000E+00 0. -1.
         24    1    1    2    0    0  0.24163300961E+02  0.33682839466E+02  0.93085792876E+02  0.12980978229E+03  0.80419002446E+02 0.  0.
          1    1    1    2  501    0 -0.14410782501E+02  0.70835193250E+02  0.79830148972E+02  0.10769469783E+03  0.00000000000E+00 0. -1.
         -2    1    1    2    0  502 -0.97525184605E+01 -0.10451803272E+03  0.15953596013E+03  0.19097343625E+03  0.00000000000E+00 0.  1.
<mgrwt>
<rscale>  2 0.13386632E+03</rscale>
<asrwt>0</asrwt>
<pdfrwt beam="1">  1       21 0.58533061E-01 0.13386632E+03</pdfrwt>
<pdfrwt beam="2">  1       21 0.73866167E-02 0.13386632E+03</pdfrwt>
<totfact> 0.38080369E+05</totfact>
</mgrwt>
</event>
<event>
 5    1  0.1281005E-004  0.1389652E+03  0.7546771E-02  0.1214728E+00
         21   -1    0    0  503  502  0.00000000000E+00  0.00000000000E+00  0.26495807586E+02  0.26495807586E+02  0.00000000000E+00 0. -1.
         21   -1    0    0  501  503 -0.00000000000E+00 -0.00000000000E+00 -0.74386932577E+03  0.74386932577E+03  0.00000000000E+00 0. -1.
         24    1    1    2    0    0  0.44577492277E+02  0.81418488593E+02 -0.35557109800E+03  0.37618365832E+03  0.80419002446E+02 0. -1.
          1    1    1    2  501    0 -0.50182310514E+02 -0.11268366276E+03 -0.26503947607E+03  0.29233849561E+03  0.00000000000E+00 0. -1.
         -2    1    1    2    0  502  0.56048182370E+01  0.31265174170E+02 -0.96762944126E+02  0.10184297943E+03  0.00000000000E+00 0.  1.
<mgrwt>
<rscale>  2 0.13896523E+03</rscale>
<asrwt>0</asrwt>
<pdfrwt beam="1">  1       21 0.40762781E-02 0.13896523E+03</pdfrwt>
<pdfrwt beam="2">  1       21 0.11444144E+00 0.13896523E+03</pdfrwt>
<totfact> 0.22912849E+05</totfact>
</mgrwt>
</event>
<event>
 5    1  0.1281005E-004  0.9410302E+02  0.7546771E-02  0.1293209E+00
         21   -1    0    0  501  502  0.00000000000E+00  0.00000000000E+00  0.10476343217E+02  0.10476343217E+02  0.00000000000E+00 0. -1.
         21   -1    0    0  502  503 -0.00000000000E+00 -0.00000000000E+00 -0.86116983377E+03  0.86116983377E+03  0.00000000000E+00 0. -1.
         24    1    1    2    0    0 -0.47623460117E+01  0.62290937238E+02 -0.49256679298E+03  0.50298320280E+03  0.80419002446E+02 0. -1.
          1    1    1    2  501    0  0.27643917372E+02 -0.10178997950E+02 -0.15171472046E+03  0.15454822733E+03  0.00000000000E+00 0. -1.
         -2    1    1    2    0  503 -0.22881571360E+02 -0.52111939288E+02 -0.20641197711E+03  0.21411474685E+03  0.00000000000E+00 0.  1.
<mgrwt>
<rscale>  2 0.94103020E+02</rscale>
<asrwt>0</asrwt>
<pdfrwt beam="1">  1       21 0.16117447E-02 0.94103020E+02</pdfrwt>
<pdfrwt beam="2">  1       21 0.13248770E+00 0.94103020E+02</pdfrwt>
<totfact> 0.73149950E+05</totfact>
</mgrwt>
</event>
<event>
 5    1  0.1281005E-004  0.1440800E+03  0.7546771E-02  0.1207942E+00
         21   -1    0    0  501  502  0.00000000000E+00  0.00000000000E+00  0.11595358007E+03  0.11595358007E+03  0.00000000000E+00 0.  1.
         21   -1    0    0  502  503 -0.00000000000E+00 -0.00000000000E+00 -0.18100929811E+03  0.18100929811E+03  0.00000000000E+00 0. -1.
         24    1    1    2    0    0 -0.37118956814E+02 -0.34932035927E+02 -0.20789834185E+02  0.97455103759E+02  0.80419002446E+02 0.  0.
          1    1    1    2  501    0  0.88667366498E+02  0.83739162650E+02 -0.40155957338E+02  0.12840035106E+03  0.00000000000E+00 0. -1.
         -2    1    1    2    0  503 -0.51548409684E+02 -0.48807126723E+02 -0.41099265124E+01  0.71107423353E+02  0.00000000000E+00 0.  1.
<mgrwt>
<rscale>  2 0.14407997E+03</rscale>
<asrwt>0</asrwt>
<pdfrwt beam="1">  1       21 0.17839013E-01 0.14407997E+03</pdfrwt>
<pdfrwt beam="2">  1       21 0.27847584E-01 0.14407997E+03</pdfrwt>
<totfact> 0.35474076E+05</totfact>
</mgrwt>
</event>
<event>
 5    1  0.1281005E-004  0.2327243E+03  0.7546771E-02  0.1124737E+00
         21   -1    0    0  501  502  0.00000000000E+00  0.00000000000E+00  0.56277466566E+03  0.56277466566E+03  0.00000000000E+00 0. -1.
         21   -1    0    0  502  503 -0.00000000000E+00 -0.00000000000E+00 -0.10825854880E+03  0.10825854880E+03  0.00000000000E+00 0.  1.
         24    1    1    2    0    0  0.15226179080E+02 -0.88540024914E+02  0.10768872658E+03  0.16166400443E+03  0.80419002446E+02 0.  1.
          1    1    1    2  501    0  0.82257110421E+02 -0.10188554040E+03  0.23242357682E+03  0.26677258971E+03  0.00000000000E+00 0. -1.
         -2    1    1    2    0  503 -0.97483289501E+02  0.19042556532E+03  0.11440381345E+03  0.24259662032E+03  0.00000000000E+00 0.  1.
<mgrwt>
<rscale>  2 0.23272435E+03</rscale>
<asrwt>0</asrwt>
<pdfrwt beam="1">  1       21 0.86580716E-01 0.23272435E+03</pdfrwt>
<pdfrwt beam="2">  1       21 0.16655162E-01 0.23272435E+03</pdfrwt>
<totfact> 0.36456987E+04</totfact>
</mgrwt>
</event>
<event>
 5    1  0.1281005E-004  0.2037473E+03  0.7546771E-02  0.1146615E+00
         21   -1    0    0  503  502  0.00000000000E+00  0.00000000000E+00  0.17947563064E+03  0.17947563064E+03  0.00000000000E+00 0.  1.
         21   -1    0    0  501  503 -0.00000000000E+00 -0.00000000000E+00 -0.24714124398E+03  0.24714124398E+03  0.00000000000E+00 0. -1.
         24    1    1    2    0    0  0.34507688463E+02 -0.58296746959E+02 -0.23276360936E+02  0.10769538617E+03  0.80419002446E+02 0. -1.
          1    1    1    2  501    0  0.45115948382E+02 -0.10850619146E+03 -0.62684412284E+02  0.13318550194E+03  0.00000000000E+00 0. -1.
         -2    1    1    2    0  502 -0.79623636845E+02  0.16680293842E+03  0.18295159879E+02  0.18573598651E+03  0.00000000000E+00 0.  1.
<mgrwt>
<rscale>  2 0.20374728E+03</rscale>
<asrwt>0</asrwt>
<pdfrwt beam="1">  1       21 0.27611636E-01 0.20374728E+03</pdfrwt>
<pdfrwt beam="2">  1       21 0.38021730E-01 0.20374728E+03</pdfrwt>
<totfact> 0.83106254E+04</totfact>
</mgrwt>
</event>
<event>
 5    1  0.1281005E-004  0.8921840E+02  0.7546771E-02  0.1304756E+00
         21   -1    0    0  501  502  0.00000000000E+00  0.00000000000E+00  0.51909588681E+02  0.51909588681E+02  0.00000000000E+00 0. -1.
         21   -1    0    0  502  503 -0.00000000000E+00 -0.00000000000E+00 -0.16485397280E+03  0.16485397280E+03  0.00000000000E+00 0.  1.
         24    1    1    2    0    0  0.31976253412E+02  0.30906573109E+02 -0.77251213102E+02  0.12005275059E+03  0.80419002446E+02 0.  1.
          1    1    1    2  501    0  0.21572719375E+02 -0.24445663312E+02 -0.26459061491E+02  0.41988743861E+02  0.00000000000E+00 0. -1.
         -2    1    1    2    0  503 -0.53548972787E+02 -0.64609097961E+01 -0.92341095301E+01  0.54722067037E+02  0.00000000000E+00 0.  1.
<mgrwt>
<rscale>  2 0.89218401E+02</rscale>
<asrwt>0</asrwt>
<pdfrwt beam="1">  1       21 0.79860907E-02 0.89218401E+02</pdfrwt>
<pdfrwt beam="2">  1       21 0.25362149E-01 0.89218401E+02</pdfrwt>
<totfact> 0.17472231E+06</totfact>
</mgrwt>
</event>
<event>
 5    1  0.1281005E-004  0.2043738E+03  0.7546771E-02  0.1146100E+00
         21   -1    0    0  501  502  0.00000000000E+00  0.00000000000E+00  0.10940468250E+03  0.10940468250E+03  0.00000000000E+00 0. -1.
         21   -1    0    0  502  503 -0.00000000000E+00 -0.00000000000E+00 -0.48979267547E+03  0.48979267547E+03  0.00000000000E+00 0.  1.
         24    1    1    2    0    0 -0.77361418423E+01 -0.37231270859E+02 -0.46227219765E+02  0.10025062205E+03  0.80419002446E+02 0. -1.
          1    1    1    2  501    0  0.11852364970E+03  0.12954511698E+03 -0.53748272405E+02  0.18362644052E+03  0.00000000000E+00 0. -1.
         -2    1    1    2    0  503 -0.11078750786E+03 -0.92313846117E+02 -0.28041250080E+03  0.31532029539E+03  0.00000000000E+00 0.  1.
<mgrwt>
<rscale>  2 0.20437385E+03</rscale>
<asrwt>0</asrwt>
<pdfrwt beam="1">  1       21 0.16831490E-01 0.20437385E+03</pdfrwt>
<pdfrwt beam="2">  1       21 0.75352718E-01 0.20437385E+03</pdfrwt>
<totfact> 0.49700531E+04</totfact>
</mgrwt>
</event>
<event>
 5    1  0.1281005E-004  0.3614729E+03  0.7546771E-02  0.1058002E+00
         21   -1    0    0  501  502  0.00000000000E+00  0.00000000000E+00  0.48073088882E+03  0.48073088882E+03  0.00000000000E+00 0. -1.
         21   -1    0    0  502  503 -0.00000000000E+00 -0.00000000000E+00 -0.30883891912E+03  0.30883891912E+03  0.00000000000E+00 0.  1.
         24    1    1    2    0    0 -0.23525648266E+03 -0.85517756572E+02  0.30537227093E+02  0.26468592239E+03  0.80419002446E+02 0.  1.
          1    1    1    2  501    0  0.34322610823E+03  0.76747694968E+02  0.19698440777E+03  0.40310944787E+03  0.00000000000E+00 0. -1.
         -2    1    1    2    0  503 -0.10796962558E+03  0.87700616039E+01 -0.55629665158E+02  0.12177443769E+03  0.00000000000E+00 0.  1.
<mgrwt>
<rscale>  2 0.36147289E+03</rscale>
<asrwt>0</asrwt>
<pdfrwt beam="1">  1       21 0.73958598E-01 0.36147289E+03</pdfrwt>
<pdfrwt beam="2">  1       21 0.47513680E-01 0.36147289E+03</pdfrwt>
<totfact> 0.63360661E+03</totfact>
</mgrwt>
</event>
<event>
 5    1  0.1281005E-004  0.1725301E+03  0.7546771E-02  0.1175235E+00
         21   -1    0    0  503  502  0.00000000000E+00  0.00000000000E+00  0.54859580731E+03  0.54859580731E+03  0.00000000000E+00 0.  1.
         21   -1    0    0  501  503 -0.00000000000E+00 -0.00000000000E+00 -0.67603772829E+02  0.67603772829E+02  0.00000000000E+00 0. -1.
         24    1    1    2    0    0  0.62001743074E+02  0.14713047536E+02  0.39775707961E+02  0.11004550336E+03  0.80419002446E+02 0. -1.
          1    1    1    2  501    0 -0.10368623885E+03  0.85196007138E+02  0.19008637131E+03  0.23268438779E+03  0.00000000000E+00 0. -1.
         -2    1    1    2    0  502  0.41684495781E+02 -0.99909054674E+02  0.25112995521E+03  0.27346968899E+03  0.00000000000E+00 0.  1.
<mgrwt>
<rscale>  2 0.17253009E+03</rscale>
<asrwt>0</asrwt>
<pdfrwt beam="1">  1       21 0.84399352E-01 0.17253009E+03</pdfrwt>
<pdfrwt beam="2">  1       21 0.10400581E-01 0.17253009E+03</pdfrwt>
<totfact> 0.92958124E+04</totfact>
</mgrwt>
</event>
<event>
 5    1  0.1281005E-004  0.1399963E+03  0.7546771E-02  0.1213334E+00
         21   -1    0    0  503  502  0.00000000000E+00  0.00000000000E+00  0.18284904927E+03  0.18284904927E+03  0.00000000000E+00 0. -1.
         21   -1    0    0  501  503 -0.00000000000E+00 -0.00000000000E+00 -0.11143730678E+03  0.11143730678E+03  0.00000000000E+00 0.  1.
         24    1    1    2    0    0 -0.52855580876E+02 -0.19946857413E+02 -0.33051185868E+00  0.98279777894E+02  0.80419002446E+02 0.  1.
          1    1    1    2  501    0  0.10272871552E+03 -0.34034428145E+02  0.34303591804E+02  0.11352650660E+03  0.00000000000E+00 0. -1.
         -2    1    1    2    0  502 -0.49873134641E+02  0.53981285558E+02  0.37438662553E+02  0.82480071551E+02  0.00000000000E+00 0.  1.
<mgrwt>
<rscale>  2 0.13999632E+03</rscale>
<asrwt>0</asrwt>
<pdfrwt beam="1">  1       21 0.28130623E-01 0.13999632E+03</pdfrwt>
<pdfrwt beam="2">  1       21 0.17144201E-01 0.13999632E+03</pdfrwt>
<totfact> 0.37438564E+05</totfact>
</mgrwt>
</event>
<event>
 5    1  0.1281005E-004  0.3070936E+03  0.7546771E-02  0.1081747E+00
         21   -1    0    0  503  502  0.00000000000E+00  0.00000000000E+00  0.10298078268E+04  0.10298078268E+04  0.00000000000E+00 0.  1.
         21   -1    0    0  501  503 -0.00000000000E+00 -0.00000000000E+00 -0.93305406523E+02  0.93305406523E+02  0.00000000000E+00 0. -1.
         24    1    1    2    0    0  0.37772670858E+02  0.40713313032E+02  0.18289938569E+03  0.20737345482E+03  0.80419002446E+02 0.  0.
          1    1    1    2  501    0  0.84106280496E+02 -0.25578066553E+03  0.33749165138E+03  0.43173861308E+03  0.00000000000E+00 0. -1.
         -2    1    1    2    0  502 -0.12187895135E+03  0.21506735250E+03  0.41611138319E+03  0.48400116541E+03  0.00000000000E+00 0.  1.
<mgrwt>
<rscale>  2 0.30709357E+03</rscale>
<asrwt>0</asrwt>
<pdfrwt beam="1">  1       21 0.15843197E+00 0.30709357E+03</pdfrwt>
<pdfrwt beam="2">  1       21 0.14354679E-01 0.30709357E+03</pdfrwt>
<totfact> 0.10234873E+04</totfact>
</mgrwt>
</event>
<event>
 5    1  0.1281005E-004  0.5694228E+03  0.7546771E-02  0.9970957E-01
         21   -1    0    0  501  502  0.00000000000E+00  0.00000000000E+00  0.34045416467E+03  0.34045416467E+03  0.00000000000E+00 0.  1.
         21   -1    0    0  502  503 -0.00000000000E+00 -0.00000000000E+00 -0.10542195613E+04  0.10542195613E+04  0.00000000000E+00 0.  1.
         24    1    1    2    0    0  0.20425192240E+03  0.43777737202E+03 -0.40313045272E+03  0.63431006071E+03  0.80419002446E+02 0.  1.
          1    1    1    2  501    0  0.12642100025E+03 -0.41637880314E+02  0.37029837801E+02  0.13815640147E+03  0.00000000000E+00 0. -1.
         -2    1    1    2    0  503 -0.33067292265E+03 -0.39613949170E+03 -0.34766478170E+03  0.62220726377E+03  0.00000000000E+00 0.  1.
<mgrwt>
<rscale>  2 0.56942281E+03</rscale>
<asrwt>0</asrwt>
<pdfrwt beam="1">  1       21 0.52377564E-01 0.56942281E+03</pdfrwt>
<pdfrwt beam="2">  1       21 0.16218762E+00 0.56942281E+03</pdfrwt>
<totfact> 0.66919194E+02</totfact>
</mgrwt>
</event>
<event>
 5    1  0.1281005E-004  0.1107747E+03  0.7546771E-02  0.1259142E+00
         21   -1    0    0  503  502  0.00000000000E+00  0.00000000000E+00  0.12318369654E+02  0.12318369654E+02  0.00000000000E+00 0. -1.
         21   -1    0    0  501  503 -0.00000000000E+00 -0.00000000000E+00 -0.12142387524E+04  0.12142387524E+04  0.00000000000E+00 0.  1.
         24    1    1    2    0    0 -0.33642250342E+02 -0.24413035011E+02 -0.30551947732E+03  0.31864896715E+03  0.80419002446E+02 0.  0.
          1    1    1    2  501    0  0.81145477659E+02  0.17622849982E+02 -0.73057355642E+03  0.73527741345E+03  0.00000000000E+00 0. -1.
         -2    1    1    2    0  502 -0.47503227317E+02  0.67901850287E+01 -0.16582734896E+03  0.17263074141E+03  0.00000000000E+00 0.  1.
<mgrwt>
<rscale>  2 0.11077472E+03</rscale>
<asrwt>0</asrwt>
<pdfrwt beam="1">  1       21 0.18951335E-02 0.11077472E+03</pdfrwt>
<pdfrwt beam="2">  1       21 0.18680599E+00 0.11077472E+03</pdfrwt>
<totfact> 0.22886794E+05</totfact>
</mgrwt>
</event>
<event>
 5    1  0.1281005E-004  0.2020091E+03  0.7546771E-02  0.1148055E+00
         21   -1    0    0  503  502  0.00000000000E+00  0.00000000000E+00  0.52789731005E+03  0.52789731005E+03  0.00000000000E+00 0.  1.
         21   -1    0    0  501  503 -0.00000000000E+00 -0.00000000000E+00 -0.86184404116E+02  0.86184404116E+02  0.00000000000E+00 0. -1.
         24    1    1    2    0    0  0.48015188401E+02  0.77595398143E+01  0.82737035755E+02  0.12521302574E+03  0.80419002446E+02 0.  0.
          1    1    1    2  501    0  0.13067774132E+03  0.59799797274E+01  0.68786703970E+02  0.14779730335E+03  0.00000000000E+00 0. -1.
         -2    1    1    2    0  502 -0.17869292972E+03 -0.13739519542E+02  0.29018916621E+03  0.34107138508E+03  0.00000000000E+00 0.  1.
<mgrwt>
<rscale>  2 0.20200914E+03</rscale>
<asrwt>0</asrwt>
<pdfrwt beam="1">  1       21 0.81214969E-01 0.20200914E+03</pdfrwt>
<pdfrwt beam="2">  1       21 0.13259139E-01 0.20200914E+03</pdfrwt>
<totfact> 0.64918683E+04</totfact>
</mgrwt>
</event>
<event>
 5    1  0.1281005E-004  0.1857622E+03  0.7546771E-02  0.1162340E+00
         21   -1    0    0  501  502  0.00000000000E+00  0.00000000000E+00  0.47753472353E+03  0.47753472353E+03  0.00000000000E+00 0. -1.
         21   -1    0    0  502  503 -0.00000000000E+00 -0.00000000000E+00 -0.83237361878E+02  0.83237361878E+02  0.00000000000E+00 0.  1.
         24    1    1    2    0    0 -0.14855641342E+02 -0.59053746355E+02  0.31752742494E+02  0.10575201014E+03  0.80419002446E+02 0.  1.
          1    1    1    2  501    0 -0.91575570029E+02 -0.61139076208E+02  0.10909632057E+03  0.15500348005E+03  0.00000000000E+00 0. -1.
         -2    1    1    2    0  503  0.10643121137E+03  0.12019282256E+03  0.25344829860E+03  0.30001659523E+03  0.00000000000E+00 0.  1.
<mgrwt>
<rscale>  2 0.18576219E+03</rscale>
<asrwt>0</asrwt>
<pdfrwt beam="1">  1       21 0.73466879E-01 0.18576219E+03</pdfrwt>
<pdfrwt beam="2">  1       21 0.12805748E-01 0.18576219E+03</pdfrwt>
<totfact> 0.87190616E+04</totfact>
</mgrwt>
</event>
<event>
 5    1  0.1281005E-004  0.1379588E+03  0.7546771E-02  0.1216102E+00
         21   -1    0    0  501  502  0.00000000000E+00  0.00000000000E+00  0.11617174111E+03  0.11617174111E+03  0.00000000000E+00 0.  1.
         21   -1    0    0  502  503 -0.00000000000E+00 -0.00000000000E+00 -0.18770049303E+03  0.18770049303E+03  0.00000000000E+00 0. -1.
         24    1    1    2    0    0  0.20503438907E+02 -0.32389432940E+02  0.11823652851E+02  0.89869244429E+02  0.80419002446E+02 0.  1.
          1    1    1    2  501    0  0.61557372277E+02 -0.43245283829E+02 -0.87757365118E+00  0.75234531902E+02  0.00000000000E+00 0. -1.
         -2    1    1    2    0  503 -0.82060811184E+02  0.75634716769E+02 -0.82474831121E+02  0.13876845780E+03  0.00000000000E+00 0.  1.
<mgrwt>
<rscale>  2 0.13795880E+03</rscale>
<asrwt>0</asrwt>
<pdfrwt beam="1">  1       21 0.17872576E-01 0.13795880E+03</pdfrwt>
<pdfrwt beam="2">  1       21 0.28876999E-01 0.13795880E+03</pdfrwt>
<totfact> 0.33002203E+05</totfact>
</mgrwt>
</event>
<event>
 5    1  0.1281005E-004  0.2576624E+03  0.7546771E-02  0.1108556E+00
         21   -1    0    0  501  502  0.00000000000E+00  0.00000000000E+00  0.81508091553E+03  0.81508091553E+03  0.00000000000E+00 0.  1.
         21   -1    0    0  502  503 -0.00000000000E+00 -0.00000000000E+00 -0.94816997933E+02  0.94816997933E+02  0.00000000000E+00 0. -1.
         24    1    1    2    0    0 -0.29621697376E+02 -0.10843725584E+03  0.17056149899E+03  0.21953251308E+03  0.80419002446E+02 0.  1.
          1    1    1    2  501    0 -0.14465000467E+03  0.13849989372E+03  0.43688656194E+03  0.48059932628E+03  0.00000000000E+00 0. -1.
         -2    1    1    2    0  503  0.17427170204E+03 -0.30062637881E+02  0.11281585667E+03  0.20976607411E+03  0.00000000000E+00 0.  1.
<mgrwt>
<rscale>  2 0.25766239E+03</rscale>
<asrwt>0</asrwt>
<pdfrwt beam="1">  1       21 0.12539706E+00 0.25766239E+03</pdfrwt>
<pdfrwt beam="2">  1       21 0.14587231E-01 0.25766239E+03</pdfrwt>
<totfact> 0.18807516E+04</totfact>
</mgrwt>
</event>
<event>
 5    1  0.1281005E-004  0.1475983E+03  0.7546771E-02  0.1203456E+00
         21   -1    0    0  503  502  0.00000000000E+00  0.00000000000E+00  0.28073163435E+04  0.28073163435E+04  0.00000000000E+00 0. -1.
         21   -1    0    0  501  503 -0.00000000000E+00 -0.00000000000E+00 -0.78840278899E+01  0.78840278899E+01  0.00000000000E+00 0.  1.
         24    1    1    2    0    0 -0.72907741119E+01  0.15300642857E+02  0.82880317835E+03  0.83286805044E+03  0.80419002446E+02 0. -1.
          1    1    1    2  501    0  0.94074113270E+02  0.47982889744E+02  0.83977701819E+03  0.84639100703E+03  0.00000000000E+00 0. -1.
         -2    1    1    2    0  502 -0.86783339159E+02 -0.63283532601E+02  0.11308521190E+04  0.11359413139E+04  0.00000000000E+00 0.  1.
<mgrwt>
<rscale>  2 0.14759829E+03</rscale>
<asrwt>0</asrwt>
<pdfrwt beam="1">  1       21 0.43189403E+00 0.14759829E+03</pdfrwt>
<pdfrwt beam="2">  1       21 0.12129296E-02 0.14759829E+03</pdfrwt>
<totfact> 0.16089807E+04</totfact>
</mgrwt>
</event>
<event>
 5    1  0.1281005E-004  0.1953603E+03  0.7546771E-02  0.1153714E+00
         21   -1    0    0  501  502  0.00000000000E+00  0.00000000000E+00  0.31264772301E+02  0.31264772301E+02  0.00000000000E+00 0.  1.
         21   -1    0    0  502  503 -0.00000000000E+00 -0.00000000000E+00 -0.12389206464E+04  0.12389206464E+04  0.00000000000E+00 0.  1.
         24    1    1    2    0    0 -0.67772163148E+02 -0.12823576006E+03 -0.55544489571E+03  0.57967553371E+03  0.80419002446E+02 0.  1.
          1    1    1    2  501    0 -0.16431262553E+02 -0.36410630986E+02 -0.85108298924E+02  0.94016716512E+02  0.00000000000E+00 0. -1.
         -2    1    1    2    0  503  0.84203425701E+02  0.16464639105E+03 -0.56710267947E+03  0.59649316848E+03  0.00000000000E+00 0.  1.
<mgrwt>
<rscale>  2 0.19536031E+03</rscale>
<asrwt>0</asrwt>
<pdfrwt beam="1">  1       21 0.48099651E-02 0.19536031E+03</pdfrwt>
<pdfrwt beam="2">  1       21 0.19060317E+00 0.19536031E+03</pdfrwt>
<totfact> 0.44314689E+04</totfact>
</mgrwt>
</event>
<event>
 5    1  0.1281005E-004  0.1571951E+03  0.7546771E-02  0.1191900E+00
         21   -1    0    0  503  502  0.00000000000E+00  0.00000000000E+00  0.43981847359E+02  0.43981847359E+02  0.00000000000E+00 0.  1.
         21   -1    0    0  501  503 -0.00000000000E+00 -0.00000000000E+00 -0.57027457234E+03  0.57027457234E+03  0.00000000000E+00 0.  1.
         24    1    1    2    0    0  0.78344267788E+02  0.25918304563E+02 -0.22143645451E+03  0.24962151780E+03  0.80419002446E+02 0.  1.
          1    1    1    2  501    0  0.20369790726E+02  0.63059882083E+02 -0.85706683846E+02  0.10833795622E+03  0.00000000000E+00 0. -1.
         -2    1    1    2    0  502 -0.98714058514E+02 -0.88978186645E+02 -0.21914958662E+03  0.25629694568E+03  0.00000000000E+00 0.  1.
<mgrwt>
<rscale>  2 0.15719505E+03</rscale>
<asrwt>0</asrwt>
<pdfrwt beam="1">  1       21 0.67664383E-02 0.15719505E+03</pdfrwt>
<pdfrwt beam="2">  1       21 0.87734547E-01 0.15719505E+03</pdfrwt>
<totfact> 0.18085143E+05</totfact>
</mgrwt>
</event>
<event>
 5    1  0.1281005E-004  0.1501029E+03  0.7546771E-02  0.1200347E+00
         21   -1    0    0  503  502  0.00000000000E+00  0.00000000000E+00  0.28557065948E+02  0.28557065948E+02  0.00000000000E+00 0.  1.
         21   -1    0    0  501  503 -0.00000000000E+00 -0.00000000000E+00 -0.79940786262E+03  0.79940786262E+03  0.00000000000E+00 0. -1.
         24    1    1    2    0    0 -0.18195146278E+02 -0.36182511730E+02 -0.24742881813E+03  0.26330300701E+03  0.80419002446E+02 0.  0.
          1    1    1    2  501    0 -0.52765034890E+02 -0.66784953933E+02 -0.24747333554E+03  0.26170103321E+03  0.00000000000E+00 0. -1.
         -2    1    1    2    0  502  0.70960181168E+02  0.10296746566E+03 -0.27594864299E+03  0.30296088835E+03  0.00000000000E+00 0.  1.
<mgrwt>
<rscale>  2 0.15010295E+03</rscale>
<asrwt>0</asrwt>
<pdfrwt beam="1">  1       21 0.43933951E-02 0.15010295E+03</pdfrwt>
<pdfrwt beam="2">  1       21 0.12298582E+00 0.15010295E+03</pdfrwt>
<totfact> 0.16897232E+05</totfact>
</mgrwt>
</event>
<event>
 5    1  0.1281005E-004  0.1371927E+03  0.7546771E-02  0.1217157E+00
         21   -1    0    0  501  502  0.00000000000E+00  0.00000000000E+00  0.56967138688E+03  0.56967138688E+03  0.00000000000E+00 0. -1.
         21   -1    0    0  502  503 -0.00000000000E+00 -0.00000000000E+00 -0.35442463657E+02  0.35442463657E+02  0.00000000000E+00 0.  1.
         24    1    1    2    0    0 -0.83408998927E+01  0.35436280092E+02  0.18986561297E+03  0.20938354162E+03  0.80419002446E+02 0.  0.
          1    1    1    2  501    0 -0.63946363089E+02  0.44826872740E+02  0.20525305489E+03  0.21960738242E+03  0.00000000000E+00 0. -1.
         -2    1    1    2    0  503  0.72287262982E+02 -0.80263152831E+02  0.13911025537E+03  0.17612292651E+03  0.00000000000E+00 0.  1.
<mgrwt>
<rscale>  2 0.13719272E+03</rscale>
<asrwt>0</asrwt>
<pdfrwt beam="1">  1       21 0.87641745E-01 0.13719272E+03</pdfrwt>
<pdfrwt beam="2">  1       21 0.54526871E-02 0.13719272E+03</pdfrwt>
<totfact> 0.26320015E+05</totfact>
</mgrwt>
</event>
<event>
 5    1  0.1281005E-004  0.1022385E+03  0.7546771E-02  0.1275658E+00
         21   -1    0    0  503  502  0.00000000000E+00  0.00000000000E+00  0.63628216932E+02  0.63628216932E+02  0.00000000000E+00 0.  1.
         21   -1    0    0  501  503 -0.00000000000E+00 -0.00000000000E+00 -0.16694530126E+03  0.16694530126E+03  0.00000000000E+00 0. -1.
         24    1    1    2    0    0 -0.14907912011E+01 -0.49309544325E+02 -0.33711920503E+02  0.10018664162E+03  0.80419002446E+02 0.  0.
          1    1    1    2  501    0  0.41796732342E+02  0.55369055553E+02 -0.40875002384E+02  0.80519966265E+02  0.00000000000E+00 0. -1.
         -2    1    1    2    0  502 -0.40305941141E+02 -0.60595112279E+01 -0.28730161441E+02  0.49866910312E+02  0.00000000000E+00 0.  1.
<mgrwt>
<rscale>  2 0.10223846E+03</rscale>
<asrwt>0</asrwt>
<pdfrwt beam="1">  1       21 0.97889566E-02 0.10223846E+03</pdfrwt>
<pdfrwt beam="2">  1       21 0.25683892E-01 0.10223846E+03</pdfrwt>
<totfact> 0.12063497E+06</totfact>
</mgrwt>
</event>
<event>
 5    1  0.1281005E-004  0.1043830E+03  0.7546771E-02  0.1271340E+00
         21   -1    0    0  503  502  0.00000000000E+00  0.00000000000E+00  0.13573639234E+04  0.13573639234E+04  0.00000000000E+00 0.  1.
         21   -1    0    0  501  503 -0.00000000000E+00 -0.00000000000E+00 -0.84876804265E+01  0.84876804265E+01  0.00000000000E+00 0. -1.
         24    1    1    2    0    0  0.14765484164E+01  0.52907048480E+02  0.66894835700E+03  0.67584055535E+03  0.80419002446E+02 0.  0.
          1    1    1    2  501    0 -0.79968657363E+01  0.29124494741E+02  0.10618012545E+03  0.11039205178E+03  0.00000000000E+00 0. -1.
         -2    1    1    2    0  502  0.65203173199E+01 -0.82031543221E+02  0.57374776053E+03  0.57961899670E+03  0.00000000000E+00 0.  1.
<mgrwt>
<rscale>  2 0.10438300E+03</rscale>
<asrwt>0</asrwt>
<pdfrwt beam="1">  1       21 0.20882505E+00 0.10438300E+03</pdfrwt>
<pdfrwt beam="2">  1       21 0.13057981E-02 0.10438300E+03</pdfrwt>
<totfact> 0.30269139E+05</totfact>
</mgrwt>
</event>
<event>
 5    1  0.1281005E-004  0.1462641E+03  0.7546771E-02  0.1205140E+00
         21   -1    0    0  501  502  0.00000000000E+00  0.00000000000E+00  0.29879477068E+02  0.29879477068E+02  0.00000000000E+00 0. -1.
         21   -1    0    0  502  503 -0.00000000000E+00 -0.00000000000E+00 -0.72621495957E+03  0.72621495957E+03  0.00000000000E+00 0.  1.
         24    1    1    2    0    0  0.70673147420E+02 -0.44374856854E+02 -0.26531248245E+03  0.28951986285E+03  0.80419002446E+02 0.  0.
          1    1    1    2  501    0  0.62704478921E+01 -0.52527627344E+02 -0.99048932609E+02  0.11229052143E+03  0.00000000000E+00 0. -1.
         -2    1    1    2    0  503 -0.76943595312E+02  0.96902484198E+02 -0.33197406744E+03  0.35428405236E+03  0.00000000000E+00 0.  1.
<mgrwt>
<rscale>  2 0.14626408E+03</rscale>
<asrwt>0</asrwt>
<pdfrwt beam="1">  1       21 0.45968424E-02 0.14626408E+03</pdfrwt>
<pdfrwt beam="2">  1       21 0.11172538E+00 0.14626408E+03</pdfrwt>
<totfact> 0.19813053E+05</totfact>
</mgrwt>
</event>
<event>
 5    1  0.1281005E-004  0.1641986E+03  0.7546771E-02  0.1184036E+00
         21   -1    0    0  501  502  0.00000000000E+00  0.00000000000E+00  0.35768869181E+03  0.35768869181E+03  0.00000000000E+00 0. -1.
         21   -1    0    0  502  503 -0.00000000000E+00 -0.00000000000E+00 -0.75801404443E+02  0.75801404443E+02  0.00000000000E+00 0. -1.
         24    1    1    2    0    0 -0.88973041119E+02  0.70295389861E+02  0.11314597935E+03  0.17923970676E+03  0.80419002446E+02 0. -1.
          1    1    1    2  501    0  0.39141219641E+02 -0.11559311978E+03  0.97378916720E+02  0.15612961871E+03  0.00000000000E+00 0. -1.
         -2    1    1    2    0  503  0.49831821479E+02  0.45297729922E+02  0.71362391292E+02  0.98120770782E+02  0.00000000000E+00 0.  1.
<mgrwt>
<rscale>  2 0.16419859E+03</rscale>
<asrwt>0</asrwt>
<pdfrwt beam="1">  1       21 0.55029029E-01 0.16419859E+03</pdfrwt>
<pdfrwt beam="2">  1       21 0.11661755E-01 0.16419859E+03</pdfrwt>
<totfact> 0.19409652E+05</totfact>
</mgrwt>
</event>
<event>
 5    1  0.1281005E-004  0.1512831E+03  0.7546771E-02  0.1198905E+00
         21   -1    0    0  503  502  0.00000000000E+00  0.00000000000E+00  0.13973284480E+03  0.13973284480E+03  0.00000000000E+00 0.  1.
         21   -1    0    0  501  503 -0.00000000000E+00 -0.00000000000E+00 -0.17642516435E+03  0.17642516435E+03  0.00000000000E+00 0.  1.
         24    1    1    2    0    0 -0.16324207514E+02  0.46382557939E+02 -0.38899373602E+02  0.10197155806E+03  0.80419002446E+02 0.  1.
          1    1    1    2  501    0  0.86695354074E+02  0.41173058085E+02  0.25848294687E+02  0.99395369451E+02  0.00000000000E+00 0. -1.
         -2    1    1    2    0  502 -0.70371146561E+02 -0.87555616024E+02 -0.23641240640E+02  0.11479108164E+03  0.00000000000E+00 0.  1.
<mgrwt>
<rscale>  2 0.15128313E+03</rscale>
<asrwt>0</asrwt>
<pdfrwt beam="1">  1       21 0.21497361E-01 0.15128313E+03</pdfrwt>
<pdfrwt beam="2">  1       21 0.27142333E-01 0.15128313E+03</pdfrwt>
<totfact> 0.26346426E+05</totfact>
</mgrwt>
</event>
<event>
 5    1  0.1281005E-004  0.1878495E+03  0.7546771E-02  0.1160415E+00
         21   -1    0    0  503  502  0.00000000000E+00  0.00000000000E+00  0.32681139328E+03  0.32681139328E+03  0.00000000000E+00 0. -1.
         21   -1    0    0  501  503 -0.00000000000E+00 -0.00000000000E+00 -0.10826605143E+03  0.10826605143E+03  0.00000000000E+00 0.  1.
         24    1    1    2    0    0  0.10227121979E+03  0.83356454338E+02  0.90659252331E+02  0.17914803059E+03  0.80419002446E+02 0.  0.
          1    1    1    2  501    0 -0.15183033931E+03 -0.79732301136E+02  0.10619219255E+03  0.20170888314E+03  0.00000000000E+00 0. -1.
         -2    1    1    2    0  502  0.49559119520E+02 -0.36241532016E+01  0.21693896964E+02  0.54220530977E+02  0.00000000000E+00 0.  1.
<mgrwt>
<rscale>  2 0.18784955E+03</rscale>
<asrwt>0</asrwt>
<pdfrwt beam="1">  1       21 0.50278676E-01 0.18784955E+03</pdfrwt>
<pdfrwt beam="2">  1       21 0.16656316E-01 0.18784955E+03</pdfrwt>
<totfact> 0.12220610E+05</totfact>
</mgrwt>
</event>
<event>
 5    1  0.1281005E-004  0.1413987E+03  0.7546771E-02  0.1211459E+00
         21   -1    0    0  501  502  0.00000000000E+00  0.00000000000E+00  0.23061654965E+02  0.23061654965E+02  0.00000000000E+00 0.  1.
         21   -1    0    0  502  503 -0.00000000000E+00 -0.00000000000E+00 -0.87091828010E+03  0.87091828010E+03  0.00000000000E+00 0.  1.
         24    1    1    2    0    0  0.36711025743E+02  0.50925277053E+02 -0.27902686992E+03  0.29709307185E+03  0.80419002446E+02 0.  1.
          1    1    1    2  501    0  0.51807392806E+02  0.30824043043E+02 -0.19778558987E+03  0.20676863190E+03  0.00000000000E+00 0. -1.
         -2    1    1    2    0  503 -0.88518418549E+02 -0.81749320096E+02 -0.37104416535E+03  0.39011823131E+03  0.00000000000E+00 0.  1.
<mgrwt>
<rscale>  2 0.14139869E+03</rscale>
<asrwt>0</asrwt>
<pdfrwt beam="1">  1       21 0.35479475E-02 0.14139869E+03</pdfrwt>
<pdfrwt beam="2">  1       21 0.13398741E+00 0.14139869E+03</pdfrwt>
<totfact> 0.19543954E+05</totfact>
</mgrwt>
</event>
<event>
 5    1  0.1281005E-004  0.1217009E+03  0.7546771E-02  0.1240317E+00
         21   -1    0    0  501  502  0.00000000000E+00  0.00000000000E+00  0.67519414534E+01  0.67519414534E+01  0.00000000000E+00 0.  1.
         21   -1    0    0  502  503 -0.00000000000E+00 -0.00000000000E+00 -0.23834065265E+04  0.23834065265E+04  0.00000000000E+00 0. -1.
         24    1    1    2    0    0 -0.46309516001E+02  0.40472902395E+02 -0.13363034787E+04  0.13401331390E+04  0.80419002446E+02 0. -1.
          1    1    1    2  501    0 -0.43474181420E+02  0.48226877510E+00 -0.33065980274E+03  0.33350583530E+03  0.00000000000E+00 0. -1.
         -2    1    1    2    0  503  0.89783697421E+02 -0.40955171170E+02 -0.70969130357E+03  0.71651949361E+03  0.00000000000E+00 0.  1.
<mgrwt>
<rscale>  2 0.12170095E+03</rscale>
<asrwt>0</asrwt>
<pdfrwt beam="1">  1       21 0.10387592E-02 0.12170095E+03</pdfrwt>
<pdfrwt beam="2">  1       21 0.36667829E+00 0.12170095E+03</pdfrwt>
<totfact> 0.53739332E+04</totfact>
</mgrwt>
</event>
<event>
 5    1  0.1281005E-004  0.1582467E+03  0.7546771E-02  0.1190691E+00
         21   -1    0    0  501  502  0.00000000000E+00  0.00000000000E+00  0.18663262520E+04  0.18663262520E+04  0.00000000000E+00 0. -1.
         21   -1    0    0  502  503 -0.00000000000E+00 -0.00000000000E+00 -0.16006029500E+02  0.16006029500E+02  0.00000000000E+00 0.  1.
         24    1    1    2    0    0  0.51616279348E+02 -0.76182707123E+02  0.90754156245E+03  0.91573301168E+03  0.80419002446E+02 0. -1.
          1    1    1    2  501    0 -0.13415350246E+02  0.12866939672E+03  0.79117263702E+03  0.80167944145E+03  0.00000000000E+00 0. -1.
         -2    1    1    2    0  503 -0.38200929102E+02 -0.52486689599E+02  0.15160602303E+03  0.16491982837E+03  0.00000000000E+00 0.  1.
<mgrwt>
<rscale>  2 0.15824668E+03</rscale>
<asrwt>0</asrwt>
<pdfrwt beam="1">  1       21 0.28712694E+00 0.15824668E+03</pdfrwt>
<pdfrwt beam="2">  1       21 0.24624676E-02 0.15824668E+03</pdfrwt>
<totfact> 0.36665180E+04</totfact>
</mgrwt>
</event>
<event>
 5    1  0.1281005E-004  0.1945806E+03  0.7546771E-02  0.1154394E+00
         21   -1    0    0  501  502  0.00000000000E+00  0.00000000000E+00  0.10431362963E+03  0.10431362963E+03  0.00000000000E+00 0. -1.
         21   -1    0    0  502  503 -0.00000000000E+00 -0.00000000000E+00 -0.41793561632E+03  0.41793561632E+03  0.00000000000E+00 0.  1.
         24    1    1    2    0    0 -0.75115240694E+02  0.73068280312E+02 -0.26703682618E+02  0.13476489006E+03  0.80419002446E+02 0.  0.
          1    1    1    2  501    0  0.14103265361E+03 -0.11236877831E+03 -0.17132805653E+03  0.24873732064E+03  0.00000000000E+00 0. -1.
         -2    1    1    2    0  503 -0.65917412916E+02  0.39300497994E+02 -0.11559024753E+03  0.13874703526E+03  0.00000000000E+00 0.  1.
<mgrwt>
<rscale>  2 0.19458063E+03</rscale>
<asrwt>0</asrwt>
<pdfrwt beam="1">  1       21 0.16048251E-01 0.19458063E+03</pdfrwt>
<pdfrwt beam="2">  1       21 0.64297787E-01 0.19458063E+03</pdfrwt>
<totfact> 0.77321719E+04</totfact>
</mgrwt>
</event>
<event>
 5    1  0.1281005E-004  0.1976212E+03  0.7546771E-02  0.1151762E+00
         21   -1    0    0  501  502  0.00000000000E+00  0.00000000000E+00  0.29143806857E+03  0.29143806857E+03  0.00000000000E+00 0. -1.
         21   -1    0    0  502  503 -0.00000000000E+00 -0.00000000000E+00 -0.14701382470E+03  0.14701382470E+03  0.00000000000E+00 0. -1.
         24    1    1    2    0    0  0.51183572875E+02  0.45106473141E+02  0.42392198588E+02  0.11366031193E+03  0.80419002446E+02 0. -1.
          1    1    1    2  501    0  0.68683187345E+01 -0.16048076207E+03  0.11111826665E+03  0.19531645599E+03  0.00000000000E+00 0. -1.
         -2    1    1    2    0  503 -0.58051891610E+02  0.11537428893E+03 -0.90862213663E+01  0.12947512535E+03  0.00000000000E+00 0.  1.
<mgrwt>
<rscale>  2 0.19762121E+03</rscale>
<asrwt>0</asrwt>
<pdfrwt beam="1">  1       21 0.44836626E-01 0.19762121E+03</pdfrwt>
<pdfrwt beam="2">  1       21 0.22617512E-01 0.19762121E+03</pdfrwt>
<totfact> 0.87284059E+04</totfact>
</mgrwt>
</event>
<event>
 5    1  0.1281005E-004  0.1060679E+03  0.7546771E-02  0.1268030E+00
         21   -1    0    0  501  502  0.00000000000E+00  0.00000000000E+00  0.16129742349E+03  0.16129742349E+03  0.00000000000E+00 0.  1.
         21   -1    0    0  502  503 -0.00000000000E+00 -0.00000000000E+00 -0.80096155607E+02  0.80096155607E+02  0.00000000000E+00 0.  1.
         24    1    1    2    0    0 -0.83383186290E+00 -0.18095740833E+02  0.61853671036E+02  0.10305941823E+03  0.80419002446E+02 0.  1.
          1    1    1    2  501    0 -0.37479684749E+02 -0.43340063541E+02  0.30766102316E+02  0.65035689651E+02  0.00000000000E+00 0. -1.
         -2    1    1    2    0  503  0.38313516612E+02  0.61435804375E+02 -0.11418505472E+02  0.73298471209E+02  0.00000000000E+00 0.  1.
<mgrwt>
<rscale>  2 0.10606793E+03</rscale>
<asrwt>0</asrwt>
<pdfrwt beam="1">  1       21 0.24814988E-01 0.10606793E+03</pdfrwt>
<pdfrwt beam="2">  1       21 0.12322486E-01 0.10606793E+03</pdfrwt>
<totfact> 0.86066503E+05</totfact>
</mgrwt>
</event>
<event>
 5    1  0.1281005E-004  0.1210387E+03  0.7546771E-02  0.1241393E+00
         21   -1    0    0  501  502  0.00000000000E+00  0.00000000000E+00  0.71346562907E+03  0.71346562907E+03  0.00000000000E+00 0.  1.
         21   -1    0    0  502  503 -0.00000000000E+00 -0.00000000000E+00 -0.23241461582E+02  0.23241461582E+02  0.00000000000E+00 0. -1.
         24    1    1    2    0    0 -0.24934003758E+02  0.25574735562E+02  0.15658466823E+03  0.17961555034E+03  0.80419002446E+02 0. -1.
          1    1    1    2  501    0 -0.23971583120E+02  0.54904522388E+02  0.28468732504E+03  0.29092269835E+03  0.00000000000E+00 0. -1.
         -2    1    1    2    0  503  0.48905586878E+02 -0.80479257950E+02  0.24895217422E+03  0.26616884197E+03  0.00000000000E+00 0.  1.
<mgrwt>
<rscale>  2 0.12103865E+03</rscale>
<asrwt>0</asrwt>
<pdfrwt beam="1">  1       21 0.10976393E+00 0.12103865E+03</pdfrwt>
<pdfrwt beam="2">  1       21 0.35756100E-02 0.12103865E+03</pdfrwt>
<totfact> 0.31626979E+05</totfact>
</mgrwt>
</event>
<event>
 5    1  0.1281005E-004  0.1244036E+03  0.7546771E-02  0.1236004E+00
         21   -1    0    0  503  502  0.00000000000E+00  0.00000000000E+00  0.20622838417E+03  0.20622838417E+03  0.00000000000E+00 0.  1.
         21   -1    0    0  501  503 -0.00000000000E+00 -0.00000000000E+00 -0.80568209198E+02  0.80568209198E+02  0.00000000000E+00 0. -1.
         24    1    1    2    0    0 -0.22030734393E+02 -0.27646509484E+02  0.76098567612E+02  0.11622345156E+03  0.80419002446E+02 0.  1.
          1    1    1    2  501    0 -0.65249148790E+02 -0.98120806024E+01  0.65425709599E+01  0.66306361522E+02  0.00000000000E+00 0. -1.
         -2    1    1    2    0  502  0.87279883183E+02  0.37458590087E+02  0.43019036403E+02  0.10426678029E+03  0.00000000000E+00 0.  1.
<mgrwt>
<rscale>  2 0.12440361E+03</rscale>
<asrwt>0</asrwt>
<pdfrwt beam="1">  1       21 0.31727444E-01 0.12440361E+03</pdfrwt>
<pdfrwt beam="2">  1       21 0.12395109E-01 0.12440361E+03</pdfrwt>
<totfact> 0.53300168E+05</totfact>
</mgrwt>
</event>
<event>
 5    1  0.1281005E-004  0.1891639E+03  0.7546771E-02  0.1159218E+00
         21   -1    0    0  503  502  0.00000000000E+00  0.00000000000E+00  0.41673475882E+02  0.41673475882E+02  0.00000000000E+00 0.  1.
         21   -1    0    0  501  503 -0.00000000000E+00 -0.00000000000E+00 -0.91415220153E+03  0.91415220153E+03  0.00000000000E+00 0. -1.
         24    1    1    2    0    0 -0.18685447286E+02  0.13030446889E+03 -0.27536543972E+03  0.31562912080E+03  0.80419002446E+02 0. -1.
          1    1    1    2  501    0  0.16009649761E+02  0.45505318025E+02 -0.74102063582E+02  0.88420352188E+02  0.00000000000E+00 0. -1.
         -2    1    1    2    0  502  0.26757975254E+01 -0.17580978691E+03 -0.52301122235E+03  0.55177620442E+03  0.00000000000E+00 0.  1.
<mgrwt>
<rscale>  2 0.18916393E+03</rscale>
<asrwt>0</asrwt>
<pdfrwt beam="1">  1       21 0.64113051E-02 0.18916393E+03</pdfrwt>
<pdfrwt beam="2">  1       21 0.14063878E+00 0.18916393E+03</pdfrwt>
<totfact> 0.62347707E+04</totfact>
</mgrwt>
</event>
<event>
 5    1  0.1281005E-004  0.1907699E+03  0.7546771E-02  0.1157769E+00
         21   -1    0    0  503  502  0.00000000000E+00  0.00000000000E+00  0.30055274976E+02  0.30055274976E+02  0.00000000000E+00 0.  1.
         21   -1    0    0  501  503 -0.00000000000E+00 -0.00000000000E+00 -0.12178126875E+04  0.12178126875E+04  0.00000000000E+00 0.  1.
         24    1    1    2    0    0 -0.81323058486E+02 -0.34074554010E+02 -0.34049171030E+03  0.36079957845E+03  0.80419002446E+02 0.  1.
          1    1    1    2  501    0 -0.40485153412E+02 -0.83567998040E+02 -0.32766914078E+03  0.34057264095E+03  0.00000000000E+00 0. -1.
         -2    1    1    2    0  502  0.12180821190E+03  0.11764255205E+03 -0.51959656148E+03  0.54649574312E+03  0.00000000000E+00 0.  1.
<mgrwt>
<rscale>  2 0.19076994E+03</rscale>
<asrwt>0</asrwt>
<pdfrwt beam="1">  1       21 0.46238903E-02 0.19076994E+03</pdfrwt>
<pdfrwt beam="2">  1       21 0.18735572E+00 0.19076994E+03</pdfrwt>
<totfact> 0.49917298E+04</totfact>
</mgrwt>
</event>
<event>
 5    1  0.1281005E-004  0.1913788E+03  0.7546771E-02  0.1157224E+00
         21   -1    0    0  501  502  0.00000000000E+00  0.00000000000E+00  0.11089539422E+03  0.11089539422E+03  0.00000000000E+00 0. -1.
         21   -1    0    0  502  503 -0.00000000000E+00 -0.00000000000E+00 -0.40150632500E+03  0.40150632500E+03  0.00000000000E+00 0.  1.
         24    1    1    2    0    0  0.22186205358E+02 -0.42972844729E+02 -0.12864792307E+03  0.15923692146E+03  0.80419002446E+02 0.  0.
          1    1    1    2  501    0 -0.21726129109E+02  0.16523322470E+03 -0.23262455668E+02  0.16827116531E+03  0.00000000000E+00 0. -1.
         -2    1    1    2    0  503 -0.46007624911E+00 -0.12226037997E+03 -0.13870055204E+03  0.18489363244E+03  0.00000000000E+00 0.  1.
<mgrwt>
<rscale>  2 0.19137879E+03</rscale>
<asrwt>0</asrwt>
<pdfrwt beam="1">  1       21 0.17060830E-01 0.19137879E+03</pdfrwt>
<pdfrwt beam="2">  1       21 0.61770205E-01 0.19137879E+03</pdfrwt>
<totfact> 0.75479541E+04</totfact>
</mgrwt>
</event>
<event>
 5    1  0.1281005E-004  0.1746550E+03  0.7546771E-02  0.1173079E+00
         21   -1    0    0  501  502  0.00000000000E+00  0.00000000000E+00  0.23197749432E+03  0.23197749432E+03  0.00000000000E+00 0.  1.
         21   -1    0    0  502  503 -0.00000000000E+00 -0.00000000000E+00 -0.14280066387E+03  0.14280066387E+03  0.00000000000E+00 0.  1.
         24    1    1    2    0    0  0.26356797810E+02 -0.13971664060E+03  0.94453535036E+02  0.18869050502E+03  0.80419002446E+02 0.  1.
          1    1    1    2  501    0  0.46910067380E+02  0.36762815894E+02 -0.37252371059E+01  0.59715462366E+02  0.00000000000E+00 0. -1.
         -2    1    1    2    0  503 -0.73266865190E+02  0.10295382470E+03 -0.15514674817E+01  0.12637219080E+03  0.00000000000E+00 0.  1.
<mgrwt>
<rscale>  2 0.17465501E+03</rscale>
<asrwt>0</asrwt>
<pdfrwt beam="1">  1       21 0.35688845E-01 0.17465501E+03</pdfrwt>
<pdfrwt beam="2">  1       21 0.21969333E-01 0.17465501E+03</pdfrwt>
<totfact> 0.14738220E+05</totfact>
</mgrwt>
</event>
<event>
 5    1  0.1281005E-004  0.2607157E+03  0.7546771E-02  0.1106714E+00
         21   -1    0    0  501  502  0.00000000000E+00  0.00000000000E+00  0.20312935687E+03  0.20312935687E+03  0.00000000000E+00 0. -1.
         21   -1    0    0  502  503 -0.00000000000E+00 -0.00000000000E+00 -0.33608886714E+03  0.33608886714E+03  0.00000000000E+00 0.  1.
         24    1    1    2    0    0  0.56112433662E+02  0.63348886970E+01 -0.33696426721E+02  0.10388166900E+03  0.80419002446E+02 0.  0.
          1    1    1    2  501    0 -0.23961345285E+03 -0.45792972176E+01 -0.68608536797E+02  0.24928439195E+03  0.00000000000E+00 0. -1.
         -2    1    1    2    0  503  0.18350101919E+03 -0.17555914794E+01 -0.30654546755E+02  0.18605216306E+03  0.00000000000E+00 0.  1.
<mgrwt>
<rscale>  2 0.26071566E+03</rscale>
<asrwt>0</asrwt>
<pdfrwt beam="1">  1       21 0.31250670E-01 0.26071566E+03</pdfrwt>
<pdfrwt beam="2">  1       21 0.51705980E-01 0.26071566E+03</pdfrwt>
<totfact> 0.33835564E+04</totfact>
</mgrwt>
</event>
<event>
 5    1  0.1281005E-004  0.2631496E+03  0.7546771E-02  0.1105266E+00
         21   -1    0    0  503  502  0.00000000000E+00  0.00000000000E+00  0.95067214938E+02  0.95067214938E+02  0.00000000000E+00 0. -1.
         21   -1    0    0  501  503 -0.00000000000E+00 -0.00000000000E+00 -0.76014390307E+03  0.76014390307E+03  0.00000000000E+00 0.  1.
         24    1    1    2    0    0  0.13402265132E+03 -0.13861227280E+02 -0.25138841040E+03  0.29634026646E+03  0.80419002446E+02 0.  1.
          1    1    1    2  501    0 -0.25098433814E+03 -0.43147444129E+01 -0.32658885511E+03  0.41191265493E+03  0.00000000000E+00 0. -1.
         -2    1    1    2    0  502  0.11696168683E+03  0.18175971693E+02 -0.87099422626E+02  0.14695819662E+03  0.00000000000E+00 0.  1.
<mgrwt>
<rscale>  2 0.26314956E+03</rscale>
<asrwt>0</asrwt>
<pdfrwt beam="1">  1       21 0.14625726E-01 0.26314956E+03</pdfrwt>
<pdfrwt beam="2">  1       21 0.11694521E+00 0.26314956E+03</pdfrwt>
<totfact> 0.22234397E+04</totfact>
</mgrwt>
</event>
<event>
 5    1  0.1281005E-004  0.2400314E+03  0.7546771E-02  0.1119772E+00
         21   -1    0    0  503  502  0.00000000000E+00  0.00000000000E+00  0.70469777802E+02  0.70469777802E+02  0.00000000000E+00 0. -1.
         21   -1    0    0  501  503 -0.00000000000E+00 -0.00000000000E+00 -0.92070736975E+03  0.92070736975E+03  0.00000000000E+00 0.  1.
         24    1    1    2    0    0 -0.45730517006E+01  0.42615417719E+01 -0.24154623493E+03  0.25465834584E+03  0.80419002446E+02 0.  1.
          1    1    1    2  501    0  0.14089395545E+02 -0.20147060570E+03 -0.20852518670E+03  0.29029583103E+03  0.00000000000E+00 0. -1.
         -2    1    1    2    0  502 -0.95163438444E+01  0.19720906393E+03 -0.40016617032E+03  0.44622297068E+03  0.00000000000E+00 0.  1.
<mgrwt>
<rscale>  2 0.24003139E+03</rscale>
<asrwt>0</asrwt>
<pdfrwt beam="1">  1       21 0.10841506E-01 0.24003139E+03</pdfrwt>
<pdfrwt beam="2">  1       21 0.14164727E+00 0.24003139E+03</pdfrwt>
<totfact> 0.23732740E+04</totfact>
</mgrwt>
</event>
<event>
 5    1  0.1281005E-004  0.1511988E+03  0.7546771E-02  0.1199008E+00
         21   -1    0    0  501  502  0.00000000000E+00  0.00000000000E+00  0.38959012598E+02  0.38959012598E+02  0.00000000000E+00 0.  1.
         21   -1    0    0  502  503 -0.00000000000E+00 -0.00000000000E+00 -0.62204085270E+03  0.62204085270E+03  0.00000000000E+00 0. -1.
         24    1    1    2    0    0 -0.85458846542E+00 -0.40235997955E+02 -0.10888715831E+03  0.14122073167E+03  0.80419002446E+02 0.  0.
          1    1    1    2  501    0  0.43019553037E+02 -0.76823605535E+02 -0.18115679841E+03  0.20142078820E+03  0.00000000000E+00 0. -1.
         -2    1    1    2    0  503 -0.42164964572E+02  0.11705960349E+03 -0.29303788338E+03  0.31835834543E+03  0.00000000000E+00 0.  1.
<mgrwt>
<rscale>  2 0.15119883E+03</rscale>
<asrwt>0</asrwt>
<pdfrwt beam="1">  1       21 0.59936949E-02 0.15119883E+03</pdfrwt>
<pdfrwt beam="2">  1       21 0.95698583E-01 0.15119883E+03</pdfrwt>
<totfact> 0.18238741E+05</totfact>
</mgrwt>
</event>
<event>
 5    1  0.1281005E-004  0.1140731E+03  0.7546771E-02  0.1253208E+00
         21   -1    0    0  501  502  0.00000000000E+00  0.00000000000E+00  0.39034158245E+02  0.39034158245E+02  0.00000000000E+00 0. -1.
         21   -1    0    0  502  503 -0.00000000000E+00 -0.00000000000E+00 -0.34575083799E+03  0.34575083799E+03  0.00000000000E+00 0.  1.
         24    1    1    2    0    0 -0.42650984412E+01  0.34257812097E+02 -0.94883465479E+02  0.12908089220E+03  0.80419002446E+02 0.  0.
          1    1    1    2  501    0  0.12259836383E+02 -0.86710046717E+02 -0.15445915813E+03  0.17755722266E+03  0.00000000000E+00 0. -1.
         -2    1    1    2    0  503 -0.79947379417E+01  0.52452234620E+02 -0.57374056139E+02  0.78146881378E+02  0.00000000000E+00 0.  1.
<mgrwt>
<rscale>  2 0.11407311E+03</rscale>
<asrwt>0</asrwt>
<pdfrwt beam="1">  1       21 0.60052550E-02 0.11407311E+03</pdfrwt>
<pdfrwt beam="2">  1       21 0.53192438E-01 0.11407311E+03</pdfrwt>
<totfact> 0.66336233E+05</totfact>
</mgrwt>
</event>
<event>
 5    1  0.1281005E-004  0.1434228E+03  0.7546771E-02  0.1208796E+00
         21   -1    0    0  501  502  0.00000000000E+00  0.00000000000E+00  0.95015328266E+02  0.95015328266E+02  0.00000000000E+00 0.  1.
         21   -1    0    0  502  503 -0.00000000000E+00 -0.00000000000E+00 -0.24095503073E+03  0.24095503073E+03  0.00000000000E+00 0. -1.
         24    1    1    2    0    0 -0.65749577089E+01  0.68736492998E+02 -0.20776222095E+02  0.10801297560E+03  0.80419002446E+02 0.  1.
          1    1    1    2  501    0  0.25479641619E+02 -0.12184296746E+03 -0.50331603739E+02  0.13426909991E+03  0.00000000000E+00 0. -1.
         -2    1    1    2    0  503 -0.18904683910E+02  0.53106474458E+02 -0.74831876629E+02  0.93688283488E+02  0.00000000000E+00 0.  1.
<mgrwt>
<rscale>  2 0.14342277E+03</rscale>
<asrwt>0</asrwt>
<pdfrwt beam="1">  1       21 0.14617743E-01 0.14342277E+03</pdfrwt>
<pdfrwt beam="2">  1       21 0.37070005E-01 0.14342277E+03</pdfrwt>
<totfact> 0.29171862E+05</totfact>
</mgrwt>
</event>
<event>
 5    1  0.1281005E-004  0.1707549E+03  0.7546771E-02  0.1177063E+00
         21   -1    0    0  501  502  0.00000000000E+00  0.00000000000E+00  0.20836139325E+03  0.20836139325E+03  0.00000000000E+00 0.  1.
         21   -1    0    0  502  503 -0.00000000000E+00 -0.00000000000E+00 -0.15132321495E+03  0.15132321495E+03  0.00000000000E+00 0. -1.
         24    1    1    2    0    0 -0.11314886804E+02 -0.59159037157E+02 -0.25587620296E+02  0.10368105231E+03  0.80419002446E+02 0.  1.
          1    1    1    2  501    0  0.11626746893E+03  0.69694051495E+02  0.59387205366E+02  0.14799400429E+03  0.00000000000E+00 0. -1.
         -2    1    1    2    0  503 -0.10495258213E+03 -0.10535014338E+02  0.23238593229E+02  0.10800955160E+03  0.00000000000E+00 0.  1.
<mgrwt>
<rscale>  2 0.17075494E+03</rscale>
<asrwt>0</asrwt>
<pdfrwt beam="1">  1       21 0.32055599E-01 0.17075494E+03</pdfrwt>
<pdfrwt beam="2">  1       21 0.23280495E-01 0.17075494E+03</pdfrwt>
<totfact> 0.16348468E+05</totfact>
</mgrwt>
</event>
<event>
 5    1  0.1281005E-004  0.2794663E+03  0.7546771E-02  0.1095981E+00
         21   -1    0    0  503  502  0.00000000000E+00  0.00000000000E+00  0.37212697060E+03  0.37212697060E+03  0.00000000000E+00 0.  1.
         21   -1    0    0  501  503 -0.00000000000E+00 -0.00000000000E+00 -0.21928445581E+03  0.21928445581E+03  0.00000000000E+00 0. -1.
         24    1    1    2    0    0  0.99761404634E+02 -0.73079954392E+02  0.76902843655E+02  0.16635588630E+03  0.80419002446E+02 0.  1.
          1    1    1    2  501    0  0.13070824365E+03 -0.61585376466E+02 -0.94567897724E+01  0.14479929014E+03  0.00000000000E+00 0. -1.
         -2    1    1    2    0  502 -0.23046964828E+03  0.13466533086E+03  0.85396460909E+02  0.28025624997E+03  0.00000000000E+00 0.  1.
<mgrwt>
<rscale>  2 0.27946625E+03</rscale>
<asrwt>0</asrwt>
<pdfrwt beam="1">  1       21 0.57250303E-01 0.27946625E+03</pdfrwt>
<pdfrwt beam="2">  1       21 0.33736070E-01 0.27946625E+03</pdfrwt>
<totfact> 0.23219856E+04</totfact>
</mgrwt>
</event>
<event>
 5    1  0.1281005E-004  0.1263869E+03  0.7546771E-02  0.1232918E+00
         21   -1    0    0  503  502  0.00000000000E+00  0.00000000000E+00  0.16808936718E+03  0.16808936718E+03  0.00000000000E+00 0.  1.
         21   -1    0    0  501  503 -0.00000000000E+00 -0.00000000000E+00 -0.97867051662E+02  0.97867051662E+02  0.00000000000E+00 0. -1.
         24    1    1    2    0    0  0.67404563417E+01  0.24646086813E+02  0.45959733304E+01  0.84505634558E+02  0.80419002446E+02 0. -1.
          1    1    1    2  501    0 -0.69185745700E+02 -0.64274815680E+02  0.45372442898E+02  0.10476916490E+03  0.00000000000E+00 0. -1.
         -2    1    1    2    0  502  0.62445289358E+02  0.39628728867E+02  0.20253899284E+02  0.76681619381E+02  0.00000000000E+00 0.  1.
<mgrwt>
<rscale>  2 0.12638687E+03</rscale>
<asrwt>0</asrwt>
<pdfrwt beam="1">  1       21 0.25859903E-01 0.12638687E+03</pdfrwt>
<pdfrwt beam="2">  1       21 0.15056469E-01 0.12638687E+03</pdfrwt>
<totfact> 0.55706632E+05</totfact>
</mgrwt>
</event>
<event>
 5    1  0.1281005E-004  0.1138640E+03  0.7546771E-02  0.1253577E+00
         21   -1    0    0  501  502  0.00000000000E+00  0.00000000000E+00  0.27490780264E+02  0.27490780264E+02  0.00000000000E+00 0.  1.
         21   -1    0    0  502  503 -0.00000000000E+00 -0.00000000000E+00 -0.50690740811E+03  0.50690740811E+03  0.00000000000E+00 0. -1.
         24    1    1    2    0    0  0.65856798932E+01  0.14690463659E+02 -0.11899324983E+03  0.14451916953E+03  0.80419002446E+02 0.  1.
          1    1    1    2  501    0 -0.60646893639E+02 -0.52114655932E+02 -0.15863537325E+03  0.17764899301E+03  0.00000000000E+00 0. -1.
         -2    1    1    2    0  503  0.54061213746E+02  0.37424192273E+02 -0.20178800477E+03  0.21223002584E+03  0.00000000000E+00 0.  1.
<mgrwt>
<rscale>  2 0.11386397E+03</rscale>
<asrwt>0</asrwt>
<pdfrwt beam="1">  1       21 0.42293510E-02 0.11386397E+03</pdfrwt>
<pdfrwt beam="2">  1       21 0.77985752E-01 0.11386397E+03</pdfrwt>
<totfact> 0.52577273E+05</totfact>
</mgrwt>
</event>
<event>
 5    1  0.1281005E-004  0.2195785E+03  0.7546771E-02  0.1134198E+00
         21   -1    0    0  501  502  0.00000000000E+00  0.00000000000E+00  0.17392589838E+03  0.17392589838E+03  0.00000000000E+00 0. -1.
         21   -1    0    0  502  503 -0.00000000000E+00 -0.00000000000E+00 -0.37018537601E+03  0.37018537601E+03  0.00000000000E+00 0.  1.
         24    1    1    2    0    0 -0.12787655895E+02  0.25401388571E+02  0.10631881029E+02  0.85959336510E+02  0.80419002446E+02 0. -1.
          1    1    1    2  501    0  0.78458348220E+02  0.14850956701E+03  0.15060522107E+02  0.16863458490E+03  0.00000000000E+00 0. -1.
         -2    1    1    2    0  503 -0.65670692325E+02 -0.17391095558E+03 -0.22195188076E+03  0.28951735298E+03  0.00000000000E+00 0.  1.
<mgrwt>
<rscale>  2 0.21957846E+03</rscale>
<asrwt>0</asrwt>
<pdfrwt beam="1">  1       21 0.26757831E-01 0.21957846E+03</pdfrwt>
<pdfrwt beam="2">  1       21 0.56951595E-01 0.21957846E+03</pdfrwt>
<totfact> 0.37997103E+04</totfact>
</mgrwt>
</event>
<event>
 5    1  0.1281005E-004  0.1782656E+03  0.7546771E-02  0.1169492E+00
         21   -1    0    0  501  502  0.00000000000E+00  0.00000000000E+00  0.53243846761E+03  0.53243846761E+03  0.00000000000E+00 0. -1.
         21   -1    0    0  502  503 -0.00000000000E+00 -0.00000000000E+00 -0.63456270589E+02  0.63456270589E+02  0.00000000000E+00 0. -1.
         24    1    1    2    0    0 -0.27070319823E+02  0.11391126132E+03  0.23616567790E+03  0.27559031377E+03  0.80419002446E+02 0. -1.
          1    1    1    2  501    0 -0.71253941972E+00 -0.16036238605E+03  0.20236061938E+03  0.25819841759E+03  0.00000000000E+00 0. -1.
         -2    1    1    2    0  503  0.27782859243E+02  0.46451124728E+02  0.30455899743E+02  0.62106006838E+02  0.00000000000E+00 0.  1.
<mgrwt>
<rscale>  2 0.17826561E+03</rscale>
<asrwt>0</asrwt>
<pdfrwt beam="1">  1       21 0.81913607E-01 0.17826561E+03</pdfrwt>
<pdfrwt beam="2">  1       21 0.97625035E-02 0.17826561E+03</pdfrwt>
<totfact> 0.11097944E+05</totfact>
</mgrwt>
</event>
<event>
 5    1  0.1281005E-004  0.2772251E+03  0.7546771E-02  0.1097214E+00
         21   -1    0    0  503  502  0.00000000000E+00  0.00000000000E+00  0.22160024896E+03  0.22160024896E+03  0.00000000000E+00 0. -1.
         21   -1    0    0  501  503 -0.00000000000E+00 -0.00000000000E+00 -0.38391905510E+03  0.38391905510E+03  0.00000000000E+00 0.  1.
         24    1    1    2    0    0  0.35910216414E+02  0.47611972781E+02  0.40083908614E+02  0.10784423619E+03  0.80419002446E+02 0.  0.
          1    1    1    2  501    0  0.93265601710E+02  0.17422953292E+03 -0.78720036135E+02  0.21272340419E+03  0.00000000000E+00 0. -1.
         -2    1    1    2    0  502 -0.12917581812E+03 -0.22184150570E+03 -0.12368267862E+03  0.28495166367E+03  0.00000000000E+00 0.  1.
<mgrwt>
<rscale>  2 0.27722507E+03</rscale>
<asrwt>0</asrwt>
<pdfrwt beam="1">  1       21 0.34092346E-01 0.27722507E+03</pdfrwt>
<pdfrwt beam="2">  1       21 0.59064470E-01 0.27722507E+03</pdfrwt>
<totfact> 0.21279425E+04</totfact>
</mgrwt>
</event>
<event>
 5    1  0.1281005E-004  0.2258228E+03  0.7546771E-02  0.1129615E+00
         21   -1    0    0  503  502  0.00000000000E+00  0.00000000000E+00  0.33562130651E+02  0.33562130651E+02  0.00000000000E+00 0. -1.
         21   -1    0    0  501  503 -0.00000000000E+00 -0.00000000000E+00 -0.15272038220E+04  0.15272038220E+04  0.00000000000E+00 0.  1.
         24    1    1    2    0    0  0.66165820342E+02 -0.76437434442E+02 -0.43705678798E+03  0.45574822988E+03  0.80419002446E+02 0.  0.
          1    1    1    2  501    0  0.88853232784E+02 -0.66985890474E+02 -0.40896423712E+03  0.42383222358E+03  0.00000000000E+00 0. -1.
         -2    1    1    2    0  502 -0.15501905313E+03  0.14342332492E+03 -0.64762066630E+03  0.68118549924E+03  0.00000000000E+00 0.  1.
<mgrwt>
<rscale>  2 0.22582282E+03</rscale>
<asrwt>0</asrwt>
<pdfrwt beam="1">  1       21 0.51634040E-02 0.22582282E+03</pdfrwt>
<pdfrwt beam="2">  1       21 0.23495447E+00 0.22582282E+03</pdfrwt>
<totfact> 0.20257846E+04</totfact>
</mgrwt>
</event>
<event>
 5    1  0.1281005E-004  0.2366579E+03  0.7546771E-02  0.1122039E+00
         21   -1    0    0  501  502  0.00000000000E+00  0.00000000000E+00  0.22807788457E+03  0.22807788457E+03  0.00000000000E+00 0.  1.
         21   -1    0    0  502  503 -0.00000000000E+00 -0.00000000000E+00 -0.24635142290E+03  0.24635142290E+03  0.00000000000E+00 0. -1.
         24    1    1    2    0    0  0.96567634256E+02  0.47060648349E+02  0.55045368303E+01  0.13430386625E+03  0.80419002446E+02 0.  1.
          1    1    1    2  501    0 -0.98798856199E+02  0.12931348470E+03 -0.16764732253E+02  0.16359782260E+03  0.00000000000E+00 0. -1.
         -2    1    1    2    0  503  0.22312219427E+01 -0.17637413305E+03 -0.70133429065E+01  0.17652761863E+03  0.00000000000E+00 0.  1.
<mgrwt>
<rscale>  2 0.23665792E+03</rscale>
<asrwt>0</asrwt>
<pdfrwt beam="1">  1       21 0.35088905E-01 0.23665792E+03</pdfrwt>
<pdfrwt beam="2">  1       21 0.37900219E-01 0.23665792E+03</pdfrwt>
<totfact> 0.51531213E+04</totfact>
</mgrwt>
</event>
<event>
 5    1  0.1281005E-004  0.1383655E+03  0.7546771E-02  0.1215545E+00
         21   -1    0    0  503  502  0.00000000000E+00  0.00000000000E+00  0.42992319524E+03  0.42992319524E+03  0.00000000000E+00 0. -1.
         21   -1    0    0  501  503 -0.00000000000E+00 -0.00000000000E+00 -0.49469514822E+02  0.49469514822E+02  0.00000000000E+00 0. -1.
         24    1    1    2    0    0 -0.33251252931E+02  0.16839025695E+02  0.18644213138E+03  0.20643905376E+03  0.80419002446E+02 0. -1.
          1    1    1    2  501    0  0.10468265590E+03 -0.41380728192E+02  0.88471301503E+02  0.14317120626E+03  0.00000000000E+00 0. -1.
         -2    1    1    2    0  502 -0.71431402966E+02  0.24541702497E+02  0.10554024753E+03  0.12978245005E+03  0.00000000000E+00 0.  1.
<mgrwt>
<rscale>  2 0.13836545E+03</rscale>
<asrwt>0</asrwt>
<pdfrwt beam="1">  1       21 0.66142028E-01 0.13836545E+03</pdfrwt>
<pdfrwt beam="2">  1       21 0.76106949E-02 0.13836545E+03</pdfrwt>
<totfact> 0.27824165E+05</totfact>
</mgrwt>
</event>
<event>
 5    1  0.1281005E-004  0.9963399E+02  0.7546771E-02  0.1281067E+00
         21   -1    0    0  501  502  0.00000000000E+00  0.00000000000E+00  0.18131212483E+03  0.18131212483E+03  0.00000000000E+00 0.  1.
         21   -1    0    0  502  503 -0.00000000000E+00 -0.00000000000E+00 -0.58046646033E+02  0.58046646033E+02  0.00000000000E+00 0. -1.
         24    1    1    2    0    0  0.13775615923E+02 -0.18075380829E-01  0.75778452413E+02  0.11135240332E+03  0.80419002446E+02 0.  1.
          1    1    1    2  501    0  0.27739276833E+02  0.47252049036E+02  0.31173342056E+02  0.63039676968E+02  0.00000000000E+00 0. -1.
         -2    1    1    2    0  503 -0.41514892755E+02 -0.47233973655E+02  0.16313684327E+02  0.64966690573E+02  0.00000000000E+00 0.  1.
<mgrwt>
<rscale>  2 0.99633991E+02</rscale>
<asrwt>0</asrwt>
<pdfrwt beam="1">  1       21 0.27894173E-01 0.99633991E+02</pdfrwt>
<pdfrwt beam="2">  1       21 0.89302533E-02 0.99633991E+02</pdfrwt>
<totfact> 0.12090544E+06</totfact>
</mgrwt>
</event>
<event>
 5    1  0.1281005E-004  0.1627729E+03  0.7546771E-02  0.1185601E+00
         21   -1    0    0  501  502  0.00000000000E+00  0.00000000000E+00  0.16334630461E+03  0.16334630461E+03  0.00000000000E+00 0. -1.
         21   -1    0    0  502  503 -0.00000000000E+00 -0.00000000000E+00 -0.17309418345E+03  0.17309418345E+03  0.00000000000E+00 0. -1.
         24    1    1    2    0    0 -0.50274293619E+02  0.78164155642E+02  0.22531884901E+02  0.12494815572E+03  0.80419002446E+02 0. -1.
          1    1    1    2  501    0  0.47257753983E+02 -0.13638844890E+03  0.10261056406E+01  0.14434734912E+03  0.00000000000E+00 0. -1.
         -2    1    1    2    0  503  0.30165396360E+01  0.58224293256E+02 -0.33305869378E+02  0.67144983220E+02  0.00000000000E+00 0.  1.
<mgrwt>
<rscale>  2 0.16277293E+03</rscale>
<asrwt>0</asrwt>
<pdfrwt beam="1">  1       21 0.25130201E-01 0.16277293E+03</pdfrwt>
<pdfrwt beam="2">  1       21 0.26629874E-01 0.16277293E+03</pdfrwt>
<totfact> 0.20303393E+05</totfact>
</mgrwt>
</event>
<event>
 5    1  0.1281005E-004  0.4312883E+03  0.7546771E-02  0.1033454E+00
         21   -1    0    0  503  502  0.00000000000E+00  0.00000000000E+00  0.77922084972E+02  0.77922084972E+02  0.00000000000E+00 0.  1.
         21   -1    0    0  501  503 -0.00000000000E+00 -0.00000000000E+00 -0.25203995402E+04  0.25203995402E+04  0.00000000000E+00 0. -1.
         24    1    1    2    0    0  0.17733007109E+03 -0.21540420477E+03 -0.92493782642E+03  0.96944423473E+03  0.80419002446E+02 0.  1.
          1    1    1    2  501    0 -0.13427154776E+03  0.37950355243E+03 -0.85603709552E+03  0.94596580474E+03  0.00000000000E+00 0. -1.
         -2    1    1    2    0  502 -0.43058523330E+02 -0.16409934766E+03 -0.66150253325E+03  0.68291158567E+03  0.00000000000E+00 0.  1.
<mgrwt>
<rscale>  2 0.43128828E+03</rscale>
<asrwt>0</asrwt>
<pdfrwt beam="1">  1       21 0.11988012E-01 0.43128828E+03</pdfrwt>
<pdfrwt beam="2">  1       21 0.38775381E+00 0.43128828E+03</pdfrwt>
<totfact> 0.47935067E+02</totfact>
</mgrwt>
</event>
<event>
 5    1  0.1281005E-004  0.1169213E+03  0.7546771E-02  0.1248264E+00
         21   -1    0    0  503  502  0.00000000000E+00  0.00000000000E+00  0.23968557906E+03  0.23968557906E+03  0.00000000000E+00 0.  1.
         21   -1    0    0  501  503 -0.00000000000E+00 -0.00000000000E+00 -0.59506468302E+02  0.59506468302E+02  0.00000000000E+00 0. -1.
         24    1    1    2    0    0  0.63114347826E+02 -0.19242736455E+02  0.52483644474E+02  0.11651374468E+03  0.80419002446E+02 0. -1.
          1    1    1    2  501    0  0.32542802714E+02  0.79312530125E+01  0.24400525152E+02  0.41440613057E+02  0.00000000000E+00 0. -1.
         -2    1    1    2    0  502 -0.95657150540E+02  0.11311483442E+02  0.10329494113E+03  0.14123768962E+03  0.00000000000E+00 0.  1.
<mgrwt>
<rscale>  2 0.11692131E+03</rscale>
<asrwt>0</asrwt>
<pdfrwt beam="1">  1       21 0.36874704E-01 0.11692131E+03</pdfrwt>
<pdfrwt beam="2">  1       21 0.91548414E-02 0.11692131E+03</pdfrwt>
<totfact> 0.67605359E+05</totfact>
</mgrwt>
</event>
<event>
 5    1  0.1281005E-004  0.9655063E+02  0.7546771E-02  0.1287721E+00
         21   -1    0    0  503  502  0.00000000000E+00  0.00000000000E+00  0.17123794066E+02  0.17123794066E+02  0.00000000000E+00 0. -1.
         21   -1    0    0  501  503 -0.00000000000E+00 -0.00000000000E+00 -0.54746857113E+03  0.54746857113E+03  0.00000000000E+00 0. -1.
         24    1    1    2    0    0 -0.12369144565E+02 -0.42152938644E+02 -0.23925230413E+03  0.25620059906E+03  0.80419002446E+02 0. -1.
          1    1    1    2  501    0 -0.23389785088E+02  0.57860236991E+02 -0.16600538935E+03  0.17734902979E+03  0.00000000000E+00 0. -1.
         -2    1    1    2    0  502  0.35758929653E+02 -0.15707298348E+02 -0.12508708358E+03  0.13104273635E+03  0.00000000000E+00 0.  1.
<mgrwt>
<rscale>  2 0.96550634E+02</rscale>
<asrwt>0</asrwt>
<pdfrwt beam="1">  1       21 0.26344303E-02 0.96550634E+02</pdfrwt>
<pdfrwt beam="2">  1       21 0.84225920E-01 0.96550634E+02</pdfrwt>
<totfact> 0.96288314E+05</totfact>
</mgrwt>
</event>
<event>
 5    1  0.1281005E-004  0.2449542E+03  0.7546771E-02  0.1116536E+00
         21   -1    0    0  503  502  0.00000000000E+00  0.00000000000E+00  0.46568360720E+03  0.46568360720E+03  0.00000000000E+00 0. -1.
         21   -1    0    0  501  503 -0.00000000000E+00 -0.00000000000E+00 -0.13822238198E+03  0.13822238198E+03  0.00000000000E+00 0. -1.
         24    1    1    2    0    0 -0.82417930412E+02  0.17473523133E+03  0.20709575049E+03  0.29441634150E+03  0.80419002446E+02 0. -1.
          1    1    1    2  501    0  0.66470368385E+02 -0.22148656542E+03  0.11901355969E+03  0.26007467375E+03  0.00000000000E+00 0. -1.
         -2    1    1    2    0  502  0.15947562027E+02  0.46751334097E+02  0.13519150524E+01  0.49414973933E+02  0.00000000000E+00 0.  1.
<mgrwt>
<rscale>  2 0.24495421E+03</rscale>
<asrwt>0</asrwt>
<pdfrwt beam="1">  1       21 0.71643631E-01 0.24495421E+03</pdfrwt>
<pdfrwt beam="2">  1       21 0.21264982E-01 0.24495421E+03</pdfrwt>
<totfact> 0.35299285E+04</totfact>
</mgrwt>
</event>
<event>
 5    1  0.1281005E-004  0.3234894E+03  0.7546771E-02  0.1074054E+00
         21   -1    0    0  501  502  0.00000000000E+00  0.00000000000E+00  0.10004083810E+03  0.10004083810E+03  0.00000000000E+00 0. -1.
         21   -1    0    0  502  503 -0.00000000000E+00 -0.00000000000E+00 -0.11052770633E+04  0.11052770633E+04  0.00000000000E+00 0. -1.
         24    1    1    2    0    0 -0.21893769223E+03  0.12179100491E+03 -0.30742544103E+03  0.40465340689E+03  0.80419002446E+02 0. -1.
          1    1    1    2  501    0  0.27306681683E+03 -0.16101949530E+03 -0.63099084312E+03  0.70614602486E+03  0.00000000000E+00 0. -1.
         -2    1    1    2    0  503 -0.54129124603E+02  0.39228490388E+02 -0.66819941092E+02  0.94518469708E+02  0.00000000000E+00 0.  1.
<mgrwt>
<rscale>  2 0.32348940E+03</rscale>
<asrwt>0</asrwt>
<pdfrwt beam="1">  1       21 0.15390898E-01 0.32348940E+03</pdfrwt>
<pdfrwt beam="2">  1       21 0.17004263E+00 0.32348940E+03</pdfrwt>
<totfact> 0.73391914E+03</totfact>
</mgrwt>
</event>
<event>
 5    1  0.1281005E-004  0.1175898E+03  0.7546771E-02  0.1247127E+00
         21   -1    0    0  501  502  0.00000000000E+00  0.00000000000E+00  0.30684091630E+03  0.30684091630E+03  0.00000000000E+00 0. -1.
         21   -1    0    0  502  503 -0.00000000000E+00 -0.00000000000E+00 -0.48013618446E+02  0.48013618446E+02  0.00000000000E+00 0.  1.
         24    1    1    2    0    0 -0.42227942037E+02 -0.41747076858E+02  0.13865078354E+03  0.17093060944E+03  0.80419002446E+02 0. -1.
          1    1    1    2  501    0 -0.39827622351E+02 -0.60003113149E+01  0.57354009911E+02  0.70083704889E+02  0.00000000000E+00 0. -1.
         -2    1    1    2    0  503  0.82055564388E+02  0.47747388173E+02  0.62822504409E+02  0.11384022042E+03  0.00000000000E+00 0.  1.
<mgrwt>
<rscale>  2 0.11758984E+03</rscale>
<asrwt>0</asrwt>
<pdfrwt beam="1">  1       21 0.47206294E-01 0.11758984E+03</pdfrwt>
<pdfrwt beam="2">  1       21 0.73867107E-02 0.11758984E+03</pdfrwt>
<totfact> 0.59622173E+05</totfact>
</mgrwt>
</event>
<event>
 5    1  0.1281005E-004  0.2146078E+03  0.7546771E-02  0.1137968E+00
         21   -1    0    0  501  502  0.00000000000E+00  0.00000000000E+00  0.54831803204E+02  0.54831803204E+02  0.00000000000E+00 0. -1.
         21   -1    0    0  502  503 -0.00000000000E+00 -0.00000000000E+00 -0.84919621569E+03  0.84919621569E+03  0.00000000000E+00 0.  1.
         24    1    1    2    0    0 -0.10291659693E+03 -0.87004690904E+02 -0.28659399600E+03  0.32674910353E+03  0.80419002446E+02 0.  0.
          1    1    1    2  501    0  0.14572406877E+03  0.14140673108E+03 -0.34366511332E+03  0.39917048730E+03  0.00000000000E+00 0. -1.
         -2    1    1    2    0  503 -0.42807471843E+02 -0.54402040172E+02 -0.16410530317E+03  0.17810842806E+03  0.00000000000E+00 0.  1.
<mgrwt>
<rscale>  2 0.21460782E+03</rscale>
<asrwt>0</asrwt>
<pdfrwt beam="1">  1       21 0.84356623E-02 0.21460782E+03</pdfrwt>
<pdfrwt beam="2">  1       21 0.13064557E+00 0.21460782E+03</pdfrwt>
<totfact> 0.46150309E+04</totfact>
</mgrwt>
</event>
<event>
 5    1  0.1281005E-004  0.1425454E+03  0.7546771E-02  0.1209944E+00
         21   -1    0    0  501  502  0.00000000000E+00  0.00000000000E+00  0.47948714487E+03  0.47948714487E+03  0.00000000000E+00 0.  1.
         21   -1    0    0  502  503 -0.00000000000E+00 -0.00000000000E+00 -0.44706697463E+02  0.44706697463E+02  0.00000000000E+00 0. -1.
         24    1    1    2    0    0 -0.86914638523E+02 -0.72160540022E+01  0.23482869927E+03  0.26309306296E+03  0.80419002446E+02 0.  0.
          1    1    1    2  501    0  0.11682098954E+03 -0.28128629756E+02  0.12820899565E+03  0.17571542327E+03  0.00000000000E+00 0. -1.
         -2    1    1    2    0  503 -0.29906351022E+02  0.35344683758E+02  0.71742752498E+02  0.85385356106E+02  0.00000000000E+00 0.  1.
<mgrwt>
<rscale>  2 0.14254535E+03</rscale>
<asrwt>0</asrwt>
<pdfrwt beam="1">  1       21 0.73767249E-01 0.14254535E+03</pdfrwt>
<pdfrwt beam="2">  1       21 0.68779538E-02 0.14254535E+03</pdfrwt>
<totfact> 0.26061097E+05</totfact>
</mgrwt>
</event>
<event>
 5    1  0.1281005E-004  0.2908930E+03  0.7546771E-02  0.1089884E+00
         21   -1    0    0  501  502  0.00000000000E+00  0.00000000000E+00  0.36087084959E+02  0.36087084959E+02  0.00000000000E+00 0. -1.
         21   -1    0    0  502  503 -0.00000000000E+00 -0.00000000000E+00 -0.24437187560E+04  0.24437187560E+04  0.00000000000E+00 0.  1.
         24    1    1    2    0    0  0.19980871764E+03  0.52104565415E+02 -0.71736057416E+03  0.75080744448E+03  0.80419002446E+02 0.  0.
          1    1    1    2  501    0  0.75019218801E+02  0.16749513585E+02 -0.26918759403E+03  0.27994712032E+03  0.00000000000E+00 0. -1.
         -2    1    1    2    0  503 -0.27482793645E+03 -0.68854079001E+02 -0.14210835029E+04  0.14490512762E+04  0.00000000000E+00 0.  1.
<mgrwt>
<rscale>  2 0.29089303E+03</rscale>
<asrwt>0</asrwt>
<pdfrwt beam="1">  1       21 0.55518612E-02 0.29089303E+03</pdfrwt>
<pdfrwt beam="2">  1       21 0.37595660E+00 0.29089303E+03</pdfrwt>
<totfact> 0.24665445E+03</totfact>
</mgrwt>
</event>
<event>
 5    1  0.1281005E-004  0.2554009E+03  0.7546771E-02  0.1109938E+00
         21   -1    0    0  503  502  0.00000000000E+00  0.00000000000E+00  0.13246232403E+04  0.13246232403E+04  0.00000000000E+00 0. -1.
         21   -1    0    0  501  503 -0.00000000000E+00 -0.00000000000E+00 -0.52825548469E+02  0.52825548469E+02  0.00000000000E+00 0.  1.
         24    1    1    2    0    0 -0.14903620492E+03  0.44386269249E+02  0.32368484767E+03  0.36799596172E+03  0.80419002446E+02 0.  1.
          1    1    1    2  501    0  0.23763280869E+03 -0.22902718629E+01  0.77341072088E+03  0.80909748503E+03  0.00000000000E+00 0. -1.
         -2    1    1    2    0  502 -0.88596603764E+02 -0.42095997386E+02  0.17470212324E+03  0.20035534198E+03  0.00000000000E+00 0.  1.
<mgrwt>
<rscale>  2 0.25540086E+03</rscale>
<asrwt>0</asrwt>
<pdfrwt beam="1">  1       21 0.20378817E+00 0.25540086E+03</pdfrwt>
<pdfrwt beam="2">  1       21 0.81270084E-02 0.25540086E+03</pdfrwt>
<totfact> 0.14173213E+04</totfact>
</mgrwt>
</event>
<event>
 5    1  0.1281005E-004  0.1976882E+03  0.7546771E-02  0.1151704E+00
         21   -1    0    0  501  502  0.00000000000E+00  0.00000000000E+00  0.25738790247E+03  0.25738790247E+03  0.00000000000E+00 0.  1.
         21   -1    0    0  502  503 -0.00000000000E+00 -0.00000000000E+00 -0.17822814304E+03  0.17822814304E+03  0.00000000000E+00 0. -1.
         24    1    1    2    0    0  0.70259840323E+02  0.19601570146E+00  0.13385791690E+02  0.10762378435E+03  0.80419002446E+02 0.  0.
          1    1    1    2  501    0 -0.17716439058E+03 -0.24792116681E+02  0.10967702615E+03  0.20983546031E+03  0.00000000000E+00 0. -1.
         -2    1    1    2    0  503  0.10690455025E+03  0.24596100980E+02 -0.43903058414E+02  0.11815680085E+03  0.00000000000E+00 0.  1.
<mgrwt>
<rscale>  2 0.19768816E+03</rscale>
<asrwt>0</asrwt>
<pdfrwt beam="1">  1       21 0.39598139E-01 0.19768816E+03</pdfrwt>
<pdfrwt beam="2">  1       21 0.27419714E-01 0.19768816E+03</pdfrwt>
<totfact> 0.77822747E+04</totfact>
</mgrwt>
</event>
<event>
 5    1  0.1281005E-004  0.3003695E+03  0.7546771E-02  0.1085056E+00
         21   -1    0    0  503  502  0.00000000000E+00  0.00000000000E+00  0.72957483849E+02  0.72957483849E+02  0.00000000000E+00 0. -1.
         21   -1    0    0  501  503 -0.00000000000E+00 -0.00000000000E+00 -0.12542632508E+04  0.12542632508E+04  0.00000000000E+00 0.  1.
         24    1    1    2    0    0 -0.11139290827E+03 -0.53488286032E+02 -0.27628715100E+03  0.31316318832E+03  0.80419002446E+02 0.  0.
          1    1    1    2  501    0  0.26761080550E+03  0.10695332411E+03 -0.63868827272E+03  0.70069769977E+03  0.00000000000E+00 0. -1.
         -2    1    1    2    0  502 -0.15621789723E+03 -0.53465038073E+02 -0.26633034326E+03  0.31335984658E+03  0.00000000000E+00 0.  1.
<mgrwt>
<rscale>  2 0.30036947E+03</rscale>
<asrwt>0</asrwt>
<pdfrwt beam="1">  1       21 0.11224230E-01 0.30036947E+03</pdfrwt>
<pdfrwt beam="2">  1       21 0.19296356E+00 0.30036947E+03</pdfrwt>
<totfact> 0.91640938E+03</totfact>
</mgrwt>
</event>
<event>
 5    1  0.1281005E-004  0.1769288E+03  0.7546771E-02  0.1170809E+00
         21   -1    0    0  501  502  0.00000000000E+00  0.00000000000E+00  0.74334026998E+03  0.74334026998E+03  0.00000000000E+00 0.  1.
         21   -1    0    0  502  503 -0.00000000000E+00 -0.00000000000E+00 -0.44437084195E+02  0.44437084195E+02  0.00000000000E+00 0.  1.
         24    1    1    2    0    0  0.11157661033E+03 -0.60137700452E+02  0.25789250051E+03  0.29839845971E+03  0.80419002446E+02 0.  1.
          1    1    1    2  501    0 -0.71753615624E+01 -0.50861216208E+02  0.59747878165E+02  0.78791865525E+02  0.00000000000E+00 0. -1.
         -2    1    1    2    0  503 -0.10440124876E+03  0.11099891666E+03  0.38126280711E+03  0.41058702893E+03  0.00000000000E+00 0.  1.
<mgrwt>
<rscale>  2 0.17692875E+03</rscale>
<asrwt>0</asrwt>
<pdfrwt beam="1">  1       21 0.11436003E+00 0.17692875E+03</pdfrwt>
<pdfrwt beam="2">  1       21 0.68364751E-02 0.17692875E+03</pdfrwt>
<totfact> 0.94283555E+04</totfact>
</mgrwt>
</event>
<event>
 5    1  0.1281005E-004  0.1916665E+03  0.7546771E-02  0.1156967E+00
         21   -1    0    0  503  502  0.00000000000E+00  0.00000000000E+00  0.15442356121E+03  0.15442356121E+03  0.00000000000E+00 0. -1.
         21   -1    0    0  501  503 -0.00000000000E+00 -0.00000000000E+00 -0.24510780015E+03  0.24510780015E+03  0.00000000000E+00 0. -1.
         24    1    1    2    0    0  0.92598070632E+02 -0.47134004627E+02 -0.60699143213E+02  0.14473292306E+03  0.80419002446E+02 0. -1.
          1    1    1    2  501    0 -0.65963649812E+02  0.14030635059E+03 -0.69547999307E+01  0.15519485930E+03  0.00000000000E+00 0. -1.
         -2    1    1    2    0  502 -0.26634420821E+02 -0.93172345960E+02 -0.23030295801E+02  0.99603578996E+02  0.00000000000E+00 0.  1.
<mgrwt>
<rscale>  2 0.19166653E+03</rscale>
<asrwt>0</asrwt>
<pdfrwt beam="1">  1       21 0.23757471E-01 0.19166653E+03</pdfrwt>
<pdfrwt beam="2">  1       21 0.37708892E-01 0.19166653E+03</pdfrwt>
<totfact> 0.11324843E+05</totfact>
</mgrwt>
</event>
<event>
 5    1  0.1281005E-004  0.2471547E+03  0.7546771E-02  0.1115116E+00
         21   -1    0    0  501  502  0.00000000000E+00  0.00000000000E+00  0.11012706915E+03  0.11012706915E+03  0.00000000000E+00 0.  1.
         21   -1    0    0  502  503 -0.00000000000E+00 -0.00000000000E+00 -0.56213088441E+03  0.56213088441E+03  0.00000000000E+00 0. -1.
         24    1    1    2    0    0  0.12389217936E+03 -0.81098923255E+02 -0.18499335232E+03  0.25023201997E+03  0.80419002446E+02 0.  0.
          1    1    1    2  501    0 -0.18805768942E+03  0.14330545107E+03 -0.20823071316E+03  0.31505900520E+03  0.00000000000E+00 0. -1.
         -2    1    1    2    0  503  0.64165510064E+02 -0.62206527810E+02 -0.58779749779E+02  0.10696692838E+03  0.00000000000E+00 0.  1.
<mgrwt>
<rscale>  2 0.24715469E+03</rscale>
<asrwt>0</asrwt>
<pdfrwt beam="1">  1       21 0.16942626E-01 0.24715469E+03</pdfrwt>
<pdfrwt beam="2">  1       21 0.86481676E-01 0.24715469E+03</pdfrwt>
<totfact> 0.35185064E+04</totfact>
</mgrwt>
</event>
<event>
 5    1  0.1281005E-004  0.2058846E+03  0.7546771E-02  0.1144867E+00
         21   -1    0    0  503  502  0.00000000000E+00  0.00000000000E+00  0.24818254553E+03  0.24818254553E+03  0.00000000000E+00 0.  1.
         21   -1    0    0  501  503 -0.00000000000E+00 -0.00000000000E+00 -0.18855298178E+03  0.18855298178E+03  0.00000000000E+00 0. -1.
         24    1    1    2    0    0  0.41007489785E+02 -0.78242073184E+02  0.51171834057E+02  0.12995848872E+03  0.80419002446E+02 0. -1.
          1    1    1    2  501    0 -0.11517770307E+03  0.14999305451E+03 -0.39159141866E+02  0.19312498046E+03  0.00000000000E+00 0. -1.
         -2    1    1    2    0  502  0.74170213285E+02 -0.71750981325E+02  0.47616871562E+02  0.11365205813E+03  0.00000000000E+00 0.  1.
<mgrwt>
<rscale>  2 0.20588456E+03</rscale>
<asrwt>0</asrwt>
<pdfrwt beam="1">  1       21 0.38181930E-01 0.20588456E+03</pdfrwt>
<pdfrwt beam="2">  1       21 0.29008151E-01 0.20588456E+03</pdfrwt>
<totfact> 0.74820298E+04</totfact>
</mgrwt>
</event>
<event>
 5    1  0.1281005E-004  0.1608595E+03  0.7546771E-02  0.1187730E+00
         21   -1    0    0  503  502  0.00000000000E+00  0.00000000000E+00  0.21005757889E+03  0.21005757889E+03  0.00000000000E+00 0. -1.
         21   -1    0    0  501  503 -0.00000000000E+00 -0.00000000000E+00 -0.13646978686E+03  0.13646978686E+03  0.00000000000E+00 0.  1.
         24    1    1    2    0    0 -0.45670061035E+02 -0.24366056901E+02  0.68485710051E+02  0.11763064073E+03  0.80419002446E+02 0. -1.
          1    1    1    2  501    0  0.86197427268E+02 -0.77833996291E+02  0.20331439969E+02  0.11790460083E+03  0.00000000000E+00 0. -1.
         -2    1    1    2    0  502 -0.40527366234E+02  0.10220005319E+03 -0.15229357985E+02  0.11099212418E+03  0.00000000000E+00 0.  1.
<mgrwt>
<rscale>  2 0.16085950E+03</rscale>
<asrwt>0</asrwt>
<pdfrwt beam="1">  1       21 0.32316550E-01 0.16085950E+03</pdfrwt>
<pdfrwt beam="2">  1       21 0.20995352E-01 0.16085950E+03</pdfrwt>
<totfact> 0.19601674E+05</totfact>
</mgrwt>
</event>
<event>
 5    1  0.1281005E-004  0.2589097E+03  0.7546771E-02  0.1107800E+00
         21   -1    0    0  501  502  0.00000000000E+00  0.00000000000E+00  0.19951618493E+03  0.19951618493E+03  0.00000000000E+00 0. -1.
         21   -1    0    0  502  503 -0.00000000000E+00 -0.00000000000E+00 -0.35325191140E+03  0.35325191140E+03  0.00000000000E+00 0. -1.
         24    1    1    2    0    0  0.70209485570E+01  0.80123554270E+02 -0.17823047172E+02  0.11512582088E+03  0.80419002446E+02 0. -1.
          1    1    1    2  501    0 -0.15835154375E+03 -0.16654766153E+03 -0.25225155774E+02  0.23119178933E+03  0.00000000000E+00 0. -1.
         -2    1    1    2    0  503  0.15133059519E+03  0.86424107257E+02 -0.11068752353E+03  0.20645048612E+03  0.00000000000E+00 0.  1.
<mgrwt>
<rscale>  2 0.25890974E+03</rscale>
<asrwt>0</asrwt>
<pdfrwt beam="1">  1       21 0.30694798E-01 0.25890974E+03</pdfrwt>
<pdfrwt beam="2">  1       21 0.54346447E-01 0.25890974E+03</pdfrwt>
<totfact> 0.31565861E+04</totfact>
</mgrwt>
</event>
<event>
 5    1  0.1281005E-004  0.2370986E+03  0.7546771E-02  0.1121741E+00
         21   -1    0    0  501  502  0.00000000000E+00  0.00000000000E+00  0.16541487572E+03  0.16541487572E+03  0.00000000000E+00 0.  1.
         21   -1    0    0  502  503 -0.00000000000E+00 -0.00000000000E+00 -0.34803213159E+03  0.34803213159E+03  0.00000000000E+00 0.  1.
         24    1    1    2    0    0  0.46733912438E+02 -0.15248912245E+03 -0.35313883975E+02  0.18207492247E+03  0.80419002446E+02 0.  1.
          1    1    1    2  501    0 -0.54559286230E+01 -0.69536156637E+02 -0.22155963014E+02  0.73184225992E+02  0.00000000000E+00 0. -1.
         -2    1    1    2    0  503 -0.41277983815E+02  0.22202527909E+03 -0.12514740889E+03  0.25818785884E+03  0.00000000000E+00 0.  1.
<mgrwt>
<rscale>  2 0.23709858E+03</rscale>
<asrwt>0</asrwt>
<pdfrwt beam="1">  1       21 0.25448443E-01 0.23709858E+03</pdfrwt>
<pdfrwt beam="2">  1       21 0.53543404E-01 0.23709858E+03</pdfrwt>
<totfact> 0.47342617E+04</totfact>
</mgrwt>
</event>
<event>
 5    1  0.1281005E-004  0.1659814E+03  0.7546771E-02  0.1182105E+00
         21   -1    0    0  503  502  0.00000000000E+00  0.00000000000E+00  0.81208117989E+03  0.81208117989E+03  0.00000000000E+00 0. -1.
         21   -1    0    0  501  503 -0.00000000000E+00 -0.00000000000E+00 -0.39415637882E+02  0.39415637882E+02  0.00000000000E+00 0.  1.
         24    1    1    2    0    0 -0.60243551970E+01  0.22913797244E+02  0.31778649761E+03  0.32865910756E+03  0.80419002446E+02 0.  0.
          1    1    1    2  501    0 -0.44562935847E+02 -0.12580895349E+03  0.31405627946E+03  0.34124052324E+03  0.00000000000E+00 0. -1.
         -2    1    1    2    0  502  0.50587291044E+02  0.10289515625E+03  0.14082276494E+03  0.18159718698E+03  0.00000000000E+00 0.  1.
<mgrwt>
<rscale>  2 0.16598137E+03</rscale>
<asrwt>0</asrwt>
<pdfrwt beam="1">  1       21 0.12493555E+00 0.16598137E+03</pdfrwt>
<pdfrwt beam="2">  1       21 0.60639449E-02 0.16598137E+03</pdfrwt>
<totfact> 0.93630535E+04</totfact>
</mgrwt>
</event>
<event>
 5    1  0.1281005E-004  0.2039754E+03  0.7546771E-02  0.1146428E+00
         21   -1    0    0  503  502  0.00000000000E+00  0.00000000000E+00  0.12183460844E+03  0.12183460844E+03  0.00000000000E+00 0. -1.
         21   -1    0    0  501  503 -0.00000000000E+00 -0.00000000000E+00 -0.34173587668E+03  0.34173587668E+03  0.00000000000E+00 0.  1.
         24    1    1    2    0    0 -0.26885546050E+02  0.16445780954E+01 -0.40774840230E+02  0.94102820222E+02  0.80419002446E+02 0.  0.
          1    1    1    2  501    0 -0.14227907266E+03 -0.43677563925E+02 -0.82684855384E+02  0.17025818458E+03  0.00000000000E+00 0. -1.
         -2    1    1    2    0  502  0.16916461871E+03  0.42032985830E+02 -0.96441572623E+02  0.19920948032E+03  0.00000000000E+00 0.  1.
<mgrwt>
<rscale>  2 0.20397545E+03</rscale>
<asrwt>0</asrwt>
<pdfrwt beam="1">  1       21 0.18743786E-01 0.20397545E+03</pdfrwt>
<pdfrwt beam="2">  1       21 0.52574750E-01 0.20397545E+03</pdfrwt>
<totfact> 0.88925393E+04</totfact>
</mgrwt>
</event>
<event>
 5    1  0.1281005E-004  0.3434483E+03  0.7546771E-02  0.1065337E+00
         21   -1    0    0  503  502  0.00000000000E+00  0.00000000000E+00  0.36544644309E+03  0.36544644309E+03  0.00000000000E+00 0.  1.
         21   -1    0    0  501  503 -0.00000000000E+00 -0.00000000000E+00 -0.35717992529E+03  0.35717992529E+03  0.00000000000E+00 0. -1.
         24    1    1    2    0    0 -0.52645602437E+02  0.32121880405E+02  0.66489520523E+02  0.12120827922E+03  0.80419002446E+02 0.  1.
          1    1    1    2  501    0 -0.24447390246E+03  0.95129246176E+02 -0.88316673776E+02  0.27679757465E+03  0.00000000000E+00 0. -1.
         -2    1    1    2    0  502  0.29711950490E+03 -0.12725112658E+03  0.30093671049E+02  0.32462051452E+03  0.00000000000E+00 0.  1.
<mgrwt>
<rscale>  2 0.34344829E+03</rscale>
<asrwt>0</asrwt>
<pdfrwt beam="1">  1       21 0.56222530E-01 0.34344829E+03</pdfrwt>
<pdfrwt beam="2">  1       21 0.54950758E-01 0.34344829E+03</pdfrwt>
<totfact> 0.85844003E+03</totfact>
</mgrwt>
</event>
<event>
 5    1  0.1281005E-004  0.3388456E+03  0.7546771E-02  0.1067289E+00
         21   -1    0    0  501  502  0.00000000000E+00  0.00000000000E+00  0.12612184846E+03  0.12612184846E+03  0.00000000000E+00 0. -1.
         21   -1    0    0  502  503 -0.00000000000E+00 -0.00000000000E+00 -0.91635604113E+03  0.91635604113E+03  0.00000000000E+00 0.  1.
         24    1    1    2    0    0 -0.22688512484E+03  0.95885363454E+02 -0.29955659491E+03  0.39607099402E+03  0.80419002446E+02 0.  1.
          1    1    1    2  501    0  0.29639191894E+03 -0.14839878409E+03 -0.41406942797E+03  0.53039971711E+03  0.00000000000E+00 0. -1.
         -2    1    1    2    0  503 -0.69506794106E+02  0.52513420637E+02 -0.76608169788E+02  0.11600717845E+03  0.00000000000E+00 0.  1.
<mgrwt>
<rscale>  2 0.33884559E+03</rscale>
<asrwt>0</asrwt>
<pdfrwt beam="1">  1       21 0.19403362E-01 0.33884559E+03</pdfrwt>
<pdfrwt beam="2">  1       21 0.14097785E+00 0.33884559E+03</pdfrwt>
<totfact> 0.78770021E+03</totfact>
</mgrwt>
</event>
<event>
 5    1  0.1281005E-004  0.1220166E+03  0.7546771E-02  0.1239807E+00
         21   -1    0    0  503  502  0.00000000000E+00  0.00000000000E+00  0.10055040193E+03  0.10055040193E+03  0.00000000000E+00 0.  1.
         21   -1    0    0  501  503 -0.00000000000E+00 -0.00000000000E+00 -0.17185421317E+03  0.17185421317E+03  0.00000000000E+00 0. -1.
         24    1    1    2    0    0  0.31914843219E+02 -0.55983582564E+02  0.18175370871E+02  0.10464357981E+03  0.80419002446E+02 0.  0.
          1    1    1    2  501    0 -0.46659735174E+02  0.91397747032E+02 -0.56338757418E+02  0.11706722272E+03  0.00000000000E+00 0. -1.
         -2    1    1    2    0  502  0.14744891956E+02 -0.35414164467E+02 -0.33140424691E+02  0.50693812565E+02  0.00000000000E+00 0.  1.
<mgrwt>
<rscale>  2 0.12201664E+03</rscale>
<asrwt>0</asrwt>
<pdfrwt beam="1">  1       21 0.15469293E-01 0.12201664E+03</pdfrwt>
<pdfrwt beam="2">  1       21 0.26439109E-01 0.12201664E+03</pdfrwt>
<totfact> 0.50883240E+05</totfact>
</mgrwt>
</event>
<event>
 5    1  0.1281005E-004  0.1456886E+03  0.7546771E-02  0.1205873E+00
         21   -1    0    0  503  502  0.00000000000E+00  0.00000000000E+00  0.10392466143E+04  0.10392466143E+04  0.00000000000E+00 0. -1.
         21   -1    0    0  501  503 -0.00000000000E+00 -0.00000000000E+00 -0.21012129901E+02  0.21012129901E+02  0.00000000000E+00 0.  1.
         24    1    1    2    0    0  0.70754653246E+02  0.17967556894E+02  0.29760232400E+03  0.31680185173E+03  0.80419002446E+02 0.  1.
          1    1    1    2  501    0 -0.12624563246E+03 -0.15832755676E+02  0.49466455832E+03  0.51076575955E+03  0.00000000000E+00 0. -1.
         -2    1    1    2    0  502  0.55490979216E+02 -0.21348012176E+01  0.22596760207E+03  0.23269113291E+03  0.00000000000E+00 0.  1.
<mgrwt>
<rscale>  2 0.14568862E+03</rscale>
<asrwt>0</asrwt>
<pdfrwt beam="1">  1       21 0.15988406E+00 0.14568862E+03</pdfrwt>
<pdfrwt beam="2">  1       21 0.32326362E-02 0.14568862E+03</pdfrwt>
<totfact> 0.14408191E+05</totfact>
</mgrwt>
</event>
<event>
 5    1  0.1281005E-004  0.3111999E+03  0.7546771E-02  0.1079772E+00
         21   -1    0    0  501  502  0.00000000000E+00  0.00000000000E+00  0.47965598256E+03  0.47965598256E+03  0.00000000000E+00 0.  1.
         21   -1    0    0  502  503 -0.00000000000E+00 -0.00000000000E+00 -0.23373258066E+03  0.23373258066E+03  0.00000000000E+00 0. -1.
         24    1    1    2    0    0  0.90131421202E+02  0.11967788503E+03  0.74755674154E+02  0.18574739844E+03  0.80419002446E+02 0.  1.
          1    1    1    2  501    0  0.11848129740E+03  0.95856899722E+02 -0.43842680256E+02  0.15858292364E+03  0.00000000000E+00 0. -1.
         -2    1    1    2    0  503 -0.20861271861E+03 -0.21553478475E+03  0.21501040801E+03  0.36905824114E+03  0.00000000000E+00 0.  1.
<mgrwt>
<rscale>  2 0.31119987E+03</rscale>
<asrwt>0</asrwt>
<pdfrwt beam="1">  1       21 0.73793228E-01 0.31119987E+03</pdfrwt>
<pdfrwt beam="2">  1       21 0.35958859E-01 0.31119987E+03</pdfrwt>
<totfact> 0.11532376E+04</totfact>
</mgrwt>
</event>
<event>
 5    1  0.1281005E-004  0.1286442E+03  0.7546771E-02  0.1229481E+00
         21   -1    0    0  503  502  0.00000000000E+00  0.00000000000E+00  0.69275281921E+03  0.69275281921E+03  0.00000000000E+00 0.  1.
         21   -1    0    0  501  503 -0.00000000000E+00 -0.00000000000E+00 -0.24906920331E+02  0.24906920331E+02  0.00000000000E+00 0. -1.
         24    1    1    2    0    0 -0.39067407266E+02  0.26331335132E+02  0.31436719122E+03  0.32789258667E+03  0.80419002446E+02 0.  0.
          1    1    1    2  501    0 -0.59313493870E+02 -0.28223971944E+02  0.14955752612E+03  0.16334667663E+03  0.00000000000E+00 0. -1.
         -2    1    1    2    0  502  0.98380901136E+02  0.18926368125E+01  0.20392118154E+03  0.22642047625E+03  0.00000000000E+00 0.  1.
<mgrwt>
<rscale>  2 0.12864423E+03</rscale>
<asrwt>0</asrwt>
<pdfrwt beam="1">  1       21 0.10657734E+00 0.12864423E+03</pdfrwt>
<pdfrwt beam="2">  1       21 0.38318344E-02 0.12864423E+03</pdfrwt>
<totfact> 0.30195930E+05</totfact>
</mgrwt>
</event>
<event>
 5    1  0.1281005E-004  0.1956268E+03  0.7546771E-02  0.1153482E+00
         21   -1    0    0  501  502  0.00000000000E+00  0.00000000000E+00  0.61835498898E+03  0.61835498898E+03  0.00000000000E+00 0.  1.
         21   -1    0    0  502  503 -0.00000000000E+00 -0.00000000000E+00 -0.62228435734E+02  0.62228435734E+02  0.00000000000E+00 0. -1.
         24    1    1    2    0    0 -0.43289265140E+02  0.90757362170E+01  0.11406578690E+03  0.14640542736E+03  0.80419002446E+02 0.  0.
          1    1    1    2  501    0 -0.12796322837E+03 -0.80847078142E+01  0.20311800563E+03  0.24020173714E+03  0.00000000000E+00 0. -1.
         -2    1    1    2    0  503  0.17125249351E+03 -0.99102840282E+00  0.23894276072E+03  0.29397626022E+03  0.00000000000E+00 0.  1.
<mgrwt>
<rscale>  2 0.19562680E+03</rscale>
<asrwt>0</asrwt>
<pdfrwt beam="1">  1       21 0.95131532E-01 0.19562680E+03</pdfrwt>
<pdfrwt beam="2">  1       21 0.95736059E-02 0.19562680E+03</pdfrwt>
<totfact> 0.80805415E+04</totfact>
</mgrwt>
</event>
<event>
 5    1  0.1281005E-004  0.1115791E+03  0.7546771E-02  0.1257673E+00
         21   -1    0    0  501  502  0.00000000000E+00  0.00000000000E+00  0.58467330120E+02  0.58467330120E+02  0.00000000000E+00 0. -1.
         21   -1    0    0  502  503 -0.00000000000E+00 -0.00000000000E+00 -0.23073422083E+03  0.23073422083E+03  0.00000000000E+00 0.  1.
         24    1    1    2    0    0  0.77994663748E+02 -0.48003305600E+02 -0.53747912411E+02  0.13320487590E+03  0.80419002446E+02 0. -1.
          1    1    1    2  501    0 -0.27705552744E+02 -0.50676623131E+01 -0.29205427432E+02  0.40573832031E+02  0.00000000000E+00 0. -1.
         -2    1    1    2    0  503 -0.50289111004E+02  0.53070967913E+02 -0.89313550863E+02  0.11542284301E+03  0.00000000000E+00 0.  1.
<mgrwt>
<rscale>  2 0.11157907E+03</rscale>
<asrwt>0</asrwt>
<pdfrwt beam="1">  1       21 0.89949737E-02 0.11157907E+03</pdfrwt>
<pdfrwt beam="2">  1       21 0.35497573E-01 0.11157907E+03</pdfrwt>
<totfact> 0.75114444E+05</totfact>
</mgrwt>
</event>
<event>
 5    1  0.1281005E-004  0.2346042E+03  0.7546771E-02  0.1123440E+00
         21   -1    0    0  501  502  0.00000000000E+00  0.00000000000E+00  0.12600169665E+03  0.12600169665E+03  0.00000000000E+00 0. -1.
         21   -1    0    0  502  503 -0.00000000000E+00 -0.00000000000E+00 -0.46248274261E+03  0.46248274261E+03  0.00000000000E+00 0.  1.
         24    1    1    2    0    0 -0.14185631672E+02 -0.16270053982E+03 -0.19894202075E+03  0.26966245823E+03  0.80419002446E+02 0.  1.
          1    1    1    2  501    0 -0.51280347664E+02  0.20360951546E+03 -0.10849538271E+03  0.23634245686E+03  0.00000000000E+00 0. -1.
         -2    1    1    2    0  503  0.65465979335E+02 -0.40908975649E+02 -0.29043642493E+02  0.82479524176E+02  0.00000000000E+00 0.  1.
<mgrwt>
<rscale>  2 0.23460417E+03</rscale>
<asrwt>0</asrwt>
<pdfrwt beam="1">  1       21 0.19384876E-01 0.23460417E+03</pdfrwt>
<pdfrwt beam="2">  1       21 0.71151191E-01 0.23460417E+03</pdfrwt>
<totfact> 0.42854614E+04</totfact>
</mgrwt>
</event>
<event>
 5    1  0.1281005E-004  0.1239995E+03  0.7546771E-02  0.1236641E+00
         21   -1    0    0  503  502  0.00000000000E+00  0.00000000000E+00  0.15450916956E+03  0.15450916956E+03  0.00000000000E+00 0. -1.
         21   -1    0    0  501  503 -0.00000000000E+00 -0.00000000000E+00 -0.10228853331E+03  0.10228853331E+03  0.00000000000E+00 0.  1.
         24    1    1    2    0    0 -0.47077258182E+01  0.88154547661E+02  0.41095799531E+01  0.11948845784E+03  0.80419002446E+02 0.  1.
          1    1    1    2  501    0 -0.26667783169E+01 -0.10767821095E+03  0.39329853104E+02  0.11466711021E+03  0.00000000000E+00 0. -1.
         -2    1    1    2    0  502  0.73745041351E+01  0.19523663285E+02  0.87812031970E+01  0.22642134813E+02  0.00000000000E+00 0.  1.
<mgrwt>
<rscale>  2 0.12399950E+03</rscale>
<asrwt>0</asrwt>
<pdfrwt beam="1">  1       21 0.23770641E-01 0.12399950E+03</pdfrwt>
<pdfrwt beam="2">  1       21 0.15736697E-01 0.12399950E+03</pdfrwt>
<totfact> 0.60301010E+05</totfact>
</mgrwt>
</event>
<event>
 5    1  0.1281005E-004  0.2045002E+03  0.7546771E-02  0.1145997E+00
         21   -1    0    0  503  502  0.00000000000E+00  0.00000000000E+00  0.35464758051E+03  0.35464758051E+03  0.00000000000E+00 0. -1.
         21   -1    0    0  501  503 -0.00000000000E+00 -0.00000000000E+00 -0.13179191047E+03  0.13179191047E+03  0.00000000000E+00 0.  1.
         24    1    1    2    0    0 -0.80175373718E+02  0.76641203557E+02  0.15293806336E+03  0.20532713365E+03  0.80419002446E+02 0.  0.
          1    1    1    2  501    0 -0.76738264801E+02  0.29874948619E+02  0.27042410963E+02  0.86675058871E+02  0.00000000000E+00 0. -1.
         -2    1    1    2    0  502  0.15691363852E+03 -0.10651615218E+03  0.42875195717E+02  0.19443729847E+03  0.00000000000E+00 0.  1.
<mgrwt>
<rscale>  2 0.20450018E+03</rscale>
<asrwt>0</asrwt>
<pdfrwt beam="1">  1       21 0.54561166E-01 0.20450018E+03</pdfrwt>
<pdfrwt beam="2">  1       21 0.20275679E-01 0.20450018E+03</pdfrwt>
<totfact> 0.71002996E+04</totfact>
</mgrwt>
</event>
<event>
 5    1  0.1281005E-004  0.1547255E+03  0.7546771E-02  0.1194784E+00
         21   -1    0    0  503  502  0.00000000000E+00  0.00000000000E+00  0.36846413766E+03  0.36846413766E+03  0.00000000000E+00 0.  1.
         21   -1    0    0  501  503 -0.00000000000E+00 -0.00000000000E+00 -0.69849566910E+02  0.69849566910E+02  0.00000000000E+00 0. -1.
         24    1    1    2    0    0 -0.54195678100E+02 -0.40408237745E+01  0.43788646046E+02  0.10648080230E+03  0.80419002446E+02 0. -1.
          1    1    1    2  501    0  0.78487405100E+02 -0.87580548828E+02  0.13472549307E+03  0.17883395588E+03  0.00000000000E+00 0. -1.
         -2    1    1    2    0  502 -0.24291727000E+02  0.91621372602E+02  0.12010043163E+03  0.15299894639E+03  0.00000000000E+00 0.  1.
<mgrwt>
<rscale>  2 0.15472550E+03</rscale>
<asrwt>0</asrwt>
<pdfrwt beam="1">  1       21 0.56686789E-01 0.15472550E+03</pdfrwt>
<pdfrwt beam="2">  1       21 0.10746087E-01 0.15472550E+03</pdfrwt>
<totfact> 0.21129516E+05</totfact>
</mgrwt>
</event>
<event>
 5    1  0.1281005E-004  0.1788770E+03  0.7546771E-02  0.1168894E+00
         21   -1    0    0  501  502  0.00000000000E+00  0.00000000000E+00  0.42331076097E+03  0.42331076097E+03  0.00000000000E+00 0. -1.
         21   -1    0    0  502  503 -0.00000000000E+00 -0.00000000000E+00 -0.84788584338E+02  0.84788584338E+02  0.00000000000E+00 0.  1.
         24    1    1    2    0    0  0.39635809638E+01 -0.12149708934E+02  0.12315854046E+03  0.14764337928E+03  0.80419002446E+02 0. -1.
          1    1    1    2  501    0  0.65015860074E+01  0.14395702105E+03  0.16474396799E+03  0.21887546578E+03  0.00000000000E+00 0. -1.
         -2    1    1    2    0  503 -0.10465166971E+02 -0.13180731211E+03  0.50619668182E+02  0.14158050026E+03  0.00000000000E+00 0.  1.
<mgrwt>
<rscale>  2 0.17887701E+03</rscale>
<asrwt>0</asrwt>
<pdfrwt beam="1">  1       21 0.65124731E-01 0.17887701E+03</pdfrwt>
<pdfrwt beam="2">  1       21 0.13044398E-01 0.17887701E+03</pdfrwt>
<totfact> 0.11021447E+05</totfact>
</mgrwt>
</event>
<event>
 5    1  0.1281005E-004  0.1184986E+03  0.7546771E-02  0.1245595E+00
         21   -1    0    0  501  502  0.00000000000E+00  0.00000000000E+00  0.26467624549E+02  0.26467624549E+02  0.00000000000E+00 0. -1.
         21   -1    0    0  502  503 -0.00000000000E+00 -0.00000000000E+00 -0.55666200595E+03  0.55666200595E+03  0.00000000000E+00 0.  1.
         24    1    1    2    0    0 -0.72613575769E+02 -0.28689096126E+02 -0.19039149047E+03  0.22093422374E+03  0.80419002446E+02 0. -1.
          1    1    1    2  501    0 -0.18821791583E+02  0.27678038449E+02 -0.77818377319E+02  0.84711472065E+02  0.00000000000E+00 0. -1.
         -2    1    1    2    0  503  0.91435367352E+02  0.10110576772E+01 -0.26198451361E+03  0.27748393469E+03  0.00000000000E+00 0.  1.
<mgrwt>
<rscale>  2 0.11849859E+03</rscale>
<asrwt>0</asrwt>
<pdfrwt beam="1">  1       21 0.40719424E-02 0.11849859E+03</pdfrwt>
<pdfrwt beam="2">  1       21 0.85640304E-01 0.11849859E+03</pdfrwt>
<totfact> 0.45389166E+05</totfact>
</mgrwt>
</event>
<event>
 5    1  0.1281005E-004  0.1555636E+03  0.7546771E-02  0.1193798E+00
         21   -1    0    0  501  502  0.00000000000E+00  0.00000000000E+00  0.24975338759E+03  0.24975338759E+03  0.00000000000E+00 0. -1.
         21   -1    0    0  502  503 -0.00000000000E+00 -0.00000000000E+00 -0.10148954584E+03  0.10148954584E+03  0.00000000000E+00 0.  1.
         24    1    1    2    0    0 -0.59521087898E+02  0.95116440999E+02  0.10255017531E+03  0.17196991499E+03  0.80419002446E+02 0.  0.
          1    1    1    2  501    0  0.56001486308E+02 -0.12815373431E+03  0.32974205039E+02  0.14369009808E+03  0.00000000000E+00 0. -1.
         -2    1    1    2    0  503  0.35196015906E+01  0.33037293314E+02  0.12739461403E+02  0.35582920365E+02  0.00000000000E+00 0.  1.
<mgrwt>
<rscale>  2 0.15556360E+03</rscale>
<asrwt>0</asrwt>
<pdfrwt beam="1">  1       21 0.38423598E-01 0.15556360E+03</pdfrwt>
<pdfrwt beam="2">  1       21 0.15613776E-01 0.15556360E+03</pdfrwt>
<totfact> 0.24049157E+05</totfact>
</mgrwt>
</event>
<event>
 5    1  0.1281005E-004  0.1688685E+03  0.7546771E-02  0.1179033E+00
         21   -1    0    0  503  502  0.00000000000E+00  0.00000000000E+00  0.19127433392E+03  0.19127433392E+03  0.00000000000E+00 0.  1.
         21   -1    0    0  501  503 -0.00000000000E+00 -0.00000000000E+00 -0.15005248404E+03  0.15005248404E+03  0.00000000000E+00 0.  1.
         24    1    1    2    0    0 -0.26209178067E+02 -0.31113175164E+02  0.92762169119E+01  0.90599198884E+02  0.80419002446E+02 0.  1.
          1    1    1    2  501    0 -0.20782110151E+02 -0.10322395048E+03  0.21168802447E+01  0.10531648132E+03  0.00000000000E+00 0. -1.
         -2    1    1    2    0  502  0.46991288219E+02  0.13433712564E+03  0.29828752732E+02  0.14541113776E+03  0.00000000000E+00 0.  1.
<mgrwt>
<rscale>  2 0.16886854E+03</rscale>
<asrwt>0</asrwt>
<pdfrwt beam="1">  1       21 0.29426821E-01 0.16886854E+03</pdfrwt>
<pdfrwt beam="2">  1       21 0.23084997E-01 0.16886854E+03</pdfrwt>
<totfact> 0.19635760E+05</totfact>
</mgrwt>
</event>
<event>
 5    1  0.1281005E-004  0.1330611E+03  0.7546771E-02  0.1222983E+00
         21   -1    0    0  503  502  0.00000000000E+00  0.00000000000E+00  0.17535331960E+03  0.17535331960E+03  0.00000000000E+00 0.  1.
         21   -1    0    0  501  503 -0.00000000000E+00 -0.00000000000E+00 -0.11152407533E+03  0.11152407533E+03  0.00000000000E+00 0. -1.
         24    1    1    2    0    0 -0.60681196553E+02 -0.12297248000E+02  0.34760217383E+02  0.10727962803E+03  0.80419002446E+02 0.  1.
          1    1    1    2  501    0 -0.48962638996E+02 -0.15790310910E+02 -0.21339184360E+02  0.55695913002E+02  0.00000000000E+00 0. -1.
         -2    1    1    2    0  502  0.10964383555E+03  0.28087558910E+02  0.50408211241E+02  0.12390185390E+03  0.00000000000E+00 0.  1.
<mgrwt>
<rscale>  2 0.13306111E+03</rscale>
<asrwt>0</asrwt>
<pdfrwt beam="1">  1       21 0.26977434E-01 0.13306111E+03</pdfrwt>
<pdfrwt beam="2">  1       21 0.17157550E-01 0.13306111E+03</pdfrwt>
<totfact> 0.40541106E+05</totfact>
</mgrwt>
</event>
<event>
 5    1  0.1281005E-004  0.1077163E+03  0.7546771E-02  0.1264858E+00
         21   -1    0    0  501  502  0.00000000000E+00  0.00000000000E+00  0.56041852596E+03  0.56041852596E+03  0.00000000000E+00 0.  1.
         21   -1    0    0  502  503 -0.00000000000E+00 -0.00000000000E+00 -0.21054310535E+02  0.21054310535E+02  0.00000000000E+00 0. -1.
         24    1    1    2    0    0 -0.94591487682E+01  0.92736290889E+01  0.17602410221E+03  0.19397725693E+03  0.80419002446E+02 0.  1.
          1    1    1    2  501    0  0.52195378572E+01 -0.71434367179E+02  0.21444690038E+03  0.22609198454E+03  0.00000000000E+00 0. -1.
         -2    1    1    2    0  503  0.42396109110E+01  0.62160738090E+02  0.14889321284E+03  0.16140359503E+03  0.00000000000E+00 0.  1.
<mgrwt>
<rscale>  2 0.10771633E+03</rscale>
<asrwt>0</asrwt>
<pdfrwt beam="1">  1       21 0.86218223E-01 0.10771633E+03</pdfrwt>
<pdfrwt beam="2">  1       21 0.32391251E-02 0.10771633E+03</pdfrwt>
<totfact> 0.65262718E+05</totfact>
</mgrwt>
</event>
<event>
 5    1  0.1281005E-004  0.1818585E+03  0.7546771E-02  0.1166016E+00
         21   -1    0    0  503  502  0.00000000000E+00  0.00000000000E+00  0.33830228063E+03  0.33830228063E+03  0.00000000000E+00 0. -1.
         21   -1    0    0  501  503 -0.00000000000E+00 -0.00000000000E+00 -0.10557280711E+03  0.10557280711E+03  0.00000000000E+00 0.  1.
         24    1    1    2    0    0 -0.70711221494E+02 -0.48901597748E+02  0.78580145673E+02  0.14153974126E+03  0.80419002446E+02 0.  1.
          1    1    1    2  501    0  0.14558905605E+03  0.78588873477E+02  0.54475954227E+02  0.17418385076E+03  0.00000000000E+00 0. -1.
         -2    1    1    2    0  502 -0.74877834554E+02 -0.29687275729E+02  0.99673373621E+02  0.12815149573E+03  0.00000000000E+00 0.  1.
<mgrwt>
<rscale>  2 0.18185855E+03</rscale>
<asrwt>0</asrwt>
<pdfrwt beam="1">  1       21 0.52046504E-01 0.18185855E+03</pdfrwt>
<pdfrwt beam="2">  1       21 0.16241971E-01 0.18185855E+03</pdfrwt>
<totfact> 0.11931461E+05</totfact>
</mgrwt>
</event>
<event>
 5    1  0.1281005E-004  0.1306115E+03  0.7546771E-02  0.1226551E+00
         21   -1    0    0  503  502  0.00000000000E+00  0.00000000000E+00  0.17166657731E+02  0.17166657731E+02  0.00000000000E+00 0. -1.
         21   -1    0    0  501  503 -0.00000000000E+00 -0.00000000000E+00 -0.10932092655E+04  0.10932092655E+04  0.00000000000E+00 0.  1.
         24    1    1    2    0    0 -0.37188602272E+02  0.35130585082E+02 -0.26799624774E+03  0.28444042417E+03  0.80419002446E+02 0. -1.
          1    1    1    2  501    0 -0.15354309762E+01  0.61650838804E+02 -0.40296865970E+03  0.40766030488E+03  0.00000000000E+00 0. -1.
         -2    1    1    2    0  502  0.38724033248E+02 -0.96781423886E+02 -0.40507770028E+03  0.41827519413E+03  0.00000000000E+00 0.  1.
<mgrwt>
<rscale>  2 0.13061147E+03</rscale>
<asrwt>0</asrwt>
<pdfrwt beam="1">  1       21 0.26410243E-02 0.13061147E+03</pdfrwt>
<pdfrwt beam="2">  1       21 0.16818604E+00 0.13061147E+03</pdfrwt>
<totfact> 0.17653292E+05</totfact>
</mgrwt>
</event>
<event>
 5    1  0.1281005E-004  0.1176359E+03  0.7546771E-02  0.1247049E+00
         21   -1    0    0  503  502  0.00000000000E+00  0.00000000000E+00  0.10955343858E+03  0.10955343858E+03  0.00000000000E+00 0.  1.
         21   -1    0    0  501  503 -0.00000000000E+00 -0.00000000000E+00 -0.12809326907E+03  0.12809326907E+03  0.00000000000E+00 0. -1.
         24    1    1    2    0    0 -0.20516716607E+02 -0.42216168576E+02 -0.17638504295E+02  0.94770635419E+02  0.80419002446E+02 0.  0.
          1    1    1    2  501    0 -0.77553573255E+01 -0.47480824054E+02 -0.70706249823E+01  0.48626823439E+02  0.00000000000E+00 0. -1.
         -2    1    1    2    0  502  0.28272073933E+02  0.89696992630E+02  0.61692987850E+01  0.94249248797E+02  0.00000000000E+00 0.  1.
<mgrwt>
<rscale>  2 0.11763595E+03</rscale>
<asrwt>0</asrwt>
<pdfrwt beam="1">  1       21 0.16854375E-01 0.11763595E+03</pdfrwt>
<pdfrwt beam="2">  1       21 0.19706657E-01 0.11763595E+03</pdfrwt>
<totfact> 0.75468875E+05</totfact>
</mgrwt>
</event>
<event>
 5    1  0.1281005E-004  0.1941019E+03  0.7546771E-02  0.1154813E+00
         21   -1    0    0  501  502  0.00000000000E+00  0.00000000000E+00  0.19671663840E+03  0.19671663840E+03  0.00000000000E+00 0.  1.
         21   -1    0    0  502  503 -0.00000000000E+00 -0.00000000000E+00 -0.19856135350E+03  0.19856135350E+03  0.00000000000E+00 0. -1.
         24    1    1    2    0    0  0.39064762264E+02  0.99172730350E+02 -0.17664251218E+02  0.13468677671E+03  0.80419002446E+02 0.  0.
          1    1    1    2  501    0  0.22675704802E+02  0.70535304293E+02  0.28901649283E+02  0.79528121261E+02  0.00000000000E+00 0. -1.
         -2    1    1    2    0  503 -0.61740467066E+02 -0.16970803464E+03 -0.13082113170E+02  0.18106309392E+03  0.00000000000E+00 0.  1.
<mgrwt>
<rscale>  2 0.19410194E+03</rscale>
<asrwt>0</asrwt>
<pdfrwt beam="1">  1       21 0.30264098E-01 0.19410194E+03</pdfrwt>
<pdfrwt beam="2">  1       21 0.30547900E-01 0.19410194E+03</pdfrwt>
<totfact> 0.10770307E+05</totfact>
</mgrwt>
</event>
<event>
 5    1  0.1281005E-004  0.1329752E+03  0.7546771E-02  0.1223107E+00
         21   -1    0    0  501  502  0.00000000000E+00  0.00000000000E+00  0.12065887993E+03  0.12065887993E+03  0.00000000000E+00 0.  1.
         21   -1    0    0  502  503 -0.00000000000E+00 -0.00000000000E+00 -0.14848774694E+03  0.14848774694E+03  0.00000000000E+00 0. -1.
         24    1    1    2    0    0  0.35977370810E+02 -0.58030387722E+02 -0.16379609984E+02  0.10675862816E+03  0.80419002446E+02 0.  1.
          1    1    1    2  501    0 -0.99947728842E+00  0.10326794358E+03  0.33285064164E+01  0.10332640553E+03  0.00000000000E+00 0. -1.
         -2    1    1    2    0  503 -0.34977893521E+02 -0.45237555856E+02 -0.14777763448E+02  0.59061593168E+02  0.00000000000E+00 0.  1.
<mgrwt>
<rscale>  2 0.13297517E+03</rscale>
<asrwt>0</asrwt>
<pdfrwt beam="1">  1       21 0.18562905E-01 0.13297517E+03</pdfrwt>
<pdfrwt beam="2">  1       21 0.22844269E-01 0.13297517E+03</pdfrwt>
<totfact> 0.48063919E+05</totfact>
</mgrwt>
</event>
<event>
 5    1  0.1281005E-004  0.1156848E+03  0.7546771E-02  0.1250390E+00
         21   -1    0    0  503  502  0.00000000000E+00  0.00000000000E+00  0.28870936444E+02  0.28870936444E+02  0.00000000000E+00 0.  1.
         21   -1    0    0  501  503 -0.00000000000E+00 -0.00000000000E+00 -0.50386822321E+03  0.50386822321E+03  0.00000000000E+00 0. -1.
         24    1    1    2    0    0 -0.10332154304E+02  0.46751109936E+02 -0.12494287638E+03  0.15611008297E+03  0.80419002446E+02 0. -1.
          1    1    1    2  501    0  0.58742752432E+02 -0.63543777023E+02 -0.24287437535E+03  0.25783034104E+03  0.00000000000E+00 0. -1.
         -2    1    1    2    0  502 -0.48410598128E+02  0.16792667088E+02 -0.10718003504E+03  0.11879873564E+03  0.00000000000E+00 0.  1.
<mgrwt>
<rscale>  2 0.11568479E+03</rscale>
<asrwt>0</asrwt>
<pdfrwt beam="1">  1       21 0.44416831E-02 0.11568479E+03</pdfrwt>
<pdfrwt beam="2">  1       21 0.77518179E-01 0.11568479E+03</pdfrwt>
<totfact> 0.49103584E+05</totfact>
</mgrwt>
</event>
<event>
 5    1  0.1281005E-004  0.2366490E+03  0.7546771E-02  0.1122045E+00
         21   -1    0    0  503  502  0.00000000000E+00  0.00000000000E+00  0.61184609342E+03  0.61184609342E+03  0.00000000000E+00 0.  1.
         21   -1    0    0  501  503 -0.00000000000E+00 -0.00000000000E+00 -0.10641214198E+03  0.10641214198E+03  0.00000000000E+00 0. -1.
         24    1    1    2    0    0  0.93939917095E+02 -0.54312935437E+02  0.28259344492E+03  0.31321059057E+03  0.80419002446E+02 0.  1.
          1    1    1    2  501    0 -0.22658250293E+02  0.18659763466E+03  0.12473582859E+03  0.22559055942E+03  0.00000000000E+00 0. -1.
         -2    1    1    2    0  502 -0.71281666803E+02 -0.13228469922E+03  0.98104677936E+02  0.17945708541E+03  0.00000000000E+00 0.  1.
<mgrwt>
<rscale>  2 0.23664902E+03</rscale>
<asrwt>0</asrwt>
<pdfrwt beam="1">  1       21 0.94130166E-01 0.23664902E+03</pdfrwt>
<pdfrwt beam="2">  1       21 0.16371099E-01 0.23664902E+03</pdfrwt>
<totfact> 0.30915933E+04</totfact>
</mgrwt>
</event>
<event>
 5    1  0.1281005E-004  0.1570322E+03  0.7546771E-02  0.1192089E+00
         21   -1    0    0  503  502  0.00000000000E+00  0.00000000000E+00  0.17651378407E+03  0.17651378407E+03  0.00000000000E+00 0. -1.
         21   -1    0    0  501  503 -0.00000000000E+00 -0.00000000000E+00 -0.14886371543E+03  0.14886371543E+03  0.00000000000E+00 0.  1.
         24    1    1    2    0    0 -0.16195307628E+01  0.57470840244E+02  0.11875749217E+02  0.99567915174E+02  0.80419002446E+02 0.  0.
          1    1    1    2  501    0  0.14257637378E+02  0.77927158421E+02 -0.26284671916E+02  0.83467396155E+02  0.00000000000E+00 0. -1.
         -2    1    1    2    0  502 -0.12638106616E+02 -0.13539799867E+03  0.42058991333E+02  0.14234218817E+03  0.00000000000E+00 0.  1.
<mgrwt>
<rscale>  2 0.15703221E+03</rscale>
<asrwt>0</asrwt>
<pdfrwt beam="1">  1       21 0.27155967E-01 0.15703221E+03</pdfrwt>
<pdfrwt beam="2">  1       21 0.22902110E-01 0.15703221E+03</pdfrwt>
<totfact> 0.23347570E+05</totfact>
</mgrwt>
</event>
<event>
 5    1  0.1281005E-004  0.1771809E+03  0.7546771E-02  0.1170560E+00
         21   -1    0    0  503  502  0.00000000000E+00  0.00000000000E+00  0.50472153016E+02  0.50472153016E+02  0.00000000000E+00 0. -1.
         21   -1    0    0  501  503 -0.00000000000E+00 -0.00000000000E+00 -0.65154206091E+03  0.65154206091E+03  0.00000000000E+00 0.  1.
         24    1    1    2    0    0  0.72781157437E+02  0.96734132091E+02 -0.32227137083E+03  0.35352601262E+03  0.80419002446E+02 0.  1.
          1    1    1    2  501    0 -0.93736488427E+02 -0.13561657439E+03 -0.21661613331E+03  0.27221486683E+03  0.00000000000E+00 0. -1.
         -2    1    1    2    0  502  0.20955330990E+02  0.38882442296E+02 -0.62182403756E+02  0.76273334480E+02  0.00000000000E+00 0.  1.
<mgrwt>
<rscale>  2 0.17718095E+03</rscale>
<asrwt>0</asrwt>
<pdfrwt beam="1">  1       21 0.77649473E-02 0.17718095E+03</pdfrwt>
<pdfrwt beam="2">  1       21 0.10023723E+00 0.17718095E+03</pdfrwt>
<totfact> 0.10383455E+05</totfact>
</mgrwt>
</event>
<event>
 5    1  0.1281005E-004  0.1380444E+03  0.7546771E-02  0.1215985E+00
         21   -1    0    0  501  502  0.00000000000E+00  0.00000000000E+00  0.97227231357E+02  0.97227231357E+02  0.00000000000E+00 0. -1.
         21   -1    0    0  502  503 -0.00000000000E+00 -0.00000000000E+00 -0.20333265402E+03  0.20333265402E+03  0.00000000000E+00 0.  1.
         24    1    1    2    0    0 -0.46961495891E+02 -0.60120969263E+02 -0.56560709909E+02  0.12444373388E+03  0.80419002446E+02 0. -1.
          1    1    1    2  501    0 -0.53272716199E+02  0.15178642633E+02  0.52320739105E+00  0.55395371913E+02  0.00000000000E+00 0. -1.
         -2    1    1    2    0  503  0.10023421209E+03  0.44942326629E+02 -0.50067920140E+02  0.12072077958E+03  0.00000000000E+00 0.  1.
<mgrwt>
<rscale>  2 0.13804440E+03</rscale>
<asrwt>0</asrwt>
<pdfrwt beam="1">  1       21 0.14958036E-01 0.13804440E+03</pdfrwt>
<pdfrwt beam="2">  1       21 0.31281947E-01 0.13804440E+03</pdfrwt>
<totfact> 0.39083948E+05</totfact>
</mgrwt>
</event>
<event>
 5    1  0.1281005E-004  0.1298991E+03  0.7546771E-02  0.1227606E+00
         21   -1    0    0  501  502  0.00000000000E+00  0.00000000000E+00  0.28479990775E+03  0.28479990775E+03  0.00000000000E+00 0. -1.
         21   -1    0    0  502  503 -0.00000000000E+00 -0.00000000000E+00 -0.61678422363E+02  0.61678422363E+02  0.00000000000E+00 0.  1.
         24    1    1    2    0    0  0.33670373142E+02 -0.90264355496E+02  0.90939086600E+02  0.15497897060E+03  0.80419002446E+02 0. -1.
          1    1    1    2  501    0  0.21923909971E+02 -0.63606327185E+01  0.43211360901E+02  0.48870616815E+02  0.00000000000E+00 0. -1.
         -2    1    1    2    0  503 -0.55594283112E+02  0.96624988215E+02  0.88971037887E+02  0.14262874270E+03  0.00000000000E+00 0.  1.
<mgrwt>
<rscale>  2 0.12989910E+03</rscale>
<asrwt>0</asrwt>
<pdfrwt beam="1">  1       21 0.43815370E-01 0.12989910E+03</pdfrwt>
<pdfrwt beam="2">  1       21 0.94889882E-02 0.12989910E+03</pdfrwt>
<totfact> 0.44973423E+05</totfact>
</mgrwt>
</event>
<event>
 5    1  0.1281005E-004  0.1429444E+03  0.7546771E-02  0.1209421E+00
         21   -1    0    0  503  502  0.00000000000E+00  0.00000000000E+00  0.42541015674E+02  0.42541015674E+02  0.00000000000E+00 0. -1.
         21   -1    0    0  501  503 -0.00000000000E+00 -0.00000000000E+00 -0.54936297477E+03  0.54936297477E+03  0.00000000000E+00 0.  1.
         24    1    1    2    0    0  0.28980250980E+02 -0.11321533732E+02 -0.25631039321E+03  0.27042608176E+03  0.80419002446E+02 0.  1.
          1    1    1    2  501    0 -0.97994941617E+02  0.60274240989E+02 -0.16527816997E+03  0.20137742222E+03  0.00000000000E+00 0. -1.
         -2    1    1    2    0  502  0.69014690637E+02 -0.48952707256E+02 -0.85233395912E+02  0.12010048647E+03  0.00000000000E+00 0.  1.
<mgrwt>
<rscale>  2 0.14294444E+03</rscale>
<asrwt>0</asrwt>
<pdfrwt beam="1">  1       21 0.65447714E-02 0.14294444E+03</pdfrwt>
<pdfrwt beam="2">  1       21 0.84517384E-01 0.14294444E+03</pdfrwt>
<totfact> 0.20929586E+05</totfact>
</mgrwt>
</event>
<event>
 5    1  0.1281005E-004  0.1056157E+03  0.7546771E-02  0.1268911E+00
         21   -1    0    0  501  502  0.00000000000E+00  0.00000000000E+00  0.73533132001E+01  0.73533132001E+01  0.00000000000E+00 0.  1.
         21   -1    0    0  502  503 -0.00000000000E+00 -0.00000000000E+00 -0.17608517233E+04  0.17608517233E+04  0.00000000000E+00 0. -1.
         24    1    1    2    0    0  0.46019519326E+02 -0.17871830361E+02 -0.46996053720E+03  0.47934050628E+03  0.80419002446E+02 0.  0.
          1    1    1    2  501    0 -0.14588953505E+02  0.61438726029E+02 -0.65690820763E+03  0.65993632107E+03  0.00000000000E+00 0. -1.
         -2    1    1    2    0  503 -0.31430565821E+02 -0.43566895669E+02 -0.62662966524E+03  0.62892820912E+03  0.00000000000E+00 0.  1.
<mgrwt>
<rscale>  2 0.10561569E+03</rscale>
<asrwt>0</asrwt>
<pdfrwt beam="1">  1       21 0.11312793E-02 0.10561569E+03</pdfrwt>
<pdfrwt beam="2">  1       21 0.27090018E+00 0.10561569E+03</pdfrwt>
<totfact> 0.16640342E+05</totfact>
</mgrwt>
</event>
<event>
 5    1  0.1281005E-004  0.1892385E+03  0.7546771E-02  0.1159150E+00
         21   -1    0    0  503  502  0.00000000000E+00  0.00000000000E+00  0.60584465802E+03  0.60584465802E+03  0.00000000000E+00 0.  1.
         21   -1    0    0  501  503 -0.00000000000E+00 -0.00000000000E+00 -0.68474820910E+02  0.68474820910E+02  0.00000000000E+00 0. -1.
         24    1    1    2    0    0 -0.27779416449E+01  0.47631187241E+02  0.12164776432E+03  0.15343350832E+03  0.80419002446E+02 0.  0.
          1    1    1    2  501    0  0.12438726955E+03 -0.92855202083E+02  0.11442486587E+03  0.19284017038E+03  0.00000000000E+00 0. -1.
         -2    1    1    2    0  502 -0.12160932791E+03  0.45224014841E+02  0.30129720692E+03  0.32804580023E+03  0.00000000000E+00 0.  1.
<mgrwt>
<rscale>  2 0.18923847E+03</rscale>
<asrwt>0</asrwt>
<pdfrwt beam="1">  1       21 0.93206867E-01 0.18923847E+03</pdfrwt>
<pdfrwt beam="2">  1       21 0.10534588E-01 0.18923847E+03</pdfrwt>
<totfact> 0.71781127E+04</totfact>
</mgrwt>
</event>
<event>
 5    1  0.1281005E-004  0.3020600E+03  0.7546771E-02  0.1084215E+00
         21   -1    0    0  503  502  0.00000000000E+00  0.00000000000E+00  0.15684821818E+03  0.15684821818E+03  0.00000000000E+00 0. -1.
         21   -1    0    0  501  503 -0.00000000000E+00 -0.00000000000E+00 -0.61311809512E+03  0.61311809512E+03  0.00000000000E+00 0.  1.
         24    1    1    2    0    0  0.47992468917E+02  0.17787177179E+03 -0.80217307419E+02  0.21643400065E+03  0.80419002446E+02 0. -1.
          1    1    1    2  501    0  0.93865141548E+02  0.70282156467E+02 -0.79631236780E+02  0.14174406579E+03  0.00000000000E+00 0. -1.
         -2    1    1    2    0  502 -0.14185761046E+03 -0.24815392826E+03 -0.29642133274E+03  0.41178824687E+03  0.00000000000E+00 0.  1.
<mgrwt>
<rscale>  2 0.30206002E+03</rscale>
<asrwt>0</asrwt>
<pdfrwt beam="1">  1       21 0.24130495E-01 0.30206002E+03</pdfrwt>
<pdfrwt beam="2">  1       21 0.94325861E-01 0.30206002E+03</pdfrwt>
<totfact> 0.14393419E+04</totfact>
</mgrwt>
</event>
<event>
 5    1  0.1281005E-004  0.1147952E+03  0.7546771E-02  0.1251939E+00
         21   -1    0    0  503  502  0.00000000000E+00  0.00000000000E+00  0.73592130206E+02  0.73592130206E+02  0.00000000000E+00 0. -1.
         21   -1    0    0  501  503 -0.00000000000E+00 -0.00000000000E+00 -0.20341474736E+03  0.20341474736E+03  0.00000000000E+00 0.  1.
         24    1    1    2    0    0  0.12017560924E+02  0.34667818900E+02 -0.97353614609E+02  0.13149608994E+03  0.80419002446E+02 0.  0.
          1    1    1    2  501    0  0.44267701556E+02 -0.63928926491E+02 -0.24764561111E+02  0.81607723472E+02  0.00000000000E+00 0. -1.
         -2    1    1    2    0  502 -0.56285262480E+02  0.29261107591E+02 -0.77044414298E+01  0.63903064149E+02  0.00000000000E+00 0.  1.
<mgrwt>
<rscale>  2 0.11479519E+03</rscale>
<asrwt>0</asrwt>
<pdfrwt beam="1">  1       21 0.11321866E-01 0.11479519E+03</pdfrwt>
<pdfrwt beam="2">  1       21 0.31294576E-01 0.11479519E+03</pdfrwt>
<totfact> 0.64254297E+05</totfact>
</mgrwt>
</event>
<event>
 5    1  0.1281005E-004  0.1141768E+03  0.7546771E-02  0.1253025E+00
         21   -1    0    0  501  502  0.00000000000E+00  0.00000000000E+00  0.65009767382E+02  0.65009767382E+02  0.00000000000E+00 0. -1.
         21   -1    0    0  502  503 -0.00000000000E+00 -0.00000000000E+00 -0.20563913261E+03  0.20563913261E+03  0.00000000000E+00 0. -1.
         24    1    1    2    0    0  0.41444208990E+02 -0.32138424268E+02 -0.80217970129E+02  0.12511050899E+03  0.80419002446E+02 0. -1.
          1    1    1    2  501    0 -0.78725553042E+02  0.47585814989E+02 -0.44051108838E+02  0.10199324821E+03  0.00000000000E+00 0. -1.
         -2    1    1    2    0  503  0.37281344052E+02 -0.15447390721E+02 -0.16360286258E+02  0.43545142793E+02  0.00000000000E+00 0.  1.
<mgrwt>
<rscale>  2 0.11417683E+03</rscale>
<asrwt>0</asrwt>
<pdfrwt beam="1">  1       21 0.10001503E-01 0.11417683E+03</pdfrwt>
<pdfrwt beam="2">  1       21 0.31636790E-01 0.11417683E+03</pdfrwt>
<totfact> 0.78177312E+05</totfact>
</mgrwt>
</event>
<event>
 5    1  0.1281005E-004  0.2752643E+03  0.7546771E-02  0.1098304E+00
         21   -1    0    0  503  502  0.00000000000E+00  0.00000000000E+00  0.22444374333E+03  0.22444374333E+03  0.00000000000E+00 0.  1.
         21   -1    0    0  501  503 -0.00000000000E+00 -0.00000000000E+00 -0.33940640455E+03  0.33940640455E+03  0.00000000000E+00 0. -1.
         24    1    1    2    0    0  0.98804178147E+02 -0.11418371943E+03 -0.20188084477E+02  0.17226422180E+03  0.80419002446E+02 0.  0.
          1    1    1    2  501    0 -0.18383124575E+03  0.19083423946E+03 -0.75283131488E+02  0.27546176459E+03  0.00000000000E+00 0. -1.
         -2    1    1    2    0  502  0.85027067605E+02 -0.76650520028E+02 -0.19491445256E+02  0.11612416150E+03  0.00000000000E+00 0.  1.
<mgrwt>
<rscale>  2 0.27526431E+03</rscale>
<asrwt>0</asrwt>
<pdfrwt beam="1">  1       21 0.34529807E-01 0.27526431E+03</pdfrwt>
<pdfrwt beam="2">  1       21 0.52216370E-01 0.27526431E+03</pdfrwt>
<totfact> 0.27021735E+04</totfact>
</mgrwt>
</event>
<event>
 5    1  0.1281005E-004  0.1571710E+03  0.7546771E-02  0.1191928E+00
         21   -1    0    0  503  502  0.00000000000E+00  0.00000000000E+00  0.19989258564E+03  0.19989258564E+03  0.00000000000E+00 0. -1.
         21   -1    0    0  501  503 -0.00000000000E+00 -0.00000000000E+00 -0.12519531176E+03  0.12519531176E+03  0.00000000000E+00 0.  1.
         24    1    1    2    0    0 -0.21382941623E+02  0.28779990866E+01  0.50829839082E+01  0.83418018143E+02  0.80419002446E+02 0. -1.
          1    1    1    2  501    0  0.53331126203E+02  0.10543335524E+03  0.42208686866E+02  0.12546702621E+03  0.00000000000E+00 0. -1.
         -2    1    1    2    0  502 -0.31948184580E+02 -0.10831135432E+03  0.27405603106E+02  0.11620285304E+03  0.00000000000E+00 0.  1.
<mgrwt>
<rscale>  2 0.15717103E+03</rscale>
<asrwt>0</asrwt>
<pdfrwt beam="1">  1       21 0.30752706E-01 0.15717103E+03</pdfrwt>
<pdfrwt beam="2">  1       21 0.19260817E-01 0.15717103E+03</pdfrwt>
<totfact> 0.25371182E+05</totfact>
</mgrwt>
</event>
<event>
 5    1  0.1281005E-004  0.3796495E+03  0.7546771E-02  0.1051063E+00
         21   -1    0    0  503  502  0.00000000000E+00  0.00000000000E+00  0.85205827811E+03  0.85205827811E+03  0.00000000000E+00 0.  1.
         21   -1    0    0  501  503 -0.00000000000E+00 -0.00000000000E+00 -0.18176638434E+03  0.18176638434E+03  0.00000000000E+00 0. -1.
         24    1    1    2    0    0 -0.51454345192E+02  0.10117655106E+03  0.15831133373E+03  0.21074614697E+03  0.80419002446E+02 0.  0.
          1    1    1    2  501    0  0.21109097005E+03 -0.29898928643E+03  0.18853878668E+03  0.41170482766E+03  0.00000000000E+00 0. -1.
         -2    1    1    2    0  502 -0.15963662486E+03  0.19781273537E+03  0.32344177337E+03  0.41137368782E+03  0.00000000000E+00 0.  1.
<mgrwt>
<rscale>  2 0.37964955E+03</rscale>
<asrwt>0</asrwt>
<pdfrwt beam="1">  1       21 0.13108589E+00 0.37964955E+03</pdfrwt>
<pdfrwt beam="2">  1       21 0.27964060E-01 0.37964955E+03</pdfrwt>
<totfact> 0.46343624E+03</totfact>
</mgrwt>
</event>
<event>
 5    1  0.1281005E-004  0.1142588E+03  0.7546771E-02  0.1252881E+00
         21   -1    0    0  501  502  0.00000000000E+00  0.00000000000E+00  0.14582137955E+04  0.14582137955E+04  0.00000000000E+00 0.  1.
         21   -1    0    0  502  503 -0.00000000000E+00 -0.00000000000E+00 -0.93378749000E+01  0.93378749000E+01  0.00000000000E+00 0. -1.
         24    1    1    2    0    0 -0.96653985779E+01 -0.79408801620E+01  0.42622325589E+03  0.43392390729E+03  0.80419002446E+02 0. -1.
          1    1    1    2  501    0  0.23110016538E+02 -0.67062450536E+02  0.59806646838E+03  0.60225820520E+03  0.00000000000E+00 0. -1.
         -2    1    1    2    0  503 -0.13444617960E+02  0.75003330698E+02  0.42458619635E+03  0.43136955792E+03  0.00000000000E+00 0.  1.
<mgrwt>
<rscale>  2 0.11425878E+03</rscale>
<asrwt>0</asrwt>
<pdfrwt beam="1">  1       21 0.22434040E+00 0.11425878E+03</pdfrwt>
<pdfrwt beam="2">  1       21 0.14365973E-02 0.11425878E+03</pdfrwt>
<totfact> 0.20866759E+05</totfact>
</mgrwt>
</event>
<event>
 5    1  0.1281005E-004  0.4124829E+03  0.7546771E-02  0.1039541E+00
         21   -1    0    0  503  502  0.00000000000E+00  0.00000000000E+00  0.11348673935E+04  0.11348673935E+04  0.00000000000E+00 0.  1.
         21   -1    0    0  501  503 -0.00000000000E+00 -0.00000000000E+00 -0.15167830624E+03  0.15167830624E+03  0.00000000000E+00 0.  1.
         24    1    1    2    0    0 -0.38011151890E+03  0.41496851238E+02  0.52441906958E+03  0.65397961127E+03  0.80419002446E+02 0.  1.
          1    1    1    2  501    0 -0.11647538384E+02  0.33403244737E+02  0.25151696368E+02  0.43405641794E+02  0.00000000000E+00 0. -1.
         -2    1    1    2    0  502  0.39175905729E+03 -0.74900095975E+02  0.43361832132E+03  0.58916044667E+03  0.00000000000E+00 0.  1.
<mgrwt>
<rscale>  2 0.41248287E+03</rscale>
<asrwt>0</asrwt>
<pdfrwt beam="1">  1       21 0.17459498E+00 0.41248287E+03</pdfrwt>
<pdfrwt beam="2">  1       21 0.23335125E-01 0.41248287E+03</pdfrwt>
<totfact> 0.29804540E+03</totfact>
</mgrwt>
</event>
<event>
 5    1  0.1281005E-004  0.1198118E+03  0.7546771E-02  0.1243408E+00
         21   -1    0    0  501  502  0.00000000000E+00  0.00000000000E+00  0.10538864512E+03  0.10538864512E+03  0.00000000000E+00 0. -1.
         21   -1    0    0  502  503 -0.00000000000E+00 -0.00000000000E+00 -0.13739363911E+03  0.13739363911E+03  0.00000000000E+00 0.  1.
         24    1    1    2    0    0 -0.76455646601E+02  0.79605171011E+01 -0.26108573756E+02  0.11427033433E+03  0.80419002446E+02 0.  1.
          1    1    1    2  501    0  0.10069917368E+03  0.51190197241E+01 -0.44611978333E+01  0.10092784664E+03  0.00000000000E+00 0. -1.
         -2    1    1    2    0  503 -0.24243527077E+02 -0.13079536825E+02 -0.14352224007E+01  0.27584103248E+02  0.00000000000E+00 0.  1.
<mgrwt>
<rscale>  2 0.11981182E+03</rscale>
<asrwt>0</asrwt>
<pdfrwt beam="1">  1       21 0.16213638E-01 0.11981182E+03</pdfrwt>
<pdfrwt beam="2">  1       21 0.21137483E-01 0.11981182E+03</pdfrwt>
<totfact> 0.71127660E+05</totfact>
</mgrwt>
</event>
<event>
 5    1  0.1281005E-004  0.1373028E+03  0.7546771E-02  0.1217005E+00
         21   -1    0    0  501  502  0.00000000000E+00  0.00000000000E+00  0.19247286317E+03  0.19247286317E+03  0.00000000000E+00 0. -1.
         21   -1    0    0  502  503 -0.00000000000E+00 -0.00000000000E+00 -0.13606847729E+03  0.13606847729E+03  0.00000000000E+00 0. -1.
         24    1    1    2    0    0  0.27285500002E+02  0.10650694097E+03  0.11497749346E+03  0.17825618345E+03  0.80419002446E+02 0. -1.
          1    1    1    2  501    0 -0.50739353428E+02 -0.10280304242E+03 -0.47721307891E+02  0.12417838276E+03  0.00000000000E+00 0. -1.
         -2    1    1    2    0  503  0.23453853426E+02 -0.37038985408E+01 -0.10851799684E+02  0.26106774242E+02  0.00000000000E+00 0.  1.
<mgrwt>
<rscale>  2 0.13730279E+03</rscale>
<asrwt>0</asrwt>
<pdfrwt beam="1">  1       21 0.29611210E-01 0.13730279E+03</pdfrwt>
<pdfrwt beam="2">  1       21 0.20933612E-01 0.13730279E+03</pdfrwt>
<totfact> 0.23487424E+05</totfact>
</mgrwt>
</event>
<event>
 5    1  0.1281005E-004  0.1456486E+03  0.7546771E-02  0.1205924E+00
         21   -1    0    0  501  502  0.00000000000E+00  0.00000000000E+00  0.15971397923E+03  0.15971397923E+03  0.00000000000E+00 0. -1.
         21   -1    0    0  502  503 -0.00000000000E+00 -0.00000000000E+00 -0.14046490768E+03  0.14046490768E+03  0.00000000000E+00 0.  1.
         24    1    1    2    0    0 -0.56223502008E+02  0.79089153399E+02 -0.21969635564E+02  0.12792989176E+03  0.80419002446E+02 0.  1.
          1    1    1    2  501    0 -0.44187846132E+02 -0.17860884941E+02  0.24084289357E+02  0.53400654963E+02  0.00000000000E+00 0. -1.
         -2    1    1    2    0  503  0.10041134814E+03 -0.61228268458E+02  0.17134417762E+02  0.11884834019E+03  0.00000000000E+00 0.  1.
<mgrwt>
<rscale>  2 0.14564856E+03</rscale>
<asrwt>0</asrwt>
<pdfrwt beam="1">  1       21 0.24571381E-01 0.14564856E+03</pdfrwt>
<pdfrwt beam="2">  1       21 0.21609986E-01 0.14564856E+03</pdfrwt>
<totfact> 0.31561981E+05</totfact>
</mgrwt>
</event>
<event>
 5    1  0.1281005E-004  0.1470784E+03  0.7546771E-02  0.1204110E+00
         21   -1    0    0  503  502  0.00000000000E+00  0.00000000000E+00  0.39734810679E+03  0.39734810679E+03  0.00000000000E+00 0. -1.
         21   -1    0    0  501  503 -0.00000000000E+00 -0.00000000000E+00 -0.55223719388E+02  0.55223719388E+02  0.00000000000E+00 0. -1.
         24    1    1    2    0    0  0.10140438488E+03  0.42961965170E+02  0.13559443396E+03  0.19230612627E+03  0.80419002446E+02 0. -1.
          1    1    1    2  501    0 -0.12188763133E+03 -0.55334945541E+02  0.18273786112E+03  0.22652080866E+03  0.00000000000E+00 0. -1.
         -2    1    1    2    0  502  0.20483246448E+02  0.12372980371E+02  0.23792092310E+02  0.33744891240E+02  0.00000000000E+00 0.  1.
<mgrwt>
<rscale>  2 0.14707839E+03</rscale>
<asrwt>0</asrwt>
<pdfrwt beam="1">  1       21 0.61130476E-01 0.14707839E+03</pdfrwt>
<pdfrwt beam="2">  1       21 0.84959571E-02 0.14707839E+03</pdfrwt>
<totfact> 0.27201476E+05</totfact>
</mgrwt>
</event>
<event>
 5    1  0.1281005E-004  0.1586226E+03  0.7546771E-02  0.1190261E+00
         21   -1    0    0  501  502  0.00000000000E+00  0.00000000000E+00  0.70363029429E+03  0.70363029429E+03  0.00000000000E+00 0. -1.
         21   -1    0    0  502  503 -0.00000000000E+00 -0.00000000000E+00 -0.36915591293E+02  0.36915591293E+02  0.00000000000E+00 0.  1.
         24    1    1    2    0    0  0.20981046095E+02  0.64283270841E+02  0.16454777686E+03  0.19523250249E+03  0.80419002446E+02 0.  0.
          1    1    1    2  501    0 -0.11158243560E+03 -0.36907947713E+02  0.29501382441E+03  0.31756258144E+03  0.00000000000E+00 0. -1.
         -2    1    1    2    0  503  0.90601389507E+02 -0.27375323128E+02  0.20715310172E+03  0.22775080165E+03  0.00000000000E+00 0.  1.
<mgrwt>
<rscale>  2 0.15862255E+03</rscale>
<asrwt>0</asrwt>
<pdfrwt beam="1">  1       21 0.10825080E+00 0.15862255E+03</pdfrwt>
<pdfrwt beam="2">  1       21 0.56793222E-02 0.15862255E+03</pdfrwt>
<totfact> 0.14897629E+05</totfact>
</mgrwt>
</event>
<event>
 5    1  0.1281005E-004  0.9695843E+02  0.7546771E-02  0.1286825E+00
         21   -1    0    0  501  502  0.00000000000E+00  0.00000000000E+00  0.54189414543E+03  0.54189414543E+03  0.00000000000E+00 0.  1.
         21   -1    0    0  502  503 -0.00000000000E+00 -0.00000000000E+00 -0.17475065094E+02  0.17475065094E+02  0.00000000000E+00 0. -1.
         24    1    1    2    0    0  0.28603994811E+02 -0.34712566367E+02  0.23062180471E+03  0.24834810961E+03  0.80419002446E+02 0. -1.
          1    1    1    2  501    0 -0.41002378929E+02 -0.20038032313E+02  0.12014824628E+03  0.12852361223E+03  0.00000000000E+00 0. -1.
         -2    1    1    2    0  503  0.12398384118E+02  0.54750598680E+02  0.17364902935E+03  0.18249748869E+03  0.00000000000E+00 0.  1.
<mgrwt>
<rscale>  2 0.96958429E+02</rscale>
<asrwt>0</asrwt>
<pdfrwt beam="1">  1       21 0.83368317E-01 0.96958429E+02</pdfrwt>
<pdfrwt beam="2">  1       21 0.26884720E-02 0.96958429E+02</pdfrwt>
<totfact> 0.95329387E+05</totfact>
</mgrwt>
</event>
<event>
 5    1  0.1281005E-004  0.1906514E+03  0.7546771E-02  0.1157875E+00
         21   -1    0    0  501  502  0.00000000000E+00  0.00000000000E+00  0.44480249424E+03  0.44480249424E+03  0.00000000000E+00 0. -1.
         21   -1    0    0  502  503 -0.00000000000E+00 -0.00000000000E+00 -0.98114190340E+02  0.98114190340E+02  0.00000000000E+00 0.  1.
         24    1    1    2    0    0 -0.90660234960E+01  0.11753920204E+03  0.69522285932E+02  0.15873947522E+03  0.80419002446E+02 0.  0.
          1    1    1    2  501    0  0.50424213452E+02 -0.16681251604E+03  0.26730752265E+03  0.31909611165E+03  0.00000000000E+00 0. -1.
         -2    1    1    2    0  503 -0.41358189956E+02  0.49273313992E+02  0.98584953217E+01  0.65081097703E+02  0.00000000000E+00 0.  1.
<mgrwt>
<rscale>  2 0.19065136E+03</rscale>
<asrwt>0</asrwt>
<pdfrwt beam="1">  1       21 0.68431152E-01 0.19065136E+03</pdfrwt>
<pdfrwt beam="2">  1       21 0.15094491E-01 0.19065136E+03</pdfrwt>
<totfact> 0.75601182E+04</totfact>
</mgrwt>
</event>
<event>
 5    1  0.1281005E-004  0.1327987E+03  0.7546771E-02  0.1223361E+00
         21   -1    0    0  503  502  0.00000000000E+00  0.00000000000E+00  0.11532022214E+02  0.11532022214E+02  0.00000000000E+00 0. -1.
         21   -1    0    0  501  503 -0.00000000000E+00 -0.00000000000E+00 -0.15795343221E+04  0.15795343221E+04  0.00000000000E+00 0. -1.
         24    1    1    2    0    0  0.38057184898E+02 -0.61863656166E+02 -0.76907675247E+03  0.77667350182E+03  0.80419002446E+02 0. -1.
          1    1    1    2  501    0 -0.62296017978E+02  0.96558814374E+02 -0.61697715326E+03  0.62758681163E+03  0.00000000000E+00 0. -1.
         -2    1    1    2    0  502  0.24238833080E+02 -0.34695158207E+02 -0.18194839411E+03  0.18680603083E+03  0.00000000000E+00 0.  1.
<mgrwt>
<rscale>  2 0.13279874E+03</rscale>
<asrwt>0</asrwt>
<pdfrwt beam="1">  1       21 0.17741581E-02 0.13279874E+03</pdfrwt>
<pdfrwt beam="2">  1       21 0.24300517E+00 0.13279874E+03</pdfrwt>
<totfact> 0.11415762E+05</totfact>
</mgrwt>
</event>
<event>
 5    1  0.1281005E-004  0.2941549E+03  0.7546771E-02  0.1088200E+00
         21   -1    0    0  501  502  0.00000000000E+00  0.00000000000E+00  0.41542865471E+02  0.41542865471E+02  0.00000000000E+00 0.  1.
         21   -1    0    0  502  503 -0.00000000000E+00 -0.00000000000E+00 -0.22246361822E+04  0.22246361822E+04  0.00000000000E+00 0. -1.
         24    1    1    2    0    0 -0.16281196324E+03  0.13249615939E+03 -0.57380399594E+03  0.61626391208E+03  0.80419002446E+02 0.  1.
          1    1    1    2  501    0 -0.26321137270E+02  0.76943837834E+02 -0.39139726054E+03  0.39975614067E+03  0.00000000000E+00 0. -1.
         -2    1    1    2    0  503  0.18913310051E+03 -0.20943999722E+03 -0.12178920603E+04  0.12501589950E+04  0.00000000000E+00 0.  1.
<mgrwt>
<rscale>  2 0.29415490E+03</rscale>
<asrwt>0</asrwt>
<pdfrwt beam="1">  1       21 0.63912112E-02 0.29415490E+03</pdfrwt>
<pdfrwt beam="2">  1       21 0.34225166E+00 0.29415490E+03</pdfrwt>
<totfact> 0.30899355E+03</totfact>
</mgrwt>
</event>
<event>
 5    1  0.1281005E-004  0.1276970E+03  0.7546771E-02  0.1230914E+00
         21   -1    0    0  503  502  0.00000000000E+00  0.00000000000E+00  0.24520783976E+03  0.24520783976E+03  0.00000000000E+00 0.  1.
         21   -1    0    0  501  503 -0.00000000000E+00 -0.00000000000E+00 -0.81274202906E+02  0.81274202906E+02  0.00000000000E+00 0.  1.
         24    1    1    2    0    0  0.53542523156E+02 -0.50053510002E+01  0.59971644906E+02  0.11382297427E+03  0.80419002446E+02 0.  1.
          1    1    1    2  501    0  0.47053455721E+02  0.28948816914E+02  0.93662056256E+02  0.10874117195E+03  0.00000000000E+00 0. -1.
         -2    1    1    2    0  502 -0.10059597888E+03 -0.23943465913E+02  0.10299935695E+02  0.10391789644E+03  0.00000000000E+00 0.  1.
<mgrwt>
<rscale>  2 0.12769698E+03</rscale>
<asrwt>0</asrwt>
<pdfrwt beam="1">  1       21 0.37724283E-01 0.12769698E+03</pdfrwt>
<pdfrwt beam="2">  1       21 0.12503724E-01 0.12769698E+03</pdfrwt>
<totfact> 0.37365187E+05</totfact>
</mgrwt>
</event>
<event>
 5    1  0.1281005E-004  0.1982966E+03  0.7546771E-02  0.1151184E+00
         21   -1    0    0  501  502  0.00000000000E+00  0.00000000000E+00  0.31994503323E+03  0.31994503323E+03  0.00000000000E+00 0.  1.
         21   -1    0    0  502  503 -0.00000000000E+00 -0.00000000000E+00 -0.14405591887E+03  0.14405591887E+03  0.00000000000E+00 0.  1.
         24    1    1    2    0    0 -0.53066899166E+01  0.13922033168E+03 -0.13700229133E+02  0.16144774369E+03  0.80419002446E+02 0.  1.
          1    1    1    2  501    0 -0.15006903345E+02  0.46519655043E+02  0.36650073018E+02  0.61094298470E+02  0.00000000000E+00 0. -1.
         -2    1    1    2    0  503  0.20313593261E+02 -0.18573998672E+03  0.15293927047E+03  0.24145890994E+03  0.00000000000E+00 0.  1.
<mgrwt>
<rscale>  2 0.19829661E+03</rscale>
<asrwt>0</asrwt>
<pdfrwt beam="1">  1       21 0.49222313E-01 0.19829661E+03</pdfrwt>
<pdfrwt beam="2">  1       21 0.22162449E-01 0.19829661E+03</pdfrwt>
<totfact> 0.74762067E+04</totfact>
</mgrwt>
</event>
<event>
 5    1  0.1281005E-004  0.1152443E+03  0.7546771E-02  0.1251155E+00
         21   -1    0    0  501  502  0.00000000000E+00  0.00000000000E+00  0.29881335646E+02  0.29881335646E+02  0.00000000000E+00 0.  1.
         21   -1    0    0  502  503 -0.00000000000E+00 -0.00000000000E+00 -0.48462877393E+03  0.48462877393E+03  0.00000000000E+00 0. -1.
         24    1    1    2    0    0 -0.92603155678E+01 -0.94146838920E+01 -0.11866942714E+03  0.14395846140E+03  0.80419002446E+02 0.  1.
          1    1    1    2  501    0  0.18428342202E+02  0.77821737904E+02 -0.23434938515E+03  0.24761958931E+03  0.00000000000E+00 0. -1.
         -2    1    1    2    0  503 -0.91680266338E+01 -0.68407054012E+02 -0.10172862599E+03  0.12293205886E+03  0.00000000000E+00 0.  1.
<mgrwt>
<rscale>  2 0.11524432E+03</rscale>
<asrwt>0</asrwt>
<pdfrwt beam="1">  1       21 0.45971288E-02 0.11524432E+03</pdfrwt>
<pdfrwt beam="2">  1       21 0.74558269E-01 0.11524432E+03</pdfrwt>
<totfact> 0.50527656E+05</totfact>
</mgrwt>
</event>
<event>
 5    1  0.1281005E-004  0.1868162E+03  0.7546771E-02  0.1161365E+00
         21   -1    0    0  501  502  0.00000000000E+00  0.00000000000E+00  0.41766302006E+02  0.41766302006E+02  0.00000000000E+00 0. -1.
         21   -1    0    0  502  503 -0.00000000000E+00 -0.00000000000E+00 -0.84960119073E+03  0.84960119073E+03  0.00000000000E+00 0. -1.
         24    1    1    2    0    0  0.10981223838E+03  0.86243169725E+02 -0.31047253849E+03  0.34979569056E+03  0.80419002446E+02 0. -1.
          1    1    1    2  501    0 -0.15173270448E+03 -0.74074134121E+02 -0.42126725992E+03  0.45384567337E+03  0.00000000000E+00 0. -1.
         -2    1    1    2    0  503  0.41920466105E+02 -0.12169035603E+02 -0.76095090315E+02  0.87726128810E+02  0.00000000000E+00 0.  1.
<mgrwt>
<rscale>  2 0.18681619E+03</rscale>
<asrwt>0</asrwt>
<pdfrwt beam="1">  1       21 0.64255853E-02 0.18681619E+03</pdfrwt>
<pdfrwt beam="2">  1       21 0.13070787E+00 0.18681619E+03</pdfrwt>
<totfact> 0.74956588E+04</totfact>
</mgrwt>
</event>
<event>
 5    1  0.1281005E-004  0.1236584E+03  0.7546771E-02  0.1237181E+00
         21   -1    0    0  501  502  0.00000000000E+00  0.00000000000E+00  0.64667439897E+03  0.64667439897E+03  0.00000000000E+00 0.  1.
         21   -1    0    0  502  503 -0.00000000000E+00 -0.00000000000E+00 -0.26521390442E+02  0.26521390442E+02  0.00000000000E+00 0. -1.
         24    1    1    2    0    0  0.14431031006E+02  0.72266672104E+02  0.17796063931E+03  0.20872932628E+03  0.80419002446E+02 0.  0.
          1    1    1    2  501    0  0.14896369377E+02  0.29112973452E+02  0.64645189069E+02  0.72446307798E+02  0.00000000000E+00 0. -1.
         -2    1    1    2    0  503 -0.29327400383E+02 -0.10137964556E+03  0.37754718015E+03  0.39202015533E+03  0.00000000000E+00 0.  1.
<mgrwt>
<rscale>  2 0.12365839E+03</rscale>
<asrwt>0</asrwt>
<pdfrwt beam="1">  1       21 0.99488357E-01 0.12365839E+03</pdfrwt>
<pdfrwt beam="2">  1       21 0.40802144E-02 0.12365839E+03</pdfrwt>
<totfact> 0.32042705E+05</totfact>
</mgrwt>
</event>
<event>
 5    1  0.1281005E-004  0.1241578E+03  0.7546771E-02  0.1236391E+00
         21   -1    0    0  501  502  0.00000000000E+00  0.00000000000E+00  0.28461750670E+03  0.28461750670E+03  0.00000000000E+00 0.  1.
         21   -1    0    0  502  503 -0.00000000000E+00 -0.00000000000E+00 -0.54842217827E+02  0.54842217827E+02  0.00000000000E+00 0.  1.
         24    1    1    2    0    0  0.67468007973E+02 -0.59492323980E+02  0.92940420477E+02  0.15230366517E+03  0.80419002446E+02 0.  1.
          1    1    1    2  501    0 -0.14697996297E+02 -0.24437071214E+02  0.32231038386E+02  0.43035350354E+02  0.00000000000E+00 0. -1.
         -2    1    1    2    0  503 -0.52770011676E+02  0.83929395194E+02  0.10460383001E+03  0.14412070900E+03  0.00000000000E+00 0.  1.
<mgrwt>
<rscale>  2 0.12415781E+03</rscale>
<asrwt>0</asrwt>
<pdfrwt beam="1">  1       21 0.43787308E-01 0.12415781E+03</pdfrwt>
<pdfrwt beam="2">  1       21 0.84372645E-02 0.12415781E+03</pdfrwt>
<totfact> 0.55241353E+05</totfact>
</mgrwt>
</event>
<event>
 5    1  0.1281005E-004  0.2554955E+03  0.7546771E-02  0.1109880E+00
         21   -1    0    0  501  502  0.00000000000E+00  0.00000000000E+00  0.27201125852E+03  0.27201125852E+03  0.00000000000E+00 0. -1.
         21   -1    0    0  502  503 -0.00000000000E+00 -0.00000000000E+00 -0.24104018824E+03  0.24104018824E+03  0.00000000000E+00 0.  1.
         24    1    1    2    0    0 -0.14107406995E+03  0.11130415493E+03  0.15486548855E+02  0.19747799185E+03  0.80419002446E+02 0. -1.
          1    1    1    2  501    0 -0.68423026768E+02  0.14237089554E+02  0.14306827970E+02  0.71337862581E+02  0.00000000000E+00 0. -1.
         -2    1    1    2    0  503  0.20949709672E+03 -0.12554124448E+03  0.11776934519E+01  0.24423559233E+03  0.00000000000E+00 0.  1.
<mgrwt>
<rscale>  2 0.25549554E+03</rscale>
<asrwt>0</asrwt>
<pdfrwt beam="1">  1       21 0.41847886E-01 0.25549554E+03</pdfrwt>
<pdfrwt beam="2">  1       21 0.37083106E-01 0.25549554E+03</pdfrwt>
<totfact> 0.37428174E+04</totfact>
</mgrwt>
</event>
<event>
 5    1  0.1281005E-004  0.1091004E+03  0.7546771E-02  0.1262245E+00
         21   -1    0    0  503  502  0.00000000000E+00  0.00000000000E+00  0.34037951269E+02  0.34037951269E+02  0.00000000000E+00 0. -1.
         21   -1    0    0  501  503 -0.00000000000E+00 -0.00000000000E+00 -0.35646050817E+03  0.35646050817E+03  0.00000000000E+00 0. -1.
         24    1    1    2    0    0 -0.50619937406E+02  0.75431148491E+01 -0.13244957575E+03  0.16318511793E+03  0.80419002446E+02 0. -1.
          1    1    1    2  501    0  0.81369737313E+02  0.17488243130E+02 -0.14637464292E+03  0.16838173561E+03  0.00000000000E+00 0. -1.
         -2    1    1    2    0  502 -0.30749799906E+02 -0.25031357979E+02 -0.43598338237E+02  0.58931605897E+02  0.00000000000E+00 0.  1.
<mgrwt>
<rscale>  2 0.10910044E+03</rscale>
<asrwt>0</asrwt>
<pdfrwt beam="1">  1       21 0.52366077E-02 0.10910044E+03</pdfrwt>
<pdfrwt beam="2">  1       21 0.54840080E-01 0.10910044E+03</pdfrwt>
<totfact> 0.78404512E+05</totfact>
</mgrwt>
</event>
<event>
 5    1  0.1281005E-004  0.1472389E+03  0.7546771E-02  0.1203907E+00
         21   -1    0    0  501  502  0.00000000000E+00  0.00000000000E+00  0.67196105427E+02  0.67196105427E+02  0.00000000000E+00 0. -1.
         21   -1    0    0  502  503 -0.00000000000E+00 -0.00000000000E+00 -0.32430453891E+03  0.32430453891E+03  0.00000000000E+00 0. -1.
         24    1    1    2    0    0 -0.15647748865E+02 -0.10354054417E+03 -0.10146228480E+03  0.16651518706E+03  0.80419002446E+02 0. -1.
          1    1    1    2  501    0  0.16916123210E+02  0.13244078227E+03 -0.12680583579E+03  0.18413700340E+03  0.00000000000E+00 0. -1.
         -2    1    1    2    0  503 -0.12683743454E+01 -0.28900238095E+02 -0.28840312898E+02  0.40848453869E+02  0.00000000000E+00 0.  1.
<mgrwt>
<rscale>  2 0.14723889E+03</rscale>
<asrwt>0</asrwt>
<pdfrwt beam="1">  1       21 0.10337863E-01 0.14723889E+03</pdfrwt>
<pdfrwt beam="2">  1       21 0.49893005E-01 0.14723889E+03</pdfrwt>
<totfact> 0.29591304E+05</totfact>
</mgrwt>
</event>
<event>
 5    1  0.1281005E-004  0.1087145E+03  0.7546771E-02  0.1262969E+00
         21   -1    0    0  503  502  0.00000000000E+00  0.00000000000E+00  0.13788665637E+02  0.13788665637E+02  0.00000000000E+00 0. -1.
         21   -1    0    0  501  503 -0.00000000000E+00 -0.00000000000E+00 -0.94167114794E+03  0.94167114794E+03  0.00000000000E+00 0.  1.
         24    1    1    2    0    0 -0.39852794174E+02 -0.12321648094E+01 -0.24934878200E+03  0.26501281945E+03  0.80419002446E+02 0. -1.
          1    1    1    2  501    0  0.73803342355E+02 -0.31742461928E+02 -0.41873208538E+03  0.42636964780E+03  0.00000000000E+00 0. -1.
         -2    1    1    2    0  502 -0.33950548182E+02  0.32974626738E+02 -0.25980161491E+03  0.26407734632E+03  0.00000000000E+00 0.  1.
<mgrwt>
<rscale>  2 0.10871448E+03</rscale>
<asrwt>0</asrwt>
<pdfrwt beam="1">  1       21 0.21213328E-02 0.10871448E+03</pdfrwt>
<pdfrwt beam="2">  1       21 0.14487251E+00 0.10871448E+03</pdfrwt>
<totfact> 0.37552822E+05</totfact>
</mgrwt>
</event>
<event>
 5    1  0.1281005E-004  0.2663690E+03  0.7546771E-02  0.1103376E+00
         21   -1    0    0  503  502  0.00000000000E+00  0.00000000000E+00  0.58959723580E+03  0.58959723580E+03  0.00000000000E+00 0.  1.
         21   -1    0    0  501  503 -0.00000000000E+00 -0.00000000000E+00 -0.14899673922E+03  0.14899673922E+03  0.00000000000E+00 0. -1.
         24    1    1    2    0    0  0.28495931547E+02 -0.53813417839E+02  0.54883403650E+02  0.11483599612E+03  0.80419002446E+02 0.  1.
          1    1    1    2  501    0  0.19514299113E+03 -0.20468410204E+02  0.32111483453E+02  0.19882376662E+03  0.00000000000E+00 0. -1.
         -2    1    1    2    0  502 -0.22363892267E+03  0.74281828042E+02  0.35360560948E+03  0.42493421228E+03  0.00000000000E+00 0.  1.
<mgrwt>
<rscale>  2 0.26636896E+03</rscale>
<asrwt>0</asrwt>
<pdfrwt beam="1">  1       21 0.90707266E-01 0.26636896E+03</pdfrwt>
<pdfrwt beam="2">  1       21 0.22922575E-01 0.26636896E+03</pdfrwt>
<totfact> 0.17693830E+04</totfact>
</mgrwt>
</event>
<event>
 5    1  0.1281005E-004  0.2762977E+03  0.7546771E-02  0.1097728E+00
         21   -1    0    0  503  502  0.00000000000E+00  0.00000000000E+00  0.30187778806E+03  0.30187778806E+03  0.00000000000E+00 0.  1.
         21   -1    0    0  501  503 -0.00000000000E+00 -0.00000000000E+00 -0.25516067983E+03  0.25516067983E+03  0.00000000000E+00 0. -1.
         24    1    1    2    0    0  0.62448633202E+02 -0.17530764886E+03  0.42129516186E+01  0.20277467409E+03  0.80419002446E+02 0. -1.
          1    1    1    2  501    0 -0.70052195453E+02 -0.73154371698E+02 -0.40349381259E+01  0.10136642892E+03  0.00000000000E+00 0. -1.
         -2    1    1    2    0  502  0.76035622509E+01  0.24846202056E+03  0.46539094743E+02  0.25289736487E+03  0.00000000000E+00 0.  1.
<mgrwt>
<rscale>  2 0.27629767E+03</rscale>
<asrwt>0</asrwt>
<pdfrwt beam="1">  1       21 0.46442737E-01 0.27629767E+03</pdfrwt>
<pdfrwt beam="2">  1       21 0.39255489E-01 0.27629767E+03</pdfrwt>
<totfact> 0.26675241E+04</totfact>
</mgrwt>
</event>
<event>
 5    1  0.1281005E-004  0.1322049E+03  0.7546771E-02  0.1224220E+00
         21   -1    0    0  501  502  0.00000000000E+00  0.00000000000E+00  0.39022268626E+02  0.39022268626E+02  0.00000000000E+00 0. -1.
         21   -1    0    0  502  503 -0.00000000000E+00 -0.00000000000E+00 -0.51752080675E+03  0.51752080675E+03  0.00000000000E+00 0.  1.
         24    1    1    2    0    0  0.21906526066E+02  0.34759021905E+02 -0.10509940198E+03  0.13856834321E+03  0.80419002446E+02 0. -1.
          1    1    1    2  501    0  0.71583789396E+02  0.65706903170E+01 -0.81380723221E+02  0.10858284850E+03  0.00000000000E+00 0. -1.
         -2    1    1    2    0  503 -0.93490315462E+02 -0.41329712222E+02 -0.29201841292E+03  0.30939188368E+03  0.00000000000E+00 0.  1.
<mgrwt>
<rscale>  2 0.13220487E+03</rscale>
<asrwt>0</asrwt>
<pdfrwt beam="1">  1       21 0.60034262E-02 0.13220487E+03</pdfrwt>
<pdfrwt beam="2">  1       21 0.79618582E-01 0.13220487E+03</pdfrwt>
<totfact> 0.27805421E+05</totfact>
</mgrwt>
</event>
<event>
 5    1  0.1281005E-004  0.1930373E+03  0.7546771E-02  0.1155750E+00
         21   -1    0    0  501  502  0.00000000000E+00  0.00000000000E+00  0.50346550813E+02  0.50346550813E+02  0.00000000000E+00 0. -1.
         21   -1    0    0  502  503 -0.00000000000E+00 -0.00000000000E+00 -0.74520419829E+03  0.74520419829E+03  0.00000000000E+00 0.  1.
         24    1    1    2    0    0 -0.15153667910E+03  0.45840714804E+02 -0.29014619539E+03  0.34017167269E+03  0.80419002446E+02 0.  1.
          1    1    1    2  501    0  0.16570604761E+03 -0.55569625902E+01 -0.33058386739E+03  0.36983113366E+03  0.00000000000E+00 0. -1.
         -2    1    1    2    0  503 -0.14169368507E+02 -0.40283752214E+02 -0.74127584701E+02  0.85547942757E+02  0.00000000000E+00 0.  1.
<mgrwt>
<rscale>  2 0.19303732E+03</rscale>
<asrwt>0</asrwt>
<pdfrwt beam="1">  1       21 0.77456234E-02 0.19303732E+03</pdfrwt>
<pdfrwt beam="2">  1       21 0.11464680E+00 0.19303732E+03</pdfrwt>
<totfact> 0.74970368E+04</totfact>
</mgrwt>
</event>
<event>
 5    1  0.1281005E-004  0.1923787E+03  0.7546771E-02  0.1156333E+00
         21   -1    0    0  503  502  0.00000000000E+00  0.00000000000E+00  0.71869002255E+02  0.71869002255E+02  0.00000000000E+00 0.  1.
         21   -1    0    0  501  503 -0.00000000000E+00 -0.00000000000E+00 -0.67622299351E+03  0.67622299351E+03  0.00000000000E+00 0.  1.
         24    1    1    2    0    0 -0.23288775797E+02  0.12693511044E+03 -0.78049867128E+02  0.17092070399E+03  0.80419002446E+02 0.  1.
          1    1    1    2  501    0 -0.15884261682E+02  0.49489736866E+02 -0.16822662266E+03  0.17607311094E+03  0.00000000000E+00 0. -1.
         -2    1    1    2    0  502  0.39173037478E+02 -0.17642484730E+03 -0.35807750147E+03  0.40109818084E+03  0.00000000000E+00 0.  1.
<mgrwt>
<rscale>  2 0.19237870E+03</rscale>
<asrwt>0</asrwt>
<pdfrwt beam="1">  1       21 0.11056770E-01 0.19237870E+03</pdfrwt>
<pdfrwt beam="2">  1       21 0.10403430E+00 0.19237870E+03</pdfrwt>
<totfact> 0.50736537E+04</totfact>
</mgrwt>
</event>
<event>
 5    1  0.1281005E-004  0.1591993E+03  0.7546771E-02  0.1189604E+00
         21   -1    0    0  501  502  0.00000000000E+00  0.00000000000E+00  0.30969287485E+03  0.30969287485E+03  0.00000000000E+00 0.  1.
         21   -1    0    0  502  503 -0.00000000000E+00 -0.00000000000E+00 -0.99003989165E+02  0.99003989165E+02  0.00000000000E+00 0. -1.
         24    1    1    2    0    0  0.54691563704E+02  0.34630372427E+02  0.47252475511E+02  0.11353608339E+03  0.80419002446E+02 0.  0.
          1    1    1    2  501    0  0.71710150025E+02  0.24277529400E+02  0.13205694731E+03  0.15221951709E+03  0.00000000000E+00 0. -1.
         -2    1    1    2    0  503 -0.12640171373E+03 -0.58907901828E+02  0.31379462862E+02  0.14294126353E+03  0.00000000000E+00 0.  1.
<mgrwt>
<rscale>  2 0.15919929E+03</rscale>
<asrwt>0</asrwt>
<pdfrwt beam="1">  1       21 0.47645057E-01 0.15919929E+03</pdfrwt>
<pdfrwt beam="2">  1       21 0.15231383E-01 0.15919929E+03</pdfrwt>
<totfact> 0.16246469E+05</totfact>
</mgrwt>
</event>
<event>
 5    1  0.1281005E-004  0.2072378E+03  0.7546771E-02  0.1143772E+00
         21   -1    0    0  503  502  0.00000000000E+00  0.00000000000E+00  0.37046735143E+02  0.37046735143E+02  0.00000000000E+00 0.  1.
         21   -1    0    0  501  503 -0.00000000000E+00 -0.00000000000E+00 -0.12335804546E+04  0.12335804546E+04  0.00000000000E+00 0.  1.
         24    1    1    2    0    0  0.39935263564E+02  0.10425116266E+03 -0.51395617708E+03  0.53205384888E+03  0.80419002446E+02 0.  1.
          1    1    1    2  501    0  0.73366991284E+02  0.47577344585E+02 -0.15430591942E+03  0.17736018690E+03  0.00000000000E+00 0. -1.
         -2    1    1    2    0  502 -0.11330225485E+03 -0.15182850725E+03 -0.52827162297E+03  0.56121315398E+03  0.00000000000E+00 0.  1.
<mgrwt>
<rscale>  2 0.20723777E+03</rscale>
<asrwt>0</asrwt>
<pdfrwt beam="1">  1       21 0.56994973E-02 0.20723777E+03</pdfrwt>
<pdfrwt beam="2">  1       21 0.18978162E+00 0.20723777E+03</pdfrwt>
<totfact> 0.33358451E+04</totfact>
</mgrwt>
</event>
<event>
 5    1  0.1281005E-004  0.2554220E+03  0.7546771E-02  0.1109925E+00
         21   -1    0    0  503  502  0.00000000000E+00  0.00000000000E+00  0.22081141720E+03  0.22081141720E+03  0.00000000000E+00 0.  1.
         21   -1    0    0  501  503 -0.00000000000E+00 -0.00000000000E+00 -0.30110785242E+03  0.30110785242E+03  0.00000000000E+00 0.  1.
         24    1    1    2    0    0  0.13526835459E+03 -0.15187825952E+03 -0.67372627925E+02  0.22884671817E+03  0.80419002446E+02 0.  1.
          1    1    1    2  501    0  0.23436622065E+02 -0.38014750925E+02 -0.90240226055E+01  0.45561272213E+02  0.00000000000E+00 0. -1.
         -2    1    1    2    0  502 -0.15870497666E+03  0.18989301044E+03 -0.38997846926E+01  0.24751127924E+03  0.00000000000E+00 0.  1.
<mgrwt>
<rscale>  2 0.25542197E+03</rscale>
<asrwt>0</asrwt>
<pdfrwt beam="1">  1       21 0.33970987E-01 0.25542197E+03</pdfrwt>
<pdfrwt beam="2">  1       21 0.46324285E-01 0.25542197E+03</pdfrwt>
<totfact> 0.36176657E+04</totfact>
</mgrwt>
</event>
<event>
 5    1  0.1281005E-004  0.6852370E+03  0.7546771E-02  0.9742817E-01
         21   -1    0    0  501  502  0.00000000000E+00  0.00000000000E+00  0.25193037732E+03  0.25193037732E+03  0.00000000000E+00 0. -1.
         21   -1    0    0  502  503 -0.00000000000E+00 -0.00000000000E+00 -0.27055356103E+04  0.27055356103E+04  0.00000000000E+00 0.  1.
         24    1    1    2    0    0  0.10472438733E+03  0.18954091915E+03 -0.12079946418E+03  0.26067735581E+03  0.80419002446E+02 0. -1.
          1    1    1    2  501    0 -0.26671093900E+03 -0.62248699530E+03 -0.60462337885E+03  0.90785142758E+03  0.00000000000E+00 0. -1.
         -2    1    1    2    0  503  0.16198655166E+03  0.43294607615E+03 -0.17281823899E+04  0.17889372042E+04  0.00000000000E+00 0.  1.
<mgrwt>
<rscale>  2 0.68523704E+03</rscale>
<asrwt>0</asrwt>
<pdfrwt beam="1">  1       21 0.38758520E-01 0.68523704E+03</pdfrwt>
<pdfrwt beam="2">  1       21 0.41623624E+00 0.68523704E+03</pdfrwt>
<totfact> 0.28256271E+01</totfact>
</mgrwt>
</event>
<event>
 5    1  0.1532949E-004  0.3443104E+03  0.7546771E-02  0.1064975E+00
         21   -1    0    0  501  502  0.00000000000E+00  0.00000000000E+00  0.25979779406E+03  0.25979779406E+03  0.00000000000E+00 0. -1.
         21   -1    0    0  502  503 -0.00000000000E+00 -0.00000000000E+00 -0.54106966855E+03  0.54106966855E+03  0.00000000000E+00 0.  1.
         24    1    1    2    0    0 -0.44046209990E+01  0.37454298373E+02 -0.15526647373E+03  0.17887738530E+03  0.80419002446E+02 0.  1.
          1    1    1    2  501    0 -0.12949059637E+03 -0.28797048654E+03 -0.12180773970E+02  0.31597972549E+03  0.00000000000E+00 0. -1.
         -2    1    1    2    0  503  0.13389521737E+03  0.25051618816E+03 -0.11382462679E+03  0.30601035183E+03  0.00000000000E+00 0.  1.
<mgrwt>
<rscale>  2 0.34431035E+03</rscale>
<asrwt>0</asrwt>
<pdfrwt beam="1">  1       21 0.39968891E-01 0.34431035E+03</pdfrwt>
<pdfrwt beam="2">  1       21 0.83241488E-01 0.34431035E+03</pdfrwt>
<totfact> 0.69684527E+03</totfact>
</mgrwt>
</event>
<event>
 5    1  0.1281005E-004  0.2061214E+03  0.7546771E-02  0.1144675E+00
         21   -1    0    0  501  502  0.00000000000E+00  0.00000000000E+00  0.22106866119E+03  0.22106866119E+03  0.00000000000E+00 0. -1.
         21   -1    0    0  502  503 -0.00000000000E+00 -0.00000000000E+00 -0.21360651227E+03  0.21360651227E+03  0.00000000000E+00 0. -1.
         24    1    1    2    0    0 -0.65447736313E+02  0.12633214751E+03 -0.59828627459E+02  0.17403993307E+03  0.80419002446E+02 0. -1.
          1    1    1    2  501    0  0.78657507061E+02 -0.17846444278E+03  0.35720797690E+02  0.19827389173E+03  0.00000000000E+00 0. -1.
         -2    1    1    2    0  503 -0.13209770748E+02  0.52132295266E+02  0.31569978691E+02  0.62361348667E+02  0.00000000000E+00 0.  1.
<mgrwt>
<rscale>  2 0.20612139E+03</rscale>
<asrwt>0</asrwt>
<pdfrwt beam="1">  1       21 0.34010563E-01 0.20612139E+03</pdfrwt>
<pdfrwt beam="2">  1       21 0.32862540E-01 0.20612139E+03</pdfrwt>
<totfact> 0.73808727E+04</totfact>
</mgrwt>
</event>
<event>
 5    1  0.1281005E-004  0.3202764E+03  0.7546771E-02  0.1075522E+00
         21   -1    0    0  501  502  0.00000000000E+00  0.00000000000E+00  0.28163598082E+03  0.28163598082E+03  0.00000000000E+00 0. -1.
         21   -1    0    0  502  503 -0.00000000000E+00 -0.00000000000E+00 -0.37264524564E+03  0.37264524564E+03  0.00000000000E+00 0.  1.
         24    1    1    2    0    0 -0.92068925431E+02  0.11113704866E+03  0.18451688911E+02  0.16624022195E+03  0.80419002446E+02 0. -1.
          1    1    1    2  501    0 -0.17356326466E+03  0.27463179432E+02 -0.32580938579E+02  0.17871751628E+03  0.00000000000E+00 0. -1.
         -2    1    1    2    0  503  0.26563219010E+03 -0.13860022809E+03 -0.76880015154E+02  0.30932348823E+03  0.00000000000E+00 0.  1.
<mgrwt>
<rscale>  2 0.32027643E+03</rscale>
<asrwt>0</asrwt>
<pdfrwt beam="1">  1       21 0.43328613E-01 0.32027643E+03</pdfrwt>
<pdfrwt beam="2">  1       21 0.57330038E-01 0.32027643E+03</pdfrwt>
<totfact> 0.13702193E+04</totfact>
</mgrwt>
</event>
<event>
 5    1  0.1281005E-004  0.1385546E+03  0.7546771E-02  0.1215287E+00
         21   -1    0    0  501  502  0.00000000000E+00  0.00000000000E+00  0.12909952842E+03  0.12909952842E+03  0.00000000000E+00 0.  1.
         21   -1    0    0  502  503 -0.00000000000E+00 -0.00000000000E+00 -0.15024388636E+03  0.15024388636E+03  0.00000000000E+00 0. -1.
         24    1    1    2    0    0 -0.10108250056E+02  0.29879062049E+02 -0.19598562353E+02  0.88579087085E+02  0.80419002446E+02 0. -1.
          1    1    1    2  501    0 -0.56758354799E+02  0.57435296026E+02 -0.23954812816E+01  0.80784047928E+02  0.00000000000E+00 0. -1.
         -2    1    1    2    0  503  0.66866604855E+02 -0.87314358074E+02  0.84968569112E+00  0.10998027976E+03  0.00000000000E+00 0.  1.
<mgrwt>
<rscale>  2 0.13855463E+03</rscale>
<asrwt>0</asrwt>
<pdfrwt beam="1">  1       21 0.19861466E-01 0.13855463E+03</pdfrwt>
<pdfrwt beam="2">  1       21 0.23114444E-01 0.13855463E+03</pdfrwt>
<totfact> 0.41476941E+05</totfact>
</mgrwt>
</event>
<event>
 5    1  0.1281005E-004  0.1087948E+03  0.7546771E-02  0.1262818E+00
         21   -1    0    0  501  502  0.00000000000E+00  0.00000000000E+00  0.10226503447E+04  0.10226503447E+04  0.00000000000E+00 0.  1.
         21   -1    0    0  502  503 -0.00000000000E+00 -0.00000000000E+00 -0.11770878068E+02  0.11770878068E+02  0.00000000000E+00 0. -1.
         24    1    1    2    0    0 -0.41526120992E+02  0.72827226643E+01  0.45088295430E+03  0.45993489887E+03  0.80419002446E+02 0.  1.
          1    1    1    2  501    0  0.82854456975E+02  0.67866081961E+01  0.40585273853E+03  0.41427933145E+03  0.00000000000E+00 0. -1.
         -2    1    1    2    0  503 -0.41328335983E+02 -0.14069330860E+02  0.15414377382E+03  0.16020699246E+03  0.00000000000E+00 0.  1.
<mgrwt>
<rscale>  2 0.10879481E+03</rscale>
<asrwt>0</asrwt>
<pdfrwt beam="1">  1       21 0.15733075E+00 0.10879481E+03</pdfrwt>
<pdfrwt beam="2">  1       21 0.18109051E-02 0.10879481E+03</pdfrwt>
<totfact> 0.39141880E+05</totfact>
</mgrwt>
</event>
<event>
 5    1  0.1281005E-004  0.1489003E+03  0.7546771E-02  0.1201831E+00
         21   -1    0    0  503  502  0.00000000000E+00  0.00000000000E+00  0.65775604153E+02  0.65775604153E+02  0.00000000000E+00 0. -1.
         21   -1    0    0  501  503 -0.00000000000E+00 -0.00000000000E+00 -0.34494887087E+03  0.34494887087E+03  0.00000000000E+00 0.  1.
         24    1    1    2    0    0  0.82412066527E+02  0.75016678472E+02 -0.98214011993E+02  0.16891553766E+03  0.80419002446E+02 0. -1.
          1    1    1    2  501    0 -0.77348865373E+01 -0.84715807233E+02 -0.97820722132E+02  0.12963599093E+03  0.00000000000E+00 0. -1.
         -2    1    1    2    0  502 -0.74677179990E+02  0.96991287604E+01 -0.83138532594E+02  0.11217294644E+03  0.00000000000E+00 0.  1.
<mgrwt>
<rscale>  2 0.14890032E+03</rscale>
<asrwt>0</asrwt>
<pdfrwt beam="1">  1       21 0.10119324E-01 0.14890032E+03</pdfrwt>
<pdfrwt beam="2">  1       21 0.53069056E-01 0.14890032E+03</pdfrwt>
<totfact> 0.27014707E+05</totfact>
</mgrwt>
</event>
<event>
 5    1  0.1281005E-004  0.1245980E+03  0.7546771E-02  0.1235699E+00
         21   -1    0    0  501  502  0.00000000000E+00  0.00000000000E+00  0.16997218797E+03  0.16997218797E+03  0.00000000000E+00 0.  1.
         21   -1    0    0  502  503 -0.00000000000E+00 -0.00000000000E+00 -0.97514898814E+02  0.97514898814E+02  0.00000000000E+00 0. -1.
         24    1    1    2    0    0 -0.13958354396E+02 -0.13773799627E+02  0.45989724884E+02  0.94693315302E+02  0.80419002446E+02 0.  1.
          1    1    1    2  501    0 -0.57141354630E+02 -0.46139065895E+02  0.30973587241E+02  0.79707659087E+02  0.00000000000E+00 0. -1.
         -2    1    1    2    0  503  0.71099709025E+02  0.59912865522E+02 -0.45060229642E+01  0.93086112399E+02  0.00000000000E+00 0.  1.
<mgrwt>
<rscale>  2 0.12459795E+03</rscale>
<asrwt>0</asrwt>
<pdfrwt beam="1">  1       21 0.26149567E-01 0.12459795E+03</pdfrwt>
<pdfrwt beam="2">  1       21 0.15002292E-01 0.12459795E+03</pdfrwt>
<totfact> 0.54902090E+05</totfact>
</mgrwt>
</event>
<event>
 5    1  0.1281005E-004  0.2064895E+03  0.7546771E-02  0.1144376E+00
         21   -1    0    0  501  502  0.00000000000E+00  0.00000000000E+00  0.12608467679E+03  0.12608467679E+03  0.00000000000E+00 0. -1.
         21   -1    0    0  502  503 -0.00000000000E+00 -0.00000000000E+00 -0.34425745301E+03  0.34425745301E+03  0.00000000000E+00 0.  1.
         24    1    1    2    0    0 -0.79343906650E+02 -0.17908031083E+02 -0.73861931131E+02  0.13615782726E+03  0.80419002446E+02 0. -1.
          1    1    1    2  501    0  0.16317215017E+03  0.91476104414E+02 -0.67981276544E+02  0.19903387206E+03  0.00000000000E+00 0. -1.
         -2    1    1    2    0  503 -0.83828243516E+02 -0.73568073331E+02 -0.76329568538E+02  0.13515043048E+03  0.00000000000E+00 0.  1.
<mgrwt>
<rscale>  2 0.20648951E+03</rscale>
<asrwt>0</asrwt>
<pdfrwt beam="1">  1       21 0.19397642E-01 0.20648951E+03</pdfrwt>
<pdfrwt beam="2">  1       21 0.52962685E-01 0.20648951E+03</pdfrwt>
<totfact> 0.82056153E+04</totfact>
</mgrwt>
</event>
<event>
 5    1  0.1281005E-004  0.2059053E+03  0.7546771E-02  0.1144850E+00
         21   -1    0    0  503  502  0.00000000000E+00  0.00000000000E+00  0.13137593955E+03  0.13137593955E+03  0.00000000000E+00 0. -1.
         21   -1    0    0  501  503 -0.00000000000E+00 -0.00000000000E+00 -0.33263110529E+03  0.33263110529E+03  0.00000000000E+00 0.  1.
         24    1    1    2    0    0  0.40117332062E+02 -0.85168823666E+02 -0.25625752093E+02  0.12643980378E+03  0.80419002446E+02 0. -1.
          1    1    1    2  501    0  0.11745441266E+03  0.39962085226E+02 -0.83130249276E+02  0.14934237728E+03  0.00000000000E+00 0. -1.
         -2    1    1    2    0  502 -0.15757174472E+03  0.45206738440E+02 -0.92499164364E+02  0.18822486377E+03  0.00000000000E+00 0.  1.
<mgrwt>
<rscale>  2 0.20590533E+03</rscale>
<asrwt>0</asrwt>
<pdfrwt beam="1">  1       21 0.20211683E-01 0.20590533E+03</pdfrwt>
<pdfrwt beam="2">  1       21 0.51174016E-01 0.20590533E+03</pdfrwt>
<totfact> 0.81695904E+04</totfact>
</mgrwt>
</event>
<event>
 5    1  0.1281005E-004  0.1503101E+03  0.7546771E-02  0.1200092E+00
         21   -1    0    0  501  502  0.00000000000E+00  0.00000000000E+00  0.74159639232E+02  0.74159639232E+02  0.00000000000E+00 0.  1.
         21   -1    0    0  502  503 -0.00000000000E+00 -0.00000000000E+00 -0.33441503267E+03  0.33441503267E+03  0.00000000000E+00 0.  1.
         24    1    1    2    0    0  0.39695036616E+02  0.76029640251E+02 -0.13158484424E+03  0.17645959684E+03  0.80419002446E+02 0.  1.
          1    1    1    2  501    0  0.39250681188E+02  0.31025072204E+02 -0.71658620476E+02  0.87396389900E+02  0.00000000000E+00 0. -1.
         -2    1    1    2    0  503 -0.78945717804E+02 -0.10705471246E+03 -0.57011928721E+02  0.14471868516E+03  0.00000000000E+00 0.  1.
<mgrwt>
<rscale>  2 0.15031014E+03</rscale>
<asrwt>0</asrwt>
<pdfrwt beam="1">  1       21 0.11409175E-01 0.15031014E+03</pdfrwt>
<pdfrwt beam="2">  1       21 0.51448466E-01 0.15031014E+03</pdfrwt>
<totfact> 0.23314281E+05</totfact>
</mgrwt>
</event>
<event>
 5    1  0.1281005E-004  0.5208813E+03  0.7546771E-02  0.1008468E+00
         21   -1    0    0  503  502  0.00000000000E+00  0.00000000000E+00  0.10993994017E+04  0.10993994017E+04  0.00000000000E+00 0.  1.
         21   -1    0    0  501  503 -0.00000000000E+00 -0.00000000000E+00 -0.25066619989E+03  0.25066619989E+03  0.00000000000E+00 0. -1.
         24    1    1    2    0    0 -0.60889434429E+02  0.33403605572E+03  0.25007897183E+03  0.42929514073E+03  0.80419002446E+02 0.  1.
          1    1    1    2  501    0  0.19037362279E+03 -0.46877567869E+03  0.49137011987E+03  0.70529238468E+03  0.00000000000E+00 0. -1.
         -2    1    1    2    0  502 -0.12948418836E+03  0.13473962297E+03  0.10728411010E+03  0.21547807618E+03  0.00000000000E+00 0.  1.
<mgrwt>
<rscale>  2 0.52088125E+03</rscale>
<asrwt>0</asrwt>
<pdfrwt beam="1">  1       21 0.16913837E+00 0.52088125E+03</pdfrwt>
<pdfrwt beam="2">  1       21 0.38564031E-01 0.52088125E+03</pdfrwt>
<totfact> 0.11510468E+03</totfact>
</mgrwt>
</event>
<event>
 5    1  0.1281005E-004  0.1721377E+03  0.7546771E-02  0.1175637E+00
         21   -1    0    0  503  502  0.00000000000E+00  0.00000000000E+00  0.13750264118E+04  0.13750264118E+04  0.00000000000E+00 0.  1.
         21   -1    0    0  501  503 -0.00000000000E+00 -0.00000000000E+00 -0.22497814165E+02  0.22497814165E+02  0.00000000000E+00 0. -1.
         24    1    1    2    0    0  0.89938742782E+02  0.70497001646E+02  0.44124489717E+03  0.46284239211E+03  0.80419002446E+02 0. -1.
          1    1    1    2  501    0 -0.13399309966E+03 -0.84382054340E+02  0.62794868552E+03  0.64760638779E+03  0.00000000000E+00 0. -1.
         -2    1    1    2    0  502  0.44054356878E+02  0.13885052694E+02  0.28333501495E+03  0.28707544609E+03  0.00000000000E+00 0.  1.
<mgrwt>
<rscale>  2 0.17213774E+03</rscale>
<asrwt>0</asrwt>
<pdfrwt beam="1">  1       21 0.21154246E+00 0.17213774E+03</pdfrwt>
<pdfrwt beam="2">  1       21 0.34612033E-02 0.17213774E+03</pdfrwt>
<totfact> 0.57429298E+04</totfact>
</mgrwt>
</event>
<event>
 5    1  0.1281005E-004  0.1189008E+03  0.7546771E-02  0.1244921E+00
         21   -1    0    0  503  502  0.00000000000E+00  0.00000000000E+00  0.19516992335E+02  0.19516992335E+02  0.00000000000E+00 0.  1.
         21   -1    0    0  501  503 -0.00000000000E+00 -0.00000000000E+00 -0.73994035866E+03  0.73994035866E+03  0.00000000000E+00 0. -1.
         24    1    1    2    0    0  0.61210320308E+02 -0.37628047643E+02 -0.34782102307E+03  0.36415553452E+03  0.80419002446E+02 0. -1.
          1    1    1    2  501    0 -0.89210076234E+02  0.85915921646E+01 -0.28707328023E+03  0.30073796132E+03  0.00000000000E+00 0. -1.
         -2    1    1    2    0  502  0.27999755926E+02  0.29036455479E+02 -0.85529063028E+02  0.94563855152E+02  0.00000000000E+00 0.  1.
<mgrwt>
<rscale>  2 0.11890085E+03</rscale>
<asrwt>0</asrwt>
<pdfrwt beam="1">  1       21 0.30026145E-02 0.11890085E+03</pdfrwt>
<pdfrwt beam="2">  1       21 0.11383697E+00 0.11890085E+03</pdfrwt>
<totfact> 0.38649835E+05</totfact>
</mgrwt>
</event>
<event>
 5    1  0.1281005E-004  0.1454935E+03  0.7546771E-02  0.1206122E+00
         21   -1    0    0  501  502  0.00000000000E+00  0.00000000000E+00  0.22472401325E+03  0.22472401325E+03  0.00000000000E+00 0.  1.
         21   -1    0    0  502  503 -0.00000000000E+00 -0.00000000000E+00 -0.99973605823E+02  0.99973605823E+02  0.00000000000E+00 0. -1.
         24    1    1    2    0    0 -0.86765319688E+01 -0.40435328345E+02  0.20588553351E+02  0.92743746252E+02  0.80419002446E+02 0. -1.
          1    1    1    2  501    0  0.34323505182E+02  0.11588848894E+03  0.33439052052E+02  0.12540500420E+03  0.00000000000E+00 0. -1.
         -2    1    1    2    0  503 -0.25646973213E+02 -0.75453160593E+02  0.70722802026E+02  0.10654886862E+03  0.00000000000E+00 0.  1.
<mgrwt>
<rscale>  2 0.14549350E+03</rscale>
<asrwt>0</asrwt>
<pdfrwt beam="1">  1       21 0.34572925E-01 0.14549350E+03</pdfrwt>
<pdfrwt beam="2">  1       21 0.15380555E-01 0.14549350E+03</pdfrwt>
<totfact> 0.30528297E+05</totfact>
</mgrwt>
</event>
<event>
 5    1  0.1281005E-004  0.1019947E+03  0.7546771E-02  0.1276156E+00
         21   -1    0    0  503  502  0.00000000000E+00  0.00000000000E+00  0.51021052407E+03  0.51021052407E+03  0.00000000000E+00 0.  1.
         21   -1    0    0  501  503 -0.00000000000E+00 -0.00000000000E+00 -0.21287123240E+02  0.21287123240E+02  0.00000000000E+00 0.  1.
         24    1    1    2    0    0 -0.54212771405E+02  0.34656953955E+02  0.19818400561E+03  0.22334781189E+03  0.80419002446E+02 0.  1.
          1    1    1    2  501    0 -0.10873529651E+02 -0.34223915479E+02  0.82526261946E+02  0.90000521935E+02  0.00000000000E+00 0. -1.
         -2    1    1    2    0  502  0.65086301056E+02 -0.43303847594E+00  0.20821313328E+03  0.21814931349E+03  0.00000000000E+00 0.  1.
<mgrwt>
<rscale>  2 0.10199473E+03</rscale>
<asrwt>0</asrwt>
<pdfrwt beam="1">  1       21 0.78493918E-01 0.10199473E+03</pdfrwt>
<pdfrwt beam="2">  1       21 0.32749424E-02 0.10199473E+03</pdfrwt>
<totfact> 0.79040492E+05</totfact>
</mgrwt>
</event>
<event>
 5    1  0.1281005E-004  0.3351796E+03  0.7546771E-02  0.1068868E+00
         21   -1    0    0  501  502  0.00000000000E+00  0.00000000000E+00  0.33596785121E+03  0.33596785121E+03  0.00000000000E+00 0.  1.
         21   -1    0    0  502  503 -0.00000000000E+00 -0.00000000000E+00 -0.34410946191E+03  0.34410946191E+03  0.00000000000E+00 0. -1.
         24    1    1    2    0    0 -0.24617168912E+02 -0.23614062043E+03 -0.36597020773E+02  0.25332776300E+03  0.80419002446E+02 0. -1.
          1    1    1    2  501    0 -0.11401842401E+02 -0.90425982772E+02  0.36310517821E+02  0.98108685012E+02  0.00000000000E+00 0. -1.
         -2    1    1    2    0  503  0.36019011313E+02  0.32656660320E+03 -0.78551077481E+01  0.32864086511E+03  0.00000000000E+00 0.  1.
<mgrwt>
<rscale>  2 0.33517964E+03</rscale>
<asrwt>0</asrwt>
<pdfrwt beam="1">  1       21 0.51687362E-01 0.33517964E+03</pdfrwt>
<pdfrwt beam="2">  1       21 0.52939917E-01 0.33517964E+03</pdfrwt>
<totfact> 0.11165140E+04</totfact>
</mgrwt>
</event>
<event>
 5    1  0.1281005E-004  0.2024421E+03  0.7546771E-02  0.1147695E+00
         21   -1    0    0  503  502  0.00000000000E+00  0.00000000000E+00  0.87479947489E+03  0.87479947489E+03  0.00000000000E+00 0. -1.
         21   -1    0    0  501  503 -0.00000000000E+00 -0.00000000000E+00 -0.55831037719E+02  0.55831037719E+02  0.00000000000E+00 0.  1.
         24    1    1    2    0    0  0.11227042058E+03 -0.60732531970E+02  0.14130645196E+03  0.20670708042E+03  0.80419002446E+02 0.  0.
          1    1    1    2  501    0 -0.16315408077E+03  0.98561834362E+02  0.48588185960E+03  0.52193378004E+03  0.00000000000E+00 0. -1.
         -2    1    1    2    0  502  0.50883660193E+02 -0.37829302392E+02  0.19178012561E+03  0.20198965215E+03  0.00000000000E+00 0.  1.
<mgrwt>
<rscale>  2 0.20244212E+03</rscale>
<asrwt>0</asrwt>
<pdfrwt beam="1">  1       21 0.13458453E+00 0.20244212E+03</pdfrwt>
<pdfrwt beam="2">  1       21 0.85893910E-02 0.20244212E+03</pdfrwt>
<totfact> 0.41737695E+04</totfact>
</mgrwt>
</event>
<event>
 5    1  0.1281005E-004  0.1103191E+03  0.7546771E-02  0.1259980E+00
         21   -1    0    0  501  502  0.00000000000E+00  0.00000000000E+00  0.42888649966E+02  0.42888649966E+02  0.00000000000E+00 0. -1.
         21   -1    0    0  502  503 -0.00000000000E+00 -0.00000000000E+00 -0.28633034498E+03  0.28633034498E+03  0.00000000000E+00 0.  1.
         24    1    1    2    0    0  0.10381233740E+02 -0.19457703046E+02 -0.85647779745E+02  0.11953715051E+03  0.80419002446E+02 0.  0.
          1    1    1    2  501    0  0.30129774359E+02  0.67790752024E+02 -0.96688316818E+02  0.12186886383E+03  0.00000000000E+00 0. -1.
         -2    1    1    2    0  503 -0.40511008099E+02 -0.48333048978E+02 -0.61105598446E+02  0.87812980602E+02  0.00000000000E+00 0.  1.
<mgrwt>
<rscale>  2 0.11031913E+03</rscale>
<asrwt>0</asrwt>
<pdfrwt beam="1">  1       21 0.65982538E-02 0.11031913E+03</pdfrwt>
<pdfrwt beam="2">  1       21 0.44050823E-01 0.11031913E+03</pdfrwt>
<totfact> 0.83169722E+05</totfact>
</mgrwt>
</event>
<event>
 5    1  0.1281005E-004  0.1537330E+03  0.7546771E-02  0.1195960E+00
         21   -1    0    0  503  502  0.00000000000E+00  0.00000000000E+00  0.50041511745E+02  0.50041511745E+02  0.00000000000E+00 0.  1.
         21   -1    0    0  501  503 -0.00000000000E+00 -0.00000000000E+00 -0.49104385455E+03  0.49104385455E+03  0.00000000000E+00 0.  1.
         24    1    1    2    0    0  0.95970098344E+01  0.78931468683E+02 -0.12533596657E+03  0.16881528313E+03  0.80419002446E+02 0.  1.
          1    1    1    2  501    0  0.81552141524E+02 -0.14695704327E+02 -0.16702447511E+03  0.18645077313E+03  0.00000000000E+00 0. -1.
         -2    1    1    2    0  502 -0.91149151358E+02 -0.64235764357E+02 -0.14864190112E+03  0.18581931004E+03  0.00000000000E+00 0.  1.
<mgrwt>
<rscale>  2 0.15373297E+03</rscale>
<asrwt>0</asrwt>
<pdfrwt beam="1">  1       21 0.76986941E-02 0.15373297E+03</pdfrwt>
<pdfrwt beam="2">  1       21 0.75545209E-01 0.15373297E+03</pdfrwt>
<totfact> 0.20308551E+05</totfact>
</mgrwt>
</event>
<event>
 5    1  0.1281005E-004  0.1669234E+03  0.7546771E-02  0.1181095E+00
         21   -1    0    0  501  502  0.00000000000E+00  0.00000000000E+00  0.42110377899E+02  0.42110377899E+02  0.00000000000E+00 0.  1.
         21   -1    0    0  502  503 -0.00000000000E+00 -0.00000000000E+00 -0.78906296983E+03  0.78906296983E+03  0.00000000000E+00 0. -1.
         24    1    1    2    0    0  0.31502076869E+02 -0.48595100774E+02 -0.14836897091E+03  0.17842206184E+03  0.80419002446E+02 0.  1.
          1    1    1    2  501    0 -0.11576450723E+03  0.84325178591E+02 -0.49120831274E+03  0.51166176658E+03  0.00000000000E+00 0. -1.
         -2    1    1    2    0  503  0.84262430358E+02 -0.35730077817E+02 -0.10737530828E+03  0.14108951931E+03  0.00000000000E+00 0.  1.
<mgrwt>
<rscale>  2 0.16692343E+03</rscale>
<asrwt>0</asrwt>
<pdfrwt beam="1">  1       21 0.64785197E-02 0.16692343E+03</pdfrwt>
<pdfrwt beam="2">  1       21 0.12139430E+00 0.16692343E+03</pdfrwt>
<totfact> 0.89760859E+04</totfact>
</mgrwt>
</event>
<event>
 5    1  0.1281005E-004  0.2237627E+03  0.7546771E-02  0.1131109E+00
         21   -1    0    0  503  502  0.00000000000E+00  0.00000000000E+00  0.13396170650E+04  0.13396170650E+04  0.00000000000E+00 0. -1.
         21   -1    0    0  501  503 -0.00000000000E+00 -0.00000000000E+00 -0.38783251179E+02  0.38783251179E+02  0.00000000000E+00 0.  1.
         24    1    1    2    0    0 -0.22908439756E+02  0.14654800299E+03  0.57365814753E+03  0.59795652014E+03  0.80419002446E+02 0.  1.
          1    1    1    2  501    0  0.71636297162E+02 -0.19641936071E+03  0.47859376642E+03  0.52226843442E+03  0.00000000000E+00 0. -1.
         -2    1    1    2    0  502 -0.48727857406E+02  0.49871357722E+02  0.24858189991E+03  0.25817536167E+03  0.00000000000E+00 0.  1.
<mgrwt>
<rscale>  2 0.22376270E+03</rscale>
<asrwt>0</asrwt>
<pdfrwt beam="1">  1       21 0.20609490E+00 0.22376270E+03</pdfrwt>
<pdfrwt beam="2">  1       21 0.59666550E-02 0.22376270E+03</pdfrwt>
<totfact> 0.23902029E+04</totfact>
</mgrwt>
</event>
<event>
 5    1  0.1281005E-004  0.1325066E+03  0.7546771E-02  0.1223783E+00
         21   -1    0    0  503  502  0.00000000000E+00  0.00000000000E+00  0.60369967744E+03  0.60369967744E+03  0.00000000000E+00 0.  1.
         21   -1    0    0  501  503 -0.00000000000E+00 -0.00000000000E+00 -0.67564062998E+02  0.67564062998E+02  0.00000000000E+00 0. -1.
         24    1    1    2    0    0 -0.15203129538E+02  0.68163585896E+02  0.41334563055E+02  0.11425047767E+03  0.80419002446E+02 0.  0.
          1    1    1    2  501    0 -0.14076394598E+02  0.42113738046E+02 -0.46949190090E+01  0.44651473454E+02  0.00000000000E+00 0. -1.
         -2    1    1    2    0  502  0.29279524136E+02 -0.11027732394E+03  0.49949597040E+03  0.51236178932E+03  0.00000000000E+00 0.  1.
<mgrwt>
<rscale>  2 0.13250661E+03</rscale>
<asrwt>0</asrwt>
<pdfrwt beam="1">  1       21 0.92876870E-01 0.13250661E+03</pdfrwt>
<pdfrwt beam="2">  1       21 0.10394472E-01 0.13250661E+03</pdfrwt>
<totfact> 0.76067505E+04</totfact>
</mgrwt>
</event>
<event>
 5    1  0.1281005E-004  0.1496415E+03  0.7546771E-02  0.1200914E+00
         21   -1    0    0  501  502  0.00000000000E+00  0.00000000000E+00  0.10996029817E+04  0.10996029817E+04  0.00000000000E+00 0.  1.
         21   -1    0    0  502  503 -0.00000000000E+00 -0.00000000000E+00 -0.20892926929E+02  0.20892926929E+02  0.00000000000E+00 0. -1.
         24    1    1    2    0    0 -0.77134668206E+02  0.33660676278E+02  0.34675919696E+03  0.36577582588E+03  0.80419002446E+02 0.  0.
          1    1    1    2  501    0 -0.36503977060E+02  0.34615128203E+02  0.16636311849E+03  0.17380286142E+03  0.00000000000E+00 0. -1.
         -2    1    1    2    0  503  0.11363864527E+03 -0.68275804481E+02  0.56558773933E+03  0.58091722135E+03  0.00000000000E+00 0.  1.
<mgrwt>
<rscale>  2 0.14964152E+03</rscale>
<asrwt>0</asrwt>
<pdfrwt beam="1">  1       21 0.16916964E+00 0.14964152E+03</pdfrwt>
<pdfrwt beam="2">  1       21 0.32142973E-02 0.14964152E+03</pdfrwt>
<totfact> 0.12471404E+05</totfact>
</mgrwt>
</event>
<event>
 5    1  0.1281005E-004  0.1716909E+03  0.7546771E-02  0.1176096E+00
         21   -1    0    0  503  502  0.00000000000E+00  0.00000000000E+00  0.30474644419E+02  0.30474644419E+02  0.00000000000E+00 0. -1.
         21   -1    0    0  501  503 -0.00000000000E+00 -0.00000000000E+00 -0.99619462350E+03  0.99619462350E+03  0.00000000000E+00 0.  1.
         24    1    1    2    0    0  0.72577482488E+02  0.49538380519E+02 -0.25911315229E+03  0.28518131733E+03  0.80419002446E+02 0.  0.
          1    1    1    2  501    0  0.71795251375E+02 -0.32775462904E+02 -0.27228884246E+03  0.28349603669E+03  0.00000000000E+00 0. -1.
         -2    1    1    2    0  502 -0.14437273386E+03 -0.16762917615E+02 -0.43431798433E+03  0.45799191391E+03  0.00000000000E+00 0.  1.
<mgrwt>
<rscale>  2 0.17169094E+03</rscale>
<asrwt>0</asrwt>
<pdfrwt beam="1">  1       21 0.46884072E-02 0.17169094E+03</pdfrwt>
<pdfrwt beam="2">  1       21 0.15326070E+00 0.17169094E+03</pdfrwt>
<totfact> 0.85614784E+04</totfact>
</mgrwt>
</event>
<event>
 5    1  0.1281005E-004  0.1380717E+03  0.7546771E-02  0.1215947E+00
         21   -1    0    0  503  502  0.00000000000E+00  0.00000000000E+00  0.14193778371E+03  0.14193778371E+03  0.00000000000E+00 0.  1.
         21   -1    0    0  501  503 -0.00000000000E+00 -0.00000000000E+00 -0.13959262671E+03  0.13959262671E+03  0.00000000000E+00 0. -1.
         24    1    1    2    0    0 -0.27720082800E+02 -0.41227210896E+02  0.60125285090E+01  0.94717751040E+02  0.80419002446E+02 0.  0.
          1    1    1    2  501    0  0.65130467972E+02  0.95563256113E+02 -0.23326524501E+02  0.11797644054E+03  0.00000000000E+00 0. -1.
         -2    1    1    2    0  502 -0.37410385172E+02 -0.54336045217E+02  0.19659152990E+02  0.68836218845E+02  0.00000000000E+00 0.  1.
<mgrwt>
<rscale>  2 0.13807167E+03</rscale>
<asrwt>0</asrwt>
<pdfrwt beam="1">  1       21 0.21836582E-01 0.13807167E+03</pdfrwt>
<pdfrwt beam="2">  1       21 0.21475789E-01 0.13807167E+03</pdfrwt>
<totfact> 0.39906045E+05</totfact>
</mgrwt>
</event>
<event>
 5    1  0.1281005E-004  0.9468577E+02  0.7546771E-02  0.1291885E+00
         21   -1    0    0  503  502  0.00000000000E+00  0.00000000000E+00  0.19676274790E+03  0.19676274790E+03  0.00000000000E+00 0.  1.
         21   -1    0    0  501  503 -0.00000000000E+00 -0.00000000000E+00 -0.46998796330E+02  0.46998796330E+02  0.00000000000E+00 0. -1.
         24    1    1    2    0    0  0.27600422019E+02 -0.52109509924E+01  0.87519000949E+02  0.12212996679E+03  0.80419002446E+02 0.  0.
          1    1    1    2  501    0 -0.49415443316E+02  0.39694414325E+02  0.33261391817E+02  0.71581092143E+02  0.00000000000E+00 0. -1.
         -2    1    1    2    0  502  0.21815021297E+02 -0.34483463333E+02  0.28983558801E+02  0.50050485296E+02  0.00000000000E+00 0.  1.
<mgrwt>
<rscale>  2 0.94685766E+02</rscale>
<asrwt>0</asrwt>
<pdfrwt beam="1">  1       21 0.30271192E-01 0.94685766E+02</pdfrwt>
<pdfrwt beam="2">  1       21 0.72305842E-02 0.94685766E+02</pdfrwt>
<totfact> 0.14831021E+06</totfact>
</mgrwt>
</event>
<event>
 5    1  0.1281005E-004  0.1422858E+03  0.7546771E-02  0.1210286E+00
         21   -1    0    0  501  502  0.00000000000E+00  0.00000000000E+00  0.13275729000E+04  0.13275729000E+04  0.00000000000E+00 0.  1.
         21   -1    0    0  502  503 -0.00000000000E+00 -0.00000000000E+00 -0.16235715554E+02  0.16235715554E+02  0.00000000000E+00 0. -1.
         24    1    1    2    0    0 -0.13236540928E+02  0.48430231289E+01  0.24264208024E+03  0.25600987471E+03  0.80419002446E+02 0. -1.
          1    1    1    2  501    0  0.85372504218E+02  0.61265334219E+02  0.54216253579E+03  0.55225186362E+03  0.00000000000E+00 0. -1.
         -2    1    1    2    0  503 -0.72135963290E+02 -0.66108357348E+02  0.52653256839E+03  0.53554687720E+03  0.00000000000E+00 0.  1.
<mgrwt>
<rscale>  2 0.14228583E+03</rscale>
<asrwt>0</asrwt>
<pdfrwt beam="1">  1       21 0.20424190E+00 0.14228583E+03</pdfrwt>
<pdfrwt beam="2">  1       21 0.24978034E-02 0.14228583E+03</pdfrwt>
<totfact> 0.11128737E+05</totfact>
</mgrwt>
</event>
<event>
 5    1  0.1281005E-004  0.2009033E+03  0.7546771E-02  0.1148979E+00
         21   -1    0    0  501  502  0.00000000000E+00  0.00000000000E+00  0.14604965573E+04  0.14604965573E+04  0.00000000000E+00 0. -1.
         21   -1    0    0  502  503 -0.00000000000E+00 -0.00000000000E+00 -0.41881592345E+02  0.41881592345E+02  0.00000000000E+00 0.  1.
         24    1    1    2    0    0 -0.75637734926E+02  0.63543098920E+02  0.19442123006E+03  0.23243412619E+03  0.80419002446E+02 0. -1.
          1    1    1    2  501    0  0.11145374315E+03 -0.14649438123E+03  0.11057801829E+04  0.11209961434E+04  0.00000000000E+00 0. -1.
         -2    1    1    2    0  503 -0.35816008222E+02  0.82951282307E+02  0.11841355200E+03  0.14894788008E+03  0.00000000000E+00 0.  1.
<mgrwt>
<rscale>  2 0.20090333E+03</rscale>
<asrwt>0</asrwt>
<pdfrwt beam="1">  1       21 0.22469174E+00 0.20090333E+03</pdfrwt>
<pdfrwt beam="2">  1       21 0.64433230E-02 0.20090333E+03</pdfrwt>
<totfact> 0.16319036E+04</totfact>
</mgrwt>
</event>
<event>
 5    1  0.1281005E-004  0.1560593E+03  0.7546771E-02  0.1193219E+00
         21   -1    0    0  501  502  0.00000000000E+00  0.00000000000E+00  0.21407970936E+03  0.21407970936E+03  0.00000000000E+00 0. -1.
         21   -1    0    0  502  503 -0.00000000000E+00 -0.00000000000E+00 -0.11795919404E+03  0.11795919404E+03  0.00000000000E+00 0. -1.
         24    1    1    2    0    0 -0.12678559266E+03  0.10387653763E+02  0.73725849491E+02  0.16758641560E+03  0.80419002446E+02 0. -1.
          1    1    1    2  501    0  0.91139676011E+02 -0.53498610843E+02  0.47167478076E+01  0.10578652852E+03  0.00000000000E+00 0. -1.
         -2    1    1    2    0  503  0.35645916647E+02  0.43110957080E+02  0.17677918022E+02  0.58665959291E+02  0.00000000000E+00 0.  1.
<mgrwt>
<rscale>  2 0.15605932E+03</rscale>
<asrwt>0</asrwt>
<pdfrwt beam="1">  1       21 0.32935340E-01 0.15605932E+03</pdfrwt>
<pdfrwt beam="2">  1       21 0.18147568E-01 0.15605932E+03</pdfrwt>
<totfact> 0.24776456E+05</totfact>
</mgrwt>
</event>
<event>
 5    1  0.1281005E-004  0.1039177E+03  0.7546771E-02  0.1272267E+00
         21   -1    0    0  503  502  0.00000000000E+00  0.00000000000E+00  0.45927082309E+03  0.45927082309E+03  0.00000000000E+00 0.  1.
         21   -1    0    0  501  503 -0.00000000000E+00 -0.00000000000E+00 -0.24814412184E+02  0.24814412184E+02  0.00000000000E+00 0. -1.
         24    1    1    2    0    0 -0.11804359996E+02 -0.22918153713E+02  0.23308803641E+03  0.24791497203E+03  0.80419002446E+02 0.  0.
          1    1    1    2  501    0  0.35844732878E+02 -0.41376327883E+02  0.87641802437E+02  0.10333407433E+03  0.00000000000E+00 0. -1.
         -2    1    1    2    0  502 -0.24040372882E+02  0.64294481596E+02  0.11372657206E+03  0.13283618891E+03  0.00000000000E+00 0.  1.
<mgrwt>
<rscale>  2 0.10391770E+03</rscale>
<asrwt>0</asrwt>
<pdfrwt beam="1">  1       21 0.70657043E-01 0.10391770E+03</pdfrwt>
<pdfrwt beam="2">  1       21 0.38176022E-02 0.10391770E+03</pdfrwt>
<totfact> 0.77360595E+05</totfact>
</mgrwt>
</event>
<event>
 5    1  0.1281005E-004  0.8850540E+02  0.7546771E-02  0.1306512E+00
         21   -1    0    0  503  502  0.00000000000E+00  0.00000000000E+00  0.24338444508E+02  0.24338444508E+02  0.00000000000E+00 0.  1.
         21   -1    0    0  501  503 -0.00000000000E+00 -0.00000000000E+00 -0.32684961230E+03  0.32684961230E+03  0.00000000000E+00 0. -1.
         24    1    1    2    0    0  0.40261090135E+02  0.37426610321E+02 -0.18771914607E+03  0.21148853466E+03  0.80419002446E+02 0. -1.
          1    1    1    2  501    0 -0.15391875267E+02 -0.49583923057E+02 -0.76221485068E+02  0.92223587199E+02  0.00000000000E+00 0. -1.
         -2    1    1    2    0  502 -0.24869214868E+02  0.12157312736E+02 -0.38570536657E+02  0.47475934948E+02  0.00000000000E+00 0.  1.
<mgrwt>
<rscale>  2 0.88505398E+02</rscale>
<asrwt>0</asrwt>
<pdfrwt beam="1">  1       21 0.37443762E-02 0.88505398E+02</pdfrwt>
<pdfrwt beam="2">  1       21 0.50284553E-01 0.88505398E+02</pdfrwt>
<totfact> 0.16294541E+06</totfact>
</mgrwt>
</event>
<event>
 5    1  0.1281005E-004  0.1282202E+03  0.7546771E-02  0.1230121E+00
         21   -1    0    0  501  502  0.00000000000E+00  0.00000000000E+00  0.15808898553E+03  0.15808898553E+03  0.00000000000E+00 0.  1.
         21   -1    0    0  502  503 -0.00000000000E+00 -0.00000000000E+00 -0.10895710192E+03  0.10895710192E+03  0.00000000000E+00 0. -1.
         24    1    1    2    0    0 -0.18097197450E+02  0.65506491423E+01  0.33596380615E+02  0.89254424566E+02  0.80419002446E+02 0. -1.
          1    1    1    2  501    0  0.52952376929E+02  0.71090558750E+02 -0.93131015010E+01  0.89132236735E+02  0.00000000000E+00 0. -1.
         -2    1    1    2    0  503 -0.34855179479E+02 -0.77641207892E+02  0.24848604500E+02  0.88659426149E+02  0.00000000000E+00 0.  1.
<mgrwt>
<rscale>  2 0.12822020E+03</rscale>
<asrwt>0</asrwt>
<pdfrwt beam="1">  1       21 0.24321382E-01 0.12822020E+03</pdfrwt>
<pdfrwt beam="2">  1       21 0.16762631E-01 0.12822020E+03</pdfrwt>
<totfact> 0.51499134E+05</totfact>
</mgrwt>
</event>
<event>
 5    1  0.1281005E-004  0.1451602E+03  0.7546771E-02  0.1206549E+00
         21   -1    0    0  503  502  0.00000000000E+00  0.00000000000E+00  0.58911316458E+02  0.58911316458E+02  0.00000000000E+00 0. -1.
         21   -1    0    0  501  503 -0.00000000000E+00 -0.00000000000E+00 -0.37396340357E+03  0.37396340357E+03  0.00000000000E+00 0.  1.
         24    1    1    2    0    0 -0.61304121290E+02  0.12792152358E+02 -0.13682183685E+03  0.17061437642E+03  0.80419002446E+02 0. -1.
          1    1    1    2  501    0  0.47411254508E+02  0.80850382213E+02 -0.62095917118E+02  0.11243004172E+03  0.00000000000E+00 0. -1.
         -2    1    1    2    0  502  0.13892866781E+02 -0.93642534571E+02 -0.11613433314E+03  0.14983030189E+03  0.00000000000E+00 0.  1.
<mgrwt>
<rscale>  2 0.14516023E+03</rscale>
<asrwt>0</asrwt>
<pdfrwt beam="1">  1       21 0.90632793E-02 0.14516023E+03</pdfrwt>
<pdfrwt beam="2">  1       21 0.57532832E-01 0.14516023E+03</pdfrwt>
<totfact> 0.27667337E+05</totfact>
</mgrwt>
</event>
<event>
 5    1  0.1281005E-004  0.1088351E+03  0.7546771E-02  0.1262742E+00
         21   -1    0    0  501  502  0.00000000000E+00  0.00000000000E+00  0.17910378112E+03  0.17910378112E+03  0.00000000000E+00 0. -1.
         21   -1    0    0  502  503 -0.00000000000E+00 -0.00000000000E+00 -0.87549805073E+02  0.87549805073E+02  0.00000000000E+00 0.  1.
         24    1    1    2    0    0  0.53368937883E+02 -0.44250774835E+02  0.11085540973E+03  0.15350085480E+03  0.80419002446E+02 0.  0.
          1    1    1    2  501    0 -0.72755861877E+02  0.53208811732E+02 -0.15383486118E+02  0.91439842129E+02  0.00000000000E+00 0. -1.
         -2    1    1    2    0  503  0.19386923994E+02 -0.89580368974E+01 -0.39179475638E+01  0.21712889263E+02  0.00000000000E+00 0.  1.
<mgrwt>
<rscale>  2 0.10883509E+03</rscale>
<asrwt>0</asrwt>
<pdfrwt beam="1">  1       21 0.27554428E-01 0.10883509E+03</pdfrwt>
<pdfrwt beam="2">  1       21 0.13469201E-01 0.10883509E+03</pdfrwt>
<totfact> 0.60323266E+05</totfact>
</mgrwt>
</event>
<event>
 5    1  0.1281005E-004  0.1232112E+03  0.7546771E-02  0.1237892E+00
         21   -1    0    0  501  502  0.00000000000E+00  0.00000000000E+00  0.21038443952E+03  0.21038443952E+03  0.00000000000E+00 0.  1.
         21   -1    0    0  502  503 -0.00000000000E+00 -0.00000000000E+00 -0.80231091843E+02  0.80231091843E+02  0.00000000000E+00 0. -1.
         24    1    1    2    0    0  0.17514852242E+02  0.29008726738E+02  0.88442912857E+02  0.12424830407E+03  0.80419002446E+02 0. -1.
          1    1    1    2  501    0  0.47551090304E+02  0.41570945939E+02  0.29119271055E+02  0.69549850338E+02  0.00000000000E+00 0. -1.
         -2    1    1    2    0  503 -0.65065942546E+02 -0.70579672677E+02  0.12591163763E+02  0.96817376950E+02  0.00000000000E+00 0.  1.
<mgrwt>
<rscale>  2 0.12321122E+03</rscale>
<asrwt>0</asrwt>
<pdfrwt beam="1">  1       21 0.32366837E-01 0.12321122E+03</pdfrwt>
<pdfrwt beam="2">  1       21 0.12343245E-01 0.12321122E+03</pdfrwt>
<totfact> 0.51661236E+05</totfact>
</mgrwt>
</event>
<event>
 5    1  0.1281005E-004  0.2026723E+03  0.7546771E-02  0.1147504E+00
         21   -1    0    0  501  502  0.00000000000E+00  0.00000000000E+00  0.42484000535E+02  0.42484000535E+02  0.00000000000E+00 0. -1.
         21   -1    0    0  502  503 -0.00000000000E+00 -0.00000000000E+00 -0.11941831153E+04  0.11941831153E+04  0.00000000000E+00 0.  1.
         24    1    1    2    0    0 -0.80906004841E+02  0.13995203338E+02 -0.26017286894E+03  0.28442711725E+03  0.80419002446E+02 0. -1.
          1    1    1    2  501    0  0.10394421736E+03 -0.13322631350E+03 -0.26672206681E+03  0.31574406068E+03  0.00000000000E+00 0. -1.
         -2    1    1    2    0  503 -0.23038212519E+02  0.11923111016E+03 -0.62480417906E+03  0.63649593795E+03  0.00000000000E+00 0.  1.
<mgrwt>
<rscale>  2 0.20267227E+03</rscale>
<asrwt>0</asrwt>
<pdfrwt beam="1">  1       21 0.65360008E-02 0.20267227E+03</pdfrwt>
<pdfrwt beam="2">  1       21 0.18372046E+00 0.20267227E+03</pdfrwt>
<totfact> 0.29035137E+04</totfact>
</mgrwt>
</event>
<event>
 5    1  0.1281005E-004  0.8892121E+02  0.7546771E-02  0.1305485E+00
         21   -1    0    0  503  502  0.00000000000E+00  0.00000000000E+00  0.65839947830E+03  0.65839947830E+03  0.00000000000E+00 0. -1.
         21   -1    0    0  501  503 -0.00000000000E+00 -0.00000000000E+00 -0.12589889621E+02  0.12589889621E+02  0.00000000000E+00 0.  1.
         24    1    1    2    0    0 -0.24956762204E+02  0.85940221563E+01  0.35870629683E+03  0.36855680775E+03  0.80419002446E+02 0. -1.
          1    1    1    2  501    0  0.16994249903E+01 -0.47685484671E+02  0.11708212813E+03  0.12643187186E+03  0.00000000000E+00 0. -1.
         -2    1    1    2    0  502  0.23257337213E+02  0.39091462515E+02  0.17002116371E+03  0.17600068831E+03  0.00000000000E+00 0.  1.
<mgrwt>
<rscale>  2 0.88921215E+02</rscale>
<asrwt>0</asrwt>
<pdfrwt beam="1">  1       21 0.10129220E+00 0.88921215E+02</pdfrwt>
<pdfrwt beam="2">  1       21 0.19369066E-02 0.88921215E+02</pdfrwt>
<totfact> 0.10370781E+06</totfact>
</mgrwt>
</event>
<event>
 5    1  0.1281005E-004  0.1565311E+03  0.7546771E-02  0.1192670E+00
         21   -1    0    0  501  502  0.00000000000E+00  0.00000000000E+00  0.20687987078E+03  0.20687987078E+03  0.00000000000E+00 0.  1.
         21   -1    0    0  502  503 -0.00000000000E+00 -0.00000000000E+00 -0.16577410655E+03  0.16577410655E+03  0.00000000000E+00 0.  1.
         24    1    1    2    0    0 -0.97395238474E+02 -0.55540532339E+02 -0.78454628139E+02  0.15872280189E+03  0.80419002446E+02 0.  1.
          1    1    1    2  501    0 -0.49527796840E+01 -0.36863543081E+02  0.12101158728E+02  0.39113793956E+02  0.00000000000E+00 0. -1.
         -2    1    1    2    0  503  0.10234801816E+03  0.92404075420E+02  0.10745923364E+03  0.17481738149E+03  0.00000000000E+00 0.  1.
<mgrwt>
<rscale>  2 0.15653111E+03</rscale>
<asrwt>0</asrwt>
<pdfrwt beam="1">  1       21 0.31827673E-01 0.15653111E+03</pdfrwt>
<pdfrwt beam="2">  1       21 0.25503709E-01 0.15653111E+03</pdfrwt>
<totfact> 0.14011401E+05</totfact>
</mgrwt>
</event>
<event>
 5    1  0.1281005E-004  0.1334579E+03  0.7546771E-02  0.1222413E+00
         21   -1    0    0  503  502  0.00000000000E+00  0.00000000000E+00  0.13590648647E+03  0.13590648647E+03  0.00000000000E+00 0.  1.
         21   -1    0    0  501  503 -0.00000000000E+00 -0.00000000000E+00 -0.13220679858E+03  0.13220679858E+03  0.00000000000E+00 0. -1.
         24    1    1    2    0    0  0.52974785378E+02 -0.59560105146E+02  0.12637986073E+02  0.11393273743E+03  0.80419002446E+02 0. -1.
          1    1    1    2  501    0 -0.96984737306E+02  0.33881425782E+02 -0.99804870118E+01  0.10321627974E+03  0.00000000000E+00 0. -1.
         -2    1    1    2    0  502  0.44009951928E+02  0.25678679364E+02  0.10421888300E+01  0.50964267876E+02  0.00000000000E+00 0.  1.
<mgrwt>
<rscale>  2 0.13345793E+03</rscale>
<asrwt>0</asrwt>
<pdfrwt beam="1">  1       21 0.20908690E-01 0.13345793E+03</pdfrwt>
<pdfrwt beam="2">  1       21 0.20339507E-01 0.13345793E+03</pdfrwt>
<totfact> 0.47895608E+05</totfact>
</mgrwt>
</event>
<event>
 5    1  0.1281005E-004  0.1654154E+03  0.7546771E-02  0.1182715E+00
         21   -1    0    0  501  502  0.00000000000E+00  0.00000000000E+00  0.33603007822E+03  0.33603007822E+03  0.00000000000E+00 0.  1.
         21   -1    0    0  502  503 -0.00000000000E+00 -0.00000000000E+00 -0.87211545049E+02  0.87211545049E+02  0.00000000000E+00 0. -1.
         24    1    1    2    0    0  0.38681101431E+02  0.67774706272E+02  0.13870986705E+03  0.17831792279E+03  0.80419002446E+02 0.  0.
          1    1    1    2  501    0 -0.89784397493E+02 -0.11722741355E+03  0.75030318965E+02  0.16562926458E+03  0.00000000000E+00 0. -1.
         -2    1    1    2    0  503  0.51103296062E+02  0.49452707274E+02  0.35078347154E+02  0.79294435897E+02  0.00000000000E+00 0.  1.
<mgrwt>
<rscale>  2 0.16541544E+03</rscale>
<asrwt>0</asrwt>
<pdfrwt beam="1">  1       21 0.51696934E-01 0.16541544E+03</pdfrwt>
<pdfrwt beam="2">  1       21 0.13417161E-01 0.16541544E+03</pdfrwt>
<totfact> 0.17212314E+05</totfact>
</mgrwt>
</event>
<event>
 5    1  0.1281005E-004  0.1371223E+03  0.7546771E-02  0.1217254E+00
         21   -1    0    0  503  502  0.00000000000E+00  0.00000000000E+00  0.85081944762E+03  0.85081944762E+03  0.00000000000E+00 0.  1.
         21   -1    0    0  501  503 -0.00000000000E+00 -0.00000000000E+00 -0.22474735482E+02  0.22474735482E+02  0.00000000000E+00 0. -1.
         24    1    1    2    0    0  0.46487438730E+02  0.69860147189E+02  0.40517014176E+03  0.42151106967E+03  0.80419002446E+02 0.  0.
          1    1    1    2  501    0 -0.16597838865E+01  0.39651403001E+02  0.96804556932E+02  0.10462366312E+03  0.00000000000E+00 0. -1.
         -2    1    1    2    0  502 -0.44827654843E+02 -0.10951155019E+03  0.32637001345E+03  0.34715945032E+03  0.00000000000E+00 0.  1.
<mgrwt>
<rscale>  2 0.13712227E+03</rscale>
<asrwt>0</asrwt>
<pdfrwt beam="1">  1       21 0.13089528E+00 0.13712227E+03</pdfrwt>
<pdfrwt beam="2">  1       21 0.34576523E-02 0.13712227E+03</pdfrwt>
<totfact> 0.21655772E+05</totfact>
</mgrwt>
</event>
<event>
 5    1  0.1281005E-004  0.2531801E+03  0.7546771E-02  0.1111311E+00
         21   -1    0    0  501  502  0.00000000000E+00  0.00000000000E+00  0.38390691717E+03  0.38390691717E+03  0.00000000000E+00 0.  1.
         21   -1    0    0  502  503 -0.00000000000E+00 -0.00000000000E+00 -0.17371969468E+03  0.17371969468E+03  0.00000000000E+00 0. -1.
         24    1    1    2    0    0 -0.15543003599E+03 -0.16691966113E+02  0.11901452887E+03  0.21229411640E+03  0.80419002446E+02 0.  1.
          1    1    1    2  501    0  0.23085932867E+03  0.66412089411E+02  0.47028421009E+02  0.24478208193E+03  0.00000000000E+00 0. -1.
         -2    1    1    2    0  503 -0.75429292680E+02 -0.49720123298E+02  0.44144272609E+02  0.10055041352E+03  0.00000000000E+00 0.  1.
<mgrwt>
<rscale>  2 0.25318011E+03</rscale>
<asrwt>0</asrwt>
<pdfrwt beam="1">  1       21 0.59062602E-01 0.25318011E+03</pdfrwt>
<pdfrwt beam="2">  1       21 0.26726107E-01 0.25318011E+03</pdfrwt>
<totfact> 0.34692861E+04</totfact>
</mgrwt>
</event>
<event>
 5    1  0.1281005E-004  0.2122531E+03  0.7546771E-02  0.1139794E+00
         21   -1    0    0  503  502  0.00000000000E+00  0.00000000000E+00  0.88761337338E+02  0.88761337338E+02  0.00000000000E+00 0. -1.
         21   -1    0    0  501  503 -0.00000000000E+00 -0.00000000000E+00 -0.58124865487E+03  0.58124865487E+03  0.00000000000E+00 0.  1.
         24    1    1    2    0    0  0.73939579100E+02 -0.29271921596E+02 -0.41621439494E+02  0.12051334752E+03  0.80419002446E+02 0. -1.
          1    1    1    2  501    0 -0.10652847907E+03 -0.11893089436E+03 -0.26702919586E+03  0.31112291128E+03  0.00000000000E+00 0. -1.
         -2    1    1    2    0  502  0.32588899967E+02  0.14820281596E+03 -0.18383668218E+03  0.23837373340E+03  0.00000000000E+00 0.  1.
<mgrwt>
<rscale>  2 0.21225315E+03</rscale>
<asrwt>0</asrwt>
<pdfrwt beam="1">  1       21 0.13655590E-01 0.21225315E+03</pdfrwt>
<pdfrwt beam="2">  1       21 0.89422870E-01 0.21225315E+03</pdfrwt>
<totfact> 0.49114947E+04</totfact>
</mgrwt>
</event>
<event>
 5    1  0.1281005E-004  0.1303566E+03  0.7546771E-02  0.1226928E+00
         21   -1    0    0  503  502  0.00000000000E+00  0.00000000000E+00  0.10870866988E+03  0.10870866988E+03  0.00000000000E+00 0. -1.
         21   -1    0    0  501  503 -0.00000000000E+00 -0.00000000000E+00 -0.16130274789E+03  0.16130274789E+03  0.00000000000E+00 0. -1.
         24    1    1    2    0    0 -0.39555901459E+01  0.64508717316E+02 -0.37844271423E+02  0.10989279384E+03  0.80419002446E+02 0. -1.
          1    1    1    2  501    0 -0.48930504546E+02 -0.87202873233E+02  0.25493156478E+01  0.10002516876E+03  0.00000000000E+00 0. -1.
         -2    1    1    2    0  502  0.52886094692E+02  0.22694155917E+02 -0.17299122235E+02  0.60093455173E+02  0.00000000000E+00 0.  1.
<mgrwt>
<rscale>  2 0.13035663E+03</rscale>
<asrwt>0</asrwt>
<pdfrwt beam="1">  1       21 0.16724411E-01 0.13035663E+03</pdfrwt>
<pdfrwt beam="2">  1       21 0.24815807E-01 0.13035663E+03</pdfrwt>
<totfact> 0.49780589E+05</totfact>
</mgrwt>
</event>
<event>
 5    1  0.1281005E-004  0.2033203E+03  0.7546771E-02  0.1146968E+00
         21   -1    0    0  501  502  0.00000000000E+00  0.00000000000E+00  0.26821558161E+02  0.26821558161E+02  0.00000000000E+00 0. -1.
         21   -1    0    0  502  503 -0.00000000000E+00 -0.00000000000E+00 -0.18514605397E+04  0.18514605397E+04  0.00000000000E+00 0.  1.
         24    1    1    2    0    0  0.46905918998E+02 -0.47560804078E+02 -0.61323869562E+03  0.62208609459E+03  0.80419002446E+02 0.  1.
          1    1    1    2  501    0  0.53224895939E+02  0.14981033445E+03 -0.89395968605E+03  0.90798675438E+03  0.00000000000E+00 0. -1.
         -2    1    1    2    0  503 -0.10013081494E+03 -0.10224953038E+03 -0.31744059983E+03  0.34820924885E+03  0.00000000000E+00 0.  1.
<mgrwt>
<rscale>  2 0.20332027E+03</rscale>
<asrwt>0</asrwt>
<pdfrwt beam="1">  1       21 0.41263927E-02 0.20332027E+03</pdfrwt>
<pdfrwt beam="2">  1       21 0.28484014E+00 0.20332027E+03</pdfrwt>
<totfact> 0.15361533E+04</totfact>
</mgrwt>
</event>
<event>
 5    1  0.1281005E-004  0.1552213E+03  0.7546771E-02  0.1194200E+00
         21   -1    0    0  503  502  0.00000000000E+00  0.00000000000E+00  0.31229279126E+03  0.31229279126E+03  0.00000000000E+00 0.  1.
         21   -1    0    0  501  503 -0.00000000000E+00 -0.00000000000E+00 -0.81063788032E+02  0.81063788032E+02  0.00000000000E+00 0. -1.
         24    1    1    2    0    0  0.50578955146E+02  0.49237408815E+02  0.12176952075E+03  0.16210362509E+03  0.80419002446E+02 0.  0.
          1    1    1    2  501    0 -0.93348745138E+02 -0.10017466620E+03  0.68058252575E+02  0.15290806947E+03  0.00000000000E+00 0. -1.
         -2    1    1    2    0  502  0.42769789993E+02  0.50937257380E+02  0.41401229908E+02  0.78344884730E+02  0.00000000000E+00 0.  1.
<mgrwt>
<rscale>  2 0.15522125E+03</rscale>
<asrwt>0</asrwt>
<pdfrwt beam="1">  1       21 0.48045044E-01 0.15522125E+03</pdfrwt>
<pdfrwt beam="2">  1       21 0.12471352E-01 0.15522125E+03</pdfrwt>
<totfact> 0.22906551E+05</totfact>
</mgrwt>
</event>
<event>
 5    1  0.1281005E-004  0.1570110E+03  0.7546771E-02  0.1192113E+00
         21   -1    0    0  501  502  0.00000000000E+00  0.00000000000E+00  0.31668097479E+03  0.31668097479E+03  0.00000000000E+00 0. -1.
         21   -1    0    0  502  503 -0.00000000000E+00 -0.00000000000E+00 -0.79326393774E+02  0.79326393774E+02  0.00000000000E+00 0.  1.
         24    1    1    2    0    0 -0.17422317704E+02  0.17240913668E+02  0.83858011766E+02  0.11874412975E+03  0.80419002446E+02 0.  0.
          1    1    1    2  501    0 -0.66119884217E+02  0.78664184744E+02  0.81135071191E+02  0.13093048853E+03  0.00000000000E+00 0. -1.
         -2    1    1    2    0  503  0.83542201921E+02 -0.95905098412E+02  0.72361498055E+02  0.14633275028E+03  0.00000000000E+00 0.  1.
<mgrwt>
<rscale>  2 0.15701097E+03</rscale>
<asrwt>0</asrwt>
<pdfrwt beam="1">  1       21 0.48720149E-01 0.15701097E+03</pdfrwt>
<pdfrwt beam="2">  1       21 0.12204061E-01 0.15701097E+03</pdfrwt>
<totfact> 0.23124314E+05</totfact>
</mgrwt>
</event>
<event>
 5    1  0.1281005E-004  0.1308942E+03  0.7546771E-02  0.1226135E+00
         21   -1    0    0  501  502  0.00000000000E+00  0.00000000000E+00  0.44163491877E+02  0.44163491877E+02  0.00000000000E+00 0.  1.
         21   -1    0    0  502  503 -0.00000000000E+00 -0.00000000000E+00 -0.39086693019E+03  0.39086693019E+03  0.00000000000E+00 0. -1.
         24    1    1    2    0    0  0.25723118641E+02  0.46062794658E+02 -0.14438701219E+03  0.17348857348E+03  0.80419002446E+02 0. -1.
          1    1    1    2  501    0 -0.30070025715E+02  0.55941540187E+02 -0.82842828799E+02  0.10438676472E+03  0.00000000000E+00 0. -1.
         -2    1    1    2    0  503  0.43469070739E+01 -0.10200433485E+03 -0.11947359732E+03  0.15715508387E+03  0.00000000000E+00 0.  1.
<mgrwt>
<rscale>  2 0.13089423E+03</rscale>
<asrwt>0</asrwt>
<pdfrwt beam="1">  1       21 0.67943836E-02 0.13089423E+03</pdfrwt>
<pdfrwt beam="2">  1       21 0.60133372E-01 0.13089423E+03</pdfrwt>
<totfact> 0.41514874E+05</totfact>
</mgrwt>
</event>
<event>
 5    1  0.1281005E-004  0.9032926E+02  0.7546771E-02  0.1302056E+00
         21   -1    0    0  501  502  0.00000000000E+00  0.00000000000E+00  0.13149318763E+03  0.13149318763E+03  0.00000000000E+00 0. -1.
         21   -1    0    0  502  503 -0.00000000000E+00 -0.00000000000E+00 -0.69393547634E+02  0.69393547634E+02  0.00000000000E+00 0. -1.
         24    1    1    2    0    0 -0.22368037382E+01  0.33365783385E+02  0.57008509934E+00  0.87096611549E+02  0.80419002446E+02 0. -1.
          1    1    1    2  501    0  0.50504694260E+01 -0.63298222288E+02  0.52520441068E+02  0.82404908325E+02  0.00000000000E+00 0. -1.
         -2    1    1    2    0  503 -0.28136656879E+01  0.29932438902E+02  0.90091138336E+01  0.31385215394E+02  0.00000000000E+00 0.  1.
<mgrwt>
<rscale>  2 0.90329262E+02</rscale>
<asrwt>0</asrwt>
<pdfrwt beam="1">  1       21 0.20229721E-01 0.90329262E+02</pdfrwt>
<pdfrwt beam="2">  1       21 0.10675930E-01 0.90329262E+02</pdfrwt>
<totfact> 0.16112937E+06</totfact>
</mgrwt>
</event>
<event>
 5    1  0.1281005E-004  0.1716214E+03  0.7546771E-02  0.1176167E+00
         21   -1    0    0  501  502  0.00000000000E+00  0.00000000000E+00  0.10401500291E+03  0.10401500291E+03  0.00000000000E+00 0.  1.
         21   -1    0    0  502  503 -0.00000000000E+00 -0.00000000000E+00 -0.28726506474E+03  0.28726506474E+03  0.00000000000E+00 0. -1.
         24    1    1    2    0    0  0.82656545715E+01  0.60095388258E+02 -0.35153726239E+02  0.10669009869E+03  0.80419002446E+02 0.  0.
          1    1    1    2  501    0 -0.37483971444E+02 -0.14654174538E+03 -0.83366475899E+02  0.17271218995E+03  0.00000000000E+00 0. -1.
         -2    1    1    2    0  503  0.29218316872E+02  0.86446357121E+02 -0.64729859697E+02  0.11187777901E+03  0.00000000000E+00 0.  1.
<mgrwt>
<rscale>  2 0.17162138E+03</rscale>
<asrwt>0</asrwt>
<pdfrwt beam="1">  1       21 0.16002308E-01 0.17162138E+03</pdfrwt>
<pdfrwt beam="2">  1       21 0.44194625E-01 0.17162138E+03</pdfrwt>
<totfact> 0.17253982E+05</totfact>
</mgrwt>
</event>
<event>
 5    1  0.1281005E-004  0.1947380E+03  0.7546771E-02  0.1154256E+00
         21   -1    0    0  503  502  0.00000000000E+00  0.00000000000E+00  0.23348781536E+02  0.23348781536E+02  0.00000000000E+00 0.  1.
         21   -1    0    0  501  503 -0.00000000000E+00 -0.00000000000E+00 -0.16293939147E+04  0.16293939147E+04  0.00000000000E+00 0. -1.
         24    1    1    2    0    0 -0.20264731156E+02  0.58806586849E+02 -0.38894830697E+03  0.40201601390E+03  0.80419002446E+02 0.  1.
          1    1    1    2  501    0 -0.13055856564E+03 -0.34502032905E+02 -0.54387961833E+03  0.56039358363E+03  0.00000000000E+00 0. -1.
         -2    1    1    2    0  502  0.15082329680E+03 -0.24304553944E+02 -0.67321720786E+03  0.69033309870E+03  0.00000000000E+00 0.  1.
<mgrwt>
<rscale>  2 0.19473804E+03</rscale>
<asrwt>0</asrwt>
<pdfrwt beam="1">  1       21 0.35921201E-02 0.19473804E+03</pdfrwt>
<pdfrwt beam="2">  1       21 0.25067600E+00 0.19473804E+03</pdfrwt>
<totfact> 0.30852413E+04</totfact>
</mgrwt>
</event>
<event>
 5    1  0.1281005E-004  0.1389551E+03  0.7546771E-02  0.1214742E+00
         21   -1    0    0  503  502  0.00000000000E+00  0.00000000000E+00  0.16519563619E+03  0.16519563619E+03  0.00000000000E+00 0. -1.
         21   -1    0    0  501  503 -0.00000000000E+00 -0.00000000000E+00 -0.13988551095E+03  0.13988551095E+03  0.00000000000E+00 0.  1.
         24    1    1    2    0    0  0.40519632551E+02  0.52104684579E+02 -0.44100039021E+02  0.11299897421E+03  0.80419002446E+02 0.  1.
          1    1    1    2  501    0 -0.45909421934E+02 -0.10819030295E+03  0.67869880743E+02  0.13571712267E+03  0.00000000000E+00 0. -1.
         -2    1    1    2    0  502  0.53897893831E+01  0.56085618372E+02  0.15402835163E+01  0.56365050262E+02  0.00000000000E+00 0.  1.
<mgrwt>
<rscale>  2 0.13895509E+03</rscale>
<asrwt>0</asrwt>
<pdfrwt beam="1">  1       21 0.25414713E-01 0.13895509E+03</pdfrwt>
<pdfrwt beam="2">  1       21 0.21520848E-01 0.13895509E+03</pdfrwt>
<totfact> 0.29871503E+05</totfact>
</mgrwt>
</event>
<event>
 5    1  0.1281005E-004  0.1112872E+03  0.7546771E-02  0.1258205E+00
         21   -1    0    0  501  502  0.00000000000E+00  0.00000000000E+00  0.49513841173E+02  0.49513841173E+02  0.00000000000E+00 0. -1.
         21   -1    0    0  502  503 -0.00000000000E+00 -0.00000000000E+00 -0.27070468911E+03  0.27070468911E+03  0.00000000000E+00 0.  1.
         24    1    1    2    0    0 -0.66614315598E+02 -0.57335857215E+02 -0.12057748523E+03  0.16950225209E+03  0.80419002446E+02 0.  0.
          1    1    1    2  501    0 -0.57177431390E+01  0.22397102469E+02 -0.51789768888E+02  0.56714221735E+02  0.00000000000E+00 0. -1.
         -2    1    1    2    0  503  0.72332058737E+02  0.34938754747E+02 -0.48823593817E+02  0.94002056454E+02  0.00000000000E+00 0.  1.
<mgrwt>
<rscale>  2 0.11128715E+03</rscale>
<asrwt>0</asrwt>
<pdfrwt beam="1">  1       21 0.76175143E-02 0.11128715E+03</pdfrwt>
<pdfrwt beam="2">  1       21 0.41646874E-01 0.11128715E+03</pdfrwt>
<totfact> 0.72872708E+05</totfact>
</mgrwt>
</event>
<event>
 5    1  0.1281005E-004  0.1324410E+03  0.7546771E-02  0.1223878E+00
         21   -1    0    0  503  502  0.00000000000E+00  0.00000000000E+00  0.85616505051E+03  0.85616505051E+03  0.00000000000E+00 0. -1.
         21   -1    0    0  501  503 -0.00000000000E+00 -0.00000000000E+00 -0.20802062091E+02  0.20802062091E+02  0.00000000000E+00 0. -1.
         24    1    1    2    0    0  0.12134166946E+02  0.11870084907E+03  0.43984708963E+03  0.46278483963E+03  0.80419002446E+02 0. -1.
          1    1    1    2  501    0 -0.17598715021E+02 -0.98771637237E+02  0.29590713980E+03  0.31245253476E+03  0.00000000000E+00 0. -1.
         -2    1    1    2    0  502  0.54645480756E+01 -0.19929211834E+02  0.99608758990E+02  0.10172973822E+03  0.00000000000E+00 0.  1.
<mgrwt>
<rscale>  2 0.13244104E+03</rscale>
<asrwt>0</asrwt>
<pdfrwt beam="1">  1       21 0.13171767E+00 0.13244104E+03</pdfrwt>
<pdfrwt beam="2">  1       21 0.32003179E-02 0.13244104E+03</pdfrwt>
<totfact> 0.24258926E+05</totfact>
</mgrwt>
</event>
<event>
 5    1  0.1281005E-004  0.1566131E+03  0.7546771E-02  0.1192574E+00
         21   -1    0    0  503  502  0.00000000000E+00  0.00000000000E+00  0.33078031024E+03  0.33078031024E+03  0.00000000000E+00 0.  1.
         21   -1    0    0  501  503 -0.00000000000E+00 -0.00000000000E+00 -0.75814520238E+02  0.75814520238E+02  0.00000000000E+00 0. -1.
         24    1    1    2    0    0 -0.45304198461E+02 -0.70621972394E+02  0.11993194561E+03  0.16700545175E+03  0.80419002446E+02 0.  1.
          1    1    1    2  501    0 -0.68363338282E+02  0.13079820366E+02  0.58836489747E+02  0.91139235500E+02  0.00000000000E+00 0. -1.
         -2    1    1    2    0  502  0.11366753674E+03  0.57542152027E+02  0.76197354652E+02  0.14845014323E+03  0.00000000000E+00 0.  1.
<mgrwt>
<rscale>  2 0.15661308E+03</rscale>
<asrwt>0</asrwt>
<pdfrwt beam="1">  1       21 0.50889278E-01 0.15661308E+03</pdfrwt>
<pdfrwt beam="2">  1       21 0.11663772E-01 0.15661308E+03</pdfrwt>
<totfact> 0.22902804E+05</totfact>
</mgrwt>
</event>
<event>
 5    1  0.1281005E-004  0.1076749E+03  0.7546771E-02  0.1264937E+00
         21   -1    0    0  503  502  0.00000000000E+00  0.00000000000E+00  0.39198191341E+03  0.39198191341E+03  0.00000000000E+00 0. -1.
         21   -1    0    0  501  503 -0.00000000000E+00 -0.00000000000E+00 -0.29650263993E+02  0.29650263993E+02  0.00000000000E+00 0.  1.
         24    1    1    2    0    0  0.44436523821E+01 -0.27878203969E+02  0.14302654886E+03  0.16649549525E+03  0.80419002446E+02 0.  1.
          1    1    1    2  501    0  0.11374383020E+02 -0.49679772057E+02  0.93918467762E+02  0.10685567335E+03  0.00000000000E+00 0. -1.
         -2    1    1    2    0  502 -0.15818035402E+02  0.77557976026E+02  0.12538663279E+03  0.14828100880E+03  0.00000000000E+00 0.  1.
<mgrwt>
<rscale>  2 0.10767493E+03</rscale>
<asrwt>0</asrwt>
<pdfrwt beam="1">  1       21 0.60304906E-01 0.10767493E+03</pdfrwt>
<pdfrwt beam="2">  1       21 0.45615794E-02 0.10767493E+03</pdfrwt>
<totfact> 0.80884044E+05</totfact>
</mgrwt>
</event>
<event>
 5    1  0.1281005E-004  0.1415599E+03  0.7546771E-02  0.1211245E+00
         21   -1    0    0  501  502  0.00000000000E+00  0.00000000000E+00  0.39091273650E+02  0.39091273650E+02  0.00000000000E+00 0. -1.
         21   -1    0    0  502  503 -0.00000000000E+00 -0.00000000000E+00 -0.56949040882E+03  0.56949040882E+03  0.00000000000E+00 0.  1.
         24    1    1    2    0    0 -0.18926329559E+02 -0.44770156195E+02 -0.25605217507E+03  0.27274989486E+03  0.80419002446E+02 0.  1.
          1    1    1    2  501    0 -0.46096439497E+02 -0.53938521018E+02 -0.69447886079E+02  0.99283707952E+02  0.00000000000E+00 0. -1.
         -2    1    1    2    0  503  0.65022769056E+02  0.98708677213E+02 -0.20489907403E+03  0.23654807966E+03  0.00000000000E+00 0.  1.
<mgrwt>
<rscale>  2 0.14155995E+03</rscale>
<asrwt>0</asrwt>
<pdfrwt beam="1">  1       21 0.60140419E-02 0.14155995E+03</pdfrwt>
<pdfrwt beam="2">  1       21 0.87613911E-01 0.14155995E+03</pdfrwt>
<totfact> 0.22284248E+05</totfact>
</mgrwt>
</event>
<event>
 5    1  0.1281005E-004  0.3339303E+03  0.7546771E-02  0.1069411E+00
         21   -1    0    0  503  502  0.00000000000E+00  0.00000000000E+00  0.47801701185E+03  0.47801701185E+03  0.00000000000E+00 0. -1.
         21   -1    0    0  501  503 -0.00000000000E+00 -0.00000000000E+00 -0.26991648072E+03  0.26991648072E+03  0.00000000000E+00 0.  1.
         24    1    1    2    0    0  0.78946628625E+02 -0.22767321220E+01  0.31299852453E+02  0.11698141048E+03  0.80419002446E+02 0.  0.
          1    1    1    2  501    0  0.16003982743E+03  0.19203773433E+03 -0.44606424442E+02  0.25393103566E+03  0.00000000000E+00 0. -1.
         -2    1    1    2    0  502 -0.23898645606E+03 -0.18976100221E+03  0.22140710313E+03  0.37702104643E+03  0.00000000000E+00 0.  1.
<mgrwt>
<rscale>  2 0.33393033E+03</rscale>
<asrwt>0</asrwt>
<pdfrwt beam="1">  1       21 0.73541079E-01 0.33393033E+03</pdfrwt>
<pdfrwt beam="2">  1       21 0.41525612E-01 0.33393033E+03</pdfrwt>
<totfact> 0.85875663E+03</totfact>
</mgrwt>
</event>
<event>
 5    1  0.1281005E-004  0.1091666E+03  0.7546771E-02  0.1262121E+00
         21   -1    0    0  501  502  0.00000000000E+00  0.00000000000E+00  0.54964449408E+02  0.54964449408E+02  0.00000000000E+00 0.  1.
         21   -1    0    0  502  503 -0.00000000000E+00 -0.00000000000E+00 -0.21947692100E+03  0.21947692100E+03  0.00000000000E+00 0.  1.
         24    1    1    2    0    0 -0.45641636547E+02  0.40814983615E+02 -0.62682691378E+02  0.11893425758E+03  0.80419002446E+02 0.  1.
          1    1    1    2  501    0 -0.15321681574E+02  0.23874947931E+02 -0.20228204846E+02  0.34841747032E+02  0.00000000000E+00 0. -1.
         -2    1    1    2    0  503  0.60963318121E+02 -0.64689931546E+02 -0.81601575372E+02  0.12066536580E+03  0.00000000000E+00 0.  1.
<mgrwt>
<rscale>  2 0.10916658E+03</rscale>
<asrwt>0</asrwt>
<pdfrwt beam="1">  1       21 0.84560692E-02 0.10916658E+03</pdfrwt>
<pdfrwt beam="2">  1       21 0.33765680E-01 0.10916658E+03</pdfrwt>
<totfact> 0.92133968E+05</totfact>
</mgrwt>
</event>
<event>
 5    1  0.1281005E-004  0.1772680E+03  0.7546771E-02  0.1170474E+00
         21   -1    0    0  503  502  0.00000000000E+00  0.00000000000E+00  0.50023589031E+02  0.50023589031E+02  0.00000000000E+00 0.  1.
         21   -1    0    0  501  503 -0.00000000000E+00 -0.00000000000E+00 -0.66890115228E+03  0.66890115228E+03  0.00000000000E+00 0. -1.
         24    1    1    2    0    0 -0.55068810691E+01  0.88508231495E+02 -0.13806522173E+03  0.18273821217E+03  0.80419002446E+02 0.  1.
          1    1    1    2  501    0  0.30490375003E+02  0.68952136196E+02 -0.19236018208E+03  0.20660711436E+03  0.00000000000E+00 0. -1.
         -2    1    1    2    0  502 -0.24983493934E+02 -0.15746036769E+03 -0.28845215944E+03  0.32957941478E+03  0.00000000000E+00 0.  1.
<mgrwt>
<rscale>  2 0.17726798E+03</rscale>
<asrwt>0</asrwt>
<pdfrwt beam="1">  1       21 0.76959380E-02 0.17726798E+03</pdfrwt>
<pdfrwt beam="2">  1       21 0.10290785E+00 0.17726798E+03</pdfrwt>
<totfact> 0.99054452E+04</totfact>
</mgrwt>
</event>
<event>
 5    1  0.1281005E-004  0.1778914E+03  0.7546771E-02  0.1169860E+00
         21   -1    0    0  503  502  0.00000000000E+00  0.00000000000E+00  0.37954725373E+03  0.37954725373E+03  0.00000000000E+00 0.  1.
         21   -1    0    0  501  503 -0.00000000000E+00 -0.00000000000E+00 -0.87139734994E+02  0.87139734994E+02  0.00000000000E+00 0. -1.
         24    1    1    2    0    0  0.50484679829E+02  0.10847766378E+03  0.16490148081E+03  0.21903383475E+03  0.80419002446E+02 0.  1.
          1    1    1    2  501    0 -0.51229371485E+02 -0.15594563870E+03  0.10699919899E+03  0.19593958078E+03  0.00000000000E+00 0. -1.
         -2    1    1    2    0  502  0.74469165636E+00  0.47467974928E+02  0.20506838937E+02  0.51713573195E+02  0.00000000000E+00 0.  1.
<mgrwt>
<rscale>  2 0.17789138E+03</rscale>
<asrwt>0</asrwt>
<pdfrwt beam="1">  1       21 0.58391884E-01 0.17789138E+03</pdfrwt>
<pdfrwt beam="2">  1       21 0.13406113E-01 0.17789138E+03</pdfrwt>
<totfact> 0.13275282E+05</totfact>
</mgrwt>
</event>
<event>
 5    1  0.1281005E-004  0.1917144E+03  0.7546771E-02  0.1156924E+00
         21   -1    0    0  503  502  0.00000000000E+00  0.00000000000E+00  0.35546168059E+02  0.35546168059E+02  0.00000000000E+00 0.  1.
         21   -1    0    0  501  503 -0.00000000000E+00 -0.00000000000E+00 -0.10524854210E+04  0.10524854210E+04  0.00000000000E+00 0. -1.
         24    1    1    2    0    0  0.36265819002E+02  0.71706257707E+02 -0.33655048908E+03  0.35523294424E+03  0.80419002446E+02 0.  1.
          1    1    1    2  501    0  0.22619650489E+02  0.92538300242E+02 -0.28853858018E+03  0.30385769342E+03  0.00000000000E+00 0. -1.
         -2    1    1    2    0  502 -0.58885469491E+02 -0.16424455795E+03 -0.39185018373E+03  0.42894095144E+03  0.00000000000E+00 0.  1.
<mgrwt>
<rscale>  2 0.19171443E+03</rscale>
<asrwt>0</asrwt>
<pdfrwt beam="1">  1       21 0.54686412E-02 0.19171443E+03</pdfrwt>
<pdfrwt beam="2">  1       21 0.16192084E+00 0.19171443E+03</pdfrwt>
<totfact> 0.56328409E+04</totfact>
</mgrwt>
</event>
<event>
 5    1  0.1281005E-004  0.2187071E+03  0.7546771E-02  0.1134851E+00
         21   -1    0    0  501  502  0.00000000000E+00  0.00000000000E+00  0.70140526164E+02  0.70140526164E+02  0.00000000000E+00 0. -1.
         21   -1    0    0  502  503 -0.00000000000E+00 -0.00000000000E+00 -0.72725622146E+03  0.72725622146E+03  0.00000000000E+00 0.  1.
         24    1    1    2    0    0  0.38641403943E+01 -0.84528462483E+02 -0.13434419152E+03  0.17797631950E+03  0.80419002446E+02 0.  0.
          1    1    1    2  501    0  0.46471271896E+02 -0.11017460609E+03 -0.12092507219E+03  0.17006144779E+03  0.00000000000E+00 0. -1.
         -2    1    1    2    0  503 -0.50335412290E+02  0.19470306857E+03 -0.40184643158E+03  0.44935898034E+03  0.00000000000E+00 0.  1.
<mgrwt>
<rscale>  2 0.21870714E+03</rscale>
<asrwt>0</asrwt>
<pdfrwt beam="1">  1       21 0.10790850E-01 0.21870714E+03</pdfrwt>
<pdfrwt beam="2">  1       21 0.11188557E+00 0.21870714E+03</pdfrwt>
<totfact> 0.43840294E+04</totfact>
</mgrwt>
</event>
<event>
 5    1  0.1281005E-004  0.2438744E+03  0.7546771E-02  0.1117238E+00
         21   -1    0    0  501  502  0.00000000000E+00  0.00000000000E+00  0.19484584198E+03  0.19484584198E+03  0.00000000000E+00 0.  1.
         21   -1    0    0  502  503 -0.00000000000E+00 -0.00000000000E+00 -0.32460540098E+03  0.32460540098E+03  0.00000000000E+00 0. -1.
         24    1    1    2    0    0  0.75177641126E+02 -0.11714405014E+03 -0.25302636764E+02  0.16273243558E+03  0.80419002446E+02 0.  0.
          1    1    1    2  501    0  0.11271352657E+03  0.16708494002E+02  0.10860656656E+02  0.11446163858E+03  0.00000000000E+00 0. -1.
         -2    1    1    2    0  503 -0.18789116770E+03  0.10043555614E+03 -0.11531757890E+03  0.24225716880E+03  0.00000000000E+00 0.  1.
<mgrwt>
<rscale>  2 0.24387436E+03</rscale>
<asrwt>0</asrwt>
<pdfrwt beam="1">  1       21 0.29976284E-01 0.24387436E+03</pdfrwt>
<pdfrwt beam="2">  1       21 0.49939292E-01 0.24387436E+03</pdfrwt>
<totfact> 0.39788611E+04</totfact>
</mgrwt>
</event>
<event>
 5    1  0.1281005E-004  0.1321173E+03  0.7546771E-02  0.1224347E+00
         21   -1    0    0  501  502  0.00000000000E+00  0.00000000000E+00  0.37353886026E+03  0.37353886026E+03  0.00000000000E+00 0.  1.
         21   -1    0    0  502  503 -0.00000000000E+00 -0.00000000000E+00 -0.47967642807E+02  0.47967642807E+02  0.00000000000E+00 0.  1.
         24    1    1    2    0    0 -0.16146863231E+02 -0.24115610640E+02  0.90383073694E+02  0.12441302116E+03  0.80419002446E+02 0. -1.
          1    1    1    2  501    0 -0.74193908338E+02  0.43967056853E+02  0.13951212093E+03  0.16401667601E+03  0.00000000000E+00 0. -1.
         -2    1    1    2    0  503  0.90340771569E+02 -0.19851446213E+02  0.95676022830E+02  0.13307680590E+03  0.00000000000E+00 0.  1.
<mgrwt>
<rscale>  2 0.13211732E+03</rscale>
<asrwt>0</asrwt>
<pdfrwt beam="1">  1       21 0.57467515E-01 0.13211732E+03</pdfrwt>
<pdfrwt beam="2">  1       21 0.73796376E-02 0.13211732E+03</pdfrwt>
<totfact> 0.39663262E+05</totfact>
</mgrwt>
</event>
<event>
 5    1  0.1281005E-004  0.1167016E+03  0.7546771E-02  0.1248640E+00
         21   -1    0    0  501  502  0.00000000000E+00  0.00000000000E+00  0.12676947962E+03  0.12676947962E+03  0.00000000000E+00 0. -1.
         21   -1    0    0  502  503 -0.00000000000E+00 -0.00000000000E+00 -0.11357324523E+03  0.11357324523E+03  0.00000000000E+00 0.  1.
         24    1    1    2    0    0 -0.20831102881E+02 -0.90835482382E+01  0.30345722539E+02  0.88907392981E+02  0.80419002446E+02 0. -1.
          1    1    1    2  501    0  0.55964745818E+02  0.63763830072E+02 -0.28606427343E+01  0.84888527356E+02  0.00000000000E+00 0. -1.
         -2    1    1    2    0  503 -0.35133642937E+02 -0.54680281833E+02 -0.14288845417E+02  0.66546804512E+02  0.00000000000E+00 0.  1.
<mgrwt>
<rscale>  2 0.11670164E+03</rscale>
<asrwt>0</asrwt>
<pdfrwt beam="1">  1       21 0.19502997E-01 0.11670164E+03</pdfrwt>
<pdfrwt beam="2">  1       21 0.17472807E-01 0.11670164E+03</pdfrwt>
<totfact> 0.72045992E+05</totfact>
</mgrwt>
</event>
<event>
 5    1  0.1281005E-004  0.1522617E+03  0.7546771E-02  0.1197721E+00
         21   -1    0    0  503  502  0.00000000000E+00  0.00000000000E+00  0.76307302567E+01  0.76307302567E+01  0.00000000000E+00 0. -1.
         21   -1    0    0  501  503 -0.00000000000E+00 -0.00000000000E+00 -0.30520210727E+04  0.30520210727E+04  0.00000000000E+00 0.  1.
         24    1    1    2    0    0  0.11090866615E+02  0.33453807344E+02 -0.97353908756E+03  0.97749052963E+03  0.80419002446E+02 0.  1.
          1    1    1    2  501    0 -0.30990790573E+02  0.88181045376E+02 -0.90134129700E+03  0.90617462972E+03  0.00000000000E+00 0. -1.
         -2    1    1    2    0  502  0.19899923958E+02 -0.12163485272E+03 -0.11695099579E+04  0.11759866436E+04  0.00000000000E+00 0.  1.
<mgrwt>
<rscale>  2 0.15226167E+03</rscale>
<asrwt>0</asrwt>
<pdfrwt beam="1">  1       21 0.11739576E-02 0.15226167E+03</pdfrwt>
<pdfrwt beam="2">  1       21 0.46954207E+00 0.15226167E+03</pdfrwt>
<totfact> 0.95045371E+03</totfact>
</mgrwt>
</event>
<event>
 5    1  0.1281005E-004  0.2695955E+03  0.7546771E-02  0.1101511E+00
         21   -1    0    0  503  502  0.00000000000E+00  0.00000000000E+00  0.66594655458E+02  0.66594655458E+02  0.00000000000E+00 0. -1.
         21   -1    0    0  501  503 -0.00000000000E+00 -0.00000000000E+00 -0.11410391571E+04  0.11410391571E+04  0.00000000000E+00 0.  1.
         24    1    1    2    0    0  0.10524278161E+02 -0.12046649936E+03 -0.19038871865E+03  0.23945358223E+03  0.80419002446E+02 0. -1.
          1    1    1    2  501    0 -0.41387369402E+02  0.25377716897E+03 -0.54765080814E+03  0.60501006066E+03  0.00000000000E+00 0. -1.
         -2    1    1    2    0  502  0.30863091240E+02 -0.13331066961E+03 -0.33640497481E+03  0.36317016963E+03  0.00000000000E+00 0.  1.
<mgrwt>
<rscale>  2 0.26959550E+03</rscale>
<asrwt>0</asrwt>
<pdfrwt beam="1">  1       21 0.10245332E-01 0.26959550E+03</pdfrwt>
<pdfrwt beam="2">  1       21 0.17554448E+00 0.26959550E+03</pdfrwt>
<totfact> 0.14433606E+04</totfact>
</mgrwt>
</event>
<event>
 5    1  0.1281005E-004  0.1542262E+03  0.7546771E-02  0.1195374E+00
         21   -1    0    0  503  502  0.00000000000E+00  0.00000000000E+00  0.31400695182E+02  0.31400695182E+02  0.00000000000E+00 0. -1.
         21   -1    0    0  501  503 -0.00000000000E+00 -0.00000000000E+00 -0.90320852178E+03  0.90320852178E+03  0.00000000000E+00 0.  1.
         24    1    1    2    0    0 -0.54439470306E+02  0.31015416278E+02 -0.39564671048E+03  0.40856963597E+03  0.80419002446E+02 0.  1.
          1    1    1    2  501    0 -0.82173187310E+01  0.79254453525E+02 -0.29024830407E+03  0.30098649596E+03  0.00000000000E+00 0. -1.
         -2    1    1    2    0  502  0.62656789037E+02 -0.11026986980E+03 -0.18591281205E+03  0.22505308503E+03  0.00000000000E+00 0.  1.
<mgrwt>
<rscale>  2 0.15422622E+03</rscale>
<asrwt>0</asrwt>
<pdfrwt beam="1">  1       21 0.48308768E-02 0.15422622E+03</pdfrwt>
<pdfrwt beam="2">  1       21 0.13895514E+00 0.15422622E+03</pdfrwt>
<totfact> 0.10590618E+05</totfact>
</mgrwt>
</event>
<event>
 5    1  0.1281005E-004  0.1399027E+03  0.7546771E-02  0.1213460E+00
         21   -1    0    0  503  502  0.00000000000E+00  0.00000000000E+00  0.99920663448E+02  0.99920663448E+02  0.00000000000E+00 0. -1.
         21   -1    0    0  501  503 -0.00000000000E+00 -0.00000000000E+00 -0.21627129691E+03  0.21627129691E+03  0.00000000000E+00 0. -1.
         24    1    1    2    0    0  0.66112361132E+02  0.58799504416E+02 -0.87041897484E+01  0.11987996033E+03  0.80419002446E+02 0. -1.
          1    1    1    2  501    0 -0.50850357130E+02 -0.10224593575E+03 -0.95040016354E+02  0.14856848558E+03  0.00000000000E+00 0. -1.
         -2    1    1    2    0  502 -0.15262004002E+02  0.43446431335E+02 -0.12606427361E+02  0.47743514457E+02  0.00000000000E+00 0.  1.
<mgrwt>
<rscale>  2 0.13990272E+03</rscale>
<asrwt>0</asrwt>
<pdfrwt beam="1">  1       21 0.15372410E-01 0.13990272E+03</pdfrwt>
<pdfrwt beam="2">  1       21 0.33272507E-01 0.13990272E+03</pdfrwt>
<totfact> 0.32976328E+05</totfact>
</mgrwt>
</event>
<event>
 5    1  0.1281005E-004  0.1738524E+03  0.7546771E-02  0.1173889E+00
         21   -1    0    0  501  502  0.00000000000E+00  0.00000000000E+00  0.55731660760E+03  0.55731660760E+03  0.00000000000E+00 0. -1.
         21   -1    0    0  502  503 -0.00000000000E+00 -0.00000000000E+00 -0.60554257652E+02  0.60554257652E+02  0.00000000000E+00 0.  1.
         24    1    1    2    0    0 -0.55695738116E+02 -0.72047733661E+02  0.94401731875E+02  0.15385640742E+03  0.80419002446E+02 0.  1.
          1    1    1    2  501    0  0.11395751571E+03  0.10861430215E+03  0.32060666579E+03  0.35717225000E+03  0.00000000000E+00 0. -1.
         -2    1    1    2    0  503 -0.58261777595E+02 -0.36566568494E+02  0.81753952281E+02  0.10684220783E+03  0.00000000000E+00 0.  1.
<mgrwt>
<rscale>  2 0.17385241E+03</rscale>
<asrwt>0</asrwt>
<pdfrwt beam="1">  1       21 0.85741013E-01 0.17385241E+03</pdfrwt>
<pdfrwt beam="2">  1       21 0.93160400E-02 0.17385241E+03</pdfrwt>
<totfact> 0.10879590E+05</totfact>
</mgrwt>
</event>
<event>
 5    1  0.1281005E-004  0.1460796E+03  0.7546771E-02  0.1205375E+00
         21   -1    0    0  503  502  0.00000000000E+00  0.00000000000E+00  0.13262171307E+03  0.13262171307E+03  0.00000000000E+00 0. -1.
         21   -1    0    0  501  503 -0.00000000000E+00 -0.00000000000E+00 -0.17324872105E+03  0.17324872105E+03  0.00000000000E+00 0.  1.
         24    1    1    2    0    0 -0.51302785567E+02  0.85518964589E+02 -0.35467243545E+02  0.13293084830E+03  0.80419002446E+02 0. -1.
          1    1    1    2  501    0  0.44252230296E+02 -0.12049691099E+03  0.19118570239E+02  0.12978168273E+03  0.00000000000E+00 0. -1.
         -2    1    1    2    0  502  0.70505552705E+01  0.34977946403E+02 -0.24278334673E+02  0.43157903084E+02  0.00000000000E+00 0.  1.
<mgrwt>
<rscale>  2 0.14607961E+03</rscale>
<asrwt>0</asrwt>
<pdfrwt beam="1">  1       21 0.20403340E-01 0.14607961E+03</pdfrwt>
<pdfrwt beam="2">  1       21 0.26653649E-01 0.14607961E+03</pdfrwt>
<totfact> 0.30095007E+05</totfact>
</mgrwt>
</event>
<event>
 5    1  0.1281005E-004  0.2423156E+03  0.7546771E-02  0.1118260E+00
         21   -1    0    0  501  502  0.00000000000E+00  0.00000000000E+00  0.98049758765E+02  0.98049758765E+02  0.00000000000E+00 0.  1.
         21   -1    0    0  502  503 -0.00000000000E+00 -0.00000000000E+00 -0.61717520200E+03  0.61717520200E+03  0.00000000000E+00 0. -1.
         24    1    1    2    0    0  0.40910694396E+02  0.64732568038E+01 -0.87383631747E+02  0.12577242552E+03  0.80419002446E+02 0.  0.
          1    1    1    2  501    0  0.14408178324E+03  0.10491621007E+03 -0.14083807616E+03  0.22716147361E+03  0.00000000000E+00 0. -1.
         -2    1    1    2    0  503 -0.18499247764E+03 -0.11138946687E+03 -0.29090373533E+03  0.36229106163E+03  0.00000000000E+00 0.  1.
<mgrwt>
<rscale>  2 0.24231559E+03</rscale>
<asrwt>0</asrwt>
<pdfrwt beam="1">  1       21 0.15084579E-01 0.24231559E+03</pdfrwt>
<pdfrwt beam="2">  1       21 0.94950029E-01 0.24231559E+03</pdfrwt>
<totfact> 0.35113118E+04</totfact>
</mgrwt>
</event>
<event>
 5    1  0.1281005E-004  0.1588630E+03  0.7546771E-02  0.1189986E+00
         21   -1    0    0  503  502  0.00000000000E+00  0.00000000000E+00  0.70308634793E+02  0.70308634793E+02  0.00000000000E+00 0. -1.
         21   -1    0    0  501  503 -0.00000000000E+00 -0.00000000000E+00 -0.37126090631E+03  0.37126090631E+03  0.00000000000E+00 0.  1.
         24    1    1    2    0    0 -0.65496714571E+02 -0.64073381623E+02 -0.10833667253E+03  0.16309282149E+03  0.80419002446E+02 0.  0.
          1    1    1    2  501    0 -0.52808862332E+02 -0.13294687058E+02 -0.84438713025E+02  0.10047597177E+03  0.00000000000E+00 0. -1.
         -2    1    1    2    0  502  0.11830557690E+03  0.77368068681E+02 -0.10817688596E+03  0.17800074784E+03  0.00000000000E+00 0.  1.
<mgrwt>
<rscale>  2 0.15886301E+03</rscale>
<asrwt>0</asrwt>
<pdfrwt beam="1">  1       21 0.10816713E-01 0.15886301E+03</pdfrwt>
<pdfrwt beam="2">  1       21 0.57117063E-01 0.15886301E+03</pdfrwt>
<totfact> 0.20534979E+05</totfact>
</mgrwt>
</event>
<event>
 5    1  0.1281005E-004  0.1377640E+03  0.7546771E-02  0.1216370E+00
         21   -1    0    0  503  502  0.00000000000E+00  0.00000000000E+00  0.46735473865E+02  0.46735473865E+02  0.00000000000E+00 0. -1.
         21   -1    0    0  501  503 -0.00000000000E+00 -0.00000000000E+00 -0.40928510597E+03  0.40928510597E+03  0.00000000000E+00 0. -1.
         24    1    1    2    0    0 -0.43788080616E+02  0.60638292291E+02 -0.13064828960E+03  0.17067685849E+03  0.80419002446E+02 0. -1.
          1    1    1    2  501    0  0.32455171536E+02 -0.11019060331E+03 -0.14967684585E+03  0.18867555592E+03  0.00000000000E+00 0. -1.
         -2    1    1    2    0  502  0.11332909080E+02  0.49552311021E+02 -0.82224496662E+02  0.96668165427E+02  0.00000000000E+00 0.  1.
<mgrwt>
<rscale>  2 0.13776398E+03</rscale>
<asrwt>0</asrwt>
<pdfrwt beam="1">  1       21 0.71900728E-02 0.13776398E+03</pdfrwt>
<pdfrwt beam="2">  1       21 0.62966940E-01 0.13776398E+03</pdfrwt>
<totfact> 0.34114508E+05</totfact>
</mgrwt>
</event>
<event>
 5    1  0.1281005E-004  0.1045018E+03  0.7546771E-02  0.1271104E+00
         21   -1    0    0  503  502  0.00000000000E+00  0.00000000000E+00  0.93428755123E+02  0.93428755123E+02  0.00000000000E+00 0. -1.
         21   -1    0    0  501  503 -0.00000000000E+00 -0.00000000000E+00 -0.11976079512E+03  0.11976079512E+03  0.00000000000E+00 0. -1.
         24    1    1    2    0    0  0.60132720571E+02 -0.37804909716E+02 -0.19375734078E+01  0.10731321180E+03  0.80419002446E+02 0. -1.
          1    1    1    2  501    0 -0.17866921833E+02  0.53667481369E+02 -0.51374737255E+01  0.56796294672E+02  0.00000000000E+00 0. -1.
         -2    1    1    2    0  502 -0.42265798738E+02 -0.15862571652E+02 -0.19256992865E+02  0.49080043771E+02  0.00000000000E+00 0.  1.
<mgrwt>
<rscale>  2 0.10450180E+03</rscale>
<asrwt>0</asrwt>
<pdfrwt beam="1">  1       21 0.14373655E-01 0.10450180E+03</pdfrwt>
<pdfrwt beam="2">  1       21 0.18424738E-01 0.10450180E+03</pdfrwt>
<totfact> 0.11357507E+06</totfact>
</mgrwt>
</event>
<event>
 5    1  0.1281005E-004  0.1255339E+03  0.7546771E-02  0.1234237E+00
         21   -1    0    0  503  502  0.00000000000E+00  0.00000000000E+00  0.77380491965E+01  0.77380491965E+01  0.00000000000E+00 0.  1.
         21   -1    0    0  501  503 -0.00000000000E+00 -0.00000000000E+00 -0.22052730122E+04  0.22052730122E+04  0.00000000000E+00 0. -1.
         24    1    1    2    0    0  0.34301146941E+02  0.61572497607E+02 -0.65118873764E+03  0.65991039477E+03  0.80419002446E+02 0.  0.
          1    1    1    2  501    0  0.33343600790E+02  0.19436843739E+02 -0.35653050780E+03  0.35861342641E+03  0.00000000000E+00 0. -1.
         -2    1    1    2    0  502 -0.67644747730E+02 -0.81009341346E+02 -0.11898157175E+04  0.11944872402E+04  0.00000000000E+00 0.  1.
<mgrwt>
<rscale>  2 0.12553389E+03</rscale>
<asrwt>0</asrwt>
<pdfrwt beam="1">  1       21 0.11904691E-02 0.12553389E+03</pdfrwt>
<pdfrwt beam="2">  1       21 0.33927278E+00 0.12553389E+03</pdfrwt>
<totfact> 0.62021757E+04</totfact>
</mgrwt>
</event>
<event>
 5    1  0.1281005E-004  0.3192632E+03  0.7546771E-02  0.1075989E+00
         21   -1    0    0  501  502  0.00000000000E+00  0.00000000000E+00  0.20428213694E+03  0.20428213694E+03  0.00000000000E+00 0.  1.
         21   -1    0    0  502  503 -0.00000000000E+00 -0.00000000000E+00 -0.50699983433E+03  0.50699983433E+03  0.00000000000E+00 0. -1.
         24    1    1    2    0    0 -0.13350287442E+02 -0.41965235825E+02 -0.15607471632E+02  0.93006023019E+02  0.80419002446E+02 0.  0.
          1    1    1    2  501    0  0.18173470178E+03  0.23084664658E+03 -0.13830487231E+03  0.32472436585E+03  0.00000000000E+00 0. -1.
         -2    1    1    2    0  503 -0.16838441434E+03 -0.18888141076E+03 -0.14880535344E+03  0.29355158241E+03  0.00000000000E+00 0.  1.
<mgrwt>
<rscale>  2 0.31926316E+03</rscale>
<asrwt>0</asrwt>
<pdfrwt beam="1">  1       21 0.31428021E-01 0.31926316E+03</pdfrwt>
<pdfrwt beam="2">  1       21 0.77999974E-01 0.31926316E+03</pdfrwt>
<totfact> 0.13266807E+04</totfact>
</mgrwt>
</event>
<event>
 5    1  0.1281005E-004  0.2436749E+03  0.7546771E-02  0.1117369E+00
         21   -1    0    0  503  502  0.00000000000E+00  0.00000000000E+00  0.28057847134E+04  0.28057847134E+04  0.00000000000E+00 0. -1.
         21   -1    0    0  501  503 -0.00000000000E+00 -0.00000000000E+00 -0.24380955446E+02  0.24380955446E+02  0.00000000000E+00 0.  1.
         24    1    1    2    0    0  0.15942948798E+00 -0.95897348984E+02  0.63436753714E+03  0.64659548026E+03  0.80419002446E+02 0. -1.
          1    1    1    2  501    0 -0.11524341402E+03 -0.88176268086E+02  0.45281056316E+03  0.47549290725E+03  0.00000000000E+00 0. -1.
         -2    1    1    2    0  502  0.11508398453E+03  0.18407361707E+03  0.16942256576E+04  0.17080772813E+04  0.00000000000E+00 0.  1.
<mgrwt>
<rscale>  2 0.24367489E+03</rscale>
<asrwt>0</asrwt>
<pdfrwt beam="1">  1       21 0.43165893E+00 0.24367489E+03</pdfrwt>
<pdfrwt beam="2">  1       21 0.37509184E-02 0.24367489E+03</pdfrwt>
<totfact> 0.22380631E+03</totfact>
</mgrwt>
</event>
<event>
 5    1  0.1281005E-004  0.1922768E+03  0.7546771E-02  0.1156424E+00
         21   -1    0    0  503  502  0.00000000000E+00  0.00000000000E+00  0.69400982931E+02  0.69400982931E+02  0.00000000000E+00 0. -1.
         21   -1    0    0  501  503 -0.00000000000E+00 -0.00000000000E+00 -0.56900716566E+03  0.56900716566E+03  0.00000000000E+00 0.  1.
         24    1    1    2    0    0 -0.70391764094E+02  0.38381552595E+02 -0.13328109451E+03  0.17509771598E+03  0.80419002446E+02 0.  0.
          1    1    1    2  501    0 -0.98345307050E+02 -0.26436499399E+02 -0.20811926420E+03  0.23169876143E+03  0.00000000000E+00 0. -1.
         -2    1    1    2    0  502  0.16873707114E+03 -0.11945053196E+02 -0.15820582402E+03  0.23161167118E+03  0.00000000000E+00 0.  1.
<mgrwt>
<rscale>  2 0.19227683E+03</rscale>
<asrwt>0</asrwt>
<pdfrwt beam="1">  1       21 0.10677074E-01 0.19227683E+03</pdfrwt>
<pdfrwt beam="2">  1       21 0.87539564E-01 0.19227683E+03</pdfrwt>
<totfact> 0.80945390E+04</totfact>
</mgrwt>
</event>
<event>
 5    1  0.1281005E-004  0.1239232E+03  0.7546771E-02  0.1236762E+00
         21   -1    0    0  501  502  0.00000000000E+00  0.00000000000E+00  0.41201921459E+02  0.41201921459E+02  0.00000000000E+00 0.  1.
         21   -1    0    0  502  503 -0.00000000000E+00 -0.00000000000E+00 -0.40249472918E+03  0.40249472918E+03  0.00000000000E+00 0. -1.
         24    1    1    2    0    0  0.37933928495E+02  0.33152888901E+02 -0.19933295607E+03  0.22076897496E+03  0.80419002446E+02 0. -1.
          1    1    1    2  501    0 -0.31891636703E+02  0.55543510709E+02 -0.61767526660E+02  0.88979691072E+02  0.00000000000E+00 0. -1.
         -2    1    1    2    0  503 -0.60422917918E+01 -0.88696399610E+02 -0.10019232499E+03  0.13394798461E+03  0.00000000000E+00 0.  1.
<mgrwt>
<rscale>  2 0.12392320E+03</rscale>
<asrwt>0</asrwt>
<pdfrwt beam="1">  1       21 0.63387570E-02 0.12392320E+03</pdfrwt>
<pdfrwt beam="2">  1       21 0.61922267E-01 0.12392320E+03</pdfrwt>
<totfact> 0.43937652E+05</totfact>
</mgrwt>
</event>
<event>
 5    1  0.1281005E-004  0.1381130E+03  0.7546771E-02  0.1215891E+00
         21   -1    0    0  501  502  0.00000000000E+00  0.00000000000E+00  0.20094401340E+03  0.20094401340E+03  0.00000000000E+00 0.  1.
         21   -1    0    0  502  503 -0.00000000000E+00 -0.00000000000E+00 -0.10820014956E+03  0.10820014956E+03  0.00000000000E+00 0. -1.
         24    1    1    2    0    0  0.14528313727E+02  0.34622486586E+02  0.82780339506E+02  0.12136551833E+03  0.80419002446E+02 0.  1.
          1    1    1    2  501    0 -0.83592757655E+01 -0.11076574392E+03  0.39820264844E+01  0.11115207624E+03  0.00000000000E+00 0. -1.
         -2    1    1    2    0  503 -0.61690379619E+01  0.76143257335E+02  0.59814978523E+01  0.76626568392E+02  0.00000000000E+00 0.  1.
<mgrwt>
<rscale>  2 0.13811298E+03</rscale>
<asrwt>0</asrwt>
<pdfrwt beam="1">  1       21 0.30914463E-01 0.13811298E+03</pdfrwt>
<pdfrwt beam="2">  1       21 0.16646177E-01 0.13811298E+03</pdfrwt>
<totfact> 0.32941220E+05</totfact>
</mgrwt>
</event>
<event>
 5    1  0.1281005E-004  0.1875284E+03  0.7546771E-02  0.1160710E+00
         21   -1    0    0  503  502  0.00000000000E+00  0.00000000000E+00  0.52328840175E+02  0.52328840175E+02  0.00000000000E+00 0.  1.
         21   -1    0    0  501  503 -0.00000000000E+00 -0.00000000000E+00 -0.72357302932E+03  0.72357302932E+03  0.00000000000E+00 0. -1.
         24    1    1    2    0    0 -0.38437243680E+02  0.32219065856E+02 -0.11139217366E+03  0.14625635785E+03  0.80419002446E+02 0.  1.
          1    1    1    2  501    0 -0.17794669671E+02  0.11828391781E+03 -0.31337723504E+03  0.33542961545E+03  0.00000000000E+00 0. -1.
         -2    1    1    2    0  502  0.56231913350E+02 -0.15050298367E+03 -0.24647478045E+03  0.29421589619E+03  0.00000000000E+00 0.  1.
<mgrwt>
<rscale>  2 0.18752844E+03</rscale>
<asrwt>0</asrwt>
<pdfrwt beam="1">  1       21 0.80505906E-02 0.18752844E+03</pdfrwt>
<pdfrwt beam="2">  1       21 0.11131893E+00 0.18752844E+03</pdfrwt>
<totfact> 0.75488575E+04</totfact>
</mgrwt>
</event>
<event>
 5    1  0.1281005E-004  0.1001348E+03  0.7546771E-02  0.1280013E+00
         21   -1    0    0  503  502  0.00000000000E+00  0.00000000000E+00  0.47513078189E+02  0.47513078189E+02  0.00000000000E+00 0. -1.
         21   -1    0    0  501  503 -0.00000000000E+00 -0.00000000000E+00 -0.22021796858E+03  0.22021796858E+03  0.00000000000E+00 0. -1.
         24    1    1    2    0    0 -0.53100433596E+02  0.65355416118E+01 -0.56174059066E+02  0.11173678991E+03  0.80419002446E+02 0. -1.
          1    1    1    2  501    0  0.75224464236E+02 -0.19926409053E+02 -0.85956767393E+02  0.11594976351E+03  0.00000000000E+00 0. -1.
         -2    1    1    2    0  502 -0.22124030640E+02  0.13390867441E+02 -0.30574063935E+02  0.40044493356E+02  0.00000000000E+00 0.  1.
<mgrwt>
<rscale>  2 0.10013481E+03</rscale>
<asrwt>0</asrwt>
<pdfrwt beam="1">  1       21 0.73097045E-02 0.10013481E+03</pdfrwt>
<pdfrwt beam="2">  1       21 0.33879687E-01 0.10013481E+03</pdfrwt>
<totfact> 0.11731635E+06</totfact>
</mgrwt>
</event>
<event>
 5    1  0.1281005E-004  0.2863328E+03  0.7546771E-02  0.1092280E+00
         21   -1    0    0  503  502  0.00000000000E+00  0.00000000000E+00  0.49873729925E+03  0.49873729925E+03  0.00000000000E+00 0. -1.
         21   -1    0    0  501  503 -0.00000000000E+00 -0.00000000000E+00 -0.16484472647E+03  0.16484472647E+03  0.00000000000E+00 0. -1.
         24    1    1    2    0    0 -0.75809314438E+02  0.25655515698E+03  0.15621490976E+03  0.32005923625E+03  0.80419002446E+02 0. -1.
          1    1    1    2  501    0  0.97065323169E+02 -0.25399332645E+03  0.15821653777E+03  0.31458982766E+03  0.00000000000E+00 0. -1.
         -2    1    1    2    0  502 -0.21256008731E+02 -0.25618305273E+01  0.19461125248E+02  0.28932961803E+02  0.00000000000E+00 0.  1.
<mgrwt>
<rscale>  2 0.28633278E+03</rscale>
<asrwt>0</asrwt>
<pdfrwt beam="1">  1       21 0.76728814E-01 0.28633278E+03</pdfrwt>
<pdfrwt beam="2">  1       21 0.25360727E-01 0.28633278E+03</pdfrwt>
<totfact> 0.21236132E+04</totfact>
</mgrwt>
</event>
<event>
 5    1  0.1281005E-004  0.1277709E+03  0.7546771E-02  0.1230801E+00
         21   -1    0    0  503  502  0.00000000000E+00  0.00000000000E+00  0.10698944877E+02  0.10698944877E+02  0.00000000000E+00 0.  1.
         21   -1    0    0  501  503 -0.00000000000E+00 -0.00000000000E+00 -0.15266400636E+04  0.15266400636E+04  0.00000000000E+00 0. -1.
         24    1    1    2    0    0  0.14159498068E+02  0.76676883394E+02 -0.66959025159E+03  0.67889480541E+03  0.80419002446E+02 0. -1.
          1    1    1    2  501    0 -0.29126717263E+01  0.33074298664E+02 -0.18578459819E+03  0.18872813731E+03  0.00000000000E+00 0. -1.
         -2    1    1    2    0  502 -0.11246826341E+02 -0.10975118206E+03 -0.66056626895E+03  0.66971606577E+03  0.00000000000E+00 0.  1.
<mgrwt>
<rscale>  2 0.12777093E+03</rscale>
<asrwt>0</asrwt>
<pdfrwt beam="1">  1       21 0.16459912E-02 0.12777093E+03</pdfrwt>
<pdfrwt beam="2">  1       21 0.23486775E+00 0.12777093E+03</pdfrwt>
<totfact> 0.14417501E+05</totfact>
</mgrwt>
</event>
<event>
 5    1  0.1281005E-004  0.1736343E+03  0.7546771E-02  0.1174110E+00
         21   -1    0    0  503  502  0.00000000000E+00  0.00000000000E+00  0.54679623957E+03  0.54679623957E+03  0.00000000000E+00 0. -1.
         21   -1    0    0  501  503 -0.00000000000E+00 -0.00000000000E+00 -0.56037671996E+02  0.56037671996E+02  0.00000000000E+00 0.  1.
         24    1    1    2    0    0 -0.13215904361E+02 -0.37453559331E+02  0.12214647726E+03  0.15154011712E+03  0.80419002446E+02 0.  1.
          1    1    1    2  501    0  0.10544825586E+03 -0.61687937775E+02  0.14212582674E+03  0.18741527941E+03  0.00000000000E+00 0. -1.
         -2    1    1    2    0  502 -0.92232351495E+02  0.99141497107E+02  0.22648626357E+03  0.26387851503E+03  0.00000000000E+00 0.  1.
<mgrwt>
<rscale>  2 0.17363435E+03</rscale>
<asrwt>0</asrwt>
<pdfrwt beam="1">  1       21 0.84122495E-01 0.17363435E+03</pdfrwt>
<pdfrwt beam="2">  1       21 0.86211807E-02 0.17363435E+03</pdfrwt>
<totfact> 0.13014109E+05</totfact>
</mgrwt>
</event>
<event>
 5    1  0.1281005E-004  0.9120805E+02  0.7546771E-02  0.1299952E+00
         21   -1    0    0  503  502  0.00000000000E+00  0.00000000000E+00  0.20616849819E+03  0.20616849819E+03  0.00000000000E+00 0.  1.
         21   -1    0    0  501  503 -0.00000000000E+00 -0.00000000000E+00 -0.44404406213E+02  0.44404406213E+02  0.00000000000E+00 0. -1.
         24    1    1    2    0    0 -0.37407471692E+01 -0.36158167471E+02  0.11246947547E+03  0.14296155124E+03  0.80419002446E+02 0.  1.
          1    1    1    2  501    0 -0.34159255911E+02  0.43754087970E+02  0.19598465716E+02  0.58867434435E+02  0.00000000000E+00 0. -1.
         -2    1    1    2    0  502  0.37900003080E+02 -0.75959204988E+01  0.29696150782E+02  0.48743918728E+02  0.00000000000E+00 0.  1.
<mgrwt>
<rscale>  2 0.91208050E+02</rscale>
<asrwt>0</asrwt>
<pdfrwt beam="1">  1       21 0.31718230E-01 0.91208050E+02</pdfrwt>
<pdfrwt beam="2">  1       21 0.68314472E-02 0.91208050E+02</pdfrwt>
<totfact> 0.14916946E+06</totfact>
</mgrwt>
</event>
<event>
 5    1  0.1281005E-004  0.1398422E+03  0.7546771E-02  0.1213541E+00
         21   -1    0    0  501  502  0.00000000000E+00  0.00000000000E+00  0.19538228848E+02  0.19538228848E+02  0.00000000000E+00 0.  1.
         21   -1    0    0  502  503 -0.00000000000E+00 -0.00000000000E+00 -0.10640400793E+04  0.10640400793E+04  0.00000000000E+00 0.  1.
         24    1    1    2    0    0 -0.91581214639E+02 -0.46311972919E+02 -0.54539893568E+03  0.56076655812E+03  0.80419002446E+02 0.  1.
          1    1    1    2  501    0 -0.75022065706E+01 -0.25728010560E+02 -0.16066224185E+03  0.16288207264E+03  0.00000000000E+00 0. -1.
         -2    1    1    2    0  503  0.99083421210E+02  0.72039983479E+02 -0.33844067293E+03  0.35992967740E+03  0.00000000000E+00 0.  1.
<mgrwt>
<rscale>  2 0.13984223E+03</rscale>
<asrwt>0</asrwt>
<pdfrwt beam="1">  1       21 0.30058807E-02 0.13984223E+03</pdfrwt>
<pdfrwt beam="2">  1       21 0.16369851E+00 0.13984223E+03</pdfrwt>
<totfact> 0.15291365E+05</totfact>
</mgrwt>
</event>
<event>
 5    1  0.1281005E-004  0.3088497E+03  0.7546771E-02  0.1080899E+00
         21   -1    0    0  501  502  0.00000000000E+00  0.00000000000E+00  0.68251189523E+03  0.68251189523E+03  0.00000000000E+00 0. -1.
         21   -1    0    0  502  503 -0.00000000000E+00 -0.00000000000E+00 -0.15934403140E+03  0.15934403140E+03  0.00000000000E+00 0.  1.
         24    1    1    2    0    0  0.20592260354E+02  0.59916208937E+02  0.22110453520E+03  0.24365636606E+03  0.80419002446E+02 0. -1.
          1    1    1    2  501    0  0.24304612228E+03  0.76371941824E+01  0.16125648291E+03  0.29177628000E+03  0.00000000000E+00 0. -1.
         -2    1    1    2    0  503 -0.26363838264E+03 -0.67553403119E+02  0.14080684572E+03  0.30642328057E+03  0.00000000000E+00 0.  1.
<mgrwt>
<rscale>  2 0.30884972E+03</rscale>
<asrwt>0</asrwt>
<pdfrwt beam="1">  1       21 0.10500183E+00 0.30884972E+03</pdfrwt>
<pdfrwt beam="2">  1       21 0.24514467E-01 0.30884972E+03</pdfrwt>
<totfact> 0.10760776E+04</totfact>
</mgrwt>
</event>
<event>
 5    1  0.1281005E-004  0.1708834E+03  0.7546771E-02  0.1176930E+00
         21   -1    0    0  503  502  0.00000000000E+00  0.00000000000E+00  0.22363044548E+03  0.22363044548E+03  0.00000000000E+00 0.  1.
         21   -1    0    0  501  503 -0.00000000000E+00 -0.00000000000E+00 -0.15112152934E+03  0.15112152934E+03  0.00000000000E+00 0.  1.
         24    1    1    2    0    0 -0.71132109248E+02  0.13504843344E+03 -0.30015704636E+02  0.17511714599E+03  0.80419002446E+02 0.  1.
          1    1    1    2  501    0 -0.13496228469E+02 -0.38789943680E+02  0.12232563326E+02  0.42853745684E+02  0.00000000000E+00 0. -1.
         -2    1    1    2    0  502  0.84628337716E+02 -0.96258489756E+02  0.90292057446E+02  0.15678108315E+03  0.00000000000E+00 0.  1.
<mgrwt>
<rscale>  2 0.17088337E+03</rscale>
<asrwt>0</asrwt>
<pdfrwt beam="1">  1       21 0.34404684E-01 0.17088337E+03</pdfrwt>
<pdfrwt beam="2">  1       21 0.23249466E-01 0.17088337E+03</pdfrwt>
<totfact> 0.14261316E+05</totfact>
</mgrwt>
</event>
<event>
 5    1  0.1281005E-004  0.8874774E+02  0.7546771E-02  0.1305913E+00
         21   -1    0    0  501  502  0.00000000000E+00  0.00000000000E+00  0.33484742775E+03  0.33484742775E+03  0.00000000000E+00 0.  1.
         21   -1    0    0  502  503 -0.00000000000E+00 -0.00000000000E+00 -0.27564374930E+02  0.27564374930E+02  0.00000000000E+00 0. -1.
         24    1    1    2    0    0  0.32650060275E+02  0.12491693855E+02  0.83543132161E+02  0.12111457277E+03  0.80419002446E+02 0. -1.
          1    1    1    2  501    0 -0.41475008574E+02 -0.41988217210E+02  0.15926006655E+03  0.16984391517E+03  0.00000000000E+00 0. -1.
         -2    1    1    2    0  503  0.88249482990E+01  0.29496523355E+02  0.64479854107E+02  0.71453314746E+02  0.00000000000E+00 0.  1.
<mgrwt>
<rscale>  2 0.88747740E+02</rscale>
<asrwt>0</asrwt>
<pdfrwt beam="1">  1       21 0.51514986E-01 0.88747740E+02</pdfrwt>
<pdfrwt beam="2">  1       21 0.42406733E-02 0.88747740E+02</pdfrwt>
<totfact> 0.12637662E+06</totfact>
</mgrwt>
</event>
<event>
 5    1  0.1281005E-004  0.4761836E+03  0.7546771E-02  0.1020189E+00
         21   -1    0    0  503  502  0.00000000000E+00  0.00000000000E+00  0.33452471373E+03  0.33452471373E+03  0.00000000000E+00 0.  1.
         21   -1    0    0  501  503 -0.00000000000E+00 -0.00000000000E+00 -0.68881090342E+03  0.68881090342E+03  0.00000000000E+00 0. -1.
         24    1    1    2    0    0 -0.10961961152E+03 -0.25050434741E+03 -0.59984058919E+02  0.29126309512E+03  0.80419002446E+02 0.  0.
          1    1    1    2  501    0  0.14242224041E+03  0.44648019765E+03 -0.23761629896E+03  0.52544282942E+03  0.00000000000E+00 0. -1.
         -2    1    1    2    0  502 -0.32802628893E+02 -0.19597585024E+03 -0.56685831801E+02  0.20662969260E+03  0.00000000000E+00 0.  1.
<mgrwt>
<rscale>  2 0.47618360E+03</rscale>
<asrwt>0</asrwt>
<pdfrwt beam="1">  1       21 0.51465341E-01 0.47618360E+03</pdfrwt>
<pdfrwt beam="2">  1       21 0.10597091E+00 0.47618360E+03</pdfrwt>
<totfact> 0.21931357E+03</totfact>
</mgrwt>
</event>
<event>
 5    1  0.1281005E-004  0.1077560E+03  0.7546771E-02  0.1264783E+00
         21   -1    0    0  503  502  0.00000000000E+00  0.00000000000E+00  0.13638071877E+02  0.13638071877E+02  0.00000000000E+00 0. -1.
         21   -1    0    0  501  503 -0.00000000000E+00 -0.00000000000E+00 -0.86412478239E+03  0.86412478239E+03  0.00000000000E+00 0.  1.
         24    1    1    2    0    0 -0.18266224432E+02  0.66789370712E+00 -0.37869976770E+03  0.38757558108E+03  0.80419002446E+02 0.  1.
          1    1    1    2  501    0 -0.56426220707E+02 -0.11447217746E+02 -0.20289284376E+03  0.21090391942E+03  0.00000000000E+00 0. -1.
         -2    1    1    2    0  502  0.74692445139E+02  0.10779324039E+02 -0.26889409906E+03  0.27928335378E+03  0.00000000000E+00 0.  1.
<mgrwt>
<rscale>  2 0.10775601E+03</rscale>
<asrwt>0</asrwt>
<pdfrwt beam="1">  1       21 0.20981654E-02 0.10775601E+03</pdfrwt>
<pdfrwt beam="2">  1       21 0.13294224E+00 0.10775601E+03</pdfrwt>
<totfact> 0.47461105E+05</totfact>
</mgrwt>
</event>
<event>
 5    1  0.1281005E-004  0.1535353E+03  0.7546771E-02  0.1196195E+00
         21   -1    0    0  501  502  0.00000000000E+00  0.00000000000E+00  0.22279641983E+03  0.22279641983E+03  0.00000000000E+00 0.  1.
         21   -1    0    0  502  503 -0.00000000000E+00 -0.00000000000E+00 -0.10658799972E+03  0.10658799972E+03  0.00000000000E+00 0. -1.
         24    1    1    2    0    0 -0.44244126752E+02 -0.12379922519E+02  0.23034094411E+02  0.95438936988E+02  0.80419002446E+02 0. -1.
          1    1    1    2  501    0  0.67898370803E+02 -0.88098696861E+02  0.52506598748E+02  0.12299801648E+03  0.00000000000E+00 0. -1.
         -2    1    1    2    0  503 -0.23654244050E+02  0.10047861938E+03  0.40667726951E+02  0.11094746608E+03  0.00000000000E+00 0.  1.
<mgrwt>
<rscale>  2 0.15353526E+03</rscale>
<asrwt>0</asrwt>
<pdfrwt beam="1">  1       21 0.34276372E-01 0.15353526E+03</pdfrwt>
<pdfrwt beam="2">  1       21 0.16398154E-01 0.15353526E+03</pdfrwt>
<totfact> 0.27597155E+05</totfact>
</mgrwt>
</event>
<event>
 5    1  0.1281005E-004  0.1502345E+03  0.7546771E-02  0.1200185E+00
         21   -1    0    0  501  502  0.00000000000E+00  0.00000000000E+00  0.17191671787E+03  0.17191671787E+03  0.00000000000E+00 0.  1.
         21   -1    0    0  502  503 -0.00000000000E+00 -0.00000000000E+00 -0.18122187865E+03  0.18122187865E+03  0.00000000000E+00 0.  1.
         24    1    1    2    0    0 -0.25782825666E+02  0.75001320966E+02  0.73054728427E+02  0.13451454028E+03  0.80419002446E+02 0.  1.
          1    1    1    2  501    0 -0.19486077978E+01  0.54777856005E+02  0.11591504851E+02  0.56024758505E+02  0.00000000000E+00 0. -1.
         -2    1    1    2    0  503  0.27731433464E+02 -0.12977917697E+03 -0.93951394060E+02  0.16259929773E+03  0.00000000000E+00 0.  1.
<mgrwt>
<rscale>  2 0.15023455E+03</rscale>
<asrwt>0</asrwt>
<pdfrwt beam="1">  1       21 0.26448726E-01 0.15023455E+03</pdfrwt>
<pdfrwt beam="2">  1       21 0.27880289E-01 0.15023455E+03</pdfrwt>
<totfact> 0.16923027E+05</totfact>
</mgrwt>
</event>
<event>
 5    1  0.1281005E-004  0.2118690E+03  0.7546771E-02  0.1140094E+00
         21   -1    0    0  501  502  0.00000000000E+00  0.00000000000E+00  0.79519840597E+03  0.79519840597E+03  0.00000000000E+00 0.  1.
         21   -1    0    0  502  503 -0.00000000000E+00 -0.00000000000E+00 -0.56569143637E+02  0.56569143637E+02  0.00000000000E+00 0. -1.
         24    1    1    2    0    0  0.14943308212E+02  0.12347087973E+02  0.12912890660E+03  0.15335332900E+03  0.80419002446E+02 0.  0.
          1    1    1    2  501    0 -0.17736392783E+03 -0.19532669528E+02  0.31877793312E+03  0.36532021395E+03  0.00000000000E+00 0. -1.
         -2    1    1    2    0  503  0.16242061962E+03  0.71855815550E+01  0.29072242262E+03  0.33309400666E+03  0.00000000000E+00 0.  1.
<mgrwt>
<rscale>  2 0.21186898E+03</rscale>
<asrwt>0</asrwt>
<pdfrwt beam="1">  1       21 0.12233821E+00 0.21186898E+03</pdfrwt>
<pdfrwt beam="2">  1       21 0.87029458E-02 0.21186898E+03</pdfrwt>
<totfact> 0.51626368E+04</totfact>
</mgrwt>
</event>
<event>
 5    1  0.1281005E-004  0.1453227E+03  0.7546771E-02  0.1206341E+00
         21   -1    0    0  503  502  0.00000000000E+00  0.00000000000E+00  0.10677252370E+03  0.10677252370E+03  0.00000000000E+00 0. -1.
         21   -1    0    0  501  503 -0.00000000000E+00 -0.00000000000E+00 -0.23436997004E+03  0.23436997004E+03  0.00000000000E+00 0.  1.
         24    1    1    2    0    0 -0.78824810645E+02  0.41466689311E+02 -0.12091847382E+03  0.17035648025E+03  0.80419002446E+02 0.  1.
          1    1    1    2  501    0  0.75209521096E+01  0.52304996228E+02 -0.29304318285E+01  0.52924141767E+02  0.00000000000E+00 0. -1.
         -2    1    1    2    0  502  0.71303858536E+02 -0.93771685539E+02 -0.37485406871E+01  0.11786187173E+03  0.00000000000E+00 0.  1.
<mgrwt>
<rscale>  2 0.14532271E+03</rscale>
<asrwt>0</asrwt>
<pdfrwt beam="1">  1       21 0.16426542E-01 0.14532271E+03</pdfrwt>
<pdfrwt beam="2">  1       21 0.36056918E-01 0.14532271E+03</pdfrwt>
<totfact> 0.24934205E+05</totfact>
</mgrwt>
</event>
<event>
 5    1  0.1281005E-004  0.2655245E+03  0.7546771E-02  0.1103869E+00
         21   -1    0    0  501  502  0.00000000000E+00  0.00000000000E+00  0.30539575909E+02  0.30539575909E+02  0.00000000000E+00 0.  1.
         21   -1    0    0  502  503 -0.00000000000E+00 -0.00000000000E+00 -0.25656723850E+04  0.25656723850E+04  0.00000000000E+00 0. -1.
         24    1    1    2    0    0 -0.15170987883E+03  0.72016877353E+01 -0.12517519223E+04  0.12634942986E+04  0.80419002446E+02 0. -1.
          1    1    1    2  501    0 -0.67753854949E+02 -0.10010118649E+03 -0.44452161894E+03  0.46066289421E+03  0.00000000000E+00 0. -1.
         -2    1    1    2    0  503  0.21946373378E+03  0.92899498755E+02 -0.83885926784E+03  0.87205476809E+03  0.00000000000E+00 0.  1.
<mgrwt>
<rscale>  2 0.26552448E+03</rscale>
<asrwt>0</asrwt>
<pdfrwt beam="1">  1       21 0.46983970E-02 0.26552448E+03</pdfrwt>
<pdfrwt beam="2">  1       21 0.39471877E+00 0.26552448E+03</pdfrwt>
<totfact> 0.25714305E+03</totfact>
</mgrwt>
</event>
<event>
 5    1  0.1281005E-004  0.1952942E+03  0.7546771E-02  0.1153771E+00
         21   -1    0    0  501  502  0.00000000000E+00  0.00000000000E+00  0.21077036947E+03  0.21077036947E+03  0.00000000000E+00 0. -1.
         21   -1    0    0  502  503 -0.00000000000E+00 -0.00000000000E+00 -0.18633847343E+03  0.18633847343E+03  0.00000000000E+00 0.  1.
         24    1    1    2    0    0 -0.10211362221E+03 -0.62727380463E+02 -0.13555613585E+02  0.14495822403E+03  0.80419002446E+02 0.  1.
          1    1    1    2  501    0  0.15443822631E+03  0.98232242129E+02  0.10890011062E+02  0.18335575115E+03  0.00000000000E+00 0. -1.
         -2    1    1    2    0  503 -0.52324604098E+02 -0.35504861667E+02  0.27097498557E+02  0.68794867716E+02  0.00000000000E+00 0.  1.
<mgrwt>
<rscale>  2 0.19529423E+03</rscale>
<asrwt>0</asrwt>
<pdfrwt beam="1">  1       21 0.32426211E-01 0.19529423E+03</pdfrwt>
<pdfrwt beam="2">  1       21 0.28667457E-01 0.19529423E+03</pdfrwt>
<totfact> 0.10641606E+05</totfact>
</mgrwt>
</event>
<event>
 5    1  0.1281005E-004  0.3731563E+03  0.7546771E-02  0.1053493E+00
         21   -1    0    0  501  502  0.00000000000E+00  0.00000000000E+00  0.54355944704E+03  0.54355944704E+03  0.00000000000E+00 0. -1.
         21   -1    0    0  502  503 -0.00000000000E+00 -0.00000000000E+00 -0.27686265755E+03  0.27686265755E+03  0.00000000000E+00 0. -1.
         24    1    1    2    0    0  0.18730879057E+03  0.18622505760E+03  0.10982197321E+03  0.29714043289E+03  0.80419002446E+02 0. -1.
          1    1    1    2  501    0 -0.19360346041E+03 -0.29957377677E+03  0.19117357036E+03  0.40469010565E+03  0.00000000000E+00 0. -1.
         -2    1    1    2    0  503  0.62946698378E+01  0.11334871917E+03 -0.34298754074E+02  0.11859156605E+03  0.00000000000E+00 0.  1.
<mgrwt>
<rscale>  2 0.37315630E+03</rscale>
<asrwt>0</asrwt>
<pdfrwt beam="1">  1       21 0.83624530E-01 0.37315630E+03</pdfrwt>
<pdfrwt beam="2">  1       21 0.42594255E-01 0.37315630E+03</pdfrwt>
<totfact> 0.59782456E+03</totfact>
</mgrwt>
</event>
<event>
 5    1  0.1281005E-004  0.1186475E+03  0.7546771E-02  0.1245345E+00
         21   -1    0    0  503  502  0.00000000000E+00  0.00000000000E+00  0.17640888756E+03  0.17640888756E+03  0.00000000000E+00 0. -1.
         21   -1    0    0  501  503 -0.00000000000E+00 -0.00000000000E+00 -0.80499004550E+02  0.80499004550E+02  0.00000000000E+00 0.  1.
         24    1    1    2    0    0 -0.22093647280E+02  0.19629184066E+02  0.37923436788E+02  0.93695448819E+02  0.80419002446E+02 0.  1.
          1    1    1    2  501    0  0.72908259376E+02 -0.53602402658E+02  0.25631493553E+02  0.94052141484E+02  0.00000000000E+00 0. -1.
         -2    1    1    2    0  502 -0.50814612095E+02  0.33973218593E+02  0.32354952669E+02  0.69160301808E+02  0.00000000000E+00 0.  1.
<mgrwt>
<rscale>  2 0.11864754E+03</rscale>
<asrwt>0</asrwt>
<pdfrwt beam="1">  1       21 0.27139829E-01 0.11864754E+03</pdfrwt>
<pdfrwt beam="2">  1       21 0.12384462E-01 0.11864754E+03</pdfrwt>
<totfact> 0.72068478E+05</totfact>
</mgrwt>
</event>
<event>
 5    1  0.1281005E-004  0.2124625E+03  0.7546771E-02  0.1139631E+00
         21   -1    0    0  501  502  0.00000000000E+00  0.00000000000E+00  0.39821485489E+03  0.39821485489E+03  0.00000000000E+00 0.  1.
         21   -1    0    0  502  503 -0.00000000000E+00 -0.00000000000E+00 -0.12744719378E+03  0.12744719378E+03  0.00000000000E+00 0. -1.
         24    1    1    2    0    0  0.61442324476E+02 -0.12957134627E+02 -0.19016366123E+01  0.10204841376E+03  0.80419002446E+02 0.  0.
          1    1    1    2  501    0  0.99535546255E+02  0.98981073300E+02  0.13744763765E+03  0.19645974380E+03  0.00000000000E+00 0. -1.
         -2    1    1    2    0  503 -0.16097787073E+03 -0.86023938673E+02  0.13522166008E+03  0.22715389111E+03  0.00000000000E+00 0.  1.
<mgrwt>
<rscale>  2 0.21246245E+03</rscale>
<asrwt>0</asrwt>
<pdfrwt beam="1">  1       21 0.61263823E-01 0.21246245E+03</pdfrwt>
<pdfrwt beam="2">  1       21 0.19607261E-01 0.21246245E+03</pdfrwt>
<totfact> 0.58801700E+04</totfact>
</mgrwt>
</event>
<event>
 5    1  0.1281005E-004  0.1284565E+03  0.7546771E-02  0.1229764E+00
         21   -1    0    0  501  502  0.00000000000E+00  0.00000000000E+00  0.39704304312E+03  0.39704304312E+03  0.00000000000E+00 0.  1.
         21   -1    0    0  502  503 -0.00000000000E+00 -0.00000000000E+00 -0.44977463517E+02  0.44977463517E+02  0.00000000000E+00 0. -1.
         24    1    1    2    0    0 -0.63060205548E+01 -0.20656444104E+02  0.61809190302E+02  0.10370171907E+03  0.80419002446E+02 0.  0.
          1    1    1    2  501    0  0.83654935486E+02  0.41716593378E+02  0.16365679003E+03  0.18847272301E+03  0.00000000000E+00 0. -1.
         -2    1    1    2    0  503 -0.77348914931E+02 -0.21060149274E+02  0.12659959927E+03  0.14984606456E+03  0.00000000000E+00 0.  1.
<mgrwt>
<rscale>  2 0.12845646E+03</rscale>
<asrwt>0</asrwt>
<pdfrwt beam="1">  1       21 0.61083543E-01 0.12845646E+03</pdfrwt>
<pdfrwt beam="2">  1       21 0.69196100E-02 0.12845646E+03</pdfrwt>
<totfact> 0.38931678E+05</totfact>
</mgrwt>
</event>
<event>
 5    1  0.1281005E-004  0.1749853E+03  0.7546771E-02  0.1172746E+00
         21   -1    0    0  501  502  0.00000000000E+00  0.00000000000E+00  0.66461391672E+03  0.66461391672E+03  0.00000000000E+00 0. -1.
         21   -1    0    0  502  503 -0.00000000000E+00 -0.00000000000E+00 -0.46902562632E+02  0.46902562632E+02  0.00000000000E+00 0.  1.
         24    1    1    2    0    0  0.19864357749E+02 -0.34125682424E+02  0.18885522139E+03  0.20902790605E+03  0.80419002446E+02 0. -1.
          1    1    1    2  501    0 -0.32670654939E+02  0.14506809273E+03  0.21805877907E+03  0.26393513285E+03  0.00000000000E+00 0. -1.
         -2    1    1    2    0  503  0.12806297190E+02 -0.11094241031E+03  0.21079735363E+03  0.23855344045E+03  0.00000000000E+00 0.  1.
<mgrwt>
<rscale>  2 0.17498528E+03</rscale>
<asrwt>0</asrwt>
<pdfrwt beam="1">  1       21 0.10224829E+00 0.17498528E+03</pdfrwt>
<pdfrwt beam="2">  1       21 0.72157794E-02 0.17498528E+03</pdfrwt>
<totfact> 0.11255046E+05</totfact>
</mgrwt>
</event>
<event>
 5    1  0.1281005E-004  0.1665357E+03  0.7546771E-02  0.1181509E+00
         21   -1    0    0  503  502  0.00000000000E+00  0.00000000000E+00  0.76236300820E+03  0.76236300820E+03  0.00000000000E+00 0.  1.
         21   -1    0    0  501  503 -0.00000000000E+00 -0.00000000000E+00 -0.40511231839E+02  0.40511231839E+02  0.00000000000E+00 0.  1.
         24    1    1    2    0    0  0.45000261356E+01 -0.10854083952E+03  0.38569618019E+03  0.40869318987E+03  0.80419002446E+02 0.  1.
          1    1    1    2  501    0 -0.16981200560E+02 -0.42805119240E+02  0.13155144348E+03  0.13937869883E+03  0.00000000000E+00 0. -1.
         -2    1    1    2    0  502  0.12481174424E+02  0.15134595876E+03  0.20460415269E+03  0.25480235134E+03  0.00000000000E+00 0.  1.
<mgrwt>
<rscale>  2 0.16653572E+03</rscale>
<asrwt>0</asrwt>
<pdfrwt beam="1">  1       21 0.11728661E+00 0.16653572E+03</pdfrwt>
<pdfrwt beam="2">  1       21 0.62324978E-02 0.16653572E+03</pdfrwt>
<totfact> 0.10440519E+05</totfact>
</mgrwt>
</event>
<event>
 5    1  0.1281005E-004  0.2352511E+03  0.7546771E-02  0.1122997E+00
         21   -1    0    0  501  502  0.00000000000E+00  0.00000000000E+00  0.37151849625E+03  0.37151849625E+03  0.00000000000E+00 0. -1.
         21   -1    0    0  502  503 -0.00000000000E+00 -0.00000000000E+00 -0.17464623847E+03  0.17464623847E+03  0.00000000000E+00 0.  1.
         24    1    1    2    0    0 -0.14201004766E+02  0.22913559274E+02  0.12827431962E+03  0.15377976708E+03  0.80419002446E+02 0.  0.
          1    1    1    2  501    0  0.16321623840E+03 -0.12454917965E+03  0.25095561089E+02  0.20683767988E+03  0.00000000000E+00 0. -1.
         -2    1    1    2    0  503 -0.14901523364E+03  0.10163562037E+03  0.43502377069E+02  0.18554728776E+03  0.00000000000E+00 0.  1.
<mgrwt>
<rscale>  2 0.23525106E+03</rscale>
<asrwt>0</asrwt>
<pdfrwt beam="1">  1       21 0.57156692E-01 0.23525106E+03</pdfrwt>
<pdfrwt beam="2">  1       21 0.26868652E-01 0.23525106E+03</pdfrwt>
<totfact> 0.37134363E+04</totfact>
</mgrwt>
</event>
<event>
 5    1  0.1281005E-004  0.2085749E+03  0.7546771E-02  0.1142700E+00
         21   -1    0    0  501  502  0.00000000000E+00  0.00000000000E+00  0.82016039464E+02  0.82016039464E+02  0.00000000000E+00 0.  1.
         21   -1    0    0  502  503 -0.00000000000E+00 -0.00000000000E+00 -0.53200513371E+03  0.53200513371E+03  0.00000000000E+00 0. -1.
         24    1    1    2    0    0 -0.91168858387E+02 -0.10735233505E+03 -0.18608081580E+03  0.24683915926E+03  0.80419002446E+02 0. -1.
          1    1    1    2  501    0  0.11900292634E+03  0.15762487552E+03 -0.21201995089E+03  0.28975810158E+03  0.00000000000E+00 0. -1.
         -2    1    1    2    0  503 -0.27834067949E+02 -0.50272540471E+02 -0.51888327556E+02  0.77423912331E+02  0.00000000000E+00 0.  1.
<mgrwt>
<rscale>  2 0.20857489E+03</rscale>
<asrwt>0</asrwt>
<pdfrwt beam="1">  1       21 0.12617852E-01 0.20857489E+03</pdfrwt>
<pdfrwt beam="2">  1       21 0.81846944E-01 0.20857489E+03</pdfrwt>
<totfact> 0.69536669E+04</totfact>
</mgrwt>
</event>
<event>
 5    1  0.1281005E-004  0.1248543E+03  0.7546771E-02  0.1235297E+00
         21   -1    0    0  501  502  0.00000000000E+00  0.00000000000E+00  0.91120083397E+02  0.91120083397E+02  0.00000000000E+00 0. -1.
         21   -1    0    0  502  503 -0.00000000000E+00 -0.00000000000E+00 -0.19627673879E+03  0.19627673879E+03  0.00000000000E+00 0.  1.
         24    1    1    2    0    0  0.53677072709E+02  0.44419486573E+02 -0.78888961762E+02  0.13245755231E+03  0.80419002446E+02 0. -1.
          1    1    1    2  501    0 -0.93012277002E+02 -0.46354299095E+02  0.58977691227E+01  0.10409028964E+03  0.00000000000E+00 0. -1.
         -2    1    1    2    0  503  0.39335204293E+02  0.19348125222E+01 -0.32165462748E+02  0.50848980227E+02  0.00000000000E+00 0.  1.
<mgrwt>
<rscale>  2 0.12485427E+03</rscale>
<asrwt>0</asrwt>
<pdfrwt beam="1">  1       21 0.14018475E-01 0.12485427E+03</pdfrwt>
<pdfrwt beam="2">  1       21 0.30196421E-01 0.12485427E+03</pdfrwt>
<totfact> 0.47093886E+05</totfact>
</mgrwt>
</event>
<event>
 5    1  0.1281005E-004  0.1359892E+03  0.7546771E-02  0.1218830E+00
         21   -1    0    0  503  502  0.00000000000E+00  0.00000000000E+00  0.65353193796E+02  0.65353193796E+02  0.00000000000E+00 0.  1.
         21   -1    0    0  501  503 -0.00000000000E+00 -0.00000000000E+00 -0.29734564654E+03  0.29734564654E+03  0.00000000000E+00 0. -1.
         24    1    1    2    0    0 -0.16718622283E+01 -0.23198342748E+02 -0.39766445793E+02  0.92679794966E+02  0.80419002446E+02 0.  0.
          1    1    1    2  501    0  0.92680416313E+02  0.28885503448E+02 -0.82908060703E+02  0.12766275262E+03  0.00000000000E+00 0. -1.
         -2    1    1    2    0  502 -0.91008554085E+02 -0.56871606991E+01 -0.10931794625E+03  0.14235629275E+03  0.00000000000E+00 0.  1.
<mgrwt>
<rscale>  2 0.13598918E+03</rscale>
<asrwt>0</asrwt>
<pdfrwt beam="1">  1       21 0.10054338E-01 0.13598918E+03</pdfrwt>
<pdfrwt beam="2">  1       21 0.45745484E-01 0.13598918E+03</pdfrwt>
<totfact> 0.37208278E+05</totfact>
</mgrwt>
</event>
<event>
 5    1  0.1281005E-004  0.3379561E+03  0.7546771E-02  0.1067670E+00
         21   -1    0    0  501  502  0.00000000000E+00  0.00000000000E+00  0.16722285824E+04  0.16722285824E+04  0.00000000000E+00 0.  1.
         21   -1    0    0  502  503 -0.00000000000E+00 -0.00000000000E+00 -0.74077998611E+02  0.74077998611E+02  0.00000000000E+00 0. -1.
         24    1    1    2    0    0  0.16744334782E+03  0.18842622548E+03  0.50934834082E+03  0.57397270443E+03  0.80419002446E+02 0. -1.
          1    1    1    2  501    0 -0.27436357126E+02  0.93015445238E+02  0.45059753106E+03  0.46091513508E+03  0.00000000000E+00 0. -1.
         -2    1    1    2    0  503 -0.14000699069E+03 -0.28144167072E+03  0.63820471188E+03  0.71141874148E+03  0.00000000000E+00 0.  1.
<mgrwt>
<rscale>  2 0.33795611E+03</rscale>
<asrwt>0</asrwt>
<pdfrwt beam="1">  1       21 0.25726591E+00 0.33795611E+03</pdfrwt>
<pdfrwt beam="2">  1       21 0.11396616E-01 0.33795611E+03</pdfrwt>
<totfact> 0.34438935E+03</totfact>
</mgrwt>
</event>
<event>
 5    1  0.1281005E-004  0.1299819E+03  0.7546771E-02  0.1227483E+00
         21   -1    0    0  503  502  0.00000000000E+00  0.00000000000E+00  0.17626985269E+03  0.17626985269E+03  0.00000000000E+00 0.  1.
         21   -1    0    0  501  503 -0.00000000000E+00 -0.00000000000E+00 -0.97704632980E+02  0.97704632980E+02  0.00000000000E+00 0. -1.
         24    1    1    2    0    0 -0.47840283311E+02  0.33587261837E+02  0.48379188117E+02  0.11056472612E+03  0.80419002446E+02 0.  0.
          1    1    1    2  501    0  0.88079808365E+02 -0.65024383900E+02  0.18643398592E+02  0.11105764023E+03  0.00000000000E+00 0. -1.
         -2    1    1    2    0  502 -0.40239525054E+02  0.31437122063E+02  0.11542633000E+02  0.52352119315E+02  0.00000000000E+00 0.  1.
<mgrwt>
<rscale>  2 0.12998189E+03</rscale>
<asrwt>0</asrwt>
<pdfrwt beam="1">  1       21 0.27118439E-01 0.12998189E+03</pdfrwt>
<pdfrwt beam="2">  1       21 0.15031482E-01 0.12998189E+03</pdfrwt>
<totfact> 0.51038728E+05</totfact>
</mgrwt>
</event>
<event>
 5    1  0.1281005E-004  0.1578762E+03  0.7546771E-02  0.1191116E+00
         21   -1    0    0  503  502  0.00000000000E+00  0.00000000000E+00  0.18425440940E+03  0.18425440940E+03  0.00000000000E+00 0.  1.
         21   -1    0    0  501  503 -0.00000000000E+00 -0.00000000000E+00 -0.13679078025E+03  0.13679078025E+03  0.00000000000E+00 0. -1.
         24    1    1    2    0    0  0.26121088486E+02 -0.80113975519E+02  0.14700585443E+02  0.11740478484E+03  0.80419002446E+02 0.  0.
          1    1    1    2  501    0  0.16016567200E+02 -0.55237413068E+02 -0.24807005931E+01  0.57566102029E+02  0.00000000000E+00 0. -1.
         -2    1    1    2    0  502 -0.42137655686E+02  0.13535138859E+03  0.35243744297E+02  0.14607430278E+03  0.00000000000E+00 0.  1.
<mgrwt>
<rscale>  2 0.15787615E+03</rscale>
<asrwt>0</asrwt>
<pdfrwt beam="1">  1       21 0.28346832E-01 0.15787615E+03</pdfrwt>
<pdfrwt beam="2">  1       21 0.21044735E-01 0.15787615E+03</pdfrwt>
<totfact> 0.25189495E+05</totfact>
</mgrwt>
</event>
<event>
 5    1  0.1281005E-004  0.1842006E+03  0.7546771E-02  0.1163798E+00
         21   -1    0    0  501  502  0.00000000000E+00  0.00000000000E+00  0.22279699541E+03  0.22279699541E+03  0.00000000000E+00 0. -1.
         21   -1    0    0  502  503 -0.00000000000E+00 -0.00000000000E+00 -0.16555481124E+03  0.16555481124E+03  0.00000000000E+00 0.  1.
         24    1    1    2    0    0 -0.78162350282E+02  0.38630871325E+02  0.30884962937E+02  0.12256750838E+03  0.80419002446E+02 0.  0.
          1    1    1    2  501    0  0.65525086431E+02 -0.13633866165E+03  0.58450456900E+02  0.16216727020E+03  0.00000000000E+00 0. -1.
         -2    1    1    2    0  503  0.12637263851E+02  0.97707790329E+02 -0.32093235674E+02  0.10361702806E+03  0.00000000000E+00 0.  1.
<mgrwt>
<rscale>  2 0.18420065E+03</rscale>
<asrwt>0</asrwt>
<pdfrwt beam="1">  1       21 0.34276461E-01 0.18420065E+03</pdfrwt>
<pdfrwt beam="2">  1       21 0.25469971E-01 0.18420065E+03</pdfrwt>
<totfact> 0.12024566E+05</totfact>
</mgrwt>
</event>
<event>
 5    1  0.1281005E-004  0.1174396E+03  0.7546771E-02  0.1247382E+00
         21   -1    0    0  501  502  0.00000000000E+00  0.00000000000E+00  0.35881411610E+03  0.35881411610E+03  0.00000000000E+00 0.  1.
         21   -1    0    0  502  503 -0.00000000000E+00 -0.00000000000E+00 -0.38840988067E+02  0.38840988067E+02  0.00000000000E+00 0. -1.
         24    1    1    2    0    0 -0.11618005316E+02 -0.10490150974E+02  0.10321959369E+03  0.13178209966E+03  0.80419002446E+02 0. -1.
          1    1    1    2  501    0 -0.43015164109E+02 -0.53605766877E+02  0.11272851205E+03  0.13202878480E+03  0.00000000000E+00 0. -1.
         -2    1    1    2    0  503  0.54633169425E+02  0.64095917851E+02  0.10402502229E+03  0.13384421971E+03  0.00000000000E+00 0.  1.
<mgrwt>
<rscale>  2 0.11743956E+03</rscale>
<asrwt>0</asrwt>
<pdfrwt beam="1">  1       21 0.55202170E-01 0.11743956E+03</pdfrwt>
<pdfrwt beam="2">  1       21 0.59755369E-02 0.11743956E+03</pdfrwt>
<totfact> 0.61917343E+05</totfact>
</mgrwt>
</event>
<event>
 5    1  0.1281005E-004  0.1433841E+03  0.7546771E-02  0.1208847E+00
         21   -1    0    0  503  502  0.00000000000E+00  0.00000000000E+00  0.75498325329E+02  0.75498325329E+02  0.00000000000E+00 0. -1.
         21   -1    0    0  501  503 -0.00000000000E+00 -0.00000000000E+00 -0.27612687650E+03  0.27612687650E+03  0.00000000000E+00 0.  1.
         24    1    1    2    0    0 -0.91232365390E+01  0.32001456898E+02 -0.78413810264E+02  0.11714635412E+03  0.80419002446E+02 0.  1.
          1    1    1    2  501    0  0.10092781828E+03  0.42898746666E+01 -0.68965780788E+02  0.12231560182E+03  0.00000000000E+00 0. -1.
         -2    1    1    2    0  502 -0.91804581743E+02 -0.36291331564E+02 -0.53248960118E+02  0.11216324589E+03  0.00000000000E+00 0.  1.
<mgrwt>
<rscale>  2 0.14338414E+03</rscale>
<asrwt>0</asrwt>
<pdfrwt beam="1">  1       21 0.11615127E-01 0.14338414E+03</pdfrwt>
<pdfrwt beam="2">  1       21 0.42481057E-01 0.14338414E+03</pdfrwt>
<totfact> 0.33495313E+05</totfact>
</mgrwt>
</event>
<event>
 5    1  0.1281005E-004  0.3386898E+03  0.7546771E-02  0.1067355E+00
         21   -1    0    0  503  502  0.00000000000E+00  0.00000000000E+00  0.56481194905E+03  0.56481194905E+03  0.00000000000E+00 0.  1.
         21   -1    0    0  501  503 -0.00000000000E+00 -0.00000000000E+00 -0.20575060954E+03  0.20575060954E+03  0.00000000000E+00 0. -1.
         24    1    1    2    0    0  0.97556736150E+02  0.32905868267E+02  0.96148910626E+02  0.16220956169E+03  0.80419002446E+02 0.  0.
          1    1    1    2  501    0 -0.26242471439E+03 -0.18607482324E+03  0.12983793669E+03  0.34691275614E+03  0.00000000000E+00 0. -1.
         -2    1    1    2    0  502  0.16486797824E+03  0.15316895498E+03  0.13307449220E+03  0.26144024076E+03  0.00000000000E+00 0.  1.
<mgrwt>
<rscale>  2 0.33868983E+03</rscale>
<asrwt>0</asrwt>
<pdfrwt beam="1">  1       21 0.86894146E-01 0.33868983E+03</pdfrwt>
<pdfrwt beam="2">  1       21 0.31653940E-01 0.33868983E+03</pdfrwt>
<totfact> 0.10116181E+04</totfact>
</mgrwt>
</event>
<event>
 5    1  0.1281005E-004  0.1393085E+03  0.7546771E-02  0.1214262E+00
         21   -1    0    0  501  502  0.00000000000E+00  0.00000000000E+00  0.31604609016E+02  0.31604609016E+02  0.00000000000E+00 0. -1.
         21   -1    0    0  502  503 -0.00000000000E+00 -0.00000000000E+00 -0.64476299681E+03  0.64476299681E+03  0.00000000000E+00 0. -1.
         24    1    1    2    0    0 -0.13439422318E+01  0.79151704382E+02 -0.31756189367E+03  0.33701568324E+03  0.80419002446E+02 0. -1.
          1    1    1    2  501    0  0.15923577567E+02 -0.12069690643E+03 -0.20067994429E+03  0.23472056489E+03  0.00000000000E+00 0. -1.
         -2    1    1    2    0  503 -0.14579635336E+02  0.41545202044E+02 -0.94916549834E+02  0.10463135769E+03  0.00000000000E+00 0.  1.
<mgrwt>
<rscale>  2 0.13930853E+03</rscale>
<asrwt>0</asrwt>
<pdfrwt beam="1">  1       21 0.48622485E-02 0.13930853E+03</pdfrwt>
<pdfrwt beam="2">  1       21 0.99194288E-01 0.13930853E+03</pdfrwt>
<totfact> 0.23975210E+05</totfact>
</mgrwt>
</event>
<event>
 5    1  0.1281005E-004  0.1461869E+03  0.7546771E-02  0.1205238E+00
         21   -1    0    0  501  502  0.00000000000E+00  0.00000000000E+00  0.12138492963E+03  0.12138492963E+03  0.00000000000E+00 0. -1.
         21   -1    0    0  502  503 -0.00000000000E+00 -0.00000000000E+00 -0.19579696761E+03  0.19579696761E+03  0.00000000000E+00 0.  1.
         24    1    1    2    0    0  0.67154872695E+02 -0.31421001366E+02  0.15209456469E+02  0.11043368949E+03  0.80419002446E+02 0. -1.
          1    1    1    2  501    0 -0.94496731785E+02 -0.42916906753E+02 -0.69878762259E+02  0.12511808270E+03  0.00000000000E+00 0. -1.
         -2    1    1    2    0  503  0.27341859090E+02  0.74337908119E+02 -0.19742732183E+02  0.81630125052E+02  0.00000000000E+00 0.  1.
<mgrwt>
<rscale>  2 0.14618691E+03</rscale>
<asrwt>0</asrwt>
<pdfrwt beam="1">  1       21 0.18674605E-01 0.14618691E+03</pdfrwt>
<pdfrwt beam="2">  1       21 0.30122610E-01 0.14618691E+03</pdfrwt>
<totfact> 0.28021026E+05</totfact>
</mgrwt>
</event>
<event>
 5    1  0.1281005E-004  0.2526991E+03  0.7546771E-02  0.1111611E+00
         21   -1    0    0  503  502  0.00000000000E+00  0.00000000000E+00  0.18701809138E+03  0.18701809138E+03  0.00000000000E+00 0.  1.
         21   -1    0    0  501  503 -0.00000000000E+00 -0.00000000000E+00 -0.35695492060E+03  0.35695492060E+03  0.00000000000E+00 0. -1.
         24    1    1    2    0    0 -0.84073768340E+02  0.42906234267E+02 -0.86078845370E+02  0.15095074374E+03  0.80419002446E+02 0. -1.
          1    1    1    2  501    0 -0.60841561872E+02  0.13728428650E+03 -0.55347073011E+02  0.16003740019E+03  0.00000000000E+00 0. -1.
         -2    1    1    2    0  502  0.14491533021E+03 -0.18019052076E+03 -0.28510910840E+02  0.23298486805E+03  0.00000000000E+00 0.  1.
<mgrwt>
<rscale>  2 0.25269911E+03</rscale>
<asrwt>0</asrwt>
<pdfrwt beam="1">  1       21 0.28772015E-01 0.25269911E+03</pdfrwt>
<pdfrwt beam="2">  1       21 0.54916141E-01 0.25269911E+03</pdfrwt>
<totfact> 0.35138915E+04</totfact>
</mgrwt>
</event>
<event>
 5    1  0.1281005E-004  0.2025014E+03  0.7546771E-02  0.1147646E+00
         21   -1    0    0  501  502  0.00000000000E+00  0.00000000000E+00  0.70811019979E+02  0.70811019979E+02  0.00000000000E+00 0.  1.
         21   -1    0    0  502  503 -0.00000000000E+00 -0.00000000000E+00 -0.61570501389E+03  0.61570501389E+03  0.00000000000E+00 0. -1.
         24    1    1    2    0    0 -0.73632893116E+01 -0.26502090385E+02 -0.57593363184E+02  0.10266835083E+03  0.80419002446E+02 0.  1.
          1    1    1    2  501    0 -0.35540273521E+02 -0.14187187605E+03 -0.19417596422E+03  0.24309472503E+03  0.00000000000E+00 0. -1.
         -2    1    1    2    0  503  0.42903562833E+02  0.16837396644E+03 -0.29312466650E+03  0.34075295800E+03  0.00000000000E+00 0.  1.
<mgrwt>
<rscale>  2 0.20250140E+03</rscale>
<asrwt>0</asrwt>
<pdfrwt beam="1">  1       21 0.10894003E-01 0.20250140E+03</pdfrwt>
<pdfrwt beam="2">  1       21 0.94723852E-01 0.20250140E+03</pdfrwt>
<totfact> 0.64722919E+04</totfact>
</mgrwt>
</event>
<event>
 5    1  0.1281005E-004  0.2408411E+03  0.7546771E-02  0.1119234E+00
         21   -1    0    0  501  502  0.00000000000E+00  0.00000000000E+00  0.25879305696E+02  0.25879305696E+02  0.00000000000E+00 0.  1.
         21   -1    0    0  502  503 -0.00000000000E+00 -0.00000000000E+00 -0.24105227192E+04  0.24105227192E+04  0.00000000000E+00 0. -1.
         24    1    1    2    0    0 -0.82210286990E+02  0.11476485727E+03 -0.11175790100E+04  0.11293270400E+04  0.80419002446E+02 0. -1.
          1    1    1    2  501    0  0.24667263822E+02  0.96834777823E+02 -0.33656467100E+03  0.35108578135E+03  0.00000000000E+00 0. -1.
         -2    1    1    2    0  503  0.57543023168E+02 -0.21159963510E+03 -0.93049973253E+03  0.95598920356E+03  0.00000000000E+00 0.  1.
<mgrwt>
<rscale>  2 0.24084109E+03</rscale>
<asrwt>0</asrwt>
<pdfrwt beam="1">  1       21 0.39814308E-02 0.24084109E+03</pdfrwt>
<pdfrwt beam="2">  1       21 0.37084972E+00 0.24084109E+03</pdfrwt>
<totfact> 0.49006307E+03</totfact>
</mgrwt>
</event>
<event>
 5    1  0.1281005E-004  0.1423488E+03  0.7546771E-02  0.1210203E+00
         21   -1    0    0  503  502  0.00000000000E+00  0.00000000000E+00  0.43831832391E+02  0.43831832391E+02  0.00000000000E+00 0.  1.
         21   -1    0    0  501  503 -0.00000000000E+00 -0.00000000000E+00 -0.46781164150E+03  0.46781164150E+03  0.00000000000E+00 0. -1.
         24    1    1    2    0    0 -0.40330844035E+02  0.83321751837E+01 -0.11569241167E+03  0.14679220754E+03  0.80419002446E+02 0.  1.
          1    1    1    2  501    0  0.78713123756E+02 -0.80512242943E+02 -0.16230372812E+03  0.19753601514E+03  0.00000000000E+00 0. -1.
         -2    1    1    2    0  502 -0.38382279720E+02  0.72180067759E+02 -0.14598366932E+03  0.16731525121E+03  0.00000000000E+00 0.  1.
<mgrwt>
<rscale>  2 0.14234883E+03</rscale>
<asrwt>0</asrwt>
<pdfrwt beam="1">  1       21 0.67433589E-02 0.14234883E+03</pdfrwt>
<pdfrwt beam="2">  1       21 0.71971021E-01 0.14234883E+03</pdfrwt>
<totfact> 0.28463225E+05</totfact>
</mgrwt>
</event>
<event>
 5    1  0.1281005E-004  0.2819506E+03  0.7546771E-02  0.1094628E+00
         21   -1    0    0  503  502  0.00000000000E+00  0.00000000000E+00  0.77541941174E+02  0.77541941174E+02  0.00000000000E+00 0.  1.
         21   -1    0    0  501  503 -0.00000000000E+00 -0.00000000000E+00 -0.12223540725E+04  0.12223540725E+04  0.00000000000E+00 0. -1.
         24    1    1    2    0    0 -0.10473103138E+03 -0.41956311723E+01 -0.23668619910E+03  0.27106044539E+03  0.80419002446E+02 0.  0.
          1    1    1    2  501    0  0.25012000590E+03 -0.81452783329E+02 -0.76023652966E+03  0.80445892020E+03  0.00000000000E+00 0. -1.
         -2    1    1    2    0  502 -0.14538897452E+03  0.85648414501E+02 -0.14788940259E+03  0.22437664811E+03  0.00000000000E+00 0.  1.
<mgrwt>
<rscale>  2 0.28195060E+03</rscale>
<asrwt>0</asrwt>
<pdfrwt beam="1">  1       21 0.11929530E-01 0.28195060E+03</pdfrwt>
<pdfrwt beam="2">  1       21 0.18805446E+00 0.28195060E+03</pdfrwt>
<totfact> 0.89491125E+03</totfact>
</mgrwt>
</event>
<event>
 5    1  0.1281005E-004  0.1388174E+03  0.7546771E-02  0.1214929E+00
         21   -1    0    0  503  502  0.00000000000E+00  0.00000000000E+00  0.43185158944E+03  0.43185158944E+03  0.00000000000E+00 0.  1.
         21   -1    0    0  501  503 -0.00000000000E+00 -0.00000000000E+00 -0.48148517098E+02  0.48148517098E+02  0.00000000000E+00 0. -1.
         24    1    1    2    0    0 -0.60111676585E+02  0.10968663051E+02  0.80742851255E+02  0.12930718934E+03  0.80419002446E+02 0. -1.
          1    1    1    2  501    0 -0.54840752451E+02 -0.26021618149E+02  0.10490442360E+03  0.12120053973E+03  0.00000000000E+00 0. -1.
         -2    1    1    2    0  502  0.11495242904E+03  0.15052955098E+02  0.19805579748E+03  0.22949237746E+03  0.00000000000E+00 0.  1.
<mgrwt>
<rscale>  2 0.13881736E+03</rscale>
<asrwt>0</asrwt>
<pdfrwt beam="1">  1       21 0.66438703E-01 0.13881736E+03</pdfrwt>
<pdfrwt beam="2">  1       21 0.74074645E-02 0.13881736E+03</pdfrwt>
<totfact> 0.28866870E+05</totfact>
</mgrwt>
</event>
<event>
 5    1  0.1281005E-004  0.1268607E+03  0.7546771E-02  0.1232190E+00
         21   -1    0    0  501  502  0.00000000000E+00  0.00000000000E+00  0.12952245698E+03  0.12952245698E+03  0.00000000000E+00 0. -1.
         21   -1    0    0  502  503 -0.00000000000E+00 -0.00000000000E+00 -0.13064531011E+03  0.13064531011E+03  0.00000000000E+00 0.  1.
         24    1    1    2    0    0 -0.32738475366E+02 -0.14261598877E+02  0.17985537567E+02  0.89810336197E+02  0.80419002446E+02 0. -1.
          1    1    1    2  501    0  0.21111876521E+02  0.88297914499E+02  0.68515911581E+01  0.91044919334E+02  0.00000000000E+00 0. -1.
         -2    1    1    2    0  503  0.11626598845E+02 -0.74036315622E+02 -0.25959981857E+02  0.79312511558E+02  0.00000000000E+00 0.  1.
<mgrwt>
<rscale>  2 0.12686071E+03</rscale>
<asrwt>0</asrwt>
<pdfrwt beam="1">  1       21 0.19926532E-01 0.12686071E+03</pdfrwt>
<pdfrwt beam="2">  1       21 0.20099278E-01 0.12686071E+03</pdfrwt>
<totfact> 0.53548398E+05</totfact>
</mgrwt>
</event>
<event>
 5    1  0.1281005E-004  0.1723108E+03  0.7546771E-02  0.1175459E+00
         21   -1    0    0  503  502  0.00000000000E+00  0.00000000000E+00  0.19570042603E+03  0.19570042603E+03  0.00000000000E+00 0.  1.
         21   -1    0    0  501  503 -0.00000000000E+00 -0.00000000000E+00 -0.15372857253E+03  0.15372857253E+03  0.00000000000E+00 0. -1.
         24    1    1    2    0    0 -0.42576196985E+02  0.87143726829E+01  0.25008645033E+02  0.94769832340E+02  0.80419002446E+02 0.  0.
          1    1    1    2  501    0 -0.95021681743E+02  0.45455387264E+02  0.17519822403E+02  0.10678134860E+03  0.00000000000E+00 0. -1.
         -2    1    1    2    0  502  0.13759787873E+03 -0.54169759947E+02 -0.55661393879E+00  0.14787781761E+03  0.00000000000E+00 0.  1.
<mgrwt>
<rscale>  2 0.17231080E+03</rscale>
<asrwt>0</asrwt>
<pdfrwt beam="1">  1       21 0.30107758E-01 0.17231080E+03</pdfrwt>
<pdfrwt beam="2">  1       21 0.23650550E-01 0.17231080E+03</pdfrwt>
<totfact> 0.17923593E+05</totfact>
</mgrwt>
</event>
<event>
 5    1  0.1281005E-004  0.1164020E+03  0.7546771E-02  0.1249153E+00
         21   -1    0    0  503  502  0.00000000000E+00  0.00000000000E+00  0.21693089153E+03  0.21693089153E+03  0.00000000000E+00 0.  1.
         21   -1    0    0  501  503 -0.00000000000E+00 -0.00000000000E+00 -0.73780637731E+02  0.73780637731E+02  0.00000000000E+00 0. -1.
         24    1    1    2    0    0  0.17586597316E+02 -0.48816975316E+02  0.94843838091E+02  0.13474032456E+03  0.80419002446E+02 0.  1.
          1    1    1    2  501    0  0.85637814925E+01  0.88860523786E+02  0.18425674816E+01  0.89291243109E+02  0.00000000000E+00 0. -1.
         -2    1    1    2    0  502 -0.26150378809E+02 -0.40043548470E+02  0.46463848222E+02  0.66679961588E+02  0.00000000000E+00 0.  1.
<mgrwt>
<rscale>  2 0.11640203E+03</rscale>
<asrwt>0</asrwt>
<pdfrwt beam="1">  1       21 0.33373983E-01 0.11640203E+03</pdfrwt>
<pdfrwt beam="2">  1       21 0.11350867E-01 0.11640203E+03</pdfrwt>
<totfact> 0.56458552E+05</totfact>
</mgrwt>
</event>
<event>
 5    1  0.1281005E-004  0.2002967E+03  0.7546771E-02  0.1149489E+00
         21   -1    0    0  503  502  0.00000000000E+00  0.00000000000E+00  0.14760385626E+03  0.14760385626E+03  0.00000000000E+00 0. -1.
         21   -1    0    0  501  503 -0.00000000000E+00 -0.00000000000E+00 -0.27441801160E+03  0.27441801160E+03  0.00000000000E+00 0.  1.
         24    1    1    2    0    0 -0.50986631325E+02  0.78871239258E+02 -0.46139450981E+02  0.13197110990E+03  0.80419002446E+02 0.  1.
          1    1    1    2  501    0  0.14273406301E+03  0.17603488139E+02 -0.26102617087E+02  0.14616511950E+03  0.00000000000E+00 0. -1.
         -2    1    1    2    0  502 -0.91747431689E+02 -0.96474727397E+02 -0.54572087268E+02  0.14388563847E+03  0.00000000000E+00 0.  1.
<mgrwt>
<rscale>  2 0.20029668E+03</rscale>
<asrwt>0</asrwt>
<pdfrwt beam="1">  1       21 0.22708286E-01 0.20029668E+03</pdfrwt>
<pdfrwt beam="2">  1       21 0.42218155E-01 0.20029668E+03</pdfrwt>
<totfact> 0.97862299E+04</totfact>
</mgrwt>
</event>
<event>
 5    1  0.1281005E-004  0.9167555E+02  0.7546771E-02  0.1298844E+00
         21   -1    0    0  503  502  0.00000000000E+00  0.00000000000E+00  0.99067549753E+02  0.99067549753E+02  0.00000000000E+00 0.  1.
         21   -1    0    0  501  503 -0.00000000000E+00 -0.00000000000E+00 -0.12800381100E+03  0.12800381100E+03  0.00000000000E+00 0. -1.
         24    1    1    2    0    0  0.13970267732E+02  0.45587856372E+01 -0.78965801635E+02  0.11366074384E+03  0.80419002446E+02 0. -1.
          1    1    1    2  501    0 -0.55813999837E+02  0.11128810331E+02  0.31349156368E+02  0.64975553881E+02  0.00000000000E+00 0. -1.
         -2    1    1    2    0  502  0.41843732105E+02 -0.15687595968E+02  0.18680384024E+02  0.48435063033E+02  0.00000000000E+00 0.  1.
<mgrwt>
<rscale>  2 0.91675554E+02</rscale>
<asrwt>0</asrwt>
<pdfrwt beam="1">  1       21 0.15241162E-01 0.91675554E+02</pdfrwt>
<pdfrwt beam="2">  1       21 0.19692894E-01 0.91675554E+02</pdfrwt>
<totfact> 0.90374760E+05</totfact>
</mgrwt>
</event>
<event>
 5    1  0.1281005E-004  0.1273238E+03  0.7546771E-02  0.1231482E+00
         21   -1    0    0  501  502  0.00000000000E+00  0.00000000000E+00  0.74572782579E+03  0.74572782579E+03  0.00000000000E+00 0. -1.
         21   -1    0    0  502  503 -0.00000000000E+00 -0.00000000000E+00 -0.22476974736E+02  0.22476974736E+02  0.00000000000E+00 0. -1.
         24    1    1    2    0    0  0.33650350033E+02  0.48141594454E+02  0.23837978507E+03  0.25834491878E+03  0.80419002446E+02 0. -1.
          1    1    1    2  501    0 -0.52987562625E+02 -0.92539717947E+02  0.37330845393E+03  0.38824023872E+03  0.00000000000E+00 0. -1.
         -2    1    1    2    0  503  0.19337212592E+02  0.44398123493E+02  0.11156261206E+03  0.12161964302E+03  0.00000000000E+00 0.  1.
<mgrwt>
<rscale>  2 0.12732384E+03</rscale>
<asrwt>0</asrwt>
<pdfrwt beam="1">  1       21 0.11472734E+00 0.12732384E+03</pdfrwt>
<pdfrwt beam="2">  1       21 0.34579967E-02 0.12732384E+03</pdfrwt>
<totfact> 0.30015344E+05</totfact>
</mgrwt>
</event>
<event>
 5    1  0.1281005E-004  0.2025735E+03  0.7546771E-02  0.1147586E+00
         21   -1    0    0  501  502  0.00000000000E+00  0.00000000000E+00  0.47293598824E+02  0.47293598824E+02  0.00000000000E+00 0. -1.
         21   -1    0    0  502  503 -0.00000000000E+00 -0.00000000000E+00 -0.86955613542E+03  0.86955613542E+03  0.00000000000E+00 0.  1.
         24    1    1    2    0    0 -0.58286757603E+02  0.10749318211E+03 -0.31721527290E+03  0.34934921730E+03  0.80419002446E+02 0.  1.
          1    1    1    2  501    0  0.77535720688E+02 -0.17350018150E+03 -0.36778475041E+03  0.41398034205E+03  0.00000000000E+00 0. -1.
         -2    1    1    2    0  503 -0.19248963085E+02  0.66006999388E+02 -0.13726251329E+03  0.15352017491E+03  0.00000000000E+00 0.  1.
<mgrwt>
<rscale>  2 0.20257352E+03</rscale>
<asrwt>0</asrwt>
<pdfrwt beam="1">  1       21 0.72759376E-02 0.20257352E+03</pdfrwt>
<pdfrwt beam="2">  1       21 0.13377788E+00 0.20257352E+03</pdfrwt>
<totfact> 0.56579803E+04</totfact>
</mgrwt>
</event>
<event>
 5    1  0.1281005E-004  0.2133740E+03  0.7546771E-02  0.1138922E+00
         21   -1    0    0  503  502  0.00000000000E+00  0.00000000000E+00  0.24754906111E+02  0.24754906111E+02  0.00000000000E+00 0. -1.
         21   -1    0    0  501  503 -0.00000000000E+00 -0.00000000000E+00 -0.18731974078E+04  0.18731974078E+04  0.00000000000E+00 0.  1.
         24    1    1    2    0    0 -0.81566764868E+02 -0.66074936848E+01 -0.40583514135E+03  0.42174183337E+03  0.80419002446E+02 0.  0.
          1    1    1    2  501    0  0.86122972277E+02  0.14763148794E+03 -0.85306995052E+03  0.87002331179E+03  0.00000000000E+00 0. -1.
         -2    1    1    2    0  502 -0.45562074092E+01 -0.14102399425E+03 -0.58953740983E+03  0.60618716876E+03  0.00000000000E+00 0.  1.
<mgrwt>
<rscale>  2 0.21337397E+03</rscale>
<asrwt>0</asrwt>
<pdfrwt beam="1">  1       21 0.38084471E-02 0.21337397E+03</pdfrwt>
<pdfrwt beam="2">  1       21 0.28818422E+00 0.21337397E+03</pdfrwt>
<totfact> 0.16651593E+04</totfact>
</mgrwt>
</event>
<event>
 5    1  0.1281005E-004  0.1515347E+03  0.7546771E-02  0.1198600E+00
         21   -1    0    0  501  502  0.00000000000E+00  0.00000000000E+00  0.20835735233E+03  0.20835735233E+03  0.00000000000E+00 0. -1.
         21   -1    0    0  502  503 -0.00000000000E+00 -0.00000000000E+00 -0.11808580694E+03  0.11808580694E+03  0.00000000000E+00 0.  1.
         24    1    1    2    0    0  0.40580421935E+02 -0.71995286781E+02  0.26019717723E+02  0.11821308569E+03  0.80419002446E+02 0.  1.
          1    1    1    2  501    0 -0.10704533172E+02  0.12577756639E+03  0.73414506015E+02  0.14602832921E+03  0.00000000000E+00 0. -1.
         -2    1    1    2    0  503 -0.29875888763E+02 -0.53782279610E+02 -0.91626783449E+01  0.62201744380E+02  0.00000000000E+00 0.  1.
<mgrwt>
<rscale>  2 0.15153470E+03</rscale>
<asrwt>0</asrwt>
<pdfrwt beam="1">  1       21 0.32054977E-01 0.15153470E+03</pdfrwt>
<pdfrwt beam="2">  1       21 0.18167047E-01 0.15153470E+03</pdfrwt>
<totfact> 0.26096234E+05</totfact>
</mgrwt>
</event>
<event>
 5    1  0.1281005E-004  0.1872159E+03  0.7546771E-02  0.1160997E+00
         21   -1    0    0  501  502  0.00000000000E+00  0.00000000000E+00  0.69679123080E+02  0.69679123080E+02  0.00000000000E+00 0. -1.
         21   -1    0    0  502  503 -0.00000000000E+00 -0.00000000000E+00 -0.55632613128E+03  0.55632613128E+03  0.00000000000E+00 0.  1.
         24    1    1    2    0    0  0.86869762923E+02  0.43937761386E+02 -0.14761304752E+03  0.19425166753E+03  0.80419002446E+02 0. -1.
          1    1    1    2  501    0 -0.15723677865E+03 -0.71318986983E+02 -0.15191211982E+03  0.22997194310E+03  0.00000000000E+00 0. -1.
         -2    1    1    2    0  503  0.70367015731E+02  0.27381225597E+02 -0.18712184087E+03  0.20178164373E+03  0.00000000000E+00 0.  1.
<mgrwt>
<rscale>  2 0.18721585E+03</rscale>
<asrwt>0</asrwt>
<pdfrwt beam="1">  1       21 0.10719865E-01 0.18721585E+03</pdfrwt>
<pdfrwt beam="2">  1       21 0.85588637E-01 0.18721585E+03</pdfrwt>
<totfact> 0.84816242E+04</totfact>
</mgrwt>
</event>
<event>
 5    1  0.1281005E-004  0.3607908E+03  0.7546771E-02  0.1058271E+00
         21   -1    0    0  501  502  0.00000000000E+00  0.00000000000E+00  0.33545034965E+03  0.33545034965E+03  0.00000000000E+00 0. -1.
         21   -1    0    0  502  503 -0.00000000000E+00 -0.00000000000E+00 -0.39018182965E+03  0.39018182965E+03  0.00000000000E+00 0.  1.
         24    1    1    2    0    0  0.49131484331E+02 -0.13876354202E+03 -0.27919010839E+00  0.16773943259E+03  0.80419002446E+02 0.  1.
          1    1    1    2  501    0 -0.21506099131E+03  0.26792913548E+03 -0.14619632318E+02  0.34387640988E+03  0.00000000000E+00 0. -1.
         -2    1    1    2    0  503  0.16592950698E+03 -0.12916559346E+03 -0.39832657573E+02  0.21401633683E+03  0.00000000000E+00 0.  1.
<mgrwt>
<rscale>  2 0.36079077E+03</rscale>
<asrwt>0</asrwt>
<pdfrwt beam="1">  1       21 0.51607746E-01 0.36079077E+03</pdfrwt>
<pdfrwt beam="2">  1       21 0.60027974E-01 0.36079077E+03</pdfrwt>
<totfact> 0.84598038E+03</totfact>
</mgrwt>
</event>
<event>
 5    1  0.1281005E-004  0.1507942E+03  0.7546771E-02  0.1199501E+00
         21   -1    0    0  501  502  0.00000000000E+00  0.00000000000E+00  0.95875307528E+03  0.95875307528E+03  0.00000000000E+00 0. -1.
         21   -1    0    0  502  503 -0.00000000000E+00 -0.00000000000E+00 -0.34173352960E+02  0.34173352960E+02  0.00000000000E+00 0.  1.
         24    1    1    2    0    0 -0.16106885512E+02  0.68168256665E+02  0.15726681710E+03  0.19001686950E+03  0.80419002446E+02 0. -1.
          1    1    1    2  501    0  0.97944810845E+02 -0.54132982071E+02  0.64773023869E+03  0.65732642411E+03  0.00000000000E+00 0. -1.
         -2    1    1    2    0  503 -0.81837925333E+02 -0.14035274594E+02  0.11958266653E+03  0.14558313463E+03  0.00000000000E+00 0.  1.
<mgrwt>
<rscale>  2 0.15079418E+03</rscale>
<asrwt>0</asrwt>
<pdfrwt beam="1">  1       21 0.14750045E+00 0.15079418E+03</pdfrwt>
<pdfrwt beam="2">  1       21 0.52574396E-02 0.15079418E+03</pdfrwt>
<totfact> 0.78863056E+04</totfact>
</mgrwt>
</event>
<event>
 5    1  0.1281005E-004  0.1121225E+03  0.7546771E-02  0.1256689E+00
         21   -1    0    0  501  502  0.00000000000E+00  0.00000000000E+00  0.63515415007E+03  0.63515415007E+03  0.00000000000E+00 0.  1.
         21   -1    0    0  502  503 -0.00000000000E+00 -0.00000000000E+00 -0.20079229164E+02  0.20079229164E+02  0.00000000000E+00 0. -1.
         24    1    1    2    0    0  0.37849907787E+02 -0.13605220817E+02  0.28197360147E+03  0.29596291226E+03  0.80419002446E+02 0.  1.
          1    1    1    2  501    0 -0.51583685615E+02 -0.48451627650E+02  0.18696404805E+03  0.19990996000E+03  0.00000000000E+00 0. -1.
         -2    1    1    2    0  503  0.13733777828E+02  0.62056848467E+02  0.14613727139E+03  0.15936050698E+03  0.00000000000E+00 0.  1.
<mgrwt>
<rscale>  2 0.11212248E+03</rscale>
<asrwt>0</asrwt>
<pdfrwt beam="1">  1       21 0.97716008E-01 0.11212248E+03</pdfrwt>
<pdfrwt beam="2">  1       21 0.30891127E-02 0.11212248E+03</pdfrwt>
<totfact> 0.52969612E+05</totfact>
</mgrwt>
</event>
<event>
 5    1  0.1281005E-004  0.9076927E+02  0.7546771E-02  0.1300999E+00
         21   -1    0    0  501  502  0.00000000000E+00  0.00000000000E+00  0.64283698448E+03  0.64283698448E+03  0.00000000000E+00 0. -1.
         21   -1    0    0  502  503 -0.00000000000E+00 -0.00000000000E+00 -0.13424130916E+02  0.13424130916E+02  0.00000000000E+00 0. -1.
         24    1    1    2    0    0 -0.46275795454E+02 -0.16882501703E+02  0.33938760840E+03  0.35224655115E+03  0.80419002446E+02 0. -1.
          1    1    1    2  501    0  0.58507816349E+02 -0.84368210269E+01  0.15067978887E+03  0.16186025855E+03  0.00000000000E+00 0. -1.
         -2    1    1    2    0  503 -0.12232020896E+02  0.25319322730E+02  0.13934545629E+03  0.14215430570E+03  0.00000000000E+00 0.  1.
<mgrwt>
<rscale>  2 0.90769265E+02</rscale>
<asrwt>0</asrwt>
<pdfrwt beam="1">  1       21 0.98897973E-01 0.90769265E+02</pdfrwt>
<pdfrwt beam="2">  1       21 0.20652514E-02 0.90769265E+02</pdfrwt>
<totfact> 0.98940094E+05</totfact>
</mgrwt>
</event>
<event>
 5    1  0.1281005E-004  0.2223136E+03  0.7546771E-02  0.1132170E+00
         21   -1    0    0  501  502  0.00000000000E+00  0.00000000000E+00  0.36862275912E+03  0.36862275912E+03  0.00000000000E+00 0. -1.
         21   -1    0    0  502  503 -0.00000000000E+00 -0.00000000000E+00 -0.13469302911E+03  0.13469302911E+03  0.00000000000E+00 0. -1.
         24    1    1    2    0    0  0.18651001131E+03  0.84603284176E+01  0.11029548468E+03  0.23127877415E+03  0.80419002446E+02 0. -1.
          1    1    1    2  501    0 -0.21371063761E+03 -0.11200085700E+02  0.10146305073E+03  0.23683840316E+03  0.00000000000E+00 0. -1.
         -2    1    1    2    0  503  0.27200626301E+02  0.27397572823E+01  0.22171194600E+02  0.35198610926E+02  0.00000000000E+00 0.  1.
<mgrwt>
<rscale>  2 0.22231357E+03</rscale>
<asrwt>0</asrwt>
<pdfrwt beam="1">  1       21 0.56711193E-01 0.22231357E+03</pdfrwt>
<pdfrwt beam="2">  1       21 0.20722005E-01 0.22231357E+03</pdfrwt>
<totfact> 0.62304834E+04</totfact>
</mgrwt>
</event>
<event>
 5    1  0.1281005E-004  0.3203657E+03  0.7546771E-02  0.1075481E+00
         21   -1    0    0  501  502  0.00000000000E+00  0.00000000000E+00  0.14045735119E+04  0.14045735119E+04  0.00000000000E+00 0. -1.
         21   -1    0    0  502  503 -0.00000000000E+00 -0.00000000000E+00 -0.73872882881E+02  0.73872882881E+02  0.00000000000E+00 0.  1.
         24    1    1    2    0    0  0.10876385242E+03  0.17735161738E+03  0.49569725602E+03  0.54356798780E+03  0.80419002446E+02 0. -1.
          1    1    1    2  501    0 -0.22594063554E+03 -0.19590726633E+03  0.54723813068E+03  0.62361718984E+03  0.00000000000E+00 0. -1.
         -2    1    1    2    0  503  0.11717678312E+03  0.18555648958E+02  0.28776524231E+03  0.31126121714E+03  0.00000000000E+00 0.  1.
<mgrwt>
<rscale>  2 0.32036568E+03</rscale>
<asrwt>0</asrwt>
<pdfrwt beam="1">  1       21 0.21608821E+00 0.32036568E+03</pdfrwt>
<pdfrwt beam="2">  1       21 0.11365060E-01 0.32036568E+03</pdfrwt>
<totfact> 0.62698358E+03</totfact>
</mgrwt>
</event>
<event>
 5    1  0.1281005E-004  0.1504264E+03  0.7546771E-02  0.1199950E+00
         21   -1    0    0  503  502  0.00000000000E+00  0.00000000000E+00  0.17091426628E+03  0.17091426628E+03  0.00000000000E+00 0.  1.
         21   -1    0    0  501  503 -0.00000000000E+00 -0.00000000000E+00 -0.13669118794E+03  0.13669118794E+03  0.00000000000E+00 0. -1.
         24    1    1    2    0    0 -0.23700361789E+02 -0.56838299047E+01 -0.14031492234E+02  0.85194552643E+02  0.80419002446E+02 0. -1.
          1    1    1    2  501    0 -0.76756545686E+02 -0.59458694902E+02  0.27343643261E+02  0.10086911585E+03  0.00000000000E+00 0. -1.
         -2    1    1    2    0  502  0.10045690747E+03  0.65142524807E+02  0.20910927310E+02  0.12154178573E+03  0.00000000000E+00 0.  1.
<mgrwt>
<rscale>  2 0.15042640E+03</rscale>
<asrwt>0</asrwt>
<pdfrwt beam="1">  1       21 0.26294503E-01 0.15042640E+03</pdfrwt>
<pdfrwt beam="2">  1       21 0.21029414E-01 0.15042640E+03</pdfrwt>
<totfact> 0.29172306E+05</totfact>
</mgrwt>
</event>
<event>
 5    1  0.1281005E-004  0.1186587E+03  0.7546771E-02  0.1245326E+00
         21   -1    0    0  501  502  0.00000000000E+00  0.00000000000E+00  0.86338319751E+03  0.86338319751E+03  0.00000000000E+00 0.  1.
         21   -1    0    0  502  503 -0.00000000000E+00 -0.00000000000E+00 -0.16741442224E+02  0.16741442224E+02  0.00000000000E+00 0. -1.
         24    1    1    2    0    0 -0.27088280197E+02  0.82834739853E+01  0.25898895334E+03  0.27266258411E+03  0.80419002446E+02 0.  0.
          1    1    1    2  501    0 -0.54708021058E+02  0.29275121869E+02  0.28672991657E+03  0.29336674213E+03  0.00000000000E+00 0. -1.
         -2    1    1    2    0  503  0.81796301255E+02 -0.37558595855E+02  0.30092288537E+03  0.31409531350E+03  0.00000000000E+00 0.  1.
<mgrwt>
<rscale>  2 0.11865874E+03</rscale>
<asrwt>0</asrwt>
<pdfrwt beam="1">  1       21 0.13282815E+00 0.11865874E+03</pdfrwt>
<pdfrwt beam="2">  1       21 0.25756072E-02 0.11865874E+03</pdfrwt>
<totfact> 0.34037720E+05</totfact>
</mgrwt>
</event>
<event>
 5    1  0.1281005E-004  0.1389748E+03  0.7546771E-02  0.1214715E+00
         21   -1    0    0  503  502  0.00000000000E+00  0.00000000000E+00  0.16449056516E+04  0.16449056516E+04  0.00000000000E+00 0.  1.
         21   -1    0    0  501  503 -0.00000000000E+00 -0.00000000000E+00 -0.12641198288E+02  0.12641198288E+02  0.00000000000E+00 0. -1.
         24    1    1    2    0    0  0.46091648170E+02  0.16306545874E+02  0.42253301596E+03  0.43288764016E+03  0.80419002446E+02 0.  0.
          1    1    1    2  501    0 -0.93673031822E+02 -0.66342990799E+02  0.90212412513E+03  0.90939758438E+03  0.00000000000E+00 0. -1.
         -2    1    1    2    0  502  0.47581383652E+02  0.50036444925E+02  0.30760731217E+03  0.31526162530E+03  0.00000000000E+00 0.  1.
<mgrwt>
<rscale>  2 0.13897477E+03</rscale>
<asrwt>0</asrwt>
<pdfrwt beam="1">  1       21 0.25306224E+00 0.13897477E+03</pdfrwt>
<pdfrwt beam="2">  1       21 0.19448010E-02 0.13897477E+03</pdfrwt>
<totfact> 0.85708801E+04</totfact>
</mgrwt>
</event>
<event>
 5    1  0.1281005E-004  0.1852891E+03  0.7546771E-02  0.1162780E+00
         21   -1    0    0  501  502  0.00000000000E+00  0.00000000000E+00  0.28186735238E+03  0.28186735238E+03  0.00000000000E+00 0. -1.
         21   -1    0    0  502  503 -0.00000000000E+00 -0.00000000000E+00 -0.13800271497E+03  0.13800271497E+03  0.00000000000E+00 0.  1.
         24    1    1    2    0    0 -0.69646265720E+00  0.58384916063E+02  0.68300524945E-01  0.99380602248E+02  0.80419002446E+02 0.  1.
          1    1    1    2  501    0  0.16034181516E+02  0.10544202846E+03  0.10861982244E+03  0.15222805973E+03  0.00000000000E+00 0. -1.
         -2    1    1    2    0  503 -0.15337718859E+02 -0.16382694452E+03  0.35176514440E+02  0.16826140537E+03  0.00000000000E+00 0.  1.
<mgrwt>
<rscale>  2 0.18528906E+03</rscale>
<asrwt>0</asrwt>
<pdfrwt beam="1">  1       21 0.43364208E-01 0.18528906E+03</pdfrwt>
<pdfrwt beam="2">  1       21 0.21231187E-01 0.18528906E+03</pdfrwt>
<totfact> 0.10579531E+05</totfact>
</mgrwt>
</event>
<event>
 5    1  0.1281005E-004  0.1200170E+03  0.7546771E-02  0.1243069E+00
         21   -1    0    0  501  502  0.00000000000E+00  0.00000000000E+00  0.73124550515E+03  0.73124550515E+03  0.00000000000E+00 0.  1.
         21   -1    0    0  502  503 -0.00000000000E+00 -0.00000000000E+00 -0.20614064227E+02  0.20614064227E+02  0.00000000000E+00 0. -1.
         24    1    1    2    0    0  0.83557179993E+01 -0.32251647727E+02  0.24739557568E+03  0.26226279496E+03  0.80419002446E+02 0. -1.
          1    1    1    2  501    0 -0.39001147285E+02 -0.51040614882E+02  0.26018499555E+03  0.26799713761E+03  0.00000000000E+00 0. -1.
         -2    1    1    2    0  503  0.30645429285E+02  0.83292262609E+02  0.20305086970E+03  0.22159963681E+03  0.00000000000E+00 0.  1.
<mgrwt>
<rscale>  2 0.12001696E+03</rscale>
<asrwt>0</asrwt>
<pdfrwt beam="1">  1       21 0.11249929E+00 0.12001696E+03</pdfrwt>
<pdfrwt beam="2">  1       21 0.31713951E-02 0.12001696E+03</pdfrwt>
<totfact> 0.36340399E+05</totfact>
</mgrwt>
</event>
<event>
 5    1  0.1281005E-004  0.2552734E+03  0.7546771E-02  0.1110017E+00
         21   -1    0    0  501  502  0.00000000000E+00  0.00000000000E+00  0.87663448443E+03  0.87663448443E+03  0.00000000000E+00 0.  1.
         21   -1    0    0  502  503 -0.00000000000E+00 -0.00000000000E+00 -0.81519446317E+02  0.81519446317E+02  0.00000000000E+00 0. -1.
         24    1    1    2    0    0 -0.93723863060E+02 -0.97448100218E+02  0.19397375527E+03  0.24974652837E+03  0.80419002446E+02 0.  0.
          1    1    1    2  501    0 -0.83530016011E+02 -0.70308902617E+02  0.88161130458E+02  0.14033171518E+03  0.00000000000E+00 0. -1.
         -2    1    1    2    0  503  0.17725387907E+03  0.16775700284E+03  0.51298015238E+03  0.56807568719E+03  0.00000000000E+00 0.  1.
<mgrwt>
<rscale>  2 0.25527344E+03</rscale>
<asrwt>0</asrwt>
<pdfrwt beam="1">  1       21 0.13486684E+00 0.25527344E+03</pdfrwt>
<pdfrwt beam="2">  1       21 0.12541454E-01 0.25527344E+03</pdfrwt>
<totfact> 0.20586492E+04</totfact>
</mgrwt>
</event>
<event>
 5    1  0.1281005E-004  0.3536619E+03  0.7546771E-02  0.1061122E+00
         21   -1    0    0  503  502  0.00000000000E+00  0.00000000000E+00  0.31131687722E+03  0.31131687722E+03  0.00000000000E+00 0.  1.
         21   -1    0    0  501  503 -0.00000000000E+00 -0.00000000000E+00 -0.40911022738E+03  0.40911022738E+03  0.00000000000E+00 0. -1.
         24    1    1    2    0    0  0.14574929692E+03  0.19251705269E+03 -0.38028987279E+02  0.25733070737E+03  0.80419002446E+02 0. -1.
          1    1    1    2  501    0 -0.26499875621E+03 -0.20197613041E+03 -0.77702155164E+02  0.34213494847E+03  0.00000000000E+00 0. -1.
         -2    1    1    2    0  502  0.11924945929E+03  0.94590777279E+01  0.17937792285E+02  0.12096144875E+03  0.00000000000E+00 0.  1.
<mgrwt>
<rscale>  2 0.35366195E+03</rscale>
<asrwt>0</asrwt>
<pdfrwt beam="1">  1       21 0.47894904E-01 0.35366195E+03</pdfrwt>
<pdfrwt beam="2">  1       21 0.62940035E-01 0.35366195E+03</pdfrwt>
<totfact> 0.89551159E+03</totfact>
</mgrwt>
</event>
<event>
 5    1  0.1281005E-004  0.3212898E+03  0.7546771E-02  0.1075057E+00
         21   -1    0    0  501  502  0.00000000000E+00  0.00000000000E+00  0.47608998172E+03  0.47608998172E+03  0.00000000000E+00 0.  1.
         21   -1    0    0  502  503 -0.00000000000E+00 -0.00000000000E+00 -0.22530679517E+03  0.22530679517E+03  0.00000000000E+00 0. -1.
         24    1    1    2    0    0  0.60811150216E+02 -0.12481932781E+03  0.10265328178E+02  0.16078076223E+03  0.80419002446E+02 0.  0.
          1    1    1    2  501    0 -0.17747973552E+03  0.25284425530E+03  0.17761305293E+03  0.35633645692E+03  0.00000000000E+00 0. -1.
         -2    1    1    2    0  503  0.11666858530E+03 -0.12802492749E+03  0.62904805438E+02  0.18427955774E+03  0.00000000000E+00 0.  1.
<mgrwt>
<rscale>  2 0.32128985E+03</rscale>
<asrwt>0</asrwt>
<pdfrwt beam="1">  1       21 0.73244613E-01 0.32128985E+03</pdfrwt>
<pdfrwt beam="2">  1       21 0.34662584E-01 0.32128985E+03</pdfrwt>
<totfact> 0.12573321E+04</totfact>
</mgrwt>
</event>
<event>
 5    1  0.1281005E-004  0.1548956E+03  0.7546771E-02  0.1194583E+00
         21   -1    0    0  501  502  0.00000000000E+00  0.00000000000E+00  0.20143505438E+02  0.20143505438E+02  0.00000000000E+00 0. -1.
         21   -1    0    0  502  503 -0.00000000000E+00 -0.00000000000E+00 -0.13274548969E+04  0.13274548969E+04  0.00000000000E+00 0.  1.
         24    1    1    2    0    0  0.16887109488E+02  0.11395753590E+03 -0.81197386383E+03  0.82403899541E+03  0.80419002446E+02 0.  1.
          1    1    1    2  501    0 -0.40809769252E+02 -0.13274634853E+03 -0.39432466503E+03  0.41806575053E+03  0.00000000000E+00 0. -1.
         -2    1    1    2    0  503  0.23922659764E+02  0.18788812624E+02 -0.10101286264E+03  0.10549365644E+03  0.00000000000E+00 0.  1.
<mgrwt>
<rscale>  2 0.15489562E+03</rscale>
<asrwt>0</asrwt>
<pdfrwt beam="1">  1       21 0.30990009E-02 0.15489562E+03</pdfrwt>
<pdfrwt beam="2">  1       21 0.20422383E+00 0.15489562E+03</pdfrwt>
<totfact> 0.77523321E+04</totfact>
</mgrwt>
</event>
<event>
 5    1  0.1281005E-004  0.2118374E+03  0.7546771E-02  0.1140119E+00
         21   -1    0    0  501  502  0.00000000000E+00  0.00000000000E+00  0.13205260764E+03  0.13205260764E+03  0.00000000000E+00 0. -1.
         21   -1    0    0  502  503 -0.00000000000E+00 -0.00000000000E+00 -0.42297092448E+03  0.42297092448E+03  0.00000000000E+00 0.  1.
         24    1    1    2    0    0 -0.51140047679E+02 -0.10449466171E+03 -0.20035507181E+03  0.24524234862E+03  0.80419002446E+02 0.  1.
          1    1    1    2  501    0  0.10550809555E+03  0.16816491974E+03 -0.10537587955E+03  0.22475647810E+03  0.00000000000E+00 0. -1.
         -2    1    1    2    0  503 -0.54368047873E+02 -0.63670258029E+02  0.14812634524E+02  0.85024705401E+02  0.00000000000E+00 0.  1.
<mgrwt>
<rscale>  2 0.21183736E+03</rscale>
<asrwt>0</asrwt>
<pdfrwt beam="1">  1       21 0.20315785E-01 0.21183736E+03</pdfrwt>
<pdfrwt beam="2">  1       21 0.65072452E-01 0.21183736E+03</pdfrwt>
<totfact> 0.48282588E+04</totfact>
</mgrwt>
</event>
<event>
 5    1  0.1281005E-004  0.2708214E+03  0.7546771E-02  0.1100810E+00
         21   -1    0    0  501  502  0.00000000000E+00  0.00000000000E+00  0.70112178120E+03  0.70112178120E+03  0.00000000000E+00 0. -1.
         21   -1    0    0  502  503 -0.00000000000E+00 -0.00000000000E+00 -0.13090468512E+03  0.13090468512E+03  0.00000000000E+00 0.  1.
         24    1    1    2    0    0  0.16248737128E+03 -0.72582876358E+01  0.72488163036E+02  0.19538827575E+03  0.80419002446E+02 0.  1.
          1    1    1    2  501    0 -0.22981988809E+03  0.95779257810E+02  0.45269765960E+03  0.51664883451E+03  0.00000000000E+00 0. -1.
         -2    1    1    2    0  503  0.67332516809E+02 -0.88520970174E+02  0.45031273440E+02  0.11998935606E+03  0.00000000000E+00 0.  1.
<mgrwt>
<rscale>  2 0.27082139E+03</rscale>
<asrwt>0</asrwt>
<pdfrwt beam="1">  1       21 0.10786489E+00 0.27082139E+03</pdfrwt>
<pdfrwt beam="2">  1       21 0.20139183E-01 0.27082139E+03</pdfrwt>
<totfact> 0.14917413E+04</totfact>
</mgrwt>
</event>
<event>
 5    1  0.1281005E-004  0.1428602E+03  0.7546771E-02  0.1209531E+00
         21   -1    0    0  501  502  0.00000000000E+00  0.00000000000E+00  0.27934261508E+02  0.27934261508E+02  0.00000000000E+00 0.  1.
         21   -1    0    0  502  503 -0.00000000000E+00 -0.00000000000E+00 -0.74703075654E+03  0.74703075654E+03  0.00000000000E+00 0. -1.
         24    1    1    2    0    0  0.47900251253E+02 -0.72925512477E+02 -0.32858917598E+03  0.34935744871E+03  0.80419002446E+02 0.  1.
          1    1    1    2  501    0 -0.50377236708E+02  0.11466795566E+03 -0.26057665828E+03  0.28911381993E+03  0.00000000000E+00 0. -1.
         -2    1    1    2    0  503  0.24769854553E+01 -0.41742443187E+02 -0.12993066077E+03  0.13649374942E+03  0.00000000000E+00 0.  1.
<mgrwt>
<rscale>  2 0.14286015E+03</rscale>
<asrwt>0</asrwt>
<pdfrwt beam="1">  1       21 0.42975785E-02 0.14286015E+03</pdfrwt>
<pdfrwt beam="2">  1       21 0.11492781E+00 0.14286015E+03</pdfrwt>
<totfact> 0.20739880E+05</totfact>
</mgrwt>
</event>
<event>
 5    1  0.1281005E-004  0.1229234E+03  0.7546771E-02  0.1238351E+00
         21   -1    0    0  503  502  0.00000000000E+00  0.00000000000E+00  0.23053800298E+02  0.23053800298E+02  0.00000000000E+00 0.  1.
         21   -1    0    0  501  503 -0.00000000000E+00 -0.00000000000E+00 -0.66019880902E+03  0.66019880902E+03  0.00000000000E+00 0. -1.
         24    1    1    2    0    0  0.37075295866E+02 -0.13137787914E+02 -0.20515994083E+03  0.22384145351E+03  0.80419002446E+02 0. -1.
          1    1    1    2  501    0 -0.95306308652E+02  0.20918830964E+02 -0.27421327868E+03  0.29105637283E+03  0.00000000000E+00 0. -1.
         -2    1    1    2    0  502  0.58231012786E+02 -0.77810430496E+01 -0.15777178921E+03  0.16835478298E+03  0.00000000000E+00 0.  1.
<mgrwt>
<rscale>  2 0.12292339E+03</rscale>
<asrwt>0</asrwt>
<pdfrwt beam="1">  1       21 0.35467394E-02 0.12292339E+03</pdfrwt>
<pdfrwt beam="2">  1       21 0.10156902E+00 0.12292339E+03</pdfrwt>
<totfact> 0.38500148E+05</totfact>
</mgrwt>
</event>
<event>
 5    1  0.1281005E-004  0.1851742E+03  0.7546771E-02  0.1162887E+00
         21   -1    0    0  501  502  0.00000000000E+00  0.00000000000E+00  0.61877590935E+02  0.61877590935E+02  0.00000000000E+00 0. -1.
         21   -1    0    0  502  503 -0.00000000000E+00 -0.00000000000E+00 -0.55545359838E+03  0.55545359838E+03  0.00000000000E+00 0.  1.
         24    1    1    2    0    0 -0.87365916920E+02  0.66579572401E+02 -0.19524913745E+03  0.23802328569E+03  0.80419002446E+02 0.  0.
          1    1    1    2  501    0  0.12194462297E+03 -0.11966980695E+03 -0.21439502026E+03  0.27414700159E+03  0.00000000000E+00 0. -1.
         -2    1    1    2    0  503 -0.34578706053E+02  0.53090234553E+02 -0.83931849723E+02  0.10516090203E+03  0.00000000000E+00 0.  1.
<mgrwt>
<rscale>  2 0.18517420E+03</rscale>
<asrwt>0</asrwt>
<pdfrwt beam="1">  1       21 0.95196297E-02 0.18517420E+03</pdfrwt>
<pdfrwt beam="2">  1       21 0.85454397E-01 0.18517420E+03</pdfrwt>
<totfact> 0.10507182E+05</totfact>
</mgrwt>
</event>
<event>
 5    1  0.1281005E-004  0.2064788E+03  0.7546771E-02  0.1144385E+00
         21   -1    0    0  501  502  0.00000000000E+00  0.00000000000E+00  0.12458243843E+03  0.12458243843E+03  0.00000000000E+00 0. -1.
         21   -1    0    0  502  503 -0.00000000000E+00 -0.00000000000E+00 -0.34665043306E+03  0.34665043306E+03  0.00000000000E+00 0.  1.
         24    1    1    2    0    0  0.10461539153E+03  0.11606266087E+02 -0.65025784418E+02  0.14756237377E+03  0.80419002446E+02 0. -1.
          1    1    1    2  501    0 -0.18987664607E+03  0.16819577962E+02 -0.86066188309E+02  0.20914929523E+03  0.00000000000E+00 0. -1.
         -2    1    1    2    0  503  0.85261254535E+02 -0.28425844049E+02 -0.70976021904E+02  0.11452120249E+03  0.00000000000E+00 0.  1.
<mgrwt>
<rscale>  2 0.20647878E+03</rscale>
<asrwt>0</asrwt>
<pdfrwt beam="1">  1       21 0.19166529E-01 0.20647878E+03</pdfrwt>
<pdfrwt beam="2">  1       21 0.53330835E-01 0.20647878E+03</pdfrwt>
<totfact> 0.82694687E+04</totfact>
</mgrwt>
</event>
<event>
 5    1  0.1281005E-004  0.1346095E+03  0.7546771E-02  0.1220772E+00
         21   -1    0    0  501  502  0.00000000000E+00  0.00000000000E+00  0.15400973089E+03  0.15400973089E+03  0.00000000000E+00 0.  1.
         21   -1    0    0  502  503 -0.00000000000E+00 -0.00000000000E+00 -0.12278857224E+03  0.12278857224E+03  0.00000000000E+00 0.  1.
         24    1    1    2    0    0 -0.26231787693E+02 -0.93766657371E+02  0.34513555060E+02  0.13091483551E+03  0.80419002446E+02 0.  1.
          1    1    1    2  501    0  0.34639966423E+01 -0.23360555452E+02  0.10354083923E+02  0.25786079144E+02  0.00000000000E+00 0. -1.
         -2    1    1    2    0  503  0.22767791051E+02  0.11712721282E+03 -0.13646480324E+02  0.12009738847E+03  0.00000000000E+00 0.  1.
<mgrwt>
<rscale>  2 0.13460949E+03</rscale>
<asrwt>0</asrwt>
<pdfrwt beam="1">  1       21 0.23693805E-01 0.13460949E+03</pdfrwt>
<pdfrwt beam="2">  1       21 0.18890550E-01 0.13460949E+03</pdfrwt>
<totfact> 0.43449963E+05</totfact>
</mgrwt>
</event>
<event>
 5    1  0.1281005E-004  0.1442684E+03  0.7546771E-02  0.1207698E+00
         21   -1    0    0  501  502  0.00000000000E+00  0.00000000000E+00  0.29897800431E+03  0.29897800431E+03  0.00000000000E+00 0. -1.
         21   -1    0    0  502  503 -0.00000000000E+00 -0.00000000000E+00 -0.71038184888E+02  0.71038184888E+02  0.00000000000E+00 0.  1.
         24    1    1    2    0    0 -0.89771006174E+02  0.29409056786E+02  0.73338161474E+02  0.14411602289E+03  0.80419002446E+02 0.  0.
          1    1    1    2  501    0 -0.31840894653E+02  0.14755278508E+02  0.28188153191E+02  0.45012584868E+02  0.00000000000E+00 0. -1.
         -2    1    1    2    0  503  0.12161190083E+03 -0.44164335293E+02  0.12641350476E+03  0.18088758144E+03  0.00000000000E+00 0.  1.
<mgrwt>
<rscale>  2 0.14426838E+03</rscale>
<asrwt>0</asrwt>
<pdfrwt beam="1">  1       21 0.45996615E-01 0.14426838E+03</pdfrwt>
<pdfrwt beam="2">  1       21 0.10928952E-01 0.14426838E+03</pdfrwt>
<totfact> 0.31731370E+05</totfact>
</mgrwt>
</event>
<event>
 5    1  0.1281005E-004  0.1232181E+03  0.7546771E-02  0.1237881E+00
         21   -1    0    0  503  502  0.00000000000E+00  0.00000000000E+00  0.29050990516E+03  0.29050990516E+03  0.00000000000E+00 0. -1.
         21   -1    0    0  501  503 -0.00000000000E+00 -0.00000000000E+00 -0.53215285476E+02  0.53215285476E+02  0.00000000000E+00 0. -1.
         24    1    1    2    0    0  0.79845837593E+02  0.27454365141E+02  0.13273256346E+03  0.17667554812E+03  0.80419002446E+02 0. -1.
          1    1    1    2  501    0 -0.10295086268E+03 -0.28106709917E+02  0.80426301156E+02  0.13363104873E+03  0.00000000000E+00 0. -1.
         -2    1    1    2    0  502  0.23105025083E+02  0.65234477635E+00  0.24135755070E+02  0.33418593785E+02  0.00000000000E+00 0.  1.
<mgrwt>
<rscale>  2 0.12321805E+03</rscale>
<asrwt>0</asrwt>
<pdfrwt beam="1">  1       21 0.44693831E-01 0.12321805E+03</pdfrwt>
<pdfrwt beam="2">  1       21 0.81869672E-02 0.12321805E+03</pdfrwt>
<totfact> 0.55826987E+05</totfact>
</mgrwt>
</event>
<event>
 5    1  0.1281005E-004  0.1696464E+03  0.7546771E-02  0.1178217E+00
         21   -1    0    0  501  502  0.00000000000E+00  0.00000000000E+00  0.99390962062E+03  0.99390962062E+03  0.00000000000E+00 0. -1.
         21   -1    0    0  502  503 -0.00000000000E+00 -0.00000000000E+00 -0.30944383766E+02  0.30944383766E+02  0.00000000000E+00 0.  1.
         24    1    1    2    0    0 -0.89236972313E+02 -0.10924145054E+02  0.29616037662E+03  0.31978236163E+03  0.80419002446E+02 0.  0.
          1    1    1    2  501    0 -0.63808238626E+02 -0.85986143704E+01  0.30537766795E+03  0.31209124879E+03  0.00000000000E+00 0. -1.
         -2    1    1    2    0  503  0.15304521094E+03  0.19522759425E+02  0.36142719228E+03  0.39298039397E+03  0.00000000000E+00 0.  1.
<mgrwt>
<rscale>  2 0.16964644E+03</rscale>
<asrwt>0</asrwt>
<pdfrwt beam="1">  1       21 0.15290915E+00 0.16964644E+03</pdfrwt>
<pdfrwt beam="2">  1       21 0.47606752E-02 0.16964644E+03</pdfrwt>
<totfact> 0.84033037E+04</totfact>
</mgrwt>
</event>
<event>
 5    1  0.1281005E-004  0.1317777E+03  0.7546771E-02  0.1224842E+00
         21   -1    0    0  503  502  0.00000000000E+00  0.00000000000E+00  0.48073459313E+02  0.48073459313E+02  0.00000000000E+00 0.  1.
         21   -1    0    0  501  503 -0.00000000000E+00 -0.00000000000E+00 -0.38185688112E+03  0.38185688112E+03  0.00000000000E+00 0. -1.
         24    1    1    2    0    0  0.48908611929E+02 -0.44668878480E+02 -0.86682658965E+02  0.13553029309E+03  0.80419002446E+02 0.  0.
          1    1    1    2  501    0  0.51817282195E+02  0.20929956637E+02 -0.74117025751E+02  0.92824712900E+02  0.00000000000E+00 0. -1.
         -2    1    1    2    0  502 -0.10072589412E+03  0.23738921843E+02 -0.17298373709E+03  0.20157533444E+03  0.00000000000E+00 0.  1.
<mgrwt>
<rscale>  2 0.13177771E+03</rscale>
<asrwt>0</asrwt>
<pdfrwt beam="1">  1       21 0.73959168E-02 0.13177771E+03</pdfrwt>
<pdfrwt beam="2">  1       21 0.58747213E-01 0.13177771E+03</pdfrwt>
<totfact> 0.37717531E+05</totfact>
</mgrwt>
</event>
<event>
 5    1  0.1281005E-004  0.1965443E+03  0.7546771E-02  0.1152688E+00
         21   -1    0    0  503  502  0.00000000000E+00  0.00000000000E+00  0.78871193645E+02  0.78871193645E+02  0.00000000000E+00 0.  1.
         21   -1    0    0  501  503 -0.00000000000E+00 -0.00000000000E+00 -0.49463262804E+03  0.49463262804E+03  0.00000000000E+00 0. -1.
         24    1    1    2    0    0 -0.46807448193E+02  0.69300900656E+02 -0.14874977067E+03  0.18864586469E+03  0.80419002446E+02 0. -1.
          1    1    1    2  501    0 -0.93976408343E+02  0.36650005807E+02 -0.10213187353E+03  0.14354688377E+03  0.00000000000E+00 0. -1.
         -2    1    1    2    0  502  0.14078385654E+03 -0.10595090646E+03 -0.16487979020E+03  0.24131107322E+03  0.00000000000E+00 0.  1.
<mgrwt>
<rscale>  2 0.19654429E+03</rscale>
<asrwt>0</asrwt>
<pdfrwt beam="1">  1       21 0.12134030E-01 0.19654429E+03</pdfrwt>
<pdfrwt beam="2">  1       21 0.76097327E-01 0.19654429E+03</pdfrwt>
<totfact> 0.88394897E+04</totfact>
</mgrwt>
</event>
<event>
 5    1  0.1281005E-004  0.1176487E+03  0.7546771E-02  0.1247027E+00
         21   -1    0    0  503  502  0.00000000000E+00  0.00000000000E+00  0.37447432507E+02  0.37447432507E+02  0.00000000000E+00 0. -1.
         21   -1    0    0  501  503 -0.00000000000E+00 -0.00000000000E+00 -0.37520089457E+03  0.37520089457E+03  0.00000000000E+00 0. -1.
         24    1    1    2    0    0  0.40643216143E+02  0.75788800720E+02 -0.19056021896E+03  0.22400050521E+03  0.80419002446E+02 0. -1.
          1    1    1    2  501    0 -0.67477076031E+01 -0.82690233285E+02 -0.96268105697E+02  0.12708561844E+03  0.00000000000E+00 0. -1.
         -2    1    1    2    0  502 -0.33895508540E+02  0.69014325659E+01 -0.50925137413E+02  0.61562203430E+02  0.00000000000E+00 0.  1.
<mgrwt>
<rscale>  2 0.11764871E+03</rscale>
<asrwt>0</asrwt>
<pdfrwt beam="1">  1       21 0.57611434E-02 0.11764871E+03</pdfrwt>
<pdfrwt beam="2">  1       21 0.57723215E-01 0.11764871E+03</pdfrwt>
<totfact> 0.59973599E+05</totfact>
</mgrwt>
</event>
<event>
 5    1  0.1281005E-004  0.1501675E+03  0.7546771E-02  0.1200267E+00
         21   -1    0    0  501  502  0.00000000000E+00  0.00000000000E+00  0.29513572593E+03  0.29513572593E+03  0.00000000000E+00 0. -1.
         21   -1    0    0  502  503 -0.00000000000E+00 -0.00000000000E+00 -0.79503363369E+02  0.79503363369E+02  0.00000000000E+00 0.  1.
         24    1    1    2    0    0 -0.77206866521E+02 -0.34981378440E+02  0.10581198263E+03  0.15763244811E+03  0.80419002446E+02 0.  0.
          1    1    1    2  501    0 -0.36964728443E+02 -0.33897696766E+02  0.50145198372E+02  0.70922393605E+02  0.00000000000E+00 0. -1.
         -2    1    1    2    0  503  0.11417159496E+03  0.68879075206E+02  0.59675181560E+02  0.14608424758E+03  0.00000000000E+00 0.  1.
<mgrwt>
<rscale>  2 0.15016745E+03</rscale>
<asrwt>0</asrwt>
<pdfrwt beam="1">  1       21 0.45405496E-01 0.15016745E+03</pdfrwt>
<pdfrwt beam="2">  1       21 0.12231287E-01 0.15016745E+03</pdfrwt>
<totfact> 0.26657499E+05</totfact>
</mgrwt>
</event>
<event>
 5    1  0.1281005E-004  0.4487901E+03  0.7546771E-02  0.1028083E+00
         21   -1    0    0  503  502  0.00000000000E+00  0.00000000000E+00  0.15915166642E+03  0.15915166642E+03  0.00000000000E+00 0. -1.
         21   -1    0    0  501  503 -0.00000000000E+00 -0.00000000000E+00 -0.13003790895E+04  0.13003790895E+04  0.00000000000E+00 0.  1.
         24    1    1    2    0    0  0.25098807140E+03 -0.46908201019E+02 -0.32716766296E+03  0.42273074995E+03  0.80419002446E+02 0.  0.
          1    1    1    2  501    0 -0.41940228674E+03  0.13398979899E+03 -0.47036065255E+03  0.64427531990E+03  0.00000000000E+00 0. -1.
         -2    1    1    2    0  502  0.16841421534E+03 -0.87081597967E+02 -0.34369910755E+03  0.39252468606E+03  0.00000000000E+00 0.  1.
<mgrwt>
<rscale>  2 0.44879012E+03</rscale>
<asrwt>0</asrwt>
<pdfrwt beam="1">  1       21 0.24484873E-01 0.44879012E+03</pdfrwt>
<pdfrwt beam="2">  1       21 0.20005831E+00 0.44879012E+03</pdfrwt>
<totfact> 0.17847897E+03</totfact>
</mgrwt>
</event>
<event>
 5    1  0.1281005E-004  0.2906298E+03  0.7546771E-02  0.1090021E+00
         21   -1    0    0  501  502  0.00000000000E+00  0.00000000000E+00  0.18759483691E+03  0.18759483691E+03  0.00000000000E+00 0.  1.
         21   -1    0    0  502  503 -0.00000000000E+00 -0.00000000000E+00 -0.45956729517E+03  0.45956729517E+03  0.00000000000E+00 0. -1.
         24    1    1    2    0    0  0.54409703241E+02  0.21620534018E+03 -0.14495816576E+03  0.27782233658E+03  0.80419002446E+02 0. -1.
          1    1    1    2  501    0  0.59007797335E+01  0.60633715221E+02 -0.58943148548E+01  0.61204653178E+02  0.00000000000E+00 0. -1.
         -2    1    1    2    0  503 -0.60310482974E+02 -0.27683905540E+03 -0.12111997764E+03  0.30813514232E+03  0.00000000000E+00 0.  1.
<mgrwt>
<rscale>  2 0.29062982E+03</rscale>
<asrwt>0</asrwt>
<pdfrwt beam="1">  1       21 0.28860745E-01 0.29062982E+03</pdfrwt>
<pdfrwt beam="2">  1       21 0.70702660E-01 0.29062982E+03</pdfrwt>
<totfact> 0.19816602E+04</totfact>
</mgrwt>
</event>
<event>
 5    1  0.1281005E-004  0.1241490E+03  0.7546771E-02  0.1236405E+00
         21   -1    0    0  501  502  0.00000000000E+00  0.00000000000E+00  0.65766309103E+03  0.65766309103E+03  0.00000000000E+00 0. -1.
         21   -1    0    0  502  503 -0.00000000000E+00 -0.00000000000E+00 -0.24171900702E+02  0.24171900702E+02  0.00000000000E+00 0.  1.
         24    1    1    2    0    0 -0.13900457949E+02  0.60838689438E+02  0.31946905528E+03  0.33529429178E+03  0.80419002446E+02 0.  0.
          1    1    1    2  501    0  0.73033050235E+02 -0.24182313794E+02  0.16973137188E+03  0.18635275508E+03  0.00000000000E+00 0. -1.
         -2    1    1    2    0  503 -0.59132592286E+02 -0.36656375644E+02  0.14429076318E+03  0.16018794488E+03  0.00000000000E+00 0.  1.
<mgrwt>
<rscale>  2 0.12414900E+03</rscale>
<asrwt>0</asrwt>
<pdfrwt beam="1">  1       21 0.10117892E+00 0.12414900E+03</pdfrwt>
<pdfrwt beam="2">  1       21 0.37187545E-02 0.12414900E+03</pdfrwt>
<totfact> 0.35917118E+05</totfact>
</mgrwt>
</event>
<event>
 5    1  0.1281005E-004  0.1204962E+03  0.7546771E-02  0.1242281E+00
         21   -1    0    0  503  502  0.00000000000E+00  0.00000000000E+00  0.44675775682E+02  0.44675775682E+02  0.00000000000E+00 0.  1.
         21   -1    0    0  501  503 -0.00000000000E+00 -0.00000000000E+00 -0.36291254086E+03  0.36291254086E+03  0.00000000000E+00 0. -1.
         24    1    1    2    0    0 -0.12310345365E+02 -0.25686000786E+02 -0.54869550843E+02  0.10143568802E+03  0.80419002446E+02 0.  0.
          1    1    1    2  501    0  0.47586801616E+02  0.78718690277E+02 -0.16654142986E+03  0.19025557482E+03  0.00000000000E+00 0. -1.
         -2    1    1    2    0  502 -0.35276456251E+02 -0.53032689491E+02 -0.96825784471E+02  0.11589705371E+03  0.00000000000E+00 0.  1.
<mgrwt>
<rscale>  2 0.12049625E+03</rscale>
<asrwt>0</asrwt>
<pdfrwt beam="1">  1       21 0.68731961E-02 0.12049625E+03</pdfrwt>
<pdfrwt beam="2">  1       21 0.55832700E-01 0.12049625E+03</pdfrwt>
<totfact> 0.47660140E+05</totfact>
</mgrwt>
</event>
<event>
 5    1  0.1281005E-004  0.1617896E+03  0.7546771E-02  0.1186691E+00
         21   -1    0    0  503  502  0.00000000000E+00  0.00000000000E+00  0.22034012599E+03  0.22034012599E+03  0.00000000000E+00 0.  1.
         21   -1    0    0  501  503 -0.00000000000E+00 -0.00000000000E+00 -0.12015096886E+03  0.12015096886E+03  0.00000000000E+00 0.  1.
         24    1    1    2    0    0  0.46874277600E+02  0.34017560177E+02  0.24454637936E+02  0.10207662598E+03  0.80419002446E+02 0.  1.
          1    1    1    2  501    0  0.86861000808E+02 -0.16409724067E+01  0.15674102711E+02  0.88279124076E+02  0.00000000000E+00 0. -1.
         -2    1    1    2    0  502 -0.13373527841E+03 -0.32376587771E+02  0.60060416490E+02  0.15013534479E+03  0.00000000000E+00 0.  1.
<mgrwt>
<rscale>  2 0.16178955E+03</rscale>
<asrwt>0</asrwt>
<pdfrwt beam="1">  1       21 0.33898481E-01 0.16178955E+03</pdfrwt>
<pdfrwt beam="2">  1       21 0.18484765E-01 0.16178955E+03</pdfrwt>
<totfact> 0.22601805E+05</totfact>
</mgrwt>
</event>
<event>
 5    1  0.1281005E-004  0.1082615E+03  0.7546771E-02  0.1263824E+00
         21   -1    0    0  501  502  0.00000000000E+00  0.00000000000E+00  0.98316109227E+02  0.98316109227E+02  0.00000000000E+00 0. -1.
         21   -1    0    0  502  503 -0.00000000000E+00 -0.00000000000E+00 -0.12653030613E+03  0.12653030613E+03  0.00000000000E+00 0.  1.
         24    1    1    2    0    0 -0.54191642948E+01 -0.18788230419E+01  0.13200213209E+02  0.81696749634E+02  0.80419002446E+02 0.  0.
          1    1    1    2  501    0  0.47553349096E+02 -0.50042593971E+02 -0.30197144084E+02  0.75348853558E+02  0.00000000000E+00 0. -1.
         -2    1    1    2    0  503 -0.42134184802E+02  0.51921417013E+02 -0.11217266031E+02  0.67800812169E+02  0.00000000000E+00 0.  1.
<mgrwt>
<rscale>  2 0.10826147E+03</rscale>
<asrwt>0</asrwt>
<pdfrwt beam="1">  1       21 0.15125555E-01 0.10826147E+03</pdfrwt>
<pdfrwt beam="2">  1       21 0.19466201E-01 0.10826147E+03</pdfrwt>
<totfact> 0.93796032E+05</totfact>
</mgrwt>
</event>
<event>
 5    1  0.1281005E-004  0.1214831E+03  0.7546771E-02  0.1240670E+00
         21   -1    0    0  501  502  0.00000000000E+00  0.00000000000E+00  0.14896458893E+03  0.14896458893E+03  0.00000000000E+00 0.  1.
         21   -1    0    0  502  503 -0.00000000000E+00 -0.00000000000E+00 -0.10112042729E+03  0.10112042729E+03  0.00000000000E+00 0. -1.
         24    1    1    2    0    0  0.44591765658E+02  0.42177984787E+02  0.15745753009E+02  0.10238433795E+03  0.80419002446E+02 0. -1.
          1    1    1    2  501    0  0.38936685531E+02  0.13731379216E+02  0.21724628531E+02  0.46653785914E+02  0.00000000000E+00 0. -1.
         -2    1    1    2    0  503 -0.83528451188E+02 -0.55909364003E+02  0.10373780103E+02  0.10104689236E+03  0.00000000000E+00 0.  1.
<mgrwt>
<rscale>  2 0.12148315E+03</rscale>
<asrwt>0</asrwt>
<pdfrwt beam="1">  1       21 0.22917629E-01 0.12148315E+03</pdfrwt>
<pdfrwt beam="2">  1       21 0.15556989E-01 0.12148315E+03</pdfrwt>
<totfact> 0.65932038E+05</totfact>
</mgrwt>
</event>
<event>
 5    1  0.1281005E-004  0.1380023E+03  0.7546771E-02  0.1216043E+00
         21   -1    0    0  501  502  0.00000000000E+00  0.00000000000E+00  0.22060272120E+04  0.22060272120E+04  0.00000000000E+00 0.  1.
         21   -1    0    0  502  503 -0.00000000000E+00 -0.00000000000E+00 -0.12175812037E+02  0.12175812037E+02  0.00000000000E+00 0. -1.
         24    1    1    2    0    0 -0.97106459777E+02 -0.31972297527E+02  0.16329863985E+04  0.16381586267E+04  0.80419002446E+02 0.  0.
          1    1    1    2  501    0  0.72673853793E+01 -0.33810530943E+02  0.17743793697E+03  0.18077662561E+03  0.00000000000E+00 0. -1.
         -2    1    1    2    0  503  0.89839074398E+02  0.65782828470E+02  0.38342706446E+03  0.39926777176E+03  0.00000000000E+00 0.  1.
<mgrwt>
<rscale>  2 0.13800225E+03</rscale>
<asrwt>0</asrwt>
<pdfrwt beam="1">  1       21 0.33938849E+00 0.13800225E+03</pdfrwt>
<pdfrwt beam="2">  1       21 0.18732036E-02 0.13800225E+03</pdfrwt>
<totfact> 0.29502756E+04</totfact>
</mgrwt>
</event>
<event>
 5    1  0.1281005E-004  0.1696501E+03  0.7546771E-02  0.1178213E+00
         21   -1    0    0  501  502  0.00000000000E+00  0.00000000000E+00  0.52374214779E+03  0.52374214779E+03  0.00000000000E+00 0.  1.
         21   -1    0    0  502  503 -0.00000000000E+00 -0.00000000000E+00 -0.56319682712E+02  0.56319682712E+02  0.00000000000E+00 0.  1.
         24    1    1    2    0    0  0.35031232423E+02  0.19068018489E+02  0.90895691677E+02  0.12774983090E+03  0.80419002446E+02 0.  1.
          1    1    1    2  501    0  0.90968998269E+02  0.52091840354E+02  0.17926636727E+03  0.20766643666E+03  0.00000000000E+00 0. -1.
         -2    1    1    2    0  503 -0.12600023069E+03 -0.71159858844E+02  0.19726040612E+03  0.24464556295E+03  0.00000000000E+00 0.  1.
<mgrwt>
<rscale>  2 0.16965011E+03</rscale>
<asrwt>0</asrwt>
<pdfrwt beam="1">  1       21 0.80575712E-01 0.16965011E+03</pdfrwt>
<pdfrwt beam="2">  1       21 0.86645669E-02 0.16965011E+03</pdfrwt>
<totfact> 0.14244565E+05</totfact>
</mgrwt>
</event>
<event>
 5    1  0.1281005E-004  0.1536986E+03  0.7546771E-02  0.1196001E+00
         21   -1    0    0  503  502  0.00000000000E+00  0.00000000000E+00  0.31064135667E+03  0.31064135667E+03  0.00000000000E+00 0. -1.
         21   -1    0    0  501  503 -0.00000000000E+00 -0.00000000000E+00 -0.77769803155E+02  0.77769803155E+02  0.00000000000E+00 0.  1.
         24    1    1    2    0    0  0.54883555028E+02  0.18047471263E+02  0.99661527329E+02  0.14049039759E+03  0.80419002446E+02 0.  0.
          1    1    1    2  501    0  0.74528113893E+02 -0.25448286281E+02  0.60401811097E+02  0.99249351731E+02  0.00000000000E+00 0. -1.
         -2    1    1    2    0  502 -0.12941166892E+03  0.74008150185E+01  0.72808215086E+02  0.14867141050E+03  0.00000000000E+00 0.  1.
<mgrwt>
<rscale>  2 0.15369855E+03</rscale>
<asrwt>0</asrwt>
<pdfrwt beam="1">  1       21 0.47790977E-01 0.15369855E+03</pdfrwt>
<pdfrwt beam="2">  1       21 0.11964585E-01 0.15369855E+03</pdfrwt>
<totfact> 0.24942732E+05</totfact>
</mgrwt>
</event>
<event>
 5    1  0.1281005E-004  0.2281654E+03  0.7546771E-02  0.1127938E+00
         21   -1    0    0  503  502  0.00000000000E+00  0.00000000000E+00  0.77829329665E+03  0.77829329665E+03  0.00000000000E+00 0.  1.
         21   -1    0    0  501  503 -0.00000000000E+00 -0.00000000000E+00 -0.71248092066E+02  0.71248092066E+02  0.00000000000E+00 0. -1.
         24    1    1    2    0    0 -0.81010326888E+01 -0.37314698959E+02  0.73618522658E+02  0.11552019876E+03  0.80419002446E+02 0. -1.
          1    1    1    2  501    0 -0.11670458107E+03 -0.11940363440E+03  0.33915519973E+03  0.37802570898E+03  0.00000000000E+00 0. -1.
         -2    1    1    2    0  502  0.12480561376E+03  0.15671833336E+03  0.29427148220E+03  0.35599548097E+03  0.00000000000E+00 0.  1.
<mgrwt>
<rscale>  2 0.22816539E+03</rscale>
<asrwt>0</asrwt>
<pdfrwt beam="1">  1       21 0.11973742E+00 0.22816539E+03</pdfrwt>
<pdfrwt beam="2">  1       21 0.10961245E-01 0.22816539E+03</pdfrwt>
<totfact> 0.35918345E+04</totfact>
</mgrwt>
</event>
<event>
 5    1  0.1281005E-004  0.1441059E+03  0.7546771E-02  0.1207909E+00
         21   -1    0    0  503  502  0.00000000000E+00  0.00000000000E+00  0.12500640173E+03  0.12500640173E+03  0.00000000000E+00 0. -1.
         21   -1    0    0  501  503 -0.00000000000E+00 -0.00000000000E+00 -0.17048071021E+03  0.17048071021E+03  0.00000000000E+00 0.  1.
         24    1    1    2    0    0 -0.83362385420E+02 -0.70908387321E+02  0.21195036667E+01  0.13582707737E+03  0.80419002446E+02 0. -1.
          1    1    1    2  501    0 -0.23326012101E+02 -0.16392964264E+01 -0.73095352960E+01  0.24499376309E+02  0.00000000000E+00 0. -1.
         -2    1    1    2    0  502  0.10668839752E+03  0.72547683747E+02 -0.40284276846E+02  0.13516065827E+03  0.00000000000E+00 0.  1.
<mgrwt>
<rscale>  2 0.14410592E+03</rscale>
<asrwt>0</asrwt>
<pdfrwt beam="1">  1       21 0.19231754E-01 0.14410592E+03</pdfrwt>
<pdfrwt beam="2">  1       21 0.26227802E-01 0.14410592E+03</pdfrwt>
<totfact> 0.34638613E+05</totfact>
</mgrwt>
</event>
<event>
 5    1  0.1281005E-004  0.2674308E+03  0.7546771E-02  0.1102759E+00
         21   -1    0    0  501  502  0.00000000000E+00  0.00000000000E+00  0.19130242594E+04  0.19130242594E+04  0.00000000000E+00 0.  1.
         21   -1    0    0  502  503 -0.00000000000E+00 -0.00000000000E+00 -0.39189361238E+02  0.39189361238E+02  0.00000000000E+00 0. -1.
         24    1    1    2    0    0 -0.18166249775E+02  0.25295841095E+02  0.20428229744E+03  0.22173940834E+03  0.80419002446E+02 0.  0.
          1    1    1    2  501    0  0.19634205154E+03 -0.13601180258E+03  0.10327371375E+04  0.10599978334E+04  0.00000000000E+00 0. -1.
         -2    1    1    2    0  503 -0.17817580177E+03  0.11071596149E+03  0.63681546322E+03  0.67047637890E+03  0.00000000000E+00 0.  1.
<mgrwt>
<rscale>  2 0.26743084E+03</rscale>
<asrwt>0</asrwt>
<pdfrwt beam="1">  1       21 0.29431135E+00 0.26743084E+03</pdfrwt>
<pdfrwt beam="2">  1       21 0.60291340E-02 0.26743084E+03</pdfrwt>
<totfact> 0.67067838E+03</totfact>
</mgrwt>
</event>
<event>
 5    1  0.1281005E-004  0.1072786E+03  0.7546771E-02  0.1265694E+00
         21   -1    0    0  501  502  0.00000000000E+00  0.00000000000E+00  0.46125066354E+03  0.46125066354E+03  0.00000000000E+00 0. -1.
         21   -1    0    0  502  503 -0.00000000000E+00 -0.00000000000E+00 -0.25250029148E+02  0.25250029148E+02  0.00000000000E+00 0.  1.
         24    1    1    2    0    0 -0.31079416253E+02 -0.19159893491E+02  0.20432762175E+03  0.22259834815E+03  0.80419002446E+02 0.  0.
          1    1    1    2  501    0 -0.34212117135E+02  0.44561051423E+02  0.96906122532E+02  0.11201318158E+03  0.00000000000E+00 0. -1.
         -2    1    1    2    0  503  0.65291533388E+02 -0.25401157931E+02  0.13476689011E+03  0.15188916296E+03  0.00000000000E+00 0.  1.
<mgrwt>
<rscale>  2 0.10727863E+03</rscale>
<asrwt>0</asrwt>
<pdfrwt beam="1">  1       21 0.70961634E-01 0.10727863E+03</pdfrwt>
<pdfrwt beam="2">  1       21 0.38846202E-02 0.10727863E+03</pdfrwt>
<totfact> 0.74477097E+05</totfact>
</mgrwt>
</event>
<event>
 5    1  0.1281005E-004  0.1807453E+03  0.7546771E-02  0.1167084E+00
         21   -1    0    0  501  502  0.00000000000E+00  0.00000000000E+00  0.21684043712E+04  0.21684043712E+04  0.00000000000E+00 0. -1.
         21   -1    0    0  502  503 -0.00000000000E+00 -0.00000000000E+00 -0.16151145366E+02  0.16151145366E+02  0.00000000000E+00 0. -1.
         24    1    1    2    0    0 -0.12812506489E+03 -0.54744862297E+01  0.76154695461E+03  0.77644509289E+03  0.80419002446E+02 0. -1.
          1    1    1    2  501    0  0.16252705042E+03  0.33263356982E+02  0.12400460055E+04  0.12510937570E+04  0.00000000000E+00 0. -1.
         -2    1    1    2    0  503 -0.34401985528E+02 -0.27788870752E+02  0.15066026573E+03  0.15701666669E+03  0.00000000000E+00 0.  1.
<mgrwt>
<rscale>  2 0.18074533E+03</rscale>
<asrwt>0</asrwt>
<pdfrwt beam="1">  1       21 0.33360044E+00 0.18074533E+03</pdfrwt>
<pdfrwt beam="2">  1       21 0.24847933E-02 0.18074533E+03</pdfrwt>
<totfact> 0.19088946E+04</totfact>
</mgrwt>
</event>
<event>
 5    1  0.1281005E-004  0.1622094E+03  0.7546771E-02  0.1186225E+00
         21   -1    0    0  501  502  0.00000000000E+00  0.00000000000E+00  0.88740512056E+03  0.88740512056E+03  0.00000000000E+00 0. -1.
         21   -1    0    0  502  503 -0.00000000000E+00 -0.00000000000E+00 -0.33508645949E+02  0.33508645949E+02  0.00000000000E+00 0.  1.
         24    1    1    2    0    0 -0.21292146619E+01  0.41159710998E+01  0.17985686456E+03  0.19707151609E+03  0.80419002446E+02 0.  0.
          1    1    1    2  501    0  0.68961710621E+02 -0.10333793208E+03  0.48060936857E+03  0.49640690053E+03  0.00000000000E+00 0. -1.
         -2    1    1    2    0  503 -0.66832495959E+02  0.99221960978E+02  0.19343024149E+03  0.22743534989E+03  0.00000000000E+00 0.  1.
<mgrwt>
<rscale>  2 0.16220944E+03</rscale>
<asrwt>0</asrwt>
<pdfrwt beam="1">  1       21 0.13652385E+00 0.16220944E+03</pdfrwt>
<pdfrwt beam="2">  1       21 0.51551770E-02 0.16220944E+03</pdfrwt>
<totfact> 0.98918331E+04</totfact>
</mgrwt>
</event>
<event>
 5    1  0.1281005E-004  0.1258037E+03  0.7546771E-02  0.1233818E+00
         21   -1    0    0  501  502  0.00000000000E+00  0.00000000000E+00  0.78257376534E+03  0.78257376534E+03  0.00000000000E+00 0. -1.
         21   -1    0    0  502  503 -0.00000000000E+00 -0.00000000000E+00 -0.21985395376E+02  0.21985395376E+02  0.00000000000E+00 0.  1.
         24    1    1    2    0    0  0.42083868128E+02 -0.32563798780E+02  0.21063377980E+03  0.23165763120E+03  0.80419002446E+02 0.  1.
          1    1    1    2  501    0 -0.51387028513E+00 -0.56703577965E+02  0.27655947571E+03  0.28231313009E+03  0.00000000000E+00 0. -1.
         -2    1    1    2    0  503 -0.41569997843E+02  0.89267376745E+02  0.27339511446E+03  0.29058839942E+03  0.00000000000E+00 0.  1.
<mgrwt>
<rscale>  2 0.12580374E+03</rscale>
<asrwt>0</asrwt>
<pdfrwt beam="1">  1       21 0.12039594E+00 0.12580374E+03</pdfrwt>
<pdfrwt beam="2">  1       21 0.33823691E-02 0.12580374E+03</pdfrwt>
<totfact> 0.27711295E+05</totfact>
</mgrwt>
</event>
<event>
 5    1  0.1281005E-004  0.1491773E+03  0.7546771E-02  0.1201488E+00
         21   -1    0    0  503  502  0.00000000000E+00  0.00000000000E+00  0.39109497367E+02  0.39109497367E+02  0.00000000000E+00 0. -1.
         21   -1    0    0  501  503 -0.00000000000E+00 -0.00000000000E+00 -0.60404449392E+03  0.60404449392E+03  0.00000000000E+00 0.  1.
         24    1    1    2    0    0  0.76231588821E+02  0.22333023982E+02 -0.22368973165E+03  0.25062787374E+03  0.80419002446E+02 0. -1.
          1    1    1    2  501    0 -0.12920887990E+03 -0.40416571651E+01 -0.17845130799E+03  0.22035457554E+03  0.00000000000E+00 0. -1.
         -2    1    1    2    0  502  0.52977291082E+02 -0.18291366817E+02 -0.16279395690E+03  0.17217154200E+03  0.00000000000E+00 0.  1.
<mgrwt>
<rscale>  2 0.14917731E+03</rscale>
<asrwt>0</asrwt>
<pdfrwt beam="1">  1       21 0.60168457E-02 0.14917731E+03</pdfrwt>
<pdfrwt beam="2">  1       21 0.92929923E-01 0.14917731E+03</pdfrwt>
<totfact> 0.19408023E+05</totfact>
</mgrwt>
</event>
<event>
 5    1  0.1281005E-004  0.1207680E+03  0.7546771E-02  0.1241835E+00
         21   -1    0    0  503  502  0.00000000000E+00  0.00000000000E+00  0.52998002155E+02  0.52998002155E+02  0.00000000000E+00 0.  1.
         21   -1    0    0  501  503 -0.00000000000E+00 -0.00000000000E+00 -0.29352605797E+03  0.29352605797E+03  0.00000000000E+00 0.  1.
         24    1    1    2    0    0  0.77409271361E+02 -0.91799080457E+01 -0.73188520727E+02  0.13379178422E+03  0.80419002446E+02 0.  1.
          1    1    1    2  501    0  0.24038372009E+02 -0.10443989717E+02 -0.49472249923E+02  0.55985924682E+02  0.00000000000E+00 0. -1.
         -2    1    1    2    0  502 -0.10144764337E+03  0.19623897763E+02 -0.11786728516E+03  0.15674635122E+03  0.00000000000E+00 0.  1.
<mgrwt>
<rscale>  2 0.12076798E+03</rscale>
<asrwt>0</asrwt>
<pdfrwt beam="1">  1       21 0.81535390E-02 0.12076798E+03</pdfrwt>
<pdfrwt beam="2">  1       21 0.45157854E-01 0.12076798E+03</pdfrwt>
<totfact> 0.55064193E+05</totfact>
</mgrwt>
</event>
<event>
 5    1  0.1281005E-004  0.1223786E+03  0.7546771E-02  0.1239224E+00
         21   -1    0    0  503  502  0.00000000000E+00  0.00000000000E+00  0.58668059785E+03  0.58668059785E+03  0.00000000000E+00 0. -1.
         21   -1    0    0  501  503 -0.00000000000E+00 -0.00000000000E+00 -0.26682366582E+02  0.26682366582E+02  0.00000000000E+00 0. -1.
         24    1    1    2    0    0  0.10854687370E+03 -0.95934934000E+01  0.25384602438E+03  0.28771423141E+03  0.80419002446E+02 0. -1.
          1    1    1    2  501    0 -0.30965907497E+02 -0.12468584108E+01  0.11413380342E+03  0.11826650906E+03  0.00000000000E+00 0. -1.
         -2    1    1    2    0  502 -0.77580966205E+02  0.10840351811E+02  0.19201840347E+03  0.20738222396E+03  0.00000000000E+00 0.  1.
<mgrwt>
<rscale>  2 0.12237855E+03</rscale>
<asrwt>0</asrwt>
<pdfrwt beam="1">  1       21 0.90258544E-01 0.12237855E+03</pdfrwt>
<pdfrwt beam="2">  1       21 0.41049799E-02 0.12237855E+03</pdfrwt>
<totfact> 0.39724341E+05</totfact>
</mgrwt>
</event>
<event>
 5    1  0.1281005E-004  0.3175138E+03  0.7546771E-02  0.1076799E+00
         21   -1    0    0  501  502  0.00000000000E+00  0.00000000000E+00  0.79286556299E+03  0.79286556299E+03  0.00000000000E+00 0. -1.
         21   -1    0    0  502  503 -0.00000000000E+00 -0.00000000000E+00 -0.14005710242E+03  0.14005710242E+03  0.00000000000E+00 0.  1.
         24    1    1    2    0    0  0.61673946359E+02 -0.41096707627E+02  0.29812916475E+02  0.11335184595E+03  0.80419002446E+02 0. -1.
          1    1    1    2  501    0 -0.24682218584E+02  0.28142634429E+03  0.39955084602E+03  0.48933718204E+03  0.00000000000E+00 0. -1.
         -2    1    1    2    0  503 -0.36991727775E+02 -0.24032963666E+03  0.22344469808E+03  0.33023363741E+03  0.00000000000E+00 0.  1.
<mgrwt>
<rscale>  2 0.31751376E+03</rscale>
<asrwt>0</asrwt>
<pdfrwt beam="1">  1       21 0.12197931E+00 0.31751376E+03</pdfrwt>
<pdfrwt beam="2">  1       21 0.21547247E-01 0.31751376E+03</pdfrwt>
<totfact> 0.94714190E+03</totfact>
</mgrwt>
</event>
<event>
 5    1  0.1281005E-004  0.1669172E+03  0.7546771E-02  0.1181101E+00
         21   -1    0    0  501  502  0.00000000000E+00  0.00000000000E+00  0.42303836618E+03  0.42303836618E+03  0.00000000000E+00 0.  1.
         21   -1    0    0  502  503 -0.00000000000E+00 -0.00000000000E+00 -0.69906258433E+02  0.69906258433E+02  0.00000000000E+00 0. -1.
         24    1    1    2    0    0  0.13737764544E+02  0.23005170143E+02  0.57986501548E+02  0.10270157907E+03  0.80419002446E+02 0. -1.
          1    1    1    2  501    0  0.35091423383E+02  0.10572107885E+03  0.90128926673E+02  0.14328844312E+03  0.00000000000E+00 0. -1.
         -2    1    1    2    0  503 -0.48829187926E+02 -0.12872624899E+03  0.20501667952E+03  0.24695460242E+03  0.00000000000E+00 0.  1.
<mgrwt>
<rscale>  2 0.16691722E+03</rscale>
<asrwt>0</asrwt>
<pdfrwt beam="1">  1       21 0.65082824E-01 0.16691722E+03</pdfrwt>
<pdfrwt beam="2">  1       21 0.10754809E-01 0.16691722E+03</pdfrwt>
<totfact> 0.15639085E+05</totfact>
</mgrwt>
</event>
<event>
 5    1  0.1281005E-004  0.1164842E+03  0.7546771E-02  0.1249012E+00
         21   -1    0    0  503  502  0.00000000000E+00  0.00000000000E+00  0.51611919525E+03  0.51611919525E+03  0.00000000000E+00 0. -1.
         21   -1    0    0  501  503 -0.00000000000E+00 -0.00000000000E+00 -0.27260931846E+02  0.27260931846E+02  0.00000000000E+00 0.  1.
         24    1    1    2    0    0  0.35640217207E+02 -0.25391764324E+02  0.22237282993E+03  0.24048255285E+03  0.80419002446E+02 0.  0.
          1    1    1    2  501    0 -0.84524337468E+02  0.35191059356E+02  0.14385761146E+03  0.17052210020E+03  0.00000000000E+00 0. -1.
         -2    1    1    2    0  502  0.48884120260E+02 -0.97992950321E+01  0.12262782201E+03  0.13237547404E+03  0.00000000000E+00 0.  1.
<mgrwt>
<rscale>  2 0.11648419E+03</rscale>
<asrwt>0</asrwt>
<pdfrwt beam="1">  1       21 0.79402946E-01 0.11648419E+03</pdfrwt>
<pdfrwt beam="2">  1       21 0.41939899E-02 0.11648419E+03</pdfrwt>
<totfact> 0.51211695E+05</totfact>
</mgrwt>
</event>
<event>
 5    1  0.1281005E-004  0.1067369E+03  0.7546771E-02  0.1266735E+00
         21   -1    0    0  501  502  0.00000000000E+00  0.00000000000E+00  0.17263942161E+04  0.17263942161E+04  0.00000000000E+00 0. -1.
         21   -1    0    0  502  503 -0.00000000000E+00 -0.00000000000E+00 -0.75112121269E+01  0.75112121269E+01  0.00000000000E+00 0.  1.
         24    1    1    2    0    0  0.28961510650E+02  0.88877934483E+00  0.43132084537E+03  0.43970950255E+03  0.80419002446E+02 0.  0.
          1    1    1    2  501    0 -0.70636839661E+02  0.29362800656E+02  0.89646940718E+03  0.89972725600E+03  0.00000000000E+00 0. -1.
         -2    1    1    2    0  503  0.41675329011E+02 -0.30251580000E+02  0.39109275141E+03  0.39446866966E+03  0.00000000000E+00 0.  1.
<mgrwt>
<rscale>  2 0.10673691E+03</rscale>
<asrwt>0</asrwt>
<pdfrwt beam="1">  1       21 0.26559879E+00 0.10673691E+03</pdfrwt>
<pdfrwt beam="2">  1       21 0.11555725E-02 0.10673691E+03</pdfrwt>
<totfact> 0.17206967E+05</totfact>
</mgrwt>
</event>
<event>
 5    1  0.1281005E-004  0.2541850E+03  0.7546771E-02  0.1110688E+00
         21   -1    0    0  501  502  0.00000000000E+00  0.00000000000E+00  0.85298653094E+03  0.85298653094E+03  0.00000000000E+00 0.  1.
         21   -1    0    0  502  503 -0.00000000000E+00 -0.00000000000E+00 -0.79497628348E+02  0.79497628348E+02  0.00000000000E+00 0.  1.
         24    1    1    2    0    0 -0.16151112892E+03 -0.14318165145E+03  0.25168048620E+03  0.34117021142E+03  0.80419002446E+02 0.  1.
          1    1    1    2  501    0 -0.14461539761E+02 -0.28643775884E+02  0.65848247342E+02  0.73250213018E+02  0.00000000000E+00 0. -1.
         -2    1    1    2    0  503  0.17597266868E+03  0.17182542733E+03  0.45596016905E+03  0.51806373484E+03  0.00000000000E+00 0.  1.
<mgrwt>
<rscale>  2 0.25418496E+03</rscale>
<asrwt>0</asrwt>
<pdfrwt beam="1">  1       21 0.13122869E+00 0.25418496E+03</pdfrwt>
<pdfrwt beam="2">  1       21 0.12230405E-01 0.25418496E+03</pdfrwt>
<totfact> 0.23116063E+04</totfact>
</mgrwt>
</event>
<event>
 5    1  0.1281005E-004  0.1959119E+03  0.7546771E-02  0.1153235E+00
         21   -1    0    0  501  502  0.00000000000E+00  0.00000000000E+00  0.66691376341E+02  0.66691376341E+02  0.00000000000E+00 0.  1.
         21   -1    0    0  502  503 -0.00000000000E+00 -0.00000000000E+00 -0.57762553184E+03  0.57762553184E+03  0.00000000000E+00 0. -1.
         24    1    1    2    0    0  0.14131612412E+03  0.24127123142E+02 -0.23275210356E+03  0.28494406938E+03  0.80419002446E+02 0.  0.
          1    1    1    2  501    0  0.15894063766E+02  0.50848067958E+02 -0.61464593460E+02  0.81339065198E+02  0.00000000000E+00 0. -1.
         -2    1    1    2    0  503 -0.15721018789E+03 -0.74975191100E+02 -0.21671745848E+03  0.27803377360E+03  0.00000000000E+00 0.  1.
<mgrwt>
<rscale>  2 0.19591193E+03</rscale>
<asrwt>0</asrwt>
<pdfrwt beam="1">  1       21 0.10260212E-01 0.19591193E+03</pdfrwt>
<pdfrwt beam="2">  1       21 0.88865466E-01 0.19591193E+03</pdfrwt>
<totfact> 0.83769345E+04</totfact>
</mgrwt>
</event>
<event>
 5    1  0.1281005E-004  0.2385914E+03  0.7546771E-02  0.1120735E+00
         21   -1    0    0  503  502  0.00000000000E+00  0.00000000000E+00  0.26252851722E+02  0.26252851722E+02  0.00000000000E+00 0.  1.
         21   -1    0    0  501  503 -0.00000000000E+00 -0.00000000000E+00 -0.22597085062E+04  0.22597085062E+04  0.00000000000E+00 0. -1.
         24    1    1    2    0    0 -0.11303382840E+03 -0.75020400314E+02 -0.86996480551E+03  0.88414404121E+03  0.80419002446E+02 0. -1.
          1    1    1    2  501    0 -0.96985125343E+02  0.16205715674E+01 -0.54827905591E+03  0.55679319675E+03  0.00000000000E+00 0. -1.
         -2    1    1    2    0  502  0.21001895374E+03  0.73399828747E+02 -0.81521179308E+03  0.84502411999E+03  0.00000000000E+00 0.  1.
<mgrwt>
<rscale>  2 0.23859142E+03</rscale>
<asrwt>0</asrwt>
<pdfrwt beam="1">  1       21 0.40388999E-02 0.23859142E+03</pdfrwt>
<pdfrwt beam="2">  1       21 0.34764750E+00 0.23859142E+03</pdfrwt>
<totfact> 0.66119591E+03</totfact>
</mgrwt>
</event>
<event>
 5    1  0.1281005E-004  0.1764922E+03  0.7546771E-02  0.1171242E+00
         21   -1    0    0  503  502  0.00000000000E+00  0.00000000000E+00  0.19720434853E+03  0.19720434853E+03  0.00000000000E+00 0.  1.
         21   -1    0    0  501  503 -0.00000000000E+00 -0.00000000000E+00 -0.16317365625E+03  0.16317365625E+03  0.00000000000E+00 0.  1.
         24    1    1    2    0    0  0.12371518164E+03 -0.20511782752E+02  0.10577017641E+02  0.14934948496E+03  0.80419002446E+02 0.  1.
          1    1    1    2  501    0  0.37714341281E+02 -0.11517092106E+02 -0.14705351157E+02  0.42086367169E+02  0.00000000000E+00 0. -1.
         -2    1    1    2    0  502 -0.16142952292E+03  0.32028874858E+02  0.38159025794E+02  0.16894215266E+03  0.00000000000E+00 0.  1.
<mgrwt>
<rscale>  2 0.17649220E+03</rscale>
<asrwt>0</asrwt>
<pdfrwt beam="1">  1       21 0.30339131E-01 0.17649220E+03</pdfrwt>
<pdfrwt beam="2">  1       21 0.25103639E-01 0.17649220E+03</pdfrwt>
<totfact> 0.15746650E+05</totfact>
</mgrwt>
</event>
<event>
 5    1  0.1281005E-004  0.2522802E+03  0.7546771E-02  0.1111872E+00
         21   -1    0    0  503  502  0.00000000000E+00  0.00000000000E+00  0.91906749449E+03  0.91906749449E+03  0.00000000000E+00 0. -1.
         21   -1    0    0  501  503 -0.00000000000E+00 -0.00000000000E+00 -0.73986866088E+02  0.73986866088E+02  0.00000000000E+00 0. -1.
         24    1    1    2    0    0  0.28421521304E+02  0.18622782195E+03  0.22875824762E+03  0.30706047669E+03  0.80419002446E+02 0. -1.
          1    1    1    2  501    0 -0.85518472118E+02 -0.21815075789E+03  0.45186299145E+03  0.50900228416E+03  0.00000000000E+00 0. -1.
         -2    1    1    2    0  502  0.57096950814E+02  0.31922935939E+02  0.16445938934E+03  0.17699159973E+03  0.00000000000E+00 0.  1.
<mgrwt>
<rscale>  2 0.25228025E+03</rscale>
<asrwt>0</asrwt>
<pdfrwt beam="1">  1       21 0.14139499E+00 0.25228025E+03</pdfrwt>
<pdfrwt beam="2">  1       21 0.11382595E-01 0.25228025E+03</pdfrwt>
<totfact> 0.21713855E+04</totfact>
</mgrwt>
</event>
<event>
 5    1  0.1281005E-004  0.1267060E+03  0.7546771E-02  0.1232427E+00
         21   -1    0    0  503  502  0.00000000000E+00  0.00000000000E+00  0.33601714555E+02  0.33601714555E+02  0.00000000000E+00 0.  1.
         21   -1    0    0  501  503 -0.00000000000E+00 -0.00000000000E+00 -0.49905103929E+03  0.49905103929E+03  0.00000000000E+00 0. -1.
         24    1    1    2    0    0 -0.20273006109E+02 -0.50497120002E+02 -0.15487693264E+03  0.18279779573E+03  0.80419002446E+02 0.  0.
          1    1    1    2  501    0  0.80407689119E+01  0.10253869114E+03 -0.24166156993E+03  0.26263882335E+03  0.00000000000E+00 0. -1.
         -2    1    1    2    0  502  0.12232237197E+02 -0.52041571137E+02 -0.68910822161E+02  0.87216134769E+02  0.00000000000E+00 0.  1.
<mgrwt>
<rscale>  2 0.12670603E+03</rscale>
<asrwt>0</asrwt>
<pdfrwt beam="1">  1       21 0.51694946E-02 0.12670603E+03</pdfrwt>
<pdfrwt beam="2">  1       21 0.76777083E-01 0.12670603E+03</pdfrwt>
<totfact> 0.38850967E+05</totfact>
</mgrwt>
</event>
<event>
 5    1  0.1281005E-004  0.2315315E+03  0.7546771E-02  0.1125566E+00
         21   -1    0    0  501  502  0.00000000000E+00  0.00000000000E+00  0.50083797397E+03  0.50083797397E+03  0.00000000000E+00 0. -1.
         21   -1    0    0  502  503 -0.00000000000E+00 -0.00000000000E+00 -0.12216541205E+03  0.12216541205E+03  0.00000000000E+00 0.  1.
         24    1    1    2    0    0  0.92618328123E+02 -0.34262246376E+02  0.21222304406E+03  0.24750331840E+03  0.80419002446E+02 0. -1.
          1    1    1    2  501    0  0.46965685018E+02 -0.11928505431E+03  0.50443369820E+02  0.13776513822E+03  0.00000000000E+00 0. -1.
         -2    1    1    2    0  503 -0.13958401314E+03  0.15354730068E+03  0.11600614804E+03  0.23773492940E+03  0.00000000000E+00 0.  1.
<mgrwt>
<rscale>  2 0.23153148E+03</rscale>
<asrwt>0</asrwt>
<pdfrwt beam="1">  1       21 0.77051995E-01 0.23153148E+03</pdfrwt>
<pdfrwt beam="2">  1       21 0.18794679E-01 0.23153148E+03</pdfrwt>
<totfact> 0.38038132E+04</totfact>
</mgrwt>
</event>
<event>
 5    1  0.1281005E-004  0.1408286E+03  0.7546771E-02  0.1212218E+00
         21   -1    0    0  503  502  0.00000000000E+00  0.00000000000E+00  0.44653206517E+03  0.44653206517E+03  0.00000000000E+00 0.  1.
         21   -1    0    0  501  503 -0.00000000000E+00 -0.00000000000E+00 -0.44702670304E+02  0.44702670304E+02  0.00000000000E+00 0.  1.
         24    1    1    2    0    0 -0.77753793574E+02  0.24941348527E+02  0.14720673046E+03  0.18656034072E+03  0.80419002446E+02 0.  1.
          1    1    1    2  501    0 -0.40970954643E+02  0.12031310812E+02  0.57815825116E+02  0.71875177899E+02  0.00000000000E+00 0. -1.
         -2    1    1    2    0  502  0.11872474822E+03 -0.36972659339E+02  0.19680683929E+03  0.23279921685E+03  0.00000000000E+00 0.  1.
<mgrwt>
<rscale>  2 0.14082860E+03</rscale>
<asrwt>0</asrwt>
<pdfrwt beam="1">  1       21 0.68697238E-01 0.14082860E+03</pdfrwt>
<pdfrwt beam="2">  1       21 0.68773342E-02 0.14082860E+03</pdfrwt>
<totfact> 0.30481032E+05</totfact>
</mgrwt>
</event>
<event>
 5    1  0.1281005E-004  0.1538533E+03  0.7546771E-02  0.1195817E+00
         21   -1    0    0  503  502  0.00000000000E+00  0.00000000000E+00  0.38709893132E+03  0.38709893132E+03  0.00000000000E+00 0.  1.
         21   -1    0    0  501  503 -0.00000000000E+00 -0.00000000000E+00 -0.66872610898E+02  0.66872610898E+02  0.00000000000E+00 0. -1.
         24    1    1    2    0    0  0.42094457783E+02  0.43360351747E+02  0.72065922238E+02  0.12374480426E+03  0.80419002446E+02 0. -1.
          1    1    1    2  501    0  0.77388203715E+02  0.64625127006E+01  0.46268966791E+02  0.90396434844E+02  0.00000000000E+00 0. -1.
         -2    1    1    2    0  502 -0.11948266150E+03 -0.49822864448E+02  0.20189143139E+03  0.23983030311E+03  0.00000000000E+00 0.  1.
<mgrwt>
<rscale>  2 0.15385327E+03</rscale>
<asrwt>0</asrwt>
<pdfrwt beam="1">  1       21 0.59553680E-01 0.15385327E+03</pdfrwt>
<pdfrwt beam="2">  1       21 0.10288094E-01 0.15385327E+03</pdfrwt>
<totfact> 0.20551389E+05</totfact>
</mgrwt>
</event>
<event>
 5    1  0.1281005E-004  0.1508492E+03  0.7546771E-02  0.1199433E+00
         21   -1    0    0  503  502  0.00000000000E+00  0.00000000000E+00  0.31605065397E+03  0.31605065397E+03  0.00000000000E+00 0. -1.
         21   -1    0    0  501  503 -0.00000000000E+00 -0.00000000000E+00 -0.75015551862E+02  0.75015551862E+02  0.00000000000E+00 0.  1.
         24    1    1    2    0    0  0.90032235332E+02 -0.65658078474E+01  0.11845903623E+03  0.16925918720E+03  0.80419002446E+02 0.  0.
          1    1    1    2  501    0 -0.12273224654E+03  0.44652542246E+02  0.66546324813E+02  0.14657921823E+03  0.00000000000E+00 0. -1.
         -2    1    1    2    0  502  0.32700011209E+02 -0.38086734399E+02  0.56029741057E+02  0.75227800401E+02  0.00000000000E+00 0.  1.
<mgrwt>
<rscale>  2 0.15084917E+03</rscale>
<asrwt>0</asrwt>
<pdfrwt beam="1">  1       21 0.48623177E-01 0.15084917E+03</pdfrwt>
<pdfrwt beam="2">  1       21 0.11540854E-01 0.15084917E+03</pdfrwt>
<totfact> 0.25677774E+05</totfact>
</mgrwt>
</event>
<event>
 5    1  0.1281005E-004  0.8247236E+02  0.7546771E-02  0.1322178E+00
         21   -1    0    0  501  502  0.00000000000E+00  0.00000000000E+00  0.14699573187E+03  0.14699573187E+03  0.00000000000E+00 0. -1.
         21   -1    0    0  502  503 -0.00000000000E+00 -0.00000000000E+00 -0.53972223027E+02  0.53972223027E+02  0.00000000000E+00 0. -1.
         24    1    1    2    0    0 -0.47117623222E+02 -0.34756997279E+02  0.17709441732E+02  0.10103939607E+03  0.80419002446E+02 0. -1.
          1    1    1    2  501    0  0.36556346360E+02  0.90243024639E+01  0.39352639209E+02  0.54464986063E+02  0.00000000000E+00 0. -1.
         -2    1    1    2    0  503  0.10561276863E+02  0.25732694815E+02  0.35961427900E+02  0.45463572759E+02  0.00000000000E+00 0.  1.
<mgrwt>
<rscale>  2 0.82472363E+02</rscale>
<asrwt>0</asrwt>
<pdfrwt beam="1">  1       21 0.22614728E-01 0.82472363E+02</pdfrwt>
<pdfrwt beam="2">  1       21 0.83034190E-02 0.82472363E+02</pdfrwt>
<totfact> 0.20170595E+06</totfact>
</mgrwt>
</event>
<event>
 5    1  0.1281005E-004  0.3103852E+03  0.7546771E-02  0.1080161E+00
         21   -1    0    0  501  502  0.00000000000E+00  0.00000000000E+00  0.22339508343E+03  0.22339508343E+03  0.00000000000E+00 0.  1.
         21   -1    0    0  502  503 -0.00000000000E+00 -0.00000000000E+00 -0.45097203360E+03  0.45097203360E+03  0.00000000000E+00 0. -1.
         24    1    1    2    0    0  0.78700284595E+01  0.20750897681E+02 -0.60132493004E+02  0.10283807550E+03  0.80419002446E+02 0. -1.
          1    1    1    2  501    0 -0.90902243066E+02  0.24373370940E+03 -0.29226447736E+02  0.26176998327E+03  0.00000000000E+00 0. -1.
         -2    1    1    2    0  503  0.83032214607E+02 -0.26448460708E+03 -0.13821800943E+03  0.30975905826E+03  0.00000000000E+00 0.  1.
<mgrwt>
<rscale>  2 0.31038519E+03</rscale>
<asrwt>0</asrwt>
<pdfrwt beam="1">  1       21 0.34368474E-01 0.31038519E+03</pdfrwt>
<pdfrwt beam="2">  1       21 0.69380313E-01 0.31038519E+03</pdfrwt>
<totfact> 0.14505800E+04</totfact>
</mgrwt>
</event>
<event>
 5    1  0.1281005E-004  0.3544160E+03  0.7546771E-02  0.1060817E+00
         21   -1    0    0  501  502  0.00000000000E+00  0.00000000000E+00  0.29260878426E+03  0.29260878426E+03  0.00000000000E+00 0.  1.
         21   -1    0    0  502  503 -0.00000000000E+00 -0.00000000000E+00 -0.44889883700E+03  0.44889883700E+03  0.00000000000E+00 0. -1.
         24    1    1    2    0    0 -0.15506532549E+02 -0.87920537462E+01 -0.71462344372E+01  0.82680332497E+02  0.80419002446E+02 0.  1.
          1    1    1    2  501    0 -0.29949000491E+03  0.65068141917E+02 -0.14444088674E+03  0.33880864200E+03  0.00000000000E+00 0. -1.
         -2    1    1    2    0  503  0.31499653746E+03 -0.56276088171E+02 -0.47029315624E+01  0.32001864676E+03  0.00000000000E+00 0.  1.
<mgrwt>
<rscale>  2 0.35441598E+03</rscale>
<asrwt>0</asrwt>
<pdfrwt beam="1">  1       21 0.45016736E-01 0.35441598E+03</pdfrwt>
<pdfrwt beam="2">  1       21 0.69061359E-01 0.35441598E+03</pdfrwt>
<totfact> 0.82981216E+03</totfact>
</mgrwt>
</event>
<event>
 5    1  0.1281005E-004  0.1904320E+03  0.7546771E-02  0.1158072E+00
         21   -1    0    0  501  502  0.00000000000E+00  0.00000000000E+00  0.28852468573E+02  0.28852468573E+02  0.00000000000E+00 0. -1.
         21   -1    0    0  502  503 -0.00000000000E+00 -0.00000000000E+00 -0.12847829072E+04  0.12847829072E+04  0.00000000000E+00 0.  1.
         24    1    1    2    0    0 -0.56132773134E+02 -0.71257774592E+02 -0.34887873683E+03  0.36934015166E+03  0.80419002446E+02 0.  0.
          1    1    1    2  501    0 -0.95641479008E+02  0.10737417826E+02 -0.40703154661E+03  0.41825502338E+03  0.00000000000E+00 0. -1.
         -2    1    1    2    0  503  0.15177425214E+03  0.60520356766E+02 -0.50002015521E+03  0.52604020076E+03  0.00000000000E+00 0.  1.
<mgrwt>
<rscale>  2 0.19043205E+03</rscale>
<asrwt>0</asrwt>
<pdfrwt beam="1">  1       21 0.44388412E-02 0.19043205E+03</pdfrwt>
<pdfrwt beam="2">  1       21 0.19765891E+00 0.19043205E+03</pdfrwt>
<totfact> 0.45795062E+04</totfact>
</mgrwt>
</event>
<event>
 5    1  0.1281005E-004  0.2817731E+03  0.7546771E-02  0.1094724E+00
         21   -1    0    0  503  502  0.00000000000E+00  0.00000000000E+00  0.34689193032E+03  0.34689193032E+03  0.00000000000E+00 0.  1.
         21   -1    0    0  501  503 -0.00000000000E+00 -0.00000000000E+00 -0.23819983724E+03  0.23819983724E+03  0.00000000000E+00 0. -1.
         24    1    1    2    0    0  0.10640425857E+03 -0.52033823948E+02 -0.12804317043E+02  0.14373778754E+03  0.80419002446E+02 0.  0.
          1    1    1    2  501    0 -0.23956082653E+03  0.12321601949E+03  0.48797585046E+02  0.27377505616E+03  0.00000000000E+00 0. -1.
         -2    1    1    2    0  502  0.13315656796E+03 -0.71182195547E+02  0.72698825076E+02  0.16757892386E+03  0.00000000000E+00 0.  1.
<mgrwt>
<rscale>  2 0.28177306E+03</rscale>
<asrwt>0</asrwt>
<pdfrwt beam="1">  1       21 0.53367990E-01 0.28177306E+03</pdfrwt>
<pdfrwt beam="2">  1       21 0.36646129E-01 0.28177306E+03</pdfrwt>
<totfact> 0.22835477E+04</totfact>
</mgrwt>
</event>
<event>
 5    1  0.1281005E-004  0.1186609E+03  0.7546771E-02  0.1245323E+00
         21   -1    0    0  501  502  0.00000000000E+00  0.00000000000E+00  0.59919430169E+03  0.59919430169E+03  0.00000000000E+00 0. -1.
         21   -1    0    0  502  503 -0.00000000000E+00 -0.00000000000E+00 -0.25237138430E+02  0.25237138430E+02  0.00000000000E+00 0. -1.
         24    1    1    2    0    0 -0.40926468568E+02 -0.25105221458E+02  0.15972854142E+03  0.18516390272E+03  0.80419002446E+02 0.  0.
          1    1    1    2  501    0 -0.40821398839E+02  0.43725272307E+02  0.13356312179E+03  0.14634682622E+03  0.00000000000E+00 0. -1.
         -2    1    1    2    0  503  0.81747867406E+02 -0.18620050849E+02  0.28066550005E+03  0.29292071118E+03  0.00000000000E+00 0.  1.
<mgrwt>
<rscale>  2 0.11866092E+03</rscale>
<asrwt>0</asrwt>
<pdfrwt beam="1">  1       21 0.92183728E-01 0.11866092E+03</pdfrwt>
<pdfrwt beam="2">  1       21 0.38826371E-02 0.11866092E+03</pdfrwt>
<totfact> 0.41540310E+05</totfact>
</mgrwt>
</event>
<event>
 5    1  0.1281005E-004  0.2419359E+03  0.7546771E-02  0.1118510E+00
         21   -1    0    0  501  502  0.00000000000E+00  0.00000000000E+00  0.65415042823E+03  0.65415042823E+03  0.00000000000E+00 0.  1.
         21   -1    0    0  502  503 -0.00000000000E+00 -0.00000000000E+00 -0.13604524960E+03  0.13604524960E+03  0.00000000000E+00 0.  1.
         24    1    1    2    0    0  0.18288284226E+03  0.66307582789E+02  0.46586302240E+03  0.51121267699E+03  0.80419002446E+02 0.  1.
          1    1    1    2  501    0  0.40625834880E+02 -0.14834625635E+01  0.87647018609E+00  0.40662357542E+02  0.00000000000E+00 0. -1.
         -2    1    1    2    0  503 -0.22350867714E+03 -0.64824120226E+02  0.51365686044E+02  0.23832064330E+03  0.00000000000E+00 0.  1.
<mgrwt>
<rscale>  2 0.24193589E+03</rscale>
<asrwt>0</asrwt>
<pdfrwt beam="1">  1       21 0.10063853E+00 0.24193589E+03</pdfrwt>
<pdfrwt beam="2">  1       21 0.20930039E-01 0.24193589E+03</pdfrwt>
<totfact> 0.16648293E+04</totfact>
</mgrwt>
</event>
<event>
 5    1  0.1281005E-004  0.3307486E+03  0.7546771E-02  0.1070806E+00
         21   -1    0    0  503  502  0.00000000000E+00  0.00000000000E+00  0.29709691792E+03  0.29709691792E+03  0.00000000000E+00 0.  1.
         21   -1    0    0  501  503 -0.00000000000E+00 -0.00000000000E+00 -0.39589955809E+03  0.39589955809E+03  0.00000000000E+00 0.  1.
         24    1    1    2    0    0 -0.24645968525E+02  0.21720720327E+03 -0.38241568922E+02  0.23604242514E+03  0.80419002446E+02 0.  1.
          1    1    1    2  501    0 -0.10076976138E+02  0.10450645135E+03 -0.81180695683E+02  0.13271567041E+03  0.00000000000E+00 0. -1.
         -2    1    1    2    0  502  0.34722944664E+02 -0.32171365461E+03  0.20619624439E+02  0.32423838046E+03  0.00000000000E+00 0.  1.
<mgrwt>
<rscale>  2 0.33074864E+03</rscale>
<asrwt>0</asrwt>
<pdfrwt beam="1">  1       21 0.45707218E-01 0.33074864E+03</pdfrwt>
<pdfrwt beam="2">  1       21 0.60907624E-01 0.33074864E+03</pdfrwt>
<totfact> 0.10708196E+04</totfact>
</mgrwt>
</event>
<event>
 5    1  0.1281005E-004  0.1288722E+03  0.7546771E-02  0.1229139E+00
         21   -1    0    0  501  502  0.00000000000E+00  0.00000000000E+00  0.29229052453E+04  0.29229052453E+04  0.00000000000E+00 0.  1.
         21   -1    0    0  502  503 -0.00000000000E+00 -0.00000000000E+00 -0.56999401472E+01  0.56999401472E+01  0.00000000000E+00 0.  1.
         24    1    1    2    0    0  0.59721886912E+02  0.77449080017E+02  0.14478545232E+04  0.14533805421E+04  0.80419002446E+02 0.  1.
          1    1    1    2  501    0 -0.82762559918E+02 -0.61159442093E+02  0.11040491593E+04  0.11088348231E+04  0.00000000000E+00 0. -1.
         -2    1    1    2    0  503  0.23040673006E+02 -0.16289637923E+02  0.36530162260E+03  0.36638982026E+03  0.00000000000E+00 0.  1.
<mgrwt>
<rscale>  2 0.12887220E+03</rscale>
<asrwt>0</asrwt>
<pdfrwt beam="1">  1       21 0.44967653E+00 0.12887220E+03</pdfrwt>
<pdfrwt beam="2">  1       21 0.87691620E-03 0.12887220E+03</pdfrwt>
<totfact> 0.21272580E+04</totfact>
</mgrwt>
</event>
<event>
 5    1  0.1281005E-004  0.1906790E+03  0.7546771E-02  0.1157850E+00
         21   -1    0    0  503  502  0.00000000000E+00  0.00000000000E+00  0.91045949002E+03  0.91045949002E+03  0.00000000000E+00 0.  1.
         21   -1    0    0  501  503 -0.00000000000E+00 -0.00000000000E+00 -0.40131962679E+02  0.40131962679E+02  0.00000000000E+00 0. -1.
         24    1    1    2    0    0  0.51943371355E+02 -0.17661159505E+02  0.23528026945E+03  0.25462531596E+03  0.80419002446E+02 0.  1.
          1    1    1    2  501    0 -0.13367450134E+03 -0.80680761389E+02  0.37399595641E+03  0.40527920374E+03  0.00000000000E+00 0. -1.
         -2    1    1    2    0  502  0.81731129985E+02  0.98341920894E+02  0.26105130148E+03  0.29068693300E+03  0.00000000000E+00 0.  1.
<mgrwt>
<rscale>  2 0.19067900E+03</rscale>
<asrwt>0</asrwt>
<pdfrwt beam="1">  1       21 0.14007068E+00 0.19067900E+03</pdfrwt>
<pdfrwt beam="2">  1       21 0.61741488E-02 0.19067900E+03</pdfrwt>
<totfact> 0.67162503E+04</totfact>
</mgrwt>
</event>
<event>
 5    1  0.1281005E-004  0.1039683E+03  0.7546771E-02  0.1272166E+00
         21   -1    0    0  503  502  0.00000000000E+00  0.00000000000E+00  0.16233857582E+03  0.16233857582E+03  0.00000000000E+00 0. -1.
         21   -1    0    0  501  503 -0.00000000000E+00 -0.00000000000E+00 -0.67243038090E+02  0.67243038090E+02  0.00000000000E+00 0.  1.
         24    1    1    2    0    0  0.10134598701E+02 -0.19740230822E+02  0.38465757660E+02  0.91865212515E+02  0.80419002446E+02 0.  0.
          1    1    1    2  501    0 -0.64435069714E+02  0.26738684520E+02  0.40379425748E+02  0.80606038748E+02  0.00000000000E+00 0. -1.
         -2    1    1    2    0  502  0.54300471013E+02 -0.69984536976E+01  0.16250354326E+02  0.57110362650E+02  0.00000000000E+00 0.  1.
<mgrwt>
<rscale>  2 0.10396827E+03</rscale>
<asrwt>0</asrwt>
<pdfrwt beam="1">  1       21 0.24975165E-01 0.10396827E+03</pdfrwt>
<pdfrwt beam="2">  1       21 0.10345083E-01 0.10396827E+03</pdfrwt>
<totfact> 0.11553757E+06</totfact>
</mgrwt>
</event>
<event>
 5    1  0.1281005E-004  0.3023137E+03  0.7546771E-02  0.1084090E+00
         21   -1    0    0  501  502  0.00000000000E+00  0.00000000000E+00  0.11182214863E+04  0.11182214863E+04  0.00000000000E+00 0. -1.
         21   -1    0    0  502  503 -0.00000000000E+00 -0.00000000000E+00 -0.85368349629E+02  0.85368349629E+02  0.00000000000E+00 0.  1.
         24    1    1    2    0    0  0.80235556812E+02  0.10158955108E+02  0.30502521555E+03  0.32565095888E+03  0.80419002446E+02 0. -1.
          1    1    1    2  501    0 -0.28513761629E+03  0.42110268615E+01  0.40578562595E+03  0.49596690132E+03  0.00000000000E+00 0. -1.
         -2    1    1    2    0  503  0.20490205948E+03 -0.14369981969E+02  0.32204229515E+03  0.38197197571E+03  0.00000000000E+00 0.  1.
<mgrwt>
<rscale>  2 0.30231369E+03</rscale>
<asrwt>0</asrwt>
<pdfrwt beam="1">  1       21 0.17203406E+00 0.30231369E+03</pdfrwt>
<pdfrwt beam="2">  1       21 0.13133593E-01 0.30231369E+03</pdfrwt>
<totfact> 0.96018584E+03</totfact>
</mgrwt>
</event>
<event>
 5    1  0.1281005E-004  0.2198885E+03  0.7546771E-02  0.1133966E+00
         21   -1    0    0  503  502  0.00000000000E+00  0.00000000000E+00  0.37654267990E+02  0.37654267990E+02  0.00000000000E+00 0.  1.
         21   -1    0    0  501  503 -0.00000000000E+00 -0.00000000000E+00 -0.16480269372E+04  0.16480269372E+04  0.00000000000E+00 0. -1.
         24    1    1    2    0    0 -0.35337026390E+02 -0.88778647220E+02 -0.16832141615E+03  0.20959405699E+03  0.80419002446E+02 0.  1.
          1    1    1    2  501    0  0.16853189293E+03  0.41674024216E+02 -0.82509801011E+03  0.84316454475E+03  0.00000000000E+00 0. -1.
         -2    1    1    2    0  502 -0.13319486654E+03  0.47104623004E+02 -0.61695324298E+03  0.63292260348E+03  0.00000000000E+00 0.  1.
<mgrwt>
<rscale>  2 0.21988853E+03</rscale>
<asrwt>0</asrwt>
<pdfrwt beam="1">  1       21 0.57929638E-02 0.21988853E+03</pdfrwt>
<pdfrwt beam="2">  1       21 0.25354263E+00 0.21988853E+03</pdfrwt>
<totfact> 0.12953136E+04</totfact>
</mgrwt>
</event>
<event>
 5    1  0.1281005E-004  0.8884838E+02  0.7546771E-02  0.1305665E+00
         21   -1    0    0  503  502  0.00000000000E+00  0.00000000000E+00  0.46688321577E+02  0.46688321577E+02  0.00000000000E+00 0.  1.
         21   -1    0    0  501  503 -0.00000000000E+00 -0.00000000000E+00 -0.17142904331E+03  0.17142904331E+03  0.00000000000E+00 0. -1.
         24    1    1    2    0    0 -0.14122167482E+02  0.39181524515E+02 -0.51009335177E+02  0.10394130896E+03  0.80419002446E+02 0.  0.
          1    1    1    2  501    0 -0.26891770681E+02  0.44424442978E+01 -0.21388459096E+02  0.34646339261E+02  0.00000000000E+00 0. -1.
         -2    1    1    2    0  502  0.41013938164E+02 -0.43623968813E+02 -0.52342927462E+02  0.79529716673E+02  0.00000000000E+00 0.  1.
<mgrwt>
<rscale>  2 0.88848379E+02</rscale>
<asrwt>0</asrwt>
<pdfrwt beam="1">  1       21 0.71828187E-02 0.88848379E+02</pdfrwt>
<pdfrwt beam="2">  1       21 0.26373699E-01 0.88848379E+02</pdfrwt>
<totfact> 0.19442427E+06</totfact>
</mgrwt>
</event>
<event>
 5    1  0.1281005E-004  0.2009839E+03  0.7546771E-02  0.1148912E+00
         21   -1    0    0  503  502  0.00000000000E+00  0.00000000000E+00  0.78245531348E+03  0.78245531348E+03  0.00000000000E+00 0.  1.
         21   -1    0    0  501  503 -0.00000000000E+00 -0.00000000000E+00 -0.55209093532E+02  0.55209093532E+02  0.00000000000E+00 0. -1.
         24    1    1    2    0    0  0.23916299312E+02 -0.53660327067E+02  0.27650680183E+03  0.29389564047E+03  0.80419002446E+02 0.  1.
          1    1    1    2  501    0 -0.15717712570E+03  0.61744014585E+02  0.28069518119E+03  0.32757710073E+03  0.00000000000E+00 0. -1.
         -2    1    1    2    0  502  0.13326082639E+03 -0.80836875187E+01  0.17004423692E+03  0.21619166581E+03  0.00000000000E+00 0.  1.
<mgrwt>
<rscale>  2 0.20098391E+03</rscale>
<asrwt>0</asrwt>
<pdfrwt beam="1">  1       21 0.12037773E+00 0.20098391E+03</pdfrwt>
<pdfrwt beam="2">  1       21 0.84937073E-02 0.20098391E+03</pdfrwt>
<totfact> 0.56400910E+04</totfact>
</mgrwt>
</event>
<event>
 5    1  0.1281005E-004  0.1361327E+03  0.7546771E-02  0.1218629E+00
         21   -1    0    0  503  502  0.00000000000E+00  0.00000000000E+00  0.48999664746E+02  0.48999664746E+02  0.00000000000E+00 0.  1.
         21   -1    0    0  501  503 -0.00000000000E+00 -0.00000000000E+00 -0.43388829021E+03  0.43388829021E+03  0.00000000000E+00 0. -1.
         24    1    1    2    0    0  0.39723540444E+02 -0.97090282903E+02 -0.27174324567E+03  0.30218552285E+03  0.80419002446E+02 0. -1.
          1    1    1    2  501    0 -0.13853934423E+02 -0.17665157790E+02 -0.11438917186E+02  0.25195994229E+02  0.00000000000E+00 0. -1.
         -2    1    1    2    0  502 -0.25869606021E+02  0.11475544069E+03 -0.10170646261E+03  0.15550643788E+03  0.00000000000E+00 0.  1.
<mgrwt>
<rscale>  2 0.13613275E+03</rscale>
<asrwt>0</asrwt>
<pdfrwt beam="1">  1       21 0.75384101E-02 0.13613275E+03</pdfrwt>
<pdfrwt beam="2">  1       21 0.66752044E-01 0.13613275E+03</pdfrwt>
<totfact> 0.27742048E+05</totfact>
</mgrwt>
</event>
<event>
 5    1  0.1281005E-004  0.2778017E+03  0.7546771E-02  0.1096896E+00
         21   -1    0    0  501  502  0.00000000000E+00  0.00000000000E+00  0.17875647556E+03  0.17875647556E+03  0.00000000000E+00 0.  1.
         21   -1    0    0  502  503 -0.00000000000E+00 -0.00000000000E+00 -0.49135827086E+03  0.49135827086E+03  0.00000000000E+00 0. -1.
         24    1    1    2    0    0  0.13583168196E+03 -0.13822729086E+03 -0.93694167032E+01  0.21002864492E+03  0.80419002446E+02 0.  1.
          1    1    1    2  501    0 -0.22622643570E+03  0.10585657791E+03 -0.21134057337E+03  0.32718321053E+03  0.00000000000E+00 0. -1.
         -2    1    1    2    0  503  0.90394753739E+02  0.32370712952E+02 -0.91891805220E+02  0.13290289097E+03  0.00000000000E+00 0.  1.
<mgrwt>
<rscale>  2 0.27780175E+03</rscale>
<asrwt>0</asrwt>
<pdfrwt beam="1">  1       21 0.27500997E-01 0.27780175E+03</pdfrwt>
<pdfrwt beam="2">  1       21 0.75593579E-01 0.27780175E+03</pdfrwt>
<totfact> 0.18841826E+04</totfact>
</mgrwt>
</event>
<event>
 5    1  0.1281005E-004  0.1002073E+03  0.7546771E-02  0.1279861E+00
         21   -1    0    0  503  502  0.00000000000E+00  0.00000000000E+00  0.25584124230E+04  0.25584124230E+04  0.00000000000E+00 0. -1.
         21   -1    0    0  501  503 -0.00000000000E+00 -0.00000000000E+00 -0.40037897495E+01  0.40037897495E+01  0.00000000000E+00 0.  1.
         24    1    1    2    0    0 -0.72238402966E+01 -0.49196205291E+01  0.11833493083E+04  0.11861109509E+04  0.80419002446E+02 0. -1.
          1    1    1    2  501    0  0.30285886715E+02 -0.50842357487E+02  0.61432438540E+03  0.61716823537E+03  0.00000000000E+00 0. -1.
         -2    1    1    2    0  502 -0.23062046418E+02  0.55761978016E+02  0.75673493958E+03  0.75913702647E+03  0.00000000000E+00 0.  1.
<mgrwt>
<rscale>  2 0.10020729E+03</rscale>
<asrwt>0</asrwt>
<pdfrwt beam="1">  1       21 0.39360060E+00 0.10020729E+03</pdfrwt>
<pdfrwt beam="2">  1       21 0.61596970E-03 0.10020729E+03</pdfrwt>
<totfact> 0.87401652E+04</totfact>
</mgrwt>
</event>
<event>
 5    1  0.1281005E-004  0.1313629E+03  0.7546771E-02  0.1225447E+00
         21   -1    0    0  503  502  0.00000000000E+00  0.00000000000E+00  0.16673431890E+03  0.16673431890E+03  0.00000000000E+00 0. -1.
         21   -1    0    0  501  503 -0.00000000000E+00 -0.00000000000E+00 -0.10528284218E+03  0.10528284218E+03  0.00000000000E+00 0.  1.
         24    1    1    2    0    0 -0.22190349664E+02  0.28494465238E+02  0.11308022137E+02  0.88878757228E+02  0.80419002446E+02 0.  1.
          1    1    1    2  501    0  0.43045964366E+02 -0.95307133527E+02  0.41914592861E+02  0.11266427049E+03  0.00000000000E+00 0. -1.
         -2    1    1    2    0  502 -0.20855614702E+02  0.66812668289E+02  0.82288617153E+01  0.70474133365E+02  0.00000000000E+00 0.  1.
<mgrwt>
<rscale>  2 0.13136290E+03</rscale>
<asrwt>0</asrwt>
<pdfrwt beam="1">  1       21 0.25651434E-01 0.13136290E+03</pdfrwt>
<pdfrwt beam="2">  1       21 0.16197360E-01 0.13136290E+03</pdfrwt>
<totfact> 0.49554834E+05</totfact>
</mgrwt>
</event>
<event>
 5    1  0.1281005E-004  0.1584530E+03  0.7546771E-02  0.1190454E+00
         21   -1    0    0  503  502  0.00000000000E+00  0.00000000000E+00  0.29296171520E+02  0.29296171520E+02  0.00000000000E+00 0.  1.
         21   -1    0    0  501  503 -0.00000000000E+00 -0.00000000000E+00 -0.88543058727E+03  0.88543058727E+03  0.00000000000E+00 0. -1.
         24    1    1    2    0    0 -0.39147958992E+01  0.50934283809E+02 -0.21788653089E+03  0.23780534727E+03  0.80419002446E+02 0. -1.
          1    1    1    2  501    0  0.10937871670E+03 -0.35804671379E+02 -0.39357977607E+03  0.41006184691E+03  0.00000000000E+00 0. -1.
         -2    1    1    2    0  502 -0.10546392080E+03 -0.15129612429E+02 -0.24466810879E+03  0.26685956460E+03  0.00000000000E+00 0.  1.
<mgrwt>
<rscale>  2 0.15845298E+03</rscale>
<asrwt>0</asrwt>
<pdfrwt beam="1">  1       21 0.45071042E-02 0.15845298E+03</pdfrwt>
<pdfrwt beam="2">  1       21 0.13622006E+00 0.15845298E+03</pdfrwt>
<totfact> 0.12497166E+05</totfact>
</mgrwt>
</event>
<event>
 5    1  0.1281005E-004  0.1365130E+03  0.7546771E-02  0.1218099E+00
         21   -1    0    0  501  502  0.00000000000E+00  0.00000000000E+00  0.62627214983E+03  0.62627214983E+03  0.00000000000E+00 0. -1.
         21   -1    0    0  502  503 -0.00000000000E+00 -0.00000000000E+00 -0.32297553932E+02  0.32297553932E+02  0.00000000000E+00 0.  1.
         24    1    1    2    0    0 -0.49903105946E+02  0.19307903047E+02  0.12884160380E+03  0.16102946913E+03  0.80419002446E+02 0.  1.
          1    1    1    2  501    0 -0.50785657693E+02  0.35338090804E+02  0.15208164047E+03  0.16418522789E+03  0.00000000000E+00 0. -1.
         -2    1    1    2    0  503  0.10068876364E+03 -0.54645993851E+02  0.31305135163E+03  0.33335500675E+03  0.00000000000E+00 0.  1.
<mgrwt>
<rscale>  2 0.13651300E+03</rscale>
<asrwt>0</asrwt>
<pdfrwt beam="1">  1       21 0.96349553E-01 0.13651300E+03</pdfrwt>
<pdfrwt beam="2">  1       21 0.49688549E-02 0.13651300E+03</pdfrwt>
<totfact> 0.24758578E+05</totfact>
</mgrwt>
</event>
<event>
 5    1  0.1281005E-004  0.1147460E+03  0.7546771E-02  0.1252025E+00
         21   -1    0    0  501  502  0.00000000000E+00  0.00000000000E+00  0.20086526309E+03  0.20086526309E+03  0.00000000000E+00 0.  1.
         21   -1    0    0  502  503 -0.00000000000E+00 -0.00000000000E+00 -0.66631247357E+02  0.66631247357E+02  0.00000000000E+00 0. -1.
         24    1    1    2    0    0 -0.14088591434E+02 -0.63696427226E+02  0.74239935338E+02  0.12741470560E+03  0.80419002446E+02 0.  1.
          1    1    1    2  501    0  0.23275184065E+02  0.92668431058E+02  0.51408397181E+02  0.10849882768E+03  0.00000000000E+00 0. -1.
         -2    1    1    2    0  503 -0.91865926311E+01 -0.28972003833E+02  0.85856832154E+01  0.31582977164E+02  0.00000000000E+00 0.  1.
<mgrwt>
<rscale>  2 0.11474596E+03</rscale>
<asrwt>0</asrwt>
<pdfrwt beam="1">  1       21 0.30902348E-01 0.11474596E+03</pdfrwt>
<pdfrwt beam="2">  1       21 0.10250961E-01 0.11474596E+03</pdfrwt>
<totfact> 0.78364502E+05</totfact>
</mgrwt>
</event>
<event>
 5    1  0.1281005E-004  0.2148031E+03  0.7546771E-02  0.1137818E+00
         21   -1    0    0  503  502  0.00000000000E+00  0.00000000000E+00  0.60094036185E+03  0.60094036185E+03  0.00000000000E+00 0.  1.
         21   -1    0    0  501  503 -0.00000000000E+00 -0.00000000000E+00 -0.79831011816E+02  0.79831011816E+02  0.00000000000E+00 0. -1.
         24    1    1    2    0    0 -0.10619500852E+03 -0.16912907436E+02  0.18407521340E+03  0.22784715582E+03  0.80419002446E+02 0.  0.
          1    1    1    2  501    0  0.19901580291E+03 -0.81511570625E+01  0.17822465342E+03  0.26727842835E+03  0.00000000000E+00 0. -1.
         -2    1    1    2    0  502 -0.92820794398E+02  0.25064064498E+02  0.15880948321E+03  0.18564578950E+03  0.00000000000E+00 0.  1.
<mgrwt>
<rscale>  2 0.21480306E+03</rscale>
<asrwt>0</asrwt>
<pdfrwt beam="1">  1       21 0.92452361E-01 0.21480306E+03</pdfrwt>
<pdfrwt beam="2">  1       21 0.12281694E-01 0.21480306E+03</pdfrwt>
<totfact> 0.54967425E+04</totfact>
</mgrwt>
</event>
<event>
 5    1  0.1281005E-004  0.1040193E+03  0.7546771E-02  0.1272064E+00
         21   -1    0    0  501  502  0.00000000000E+00  0.00000000000E+00  0.52735200739E+03  0.52735200739E+03  0.00000000000E+00 0. -1.
         21   -1    0    0  502  503 -0.00000000000E+00 -0.00000000000E+00 -0.20544691656E+02  0.20544691656E+02  0.00000000000E+00 0.  1.
         24    1    1    2    0    0 -0.53055122385E+01  0.27062227710E+02  0.21228009519E+03  0.22867130865E+03  0.80419002446E+02 0.  1.
          1    1    1    2  501    0 -0.29069644945E+02  0.38946731907E+02  0.11019094670E+03  0.12043229184E+03  0.00000000000E+00 0. -1.
         -2    1    1    2    0  503  0.34375157184E+02 -0.66008959617E+02  0.18433627384E+03  0.19879309856E+03  0.00000000000E+00 0.  1.
<mgrwt>
<rscale>  2 0.10401935E+03</rscale>
<asrwt>0</asrwt>
<pdfrwt beam="1">  1       21 0.81131068E-01 0.10401935E+03</pdfrwt>
<pdfrwt beam="2">  1       21 0.31607222E-02 0.10401935E+03</pdfrwt>
<totfact> 0.77850378E+05</totfact>
</mgrwt>
</event>
<event>
 5    1  0.1281005E-004  0.1873703E+03  0.7546771E-02  0.1160855E+00
         21   -1    0    0  501  502  0.00000000000E+00  0.00000000000E+00  0.96233820746E+02  0.96233820746E+02  0.00000000000E+00 0. -1.
         21   -1    0    0  502  503 -0.00000000000E+00 -0.00000000000E+00 -0.40771413584E+03  0.40771413584E+03  0.00000000000E+00 0.  1.
         24    1    1    2    0    0  0.64726963130E+02  0.36643666826E+02 -0.10632067439E+03  0.15265529743E+03  0.80419002446E+02 0. -1.
          1    1    1    2  501    0 -0.71431680247E+02 -0.14235646739E+03 -0.57005760150E+02  0.16916709325E+03  0.00000000000E+00 0. -1.
         -2    1    1    2    0  503  0.67047171171E+01  0.10571280056E+03 -0.14815388055E+03  0.18212556590E+03  0.00000000000E+00 0.  1.
<mgrwt>
<rscale>  2 0.18737028E+03</rscale>
<asrwt>0</asrwt>
<pdfrwt beam="1">  1       21 0.14805204E-01 0.18737028E+03</pdfrwt>
<pdfrwt beam="2">  1       21 0.62725250E-01 0.18737028E+03</pdfrwt>
<totfact> 0.94787560E+04</totfact>
</mgrwt>
</event>
<event>
 5    1  0.1281005E-004  0.1926853E+03  0.7546771E-02  0.1156061E+00
         21   -1    0    0  503  502  0.00000000000E+00  0.00000000000E+00  0.25923890613E+03  0.25923890613E+03  0.00000000000E+00 0. -1.
         21   -1    0    0  501  503 -0.00000000000E+00 -0.00000000000E+00 -0.18573408234E+03  0.18573408234E+03  0.00000000000E+00 0.  1.
         24    1    1    2    0    0  0.50410766988E+02 -0.17276786546E+02  0.49904529894E+02  0.10861588668E+03  0.80419002446E+02 0.  1.
          1    1    1    2  501    0  0.91837487073E+02 -0.75652539902E+02  0.94796425803E+02  0.15213084227E+03  0.00000000000E+00 0. -1.
         -2    1    1    2    0  502 -0.14224825406E+03  0.92929326448E+02 -0.71196131906E+02  0.18422625952E+03  0.00000000000E+00 0.  1.
<mgrwt>
<rscale>  2 0.19268526E+03</rscale>
<asrwt>0</asrwt>
<pdfrwt beam="1">  1       21 0.39882909E-01 0.19268526E+03</pdfrwt>
<pdfrwt beam="2">  1       21 0.28574474E-01 0.19268526E+03</pdfrwt>
<totfact> 0.70980902E+04</totfact>
</mgrwt>
</event>
<event>
 5    1  0.1281005E-004  0.2581407E+03  0.7546771E-02  0.1108266E+00
         21   -1    0    0  503  502  0.00000000000E+00  0.00000000000E+00  0.46511271990E+03  0.46511271990E+03  0.00000000000E+00 0. -1.
         21   -1    0    0  501  503 -0.00000000000E+00 -0.00000000000E+00 -0.14718736968E+03  0.14718736968E+03  0.00000000000E+00 0.  1.
         24    1    1    2    0    0  0.55954474796E+02 -0.10673175620E+03  0.13599398928E+03  0.19870619544E+03  0.80419002446E+02 0. -1.
          1    1    1    2  501    0 -0.69116471421E+02 -0.12310984752E+03  0.71627711871E+02  0.15831503493E+03  0.00000000000E+00 0. -1.
         -2    1    1    2    0  502  0.13161996625E+02  0.22984160372E+03  0.11030364908E+03  0.25527885921E+03  0.00000000000E+00 0.  1.
<mgrwt>
<rscale>  2 0.25814070E+03</rscale>
<asrwt>0</asrwt>
<pdfrwt beam="1">  1       21 0.71555802E-01 0.25814070E+03</pdfrwt>
<pdfrwt beam="2">  1       21 0.22644211E-01 0.25814070E+03</pdfrwt>
<totfact> 0.31240036E+04</totfact>
</mgrwt>
</event>
<event>
 5    1  0.1281005E-004  0.3534085E+03  0.7546771E-02  0.1061225E+00
         21   -1    0    0  501  502  0.00000000000E+00  0.00000000000E+00  0.56268341463E+02  0.56268341463E+02  0.00000000000E+00 0. -1.
         21   -1    0    0  502  503 -0.00000000000E+00 -0.00000000000E+00 -0.22804142706E+04  0.22804142706E+04  0.00000000000E+00 0.  1.
         24    1    1    2    0    0  0.71983900304E+02 -0.39582515374E+02 -0.48970905496E+03  0.50302150242E+03  0.80419002446E+02 0.  1.
          1    1    1    2  501    0 -0.11811887665E+03  0.30259366810E+03 -0.10448867735E+04  0.10942135835E+04  0.00000000000E+00 0. -1.
         -2    1    1    2    0  503  0.46134976350E+02 -0.26301115273E+03 -0.68955010065E+03  0.73944752607E+03  0.00000000000E+00 0.  1.
<mgrwt>
<rscale>  2 0.35340847E+03</rscale>
<asrwt>0</asrwt>
<pdfrwt beam="1">  1       21 0.86566682E-02 0.35340847E+03</pdfrwt>
<pdfrwt beam="2">  1       21 0.35083295E+00 0.35340847E+03</pdfrwt>
<totfact> 0.15383051E+03</totfact>
</mgrwt>
</event>
<event>
 5    1  0.1281005E-004  0.9612076E+02  0.7546771E-02  0.1288672E+00
         21   -1    0    0  501  502  0.00000000000E+00  0.00000000000E+00  0.28548752411E+02  0.28548752411E+02  0.00000000000E+00 0.  1.
         21   -1    0    0  502  503 -0.00000000000E+00 -0.00000000000E+00 -0.32587455643E+03  0.32587455643E+03  0.00000000000E+00 0. -1.
         24    1    1    2    0    0  0.29921140596E+02 -0.11879335964E+02 -0.12436115967E+03  0.15155628415E+03  0.80419002446E+02 0. -1.
          1    1    1    2  501    0  0.25046849970E+02 -0.28104781314E+02 -0.53478046297E+02  0.65399731359E+02  0.00000000000E+00 0. -1.
         -2    1    1    2    0  503 -0.54967990566E+02  0.39984117278E+02 -0.11948659806E+03  0.13746729334E+03  0.00000000000E+00 0.  1.
<mgrwt>
<rscale>  2 0.96120764E+02</rscale>
<asrwt>0</asrwt>
<pdfrwt beam="1">  1       21 0.43921157E-02 0.96120764E+02</pdfrwt>
<pdfrwt beam="2">  1       21 0.50134548E-01 0.96120764E+02</pdfrwt>
<totfact> 0.12628783E+06</totfact>
</mgrwt>
</event>
<event>
 5    1  0.1281005E-004  0.7066422E+02  0.7546771E-02  0.1357849E+00
         21   -1    0    0  503  502  0.00000000000E+00  0.00000000000E+00  0.11579493663E+03  0.11579493663E+03  0.00000000000E+00 0.  1.
         21   -1    0    0  501  503 -0.00000000000E+00 -0.00000000000E+00 -0.45610038818E+02  0.45610038818E+02  0.00000000000E+00 0.  1.
         24    1    1    2    0    0 -0.25045918338E+02  0.16772023855E+02  0.55421550168E+02  0.10221234264E+03  0.80419002446E+02 0.  0.
          1    1    1    2  501    0  0.11711195694E+02 -0.32664311576E+02  0.18358195446E+01  0.34748807012E+02  0.00000000000E+00 0. -1.
         -2    1    1    2    0  502  0.13334722644E+02  0.15892287721E+02  0.12927528100E+02  0.24443825801E+02  0.00000000000E+00 0.  1.
<mgrwt>
<rscale>  2 0.70664218E+02</rscale>
<asrwt>0</asrwt>
<pdfrwt beam="1">  1       21 0.17814606E-01 0.70664218E+02</pdfrwt>
<pdfrwt beam="2">  1       21 0.70169291E-02 0.70664218E+02</pdfrwt>
<totfact> 0.41088365E+06</totfact>
</mgrwt>
</event>
<event>
 5    1  0.1281005E-004  0.1627320E+03  0.7546771E-02  0.1185646E+00
         21   -1    0    0  503  502  0.00000000000E+00  0.00000000000E+00  0.32326666894E+02  0.32326666894E+02  0.00000000000E+00 0. -1.
         21   -1    0    0  501  503 -0.00000000000E+00 -0.00000000000E+00 -0.90227087078E+03  0.90227087078E+03  0.00000000000E+00 0.  1.
         24    1    1    2    0    0 -0.33632513775E+02  0.42534620688E+02 -0.21280469808E+03  0.23386619127E+03  0.80419002446E+02 0.  0.
          1    1    1    2  501    0 -0.78175578957E+02  0.41589723971E+02 -0.38113024286E+03  0.39128172498E+03  0.00000000000E+00 0. -1.
         -2    1    1    2    0  502  0.11180809273E+03 -0.84124344659E+02 -0.27600926295E+03  0.30944962142E+03  0.00000000000E+00 0.  1.
<mgrwt>
<rscale>  2 0.16273197E+03</rscale>
<asrwt>0</asrwt>
<pdfrwt beam="1">  1       21 0.49733340E-02 0.16273197E+03</pdfrwt>
<pdfrwt beam="2">  1       21 0.13881088E+00 0.16273197E+03</pdfrwt>
<totfact> 0.10071258E+05</totfact>
</mgrwt>
</event>
<event>
 5    1  0.1281005E-004  0.1282411E+03  0.7546771E-02  0.1230089E+00
         21   -1    0    0  501  502  0.00000000000E+00  0.00000000000E+00  0.11160068960E+04  0.11160068960E+04  0.00000000000E+00 0. -1.
         21   -1    0    0  502  503 -0.00000000000E+00 -0.00000000000E+00 -0.15310300077E+02  0.15310300077E+02  0.00000000000E+00 0. -1.
         24    1    1    2    0    0  0.86045126949E+02 -0.43934107121E+02  0.45035586718E+03  0.46756988002E+03  0.80419002446E+02 0. -1.
          1    1    1    2  501    0 -0.86717055622E+02  0.65829845881E+02  0.57792614286E+03  0.58809186607E+03  0.00000000000E+00 0. -1.
         -2    1    1    2    0  503  0.67192867299E+00 -0.21895738760E+02  0.72414585918E+02  0.75655450020E+02  0.00000000000E+00 0.  1.
<mgrwt>
<rscale>  2 0.12824110E+03</rscale>
<asrwt>0</asrwt>
<pdfrwt beam="1">  1       21 0.17169330E+00 0.12824110E+03</pdfrwt>
<pdfrwt beam="2">  1       21 0.23554317E-02 0.12824110E+03</pdfrwt>
<totfact> 0.20137452E+05</totfact>
</mgrwt>
</event>
<event>
 5    1  0.1281005E-004  0.2395013E+03  0.7546771E-02  0.1120126E+00
         21   -1    0    0  503  502  0.00000000000E+00  0.00000000000E+00  0.61994323061E+03  0.61994323061E+03  0.00000000000E+00 0. -1.
         21   -1    0    0  501  503 -0.00000000000E+00 -0.00000000000E+00 -0.10040706764E+03  0.10040706764E+03  0.00000000000E+00 0.  1.
         24    1    1    2    0    0  0.84677702536E+02  0.80882701999E+02  0.24675409397E+03  0.28472288920E+03  0.80419002446E+02 0. -1.
          1    1    1    2  501    0  0.10921980409E+03  0.30418210034E+02  0.11842316785E+03  0.16394596607E+03  0.00000000000E+00 0. -1.
         -2    1    1    2    0  502 -0.19389750663E+03 -0.11130091203E+03  0.15435890114E+03  0.27168144297E+03  0.00000000000E+00 0.  1.
<mgrwt>
<rscale>  2 0.23950127E+03</rscale>
<asrwt>0</asrwt>
<pdfrwt beam="1">  1       21 0.95375879E-01 0.23950127E+03</pdfrwt>
<pdfrwt beam="2">  1       21 0.15447242E-01 0.23950127E+03</pdfrwt>
<totfact> 0.33307250E+04</totfact>
</mgrwt>
</event>
<event>
 5    1  0.1281005E-004  0.1393818E+03  0.7546771E-02  0.1214163E+00
         21   -1    0    0  503  502  0.00000000000E+00  0.00000000000E+00  0.11575463287E+03  0.11575463287E+03  0.00000000000E+00 0.  1.
         21   -1    0    0  501  503 -0.00000000000E+00 -0.00000000000E+00 -0.17174590664E+03  0.17174590664E+03  0.00000000000E+00 0. -1.
         24    1    1    2    0    0 -0.19322756482E+02  0.47668358381E+02 -0.37358672057E+02  0.10251110984E+03  0.80419002446E+02 0.  0.
          1    1    1    2  501    0 -0.64762843057E+01 -0.11293561289E+03 -0.19572500826E+02  0.11480190637E+03  0.00000000000E+00 0. -1.
         -2    1    1    2    0  502  0.25799040788E+02  0.65267254507E+02  0.93989911119E+00  0.70187523299E+02  0.00000000000E+00 0.  1.
<mgrwt>
<rscale>  2 0.13938183E+03</rscale>
<asrwt>0</asrwt>
<pdfrwt beam="1">  1       21 0.17808405E-01 0.13938183E+03</pdfrwt>
<pdfrwt beam="2">  1       21 0.26422447E-01 0.13938183E+03</pdfrwt>
<totfact> 0.39370492E+05</totfact>
</mgrwt>
</event>
<event>
 5    1  0.1281005E-004  0.1823820E+03  0.7546771E-02  0.1165517E+00
         21   -1    0    0  501  502  0.00000000000E+00  0.00000000000E+00  0.21267259832E+03  0.21267259832E+03  0.00000000000E+00 0. -1.
         21   -1    0    0  502  503 -0.00000000000E+00 -0.00000000000E+00 -0.15970055065E+03  0.15970055065E+03  0.00000000000E+00 0.  1.
         24    1    1    2    0    0 -0.23756988229E+02  0.27380086640E+02  0.53111554598E+01  0.88371307339E+02  0.80419002446E+02 0. -1.
          1    1    1    2  501    0  0.12083294452E+03 -0.98760211159E+02  0.48773696968E+02  0.16350245657E+03  0.00000000000E+00 0. -1.
         -2    1    1    2    0  503 -0.97075956289E+02  0.71380124520E+02 -0.11128047608E+01  0.12049938506E+03  0.00000000000E+00 0.  1.
<mgrwt>
<rscale>  2 0.18238203E+03</rscale>
<asrwt>0</asrwt>
<pdfrwt beam="1">  1       21 0.32718862E-01 0.18238203E+03</pdfrwt>
<pdfrwt beam="2">  1       21 0.24569315E-01 0.18238203E+03</pdfrwt>
<totfact> 0.14124666E+05</totfact>
</mgrwt>
</event>
<event>
 5    1  0.1281005E-004  0.1131486E+03  0.7546771E-02  0.1254848E+00
         21   -1    0    0  501  502  0.00000000000E+00  0.00000000000E+00  0.21177144638E+02  0.21177144638E+02  0.00000000000E+00 0.  1.
         21   -1    0    0  502  503 -0.00000000000E+00 -0.00000000000E+00 -0.62862840280E+03  0.62862840280E+03  0.00000000000E+00 0.  1.
         24    1    1    2    0    0 -0.49866216172E+02  0.41077455415E+02 -0.23494478543E+03  0.25659357945E+03  0.80419002446E+02 0.  1.
          1    1    1    2  501    0 -0.15691742976E+02  0.25348366175E+02 -0.58932345193E+02  0.66043862510E+02  0.00000000000E+00 0. -1.
         -2    1    1    2    0  503  0.65557959148E+02 -0.66425821590E+02 -0.31357412753E+03  0.32716810548E+03  0.00000000000E+00 0.  1.
<mgrwt>
<rscale>  2 0.11314858E+03</rscale>
<asrwt>0</asrwt>
<pdfrwt beam="1">  1       21 0.32580227E-02 0.11314858E+03</pdfrwt>
<pdfrwt beam="2">  1       21 0.96712050E-01 0.11314858E+03</pdfrwt>
<totfact> 0.49711137E+05</totfact>
</mgrwt>
</event>
<event>
 5    1  0.1281005E-004  0.9794661E+02  0.7546771E-02  0.1284674E+00
         21   -1    0    0  503  502  0.00000000000E+00  0.00000000000E+00  0.16059642641E+04  0.16059642641E+04  0.00000000000E+00 0.  1.
         21   -1    0    0  501  503 -0.00000000000E+00 -0.00000000000E+00 -0.62166233419E+01  0.62166233419E+01  0.00000000000E+00 0.  1.
         24    1    1    2    0    0  0.47393223715E+02 -0.25305007616E+02  0.63990849354E+03  0.64717583169E+03  0.80419002446E+02 0.  1.
          1    1    1    2  501    0 -0.70514018147E+02  0.94510572388E+01  0.73144059302E+03  0.73489243455E+03  0.00000000000E+00 0. -1.
         -2    1    1    2    0  502  0.23120794433E+02  0.15853950377E+02  0.22839855422E+03  0.23011262123E+03  0.00000000000E+00 0.  1.
<mgrwt>
<rscale>  2 0.97946610E+02</rscale>
<asrwt>0</asrwt>
<pdfrwt beam="1">  1       21 0.24707109E+00 0.97946610E+02</pdfrwt>
<pdfrwt beam="2">  1       21 0.95640487E-03 0.97946610E+02</pdfrwt>
<totfact> 0.29682807E+05</totfact>
</mgrwt>
</event>
<event>
 5    1  0.1281005E-004  0.9503887E+02  0.7546771E-02  0.1291089E+00
         21   -1    0    0  501  502  0.00000000000E+00  0.00000000000E+00  0.58053474519E+03  0.58053474519E+03  0.00000000000E+00 0. -1.
         21   -1    0    0  502  503 -0.00000000000E+00 -0.00000000000E+00 -0.15729747666E+02  0.15729747666E+02  0.00000000000E+00 0.  1.
         24    1    1    2    0    0  0.26193110447E+02 -0.44452038593E+02  0.31428857417E+03  0.32849137976E+03  0.80419002446E+02 0. -1.
          1    1    1    2  501    0 -0.16921616812E+02  0.67552086998E+02  0.18801604775E+03  0.20049852813E+03  0.00000000000E+00 0. -1.
         -2    1    1    2    0  503 -0.92714936354E+01 -0.23100048405E+02  0.62500375605E+02  0.67274584958E+02  0.00000000000E+00 0.  1.
<mgrwt>
<rscale>  2 0.95038866E+02</rscale>
<asrwt>0</asrwt>
<pdfrwt beam="1">  1       21 0.89313021E-01 0.95038866E+02</pdfrwt>
<pdfrwt beam="2">  1       21 0.24199616E-02 0.95038866E+02</pdfrwt>
<totfact> 0.96801490E+05</totfact>
</mgrwt>
</event>
<event>
 5    1  0.1281005E-004  0.2198375E+03  0.7546771E-02  0.1134004E+00
         21   -1    0    0  503  502  0.00000000000E+00  0.00000000000E+00  0.13173177200E+03  0.13173177200E+03  0.00000000000E+00 0. -1.
         21   -1    0    0  501  503 -0.00000000000E+00 -0.00000000000E+00 -0.40840865401E+03  0.40840865401E+03  0.00000000000E+00 0.  1.
         24    1    1    2    0    0 -0.26700335510E+02  0.62544176927E+02  0.12930441968E+01  0.10532601721E+03  0.80419002446E+02 0. -1.
          1    1    1    2  501    0 -0.12996609071E+03 -0.11041877877E+03 -0.14264672825E+03  0.22233214009E+03  0.00000000000E+00 0. -1.
         -2    1    1    2    0  502  0.15666642622E+03  0.47874601841E+02 -0.13532319796E+03  0.21248226870E+03  0.00000000000E+00 0.  1.
<mgrwt>
<rscale>  2 0.21983747E+03</rscale>
<asrwt>0</asrwt>
<pdfrwt beam="1">  1       21 0.20266427E-01 0.21983747E+03</pdfrwt>
<pdfrwt beam="2">  1       21 0.62832100E-01 0.21983747E+03</pdfrwt>
<totfact> 0.52154329E+04</totfact>
</mgrwt>
</event>
<event>
 5    1  0.1281005E-004  0.1593381E+03  0.7546771E-02  0.1189446E+00
         21   -1    0    0  501  502  0.00000000000E+00  0.00000000000E+00  0.12581883613E+03  0.12581883613E+03  0.00000000000E+00 0.  1.
         21   -1    0    0  502  503 -0.00000000000E+00 -0.00000000000E+00 -0.20259050107E+03  0.20259050107E+03  0.00000000000E+00 0. -1.
         24    1    1    2    0    0  0.26343047633E+02 -0.90562886941E+02 -0.28752386006E+02  0.12723799867E+03  0.80419002446E+02 0.  1.
          1    1    1    2  501    0 -0.81607783801E+01  0.14093766599E+03 -0.27547678088E+02  0.14383636038E+03  0.00000000000E+00 0. -1.
         -2    1    1    2    0  503 -0.18182269253E+02 -0.50374779047E+02 -0.20471600851E+02  0.57334978160E+02  0.00000000000E+00 0.  1.
<mgrwt>
<rscale>  2 0.15933812E+03</rscale>
<asrwt>0</asrwt>
<pdfrwt beam="1">  1       21 0.19356744E-01 0.15933812E+03</pdfrwt>
<pdfrwt beam="2">  1       21 0.31167769E-01 0.15933812E+03</pdfrwt>
<totfact> 0.24481078E+05</totfact>
</mgrwt>
</event>
<event>
 5    1  0.1281005E-004  0.2424595E+03  0.7546771E-02  0.1118165E+00
         21   -1    0    0  503  502  0.00000000000E+00  0.00000000000E+00  0.17406807399E+03  0.17406807399E+03  0.00000000000E+00 0.  1.
         21   -1    0    0  501  503 -0.00000000000E+00 -0.00000000000E+00 -0.36344130914E+03  0.36344130914E+03  0.00000000000E+00 0.  1.
         24    1    1    2    0    0  0.12562931413E+03  0.10610761019E+03 -0.86449783904E+02  0.20244093114E+03  0.80419002446E+02 0.  1.
          1    1    1    2  501    0  0.73719841648E+02  0.45540464724E+01 -0.75164107565E+02  0.10538025175E+03  0.00000000000E+00 0. -1.
         -2    1    1    2    0  502 -0.19934915578E+03 -0.11066165666E+03 -0.27759343681E+02  0.22968820024E+03  0.00000000000E+00 0.  1.
<mgrwt>
<rscale>  2 0.24245947E+03</rscale>
<asrwt>0</asrwt>
<pdfrwt beam="1">  1       21 0.26779704E-01 0.24245947E+03</pdfrwt>
<pdfrwt beam="2">  1       21 0.55914047E-01 0.24245947E+03</pdfrwt>
<totfact> 0.39046236E+04</totfact>
</mgrwt>
</event>
<event>
 5    1  0.1281005E-004  0.1486146E+03  0.7546771E-02  0.1202186E+00
         21   -1    0    0  503  502  0.00000000000E+00  0.00000000000E+00  0.13225461590E+03  0.13225461590E+03  0.00000000000E+00 0.  1.
         21   -1    0    0  501  503 -0.00000000000E+00 -0.00000000000E+00 -0.18745456757E+03  0.18745456757E+03  0.00000000000E+00 0. -1.
         24    1    1    2    0    0 -0.44326355883E+01  0.70558427964E+02  0.13693349006E+02  0.10794843110E+03  0.80419002446E+02 0.  1.
          1    1    1    2  501    0  0.66607166338E+01 -0.13024976723E+03 -0.14947617777E+02  0.13127375323E+03  0.00000000000E+00 0. -1.
         -2    1    1    2    0  502 -0.22280810454E+01  0.59691339268E+02 -0.53945682891E+02  0.80486999145E+02  0.00000000000E+00 0.  1.
<mgrwt>
<rscale>  2 0.14861464E+03</rscale>
<asrwt>0</asrwt>
<pdfrwt beam="1">  1       21 0.20346864E-01 0.14861464E+03</pdfrwt>
<pdfrwt beam="2">  1       21 0.28839164E-01 0.14861464E+03</pdfrwt>
<totfact> 0.25993878E+05</totfact>
</mgrwt>
</event>
<event>
 5    1  0.1281005E-004  0.1350425E+03  0.7546771E-02  0.1220160E+00
         21   -1    0    0  503  502  0.00000000000E+00  0.00000000000E+00  0.35495000457E+03  0.35495000457E+03  0.00000000000E+00 0. -1.
         21   -1    0    0  501  503 -0.00000000000E+00 -0.00000000000E+00 -0.52302873731E+02  0.52302873731E+02  0.00000000000E+00 0. -1.
         24    1    1    2    0    0 -0.18112034903E+01  0.38974474611E+02  0.12497527443E+03  0.15365000912E+03  0.80419002446E+02 0. -1.
          1    1    1    2  501    0 -0.48045206169E+02 -0.94539517453E+02  0.97523535657E+02  0.14407255881E+03  0.00000000000E+00 0. -1.
         -2    1    1    2    0  502  0.49856409659E+02  0.55565042842E+02  0.80148320760E+02  0.10953031037E+03  0.00000000000E+00 0.  1.
<mgrwt>
<rscale>  2 0.13504246E+03</rscale>
<asrwt>0</asrwt>
<pdfrwt beam="1">  1       21 0.54607691E-01 0.13504246E+03</pdfrwt>
<pdfrwt beam="2">  1       21 0.80465962E-02 0.13504246E+03</pdfrwt>
<totfact> 0.38025904E+05</totfact>
</mgrwt>
</event>
<event>
 5    1  0.1281005E-004  0.1520192E+03  0.7546771E-02  0.1198014E+00
         21   -1    0    0  501  502  0.00000000000E+00  0.00000000000E+00  0.16880684680E+03  0.16880684680E+03  0.00000000000E+00 0. -1.
         21   -1    0    0  502  503 -0.00000000000E+00 -0.00000000000E+00 -0.13691274298E+03  0.13691274298E+03  0.00000000000E+00 0.  1.
         24    1    1    2    0    0  0.23264358927E+02 -0.27307215911E+01  0.82821304422E+01  0.84169453341E+02  0.80419002446E+02 0. -1.
          1    1    1    2  501    0 -0.73377372752E+02  0.92136335549E+02  0.13720695581E+02  0.11858162019E+03  0.00000000000E+00 0. -1.
         -2    1    1    2    0  503  0.50113013825E+02 -0.89405613958E+02  0.98912777989E+01  0.10296851625E+03  0.00000000000E+00 0.  1.
<mgrwt>
<rscale>  2 0.15201924E+03</rscale>
<asrwt>0</asrwt>
<pdfrwt beam="1">  1       21 0.25970284E-01 0.15201924E+03</pdfrwt>
<pdfrwt beam="2">  1       21 0.21063499E-01 0.15201924E+03</pdfrwt>
<totfact> 0.29772301E+05</totfact>
</mgrwt>
</event>
<event>
 5    1  0.1281005E-004  0.2248880E+03  0.7546771E-02  0.1130290E+00
         21   -1    0    0  503  502  0.00000000000E+00  0.00000000000E+00  0.19565346664E+04  0.19565346664E+04  0.00000000000E+00 0.  1.
         21   -1    0    0  501  503 -0.00000000000E+00 -0.00000000000E+00 -0.27272124283E+02  0.27272124283E+02  0.00000000000E+00 0. -1.
         24    1    1    2    0    0 -0.27982649245E+02  0.17030006550E+02  0.57886295235E+03  0.58533971618E+03  0.80419002446E+02 0.  1.
          1    1    1    2  501    0 -0.13216267297E+03  0.99042170270E+02  0.57614184691E+03  0.59934610317E+03  0.00000000000E+00 0. -1.
         -2    1    1    2    0  502  0.16014532221E+03 -0.11607217682E+03  0.77425774288E+03  0.79912097136E+03  0.00000000000E+00 0.  1.
<mgrwt>
<rscale>  2 0.22488804E+03</rscale>
<asrwt>0</asrwt>
<pdfrwt beam="1">  1       21 0.30100522E+00 0.22488804E+03</pdfrwt>
<pdfrwt beam="2">  1       21 0.41957130E-02 0.22488804E+03</pdfrwt>
<totfact> 0.11796902E+04</totfact>
</mgrwt>
</event>
<event>
 5    1  0.1281005E-004  0.2109632E+03  0.7546771E-02  0.1140806E+00
         21   -1    0    0  501  502  0.00000000000E+00  0.00000000000E+00  0.90840234983E+02  0.90840234983E+02  0.00000000000E+00 0.  1.
         21   -1    0    0  502  503 -0.00000000000E+00 -0.00000000000E+00 -0.51262527461E+03  0.51262527461E+03  0.00000000000E+00 0. -1.
         24    1    1    2    0    0  0.32760445028E+02 -0.26847500893E+02 -0.75697711177E+02  0.11828522517E+03  0.80419002446E+02 0.  1.
          1    1    1    2  501    0 -0.76037348998E+02  0.16745940180E+03 -0.13615480244E+03  0.22882845085E+03  0.00000000000E+00 0. -1.
         -2    1    1    2    0  503  0.43276903970E+02 -0.14061190091E+03 -0.20993252601E+03  0.25635183356E+03  0.00000000000E+00 0.  1.
<mgrwt>
<rscale>  2 0.21096319E+03</rscale>
<asrwt>0</asrwt>
<pdfrwt beam="1">  1       21 0.13975421E-01 0.21096319E+03</pdfrwt>
<pdfrwt beam="2">  1       21 0.78865424E-01 0.21096319E+03</pdfrwt>
<totfact> 0.62819505E+04</totfact>
</mgrwt>
</event>
<event>
 5    1  0.1281005E-004  0.1111822E+03  0.7546771E-02  0.1258396E+00
         21   -1    0    0  503  502  0.00000000000E+00  0.00000000000E+00  0.16057130139E+03  0.16057130139E+03  0.00000000000E+00 0. -1.
         21   -1    0    0  501  503 -0.00000000000E+00 -0.00000000000E+00 -0.77581442768E+02  0.77581442768E+02  0.00000000000E+00 0.  1.
         24    1    1    2    0    0 -0.19254529256E+02 -0.24752340202E+02  0.24759416988E+02  0.89797883752E+02  0.80419002446E+02 0.  0.
          1    1    1    2  501    0 -0.20161205351E+02  0.71854329093E+02  0.37587189314E+02  0.83560251383E+02  0.00000000000E+00 0. -1.
         -2    1    1    2    0  502  0.39415734607E+02 -0.47101988891E+02  0.20643252321E+02  0.64794609023E+02  0.00000000000E+00 0.  1.
<mgrwt>
<rscale>  2 0.11118223E+03</rscale>
<asrwt>0</asrwt>
<pdfrwt beam="1">  1       21 0.24703277E-01 0.11118223E+03</pdfrwt>
<pdfrwt beam="2">  1       21 0.11935607E-01 0.11118223E+03</pdfrwt>
<totfact> 0.91874248E+05</totfact>
</mgrwt>
</event>
<event>
 5    1  0.1281005E-004  0.1644491E+03  0.7546771E-02  0.1183763E+00
         21   -1    0    0  503  502  0.00000000000E+00  0.00000000000E+00  0.29834095728E+03  0.29834095728E+03  0.00000000000E+00 0.  1.
         21   -1    0    0  501  503 -0.00000000000E+00 -0.00000000000E+00 -0.93721506212E+02  0.93721506212E+02  0.00000000000E+00 0. -1.
         24    1    1    2    0    0 -0.47972232570E+02 -0.72262360825E+02  0.56588305446E+02  0.13112069309E+03  0.80419002446E+02 0. -1.
          1    1    1    2  501    0 -0.69068862422E+02 -0.67569899783E+01  0.74167909835E+02  0.10157284834E+03  0.00000000000E+00 0. -1.
         -2    1    1    2    0  502  0.11704109499E+03  0.79019350803E+02  0.73863235787E+02  0.15936892206E+03  0.00000000000E+00 0.  1.
<mgrwt>
<rscale>  2 0.16444908E+03</rscale>
<asrwt>0</asrwt>
<pdfrwt beam="1">  1       21 0.45898609E-01 0.16444908E+03</pdfrwt>
<pdfrwt beam="2">  1       21 0.14418693E-01 0.16444908E+03</pdfrwt>
<totfact> 0.19341442E+05</totfact>
</mgrwt>
</event>
<event>
 5    1  0.1281005E-004  0.1739225E+03  0.7546771E-02  0.1173818E+00
         21   -1    0    0  503  502  0.00000000000E+00  0.00000000000E+00  0.22453674831E+03  0.22453674831E+03  0.00000000000E+00 0.  1.
         21   -1    0    0  501  503 -0.00000000000E+00 -0.00000000000E+00 -0.14216224982E+03  0.14216224982E+03  0.00000000000E+00 0. -1.
         24    1    1    2    0    0  0.68917470984E+02 -0.46602787421E+02  0.60478909898E+02  0.13056167929E+03  0.80419002446E+02 0.  1.
          1    1    1    2  501    0 -0.23902203621E+02 -0.87486029782E+02 -0.96951716338E+01  0.91209194153E+02  0.00000000000E+00 0. -1.
         -2    1    1    2    0  502 -0.45015267363E+02  0.13408881720E+03  0.31590760225E+02  0.14492812469E+03  0.00000000000E+00 0.  1.
<mgrwt>
<rscale>  2 0.17392251E+03</rscale>
<asrwt>0</asrwt>
<pdfrwt beam="1">  1       21 0.34544115E-01 0.17392251E+03</pdfrwt>
<pdfrwt beam="2">  1       21 0.21871115E-01 0.17392251E+03</pdfrwt>
<totfact> 0.15858114E+05</totfact>
</mgrwt>
</event>
<event>
 5    1  0.1281005E-004  0.2451354E+03  0.7546771E-02  0.1116418E+00
         21   -1    0    0  501  502  0.00000000000E+00  0.00000000000E+00  0.42921592903E+03  0.42921592903E+03  0.00000000000E+00 0. -1.
         21   -1    0    0  502  503 -0.00000000000E+00 -0.00000000000E+00 -0.14456923666E+03  0.14456923666E+03  0.00000000000E+00 0.  1.
         24    1    1    2    0    0 -0.10240138495E+02 -0.51826660826E+02  0.27899173511E+02  0.10018204952E+03  0.80419002446E+02 0.  1.
          1    1    1    2  501    0 -0.17076389858E+03 -0.60339959788E+02  0.15125049695E+03  0.23596171858E+03  0.00000000000E+00 0. -1.
         -2    1    1    2    0  503  0.18100403708E+03  0.11216662061E+03  0.10549702191E+03  0.23764139759E+03  0.00000000000E+00 0.  1.
<mgrwt>
<rscale>  2 0.24513542E+03</rscale>
<asrwt>0</asrwt>
<pdfrwt beam="1">  1       21 0.66033219E-01 0.24513542E+03</pdfrwt>
<pdfrwt beam="2">  1       21 0.22241421E-01 0.24513542E+03</pdfrwt>
<totfact> 0.38828161E+04</totfact>
</mgrwt>
</event>
<event>
 5    1  0.1281005E-004  0.2129383E+03  0.7546771E-02  0.1139260E+00
         21   -1    0    0  501  502  0.00000000000E+00  0.00000000000E+00  0.35287902601E+03  0.35287902601E+03  0.00000000000E+00 0. -1.
         21   -1    0    0  502  503 -0.00000000000E+00 -0.00000000000E+00 -0.16681749334E+03  0.16681749334E+03  0.00000000000E+00 0.  1.
         24    1    1    2    0    0 -0.32785152520E+02  0.63406519577E+02  0.13791204936E+03  0.17487767801E+03  0.80419002446E+02 0. -1.
          1    1    1    2  501    0 -0.87477809806E+02  0.88607830395E+02  0.80548114404E+02  0.14829603349E+03  0.00000000000E+00 0. -1.
         -2    1    1    2    0  503  0.12026296233E+03 -0.15201434997E+03 -0.32398631101E+02  0.19652280784E+03  0.00000000000E+00 0.  1.
<mgrwt>
<rscale>  2 0.21293832E+03</rscale>
<asrwt>0</asrwt>
<pdfrwt beam="1">  1       21 0.54289081E-01 0.21293832E+03</pdfrwt>
<pdfrwt beam="2">  1       21 0.25664230E-01 0.21293832E+03</pdfrwt>
<totfact> 0.45728770E+04</totfact>
</mgrwt>
</event>
<event>
 5    1  0.1281005E-004  0.1360186E+03  0.7546771E-02  0.1218789E+00
         21   -1    0    0  501  502  0.00000000000E+00  0.00000000000E+00  0.86031431168E+02  0.86031431168E+02  0.00000000000E+00 0. -1.
         21   -1    0    0  502  503 -0.00000000000E+00 -0.00000000000E+00 -0.21682109260E+03  0.21682109260E+03  0.00000000000E+00 0.  1.
         24    1    1    2    0    0 -0.42755355573E+02 -0.12124340662E+02 -0.45749875532E+02  0.10264154681E+03  0.80419002446E+02 0. -1.
          1    1    1    2  501    0 -0.59749263278E+02  0.42409757946E+02 -0.45491181703E+02  0.86243896271E+02  0.00000000000E+00 0. -1.
         -2    1    1    2    0  503  0.10250461885E+03 -0.30285417283E+02 -0.39548604198E+02  0.11396708068E+03  0.00000000000E+00 0.  1.
<mgrwt>
<rscale>  2 0.13601856E+03</rscale>
<asrwt>0</asrwt>
<pdfrwt beam="1">  1       21 0.13235605E-01 0.13601856E+03</pdfrwt>
<pdfrwt beam="2">  1       21 0.33357091E-01 0.13601856E+03</pdfrwt>
<totfact> 0.42973884E+05</totfact>
</mgrwt>
</event>
<event>
 5    1  0.1281005E-004  0.1612279E+03  0.7546771E-02  0.1187317E+00
         21   -1    0    0  501  502  0.00000000000E+00  0.00000000000E+00  0.17732727047E+02  0.17732727047E+02  0.00000000000E+00 0. -1.
         21   -1    0    0  502  503 -0.00000000000E+00 -0.00000000000E+00 -0.17997233616E+04  0.17997233616E+04  0.00000000000E+00 0.  1.
         24    1    1    2    0    0 -0.32347446431E+02  0.44879603094E+01 -0.23899383103E+03  0.25426711605E+03  0.80419002446E+02 0.  0.
          1    1    1    2  501    0 -0.95435428104E+02  0.35408629253E+02 -0.41615341195E+03  0.42842193483E+03  0.00000000000E+00 0. -1.
         -2    1    1    2    0  503  0.12778287453E+03 -0.39896589562E+02 -0.11268433915E+04  0.11347670377E+04  0.00000000000E+00 0.  1.
<mgrwt>
<rscale>  2 0.16122786E+03</rscale>
<asrwt>0</asrwt>
<pdfrwt beam="1">  1       21 0.27281114E-02 0.16122786E+03</pdfrwt>
<pdfrwt beam="2">  1       21 0.27688057E+00 0.16122786E+03</pdfrwt>
<totfact> 0.35357831E+04</totfact>
</mgrwt>
</event>
<event>
 5    1  0.1281005E-004  0.1581986E+03  0.7546771E-02  0.1190746E+00
         21   -1    0    0  501  502  0.00000000000E+00  0.00000000000E+00  0.29057569803E+03  0.29057569803E+03  0.00000000000E+00 0.  1.
         21   -1    0    0  502  503 -0.00000000000E+00 -0.00000000000E+00 -0.11189280660E+03  0.11189280660E+03  0.00000000000E+00 0.  1.
         24    1    1    2    0    0 -0.21498533695E+02 -0.87416805679E+02  0.15346845809E+03  0.19525283212E+03  0.80419002446E+02 0.  1.
          1    1    1    2  501    0 -0.10605385231E+02 -0.51769970111E+02  0.36040119613E+02  0.63964788931E+02  0.00000000000E+00 0. -1.
         -2    1    1    2    0  503  0.32103918926E+02  0.13918677579E+03 -0.10825686274E+02  0.14325088359E+03  0.00000000000E+00 0.  1.
<mgrwt>
<rscale>  2 0.15819858E+03</rscale>
<asrwt>0</asrwt>
<pdfrwt beam="1">  1       21 0.44703953E-01 0.15819858E+03</pdfrwt>
<pdfrwt beam="2">  1       21 0.17214278E-01 0.15819858E+03</pdfrwt>
<totfact> 0.14814854E+05</totfact>
</mgrwt>
</event>
<event>
 5    1  0.1281005E-004  0.3443993E+03  0.7546771E-02  0.1064938E+00
         21   -1    0    0  503  502  0.00000000000E+00  0.00000000000E+00  0.15494921888E+03  0.15494921888E+03  0.00000000000E+00 0.  1.
         21   -1    0    0  501  503 -0.00000000000E+00 -0.00000000000E+00 -0.85588993291E+03  0.85588993291E+03  0.00000000000E+00 0. -1.
         24    1    1    2    0    0  0.30027708842E+02 -0.10982142678E+03 -0.20861640395E+03  0.25089924079E+03  0.80419002446E+02 0. -1.
          1    1    1    2  501    0  0.26445667804E+01  0.32839539718E+03 -0.40715925567E+03  0.52309577527E+03  0.00000000000E+00 0. -1.
         -2    1    1    2    0  502 -0.32672275622E+02 -0.21857397041E+03 -0.85165054401E+02  0.23684413572E+03  0.00000000000E+00 0.  1.
<mgrwt>
<rscale>  2 0.34439931E+03</rscale>
<asrwt>0</asrwt>
<pdfrwt beam="1">  1       21 0.23838341E-01 0.34439931E+03</pdfrwt>
<pdfrwt beam="2">  1       21 0.13167538E+00 0.34439931E+03</pdfrwt>
<totfact> 0.63427800E+03</totfact>
</mgrwt>
</event>
<event>
 5    1  0.1281005E-004  0.1338205E+03  0.7546771E-02  0.1221894E+00
         21   -1    0    0  501  502  0.00000000000E+00  0.00000000000E+00  0.43767021406E+03  0.43767021406E+03  0.00000000000E+00 0. -1.
         21   -1    0    0  502  503 -0.00000000000E+00 -0.00000000000E+00 -0.40972283003E+02  0.40972283003E+02  0.00000000000E+00 0.  1.
         24    1    1    2    0    0  0.19048110917E+02  0.54267387052E+02  0.13818538013E+03  0.16991231581E+03  0.80419002446E+02 0.  0.
          1    1    1    2  501    0 -0.29649758605E+02 -0.10903181529E+03  0.17409698266E+03  0.20754952253E+03  0.00000000000E+00 0. -1.
         -2    1    1    2    0  503  0.10601647687E+02  0.54764428240E+02  0.84415568262E+02  0.10118065872E+03  0.00000000000E+00 0.  1.
<mgrwt>
<rscale>  2 0.13382054E+03</rscale>
<asrwt>0</asrwt>
<pdfrwt beam="1">  1       21 0.67333876E-01 0.13382054E+03</pdfrwt>
<pdfrwt beam="2">  1       21 0.63034285E-02 0.13382054E+03</pdfrwt>
<totfact> 0.36994039E+05</totfact>
</mgrwt>
</event>
<event>
 5    1  0.1281005E-004  0.2519454E+03  0.7546771E-02  0.1112082E+00
         21   -1    0    0  501  502  0.00000000000E+00  0.00000000000E+00  0.50597047468E+02  0.50597047468E+02  0.00000000000E+00 0.  1.
         21   -1    0    0  502  503 -0.00000000000E+00 -0.00000000000E+00 -0.12613948461E+04  0.12613948461E+04  0.00000000000E+00 0. -1.
         24    1    1    2    0    0 -0.52149354839E+02  0.14507904999E+03 -0.42389607859E+03  0.45817309759E+03  0.80419002446E+02 0.  0.
          1    1    1    2  501    0  0.13631296576E+03 -0.19059709469E+03 -0.59224252773E+03  0.63691419265E+03  0.00000000000E+00 0. -1.
         -2    1    1    2    0  503 -0.84163610922E+02  0.45518044704E+02 -0.19465919231E+03  0.21690460334E+03  0.00000000000E+00 0.  1.
<mgrwt>
<rscale>  2 0.25194538E+03</rscale>
<asrwt>0</asrwt>
<pdfrwt beam="1">  1       21 0.77841604E-02 0.25194538E+03</pdfrwt>
<pdfrwt beam="2">  1       21 0.19406076E+00 0.25194538E+03</pdfrwt>
<totfact> 0.17726442E+04</totfact>
</mgrwt>
</event>
<event>
 5    1  0.1281005E-004  0.1782664E+03  0.7546771E-02  0.1169491E+00
         21   -1    0    0  501  502  0.00000000000E+00  0.00000000000E+00  0.29931783385E+03  0.29931783385E+03  0.00000000000E+00 0. -1.
         21   -1    0    0  502  503 -0.00000000000E+00 -0.00000000000E+00 -0.11010546442E+03  0.11010546442E+03  0.00000000000E+00 0. -1.
         24    1    1    2    0    0 -0.68091641003E+02  0.10060662779E+03  0.69155187282E+02  0.16126940507E+03  0.80419002446E+02 0. -1.
          1    1    1    2  501    0  0.82511640985E+02 -0.14353321237E+03  0.11707476375E+03  0.20277192670E+03  0.00000000000E+00 0. -1.
         -2    1    1    2    0  503 -0.14419999983E+02  0.42926584579E+02  0.29824183930E+01  0.45381966492E+02  0.00000000000E+00 0.  1.
<mgrwt>
<rscale>  2 0.17826635E+03</rscale>
<asrwt>0</asrwt>
<pdfrwt beam="1">  1       21 0.46048897E-01 0.17826635E+03</pdfrwt>
<pdfrwt beam="2">  1       21 0.16939302E-01 0.17826635E+03</pdfrwt>
<totfact> 0.14259829E+05</totfact>
</mgrwt>
</event>
<event>
 5    1  0.1281005E-004  0.2629039E+03  0.7546771E-02  0.1105411E+00
         21   -1    0    0  501  502  0.00000000000E+00  0.00000000000E+00  0.15894597387E+04  0.15894597387E+04  0.00000000000E+00 0.  1.
         21   -1    0    0  502  503 -0.00000000000E+00 -0.00000000000E+00 -0.43619142148E+02  0.43619142148E+02  0.00000000000E+00 0.  1.
         24    1    1    2    0    0  0.29379471045E+02 -0.14365818859E+03  0.46066213813E+03  0.49007922822E+03  0.80419002446E+02 0.  1.
          1    1    1    2  501    0  0.14352400269E+03  0.17610709665E+02  0.41252216429E+03  0.43713134465E+03  0.00000000000E+00 0. -1.
         -2    1    1    2    0  503 -0.17290347374E+03  0.12604747893E+03  0.67265629409E+03  0.70586830794E+03  0.00000000000E+00 0.  1.
<mgrwt>
<rscale>  2 0.26290394E+03</rscale>
<asrwt>0</asrwt>
<pdfrwt beam="1">  1       21 0.24453222E+00 0.26290394E+03</pdfrwt>
<pdfrwt beam="2">  1       21 0.67106385E-02 0.26290394E+03</pdfrwt>
<totfact> 0.11009214E+04</totfact>
</mgrwt>
</event>
<event>
 5    1  0.1281005E-004  0.2551380E+03  0.7546771E-02  0.1110100E+00
         21   -1    0    0  501  502  0.00000000000E+00  0.00000000000E+00  0.12067054291E+04  0.12067054291E+04  0.00000000000E+00 0.  1.
         21   -1    0    0  502  503 -0.00000000000E+00 -0.00000000000E+00 -0.58665179033E+02  0.58665179033E+02  0.00000000000E+00 0. -1.
         24    1    1    2    0    0 -0.25873460755E+02 -0.14001158230E+03  0.55294100607E+03  0.57661395343E+03  0.80419002446E+02 0.  1.
          1    1    1    2  501    0  0.52897202688E+02  0.23866919727E+03  0.42161466090E+03  0.48736025902E+03  0.00000000000E+00 0. -1.
         -2    1    1    2    0  503 -0.27023741933E+02 -0.98657614970E+02  0.17348458306E+03  0.20139639565E+03  0.00000000000E+00 0.  1.
<mgrwt>
<rscale>  2 0.25513799E+03</rscale>
<asrwt>0</asrwt>
<pdfrwt beam="1">  1       21 0.18564697E+00 0.25513799E+03</pdfrwt>
<pdfrwt beam="2">  1       21 0.90254130E-02 0.25513799E+03</pdfrwt>
<totfact> 0.15528218E+04</totfact>
</mgrwt>
</event>
<event>
 5    1  0.1281005E-004  0.1237645E+03  0.7546771E-02  0.1237013E+00
         21   -1    0    0  503  502  0.00000000000E+00  0.00000000000E+00  0.60653016240E+03  0.60653016240E+03  0.00000000000E+00 0. -1.
         21   -1    0    0  501  503 -0.00000000000E+00 -0.00000000000E+00 -0.29255254977E+02  0.29255254977E+02  0.00000000000E+00 0. -1.
         24    1    1    2    0    0  0.34032979911E+01 -0.86962732084E+02  0.39539152534E+03  0.41276600329E+03  0.80419002446E+02 0. -1.
          1    1    1    2  501    0 -0.42591237342E+02  0.77942489855E+02  0.12313242937E+03  0.15182437349E+03  0.00000000000E+00 0. -1.
         -2    1    1    2    0  502  0.39187939351E+02  0.90202422291E+01  0.58750952719E+02  0.71195040599E+02  0.00000000000E+00 0.  1.
<mgrwt>
<rscale>  2 0.12376451E+03</rscale>
<asrwt>0</asrwt>
<pdfrwt beam="1">  1       21 0.93312324E-01 0.12376451E+03</pdfrwt>
<pdfrwt beam="2">  1       21 0.45008089E-02 0.12376451E+03</pdfrwt>
<totfact> 0.31567500E+05</totfact>
</mgrwt>
</event>
<event>
 5    1  0.1281005E-004  0.1145410E+03  0.7546771E-02  0.1252384E+00
         21   -1    0    0  501  502  0.00000000000E+00  0.00000000000E+00  0.17314731001E+03  0.17314731001E+03  0.00000000000E+00 0.  1.
         21   -1    0    0  502  503 -0.00000000000E+00 -0.00000000000E+00 -0.79502166423E+02  0.79502166423E+02  0.00000000000E+00 0. -1.
         24    1    1    2    0    0  0.12083052525E+02 -0.18762730613E+02  0.38501627773E+02  0.91910997786E+02  0.80419002446E+02 0.  1.
          1    1    1    2  501    0 -0.63132925610E+02 -0.34418957296E+02  0.60304308624E+01  0.72158138930E+02  0.00000000000E+00 0. -1.
         -2    1    1    2    0  503  0.51049873085E+02  0.53181687910E+02  0.49113084952E+02  0.88580339717E+02  0.00000000000E+00 0.  1.
<mgrwt>
<rscale>  2 0.11454104E+03</rscale>
<asrwt>0</asrwt>
<pdfrwt beam="1">  1       21 0.26638048E-01 0.11454104E+03</pdfrwt>
<pdfrwt beam="2">  1       21 0.12231103E-01 0.11454104E+03</pdfrwt>
<totfact> 0.76327384E+05</totfact>
</mgrwt>
</event>
<event>
 5    1  0.1281005E-004  0.2001926E+03  0.7546771E-02  0.1149577E+00
         21   -1    0    0  501  502  0.00000000000E+00  0.00000000000E+00  0.39505426881E+03  0.39505426881E+03  0.00000000000E+00 0.  1.
         21   -1    0    0  502  503 -0.00000000000E+00 -0.00000000000E+00 -0.14325648879E+03  0.14325648879E+03  0.00000000000E+00 0. -1.
         24    1    1    2    0    0  0.12290835039E+03 -0.32696344116E+02 -0.28733936046E+02  0.15319389201E+03  0.80419002446E+02 0.  0.
          1    1    1    2  501    0 -0.18320437811E+03  0.42817408938E+01  0.25437970679E+03  0.31351429424E+03  0.00000000000E+00 0. -1.
         -2    1    1    2    0  503  0.60296027718E+02  0.28414603223E+02  0.26152009268E+02  0.71602571348E+02  0.00000000000E+00 0.  1.
<mgrwt>
<rscale>  2 0.20019263E+03</rscale>
<asrwt>0</asrwt>
<pdfrwt beam="1">  1       21 0.60777580E-01 0.20019263E+03</pdfrwt>
<pdfrwt beam="2">  1       21 0.22039460E-01 0.20019263E+03</pdfrwt>
<totfact> 0.48307729E+04</totfact>
</mgrwt>
</event>
<event>
 5    1  0.1281005E-004  0.1079208E+03  0.7546771E-02  0.1264469E+00
         21   -1    0    0  501  502  0.00000000000E+00  0.00000000000E+00  0.80443574263E+03  0.80443574263E+03  0.00000000000E+00 0. -1.
         21   -1    0    0  502  503 -0.00000000000E+00 -0.00000000000E+00 -0.25109685217E+02  0.25109685217E+02  0.00000000000E+00 0.  1.
         24    1    1    2    0    0  0.44478245662E+02  0.28407977974E+02  0.96281516184E+02  0.13609803034E+03  0.80419002446E+02 0.  0.
          1    1    1    2  501    0  0.35339098974E+02 -0.16314688614E+02  0.22688780506E+03  0.23020229597E+03  0.00000000000E+00 0. -1.
         -2    1    1    2    0  503 -0.79817344636E+02 -0.12093289359E+02  0.45615673617E+03  0.46324510154E+03  0.00000000000E+00 0.  1.
<mgrwt>
<rscale>  2 0.10792085E+03</rscale>
<asrwt>0</asrwt>
<pdfrwt beam="1">  1       21 0.12375933E+00 0.10792085E+03</pdfrwt>
<pdfrwt beam="2">  1       21 0.38630291E-02 0.10792085E+03</pdfrwt>
<totfact> 0.20934759E+05</totfact>
</mgrwt>
</event>
<event>
 5    1  0.1281005E-004  0.1701717E+03  0.7546771E-02  0.1177669E+00
         21   -1    0    0  503  502  0.00000000000E+00  0.00000000000E+00  0.71317625531E+03  0.71317625531E+03  0.00000000000E+00 0. -1.
         21   -1    0    0  501  503 -0.00000000000E+00 -0.00000000000E+00 -0.49114080765E+02  0.49114080765E+02  0.00000000000E+00 0. -1.
         24    1    1    2    0    0  0.55840522146E+02  0.38877477497E+02  0.20686771834E+03  0.23214454767E+03  0.80419002446E+02 0. -1.
          1    1    1    2  501    0 -0.14117509896E+03  0.12843824552E+00  0.13789451532E+03  0.19734569267E+03  0.00000000000E+00 0. -1.
         -2    1    1    2    0  502  0.85334576813E+02 -0.39005915743E+02  0.31929994089E+03  0.33280009572E+03  0.00000000000E+00 0.  1.
<mgrwt>
<rscale>  2 0.17017170E+03</rscale>
<asrwt>0</asrwt>
<pdfrwt beam="1">  1       21 0.10971942E+00 0.17017170E+03</pdfrwt>
<pdfrwt beam="2">  1       21 0.75560129E-02 0.17017170E+03</pdfrwt>
<totfact> 0.87964489E+04</totfact>
</mgrwt>
</event>
<event>
 5    1  0.1281005E-004  0.2330304E+03  0.7546771E-02  0.1124525E+00
         21   -1    0    0  501  502  0.00000000000E+00  0.00000000000E+00  0.34008940830E+03  0.34008940830E+03  0.00000000000E+00 0.  1.
         21   -1    0    0  502  503 -0.00000000000E+00 -0.00000000000E+00 -0.16598764949E+03  0.16598764949E+03  0.00000000000E+00 0. -1.
         24    1    1    2    0    0 -0.40277896858E+02  0.71446206522E+02  0.34996908148E+02  0.12007859483E+03  0.80419002446E+02 0. -1.
          1    1    1    2  501    0 -0.14198102374E+01  0.13781385742E+03  0.96937024533E+02  0.16849766136E+03  0.00000000000E+00 0. -1.
         -2    1    1    2    0  503  0.41697707095E+02 -0.20926006394E+03  0.42167826132E+02  0.21750080161E+03  0.00000000000E+00 0.  1.
<mgrwt>
<rscale>  2 0.23303035E+03</rscale>
<asrwt>0</asrwt>
<pdfrwt beam="1">  1       21 0.52321447E-01 0.23303035E+03</pdfrwt>
<pdfrwt beam="2">  1       21 0.25536562E-01 0.23303035E+03</pdfrwt>
<totfact> 0.49465636E+04</totfact>
</mgrwt>
</event>
<event>
 5    1  0.1281005E-004  0.1562242E+03  0.7546771E-02  0.1193027E+00
         21   -1    0    0  501  502  0.00000000000E+00  0.00000000000E+00  0.37818320547E+02  0.37818320547E+02  0.00000000000E+00 0.  1.
         21   -1    0    0  502  503 -0.00000000000E+00 -0.00000000000E+00 -0.67452751329E+03  0.67452751329E+03  0.00000000000E+00 0. -1.
         24    1    1    2    0    0  0.38292931237E+02 -0.40177389391E+02 -0.17148108375E+03  0.19736653525E+03  0.80419002446E+02 0. -1.
          1    1    1    2  501    0 -0.11994036641E+03  0.54669267696E+02 -0.34127998267E+03  0.36585030668E+03  0.00000000000E+00 0. -1.
         -2    1    1    2    0  503  0.81647435172E+02 -0.14491878305E+02 -0.12394812633E+03  0.14912899191E+03  0.00000000000E+00 0.  1.
<mgrwt>
<rscale>  2 0.15622421E+03</rscale>
<asrwt>0</asrwt>
<pdfrwt beam="1">  1       21 0.58182029E-02 0.15622421E+03</pdfrwt>
<pdfrwt beam="2">  1       21 0.10377347E+00 0.15622421E+03</pdfrwt>
<totfact> 0.15829300E+05</totfact>
</mgrwt>
</event>
<event>
 5    1  0.1281005E-004  0.1926806E+03  0.7546771E-02  0.1156066E+00
         21   -1    0    0  501  502  0.00000000000E+00  0.00000000000E+00  0.14637029930E+04  0.14637029930E+04  0.00000000000E+00 0.  1.
         21   -1    0    0  502  503 -0.00000000000E+00 -0.00000000000E+00 -0.29938251101E+02  0.29938251101E+02  0.00000000000E+00 0. -1.
         24    1    1    2    0    0 -0.17604920849E+02 -0.19351847989E+02  0.21134494108E+03  0.22763639281E+03  0.80419002446E+02 0. -1.
          1    1    1    2  501    0  0.23450691719E+02  0.15915251793E+03  0.90393847557E+03  0.91814172464E+03  0.00000000000E+00 0. -1.
         -2    1    1    2    0  503 -0.58457708698E+01 -0.13980066994E+03  0.31848132526E+03  0.34786312666E+03  0.00000000000E+00 0.  1.
<mgrwt>
<rscale>  2 0.19268058E+03</rscale>
<asrwt>0</asrwt>
<pdfrwt beam="1">  1       21 0.22518502E+00 0.19268058E+03</pdfrwt>
<pdfrwt beam="2">  1       21 0.46058859E-02 0.19268058E+03</pdfrwt>
<totfact> 0.28906143E+04</totfact>
</mgrwt>
</event>
<event>
 5    1  0.1281005E-004  0.1511385E+03  0.7546771E-02  0.1199081E+00
         21   -1    0    0  503  502  0.00000000000E+00  0.00000000000E+00  0.17329185414E+03  0.17329185414E+03  0.00000000000E+00 0. -1.
         21   -1    0    0  501  503 -0.00000000000E+00 -0.00000000000E+00 -0.14094412730E+03  0.14094412730E+03  0.00000000000E+00 0.  1.
         24    1    1    2    0    0  0.13574749574E+02 -0.71107320620E+02 -0.15969311522E+02  0.10937440165E+03  0.80419002446E+02 0.  0.
          1    1    1    2  501    0  0.24200518038E+02  0.12552178916E+03  0.97354295393E+01  0.12820360063E+03  0.00000000000E+00 0. -1.
         -2    1    1    2    0  502 -0.37775267612E+02 -0.54414468540E+02  0.38581608822E+02  0.76657979160E+02  0.00000000000E+00 0.  1.
<mgrwt>
<rscale>  2 0.15113850E+03</rscale>
<asrwt>0</asrwt>
<pdfrwt beam="1">  1       21 0.26660285E-01 0.15113850E+03</pdfrwt>
<pdfrwt beam="2">  1       21 0.21683712E-01 0.15113850E+03</pdfrwt>
<totfact> 0.26829061E+05</totfact>
</mgrwt>
</event>
<event>
 5    1  0.1281005E-004  0.1073662E+03  0.7546771E-02  0.1265526E+00
         21   -1    0    0  501  502  0.00000000000E+00  0.00000000000E+00  0.53391824134E+03  0.53391824134E+03  0.00000000000E+00 0. -1.
         21   -1    0    0  502  503 -0.00000000000E+00 -0.00000000000E+00 -0.23150857803E+02  0.23150857803E+02  0.00000000000E+00 0. -1.
         24    1    1    2    0    0 -0.17703057777E+02 -0.43116342287E+01  0.13449396023E+03  0.15775877071E+03  0.80419002446E+02 0.  0.
          1    1    1    2  501    0  0.13201058963E+02  0.67574696664E+02  0.22441927829E+03  0.23474373273E+03  0.00000000000E+00 0. -1.
         -2    1    1    2    0  503  0.45019988140E+01 -0.63263062436E+02  0.15185414502E+03  0.16456659570E+03  0.00000000000E+00 0.  1.
<mgrwt>
<rscale>  2 0.10736620E+03</rscale>
<asrwt>0</asrwt>
<pdfrwt beam="1">  1       21 0.82141259E-01 0.10736620E+03</pdfrwt>
<pdfrwt beam="2">  1       21 0.35616708E-02 0.10736620E+03</pdfrwt>
<totfact> 0.62257282E+05</totfact>
</mgrwt>
</event>
<event>
 5    1  0.1281005E-004  0.7587967E+02  0.7546771E-02  0.1341168E+00
         21   -1    0    0  501  502  0.00000000000E+00  0.00000000000E+00  0.10723236125E+03  0.10723236125E+03  0.00000000000E+00 0.  1.
         21   -1    0    0  502  503 -0.00000000000E+00 -0.00000000000E+00 -0.58388224543E+02  0.58388224543E+02  0.00000000000E+00 0. -1.
         24    1    1    2    0    0 -0.10815784849E+02 -0.35950078425E+02  0.51771852257E+01  0.88901116652E+02  0.80419002446E+02 0.  0.
          1    1    1    2  501    0 -0.91624430468E+01  0.41318467693E+02  0.27606818026E+02  0.50530214096E+02  0.00000000000E+00 0. -1.
         -2    1    1    2    0  503  0.19978227896E+02 -0.53683892676E+01  0.16060133452E+02  0.26189255042E+02  0.00000000000E+00 0.  1.
<mgrwt>
<rscale>  2 0.75879672E+02</rscale>
<asrwt>0</asrwt>
<pdfrwt beam="1">  1       21 0.16497286E-01 0.75879672E+02</pdfrwt>
<pdfrwt beam="2">  1       21 0.89828038E-02 0.75879672E+02</pdfrwt>
<totfact> 0.31158837E+06</totfact>
</mgrwt>
</event>
<event>
 5    1  0.1281005E-004  0.1635789E+03  0.7546771E-02  0.1184714E+00
         21   -1    0    0  501  502  0.00000000000E+00  0.00000000000E+00  0.43769397316E+03  0.43769397316E+03  0.00000000000E+00 0.  1.
         21   -1    0    0  502  503 -0.00000000000E+00 -0.00000000000E+00 -0.62594242063E+02  0.62594242063E+02  0.00000000000E+00 0. -1.
         24    1    1    2    0    0  0.61317036807E+02  0.76275399102E+02  0.12012589236E+03  0.17457136501E+03  0.80419002446E+02 0. -1.
          1    1    1    2  501    0  0.40663951482E+01  0.54303436423E+02  0.91818913367E+02  0.10675257200E+03  0.00000000000E+00 0. -1.
         -2    1    1    2    0  503 -0.65383431955E+02 -0.13057883552E+03  0.16315492537E+03  0.21896427821E+03  0.00000000000E+00 0.  1.
<mgrwt>
<rscale>  2 0.16357885E+03</rscale>
<asrwt>0</asrwt>
<pdfrwt beam="1">  1       21 0.67337532E-01 0.16357885E+03</pdfrwt>
<pdfrwt beam="2">  1       21 0.96298837E-02 0.16357885E+03</pdfrwt>
<totfact> 0.17665201E+05</totfact>
</mgrwt>
</event>
<event>
 5    1  0.1281005E-004  0.2620459E+03  0.7546771E-02  0.1105920E+00
         21   -1    0    0  501  502  0.00000000000E+00  0.00000000000E+00  0.11934961339E+03  0.11934961339E+03  0.00000000000E+00 0.  1.
         21   -1    0    0  502  503 -0.00000000000E+00 -0.00000000000E+00 -0.58619883147E+03  0.58619883147E+03  0.00000000000E+00 0. -1.
         24    1    1    2    0    0  0.20427403996E+02 -0.12468480322E+03 -0.92590911148E+02  0.17607916336E+03  0.80419002446E+02 0.  0.
          1    1    1    2  501    0 -0.52344638635E-01 -0.12440297651E+03 -0.11626672580E+03  0.17027640715E+03  0.00000000000E+00 0. -1.
         -2    1    1    2    0  503 -0.20375059357E+02  0.24908777973E+03 -0.25799158113E+03  0.35919287436E+03  0.00000000000E+00 0.  1.
<mgrwt>
<rscale>  2 0.26204592E+03</rscale>
<asrwt>0</asrwt>
<pdfrwt beam="1">  1       21 0.18361479E-01 0.26204592E+03</pdfrwt>
<pdfrwt beam="2">  1       21 0.90184436E-01 0.26204592E+03</pdfrwt>
<totfact> 0.27309144E+04</totfact>
</mgrwt>
</event>
<event>
 5    1  0.1281005E-004  0.1498890E+03  0.7546771E-02  0.1200609E+00
         21   -1    0    0  503  502  0.00000000000E+00  0.00000000000E+00  0.88389588270E+03  0.88389588270E+03  0.00000000000E+00 0.  1.
         21   -1    0    0  501  503 -0.00000000000E+00 -0.00000000000E+00 -0.27434265504E+02  0.27434265504E+02  0.00000000000E+00 0. -1.
         24    1    1    2    0    0 -0.52094013918E+01 -0.82587691062E+01  0.34682465802E+03  0.35615994230E+03  0.80419002446E+02 0.  1.
          1    1    1    2  501    0  0.72669339300E+02 -0.79741040818E+02  0.28287626864E+03  0.30275146544E+03  0.00000000000E+00 0. -1.
         -2    1    1    2    0  502 -0.67459937908E+02  0.87999809924E+02  0.22676069054E+03  0.25241874047E+03  0.00000000000E+00 0.  1.
<mgrwt>
<rscale>  2 0.14988898E+03</rscale>
<asrwt>0</asrwt>
<pdfrwt beam="1">  1       21 0.13598396E+00 0.14988898E+03</pdfrwt>
<pdfrwt beam="2">  1       21 0.42206569E-02 0.14988898E+03</pdfrwt>
<totfact> 0.14060593E+05</totfact>
</mgrwt>
</event>
<event>
 5    1  0.1281005E-004  0.2002762E+03  0.7546771E-02  0.1149506E+00
         21   -1    0    0  501  502  0.00000000000E+00  0.00000000000E+00  0.12492249694E+03  0.12492249694E+03  0.00000000000E+00 0.  1.
         21   -1    0    0  502  503 -0.00000000000E+00 -0.00000000000E+00 -0.32750152162E+03  0.32750152162E+03  0.00000000000E+00 0. -1.
         24    1    1    2    0    0  0.65593595510E+02  0.13692994104E+02 -0.49571155482E+02  0.11582112618E+03  0.80419002446E+02 0.  0.
          1    1    1    2  501    0 -0.21316149545E+02 -0.15054104989E+03 -0.10576049353E+03  0.18520871449E+03  0.00000000000E+00 0. -1.
         -2    1    1    2    0  503 -0.44277445965E+02  0.13684805578E+03 -0.47247375669E+02  0.15139417789E+03  0.00000000000E+00 0.  1.
<mgrwt>
<rscale>  2 0.20027617E+03</rscale>
<asrwt>0</asrwt>
<pdfrwt beam="1">  1       21 0.19218846E-01 0.20027617E+03</pdfrwt>
<pdfrwt beam="2">  1       21 0.50384848E-01 0.20027617E+03</pdfrwt>
<totfact> 0.92941227E+04</totfact>
</mgrwt>
</event>
<event>
 5    1  0.1281005E-004  0.1481444E+03  0.7546771E-02  0.1202772E+00
         21   -1    0    0  503  502  0.00000000000E+00  0.00000000000E+00  0.91544028406E+02  0.91544028406E+02  0.00000000000E+00 0. -1.
         21   -1    0    0  501  503 -0.00000000000E+00 -0.00000000000E+00 -0.24548286533E+03  0.24548286533E+03  0.00000000000E+00 0. -1.
         24    1    1    2    0    0  0.42522671350E+02  0.72771158453E+02 -0.36163918227E+02  0.12197894907E+03  0.80419002446E+02 0. -1.
          1    1    1    2  501    0 -0.10345144219E+03 -0.44175252376E+02 -0.69623374385E+02  0.13229160243E+03  0.00000000000E+00 0. -1.
         -2    1    1    2    0  502  0.60928770836E+02 -0.28595906077E+02 -0.48151544310E+02  0.82756342231E+02  0.00000000000E+00 0.  1.
<mgrwt>
<rscale>  2 0.14814441E+03</rscale>
<asrwt>0</asrwt>
<pdfrwt beam="1">  1       21 0.14083697E-01 0.14814441E+03</pdfrwt>
<pdfrwt beam="2">  1       21 0.37766595E-01 0.14814441E+03</pdfrwt>
<totfact> 0.30036957E+05</totfact>
</mgrwt>
</event>
<event>
 5    1  0.1281005E-004  0.2434284E+03  0.7546771E-02  0.1117530E+00
         21   -1    0    0  503  502  0.00000000000E+00  0.00000000000E+00  0.13031064781E+04  0.13031064781E+04  0.00000000000E+00 0.  1.
         21   -1    0    0  501  503 -0.00000000000E+00 -0.00000000000E+00 -0.56171325407E+02  0.56171325407E+02  0.00000000000E+00 0. -1.
         24    1    1    2    0    0  0.38785875343E+01  0.13497437357E+03  0.30927998161E+03  0.34692138582E+03  0.80419002446E+02 0. -1.
          1    1    1    2  501    0  0.14799869616E+03 -0.79517631834E+02  0.22056614638E+03  0.27726538329E+03  0.00000000000E+00 0. -1.
         -2    1    1    2    0  502 -0.15187728370E+03 -0.55456741737E+02  0.71708902468E+03  0.73509103438E+03  0.00000000000E+00 0.  1.
<mgrwt>
<rscale>  2 0.24342837E+03</rscale>
<asrwt>0</asrwt>
<pdfrwt beam="1">  1       21 0.20047790E+00 0.24342837E+03</pdfrwt>
<pdfrwt beam="2">  1       21 0.86417433E-02 0.24342837E+03</pdfrwt>
<totfact> 0.13469430E+04</totfact>
</mgrwt>
</event>
<event>
 5    1  0.1281005E-004  0.1634811E+03  0.7546771E-02  0.1184822E+00
         21   -1    0    0  501  502  0.00000000000E+00  0.00000000000E+00  0.18939034948E+03  0.18939034948E+03  0.00000000000E+00 0.  1.
         21   -1    0    0  502  503 -0.00000000000E+00 -0.00000000000E+00 -0.14178196354E+03  0.14178196354E+03  0.00000000000E+00 0. -1.
         24    1    1    2    0    0  0.56265777461E+02 -0.37950919164E+02  0.15550493155E+02  0.10637266458E+03  0.80419002446E+02 0.  1.
          1    1    1    2  501    0 -0.53475762124E+02 -0.84093368128E+02  0.51256365028E+01  0.99787894293E+02  0.00000000000E+00 0. -1.
         -2    1    1    2    0  503 -0.27900153365E+01  0.12204428729E+03  0.26932256284E+02  0.12501175415E+03  0.00000000000E+00 0.  1.
<mgrwt>
<rscale>  2 0.16348111E+03</rscale>
<asrwt>0</asrwt>
<pdfrwt beam="1">  1       21 0.29136977E-01 0.16348111E+03</pdfrwt>
<pdfrwt beam="2">  1       21 0.21812610E-01 0.16348111E+03</pdfrwt>
<totfact> 0.22305459E+05</totfact>
</mgrwt>
</event>
<event>
 5    1  0.1281005E-004  0.2049494E+03  0.7546771E-02  0.1145629E+00
         21   -1    0    0  501  502  0.00000000000E+00  0.00000000000E+00  0.21655074713E+04  0.21655074713E+04  0.00000000000E+00 0.  1.
         21   -1    0    0  502  503 -0.00000000000E+00 -0.00000000000E+00 -0.19603203413E+02  0.19603203413E+02  0.00000000000E+00 0. -1.
         24    1    1    2    0    0 -0.60505823907E+02  0.12690144490E+02  0.55881654653E+03  0.56794818701E+03  0.80419002446E+02 0.  0.
          1    1    1    2  501    0 -0.48893119371E+02  0.12405489161E+03  0.59736244766E+03  0.61206376068E+03  0.00000000000E+00 0. -1.
         -2    1    1    2    0  503  0.10939894328E+03 -0.13674503610E+03  0.98972527367E+03  0.10050987270E+04  0.00000000000E+00 0.  1.
<mgrwt>
<rscale>  2 0.20494945E+03</rscale>
<asrwt>0</asrwt>
<pdfrwt beam="1">  1       21 0.33315481E+00 0.20494945E+03</pdfrwt>
<pdfrwt beam="2">  1       21 0.30158792E-02 0.20494945E+03</pdfrwt>
<totfact> 0.13585827E+04</totfact>
</mgrwt>
</event>
<event>
 5    1  0.1281005E-004  0.1055273E+03  0.7546771E-02  0.1269084E+00
         21   -1    0    0  503  502  0.00000000000E+00  0.00000000000E+00  0.40756220755E+03  0.40756220755E+03  0.00000000000E+00 0.  1.
         21   -1    0    0  501  503 -0.00000000000E+00 -0.00000000000E+00 -0.28302448948E+02  0.28302448948E+02  0.00000000000E+00 0.  1.
         24    1    1    2    0    0  0.14305006542E+02 -0.65736827172E+02  0.21213851127E+03  0.23663458660E+03  0.80419002446E+02 0.  1.
          1    1    1    2  501    0  0.34523549195E+02  0.29301922446E+02  0.51777952584E+02  0.68785423469E+02  0.00000000000E+00 0. -1.
         -2    1    1    2    0  502 -0.48828555737E+02  0.36434904727E+02  0.11534329476E+03  0.13044464643E+03  0.00000000000E+00 0.  1.
<mgrwt>
<rscale>  2 0.10552727E+03</rscale>
<asrwt>0</asrwt>
<pdfrwt beam="1">  1       21 0.62701874E-01 0.10552727E+03</pdfrwt>
<pdfrwt beam="2">  1       21 0.43542232E-02 0.10552727E+03</pdfrwt>
<totfact> 0.80445416E+05</totfact>
</mgrwt>
</event>
<event>
 5    1  0.1281005E-004  0.1933083E+03  0.7546771E-02  0.1155511E+00
         21   -1    0    0  501  502  0.00000000000E+00  0.00000000000E+00  0.10302035254E+03  0.10302035254E+03  0.00000000000E+00 0.  1.
         21   -1    0    0  502  503 -0.00000000000E+00 -0.00000000000E+00 -0.37108425063E+03  0.37108425063E+03  0.00000000000E+00 0. -1.
         24    1    1    2    0    0  0.85511611761E+02  0.12819558104E+02 -0.55666966861E+02  0.13054732464E+03  0.80419002446E+02 0.  1.
          1    1    1    2  501    0  0.79979678120E+02  0.46757001038E+02 -0.90858578938E+02  0.12976227273E+03  0.00000000000E+00 0. -1.
         -2    1    1    2    0  503 -0.16549128988E+03 -0.59576559142E+02 -0.12153835229E+03  0.21379500580E+03  0.00000000000E+00 0.  1.
<mgrwt>
<rscale>  2 0.19330827E+03</rscale>
<asrwt>0</asrwt>
<pdfrwt beam="1">  1       21 0.15849285E-01 0.19330827E+03</pdfrwt>
<pdfrwt beam="2">  1       21 0.57089884E-01 0.19330827E+03</pdfrwt>
<totfact> 0.10222137E+05</totfact>
</mgrwt>
</event>
<event>
 5    1  0.1281005E-004  0.2179184E+03  0.7546771E-02  0.1135445E+00
         21   -1    0    0  503  502  0.00000000000E+00  0.00000000000E+00  0.20851038933E+03  0.20851038933E+03  0.00000000000E+00 0. -1.
         21   -1    0    0  501  503 -0.00000000000E+00 -0.00000000000E+00 -0.24149806249E+03  0.24149806249E+03  0.00000000000E+00 0.  1.
         24    1    1    2    0    0  0.70953854067E+02  0.92526096240E+02  0.34621135987E+02  0.14581278032E+03  0.80419002446E+02 0. -1.
          1    1    1    2  501    0  0.80306083441E+02  0.43005941582E+02 -0.38998256413E+02  0.99093097904E+02  0.00000000000E+00 0. -1.
         -2    1    1    2    0  502 -0.15125993751E+03 -0.13553203782E+03 -0.28610552734E+02  0.20510257360E+03  0.00000000000E+00 0.  1.
<mgrwt>
<rscale>  2 0.21791841E+03</rscale>
<asrwt>0</asrwt>
<pdfrwt beam="1">  1       21 0.32078522E-01 0.21791841E+03</pdfrwt>
<pdfrwt beam="2">  1       21 0.37153548E-01 0.21791841E+03</pdfrwt>
<totfact> 0.64576999E+04</totfact>
</mgrwt>
</event>
<event>
 5    1  0.1281005E-004  0.1648275E+03  0.7546771E-02  0.1183352E+00
         21   -1    0    0  501  502  0.00000000000E+00  0.00000000000E+00  0.45945101482E+03  0.45945101482E+03  0.00000000000E+00 0. -1.
         21   -1    0    0  502  503 -0.00000000000E+00 -0.00000000000E+00 -0.60661792469E+02  0.60661792469E+02  0.00000000000E+00 0.  1.
         24    1    1    2    0    0 -0.43361398165E+02 -0.76538915448E+02  0.14938071010E+03  0.19110266595E+03  0.80419002446E+02 0. -1.
          1    1    1    2  501    0  0.82707703663E+02  0.12385365566E+03  0.20378268563E+03  0.25240379400E+03  0.00000000000E+00 0. -1.
         -2    1    1    2    0  503 -0.39346305499E+02 -0.47314740208E+02  0.45625826621E+02  0.76606347336E+02  0.00000000000E+00 0.  1.
<mgrwt>
<rscale>  2 0.16482750E+03</rscale>
<asrwt>0</asrwt>
<pdfrwt beam="1">  1       21 0.70684769E-01 0.16482750E+03</pdfrwt>
<pdfrwt beam="2">  1       21 0.93325837E-02 0.16482750E+03</pdfrwt>
<totfact> 0.16775650E+05</totfact>
</mgrwt>
</event>
<event>
 5    1  0.1281005E-004  0.1863462E+03  0.7546771E-02  0.1161799E+00
         21   -1    0    0  503  502  0.00000000000E+00  0.00000000000E+00  0.13901647007E+03  0.13901647007E+03  0.00000000000E+00 0.  1.
         21   -1    0    0  501  503 -0.00000000000E+00 -0.00000000000E+00 -0.25226870979E+03  0.25226870979E+03  0.00000000000E+00 0. -1.
         24    1    1    2    0    0  0.11731873911E+03  0.48536946472E+02 -0.36741106177E+02  0.15471472637E+03  0.80419002446E+02 0.  1.
          1    1    1    2  501    0 -0.13852933608E+03 -0.97260700772E+02 -0.69473741554E+02  0.18296617621E+03  0.00000000000E+00 0. -1.
         -2    1    1    2    0  502  0.21210596976E+02  0.48723754300E+02 -0.70373919938E+01  0.53604277285E+02  0.00000000000E+00 0.  1.
<mgrwt>
<rscale>  2 0.18634617E+03</rscale>
<asrwt>0</asrwt>
<pdfrwt beam="1">  1       21 0.21387149E-01 0.18634617E+03</pdfrwt>
<pdfrwt beam="2">  1       21 0.38810571E-01 0.18634617E+03</pdfrwt>
<totfact> 0.13059617E+05</totfact>
</mgrwt>
</event>
<event>
 5    1  0.1281005E-004  0.1507918E+03  0.7546771E-02  0.1199503E+00
         21   -1    0    0  501  502  0.00000000000E+00  0.00000000000E+00  0.11103612290E+03  0.11103612290E+03  0.00000000000E+00 0. -1.
         21   -1    0    0  502  503 -0.00000000000E+00 -0.00000000000E+00 -0.20728866726E+03  0.20728866726E+03  0.00000000000E+00 0. -1.
         24    1    1    2    0    0  0.72116981901E+02  0.68666022108E+02 -0.58122595137E+02  0.14057501090E+03  0.80419002446E+02 0. -1.
          1    1    1    2  501    0 -0.10968981016E+03 -0.78335585906E+02 -0.30857832015E+02  0.13827698387E+03  0.00000000000E+00 0. -1.
         -2    1    1    2    0  503  0.37572828255E+02  0.96695637981E+01 -0.72721172098E+01  0.39472795389E+02  0.00000000000E+00 0.  1.
<mgrwt>
<rscale>  2 0.15079176E+03</rscale>
<asrwt>0</asrwt>
<pdfrwt beam="1">  1       21 0.17082481E-01 0.15079176E+03</pdfrwt>
<pdfrwt beam="2">  1       21 0.31890564E-01 0.15079176E+03</pdfrwt>
<totfact> 0.29514462E+05</totfact>
</mgrwt>
</event>
<event>
 5    1  0.1281005E-004  0.2031107E+03  0.7546771E-02  0.1147141E+00
         21   -1    0    0  501  502  0.00000000000E+00  0.00000000000E+00  0.37147305001E+03  0.37147305001E+03  0.00000000000E+00 0. -1.
         21   -1    0    0  502  503 -0.00000000000E+00 -0.00000000000E+00 -0.12379238085E+03  0.12379238085E+03  0.00000000000E+00 0.  1.
         24    1    1    2    0    0  0.10709899820E+03 -0.55096944220E+02  0.36732780612E+02  0.14940676626E+03  0.80419002446E+02 0.  1.
          1    1    1    2  501    0  0.23275359066E+02 -0.74211301585E+02  0.11457773308E+03  0.13848146642E+03  0.00000000000E+00 0. -1.
         -2    1    1    2    0  503 -0.13037435726E+03  0.12930824580E+03  0.96370155458E+02  0.20737719819E+03  0.00000000000E+00 0.  1.
<mgrwt>
<rscale>  2 0.20311072E+03</rscale>
<asrwt>0</asrwt>
<pdfrwt beam="1">  1       21 0.57149700E-01 0.20311072E+03</pdfrwt>
<pdfrwt beam="2">  1       21 0.19044982E-01 0.20311072E+03</pdfrwt>
<totfact> 0.72372845E+04</totfact>
</mgrwt>
</event>
<event>
 5    1  0.1281005E-004  0.2122046E+03  0.7546771E-02  0.1139832E+00
         21   -1    0    0  501  502  0.00000000000E+00  0.00000000000E+00  0.27669423655E+03  0.27669423655E+03  0.00000000000E+00 0.  1.
         21   -1    0    0  502  503 -0.00000000000E+00 -0.00000000000E+00 -0.20214564067E+03  0.20214564067E+03  0.00000000000E+00 0. -1.
         24    1    1    2    0    0 -0.37742046906E+02 -0.14573076105E+03  0.11342694428E+03  0.20492633912E+03  0.80419002446E+02 0.  1.
          1    1    1    2  501    0  0.55324315665E+02  0.19433150872E+03  0.10644774121E+02  0.20233345349E+03  0.00000000000E+00 0. -1.
         -2    1    1    2    0  503 -0.17582268760E+02 -0.48600747670E+02 -0.49523122511E+02  0.71580084605E+02  0.00000000000E+00 0.  1.
<mgrwt>
<rscale>  2 0.21220459E+03</rscale>
<asrwt>0</asrwt>
<pdfrwt beam="1">  1       21 0.42568344E-01 0.21220459E+03</pdfrwt>
<pdfrwt beam="2">  1       21 0.31099329E-01 0.21220459E+03</pdfrwt>
<totfact> 0.52245300E+04</totfact>
</mgrwt>
</event>
<event>
 5    1  0.1281005E-004  0.1819205E+03  0.7546771E-02  0.1165957E+00
         21   -1    0    0  503  502  0.00000000000E+00  0.00000000000E+00  0.24473204902E+03  0.24473204902E+03  0.00000000000E+00 0. -1.
         21   -1    0    0  501  503 -0.00000000000E+00 -0.00000000000E+00 -0.14057458485E+03  0.14057458485E+03  0.00000000000E+00 0.  1.
         24    1    1    2    0    0 -0.79934089176E+01  0.94396255112E+00  0.14963198175E+02  0.82194275381E+02  0.80419002446E+02 0.  1.
          1    1    1    2  501    0 -0.11576545230E+03  0.74888184963E+02  0.75832828059E+02  0.15735468854E+03  0.00000000000E+00 0. -1.
         -2    1    1    2    0  502  0.12375886122E+03 -0.75832147514E+02  0.13361437930E+02  0.14575766995E+03  0.00000000000E+00 0.  1.
<mgrwt>
<rscale>  2 0.18192054E+03</rscale>
<asrwt>0</asrwt>
<pdfrwt beam="1">  1       21 0.37651084E-01 0.18192054E+03</pdfrwt>
<pdfrwt beam="2">  1       21 0.21626859E-01 0.18192054E+03</pdfrwt>
<totfact> 0.13610987E+05</totfact>
</mgrwt>
</event>
<event>
 5    1  0.1281005E-004  0.1215311E+03  0.7546771E-02  0.1240592E+00
         21   -1    0    0  503  502  0.00000000000E+00  0.00000000000E+00  0.11108909934E+03  0.11108909934E+03  0.00000000000E+00 0. -1.
         21   -1    0    0  501  503 -0.00000000000E+00 -0.00000000000E+00 -0.16506471054E+03  0.16506471054E+03  0.00000000000E+00 0. -1.
         24    1    1    2    0    0  0.61354717911E+02 -0.78378712159E+02  0.29721796953E+02  0.13137056405E+03  0.80419002446E+02 0. -1.
          1    1    1    2  501    0 -0.13956484687E+02  0.64091069627E+02 -0.63569673793E+02  0.91343046243E+02  0.00000000000E+00 0. -1.
         -2    1    1    2    0  502 -0.47398233225E+02  0.14287642532E+02 -0.20127734356E+02  0.53440199590E+02  0.00000000000E+00 0.  1.
<mgrwt>
<rscale>  2 0.12153105E+03</rscale>
<asrwt>0</asrwt>
<pdfrwt beam="1">  1       21 0.17090631E-01 0.12153105E+03</pdfrwt>
<pdfrwt beam="2">  1       21 0.25394571E-01 0.12153105E+03</pdfrwt>
<totfact> 0.45847106E+05</totfact>
</mgrwt>
</event>
<event>
 5    1  0.1281005E-004  0.2930536E+03  0.7546771E-02  0.1088766E+00
         21   -1    0    0  501  502  0.00000000000E+00  0.00000000000E+00  0.29246606669E+03  0.29246606669E+03  0.00000000000E+00 0. -1.
         21   -1    0    0  502  503 -0.00000000000E+00 -0.00000000000E+00 -0.30038485315E+03  0.30038485315E+03  0.00000000000E+00 0.  1.
         24    1    1    2    0    0 -0.17910997361E+03  0.43811026327E+02  0.12907027275E+01  0.20116826425E+03  0.80419002446E+02 0. -1.
          1    1    1    2  501    0 -0.94884453648E+02  0.32876869237E+02  0.29198872286E+02  0.10457782852E+03  0.00000000000E+00 0. -1.
         -2    1    1    2    0  503  0.27399442726E+03 -0.76687895565E+02 -0.38408361478E+02  0.28710482707E+03  0.00000000000E+00 0.  1.
<mgrwt>
<rscale>  2 0.29305356E+03</rscale>
<asrwt>0</asrwt>
<pdfrwt beam="1">  1       21 0.44994779E-01 0.29305356E+03</pdfrwt>
<pdfrwt beam="2">  1       21 0.46213054E-01 0.29305356E+03</pdfrwt>
<totfact> 0.20226976E+04</totfact>
</mgrwt>
</event>
<event>
 5    1  0.1281005E-004  0.1526200E+03  0.7546771E-02  0.1197290E+00
         21   -1    0    0  501  502  0.00000000000E+00  0.00000000000E+00  0.17128538088E+03  0.17128538088E+03  0.00000000000E+00 0. -1.
         21   -1    0    0  502  503 -0.00000000000E+00 -0.00000000000E+00 -0.14110547335E+03  0.14110547335E+03  0.00000000000E+00 0.  1.
         24    1    1    2    0    0  0.58503191431E+02 -0.73114817998E+02  0.24464762502E+02  0.12583378154E+03  0.80419002446E+02 0. -1.
          1    1    1    2  501    0 -0.62774555162E+02  0.11962817076E+03 -0.14073034311E+02  0.13582928370E+03  0.00000000000E+00 0. -1.
         -2    1    1    2    0  503  0.42713637314E+01 -0.46513352765E+02  0.19788179337E+02  0.50727788982E+02  0.00000000000E+00 0.  1.
<mgrwt>
<rscale>  2 0.15261999E+03</rscale>
<asrwt>0</asrwt>
<pdfrwt beam="1">  1       21 0.26351597E-01 0.15261999E+03</pdfrwt>
<pdfrwt beam="2">  1       21 0.21708535E-01 0.15261999E+03</pdfrwt>
<totfact> 0.27366222E+05</totfact>
</mgrwt>
</event>
<event>
 5    1  0.1281005E-004  0.1816360E+03  0.7546771E-02  0.1166229E+00
         21   -1    0    0  501  502  0.00000000000E+00  0.00000000000E+00  0.81765755241E+02  0.81765755241E+02  0.00000000000E+00 0.  1.
         21   -1    0    0  502  503 -0.00000000000E+00 -0.00000000000E+00 -0.46049084329E+03  0.46049084329E+03  0.00000000000E+00 0. -1.
         24    1    1    2    0    0  0.94304320850E+02  0.33510434480E+01 -0.48768688914E+02  0.13322963408E+03  0.80419002446E+02 0.  1.
          1    1    1    2  501    0 -0.13040176979E+03  0.76833556633E+02 -0.23578102899E+03  0.28017978267E+03  0.00000000000E+00 0. -1.
         -2    1    1    2    0  503  0.36097448941E+02 -0.80184600081E+02 -0.94175370151E+02  0.12884718178E+03  0.00000000000E+00 0.  1.
<mgrwt>
<rscale>  2 0.18163599E+03</rscale>
<asrwt>0</asrwt>
<pdfrwt beam="1">  1       21 0.12579347E-01 0.18163599E+03</pdfrwt>
<pdfrwt beam="2">  1       21 0.70844743E-01 0.18163599E+03</pdfrwt>
<totfact> 0.97730810E+04</totfact>
</mgrwt>
</event>
<event>
 5    1  0.1281005E-004  0.1609458E+03  0.7546771E-02  0.1187633E+00
         21   -1    0    0  503  502  0.00000000000E+00  0.00000000000E+00  0.10312497855E+04  0.10312497855E+04  0.00000000000E+00 0.  1.
         21   -1    0    0  501  503 -0.00000000000E+00 -0.00000000000E+00 -0.26799661806E+02  0.26799661806E+02  0.00000000000E+00 0. -1.
         24    1    1    2    0    0 -0.83547765190E+02  0.22468383060E+02  0.25741069854E+03  0.28321818618E+03  0.80419002446E+02 0.  0.
          1    1    1    2  501    0 -0.59397240919E+02 -0.10593580042E+02  0.17607716912E+03  0.18612744465E+03  0.00000000000E+00 0. -1.
         -2    1    1    2    0  502  0.14294500611E+03 -0.11874803019E+02  0.57096225606E+03  0.58870381650E+03  0.00000000000E+00 0.  1.
<mgrwt>
<rscale>  2 0.16094583E+03</rscale>
<asrwt>0</asrwt>
<pdfrwt beam="1">  1       21 0.15865378E+00 0.16094583E+03</pdfrwt>
<pdfrwt beam="2">  1       21 0.41230257E-02 0.16094583E+03</pdfrwt>
<totfact> 0.97477349E+04</totfact>
</mgrwt>
</event>
<event>
 5    1  0.1281005E-004  0.1712419E+03  0.7546771E-02  0.1176559E+00
         21   -1    0    0  503  502  0.00000000000E+00  0.00000000000E+00  0.18292876650E+02  0.18292876650E+02  0.00000000000E+00 0.  1.
         21   -1    0    0  501  503 -0.00000000000E+00 -0.00000000000E+00 -0.17530512088E+04  0.17530512088E+04  0.00000000000E+00 0. -1.
         24    1    1    2    0    0  0.24539496186E+02  0.82906247653E+02 -0.58636100196E+03  0.59813215375E+03  0.80419002446E+02 0. -1.
          1    1    1    2  501    0 -0.88036660379E+02 -0.12154188601E+03 -0.94112044242E+03  0.95301131723E+03  0.00000000000E+00 0. -1.
         -2    1    1    2    0  502  0.63497164192E+02  0.38635638356E+02 -0.20727688779E+03  0.22020061449E+03  0.00000000000E+00 0.  1.
<mgrwt>
<rscale>  2 0.17124188E+03</rscale>
<asrwt>0</asrwt>
<pdfrwt beam="1">  1       21 0.28142881E-02 0.17124188E+03</pdfrwt>
<pdfrwt beam="2">  1       21 0.26970024E+00 0.17124188E+03</pdfrwt>
<totfact> 0.36582550E+04</totfact>
</mgrwt>
</event>
<event>
 5    1  0.1281005E-004  0.1640574E+03  0.7546771E-02  0.1184191E+00
         21   -1    0    0  501  502  0.00000000000E+00  0.00000000000E+00  0.22366609074E+04  0.22366609074E+04  0.00000000000E+00 0.  1.
         21   -1    0    0  502  503 -0.00000000000E+00 -0.00000000000E+00 -0.12281857567E+02  0.12281857567E+02  0.00000000000E+00 0.  1.
         24    1    1    2    0    0 -0.51311106834E+02  0.76825424448E+02  0.88639376081E+03  0.89481623292E+03  0.80419002446E+02 0.  1.
          1    1    1    2  501    0 -0.58868345543E+02 -0.75120266138E+02  0.73309491032E+03  0.73928119415E+03  0.00000000000E+00 0. -1.
         -2    1    1    2    0  503  0.11017945238E+03 -0.17051583100E+01  0.60489037866E+03  0.61484533785E+03  0.00000000000E+00 0.  1.
<mgrwt>
<rscale>  2 0.16405737E+03</rscale>
<asrwt>0</asrwt>
<pdfrwt beam="1">  1       21 0.34410135E+00 0.16405737E+03</pdfrwt>
<pdfrwt beam="2">  1       21 0.18895183E-02 0.16405737E+03</pdfrwt>
<totfact> 0.26425444E+04</totfact>
</mgrwt>
</event>
<event>
 5    1  0.1281005E-004  0.1432952E+03  0.7546771E-02  0.1208963E+00
         21   -1    0    0  501  502  0.00000000000E+00  0.00000000000E+00  0.38116937298E+03  0.38116937298E+03  0.00000000000E+00 0. -1.
         21   -1    0    0  502  503 -0.00000000000E+00 -0.00000000000E+00 -0.55659498394E+02  0.55659498394E+02  0.00000000000E+00 0.  1.
         24    1    1    2    0    0 -0.22394233039E+02  0.65101261205E+02  0.12950502528E+03  0.16726758028E+03  0.80419002446E+02 0.  0.
          1    1    1    2  501    0  0.78690742903E+02 -0.89671505069E+02  0.10041410739E+03  0.15593654095E+03  0.00000000000E+00 0. -1.
         -2    1    1    2    0  503 -0.56296509865E+02  0.24570243864E+02  0.95590741908E+02  0.11362475014E+03  0.00000000000E+00 0.  1.
<mgrwt>
<rscale>  2 0.14329517E+03</rscale>
<asrwt>0</asrwt>
<pdfrwt beam="1">  1       21 0.58641440E-01 0.14329517E+03</pdfrwt>
<pdfrwt beam="2">  1       21 0.85630000E-02 0.14329517E+03</pdfrwt>
<totfact> 0.29339633E+05</totfact>
</mgrwt>
</event>
<event>
 5    1  0.1281005E-004  0.1621499E+03  0.7546771E-02  0.1186291E+00
         21   -1    0    0  503  502  0.00000000000E+00  0.00000000000E+00  0.72319950642E+03  0.72319950642E+03  0.00000000000E+00 0.  1.
         21   -1    0    0  501  503 -0.00000000000E+00 -0.00000000000E+00 -0.38372347936E+02  0.38372347936E+02  0.00000000000E+00 0. -1.
         24    1    1    2    0    0 -0.32759490626E+02 -0.11309136974E+02  0.26878357438E+03  0.28268870975E+03  0.80419002446E+02 0.  0.
          1    1    1    2  501    0  0.62068788022E+02 -0.10216013659E+03  0.19596762223E+03  0.22954855024E+03  0.00000000000E+00 0. -1.
         -2    1    1    2    0  502 -0.29309297396E+02  0.11346927356E+03  0.22007596187E+03  0.24933459437E+03  0.00000000000E+00 0.  1.
<mgrwt>
<rscale>  2 0.16214992E+03</rscale>
<asrwt>0</asrwt>
<pdfrwt beam="1">  1       21 0.11126145E+00 0.16214992E+03</pdfrwt>
<pdfrwt beam="2">  1       21 0.59034387E-02 0.16214992E+03</pdfrwt>
<totfact> 0.13039725E+05</totfact>
</mgrwt>
</event>
<event>
 5    1  0.1281005E-004  0.2465420E+03  0.7546771E-02  0.1115510E+00
         21   -1    0    0  503  502  0.00000000000E+00  0.00000000000E+00  0.26817209795E+03  0.26817209795E+03  0.00000000000E+00 0. -1.
         21   -1    0    0  501  503 -0.00000000000E+00 -0.00000000000E+00 -0.23154916483E+03  0.23154916483E+03  0.00000000000E+00 0.  1.
         24    1    1    2    0    0 -0.97709097995E+02  0.10278973878E+03  0.27044010346E+02  0.16526158864E+03  0.80419002446E+02 0. -1.
          1    1    1    2  501    0  0.19353979009E+03 -0.12664719787E+03 -0.17801350440E+02  0.23197855753E+03  0.00000000000E+00 0. -1.
         -2    1    1    2    0  502 -0.95830692091E+02  0.23857459097E+02  0.27380273208E+02  0.10248111661E+03  0.00000000000E+00 0.  1.
<mgrwt>
<rscale>  2 0.24654204E+03</rscale>
<asrwt>0</asrwt>
<pdfrwt beam="1">  1       21 0.41257246E-01 0.24654204E+03</pdfrwt>
<pdfrwt beam="2">  1       21 0.35622948E-01 0.24654204E+03</pdfrwt>
<totfact> 0.41921613E+04</totfact>
</mgrwt>
</event>
<event>
 5    1  0.1281005E-004  0.1776702E+03  0.7546771E-02  0.1170077E+00
         21   -1    0    0  501  502  0.00000000000E+00  0.00000000000E+00  0.66361052637E+03  0.66361052637E+03  0.00000000000E+00 0.  1.
         21   -1    0    0  502  503 -0.00000000000E+00 -0.00000000000E+00 -0.54766766561E+02  0.54766766561E+02  0.00000000000E+00 0.  1.
         24    1    1    2    0    0 -0.12904971881E+03 -0.74821188739E+02  0.42231346849E+03  0.45504716440E+03  0.80419002446E+02 0.  1.
          1    1    1    2  501    0 -0.19021643795E+02  0.20973057908E+02  0.28063464222E+02  0.39865399971E+02  0.00000000000E+00 0. -1.
         -2    1    1    2    0  503  0.14807136261E+03  0.53848130831E+02  0.15846682709E+03  0.22346472855E+03  0.00000000000E+00 0.  1.
<mgrwt>
<rscale>  2 0.17767023E+03</rscale>
<asrwt>0</asrwt>
<pdfrwt beam="1">  1       21 0.10209392E+00 0.17767023E+03</pdfrwt>
<pdfrwt beam="2">  1       21 0.84256569E-02 0.17767023E+03</pdfrwt>
<totfact> 0.86225807E+04</totfact>
</mgrwt>
</event>
<event>
 5    1  0.1281005E-004  0.1728970E+03  0.7546771E-02  0.1174860E+00
         21   -1    0    0  503  502  0.00000000000E+00  0.00000000000E+00  0.23615459569E+03  0.23615459569E+03  0.00000000000E+00 0.  1.
         21   -1    0    0  501  503 -0.00000000000E+00 -0.00000000000E+00 -0.15133836801E+03  0.15133836801E+03  0.00000000000E+00 0. -1.
         24    1    1    2    0    0  0.46809736246E+01  0.44082310220E+02 -0.44004278667E+02  0.10182707932E+03  0.80419002446E+02 0. -1.
          1    1    1    2  501    0  0.94423101072E+02 -0.10214813712E+03  0.57897797132E+02  0.15067222321E+03  0.00000000000E+00 0. -1.
         -2    1    1    2    0  502 -0.99104074697E+02  0.58065826900E+02  0.70922709213E+02  0.13499366117E+03  0.00000000000E+00 0.  1.
<mgrwt>
<rscale>  2 0.17289702E+03</rscale>
<asrwt>0</asrwt>
<pdfrwt beam="1">  1       21 0.36331476E-01 0.17289702E+03</pdfrwt>
<pdfrwt beam="2">  1       21 0.23282826E-01 0.17289702E+03</pdfrwt>
<totfact> 0.12757747E+05</totfact>
</mgrwt>
</event>
<event>
 5    1  0.1945679E-004  0.2337611E+03  0.7546771E-02  0.1124020E+00
         21   -1    0    0  503  502  0.00000000000E+00  0.00000000000E+00  0.44351341685E+03  0.44351341685E+03  0.00000000000E+00 0. -1.
         21   -1    0    0  501  503 -0.00000000000E+00 -0.00000000000E+00 -0.18233319830E+03  0.18233319830E+03  0.00000000000E+00 0. -1.
         24    1    1    2    0    0  0.11121040704E+03  0.56238508602E+02 -0.64515703570E+02  0.16174058379E+03  0.80419002446E+02 0. -1.
          1    1    1    2  501    0 -0.10195123570E+03  0.11157386352E+03  0.94403174240E+02  0.17819859929E+03  0.00000000000E+00 0. -1.
         -2    1    1    2    0  502 -0.92591713322E+01 -0.16781237212E+03  0.23129274788E+03  0.28590743207E+03  0.00000000000E+00 0.  1.
<mgrwt>
<rscale>  2 0.23376113E+03</rscale>
<asrwt>0</asrwt>
<pdfrwt beam="1">  1       21 0.68232833E-01 0.23376113E+03</pdfrwt>
<pdfrwt beam="2">  1       21 0.28051261E-01 0.23376113E+03</pdfrwt>
<totfact> 0.23262925E+04</totfact>
</mgrwt>
</event>
<event>
 5    1  0.1281005E-004  0.2420661E+03  0.7546771E-02  0.1118424E+00
         21   -1    0    0  501  502  0.00000000000E+00  0.00000000000E+00  0.72008270723E+03  0.72008270723E+03  0.00000000000E+00 0. -1.
         21   -1    0    0  502  503 -0.00000000000E+00 -0.00000000000E+00 -0.84237017379E+02  0.84237017379E+02  0.00000000000E+00 0.  1.
         24    1    1    2    0    0 -0.83940613187E+02  0.12721588382E+03  0.22234670726E+03  0.28130976133E+03  0.80419002446E+02 0.  1.
          1    1    1    2  501    0 -0.56151266890E+02  0.57237433074E+02  0.16411872274E+03  0.18265827020E+03  0.00000000000E+00 0. -1.
         -2    1    1    2    0  503  0.14009188008E+03 -0.18445331689E+03  0.24938025984E+03  0.34035169307E+03  0.00000000000E+00 0.  1.
<mgrwt>
<rscale>  2 0.24206608E+03</rscale>
<asrwt>0</asrwt>
<pdfrwt beam="1">  1       21 0.11078195E+00 0.24206608E+03</pdfrwt>
<pdfrwt beam="2">  1       21 0.12959542E-01 0.24206608E+03</pdfrwt>
<totfact> 0.31965887E+04</totfact>
</mgrwt>
</event>
<event>
 5    1  0.1281005E-004  0.1189830E+03  0.7546771E-02  0.1244784E+00
         21   -1    0    0  503  502  0.00000000000E+00  0.00000000000E+00  0.70327297463E+02  0.70327297463E+02  0.00000000000E+00 0.  1.
         21   -1    0    0  501  503 -0.00000000000E+00 -0.00000000000E+00 -0.24550077599E+03  0.24550077599E+03  0.00000000000E+00 0. -1.
         24    1    1    2    0    0 -0.12433409552E+01 -0.11082415833E+02 -0.49128056353E+02  0.94895456756E+02  0.80419002446E+02 0. -1.
          1    1    1    2  501    0  0.64826631526E+02 -0.39162817327E+02 -0.11702109938E+03  0.13939209488E+03  0.00000000000E+00 0. -1.
         -2    1    1    2    0  502 -0.63583290571E+02  0.50245233160E+02 -0.90243227895E+01  0.81540521809E+02  0.00000000000E+00 0.  1.
<mgrwt>
<rscale>  2 0.11898300E+03</rscale>
<asrwt>0</asrwt>
<pdfrwt beam="1">  1       21 0.10819584E-01 0.11898300E+03</pdfrwt>
<pdfrwt beam="2">  1       21 0.37769350E-01 0.11898300E+03</pdfrwt>
<totfact> 0.48169368E+05</totfact>
</mgrwt>
</event>
<event>
 5    1  0.1281005E-004  0.1552296E+03  0.7546771E-02  0.1194190E+00
         21   -1    0    0  501  502  0.00000000000E+00  0.00000000000E+00  0.22008643375E+03  0.22008643375E+03  0.00000000000E+00 0. -1.
         21   -1    0    0  502  503 -0.00000000000E+00 -0.00000000000E+00 -0.11665741874E+03  0.11665741874E+03  0.00000000000E+00 0.  1.
         24    1    1    2    0    0 -0.33155250856E+02 -0.23846865414E+02 -0.24869281813E+01  0.90229398843E+02  0.80419002446E+02 0.  0.
          1    1    1    2  501    0 -0.91328223876E+02 -0.82771411406E+01  0.26714099949E+02  0.95514389900E+02  0.00000000000E+00 0. -1.
         -2    1    1    2    0  503  0.12448347473E+03  0.32124006555E+02  0.79201843244E+02  0.15100006375E+03  0.00000000000E+00 0.  1.
<mgrwt>
<rscale>  2 0.15522963E+03</rscale>
<asrwt>0</asrwt>
<pdfrwt beam="1">  1       21 0.33859451E-01 0.15522963E+03</pdfrwt>
<pdfrwt beam="2">  1       21 0.17947295E-01 0.15522963E+03</pdfrwt>
<totfact> 0.23954479E+05</totfact>
</mgrwt>
</event>
<event>
 5    1  0.1281005E-004  0.1896120E+03  0.7546771E-02  0.1158812E+00
         21   -1    0    0  503  502  0.00000000000E+00  0.00000000000E+00  0.64240517769E+03  0.64240517769E+03  0.00000000000E+00 0.  1.
         21   -1    0    0  501  503 -0.00000000000E+00 -0.00000000000E+00 -0.58035313926E+02  0.58035313926E+02  0.00000000000E+00 0. -1.
         24    1    1    2    0    0 -0.56691807310E+01 -0.47339620406E+02  0.18342296957E+03  0.20587467302E+03  0.80419002446E+02 0.  0.
          1    1    1    2  501    0 -0.70042282599E+02 -0.98822092821E+02  0.13122430404E+03  0.17858204096E+03  0.00000000000E+00 0. -1.
         -2    1    1    2    0  502  0.75711463330E+02  0.14616171323E+03  0.26972259015E+03  0.31598377764E+03  0.00000000000E+00 0.  1.
<mgrwt>
<rscale>  2 0.18961201E+03</rscale>
<asrwt>0</asrwt>
<pdfrwt beam="1">  1       21 0.98831561E-01 0.18961201E+03</pdfrwt>
<pdfrwt beam="2">  1       21 0.89285103E-02 0.18961201E+03</pdfrwt>
<totfact> 0.83727123E+04</totfact>
</mgrwt>
</event>
<event>
 5    1  0.1281005E-004  0.2281160E+03  0.7546771E-02  0.1127973E+00
         21   -1    0    0  503  502  0.00000000000E+00  0.00000000000E+00  0.48230336966E+02  0.48230336966E+02  0.00000000000E+00 0.  1.
         21   -1    0    0  501  503 -0.00000000000E+00 -0.00000000000E+00 -0.10935513898E+04  0.10935513898E+04  0.00000000000E+00 0.  1.
         24    1    1    2    0    0 -0.83347358829E+02 -0.52625496246E+01 -0.22353126753E+03  0.25180929325E+03  0.80419002446E+02 0.  1.
          1    1    1    2  501    0 -0.78805776644E+02  0.11864478223E+03 -0.38331776193E+03  0.40892473805E+03  0.00000000000E+00 0. -1.
         -2    1    1    2    0  502  0.16215313547E+03 -0.11338223261E+03 -0.43847202333E+03  0.48104769541E+03  0.00000000000E+00 0.  1.
<mgrwt>
<rscale>  2 0.22811601E+03</rscale>
<asrwt>0</asrwt>
<pdfrwt beam="1">  1       21 0.74200522E-02 0.22811601E+03</pdfrwt>
<pdfrwt beam="2">  1       21 0.16823867E+00 0.22811601E+03</pdfrwt>
<totfact> 0.29367798E+04</totfact>
</mgrwt>
</event>
<event>
 5    1  0.1281005E-004  0.6180185E+03  0.7546771E-02  0.9868713E-01
         21   -1    0    0  501  502  0.00000000000E+00  0.00000000000E+00  0.15461944536E+03  0.15461944536E+03  0.00000000000E+00 0. -1.
         21   -1    0    0  502  503 -0.00000000000E+00 -0.00000000000E+00 -0.27363074630E+04  0.27363074630E+04  0.00000000000E+00 0.  1.
         24    1    1    2    0    0 -0.10881057289E+03 -0.13044321169E+03 -0.75417313193E+03  0.77723838115E+03  0.80419002446E+02 0.  1.
          1    1    1    2  501    0  0.20641171427E+03  0.56562048227E+03 -0.87764214937E+03  0.10643251703E+04  0.00000000000E+00 0. -1.
         -2    1    1    2    0  503 -0.97601141376E+02 -0.43517727058E+03 -0.94987273638E+03  0.10493633570E+04  0.00000000000E+00 0.  1.
<mgrwt>
<rscale>  2 0.61801851E+03</rscale>
<asrwt>0</asrwt>
<pdfrwt beam="1">  1       21 0.23787606E-01 0.61801851E+03</pdfrwt>
<pdfrwt beam="2">  1       21 0.42097039E+00 0.61801851E+03</pdfrwt>
<totfact> 0.72323866E+01</totfact>
</mgrwt>
</event>
<event>
 5    1  0.1281005E-004  0.2754571E+03  0.7546771E-02  0.1098196E+00
         21   -1    0    0  503  502  0.00000000000E+00  0.00000000000E+00  0.29294152470E+03  0.29294152470E+03  0.00000000000E+00 0.  1.
         21   -1    0    0  501  503 -0.00000000000E+00 -0.00000000000E+00 -0.26326982465E+03  0.26326982465E+03  0.00000000000E+00 0. -1.
         24    1    1    2    0    0 -0.27300401909E+02 -0.14698944105E+02  0.32391669162E+01  0.86250095994E+02  0.80419002446E+02 0. -1.
          1    1    1    2  501    0  0.64577205874E+02 -0.21887108961E+03 -0.19449223749E+02  0.22902629039E+03  0.00000000000E+00 0. -1.
         -2    1    1    2    0  502 -0.37276803965E+02  0.23357003371E+03  0.45881756885E+02  0.24093496296E+03  0.00000000000E+00 0.  1.
<mgrwt>
<rscale>  2 0.27545708E+03</rscale>
<asrwt>0</asrwt>
<pdfrwt beam="1">  1       21 0.45067927E-01 0.27545708E+03</pdfrwt>
<pdfrwt beam="2">  1       21 0.40503050E-01 0.27545708E+03</pdfrwt>
<totfact> 0.26648834E+04</totfact>
</mgrwt>
</event>
<event>
 5    1  0.1281005E-004  0.2769932E+03  0.7546771E-02  0.1097343E+00
         21   -1    0    0  503  502  0.00000000000E+00  0.00000000000E+00  0.18201926210E+03  0.18201926210E+03  0.00000000000E+00 0.  1.
         21   -1    0    0  501  503 -0.00000000000E+00 -0.00000000000E+00 -0.62057598007E+03  0.62057598007E+03  0.00000000000E+00 0. -1.
         24    1    1    2    0    0  0.41500813945E+02  0.16154042882E+03 -0.22570151701E+03  0.29193495583E+03  0.80419002446E+02 0. -1.
          1    1    1    2  501    0 -0.96283421158E+01 -0.26264193687E+03 -0.28091155828E+03  0.38468791968E+03  0.00000000000E+00 0. -1.
         -2    1    1    2    0  502 -0.31872471829E+02  0.10110150806E+03  0.68056357318E+02  0.12597236666E+03  0.00000000000E+00 0.  1.
<mgrwt>
<rscale>  2 0.27699325E+03</rscale>
<asrwt>0</asrwt>
<pdfrwt beam="1">  1       21 0.28002963E-01 0.27699325E+03</pdfrwt>
<pdfrwt beam="2">  1       21 0.95473228E-01 0.27699325E+03</pdfrwt>
<totfact> 0.10607760E+04</totfact>
</mgrwt>
</event>
<event>
 5    1  0.1281005E-004  0.1507188E+03  0.7546771E-02  0.1199592E+00
         21   -1    0    0  501  502  0.00000000000E+00  0.00000000000E+00  0.96719056962E+02  0.96719056962E+02  0.00000000000E+00 0.  1.
         21   -1    0    0  502  503 -0.00000000000E+00 -0.00000000000E+00 -0.24092943870E+03  0.24092943870E+03  0.00000000000E+00 0. -1.
         24    1    1    2    0    0  0.30363205542E+02  0.49894388522E+02 -0.48926002151E+02  0.11078061156E+03  0.80419002446E+02 0.  0.
          1    1    1    2  501    0 -0.80197613685E+02 -0.10212848874E+03 -0.39798259676E+02  0.13581526765E+03  0.00000000000E+00 0. -1.
         -2    1    1    2    0  503  0.49834408143E+02  0.52234100217E+02 -0.55486119911E+02  0.91052616454E+02  0.00000000000E+00 0.  1.
<mgrwt>
<rscale>  2 0.15071885E+03</rscale>
<asrwt>0</asrwt>
<pdfrwt beam="1">  1       21 0.14879855E-01 0.15071885E+03</pdfrwt>
<pdfrwt beam="2">  1       21 0.37066067E-01 0.15071885E+03</pdfrwt>
<totfact> 0.28218375E+05</totfact>
</mgrwt>
</event>
<event>
 5    1  0.1281005E-004  0.1765143E+03  0.7546771E-02  0.1171220E+00
         21   -1    0    0  501  502  0.00000000000E+00  0.00000000000E+00  0.10357625237E+03  0.10357625237E+03  0.00000000000E+00 0. -1.
         21   -1    0    0  502  503 -0.00000000000E+00 -0.00000000000E+00 -0.30832959330E+03  0.30832959330E+03  0.00000000000E+00 0.  1.
         24    1    1    2    0    0  0.11078770597E+03  0.35971941356E+02 -0.91349018389E+02  0.16846292018E+03  0.80419002446E+02 0.  1.
          1    1    1    2  501    0  0.48761934459E+02 -0.58001675289E+01 -0.77378372689E+01  0.49711591416E+02  0.00000000000E+00 0. -1.
         -2    1    1    2    0  503 -0.15954964043E+03 -0.30171773827E+02 -0.10566648527E+03  0.19373133409E+03  0.00000000000E+00 0.  1.
<mgrwt>
<rscale>  2 0.17651427E+03</rscale>
<asrwt>0</asrwt>
<pdfrwt beam="1">  1       21 0.15934808E-01 0.17651427E+03</pdfrwt>
<pdfrwt beam="2">  1       21 0.47435322E-01 0.17651427E+03</pdfrwt>
<totfact> 0.15011886E+05</totfact>
</mgrwt>
</event>
<event>
 5    1  0.1281005E-004  0.1814428E+03  0.7546771E-02  0.1166414E+00
         21   -1    0    0  503  502  0.00000000000E+00  0.00000000000E+00  0.97107992424E+02  0.97107992424E+02  0.00000000000E+00 0. -1.
         21   -1    0    0  501  503 -0.00000000000E+00 -0.00000000000E+00 -0.35918417304E+03  0.35918417304E+03  0.00000000000E+00 0. -1.
         24    1    1    2    0    0  0.11045856548E+03 -0.41560308167E+02 -0.11133953949E+03  0.18108578882E+03  0.80419002446E+02 0. -1.
          1    1    1    2  501    0 -0.13471008150E+03 -0.35480941083E+02 -0.13281854069E+03  0.19247459050E+03  0.00000000000E+00 0. -1.
         -2    1    1    2    0  502  0.24251516027E+02  0.77041249250E+02 -0.17918100436E+02  0.82731786146E+02  0.00000000000E+00 0.  1.
<mgrwt>
<rscale>  2 0.18144277E+03</rscale>
<asrwt>0</asrwt>
<pdfrwt beam="1">  1       21 0.14939691E-01 0.18144277E+03</pdfrwt>
<pdfrwt beam="2">  1       21 0.55259104E-01 0.18144277E+03</pdfrwt>
<totfact> 0.12252542E+05</totfact>
</mgrwt>
</event>
<event>
 5    1  0.1281005E-004  0.1691314E+03  0.7546771E-02  0.1178757E+00
         21   -1    0    0  501  502  0.00000000000E+00  0.00000000000E+00  0.49232847543E+03  0.49232847543E+03  0.00000000000E+00 0. -1.
         21   -1    0    0  502  503 -0.00000000000E+00 -0.00000000000E+00 -0.58411566689E+02  0.58411566689E+02  0.00000000000E+00 0.  1.
         24    1    1    2    0    0  0.77743153767E+02  0.36989939879E+02  0.13275679674E+03  0.17749320169E+03  0.80419002446E+02 0.  1.
          1    1    1    2  501    0  0.67209962677E+02  0.10267386698E+02  0.89692425234E+02  0.11254923126E+03  0.00000000000E+00 0. -1.
         -2    1    1    2    0  503 -0.14495311644E+03 -0.47257326577E+02  0.21146768677E+03  0.26069760918E+03  0.00000000000E+00 0.  1.
<mgrwt>
<rscale>  2 0.16913143E+03</rscale>
<asrwt>0</asrwt>
<pdfrwt beam="1">  1       21 0.75742840E-01 0.16913143E+03</pdfrwt>
<pdfrwt beam="2">  1       21 0.89863952E-02 0.16913143E+03</pdfrwt>
<totfact> 0.15356586E+05</totfact>
</mgrwt>
</event>
<event>
 5    1  0.1281005E-004  0.1314756E+03  0.7546771E-02  0.1225283E+00
         21   -1    0    0  501  502  0.00000000000E+00  0.00000000000E+00  0.20024548956E+03  0.20024548956E+03  0.00000000000E+00 0.  1.
         21   -1    0    0  502  503 -0.00000000000E+00 -0.00000000000E+00 -0.86517332604E+02  0.86517332604E+02  0.00000000000E+00 0. -1.
         24    1    1    2    0    0  0.89249599576E+01 -0.46588647756E+02  0.34273258928E+02  0.99458681078E+02  0.80419002446E+02 0.  0.
          1    1    1    2  501    0 -0.42032868355E+02 -0.51257852897E+02  0.32843121876E+02  0.73978376302E+02  0.00000000000E+00 0. -1.
         -2    1    1    2    0  503  0.33107908397E+02  0.97846500652E+02  0.46611776155E+02  0.11332576479E+03  0.00000000000E+00 0.  1.
<mgrwt>
<rscale>  2 0.13147557E+03</rscale>
<asrwt>0</asrwt>
<pdfrwt beam="1">  1       21 0.30806998E-01 0.13147557E+03</pdfrwt>
<pdfrwt beam="2">  1       21 0.13310359E-01 0.13147557E+03</pdfrwt>
<totfact> 0.49686210E+05</totfact>
</mgrwt>
</event>
<event>
 5    1  0.1281005E-004  0.2115527E+03  0.7546771E-02  0.1140342E+00
         21   -1    0    0  503  502  0.00000000000E+00  0.00000000000E+00  0.10301301808E+03  0.10301301808E+03  0.00000000000E+00 0. -1.
         21   -1    0    0  501  503 -0.00000000000E+00 -0.00000000000E+00 -0.44941496685E+03  0.44941496685E+03  0.00000000000E+00 0.  1.
         24    1    1    2    0    0  0.40749701266E+02  0.93595153237E+02 -0.92393859197E+02  0.15945040619E+03  0.80419002446E+02 0.  0.
          1    1    1    2  501    0 -0.17980308745E+02  0.98289979332E+02 -0.12761779601E+03  0.16208181082E+03  0.00000000000E+00 0. -1.
         -2    1    1    2    0  502 -0.22769392521E+02 -0.19188513257E+03 -0.12639029356E+03  0.23089576792E+03  0.00000000000E+00 0.  1.
<mgrwt>
<rscale>  2 0.21155273E+03</rscale>
<asrwt>0</asrwt>
<pdfrwt beam="1">  1       21 0.15848157E-01 0.21155273E+03</pdfrwt>
<pdfrwt beam="2">  1       21 0.69140763E-01 0.21155273E+03</pdfrwt>
<totfact> 0.66979905E+04</totfact>
</mgrwt>
</event>
<event>
 5    1  0.1281005E-004  0.1594908E+03  0.7546771E-02  0.1189273E+00
         21   -1    0    0  501  502  0.00000000000E+00  0.00000000000E+00  0.49045271744E+02  0.49045271744E+02  0.00000000000E+00 0. -1.
         21   -1    0    0  502  503 -0.00000000000E+00 -0.00000000000E+00 -0.60742184503E+03  0.60742184503E+03  0.00000000000E+00 0. -1.
         24    1    1    2    0    0 -0.64631494189E+02 -0.13405666733E+03 -0.18050251096E+03  0.24737985471E+03  0.80419002446E+02 0. -1.
          1    1    1    2  501    0  0.59195261468E+02  0.10757662458E+03 -0.25173951930E+03  0.28008854799E+03  0.00000000000E+00 0. -1.
         -2    1    1    2    0  503  0.54362327208E+01  0.26480042755E+02 -0.12613454302E+03  0.12899871408E+03  0.00000000000E+00 0.  1.
<mgrwt>
<rscale>  2 0.15949076E+03</rscale>
<asrwt>0</asrwt>
<pdfrwt beam="1">  1       21 0.75454263E-02 0.15949076E+03</pdfrwt>
<pdfrwt beam="2">  1       21 0.93449517E-01 0.15949076E+03</pdfrwt>
<totfact> 0.12954194E+05</totfact>
</mgrwt>
</event>
<event>
 5    1  0.1281005E-004  0.1495615E+03  0.7546771E-02  0.1201013E+00
         21   -1    0    0  503  502  0.00000000000E+00  0.00000000000E+00  0.81604318891E+03  0.81604318891E+03  0.00000000000E+00 0.  1.
         21   -1    0    0  501  503 -0.00000000000E+00 -0.00000000000E+00 -0.31359926514E+02  0.31359926514E+02  0.00000000000E+00 0. -1.
         24    1    1    2    0    0 -0.79554759489E+00  0.45932201272E+02  0.36893051005E+03  0.38037788738E+03  0.80419002446E+02 0.  1.
          1    1    1    2  501    0 -0.10026635799E+03 -0.23691919164E+02  0.15129954830E+03  0.18304699641E+03  0.00000000000E+00 0. -1.
         -2    1    1    2    0  502  0.10106190559E+03 -0.22240282108E+02  0.26445320404E+03  0.28397823163E+03  0.00000000000E+00 0.  1.
<mgrwt>
<rscale>  2 0.14956149E+03</rscale>
<asrwt>0</asrwt>
<pdfrwt beam="1">  1       21 0.12554509E+00 0.14956149E+03</pdfrwt>
<pdfrwt beam="2">  1       21 0.48246047E-02 0.14956149E+03</pdfrwt>
<totfact> 0.13724038E+05</totfact>
</mgrwt>
</event>
<event>
 5    1  0.1281005E-004  0.8462380E+02  0.7546771E-02  0.1316419E+00
         21   -1    0    0  501  502  0.00000000000E+00  0.00000000000E+00  0.13309877256E+02  0.13309877256E+02  0.00000000000E+00 0. -1.
         21   -1    0    0  502  503 -0.00000000000E+00 -0.00000000000E+00 -0.54262295890E+03  0.54262295890E+03  0.00000000000E+00 0.  1.
         24    1    1    2    0    0  0.31962489964E+02  0.16937216543E+02 -0.27188896255E+03  0.28583088353E+03  0.80419002446E+02 0. -1.
          1    1    1    2  501    0  0.33772510361E+01 -0.39170556281E+02 -0.10714023966E+03  0.11412611120E+03  0.00000000000E+00 0. -1.
         -2    1    1    2    0  503 -0.35339741000E+02  0.22233339738E+02 -0.15028387943E+03  0.15597584142E+03  0.00000000000E+00 0.  1.
<mgrwt>
<rscale>  2 0.84623800E+02</rscale>
<asrwt>0</asrwt>
<pdfrwt beam="1">  1       21 0.20476740E-02 0.84623800E+02</pdfrwt>
<pdfrwt beam="2">  1       21 0.83480433E-01 0.84623800E+02</pdfrwt>
<totfact> 0.14701658E+06</totfact>
</mgrwt>
</event>
<event>
 5    1  0.1281005E-004  0.1285679E+03  0.7546771E-02  0.1229596E+00
         21   -1    0    0  501  502  0.00000000000E+00  0.00000000000E+00  0.20115704018E+03  0.20115704018E+03  0.00000000000E+00 0. -1.
         21   -1    0    0  502  503 -0.00000000000E+00 -0.00000000000E+00 -0.93961047300E+02  0.93961047300E+02  0.00000000000E+00 0. -1.
         24    1    1    2    0    0  0.60306919862E+02 -0.13533130590E+02  0.41099595513E+02  0.10943702716E+03  0.80419002446E+02 0. -1.
          1    1    1    2  501    0 -0.10271076537E+03  0.34572265420E+02  0.81831282575E+02  0.13579801791E+03  0.00000000000E+00 0. -1.
         -2    1    1    2    0  503  0.42403845510E+02 -0.21039134831E+02 -0.15734885208E+02  0.49883042419E+02  0.00000000000E+00 0.  1.
<mgrwt>
<rscale>  2 0.12856789E+03</rscale>
<asrwt>0</asrwt>
<pdfrwt beam="1">  1       21 0.30947237E-01 0.12856789E+03</pdfrwt>
<pdfrwt beam="2">  1       21 0.14455546E-01 0.12856789E+03</pdfrwt>
<totfact> 0.42489783E+05</totfact>
</mgrwt>
</event>
<event>
 5    1  0.1281005E-004  0.1332047E+03  0.7546771E-02  0.1222777E+00
         21   -1    0    0  503  502  0.00000000000E+00  0.00000000000E+00  0.48873811630E+03  0.48873811630E+03  0.00000000000E+00 0. -1.
         21   -1    0    0  501  503 -0.00000000000E+00 -0.00000000000E+00 -0.37618327443E+02  0.37618327443E+02  0.00000000000E+00 0. -1.
         24    1    1    2    0    0  0.51449147644E+02 -0.15891859211E+02  0.21137573955E+03  0.23247899950E+03  0.80419002446E+02 0. -1.
          1    1    1    2  501    0 -0.10703100711E+03  0.32081196977E+02  0.16650392688E+03  0.20052031655E+03  0.00000000000E+00 0. -1.
         -2    1    1    2    0  502  0.55581859466E+02 -0.16189337765E+02  0.73240122424E+02  0.93357127696E+02  0.00000000000E+00 0.  1.
<mgrwt>
<rscale>  2 0.13320466E+03</rscale>
<asrwt>0</asrwt>
<pdfrwt beam="1">  1       21 0.75190475E-01 0.13320466E+03</pdfrwt>
<pdfrwt beam="2">  1       21 0.57874353E-02 0.13320466E+03</pdfrwt>
<totfact> 0.33591867E+05</totfact>
</mgrwt>
</event>
<event>
 5    1  0.1281005E-004  0.2547775E+03  0.7546771E-02  0.1110322E+00
         21   -1    0    0  501  502  0.00000000000E+00  0.00000000000E+00  0.19056416503E+03  0.19056416503E+03  0.00000000000E+00 0. -1.
         21   -1    0    0  502  503 -0.00000000000E+00 -0.00000000000E+00 -0.41744418926E+03  0.41744418926E+03  0.00000000000E+00 0.  1.
         24    1    1    2    0    0 -0.26676063832E+02 -0.20478534161E+02 -0.27594446632E+02  0.91431133550E+02  0.80419002446E+02 0.  1.
          1    1    1    2  501    0 -0.17388352208E+03 -0.87445613300E+02  0.25835748083E+02  0.19634077624E+03  0.00000000000E+00 0. -1.
         -2    1    1    2    0  503  0.20055958591E+03  0.10792414746E+03 -0.22512132568E+03  0.32023644450E+03  0.00000000000E+00 0.  1.
<mgrwt>
<rscale>  2 0.25477747E+03</rscale>
<asrwt>0</asrwt>
<pdfrwt beam="1">  1       21 0.29317564E-01 0.25477747E+03</pdfrwt>
<pdfrwt beam="2">  1       21 0.64222182E-01 0.25477747E+03</pdfrwt>
<totfact> 0.24138353E+04</totfact>
</mgrwt>
</event>
<event>
 5    1  0.1281005E-004  0.3995698E+03  0.7546771E-02  0.1043929E+00
         21   -1    0    0  503  502  0.00000000000E+00  0.00000000000E+00  0.10055102622E+03  0.10055102622E+03  0.00000000000E+00 0. -1.
         21   -1    0    0  501  503 -0.00000000000E+00 -0.00000000000E+00 -0.15896505807E+04  0.15896505807E+04  0.00000000000E+00 0.  1.
         24    1    1    2    0    0  0.73370796044E+01 -0.19340856605E+03 -0.39140704838E+03  0.44399031480E+03  0.80419002446E+02 0. -1.
          1    1    1    2  501    0  0.94133257445E+02 -0.17971460482E+03 -0.40142778918E+03  0.44978070131E+03  0.00000000000E+00 0. -1.
         -2    1    1    2    0  502 -0.10147033705E+03  0.37312317087E+03 -0.69626471695E+03  0.79643059083E+03  0.00000000000E+00 0.  1.
<mgrwt>
<rscale>  2 0.39956985E+03</rscale>
<asrwt>0</asrwt>
<pdfrwt beam="1">  1       21 0.15469389E-01 0.39956985E+03</pdfrwt>
<pdfrwt beam="2">  1       21 0.24456162E+00 0.39956985E+03</pdfrwt>
<totfact> 0.22722841E+03</totfact>
</mgrwt>
</event>
<event>
 5    1  0.1281005E-004  0.1456685E+03  0.7546771E-02  0.1205899E+00
         21   -1    0    0  501  502  0.00000000000E+00  0.00000000000E+00  0.32924087655E+03  0.32924087655E+03  0.00000000000E+00 0.  1.
         21   -1    0    0  502  503 -0.00000000000E+00 -0.00000000000E+00 -0.85901210258E+02  0.85901210258E+02  0.00000000000E+00 0. -1.
         24    1    1    2    0    0  0.60815906304E+02  0.88648112966E+01 -0.20780802123E+01  0.10123583215E+03  0.80419002446E+02 0. -1.
          1    1    1    2  501    0  0.63797691126E+02  0.82885051633E+01  0.12067254610E+03  0.13675053233E+03  0.00000000000E+00 0. -1.
         -2    1    1    2    0  503 -0.12461359743E+03 -0.17153316460E+02  0.12474520041E+03  0.17715572233E+03  0.00000000000E+00 0.  1.
<mgrwt>
<rscale>  2 0.14566850E+03</rscale>
<asrwt>0</asrwt>
<pdfrwt beam="1">  1       21 0.50652442E-01 0.14566850E+03</pdfrwt>
<pdfrwt beam="2">  1       21 0.13215571E-01 0.14566850E+03</pdfrwt>
<totfact> 0.18557030E+05</totfact>
</mgrwt>
</event>
<event>
 5    1  0.1281005E-004  0.1311573E+03  0.7546771E-02  0.1225749E+00
         21   -1    0    0  503  502  0.00000000000E+00  0.00000000000E+00  0.75405377687E+02  0.75405377687E+02  0.00000000000E+00 0. -1.
         21   -1    0    0  501  503 -0.00000000000E+00 -0.00000000000E+00 -0.23649196060E+03  0.23649196060E+03  0.00000000000E+00 0.  1.
         24    1    1    2    0    0  0.99400895152E+01 -0.44741498936E+02 -0.40754800303E+02  0.10113741547E+03  0.80419002446E+02 0.  1.
          1    1    1    2  501    0 -0.73351274328E+02  0.70097043666E+02 -0.91521766797E+02  0.13663908216E+03  0.00000000000E+00 0. -1.
         -2    1    1    2    0  502  0.63411184813E+02 -0.25355544730E+02 -0.28810015814E+02  0.74120840653E+02  0.00000000000E+00 0.  1.
<mgrwt>
<rscale>  2 0.13115727E+03</rscale>
<asrwt>0</asrwt>
<pdfrwt beam="1">  1       21 0.11600827E-01 0.13115727E+03</pdfrwt>
<pdfrwt beam="2">  1       21 0.36383378E-01 0.13115727E+03</pdfrwt>
<totfact> 0.45823362E+05</totfact>
</mgrwt>
</event>
<event>
 5    1  0.1281005E-004  0.1446187E+03  0.7546771E-02  0.1207246E+00
         21   -1    0    0  501  502  0.00000000000E+00  0.00000000000E+00  0.18082278804E+03  0.18082278804E+03  0.00000000000E+00 0.  1.
         21   -1    0    0  502  503 -0.00000000000E+00 -0.00000000000E+00 -0.13004653726E+03  0.13004653726E+03  0.00000000000E+00 0.  1.
         24    1    1    2    0    0 -0.38017808085E+02 -0.44088043614E+02  0.40299705476E+02  0.10714658901E+03  0.80419002446E+02 0.  1.
          1    1    1    2  501    0 -0.34495426156E+02 -0.56355671380E+02  0.38824798124E+02  0.76637204227E+02  0.00000000000E+00 0. -1.
         -2    1    1    2    0  503  0.72513234241E+02  0.10044371499E+03 -0.28348252815E+02  0.12708553206E+03  0.00000000000E+00 0.  1.
<mgrwt>
<rscale>  2 0.14461870E+03</rscale>
<asrwt>0</asrwt>
<pdfrwt beam="1">  1       21 0.27818891E-01 0.14461870E+03</pdfrwt>
<pdfrwt beam="2">  1       21 0.20007159E-01 0.14461870E+03</pdfrwt>
<totfact> 0.28764523E+05</totfact>
</mgrwt>
</event>
<event>
 5    1  0.1281005E-004  0.3067527E+03  0.7546771E-02  0.1081913E+00
         21   -1    0    0  503  502  0.00000000000E+00  0.00000000000E+00  0.16563067412E+03  0.16563067412E+03  0.00000000000E+00 0. -1.
         21   -1    0    0  501  503 -0.00000000000E+00 -0.00000000000E+00 -0.57365793839E+03  0.57365793839E+03  0.00000000000E+00 0.  1.
         24    1    1    2    0    0  0.18116785430E+03 -0.52955769062E+02 -0.13183943691E+03  0.24387488183E+03  0.80419002446E+02 0.  1.
          1    1    1    2  501    0 -0.26011205464E+03  0.13620062979E+03 -0.22437586098E+03  0.36953135120E+03  0.00000000000E+00 0. -1.
         -2    1    1    2    0  502  0.78944200345E+02 -0.83244860732E+02 -0.51811966375E+02  0.12588237949E+03  0.00000000000E+00 0.  1.
<mgrwt>
<rscale>  2 0.30675269E+03</rscale>
<asrwt>0</asrwt>
<pdfrwt beam="1">  1       21 0.25481642E-01 0.30675269E+03</pdfrwt>
<pdfrwt beam="2">  1       21 0.88255068E-01 0.30675269E+03</pdfrwt>
<totfact> 0.15122246E+04</totfact>
</mgrwt>
</event>
<event>
 5    1  0.1281005E-004  0.2680913E+03  0.7546771E-02  0.1102377E+00
         21   -1    0    0  503  502  0.00000000000E+00  0.00000000000E+00  0.80824419331E+02  0.80824419331E+02  0.00000000000E+00 0.  1.
         21   -1    0    0  501  503 -0.00000000000E+00 -0.00000000000E+00 -0.10240861078E+04  0.10240861078E+04  0.00000000000E+00 0. -1.
         24    1    1    2    0    0  0.33577065210E+02  0.74126263979E+01 -0.11088573926E+03  0.14122758039E+03  0.80419002446E+02 0. -1.
          1    1    1    2  501    0  0.19295278578E+03 -0.82811078172E+02 -0.57733022509E+03  0.61432779606E+03  0.00000000000E+00 0. -1.
         -2    1    1    2    0  502 -0.22652985099E+03  0.75398451774E+02 -0.25504572415E+03  0.34935515071E+03  0.00000000000E+00 0.  1.
<mgrwt>
<rscale>  2 0.26809129E+03</rscale>
<asrwt>0</asrwt>
<pdfrwt beam="1">  1       21 0.12434526E-01 0.26809129E+03</pdfrwt>
<pdfrwt beam="2">  1       21 0.15755171E+00 0.26809129E+03</pdfrwt>
<totfact> 0.13769624E+04</totfact>
</mgrwt>
</event>
<event>
 5    1  0.1281005E-004  0.1085517E+03  0.7546771E-02  0.1263276E+00
         21   -1    0    0  501  502  0.00000000000E+00  0.00000000000E+00  0.16134058251E+04  0.16134058251E+04  0.00000000000E+00 0. -1.
         21   -1    0    0  502  503 -0.00000000000E+00 -0.00000000000E+00 -0.75235276329E+01  0.75235276329E+01  0.00000000000E+00 0.  1.
         24    1    1    2    0    0 -0.27862013151E+02  0.32862035218E+02  0.58246364345E+03  0.58956536282E+03  0.80419002446E+02 0.  1.
          1    1    1    2  501    0  0.17267466223E+02 -0.77803868446E+02  0.55841795350E+03  0.56407642933E+03  0.00000000000E+00 0. -1.
         -2    1    1    2    0  503  0.10594546928E+02  0.44941833228E+02  0.46500070047E+03  0.46728756054E+03  0.00000000000E+00 0.  1.
<mgrwt>
<rscale>  2 0.10855174E+03</rscale>
<asrwt>0</asrwt>
<pdfrwt beam="1">  1       21 0.24821601E+00 0.10855174E+03</pdfrwt>
<pdfrwt beam="2">  1       21 0.11574671E-02 0.10855174E+03</pdfrwt>
<totfact> 0.21467806E+05</totfact>
</mgrwt>
</event>
<event>
 5    1  0.1281005E-004  0.2206640E+03  0.7546771E-02  0.1133389E+00
         21   -1    0    0  503  502  0.00000000000E+00  0.00000000000E+00  0.15376212106E+03  0.15376212106E+03  0.00000000000E+00 0.  1.
         21   -1    0    0  501  503 -0.00000000000E+00 -0.00000000000E+00 -0.36555019217E+03  0.36555019217E+03  0.00000000000E+00 0. -1.
         24    1    1    2    0    0 -0.76294698878E+02  0.61236376693E+02 -0.90769470940E+02  0.15581106417E+03  0.80419002446E+02 0.  1.
          1    1    1    2  501    0 -0.11603201080E+03 -0.16198799122E+02 -0.11751791934E+03  0.16594062188E+03  0.00000000000E+00 0. -1.
         -2    1    1    2    0  502  0.19232670967E+03 -0.45037577571E+02 -0.35006808209E+01  0.19756062719E+03  0.00000000000E+00 0.  1.
<mgrwt>
<rscale>  2 0.22066404E+03</rscale>
<asrwt>0</asrwt>
<pdfrwt beam="1">  1       21 0.23655711E-01 0.22066404E+03</pdfrwt>
<pdfrwt beam="2">  1       21 0.56238491E-01 0.22066404E+03</pdfrwt>
<totfact> 0.49404150E+04</totfact>
</mgrwt>
</event>
<event>
 5    1  0.1281005E-004  0.1781128E+03  0.7546771E-02  0.1169642E+00
         21   -1    0    0  503  502  0.00000000000E+00  0.00000000000E+00  0.48813918105E+02  0.48813918105E+02  0.00000000000E+00 0. -1.
         21   -1    0    0  501  503 -0.00000000000E+00 -0.00000000000E+00 -0.67084013921E+03  0.67084013921E+03  0.00000000000E+00 0.  1.
         24    1    1    2    0    0 -0.56282103561E+02  0.92001826497E+02 -0.23653541071E+03  0.27211804007E+03  0.80419002446E+02 0.  1.
          1    1    1    2  501    0  0.11728967540E+03 -0.10711442231E+03 -0.31705161851E+03  0.35461542017E+03  0.00000000000E+00 0. -1.
         -2    1    1    2    0  502 -0.61007571841E+02  0.15112595810E+02 -0.68439191886E+02  0.92920597071E+02  0.00000000000E+00 0.  1.
<mgrwt>
<rscale>  2 0.17811280E+03</rscale>
<asrwt>0</asrwt>
<pdfrwt beam="1">  1       21 0.75098335E-02 0.17811280E+03</pdfrwt>
<pdfrwt beam="2">  1       21 0.10320618E+00 0.17811280E+03</pdfrwt>
<totfact> 0.10259658E+05</totfact>
</mgrwt>
</event>
<event>
 5    1  0.1281005E-004  0.1277909E+03  0.7546771E-02  0.1230771E+00
         21   -1    0    0  503  502  0.00000000000E+00  0.00000000000E+00  0.65964199701E+02  0.65964199701E+02  0.00000000000E+00 0. -1.
         21   -1    0    0  501  503 -0.00000000000E+00 -0.00000000000E+00 -0.26809925649E+03  0.26809925649E+03  0.00000000000E+00 0.  1.
         24    1    1    2    0    0  0.11483439577E+02  0.31630381561E+02 -0.10983252505E+03  0.14022392783E+03  0.80419002446E+02 0.  1.
          1    1    1    2  501    0 -0.87733378535E+02 -0.27909595195E+02 -0.65265688131E+02  0.11285256426E+03  0.00000000000E+00 0. -1.
         -2    1    1    2    0  502  0.76249938958E+02 -0.37207863658E+01 -0.27036843607E+02  0.80986964102E+02  0.00000000000E+00 0.  1.
<mgrwt>
<rscale>  2 0.12779092E+03</rscale>
<asrwt>0</asrwt>
<pdfrwt beam="1">  1       21 0.10148338E-01 0.12779092E+03</pdfrwt>
<pdfrwt beam="2">  1       21 0.41246039E-01 0.12779092E+03</pdfrwt>
<totfact> 0.45183203E+05</totfact>
</mgrwt>
</event>
<event>
 5    1  0.1281005E-004  0.2184532E+03  0.7546771E-02  0.1135042E+00
         21   -1    0    0  501  502  0.00000000000E+00  0.00000000000E+00  0.13313262191E+03  0.13313262191E+03  0.00000000000E+00 0. -1.
         21   -1    0    0  502  503 -0.00000000000E+00 -0.00000000000E+00 -0.38807195332E+03  0.38807195332E+03  0.00000000000E+00 0.  1.
         24    1    1    2    0    0 -0.30860246128E+02 -0.34926535056E+02 -0.18610045738E+01  0.92967182030E+02  0.80419002446E+02 0. -1.
          1    1    1    2  501    0 -0.15515049322E+03  0.26863631944E+01 -0.94467459557E+02  0.18166725905E+03  0.00000000000E+00 0. -1.
         -2    1    1    2    0  503  0.18601073935E+03  0.32240171862E+02 -0.15861086728E+03  0.24657013415E+03  0.00000000000E+00 0.  1.
<mgrwt>
<rscale>  2 0.21845318E+03</rscale>
<asrwt>0</asrwt>
<pdfrwt beam="1">  1       21 0.20481942E-01 0.21845318E+03</pdfrwt>
<pdfrwt beam="2">  1       21 0.59703376E-01 0.21845318E+03</pdfrwt>
<totfact> 0.57133281E+04</totfact>
</mgrwt>
</event>
<event>
 5    1  0.1281005E-004  0.2093308E+03  0.7546771E-02  0.1142097E+00
         21   -1    0    0  501  502  0.00000000000E+00  0.00000000000E+00  0.15367629846E+03  0.15367629846E+03  0.00000000000E+00 0.  1.
         21   -1    0    0  502  503 -0.00000000000E+00 -0.00000000000E+00 -0.34271037007E+03  0.34271037007E+03  0.00000000000E+00 0. -1.
         24    1    1    2    0    0 -0.32863604007E+02  0.55901266660E+02 -0.48206385764E+02  0.11400017397E+03  0.80419002446E+02 0.  1.
          1    1    1    2  501    0 -0.42727800555E+02 -0.17177270262E+03  0.10538680568E+02  0.17732058565E+03  0.00000000000E+00 0. -1.
         -2    1    1    2    0  503  0.75591404562E+02  0.11587143596E+03 -0.15136636641E+03  0.20506590891E+03  0.00000000000E+00 0.  1.
<mgrwt>
<rscale>  2 0.20933085E+03</rscale>
<asrwt>0</asrwt>
<pdfrwt beam="1">  1       21 0.23642508E-01 0.20933085E+03</pdfrwt>
<pdfrwt beam="2">  1       21 0.52724671E-01 0.20933085E+03</pdfrwt>
<totfact> 0.56991265E+04</totfact>
</mgrwt>
</event>
<event>
 5    1  0.1281005E-004  0.1670654E+03  0.7546771E-02  0.1180943E+00
         21   -1    0    0  503  502  0.00000000000E+00  0.00000000000E+00  0.72802968776E+03  0.72802968776E+03  0.00000000000E+00 0. -1.
         21   -1    0    0  501  503 -0.00000000000E+00 -0.00000000000E+00 -0.39376781252E+02  0.39376781252E+02  0.00000000000E+00 0.  1.
         24    1    1    2    0    0 -0.74996523967E+01  0.89727881579E+02  0.27319255001E+03  0.29867829324E+03  0.80419002446E+02 0.  1.
          1    1    1    2  501    0 -0.23204169941E+02 -0.14678721057E+03  0.24731543638E+03  0.28853049018E+03  0.00000000000E+00 0. -1.
         -2    1    1    2    0  502  0.30703822338E+02  0.57059328995E+02  0.16814492012E+03  0.18019768560E+03  0.00000000000E+00 0.  1.
<mgrwt>
<rscale>  2 0.16706542E+03</rscale>
<asrwt>0</asrwt>
<pdfrwt beam="1">  1       21 0.11200456E+00 0.16706542E+03</pdfrwt>
<pdfrwt beam="2">  1       21 0.60579669E-02 0.16706542E+03</pdfrwt>
<totfact> 0.12252737E+05</totfact>
</mgrwt>
</event>
<event>
 5    1  0.1281005E-004  0.1711176E+03  0.7546771E-02  0.1176687E+00
         21   -1    0    0  501  502  0.00000000000E+00  0.00000000000E+00  0.26820306432E+03  0.26820306432E+03  0.00000000000E+00 0. -1.
         21   -1    0    0  502  503 -0.00000000000E+00 -0.00000000000E+00 -0.11181647332E+03  0.11181647332E+03  0.00000000000E+00 0.  1.
         24    1    1    2    0    0  0.46409273598E+02  0.28542546702E+02  0.26747270270E+02  0.10075281668E+03  0.80419002446E+02 0.  1.
          1    1    1    2  501    0  0.83327655577E+02 -0.70073689502E+02  0.76417283315E+02  0.13301662052E+03  0.00000000000E+00 0. -1.
         -2    1    1    2    0  503 -0.12973692917E+03  0.41531142800E+02  0.53222037417E+02  0.14625010045E+03  0.00000000000E+00 0.  1.
<mgrwt>
<rscale>  2 0.17111756E+03</rscale>
<asrwt>0</asrwt>
<pdfrwt beam="1">  1       21 0.41262010E-01 0.17111756E+03</pdfrwt>
<pdfrwt beam="2">  1       21 0.17202534E-01 0.17111756E+03</pdfrwt>
<totfact> 0.17380633E+05</totfact>
</mgrwt>
</event>
<event>
 5    1  0.1281005E-004  0.1981867E+03  0.7546771E-02  0.1151278E+00
         21   -1    0    0  501  502  0.00000000000E+00  0.00000000000E+00  0.14517025906E+03  0.14517025906E+03  0.00000000000E+00 0. -1.
         21   -1    0    0  502  503 -0.00000000000E+00 -0.00000000000E+00 -0.36617941795E+03  0.36617941795E+03  0.00000000000E+00 0.  1.
         24    1    1    2    0    0  0.95367384376E+01 -0.86866648871E+01  0.43607802037E+02  0.92386491869E+02  0.80419002446E+02 0. -1.
          1    1    1    2  501    0 -0.18239446195E+02 -0.15245888129E+03 -0.77921671429E+02  0.17218645347E+03  0.00000000000E+00 0. -1.
         -2    1    1    2    0  503  0.87027077571E+01  0.16114554617E+03 -0.18669528950E+03  0.24677673167E+03  0.00000000000E+00 0.  1.
<mgrwt>
<rscale>  2 0.19818674E+03</rscale>
<asrwt>0</asrwt>
<pdfrwt beam="1">  1       21 0.22333886E-01 0.19818674E+03</pdfrwt>
<pdfrwt beam="2">  1       21 0.56335294E-01 0.19818674E+03</pdfrwt>
<totfact> 0.55475686E+04</totfact>
</mgrwt>
</event>
<event>
 5    1  0.1281005E-004  0.3308642E+03  0.7546771E-02  0.1070755E+00
         21   -1    0    0  501  502  0.00000000000E+00  0.00000000000E+00  0.32472825152E+03  0.32472825152E+03  0.00000000000E+00 0.  1.
         21   -1    0    0  502  503 -0.00000000000E+00 -0.00000000000E+00 -0.34081395386E+03  0.34081395386E+03  0.00000000000E+00 0. -1.
         24    1    1    2    0    0  0.97327974865E+01 -0.65454215543E+01  0.14040701250E+02  0.82473796664E+02  0.80419002446E+02 0.  0.
          1    1    1    2  501    0 -0.26513352444E+03 -0.12505577854E+03 -0.38313460526E+02  0.29563939992E+03  0.00000000000E+00 0. -1.
         -2    1    1    2    0  503  0.25540072695E+03  0.13160120010E+03  0.81870569308E+01  0.28742900879E+03  0.00000000000E+00 0.  1.
<mgrwt>
<rscale>  2 0.33086424E+03</rscale>
<asrwt>0</asrwt>
<pdfrwt beam="1">  1       21 0.49958193E-01 0.33086424E+03</pdfrwt>
<pdfrwt beam="2">  1       21 0.52432916E-01 0.33086424E+03</pdfrwt>
<totfact> 0.12268951E+04</totfact>
</mgrwt>
</event>
<event>
 5    1  0.1281005E-004  0.1258852E+03  0.7546771E-02  0.1233692E+00
         21   -1    0    0  501  502  0.00000000000E+00  0.00000000000E+00  0.13094417401E+02  0.13094417401E+02  0.00000000000E+00 0. -1.
         21   -1    0    0  502  503 -0.00000000000E+00 -0.00000000000E+00 -0.12650087092E+04  0.12650087092E+04  0.00000000000E+00 0.  1.
         24    1    1    2    0    0 -0.20555355511E+02 -0.50606592670E+02 -0.60174699209E+03  0.60954918449E+03  0.80419002446E+02 0.  0.
          1    1    1    2  501    0 -0.18535981898E+02  0.94197322984E+02 -0.36318140221E+03  0.37565602509E+03  0.00000000000E+00 0. -1.
         -2    1    1    2    0  503  0.39091337408E+02 -0.43590730314E+02 -0.28698589745E+03  0.29289791697E+03  0.00000000000E+00 0.  1.
<mgrwt>
<rscale>  2 0.12588517E+03</rscale>
<asrwt>0</asrwt>
<pdfrwt beam="1">  1       21 0.20145256E-02 0.12588517E+03</pdfrwt>
<pdfrwt beam="2">  1       21 0.19461674E+00 0.12588517E+03</pdfrwt>
<totfact> 0.18323637E+05</totfact>
</mgrwt>
</event>
<event>
 5    1  0.1281005E-004  0.4771632E+03  0.7546771E-02  0.1019918E+00
         21   -1    0    0  503  502  0.00000000000E+00  0.00000000000E+00  0.19756669172E+04  0.19756669172E+04  0.00000000000E+00 0.  1.
         21   -1    0    0  501  503 -0.00000000000E+00 -0.00000000000E+00 -0.12221551268E+03  0.12221551268E+03  0.00000000000E+00 0. -1.
         24    1    1    2    0    0 -0.30566497496E+03  0.24691270039E+03  0.59665717352E+03  0.71893251227E+03  0.80419002446E+02 0. -1.
          1    1    1    2  501    0 -0.41680426243E+02  0.71031779675E+02  0.97243121721E+02  0.12743232077E+03  0.00000000000E+00 0. -1.
         -2    1    1    2    0  502  0.34734540121E+03 -0.31794448006E+03  0.11595511092E+04  0.12515175968E+04  0.00000000000E+00 0.  1.
<mgrwt>
<rscale>  2 0.47716324E+03</rscale>
<asrwt>0</asrwt>
<pdfrwt beam="1">  1       21 0.30394873E+00 0.47716324E+03</pdfrwt>
<pdfrwt beam="2">  1       21 0.18802388E-01 0.47716324E+03</pdfrwt>
<totfact> 0.66170702E+02</totfact>
</mgrwt>
</event>
<event>
 5    1  0.1281005E-004  0.1753211E+03  0.7546771E-02  0.1172410E+00
         21   -1    0    0  503  502  0.00000000000E+00  0.00000000000E+00  0.10164184747E+04  0.10164184747E+04  0.00000000000E+00 0.  1.
         21   -1    0    0  501  503 -0.00000000000E+00 -0.00000000000E+00 -0.32597588314E+02  0.32597588314E+02  0.00000000000E+00 0. -1.
         24    1    1    2    0    0 -0.11181388512E+03 -0.23663041707E+02  0.51595651104E+03  0.53454711831E+03  0.80419002446E+02 0.  1.
          1    1    1    2  501    0  0.15061768575E+03  0.55686928459E+02  0.31554582268E+03  0.35405633375E+03  0.00000000000E+00 0. -1.
         -2    1    1    2    0  502 -0.38803800629E+02 -0.32023886752E+02  0.15231855262E+03  0.16041261090E+03  0.00000000000E+00 0.  1.
<mgrwt>
<rscale>  2 0.17532105E+03</rscale>
<asrwt>0</asrwt>
<pdfrwt beam="1">  1       21 0.15637205E+00 0.17532105E+03</pdfrwt>
<pdfrwt beam="2">  1       21 0.50150144E-02 0.17532105E+03</pdfrwt>
<totfact> 0.72306304E+04</totfact>
</mgrwt>
</event>
<event>
 5    1  0.1281005E-004  0.1223383E+03  0.7546771E-02  0.1239289E+00
         21   -1    0    0  501  502  0.00000000000E+00  0.00000000000E+00  0.84044030488E+03  0.84044030488E+03  0.00000000000E+00 0.  1.
         21   -1    0    0  502  503 -0.00000000000E+00 -0.00000000000E+00 -0.18339061936E+02  0.18339061936E+02  0.00000000000E+00 0. -1.
         24    1    1    2    0    0  0.57717983506E+02 -0.28111423436E+02  0.40463170709E+03  0.41751125983E+03  0.80419002446E+02 0. -1.
          1    1    1    2  501    0  0.93064609555E+01  0.64732499058E+02  0.16460201507E+03  0.17711784217E+03  0.00000000000E+00 0. -1.
         -2    1    1    2    0  503 -0.67024444461E+02 -0.36621075622E+02  0.25286752078E+03  0.26415026481E+03  0.00000000000E+00 0.  1.
<mgrwt>
<rscale>  2 0.12233834E+03</rscale>
<asrwt>0</asrwt>
<pdfrwt beam="1">  1       21 0.12929848E+00 0.12233834E+03</pdfrwt>
<pdfrwt beam="2">  1       21 0.28213948E-02 0.12233834E+03</pdfrwt>
<totfact> 0.31334921E+05</totfact>
</mgrwt>
</event>
<event>
 5    1  0.1281005E-004  0.1578471E+03  0.7546771E-02  0.1191149E+00
         21   -1    0    0  501  502  0.00000000000E+00  0.00000000000E+00  0.78009762330E+02  0.78009762330E+02  0.00000000000E+00 0. -1.
         21   -1    0    0  502  503 -0.00000000000E+00 -0.00000000000E+00 -0.36265917548E+03  0.36265917548E+03  0.00000000000E+00 0.  1.
         24    1    1    2    0    0  0.28056657814E+02 -0.10127675737E+03 -0.47239131454E+02  0.14050946277E+03  0.80419002446E+02 0. -1.
          1    1    1    2  501    0 -0.14906579533E+01 -0.39789609389E+02 -0.44704271911E+02  0.59865741485E+02  0.00000000000E+00 0. -1.
         -2    1    1    2    0  503 -0.26565999861E+02  0.14106636676E+03 -0.19270600979E+03  0.24029373356E+03  0.00000000000E+00 0.  1.
<mgrwt>
<rscale>  2 0.15784707E+03</rscale>
<asrwt>0</asrwt>
<pdfrwt beam="1">  1       21 0.12001502E-01 0.15784707E+03</pdfrwt>
<pdfrwt beam="2">  1       21 0.55793720E-01 0.15784707E+03</pdfrwt>
<totfact> 0.17948736E+05</totfact>
</mgrwt>
</event>
<event>
 5    1  0.1281005E-004  0.1491019E+03  0.7546771E-02  0.1201581E+00
         21   -1    0    0  503  502  0.00000000000E+00  0.00000000000E+00  0.16240853086E+03  0.16240853086E+03  0.00000000000E+00 0.  1.
         21   -1    0    0  501  503 -0.00000000000E+00 -0.00000000000E+00 -0.13953809719E+03  0.13953809719E+03  0.00000000000E+00 0. -1.
         24    1    1    2    0    0 -0.11450582522E+02 -0.42406618113E+02 -0.50737687578E+01  0.91773613766E+02  0.80419002446E+02 0.  1.
          1    1    1    2  501    0 -0.30613689798E+02  0.11699753892E+03  0.29756899751E+01  0.12097304182E+03  0.00000000000E+00 0. -1.
         -2    1    1    2    0  502  0.42064272319E+02 -0.74590920811E+02  0.24968512451E+02  0.89199972462E+02  0.00000000000E+00 0.  1.
<mgrwt>
<rscale>  2 0.14910192E+03</rscale>
<asrwt>0</asrwt>
<pdfrwt beam="1">  1       21 0.24985928E-01 0.14910192E+03</pdfrwt>
<pdfrwt beam="2">  1       21 0.21467400E-01 0.14910192E+03</pdfrwt>
<totfact> 0.30940190E+05</totfact>
</mgrwt>
</event>
<event>
 5    1  0.1281005E-004  0.7588984E+02  0.7546771E-02  0.1341137E+00
         21   -1    0    0  501  502  0.00000000000E+00  0.00000000000E+00  0.39632346806E+02  0.39632346806E+02  0.00000000000E+00 0.  1.
         21   -1    0    0  502  503 -0.00000000000E+00 -0.00000000000E+00 -0.14578962191E+03  0.14578962191E+03  0.00000000000E+00 0. -1.
         24    1    1    2    0    0 -0.15091445371E+02 -0.65795339988E+01 -0.62364097387E+02  0.10308995387E+03  0.80419002446E+02 0.  0.
          1    1    1    2  501    0 -0.12569230895E+02  0.30585613647E+02 -0.21903860935E+02  0.39664145665E+02  0.00000000000E+00 0. -1.
         -2    1    1    2    0  503  0.27660676266E+02 -0.24006079648E+02 -0.21889316783E+02  0.42667869185E+02  0.00000000000E+00 0.  1.
<mgrwt>
<rscale>  2 0.75889837E+02</rscale>
<asrwt>0</asrwt>
<pdfrwt beam="1">  1       21 0.60972840E-02 0.75889837E+02</pdfrwt>
<pdfrwt beam="2">  1       21 0.22429173E-01 0.75889837E+02</pdfrwt>
<totfact> 0.34373309E+06</totfact>
</mgrwt>
</event>
<event>
 5    1  0.1281005E-004  0.1838168E+03  0.7546771E-02  0.1164159E+00
         21   -1    0    0  503  502  0.00000000000E+00  0.00000000000E+00  0.15846135934E+04  0.15846135934E+04  0.00000000000E+00 0. -1.
         21   -1    0    0  501  503 -0.00000000000E+00 -0.00000000000E+00 -0.21476291506E+02  0.21476291506E+02  0.00000000000E+00 0.  1.
         24    1    1    2    0    0  0.40590870900E+02  0.32893719381E+02  0.36794793426E+03  0.38024007397E+03  0.80419002446E+02 0.  0.
          1    1    1    2  501    0 -0.11751955790E+03  0.74859613251E+02  0.65725257272E+03  0.67185992032E+03  0.00000000000E+00 0. -1.
         -2    1    1    2    0  502  0.76928687002E+02 -0.10775333263E+03  0.53793679491E+03  0.55398989061E+03  0.00000000000E+00 0.  1.
<mgrwt>
<rscale>  2 0.18381677E+03</rscale>
<asrwt>0</asrwt>
<pdfrwt beam="1">  1       21 0.24378661E+00 0.18381677E+03</pdfrwt>
<pdfrwt beam="2">  1       21 0.33040461E-02 0.18381677E+03</pdfrwt>
<totfact> 0.39278645E+04</totfact>
</mgrwt>
</event>
<event>
 5    1  0.1281005E-004  0.3210390E+03  0.7546771E-02  0.1075172E+00
         21   -1    0    0  501  502  0.00000000000E+00  0.00000000000E+00  0.29548267373E+03  0.29548267373E+03  0.00000000000E+00 0.  1.
         21   -1    0    0  502  503 -0.00000000000E+00 -0.00000000000E+00 -0.67708658058E+03  0.67708658058E+03  0.00000000000E+00 0.  1.
         24    1    1    2    0    0  0.10866293889E+02 -0.20214308698E+03  0.95745786822E+02  0.23793775573E+03  0.80419002446E+02 0.  1.
          1    1    1    2  501    0  0.76938133058E+02 -0.90464121434E+02  0.47047574518E+02  0.12773686959E+03  0.00000000000E+00 0. -1.
         -2    1    1    2    0  503 -0.87804426946E+02  0.29260720841E+03 -0.52439726819E+03  0.60689462899E+03  0.00000000000E+00 0.  1.
<mgrwt>
<rscale>  2 0.32103896E+03</rscale>
<asrwt>0</asrwt>
<pdfrwt beam="1">  1       21 0.45458873E-01 0.32103896E+03</pdfrwt>
<pdfrwt beam="2">  1       21 0.10416717E+00 0.32103896E+03</pdfrwt>
<totfact> 0.31738486E+03</totfact>
</mgrwt>
</event>
<event>
 5    1  0.1281005E-004  0.1230960E+03  0.7546771E-02  0.1238075E+00
         21   -1    0    0  501  502  0.00000000000E+00  0.00000000000E+00  0.69732843233E+03  0.69732843233E+03  0.00000000000E+00 0.  1.
         21   -1    0    0  502  503 -0.00000000000E+00 -0.00000000000E+00 -0.21967510671E+02  0.21967510671E+02  0.00000000000E+00 0.  1.
         24    1    1    2    0    0 -0.12430749606E+02 -0.77559319441E+02  0.27619640397E+03  0.29819731905E+03  0.80419002446E+02 0.  1.
          1    1    1    2  501    0  0.18658564457E+02 -0.24907314379E+02  0.10640406852E+03  0.11086181550E+03  0.00000000000E+00 0. -1.
         -2    1    1    2    0  503 -0.62278148506E+01  0.10246663382E+03  0.29276044916E+03  0.31023680845E+03  0.00000000000E+00 0.  1.
<mgrwt>
<rscale>  2 0.12309598E+03</rscale>
<asrwt>0</asrwt>
<pdfrwt beam="1">  1       21 0.10728128E+00 0.12309598E+03</pdfrwt>
<pdfrwt beam="2">  1       21 0.33796176E-02 0.12309598E+03</pdfrwt>
<totfact> 0.36629818E+05</totfact>
</mgrwt>
</event>
<event>
 5    1  0.1281005E-004  0.1644793E+03  0.7546771E-02  0.1183730E+00
         21   -1    0    0  503  502  0.00000000000E+00  0.00000000000E+00  0.68144906603E+02  0.68144906603E+02  0.00000000000E+00 0.  1.
         21   -1    0    0  501  503 -0.00000000000E+00 -0.00000000000E+00 -0.41362719616E+03  0.41362719616E+03  0.00000000000E+00 0.  1.
         24    1    1    2    0    0 -0.46168131055E+02 -0.81311004033E+02 -0.17130429471E+03  0.21108138962E+03  0.80419002446E+02 0.  1.
          1    1    1    2  501    0 -0.15548086196E+02 -0.54381630926E+02 -0.63431227601E+02  0.84986030626E+02  0.00000000000E+00 0. -1.
         -2    1    1    2    0  502  0.61716217250E+02  0.13569263496E+03 -0.11074676724E+03  0.18570468251E+03  0.00000000000E+00 0.  1.
<mgrwt>
<rscale>  2 0.16447931E+03</rscale>
<asrwt>0</asrwt>
<pdfrwt beam="1">  1       21 0.10483832E-01 0.16447931E+03</pdfrwt>
<pdfrwt beam="2">  1       21 0.63634954E-01 0.16447931E+03</pdfrwt>
<totfact> 0.17191544E+05</totfact>
</mgrwt>
</event>
<event>
 5    1  0.1281005E-004  0.1267385E+03  0.7546771E-02  0.1232377E+00
         21   -1    0    0  503  502  0.00000000000E+00  0.00000000000E+00  0.63656791808E+02  0.63656791808E+02  0.00000000000E+00 0. -1.
         21   -1    0    0  501  503 -0.00000000000E+00 -0.00000000000E+00 -0.25811556278E+03  0.25811556278E+03  0.00000000000E+00 0.  1.
         24    1    1    2    0    0 -0.13750729340E+02  0.61148497575E+02 -0.79682003091E+02  0.12940115488E+03  0.80419002446E+02 0. -1.
          1    1    1    2  501    0 -0.19017347847E+02  0.40487393509E+02 -0.51622490630E+02  0.68306442530E+02  0.00000000000E+00 0. -1.
         -2    1    1    2    0  502  0.32768077187E+02 -0.10163589108E+03 -0.63154277253E+02  0.12406475718E+03  0.00000000000E+00 0.  1.
<mgrwt>
<rscale>  2 0.12673848E+03</rscale>
<asrwt>0</asrwt>
<pdfrwt beam="1">  1       21 0.97933526E-02 0.12673848E+03</pdfrwt>
<pdfrwt beam="2">  1       21 0.39710086E-01 0.12673848E+03</pdfrwt>
<totfact> 0.51885265E+05</totfact>
</mgrwt>
</event>
<event>
 5    1  0.1281005E-004  0.1034227E+03  0.7546771E-02  0.1273259E+00
         21   -1    0    0  503  502  0.00000000000E+00  0.00000000000E+00  0.43389321037E+02  0.43389321037E+02  0.00000000000E+00 0.  1.
         21   -1    0    0  501  503 -0.00000000000E+00 -0.00000000000E+00 -0.25913105076E+03  0.25913105076E+03  0.00000000000E+00 0.  1.
         24    1    1    2    0    0 -0.13726730171E+02 -0.42352937051E+02 -0.63337319276E+02  0.11162896741E+03  0.80419002446E+02 0.  1.
          1    1    1    2  501    0 -0.13118010979E+02 -0.32690508406E+02 -0.45057241357E+02  0.57191839895E+02  0.00000000000E+00 0. -1.
         -2    1    1    2    0  502  0.26844741150E+02  0.75043445457E+02 -0.10734716909E+03  0.13369956449E+03  0.00000000000E+00 0.  1.
<mgrwt>
<rscale>  2 0.10342270E+03</rscale>
<asrwt>0</asrwt>
<pdfrwt beam="1">  1       21 0.66752803E-02 0.10342270E+03</pdfrwt>
<pdfrwt beam="2">  1       21 0.39866315E-01 0.10342270E+03</pdfrwt>
<totfact> 0.99510190E+05</totfact>
</mgrwt>
</event>
<event>
 5    1  0.1281005E-004  0.1171932E+03  0.7546771E-02  0.1247801E+00
         21   -1    0    0  501  502  0.00000000000E+00  0.00000000000E+00  0.14614052488E+03  0.14614052488E+03  0.00000000000E+00 0. -1.
         21   -1    0    0  502  503 -0.00000000000E+00 -0.00000000000E+00 -0.97891525829E+02  0.97891525829E+02  0.00000000000E+00 0.  1.
         24    1    1    2    0    0  0.49881515005E+01  0.52423904553E+02  0.40995730004E+02  0.10450365188E+03  0.80419002446E+02 0.  0.
          1    1    1    2  501    0 -0.78208559502E+01 -0.95134372000E+02 -0.30406304676E+01  0.95503716982E+02  0.00000000000E+00 0. -1.
         -2    1    1    2    0  503  0.28327044497E+01  0.42710467447E+02  0.10293899512E+02  0.44024681841E+02  0.00000000000E+00 0.  1.
<mgrwt>
<rscale>  2 0.11719321E+03</rscale>
<asrwt>0</asrwt>
<pdfrwt beam="1">  1       21 0.22483158E-01 0.11719321E+03</pdfrwt>
<pdfrwt beam="2">  1       21 0.15060235E-01 0.11719321E+03</pdfrwt>
<totfact> 0.72444806E+05</totfact>
</mgrwt>
</event>
<event>
 5    1  0.1281005E-004  0.2886930E+03  0.7546771E-02  0.1091034E+00
         21   -1    0    0  501  502  0.00000000000E+00  0.00000000000E+00  0.22911528665E+03  0.22911528665E+03  0.00000000000E+00 0. -1.
         21   -1    0    0  502  503 -0.00000000000E+00 -0.00000000000E+00 -0.40938783854E+03  0.40938783854E+03  0.00000000000E+00 0.  1.
         24    1    1    2    0    0 -0.99967143240E+02  0.12959399719E+03 -0.34272008243E+02  0.18555274274E+03  0.80419002446E+02 0.  1.
          1    1    1    2  501    0  0.35278632866E+02 -0.25313061208E+03 -0.64358208361E+01  0.25565818684E+03  0.00000000000E+00 0. -1.
         -2    1    1    2    0  503  0.64688510375E+02  0.12353661489E+03 -0.13956472282E+03  0.19729219560E+03  0.00000000000E+00 0.  1.
<mgrwt>
<rscale>  2 0.28869297E+03</rscale>
<asrwt>0</asrwt>
<pdfrwt beam="1">  1       21 0.35248506E-01 0.28869297E+03</pdfrwt>
<pdfrwt beam="2">  1       21 0.62982744E-01 0.28869297E+03</pdfrwt>
<totfact> 0.17226947E+04</totfact>
</mgrwt>
</event>
<event>
 5    1  0.1281005E-004  0.1350441E+03  0.7546771E-02  0.1220157E+00
         21   -1    0    0  503  502  0.00000000000E+00  0.00000000000E+00  0.17594294824E+03  0.17594294824E+03  0.00000000000E+00 0. -1.
         21   -1    0    0  501  503 -0.00000000000E+00 -0.00000000000E+00 -0.10531899125E+03  0.10531899125E+03  0.00000000000E+00 0.  1.
         24    1    1    2    0    0  0.29342706459E+01 -0.30546410010E+02  0.39186399680E+02  0.94575276806E+02  0.80419002446E+02 0.  0.
          1    1    1    2  501    0  0.32161690486E+02  0.10062382053E+03  0.17219155166E+02  0.10703283094E+03  0.00000000000E+00 0. -1.
         -2    1    1    2    0  502 -0.35095961132E+02 -0.70077410523E+02  0.14218402142E+02  0.79653831752E+02  0.00000000000E+00 0.  1.
<mgrwt>
<rscale>  2 0.13504412E+03</rscale>
<asrwt>0</asrwt>
<pdfrwt beam="1">  1       21 0.27068146E-01 0.13504412E+03</pdfrwt>
<pdfrwt beam="2">  1       21 0.16202922E-01 0.13504412E+03</pdfrwt>
<totfact> 0.44695575E+05</totfact>
</mgrwt>
</event>
<event>
 5    1  0.1281005E-004  0.1810571E+03  0.7546771E-02  0.1166784E+00
         21   -1    0    0  501  502  0.00000000000E+00  0.00000000000E+00  0.37515058825E+03  0.37515058825E+03  0.00000000000E+00 0. -1.
         21   -1    0    0  502  503 -0.00000000000E+00 -0.00000000000E+00 -0.10485970905E+03  0.10485970905E+03  0.00000000000E+00 0.  1.
         24    1    1    2    0    0 -0.56930221000E+02 -0.15034373898E+02  0.75780908998E+02  0.12520800527E+03  0.80419002446E+02 0.  1.
          1    1    1    2  501    0 -0.14098306561E+02 -0.11415139812E+03  0.17015023826E+03  0.20537869295E+03  0.00000000000E+00 0. -1.
         -2    1    1    2    0  503  0.71028527561E+02  0.12918577202E+03  0.24359731950E+02  0.14942359907E+03  0.00000000000E+00 0.  1.
<mgrwt>
<rscale>  2 0.18105714E+03</rscale>
<asrwt>0</asrwt>
<pdfrwt beam="1">  1       21 0.57715475E-01 0.18105714E+03</pdfrwt>
<pdfrwt beam="2">  1       21 0.16132263E-01 0.18105714E+03</pdfrwt>
<totfact> 0.97141966E+04</totfact>
</mgrwt>
</event>
<event>
 5    1  0.1281005E-004  0.1198066E+03  0.7546771E-02  0.1243416E+00
         21   -1    0    0  501  502  0.00000000000E+00  0.00000000000E+00  0.92904726020E+02  0.92904726020E+02  0.00000000000E+00 0. -1.
         21   -1    0    0  502  503 -0.00000000000E+00 -0.00000000000E+00 -0.16066538032E+03  0.16066538032E+03  0.00000000000E+00 0.  1.
         24    1    1    2    0    0 -0.46498453194E+02  0.59167144542E+02 -0.55902265704E+02  0.12351168531E+03  0.80419002446E+02 0.  0.
          1    1    1    2  501    0  0.62951007207E+02 -0.80718070996E+02 -0.80549913489E+01  0.10267969215E+03  0.00000000000E+00 0. -1.
         -2    1    1    2    0  503 -0.16452554013E+02  0.21550926454E+02 -0.38033972434E+01  0.27378728881E+02  0.00000000000E+00 0.  1.
<mgrwt>
<rscale>  2 0.11980656E+03</rscale>
<asrwt>0</asrwt>
<pdfrwt beam="1">  1       21 0.14293035E-01 0.11980656E+03</pdfrwt>
<pdfrwt beam="2">  1       21 0.24717751E-01 0.11980656E+03</pdfrwt>
<totfact> 0.66628305E+05</totfact>
</mgrwt>
</event>
<event>
 5    1  0.1281005E-004  0.1977139E+03  0.7546771E-02  0.1151682E+00
         21   -1    0    0  501  502  0.00000000000E+00  0.00000000000E+00  0.12656320075E+03  0.12656320075E+03  0.00000000000E+00 0. -1.
         21   -1    0    0  502  503 -0.00000000000E+00 -0.00000000000E+00 -0.34758546386E+03  0.34758546386E+03  0.00000000000E+00 0.  1.
         24    1    1    2    0    0 -0.15771802620E+02 -0.53579934174E+02 -0.84882672306E+02  0.12958334429E+03  0.80419002446E+02 0. -1.
          1    1    1    2  501    0 -0.84172624777E+02 -0.89579263759E+02  0.39849454666E+00  0.12292125144E+03  0.00000000000E+00 0. -1.
         -2    1    1    2    0  503  0.99944427397E+02  0.14315919793E+03 -0.13653808536E+03  0.22164406889E+03  0.00000000000E+00 0.  1.
<mgrwt>
<rscale>  2 0.19771389E+03</rscale>
<asrwt>0</asrwt>
<pdfrwt beam="1">  1       21 0.19471262E-01 0.19771389E+03</pdfrwt>
<pdfrwt beam="2">  1       21 0.53474687E-01 0.19771389E+03</pdfrwt>
<totfact> 0.80145972E+04</totfact>
</mgrwt>
</event>
<event>
 5    1  0.1281005E-004  0.3407220E+03  0.7546771E-02  0.1066489E+00
         21   -1    0    0  501  502  0.00000000000E+00  0.00000000000E+00  0.10882875717E+04  0.10882875717E+04  0.00000000000E+00 0.  1.
         21   -1    0    0  502  503 -0.00000000000E+00 -0.00000000000E+00 -0.12512900336E+03  0.12512900336E+03  0.00000000000E+00 0. -1.
         24    1    1    2    0    0  0.29815152981E+03 -0.31880298931E+02  0.67684030282E+03  0.74464132283E+03  0.80419002446E+02 0.  1.
          1    1    1    2  501    0 -0.32893780816E+03  0.53658347147E+02  0.25268243590E+03  0.41824360517E+03  0.00000000000E+00 0. -1.
         -2    1    1    2    0  503  0.30786278348E+02 -0.21778048216E+02  0.33635829587E+02  0.50531647021E+02  0.00000000000E+00 0.  1.
<mgrwt>
<rscale>  2 0.34072199E+03</rscale>
<asrwt>0</asrwt>
<pdfrwt beam="1">  1       21 0.16742885E+00 0.34072199E+03</pdfrwt>
<pdfrwt beam="2">  1       21 0.19250617E-01 0.34072199E+03</pdfrwt>
<totfact> 0.50067513E+03</totfact>
</mgrwt>
</event>
<event>
 5    1  0.1281005E-004  0.1562875E+03  0.7546771E-02  0.1192953E+00
         21   -1    0    0  501  502  0.00000000000E+00  0.00000000000E+00  0.89337788014E+03  0.89337788014E+03  0.00000000000E+00 0.  1.
         21   -1    0    0  502  503 -0.00000000000E+00 -0.00000000000E+00 -0.28148573593E+02  0.28148573593E+02  0.00000000000E+00 0. -1.
         24    1    1    2    0    0  0.40069787882E+02  0.17453070497E+02  0.20989329885E+03  0.22898168142E+03  0.80419002446E+02 0.  0.
          1    1    1    2  501    0  0.44366598517E+02  0.80382227143E+02  0.32840920809E+03  0.34100191416E+03  0.00000000000E+00 0. -1.
         -2    1    1    2    0  503 -0.84436386399E+02 -0.97835297641E+02  0.32692679961E+03  0.35154285815E+03  0.00000000000E+00 0.  1.
<mgrwt>
<rscale>  2 0.15628745E+03</rscale>
<asrwt>0</asrwt>
<pdfrwt beam="1">  1       21 0.13744273E+00 0.15628745E+03</pdfrwt>
<pdfrwt beam="2">  1       21 0.43305505E-02 0.15628745E+03</pdfrwt>
<totfact> 0.13074814E+05</totfact>
</mgrwt>
</event>
<event>
 5    1  0.1281005E-004  0.1582169E+03  0.7546771E-02  0.1190725E+00
         21   -1    0    0  501  502  0.00000000000E+00  0.00000000000E+00  0.47844627918E+03  0.47844627918E+03  0.00000000000E+00 0.  1.
         21   -1    0    0  502  503 -0.00000000000E+00 -0.00000000000E+00 -0.52459084924E+02  0.52459084924E+02  0.00000000000E+00 0. -1.
         24    1    1    2    0    0 -0.39078932491E+02  0.18969744328E+02  0.11114001104E+03  0.14389694984E+03  0.80419002446E+02 0.  0.
          1    1    1    2  501    0  0.58349097929E+02  0.93887534907E+02  0.15696433180E+03  0.19198251977E+03  0.00000000000E+00 0. -1.
         -2    1    1    2    0  503 -0.19270165439E+02 -0.11285727924E+03  0.15788285142E+03  0.19502589450E+03  0.00000000000E+00 0.  1.
<mgrwt>
<rscale>  2 0.15821695E+03</rscale>
<asrwt>0</asrwt>
<pdfrwt beam="1">  1       21 0.73607117E-01 0.15821695E+03</pdfrwt>
<pdfrwt beam="2">  1       21 0.80706288E-02 0.15821695E+03</pdfrwt>
<totfact> 0.19803780E+05</totfact>
</mgrwt>
</event>
<event>
 5    1  0.1281005E-004  0.1649474E+03  0.7546771E-02  0.1183222E+00
         21   -1    0    0  503  502  0.00000000000E+00  0.00000000000E+00  0.46541711004E+02  0.46541711004E+02  0.00000000000E+00 0.  1.
         21   -1    0    0  501  503 -0.00000000000E+00 -0.00000000000E+00 -0.60315934593E+03  0.60315934593E+03  0.00000000000E+00 0. -1.
         24    1    1    2    0    0  0.57713070163E+02  0.19615388956E+02 -0.15084691895E+03  0.18148710936E+03  0.80419002446E+02 0.  1.
          1    1    1    2  501    0 -0.79340508499E+02 -0.11023600038E+03 -0.19361316060E+03  0.23650147574E+03  0.00000000000E+00 0. -1.
         -2    1    1    2    0  502  0.21627438336E+02  0.90620611422E+02 -0.21215755537E+03  0.23171247184E+03  0.00000000000E+00 0.  1.
<mgrwt>
<rscale>  2 0.16494738E+03</rscale>
<asrwt>0</asrwt>
<pdfrwt beam="1">  1       21 0.71602632E-02 0.16494738E+03</pdfrwt>
<pdfrwt beam="2">  1       21 0.92793747E-01 0.16494738E+03</pdfrwt>
<totfact> 0.14381709E+05</totfact>
</mgrwt>
</event>
<event>
 5    1  0.1281005E-004  0.1018693E+03  0.7546771E-02  0.1276413E+00
         21   -1    0    0  503  502  0.00000000000E+00  0.00000000000E+00  0.20220325395E+03  0.20220325395E+03  0.00000000000E+00 0.  1.
         21   -1    0    0  501  503 -0.00000000000E+00 -0.00000000000E+00 -0.51381969927E+02  0.51381969927E+02  0.00000000000E+00 0. -1.
         24    1    1    2    0    0  0.39162417787E+02 -0.56503314329E+01  0.70257949363E+02  0.11388159033E+03  0.80419002446E+02 0.  1.
          1    1    1    2  501    0 -0.17414775748E+01  0.53410212261E+02  0.36366595851E+02  0.64639096618E+02  0.00000000000E+00 0. -1.
         -2    1    1    2    0  502 -0.37420940212E+02 -0.47759880828E+02  0.44196738805E+02  0.75064536927E+02  0.00000000000E+00 0.  1.
<mgrwt>
<rscale>  2 0.10186934E+03</rscale>
<asrwt>0</asrwt>
<pdfrwt beam="1">  1       21 0.31108192E-01 0.10186934E+03</pdfrwt>
<pdfrwt beam="2">  1       21 0.79049186E-02 0.10186934E+03</pdfrwt>
<totfact> 0.12108825E+06</totfact>
</mgrwt>
</event>
<event>
 5    1  0.1281005E-004  0.2042938E+03  0.7546771E-02  0.1146166E+00
         21   -1    0    0  501  502  0.00000000000E+00  0.00000000000E+00  0.28588724871E+02  0.28588724871E+02  0.00000000000E+00 0.  1.
         21   -1    0    0  502  503 -0.00000000000E+00 -0.00000000000E+00 -0.15170821593E+04  0.15170821593E+04  0.00000000000E+00 0.  1.
         24    1    1    2    0    0 -0.13057787296E+03 -0.68551109115E+02 -0.56224905463E+03  0.58680580336E+03  0.80419002446E+02 0.  1.
          1    1    1    2  501    0 -0.14025345455E+02 -0.51057145082E+02 -0.12160600968E+03  0.13263319332E+03  0.00000000000E+00 0. -1.
         -2    1    1    2    0  503  0.14460321842E+03  0.11960825420E+03 -0.80463837014E+03  0.82623188751E+03  0.00000000000E+00 0.  1.
<mgrwt>
<rscale>  2 0.20429384E+03</rscale>
<asrwt>0</asrwt>
<pdfrwt beam="1">  1       21 0.43982664E-02 0.20429384E+03</pdfrwt>
<pdfrwt beam="2">  1       21 0.23339720E+00 0.20429384E+03</pdfrwt>
<totfact> 0.27618277E+04</totfact>
</mgrwt>
</event>
<event>
 5    1  0.1281005E-004  0.2064720E+03  0.7546771E-02  0.1144391E+00
         21   -1    0    0  501  502  0.00000000000E+00  0.00000000000E+00  0.29388739113E+03  0.29388739113E+03  0.00000000000E+00 0.  1.
         21   -1    0    0  502  503 -0.00000000000E+00 -0.00000000000E+00 -0.14681923516E+03  0.14681923516E+03  0.00000000000E+00 0.  1.
         24    1    1    2    0    0  0.14626445754E+03 -0.87441579167E+02  0.56779026432E+02  0.19680039406E+03  0.80419002446E+02 0.  1.
          1    1    1    2  501    0 -0.45918536596E+01 -0.36190235459E+02  0.27441974793E+02  0.45649537163E+02  0.00000000000E+00 0. -1.
         -2    1    1    2    0  503 -0.14167260388E+03  0.12363181463E+03  0.62847154743E+02  0.19825669506E+03  0.00000000000E+00 0.  1.
<mgrwt>
<rscale>  2 0.20647198E+03</rscale>
<asrwt>0</asrwt>
<pdfrwt beam="1">  1       21 0.45213445E-01 0.20647198E+03</pdfrwt>
<pdfrwt beam="2">  1       21 0.22587575E-01 0.20647198E+03</pdfrwt>
<totfact> 0.85689500E+04</totfact>
</mgrwt>
</event>
<event>
 5    1  0.1281005E-004  0.1561114E+03  0.7546771E-02  0.1193158E+00
         21   -1    0    0  501  502  0.00000000000E+00  0.00000000000E+00  0.21776625029E+04  0.21776625029E+04  0.00000000000E+00 0.  1.
         21   -1    0    0  502  503 -0.00000000000E+00 -0.00000000000E+00 -0.11455463175E+02  0.11455463175E+02  0.00000000000E+00 0. -1.
         24    1    1    2    0    0 -0.38120929544E+02 -0.91471547702E+01  0.48108462922E+03  0.48933272130E+03  0.80419002446E+02 0. -1.
          1    1    1    2  501    0 -0.29066371127E+02 -0.94705729689E+02  0.76234717578E+03  0.76875694832E+03  0.00000000000E+00 0. -1.
         -2    1    1    2    0  503  0.67187300671E+02  0.10385288446E+03  0.92277523473E+03  0.93102829646E+03  0.00000000000E+00 0.  1.
<mgrwt>
<rscale>  2 0.15611137E+03</rscale>
<asrwt>0</asrwt>
<pdfrwt beam="1">  1       21 0.33502467E+00 0.15611137E+03</pdfrwt>
<pdfrwt beam="2">  1       21 0.17623807E-02 0.15611137E+03</pdfrwt>
<totfact> 0.33702668E+04</totfact>
</mgrwt>
</event>
<event>
 5    1  0.1281005E-004  0.1393737E+03  0.7546771E-02  0.1214174E+00
         21   -1    0    0  503  502  0.00000000000E+00  0.00000000000E+00  0.17911666421E+03  0.17911666421E+03  0.00000000000E+00 0.  1.
         21   -1    0    0  501  503 -0.00000000000E+00 -0.00000000000E+00 -0.11875044357E+03  0.11875044357E+03  0.00000000000E+00 0. -1.
         24    1    1    2    0    0 -0.46246869216E+02 -0.62165242749E+02 -0.18223776662E+02  0.11314862928E+03  0.80419002446E+02 0. -1.
          1    1    1    2  501    0  0.59425150418E+02  0.10588091063E+03  0.59798511071E+02  0.13534392363E+03  0.00000000000E+00 0. -1.
         -2    1    1    2    0  502 -0.13178281202E+02 -0.43715667879E+02  0.18791486236E+02  0.49374554869E+02  0.00000000000E+00 0.  1.
<mgrwt>
<rscale>  2 0.13937367E+03</rscale>
<asrwt>0</asrwt>
<pdfrwt beam="1">  1       21 0.27556410E-01 0.13937367E+03</pdfrwt>
<pdfrwt beam="2">  1       21 0.18269299E-01 0.13937367E+03</pdfrwt>
<totfact> 0.34671396E+05</totfact>
</mgrwt>
</event>
<event>
 5    1  0.1281005E-004  0.3219948E+03  0.7546771E-02  0.1074735E+00
         21   -1    0    0  501  502  0.00000000000E+00  0.00000000000E+00  0.15851031769E+03  0.15851031769E+03  0.00000000000E+00 0.  1.
         21   -1    0    0  502  503 -0.00000000000E+00 -0.00000000000E+00 -0.67680249659E+03  0.67680249659E+03  0.00000000000E+00 0.  1.
         24    1    1    2    0    0 -0.45583440124E+02 -0.13490404310E+03 -0.13220717438E+03  0.21029242443E+03  0.80419002446E+02 0.  1.
          1    1    1    2  501    0  0.10975885644E+03 -0.15142514067E+03 -0.87820645362E+02  0.20661327534E+03  0.00000000000E+00 0. -1.
         -2    1    1    2    0  503 -0.64175416314E+02  0.28632918377E+03 -0.29826435915E+03  0.41840711452E+03  0.00000000000E+00 0.  1.
<mgrwt>
<rscale>  2 0.32199482E+03</rscale>
<asrwt>0</asrwt>
<pdfrwt beam="1">  1       21 0.24386203E-01 0.32199482E+03</pdfrwt>
<pdfrwt beam="2">  1       21 0.10412346E+00 0.32199482E+03</pdfrwt>
<totfact> 0.11031253E+04</totfact>
</mgrwt>
</event>
<event>
 5    1  0.1281005E-004  0.2137838E+03  0.7546771E-02  0.1138604E+00
         21   -1    0    0  503  502  0.00000000000E+00  0.00000000000E+00  0.77214552327E+03  0.77214552327E+03  0.00000000000E+00 0. -1.
         21   -1    0    0  501  503 -0.00000000000E+00 -0.00000000000E+00 -0.69541062754E+02  0.69541062754E+02  0.00000000000E+00 0.  1.
         24    1    1    2    0    0 -0.62273042964E+02  0.11048341192E+01  0.26958153261E+03  0.28813290547E+03  0.80419002446E+02 0. -1.
          1    1    1    2  501    0  0.11581800816E+03  0.13601631946E+03  0.14496849437E+03  0.23006545706E+03  0.00000000000E+00 0. -1.
         -2    1    1    2    0  502 -0.53544965194E+02 -0.13712115358E+03  0.28805443354E+03  0.32348822349E+03  0.00000000000E+00 0.  1.
<mgrwt>
<rscale>  2 0.21378379E+03</rscale>
<asrwt>0</asrwt>
<pdfrwt beam="1">  1       21 0.11879161E+00 0.21378379E+03</pdfrwt>
<pdfrwt beam="2">  1       21 0.10698626E-01 0.21378379E+03</pdfrwt>
<totfact> 0.38537895E+04</totfact>
</mgrwt>
</event>
<event>
 5    1  0.1281005E-004  0.1201822E+03  0.7546771E-02  0.1242797E+00
         21   -1    0    0  501  502  0.00000000000E+00  0.00000000000E+00  0.22659827250E+03  0.22659827250E+03  0.00000000000E+00 0.  1.
         21   -1    0    0  502  503 -0.00000000000E+00 -0.00000000000E+00 -0.66923447504E+02  0.66923447504E+02  0.00000000000E+00 0. -1.
         24    1    1    2    0    0 -0.30039993843E+02 -0.29788446682E+02  0.48623797189E+02  0.10305941196E+03  0.80419002446E+02 0. -1.
          1    1    1    2  501    0  0.63038209502E+02  0.72143525377E+02  0.46478881424E+02  0.10648375712E+03  0.00000000000E+00 0. -1.
         -2    1    1    2    0  503 -0.32998215658E+02 -0.42355078694E+02  0.64572146382E+02  0.83978550929E+02  0.00000000000E+00 0.  1.
<mgrwt>
<rscale>  2 0.12018221E+03</rscale>
<asrwt>0</asrwt>
<pdfrwt beam="1">  1       21 0.34861272E-01 0.12018221E+03</pdfrwt>
<pdfrwt beam="2">  1       21 0.10295915E-01 0.12018221E+03</pdfrwt>
<totfact> 0.61519536E+05</totfact>
</mgrwt>
</event>
<event>
 5    1  0.1281005E-004  0.1366928E+03  0.7546771E-02  0.1217850E+00
         21   -1    0    0  503  502  0.00000000000E+00  0.00000000000E+00  0.37316759982E+02  0.37316759982E+02  0.00000000000E+00 0. -1.
         21   -1    0    0  501  503 -0.00000000000E+00 -0.00000000000E+00 -0.50886458211E+03  0.50886458211E+03  0.00000000000E+00 0.  1.
         24    1    1    2    0    0  0.57038445584E+02  0.25251561465E+02 -0.17719967768E+03  0.20434766295E+03  0.80419002446E+02 0.  1.
          1    1    1    2  501    0 -0.38845731456E+02  0.67073236616E+02 -0.16027819984E+03  0.17803626390E+03  0.00000000000E+00 0. -1.
         -2    1    1    2    0  502 -0.18192714128E+02 -0.92324798081E+02 -0.13406994461E+03  0.16379741523E+03  0.00000000000E+00 0.  1.
<mgrwt>
<rscale>  2 0.13669284E+03</rscale>
<asrwt>0</asrwt>
<pdfrwt beam="1">  1       21 0.57410403E-02 0.13669284E+03</pdfrwt>
<pdfrwt beam="2">  1       21 0.78286855E-01 0.13669284E+03</pdfrwt>
<totfact> 0.31113084E+05</totfact>
</mgrwt>
</event>
<event>
 5    1  0.1281005E-004  0.1333624E+03  0.7546771E-02  0.1222550E+00
         21   -1    0    0  501  502  0.00000000000E+00  0.00000000000E+00  0.27068854113E+02  0.27068854113E+02  0.00000000000E+00 0.  1.
         21   -1    0    0  502  503 -0.00000000000E+00 -0.00000000000E+00 -0.69395625692E+03  0.69395625692E+03  0.00000000000E+00 0. -1.
         24    1    1    2    0    0 -0.48430398452E+02  0.59654522873E+01 -0.16281280437E+03  0.18803275070E+03  0.80419002446E+02 0.  1.
          1    1    1    2  501    0  0.64291237146E+02 -0.76750031396E+02 -0.31234860151E+03  0.32800240755E+03  0.00000000000E+00 0. -1.
         -2    1    1    2    0  503 -0.15860838694E+02  0.70784579109E+02 -0.19172599692E+03  0.20498995278E+03  0.00000000000E+00 0.  1.
<mgrwt>
<rscale>  2 0.13336241E+03</rscale>
<asrwt>0</asrwt>
<pdfrwt beam="1">  1       21 0.41644395E-02 0.13336241E+03</pdfrwt>
<pdfrwt beam="2">  1       21 0.10676249E+00 0.13336241E+03</pdfrwt>
<totfact> 0.26154754E+05</totfact>
</mgrwt>
</event>
<event>
 5    1  0.1281005E-004  0.1272212E+03  0.7546771E-02  0.1231638E+00
         21   -1    0    0  501  502  0.00000000000E+00  0.00000000000E+00  0.37419891993E+02  0.37419891993E+02  0.00000000000E+00 0.  1.
         21   -1    0    0  502  503 -0.00000000000E+00 -0.00000000000E+00 -0.43757247079E+03  0.43757247079E+03  0.00000000000E+00 0. -1.
         24    1    1    2    0    0 -0.33372492616E+02 -0.74353874578E+02 -0.15522866002E+03  0.19288694817E+03  0.80419002446E+02 0.  1.
          1    1    1    2  501    0  0.60601352152E+02  0.90030576971E+02 -0.18712350653E+03  0.21631744121E+03  0.00000000000E+00 0. -1.
         -2    1    1    2    0  503 -0.27228859536E+02 -0.15676702393E+02 -0.57800412248E+02  0.65787973412E+02  0.00000000000E+00 0.  1.
<mgrwt>
<rscale>  2 0.12722117E+03</rscale>
<asrwt>0</asrwt>
<pdfrwt beam="1">  1       21 0.57569068E-02 0.12722117E+03</pdfrwt>
<pdfrwt beam="2">  1       21 0.67318837E-01 0.12722117E+03</pdfrwt>
<totfact> 0.43209204E+05</totfact>
</mgrwt>
</event>
<event>
 5    1  0.1281005E-004  0.1436357E+03  0.7546771E-02  0.1208519E+00
         21   -1    0    0  501  502  0.00000000000E+00  0.00000000000E+00  0.11163150263E+04  0.11163150263E+04  0.00000000000E+00 0.  1.
         21   -1    0    0  502  503 -0.00000000000E+00 -0.00000000000E+00 -0.20457248364E+02  0.20457248364E+02  0.00000000000E+00 0.  1.
         24    1    1    2    0    0  0.57899071979E+02  0.24614599074E+02  0.30587684554E+03  0.32246866765E+03  0.80419002446E+02 0.  1.
          1    1    1    2  501    0  0.54979018951E+02 -0.44273812790E+02  0.17428881111E+03  0.18804109312E+03  0.00000000000E+00 0. -1.
         -2    1    1    2    0  503 -0.11287809093E+03  0.19659213715E+02  0.61569212133E+03  0.62626251394E+03  0.00000000000E+00 0.  1.
<mgrwt>
<rscale>  2 0.14363574E+03</rscale>
<asrwt>0</asrwt>
<pdfrwt beam="1">  1       21 0.17174073E+00 0.14363574E+03</pdfrwt>
<pdfrwt beam="2">  1       21 0.31472698E-02 0.14363574E+03</pdfrwt>
<totfact> 0.12431092E+05</totfact>
</mgrwt>
</event>
<event>
 5    1  0.1281005E-004  0.1174729E+03  0.7546771E-02  0.1247325E+00
         21   -1    0    0  503  502  0.00000000000E+00  0.00000000000E+00  0.48071892425E+02  0.48071892425E+02  0.00000000000E+00 0. -1.
         21   -1    0    0  501  503 -0.00000000000E+00 -0.00000000000E+00 -0.29944391535E+03  0.29944391535E+03  0.00000000000E+00 0.  1.
         24    1    1    2    0    0  0.15544571641E+02 -0.17084320033E+02 -0.10929136345E+03  0.13764202039E+03  0.80419002446E+02 0.  1.
          1    1    1    2  501    0  0.21372342811E+02 -0.61145153690E+02 -0.82263947479E+02  0.10470369579E+03  0.00000000000E+00 0. -1.
         -2    1    1    2    0  502 -0.36916914452E+02  0.78229473723E+02 -0.59816711990E+02  0.10517009159E+03  0.00000000000E+00 0.  1.
<mgrwt>
<rscale>  2 0.11747286E+03</rscale>
<asrwt>0</asrwt>
<pdfrwt beam="1">  1       21 0.73956760E-02 0.11747286E+03</pdfrwt>
<pdfrwt beam="2">  1       21 0.46068293E-01 0.11747286E+03</pdfrwt>
<totfact> 0.62530939E+05</totfact>
</mgrwt>
</event>
<event>
 5    1  0.1281005E-004  0.8732939E+02  0.7546771E-02  0.1309451E+00
         21   -1    0    0  501  502  0.00000000000E+00  0.00000000000E+00  0.21977443525E+04  0.21977443525E+04  0.00000000000E+00 0. -1.
         21   -1    0    0  502  503 -0.00000000000E+00 -0.00000000000E+00 -0.39524005466E+01  0.39524005466E+01  0.00000000000E+00 0.  1.
         24    1    1    2    0    0  0.23571369176E+02  0.15554803490E+01  0.14389050818E+04  0.14413441919E+04  0.80419002446E+02 0. -1.
          1    1    1    2  501    0  0.17342343910E+01 -0.42593643844E+02  0.37699165135E+03  0.37939416344E+03  0.00000000000E+00 0. -1.
         -2    1    1    2    0  503 -0.25305603567E+02  0.41038163495E+02  0.37789521879E+03  0.38095839776E+03  0.00000000000E+00 0.  1.
<mgrwt>
<rscale>  2 0.87329392E+02</rscale>
<asrwt>0</asrwt>
<pdfrwt beam="1">  1       21 0.33811354E+00 0.87329392E+02</pdfrwt>
<pdfrwt beam="2">  1       21 0.60806338E-03 0.87329392E+02</pdfrwt>
<totfact> 0.19059556E+05</totfact>
</mgrwt>
</event>
<event>
 5    1  0.1281005E-004  0.1567484E+03  0.7546771E-02  0.1192417E+00
         21   -1    0    0  501  502  0.00000000000E+00  0.00000000000E+00  0.10555937395E+03  0.10555937395E+03  0.00000000000E+00 0.  1.
         21   -1    0    0  502  503 -0.00000000000E+00 -0.00000000000E+00 -0.23943121824E+03  0.23943121824E+03  0.00000000000E+00 0.  1.
         24    1    1    2    0    0 -0.88423287118E+02 -0.47010136881E+02 -0.83258777097E+02  0.15306165618E+03  0.80419002446E+02 0.  1.
          1    1    1    2  501    0 -0.26523764145E+02 -0.34957960644E+02 -0.96949341630E+01  0.44939524088E+02  0.00000000000E+00 0. -1.
         -2    1    1    2    0  503  0.11494705126E+03  0.81968097526E+02 -0.40918133025E+02  0.14698941192E+03  0.00000000000E+00 0.  1.
<mgrwt>
<rscale>  2 0.15674838E+03</rscale>
<asrwt>0</asrwt>
<pdfrwt beam="1">  1       21 0.16239904E-01 0.15674838E+03</pdfrwt>
<pdfrwt beam="2">  1       21 0.36835572E-01 0.15674838E+03</pdfrwt>
<totfact> 0.24346258E+05</totfact>
</mgrwt>
</event>
<event>
 5    1  0.1281005E-004  0.1311512E+03  0.7546771E-02  0.1225757E+00
         21   -1    0    0  503  502  0.00000000000E+00  0.00000000000E+00  0.39579050996E+03  0.39579050996E+03  0.00000000000E+00 0. -1.
         21   -1    0    0  501  503 -0.00000000000E+00 -0.00000000000E+00 -0.46534921058E+02  0.46534921058E+02  0.00000000000E+00 0. -1.
         24    1    1    2    0    0  0.23061494899E+02  0.46499841992E+02  0.15577114851E+03  0.18282760873E+03  0.80419002446E+02 0. -1.
          1    1    1    2  501    0 -0.89810059760E+02 -0.43453092455E+02  0.80337172658E+02  0.12809402558E+03  0.00000000000E+00 0. -1.
         -2    1    1    2    0  502  0.66748564861E+02 -0.30467495363E+01  0.11314726773E+03  0.13140379671E+03  0.00000000000E+00 0.  1.
<mgrwt>
<rscale>  2 0.13115124E+03</rscale>
<asrwt>0</asrwt>
<pdfrwt beam="1">  1       21 0.60890845E-01 0.13115124E+03</pdfrwt>
<pdfrwt beam="2">  1       21 0.71592189E-02 0.13115124E+03</pdfrwt>
<totfact> 0.36961910E+05</totfact>
</mgrwt>
</event>
<event>
 5    1  0.1281005E-004  0.1754166E+03  0.7546771E-02  0.1172314E+00
         21   -1    0    0  501  502  0.00000000000E+00  0.00000000000E+00  0.13319901910E+04  0.13319901910E+04  0.00000000000E+00 0. -1.
         21   -1    0    0  502  503 -0.00000000000E+00 -0.00000000000E+00 -0.23895606600E+02  0.23895606600E+02  0.00000000000E+00 0.  1.
         24    1    1    2    0    0 -0.60998334729E+02 -0.46196429067E+02  0.40865801691E+03  0.42346605252E+03  0.80419002446E+02 0.  1.
          1    1    1    2  501    0  0.13207852634E+03  0.86724248065E+02  0.68286887928E+03  0.70091064952E+03  0.00000000000E+00 0. -1.
         -2    1    1    2    0  503 -0.71080191607E+02 -0.40527818998E+02  0.21656768826E+03  0.23150909561E+03  0.00000000000E+00 0.  1.
<mgrwt>
<rscale>  2 0.17541661E+03</rscale>
<asrwt>0</asrwt>
<pdfrwt beam="1">  1       21 0.20492151E+00 0.17541661E+03</pdfrwt>
<pdfrwt beam="2">  1       21 0.36762482E-02 0.17541661E+03</pdfrwt>
<totfact> 0.57015546E+04</totfact>
</mgrwt>
</event>
<event>
 5    1  0.1281005E-004  0.8998939E+02  0.7546771E-02  0.1302877E+00
         21   -1    0    0  503  502  0.00000000000E+00  0.00000000000E+00  0.27633096447E+02  0.27633096447E+02  0.00000000000E+00 0.  1.
         21   -1    0    0  501  503 -0.00000000000E+00 -0.00000000000E+00 -0.31511998255E+03  0.31511998255E+03  0.00000000000E+00 0. -1.
         24    1    1    2    0    0 -0.45424697886E+02  0.60370006757E+01 -0.16105445461E+03  0.18575683529E+03  0.80419002446E+02 0.  0.
          1    1    1    2  501    0 -0.18594162429E+02 -0.13485567742E+02 -0.12636173873E+02  0.26215955140E+02  0.00000000000E+00 0. -1.
         -2    1    1    2    0  502  0.64018860315E+02  0.74485670661E+01 -0.11379625762E+03  0.13078028856E+03  0.00000000000E+00 0.  1.
<mgrwt>
<rscale>  2 0.89989390E+02</rscale>
<asrwt>0</asrwt>
<pdfrwt beam="1">  1       21 0.42512458E-02 0.89989390E+02</pdfrwt>
<pdfrwt beam="2">  1       21 0.48479995E-01 0.89989390E+02</pdfrwt>
<totfact> 0.14251761E+06</totfact>
</mgrwt>
</event>
<event>
 5    1  0.1281005E-004  0.1665284E+03  0.7546771E-02  0.1181517E+00
         21   -1    0    0  503  502  0.00000000000E+00  0.00000000000E+00  0.36123134433E+03  0.36123134433E+03  0.00000000000E+00 0. -1.
         21   -1    0    0  501  503 -0.00000000000E+00 -0.00000000000E+00 -0.82324367836E+02  0.82324367836E+02  0.00000000000E+00 0. -1.
         24    1    1    2    0    0  0.80132372172E+02  0.11009081126E+02  0.14110648731E+03  0.18144049617E+03  0.80419002446E+02 0. -1.
          1    1    1    2  501    0 -0.14788608230E+03 -0.24532312766E+02  0.70475075873E+02  0.16564680506E+03  0.00000000000E+00 0. -1.
         -2    1    1    2    0  502  0.67753710127E+02  0.13523231640E+02  0.67325413309E+02  0.96468410929E+02  0.00000000000E+00 0.  1.
<mgrwt>
<rscale>  2 0.16652843E+03</rscale>
<asrwt>0</asrwt>
<pdfrwt beam="1">  1       21 0.55574052E-01 0.16652843E+03</pdfrwt>
<pdfrwt beam="2">  1       21 0.12665288E-01 0.16652843E+03</pdfrwt>
<totfact> 0.16394057E+05</totfact>
</mgrwt>
</event>
<event>
 5    1  0.1281005E-004  0.1737535E+03  0.7546771E-02  0.1173989E+00
         21   -1    0    0  503  502  0.00000000000E+00  0.00000000000E+00  0.59776139916E+03  0.59776139916E+03  0.00000000000E+00 0. -1.
         21   -1    0    0  501  503 -0.00000000000E+00 -0.00000000000E+00 -0.51367960967E+02  0.51367960967E+02  0.00000000000E+00 0. -1.
         24    1    1    2    0    0 -0.64902836598E+01 -0.75944082233E+02  0.14439539572E+03  0.18200789452E+03  0.80419002446E+02 0. -1.
          1    1    1    2  501    0 -0.11781038310E+02  0.15506040289E+03  0.24119087678E+03  0.28697658519E+03  0.00000000000E+00 0. -1.
         -2    1    1    2    0  502  0.18271321970E+02 -0.79116320656E+02  0.16080716570E+03  0.18014488042E+03  0.00000000000E+00 0.  1.
<mgrwt>
<rscale>  2 0.17375347E+03</rscale>
<asrwt>0</asrwt>
<pdfrwt beam="1">  1       21 0.91963287E-01 0.17375347E+03</pdfrwt>
<pdfrwt beam="2">  1       21 0.79027637E-02 0.17375347E+03</pdfrwt>
<totfact> 0.12338284E+05</totfact>
</mgrwt>
</event>
<event>
 5    1  0.1281005E-004  0.1738383E+03  0.7546771E-02  0.1173903E+00
         21   -1    0    0  501  502  0.00000000000E+00  0.00000000000E+00  0.78157989586E+03  0.78157989586E+03  0.00000000000E+00 0. -1.
         21   -1    0    0  502  503 -0.00000000000E+00 -0.00000000000E+00 -0.43100056419E+02  0.43100056419E+02  0.00000000000E+00 0. -1.
         24    1    1    2    0    0 -0.75455449796E+02  0.28040371805E+02  0.37327042077E+03  0.39022789538E+03  0.80419002446E+02 0. -1.
          1    1    1    2  501    0  0.15369686978E+03 -0.13272824525E+02  0.26276386798E+03  0.30470271736E+03  0.00000000000E+00 0. -1.
         -2    1    1    2    0  503 -0.78241419988E+02 -0.14767547280E+02  0.10244555069E+03  0.12974933954E+03  0.00000000000E+00 0.  1.
<mgrwt>
<rscale>  2 0.17383833E+03</rscale>
<asrwt>0</asrwt>
<pdfrwt beam="1">  1       21 0.12024305E+00 0.17383833E+03</pdfrwt>
<pdfrwt beam="2">  1       21 0.66307785E-02 0.17383833E+03</pdfrwt>
<totfact> 0.88018669E+04</totfact>
</mgrwt>
</event>
<event>
 5    1  0.1281005E-004  0.1318718E+03  0.7546771E-02  0.1224704E+00
         21   -1    0    0  501  502  0.00000000000E+00  0.00000000000E+00  0.62164462835E+03  0.62164462835E+03  0.00000000000E+00 0. -1.
         21   -1    0    0  502  503 -0.00000000000E+00 -0.00000000000E+00 -0.28760085393E+02  0.28760085393E+02  0.00000000000E+00 0. -1.
         24    1    1    2    0    0  0.71404674008E+02 -0.39685409764E+02  0.30456217928E+03  0.32542110598E+03  0.80419002446E+02 0. -1.
          1    1    1    2  501    0 -0.10679203341E+03  0.39079372569E+02  0.23367270649E+03  0.25987433409E+03  0.00000000000E+00 0. -1.
         -2    1    1    2    0  503  0.35387359407E+02  0.60603719462E+00  0.54649657193E+02  0.65109273672E+02  0.00000000000E+00 0.  1.
<mgrwt>
<rscale>  2 0.13187178E+03</rscale>
<asrwt>0</asrwt>
<pdfrwt beam="1">  1       21 0.95637626E-01 0.13187178E+03</pdfrwt>
<pdfrwt beam="2">  1       21 0.44246290E-02 0.13187178E+03</pdfrwt>
<totfact> 0.30629434E+05</totfact>
</mgrwt>
</event>
<event>
 5    1  0.1281005E-004  0.1103702E+03  0.7546771E-02  0.1259886E+00
         21   -1    0    0  503  502  0.00000000000E+00  0.00000000000E+00  0.22839697858E+04  0.22839697858E+04  0.00000000000E+00 0. -1.
         21   -1    0    0  501  503 -0.00000000000E+00 -0.00000000000E+00 -0.54804012320E+01  0.54804012320E+01  0.00000000000E+00 0. -1.
         24    1    1    2    0    0 -0.15739673280E+02 -0.71621383473E+02  0.94858263403E+03  0.95480552440E+03  0.80419002446E+02 0. -1.
          1    1    1    2  501    0  0.49903965654E+02  0.53774109559E+02  0.81340426632E+03  0.81670592083E+03  0.00000000000E+00 0. -1.
         -2    1    1    2    0  502 -0.34164292374E+02  0.17847273914E+02  0.51650248417E+03  0.51793874176E+03  0.00000000000E+00 0.  1.
<mgrwt>
<rscale>  2 0.11037020E+03</rscale>
<asrwt>0</asrwt>
<pdfrwt beam="1">  1       21 0.35137921E+00 0.11037020E+03</pdfrwt>
<pdfrwt beam="2">  1       21 0.84314047E-03 0.11037020E+03</pdfrwt>
<totfact> 0.93004395E+04</totfact>
</mgrwt>
</event>
<event>
 5    1  0.1281005E-004  0.1401780E+03  0.7546771E-02  0.1213090E+00
         21   -1    0    0  501  502  0.00000000000E+00  0.00000000000E+00  0.75854826748E+03  0.75854826748E+03  0.00000000000E+00 0. -1.
         21   -1    0    0  502  503 -0.00000000000E+00 -0.00000000000E+00 -0.28339198295E+02  0.28339198295E+02  0.00000000000E+00 0. -1.
         24    1    1    2    0    0 -0.87776642483E+02  0.74248839201E+02  0.25101618753E+03  0.28756559503E+03  0.80419002446E+02 0. -1.
          1    1    1    2  501    0  0.94741093415E+02 -0.36278510886E+02  0.36103239048E+03  0.37501518917E+03  0.00000000000E+00 0. -1.
         -2    1    1    2    0  503 -0.69644509318E+01 -0.37970328315E+02  0.11816049118E+03  0.12430668158E+03  0.00000000000E+00 0.  1.
<mgrwt>
<rscale>  2 0.14017798E+03</rscale>
<asrwt>0</asrwt>
<pdfrwt beam="1">  1       21 0.11669972E+00 0.14017798E+03</pdfrwt>
<pdfrwt beam="2">  1       21 0.43598772E-02 0.14017798E+03</pdfrwt>
<totfact> 0.19529148E+05</totfact>
</mgrwt>
</event>
<event>
 5    1  0.1281005E-004  0.1363349E+03  0.7546771E-02  0.1218347E+00
         21   -1    0    0  501  502  0.00000000000E+00  0.00000000000E+00  0.36099301250E+03  0.36099301250E+03  0.00000000000E+00 0. -1.
         21   -1    0    0  502  503 -0.00000000000E+00 -0.00000000000E+00 -0.51727957239E+02  0.51727957239E+02  0.00000000000E+00 0.  1.
         24    1    1    2    0    0  0.43934224898E+02  0.57800178965E+02  0.12446773690E+03  0.16501669700E+03  0.80419002446E+02 0.  1.
          1    1    1    2  501    0 -0.98876028395E+02 -0.37945615015E+02  0.12917507064E+03  0.16704052671E+03  0.00000000000E+00 0. -1.
         -2    1    1    2    0  503  0.54941803497E+02 -0.19854563950E+02  0.55622247727E+02  0.80663746029E+02  0.00000000000E+00 0.  1.
<mgrwt>
<rscale>  2 0.13633492E+03</rscale>
<asrwt>0</asrwt>
<pdfrwt beam="1">  1       21 0.55537385E-01 0.13633492E+03</pdfrwt>
<pdfrwt beam="2">  1       21 0.79581475E-02 0.13633492E+03</pdfrwt>
<totfact> 0.37403105E+05</totfact>
</mgrwt>
</event>
<event>
 5    1  0.1281005E-004  0.2004736E+03  0.7546771E-02  0.1149340E+00
         21   -1    0    0  503  502  0.00000000000E+00  0.00000000000E+00  0.53760419632E+02  0.53760419632E+02  0.00000000000E+00 0.  1.
         21   -1    0    0  501  503 -0.00000000000E+00 -0.00000000000E+00 -0.76520921191E+03  0.76520921191E+03  0.00000000000E+00 0. -1.
         24    1    1    2    0    0 -0.11333272962E+02 -0.48960147000E+02 -0.22549057696E+03  0.24461961353E+03  0.80419002446E+02 0. -1.
          1    1    1    2  501    0  0.14918801610E+03  0.73149124621E+02 -0.26738287979E+03  0.31480384843E+03  0.00000000000E+00 0. -1.
         -2    1    1    2    0  502 -0.13785474314E+03 -0.24188977621E+02 -0.21857533552E+03  0.25954616958E+03  0.00000000000E+00 0.  1.
<mgrwt>
<rscale>  2 0.20047355E+03</rscale>
<asrwt>0</asrwt>
<pdfrwt beam="1">  1       21 0.82708343E-02 0.20047355E+03</pdfrwt>
<pdfrwt beam="2">  1       21 0.11772449E+00 0.20047355E+03</pdfrwt>
<totfact> 0.62448975E+04</totfact>
</mgrwt>
</event>
<event>
 5    1  0.1281005E-004  0.1418473E+03  0.7546771E-02  0.1210865E+00
         21   -1    0    0  503  502  0.00000000000E+00  0.00000000000E+00  0.10861646867E+03  0.10861646867E+03  0.00000000000E+00 0. -1.
         21   -1    0    0  501  503 -0.00000000000E+00 -0.00000000000E+00 -0.19957635802E+03  0.19957635802E+03  0.00000000000E+00 0. -1.
         24    1    1    2    0    0  0.88054771426E+02 -0.18988257932E+02 -0.79873323891E+02  0.14477969655E+03  0.80419002446E+02 0. -1.
          1    1    1    2  501    0 -0.11979857137E+03 -0.96520112857E+01 -0.10635277212E+02  0.12065640532E+03  0.00000000000E+00 0. -1.
         -2    1    1    2    0  502  0.31743799946E+02  0.28640269217E+02 -0.45128824285E+00  0.42756724815E+02  0.00000000000E+00 0.  1.
<mgrwt>
<rscale>  2 0.14184732E+03</rscale>
<asrwt>0</asrwt>
<pdfrwt beam="1">  1       21 0.16710226E-01 0.14184732E+03</pdfrwt>
<pdfrwt beam="2">  1       21 0.30704055E-01 0.14184732E+03</pdfrwt>
<totfact> 0.33127158E+05</totfact>
</mgrwt>
</event>
<event>
 5    1  0.1281005E-004  0.8102705E+02  0.7546771E-02  0.1326162E+00
         21   -1    0    0  501  502  0.00000000000E+00  0.00000000000E+00  0.16575594908E+03  0.16575594908E+03  0.00000000000E+00 0. -1.
         21   -1    0    0  502  503 -0.00000000000E+00 -0.00000000000E+00 -0.44342270099E+02  0.44342270099E+02  0.00000000000E+00 0.  1.
         24    1    1    2    0    0  0.15865336735E+02  0.23672253055E+02  0.29633597983E+02  0.90318605825E+02  0.80419002446E+02 0.  1.
          1    1    1    2  501    0 -0.24929845920E+02  0.20106711124E+02  0.42910382146E+02  0.53545101977E+02  0.00000000000E+00 0. -1.
         -2    1    1    2    0  503  0.90645091849E+01 -0.43778964178E+02  0.48869698850E+02  0.66234511374E+02  0.00000000000E+00 0.  1.
<mgrwt>
<rscale>  2 0.81027049E+02</rscale>
<asrwt>0</asrwt>
<pdfrwt beam="1">  1       21 0.25500915E-01 0.81027049E+02</pdfrwt>
<pdfrwt beam="2">  1       21 0.68218878E-02 0.81027049E+02</pdfrwt>
<totfact> 0.22507312E+06</totfact>
</mgrwt>
</event>
<event>
 5    1  0.1281005E-004  0.1708041E+03  0.7546771E-02  0.1177012E+00
         21   -1    0    0  503  502  0.00000000000E+00  0.00000000000E+00  0.11540094644E+03  0.11540094644E+03  0.00000000000E+00 0.  1.
         21   -1    0    0  501  503 -0.00000000000E+00 -0.00000000000E+00 -0.28297673211E+03  0.28297673211E+03  0.00000000000E+00 0.  1.
         24    1    1    2    0    0 -0.79572253608E+01 -0.48029158414E+02 -0.42821062794E+02  0.10330042046E+03  0.80419002446E+02 0. -1.
          1    1    1    2  501    0 -0.84548773839E+02  0.10814858714E+03 -0.12363871483E+03  0.18474616062E+03  0.00000000000E+00 0. -1.
         -2    1    1    2    0  502  0.92505999200E+02 -0.60119428725E+02 -0.11160080447E+01  0.11033109748E+03  0.00000000000E+00 0.  1.
<mgrwt>
<rscale>  2 0.17080411E+03</rscale>
<asrwt>0</asrwt>
<pdfrwt beam="1">  1       21 0.17753992E-01 0.17080411E+03</pdfrwt>
<pdfrwt beam="2">  1       21 0.43534881E-01 0.17080411E+03</pdfrwt>
<totfact> 0.14710683E+05</totfact>
</mgrwt>
</event>
<event>
 5    1  0.1281005E-004  0.1233864E+03  0.7546771E-02  0.1237613E+00
         21   -1    0    0  503  502  0.00000000000E+00  0.00000000000E+00  0.23754430561E+03  0.23754430561E+03  0.00000000000E+00 0.  1.
         21   -1    0    0  501  503 -0.00000000000E+00 -0.00000000000E+00 -0.79483082131E+02  0.79483082131E+02  0.00000000000E+00 0. -1.
         24    1    1    2    0    0  0.23866811485E+02  0.21900441525E+02 -0.69080152916E+01  0.86972355718E+02  0.80419002446E+02 0. -1.
          1    1    1    2  501    0 -0.86697689451E+02  0.13832158197E+02  0.83814046455E+02  0.12137797304E+03  0.00000000000E+00 0. -1.
         -2    1    1    2    0  502  0.62830877967E+02 -0.35732599723E+02  0.81155192315E+02  0.10867705898E+03  0.00000000000E+00 0.  1.
<mgrwt>
<rscale>  2 0.12338636E+03</rscale>
<asrwt>0</asrwt>
<pdfrwt beam="1">  1       21 0.36545277E-01 0.12338636E+03</pdfrwt>
<pdfrwt beam="2">  1       21 0.12228167E-01 0.12338636E+03</pdfrwt>
<totfact> 0.41412387E+05</totfact>
</mgrwt>
</event>
<event>
 5    1  0.1281005E-004  0.8847231E+02  0.7546771E-02  0.1306594E+00
         21   -1    0    0  501  502  0.00000000000E+00  0.00000000000E+00  0.36544985327E+04  0.36544985327E+04  0.00000000000E+00 0. -1.
         21   -1    0    0  502  503 -0.00000000000E+00 -0.00000000000E+00 -0.23059209655E+01  0.23059209655E+01  0.00000000000E+00 0. -1.
         24    1    1    2    0    0  0.31766071572E+02  0.30796225158E+01  0.22738457805E+04  0.22754912473E+04  0.80419002446E+02 0. -1.
          1    1    1    2  501    0 -0.42079878261E+02  0.32633925455E+02  0.83490787021E+03  0.83660435152E+03  0.00000000000E+00 0. -1.
         -2    1    1    2    0  503  0.10313806689E+02 -0.35713547971E+02  0.54343896103E+03  0.54470885479E+03  0.00000000000E+00 0.  1.
<mgrwt>
<rscale>  2 0.88472307E+02</rscale>
<asrwt>0</asrwt>
<pdfrwt beam="1">  1       21 0.56222591E+00 0.88472307E+02</pdfrwt>
<pdfrwt beam="2">  1       21 0.35476000E-03 0.88472307E+02</pdfrwt>
<totfact> 0.15334813E+04</totfact>
</mgrwt>
</event>
<event>
 5    1  0.1281005E-004  0.1484098E+03  0.7546771E-02  0.1202441E+00
         21   -1    0    0  501  502  0.00000000000E+00  0.00000000000E+00  0.10964772485E+04  0.10964772485E+04  0.00000000000E+00 0.  1.
         21   -1    0    0  502  503 -0.00000000000E+00 -0.00000000000E+00 -0.21137149671E+02  0.21137149671E+02  0.00000000000E+00 0. -1.
         24    1    1    2    0    0 -0.19859567972E+02 -0.11642102269E+02  0.21033775030E+03  0.22636061084E+03  0.80419002446E+02 0. -1.
          1    1    1    2  501    0 -0.25677753051E+02 -0.94365252442E+02  0.34411005020E+03  0.35773715843E+03  0.00000000000E+00 0. -1.
         -2    1    1    2    0  503  0.45537321023E+02  0.10600735471E+03  0.52089229835E+03  0.53351662893E+03  0.00000000000E+00 0.  1.
<mgrwt>
<rscale>  2 0.14840984E+03</rscale>
<asrwt>0</asrwt>
<pdfrwt beam="1">  1       21 0.16868876E+00 0.14840984E+03</pdfrwt>
<pdfrwt beam="2">  1       21 0.32518700E-02 0.14840984E+03</pdfrwt>
<totfact> 0.12336863E+05</totfact>
</mgrwt>
</event>
<event>
 5    1  0.1281005E-004  0.1240470E+03  0.7546771E-02  0.1236566E+00
         21   -1    0    0  503  502  0.00000000000E+00  0.00000000000E+00  0.17365342957E+03  0.17365342957E+03  0.00000000000E+00 0. -1.
         21   -1    0    0  501  503 -0.00000000000E+00 -0.00000000000E+00 -0.89654245145E+02  0.89654245145E+02  0.00000000000E+00 0.  1.
         24    1    1    2    0    0  0.43916265908E+02  0.36246573984E+02  0.21695129730E+02  0.10089770634E+03  0.80419002446E+02 0.  0.
          1    1    1    2  501    0 -0.83740626348E+02  0.14565018240E+02  0.29314242846E+02  0.89910828553E+02  0.00000000000E+00 0. -1.
         -2    1    1    2    0  502  0.39824360440E+02 -0.50811592223E+02  0.32989811852E+02  0.72499139821E+02  0.00000000000E+00 0.  1.
<mgrwt>
<rscale>  2 0.12404698E+03</rscale>
<asrwt>0</asrwt>
<pdfrwt beam="1">  1       21 0.26715912E-01 0.12404698E+03</pdfrwt>
<pdfrwt beam="2">  1       21 0.13792961E-01 0.12404698E+03</pdfrwt>
<totfact> 0.61298060E+05</totfact>
</mgrwt>
</event>
<event>
 5    1  0.1281005E-004  0.1367224E+03  0.7546771E-02  0.1217809E+00
         21   -1    0    0  501  502  0.00000000000E+00  0.00000000000E+00  0.18120035701E+03  0.18120035701E+03  0.00000000000E+00 0. -1.
         21   -1    0    0  502  503 -0.00000000000E+00 -0.00000000000E+00 -0.10372974248E+03  0.10372974248E+03  0.00000000000E+00 0. -1.
         24    1    1    2    0    0  0.23940959428E+02 -0.64635542802E+02  0.23391208397E+02  0.10846791008E+03  0.80419002446E+02 0.  0.
          1    1    1    2  501    0 -0.31978588696E+02 -0.46317906713E+02  0.24261523944E+02  0.61291109970E+02  0.00000000000E+00 0. -1.
         -2    1    1    2    0  503  0.80376292674E+01  0.11095344951E+03  0.29817882191E+02  0.11517107945E+03  0.00000000000E+00 0.  1.
<mgrwt>
<rscale>  2 0.13672236E+03</rscale>
<asrwt>0</asrwt>
<pdfrwt beam="1">  1       21 0.27876978E-01 0.13672236E+03</pdfrwt>
<pdfrwt beam="2">  1       21 0.15958422E-01 0.13672236E+03</pdfrwt>
<totfact> 0.43422388E+05</totfact>
</mgrwt>
</event>
<event>
 5    1  0.1281005E-004  0.2376037E+03  0.7546771E-02  0.1121400E+00
         21   -1    0    0  501  502  0.00000000000E+00  0.00000000000E+00  0.29353763547E+02  0.29353763547E+02  0.00000000000E+00 0.  1.
         21   -1    0    0  502  503 -0.00000000000E+00 -0.00000000000E+00 -0.21378857361E+04  0.21378857361E+04  0.00000000000E+00 0. -1.
         24    1    1    2    0    0  0.90192772554E+02 -0.10762020824E+03 -0.69263362549E+03  0.71128433173E+03  0.80419002446E+02 0. -1.
          1    1    1    2  501    0  0.51153153730E+02 -0.69809290813E+02 -0.18390579431E+03  0.20325187182E+03  0.00000000000E+00 0. -1.
         -2    1    1    2    0  503 -0.14134592628E+03  0.17742949905E+03 -0.12319925528E+04  0.12527032961E+04  0.00000000000E+00 0.  1.
<mgrwt>
<rscale>  2 0.23760366E+03</rscale>
<asrwt>0</asrwt>
<pdfrwt beam="1">  1       21 0.45159632E-02 0.23760366E+03</pdfrwt>
<pdfrwt beam="2">  1       21 0.32890553E+00 0.23760366E+03</pdfrwt>
<totfact> 0.70736955E+03</totfact>
</mgrwt>
</event>
<event>
 5    1  0.1281005E-004  0.9769959E+02  0.7546771E-02  0.1285209E+00
         21   -1    0    0  501  502  0.00000000000E+00  0.00000000000E+00  0.23191213810E+03  0.23191213810E+03  0.00000000000E+00 0.  1.
         21   -1    0    0  502  503 -0.00000000000E+00 -0.00000000000E+00 -0.48306548325E+02  0.48306548325E+02  0.00000000000E+00 0. -1.
         24    1    1    2    0    0 -0.66545133361E+01  0.29121667811E+02  0.91367160401E+02  0.12532967740E+03  0.80419002446E+02 0.  0.
          1    1    1    2  501    0  0.38720791668E+02 -0.55786003282E+02  0.90505802851E+02  0.11314892054E+03  0.00000000000E+00 0. -1.
         -2    1    1    2    0  503 -0.32066278332E+02  0.26664335471E+02  0.17326265279E+01  0.41740088487E+02  0.00000000000E+00 0.  1.
<mgrwt>
<rscale>  2 0.97699588E+02</rscale>
<asrwt>0</asrwt>
<pdfrwt beam="1">  1       21 0.35678790E-01 0.97699588E+02</pdfrwt>
<pdfrwt beam="2">  1       21 0.74317768E-02 0.97699588E+02</pdfrwt>
<totfact> 0.10307120E+06</totfact>
</mgrwt>
</event>
<event>
 5    1  0.1281005E-004  0.1555720E+03  0.7546771E-02  0.1193789E+00
         21   -1    0    0  501  502  0.00000000000E+00  0.00000000000E+00  0.17863634192E+03  0.17863634192E+03  0.00000000000E+00 0. -1.
         21   -1    0    0  502  503 -0.00000000000E+00 -0.00000000000E+00 -0.15498370524E+03  0.15498370524E+03  0.00000000000E+00 0. -1.
         24    1    1    2    0    0  0.10666030863E+03 -0.67121939677E+02 -0.47647790949E+02  0.15690539876E+03  0.80419002446E+02 0. -1.
          1    1    1    2  501    0 -0.97421215323E+02  0.92684805690E+02  0.60837093318E+02  0.14758901831E+03  0.00000000000E+00 0. -1.
         -2    1    1    2    0  503 -0.92390933067E+01 -0.25562866013E+02  0.10463334311E+02  0.29125630102E+02  0.00000000000E+00 0.  1.
<mgrwt>
<rscale>  2 0.15557201E+03</rscale>
<asrwt>0</asrwt>
<pdfrwt beam="1">  1       21 0.27482514E-01 0.15557201E+03</pdfrwt>
<pdfrwt beam="2">  1       21 0.23843647E-01 0.15557201E+03</pdfrwt>
<totfact> 0.21155021E+05</totfact>
</mgrwt>
</event>
<event>
 5    1  0.1281005E-004  0.1533019E+03  0.7546771E-02  0.1196473E+00
         21   -1    0    0  503  502  0.00000000000E+00  0.00000000000E+00  0.14562775176E+03  0.14562775176E+03  0.00000000000E+00 0.  1.
         21   -1    0    0  501  503 -0.00000000000E+00 -0.00000000000E+00 -0.17616731104E+03  0.17616731104E+03  0.00000000000E+00 0. -1.
         24    1    1    2    0    0 -0.93805093917E+02 -0.18852154027E+02  0.10905710318E+02  0.12546294205E+03  0.80419002446E+02 0.  0.
          1    1    1    2  501    0  0.13626465210E+03  0.30128467675E+01 -0.57945360984E+02  0.14810400912E+03  0.00000000000E+00 0. -1.
         -2    1    1    2    0  502 -0.42459558181E+02  0.15839307259E+02  0.16500091388E+02  0.48228111628E+02  0.00000000000E+00 0.  1.
<mgrwt>
<rscale>  2 0.15330188E+03</rscale>
<asrwt>0</asrwt>
<pdfrwt beam="1">  1       21 0.22404270E-01 0.15330188E+03</pdfrwt>
<pdfrwt beam="2">  1       21 0.27102663E-01 0.15330188E+03</pdfrwt>
<totfact> 0.24442591E+05</totfact>
</mgrwt>
</event>
<event>
 5    1  0.1281005E-004  0.2718956E+03  0.7546771E-02  0.1100200E+00
         21   -1    0    0  501  502  0.00000000000E+00  0.00000000000E+00  0.16423267829E+03  0.16423267829E+03  0.00000000000E+00 0.  1.
         21   -1    0    0  502  503 -0.00000000000E+00 -0.00000000000E+00 -0.49231943656E+03  0.49231943656E+03  0.00000000000E+00 0. -1.
         24    1    1    2    0    0 -0.87094212738E+02 -0.13165863268E+02 -0.18001206267E+01  0.11928620304E+03  0.80419002446E+02 0. -1.
          1    1    1    2  501    0 -0.86315647826E+02 -0.15851969047E+03 -0.11133249386E+03  0.21207028909E+03  0.00000000000E+00 0. -1.
         -2    1    1    2    0  503  0.17340986056E+03  0.17168555374E+03 -0.21495414379E+03  0.32519562272E+03  0.00000000000E+00 0.  1.
<mgrwt>
<rscale>  2 0.27189559E+03</rscale>
<asrwt>0</asrwt>
<pdfrwt beam="1">  1       21 0.25266566E-01 0.27189559E+03</pdfrwt>
<pdfrwt beam="2">  1       21 0.75741451E-01 0.27189559E+03</pdfrwt>
<totfact> 0.22161179E+04</totfact>
</mgrwt>
</event>
<event>
 5    1  0.1281005E-004  0.1367386E+03  0.7546771E-02  0.1217786E+00
         21   -1    0    0  503  502  0.00000000000E+00  0.00000000000E+00  0.13554725846E+04  0.13554725846E+04  0.00000000000E+00 0.  1.
         21   -1    0    0  501  503 -0.00000000000E+00 -0.00000000000E+00 -0.14243342082E+02  0.14243342082E+02  0.00000000000E+00 0. -1.
         24    1    1    2    0    0  0.68889534696E+01 -0.24706506743E+02  0.31208394096E+03  0.32329780592E+03  0.80419002446E+02 0. -1.
          1    1    1    2  501    0  0.44453154237E+02 -0.69079951038E+02  0.47534675867E+03  0.48239264457E+03  0.00000000000E+00 0. -1.
         -2    1    1    2    0  502 -0.51342107706E+02  0.93786457781E+02  0.55379854294E+03  0.56402547624E+03  0.00000000000E+00 0.  1.
<mgrwt>
<rscale>  2 0.13673865E+03</rscale>
<asrwt>0</asrwt>
<pdfrwt beam="1">  1       21 0.20853414E+00 0.13673865E+03</pdfrwt>
<pdfrwt beam="2">  1       21 0.21912845E-02 0.13673865E+03</pdfrwt>
<totfact> 0.12995686E+05</totfact>
</mgrwt>
</event>
<event>
 5    1  0.1281005E-004  0.1582062E+03  0.7546771E-02  0.1190737E+00
         21   -1    0    0  501  502  0.00000000000E+00  0.00000000000E+00  0.61352310135E+03  0.61352310135E+03  0.00000000000E+00 0.  1.
         21   -1    0    0  502  503 -0.00000000000E+00 -0.00000000000E+00 -0.41207286970E+02  0.41207286970E+02  0.00000000000E+00 0.  1.
         24    1    1    2    0    0 -0.20770224329E+01  0.97208805103E+02  0.19941723913E+03  0.23598372195E+03  0.80419002446E+02 0.  1.
          1    1    1    2  501    0  0.35711932863E+02  0.37266818049E+02  0.91334343629E+02  0.10491005768E+03  0.00000000000E+00 0. -1.
         -2    1    1    2    0  503 -0.33634910430E+02 -0.13447562315E+03  0.28156423162E+03  0.31383660869E+03  0.00000000000E+00 0.  1.
<mgrwt>
<rscale>  2 0.15820622E+03</rscale>
<asrwt>0</asrwt>
<pdfrwt beam="1">  1       21 0.94388163E-01 0.15820622E+03</pdfrwt>
<pdfrwt beam="2">  1       21 0.63395830E-02 0.15820622E+03</pdfrwt>
<totfact> 0.17078489E+05</totfact>
</mgrwt>
</event>
<event>
 5    1  0.1281005E-004  0.1415506E+03  0.7546771E-02  0.1211258E+00
         21   -1    0    0  503  502  0.00000000000E+00  0.00000000000E+00  0.35309372951E+02  0.35309372951E+02  0.00000000000E+00 0. -1.
         21   -1    0    0  501  503 -0.00000000000E+00 -0.00000000000E+00 -0.63618999149E+03  0.63618999149E+03  0.00000000000E+00 0.  1.
         24    1    1    2    0    0 -0.42675267450E+02 -0.77547796659E+02 -0.15162265118E+03  0.19311002958E+03  0.80419002446E+02 0. -1.
          1    1    1    2  501    0  0.90686876968E+02  0.70748529794E+02 -0.29246724345E+03  0.31427146325E+03  0.00000000000E+00 0. -1.
         -2    1    1    2    0  502 -0.48011609518E+02  0.67992668652E+01 -0.15679072391E+03  0.16411787161E+03  0.00000000000E+00 0.  1.
<mgrwt>
<rscale>  2 0.14155064E+03</rscale>
<asrwt>0</asrwt>
<pdfrwt beam="1">  1       21 0.54322116E-02 0.14155064E+03</pdfrwt>
<pdfrwt beam="2">  1       21 0.97875376E-01 0.14155064E+03</pdfrwt>
<totfact> 0.20508552E+05</totfact>
</mgrwt>
</event>
<event>
 5    1  0.1281005E-004  0.1551167E+03  0.7546771E-02  0.1194323E+00
         21   -1    0    0  501  502  0.00000000000E+00  0.00000000000E+00  0.44028274385E+02  0.44028274385E+02  0.00000000000E+00 0. -1.
         21   -1    0    0  502  503 -0.00000000000E+00 -0.00000000000E+00 -0.56208334283E+03  0.56208334283E+03  0.00000000000E+00 0. -1.
         24    1    1    2    0    0  0.95384026087E+02  0.18726040569E+02 -0.17708392586E+03  0.21742748166E+03  0.80419002446E+02 0. -1.
          1    1    1    2  501    0 -0.13190918896E+03 -0.44676316232E+02 -0.22823783979E+03  0.26737336980E+03  0.00000000000E+00 0. -1.
         -2    1    1    2    0  503  0.36525162876E+02  0.25950275662E+02 -0.11273330280E+03  0.12131076576E+03  0.00000000000E+00 0.  1.
<mgrwt>
<rscale>  2 0.15511667E+03</rscale>
<asrwt>0</asrwt>
<pdfrwt beam="1">  1       21 0.67735809E-02 0.15511667E+03</pdfrwt>
<pdfrwt beam="2">  1       21 0.86474358E-01 0.15511667E+03</pdfrwt>
<totfact> 0.18670055E+05</totfact>
</mgrwt>
</event>
<event>
 5    1  0.1281005E-004  0.1555760E+03  0.7546771E-02  0.1193784E+00
         21   -1    0    0  503  502  0.00000000000E+00  0.00000000000E+00  0.42573174606E+02  0.42573174606E+02  0.00000000000E+00 0.  1.
         21   -1    0    0  501  503 -0.00000000000E+00 -0.00000000000E+00 -0.63459998845E+03  0.63459998845E+03  0.00000000000E+00 0. -1.
         24    1    1    2    0    0  0.15147397948E+02  0.41645746026E+02 -0.27979881045E+03  0.29447988405E+03  0.80419002446E+02 0.  1.
          1    1    1    2  501    0  0.93295763116E+02  0.18812833802E+02 -0.16100885472E+03  0.18703441777E+03  0.00000000000E+00 0. -1.
         -2    1    1    2    0  502 -0.10844316106E+03 -0.60458579827E+02 -0.15121914867E+03  0.19565886124E+03  0.00000000000E+00 0.  1.
<mgrwt>
<rscale>  2 0.15557603E+03</rscale>
<asrwt>0</asrwt>
<pdfrwt beam="1">  1       21 0.65497195E-02 0.15557603E+03</pdfrwt>
<pdfrwt beam="2">  1       21 0.97630762E-01 0.15557603E+03</pdfrwt>
<totfact> 0.14940676E+05</totfact>
</mgrwt>
</event>
<event>
 5    1  0.1281005E-004  0.9125912E+02  0.7546771E-02  0.1299831E+00
         21   -1    0    0  501  502  0.00000000000E+00  0.00000000000E+00  0.30773078416E+03  0.30773078416E+03  0.00000000000E+00 0. -1.
         21   -1    0    0  502  503 -0.00000000000E+00 -0.00000000000E+00 -0.40061415066E+02  0.40061415066E+02  0.00000000000E+00 0. -1.
         24    1    1    2    0    0  0.27668996188E+02 -0.55882161480E+01  0.31323885094E+02  0.90803101497E+02  0.80419002446E+02 0. -1.
          1    1    1    2  501    0 -0.33085094837E+02 -0.39699524941E+02  0.15910420677E+03  0.16728665336E+03  0.00000000000E+00 0. -1.
         -2    1    1    2    0  503  0.54160986483E+01  0.45287741089E+02  0.77241277229E+02  0.89702444367E+02  0.00000000000E+00 0.  1.
<mgrwt>
<rscale>  2 0.91259121E+02</rscale>
<asrwt>0</asrwt>
<pdfrwt beam="1">  1       21 0.47343196E-01 0.91259121E+02</pdfrwt>
<pdfrwt beam="2">  1       21 0.61632948E-02 0.91259121E+02</pdfrwt>
<totfact> 0.80553345E+05</totfact>
</mgrwt>
</event>
<event>
 5    1  0.1281005E-004  0.1213873E+03  0.7546771E-02  0.1240826E+00
         21   -1    0    0  501  502  0.00000000000E+00  0.00000000000E+00  0.77502375712E+03  0.77502375712E+03  0.00000000000E+00 0. -1.
         21   -1    0    0  502  503 -0.00000000000E+00 -0.00000000000E+00 -0.19755216051E+02  0.19755216051E+02  0.00000000000E+00 0. -1.
         24    1    1    2    0    0  0.47233082417E+02 -0.64375060485E+02  0.43021798975E+03  0.44489307383E+03  0.80419002446E+02 0. -1.
          1    1    1    2  501    0  0.12707178280E+02  0.68213969219E+02  0.17719537436E+03  0.19029665964E+03  0.00000000000E+00 0. -1.
         -2    1    1    2    0  503 -0.59940260697E+02 -0.38389087335E+01  0.14785517696E+03  0.15958923970E+03  0.00000000000E+00 0.  1.
<mgrwt>
<rscale>  2 0.12138726E+03</rscale>
<asrwt>0</asrwt>
<pdfrwt beam="1">  1       21 0.11923440E+00 0.12138726E+03</pdfrwt>
<pdfrwt beam="2">  1       21 0.30392646E-02 0.12138726E+03</pdfrwt>
<totfact> 0.33868754E+05</totfact>
</mgrwt>
</event>
<event>
 5    1  0.1281005E-004  0.2199534E+03  0.7546771E-02  0.1133918E+00
         21   -1    0    0  501  502  0.00000000000E+00  0.00000000000E+00  0.17483455692E+03  0.17483455692E+03  0.00000000000E+00 0. -1.
         21   -1    0    0  502  503 -0.00000000000E+00 -0.00000000000E+00 -0.34149552776E+03  0.34149552776E+03  0.00000000000E+00 0.  1.
         24    1    1    2    0    0  0.68727261410E+02  0.93283132111E+02  0.44715539117E+02  0.14795903011E+03  0.80419002446E+02 0. -1.
          1    1    1    2  501    0 -0.15251110654E+03 -0.13642727609E+03 -0.12059760900E+03  0.23752015193E+03  0.00000000000E+00 0. -1.
         -2    1    1    2    0  503  0.83783845125E+02  0.43144143975E+02 -0.90778900964E+02  0.13085090265E+03  0.00000000000E+00 0.  1.
<mgrwt>
<rscale>  2 0.21995342E+03</rscale>
<asrwt>0</asrwt>
<pdfrwt beam="1">  1       21 0.26897624E-01 0.21995342E+03</pdfrwt>
<pdfrwt beam="2">  1       21 0.52537773E-01 0.21995342E+03</pdfrwt>
<totfact> 0.44628342E+04</totfact>
</mgrwt>
</event>
<event>
 5    1  0.1281005E-004  0.7993807E+02  0.7546771E-02  0.1329227E+00
         21   -1    0    0  501  502  0.00000000000E+00  0.00000000000E+00  0.31534400759E+02  0.31534400759E+02  0.00000000000E+00 0.  1.
         21   -1    0    0  502  503 -0.00000000000E+00 -0.00000000000E+00 -0.20987673514E+03  0.20987673514E+03  0.00000000000E+00 0. -1.
         24    1    1    2    0    0  0.21246981770E+02  0.19903965875E+01 -0.10129117993E+03  0.13108209259E+03  0.80419002446E+02 0. -1.
          1    1    1    2  501    0 -0.20860277768E+02  0.34427341046E+02 -0.27163085140E+02  0.48561571169E+02  0.00000000000E+00 0. -1.
         -2    1    1    2    0  503 -0.38670400203E+00 -0.36417737634E+02 -0.49888069311E+02  0.61767472135E+02  0.00000000000E+00 0.  1.
<mgrwt>
<rscale>  2 0.79938065E+02</rscale>
<asrwt>0</asrwt>
<pdfrwt beam="1">  1       21 0.48514464E-02 0.79938065E+02</pdfrwt>
<pdfrwt beam="2">  1       21 0.32288728E-01 0.79938065E+02</pdfrwt>
<totfact> 0.25431680E+06</totfact>
</mgrwt>
</event>
<event>
 5    1  0.1281005E-004  0.1206491E+03  0.7546771E-02  0.1242030E+00
         21   -1    0    0  503  502  0.00000000000E+00  0.00000000000E+00  0.15084040804E+04  0.15084040804E+04  0.00000000000E+00 0.  1.
         21   -1    0    0  501  503 -0.00000000000E+00 -0.00000000000E+00 -0.10904516878E+02  0.10904516878E+02  0.00000000000E+00 0. -1.
         24    1    1    2    0    0  0.43996941225E+02 -0.28136115167E+02  0.64912457110E+03  0.65616864949E+03  0.80419002446E+02 0.  1.
          1    1    1    2  501    0  0.39175343107E+02 -0.25222771538E+02  0.13200258630E+03  0.13998420804E+03  0.00000000000E+00 0. -1.
         -2    1    1    2    0  502 -0.83172284332E+02  0.53358886706E+02  0.71637240617E+03  0.72315573979E+03  0.00000000000E+00 0.  1.
<mgrwt>
<rscale>  2 0.12064914E+03</rscale>
<asrwt>0</asrwt>
<pdfrwt beam="1">  1       21 0.23206200E+00 0.12064914E+03</pdfrwt>
<pdfrwt beam="2">  1       21 0.16776192E-02 0.12064914E+03</pdfrwt>
<totfact> 0.14605477E+05</totfact>
</mgrwt>
</event>
<event>
 5    1  0.1281005E-004  0.1492349E+03  0.7546771E-02  0.1201416E+00
         21   -1    0    0  503  502  0.00000000000E+00  0.00000000000E+00  0.24597529141E+03  0.24597529141E+03  0.00000000000E+00 0. -1.
         21   -1    0    0  501  503 -0.00000000000E+00 -0.00000000000E+00 -0.93368078582E+02  0.93368078582E+02  0.00000000000E+00 0.  1.
         24    1    1    2    0    0 -0.41108911618E+02 -0.54491691095E+02  0.27313122332E+02  0.10896104634E+03  0.80419002446E+02 0.  0.
          1    1    1    2  501    0 -0.19536408058E+02 -0.60177394740E+02  0.34695567124E+02  0.72157968760E+02  0.00000000000E+00 0. -1.
         -2    1    1    2    0  502  0.60645319676E+02  0.11466908584E+03  0.90598523373E+02  0.15822435490E+03  0.00000000000E+00 0.  1.
<mgrwt>
<rscale>  2 0.14923490E+03</rscale>
<asrwt>0</asrwt>
<pdfrwt beam="1">  1       21 0.37842352E-01 0.14923490E+03</pdfrwt>
<pdfrwt beam="2">  1       21 0.14364320E-01 0.14923490E+03</pdfrwt>
<totfact> 0.28866981E+05</totfact>
</mgrwt>
</event>
<event>
 5    1  0.1281005E-004  0.2067729E+03  0.7546771E-02  0.1144147E+00
         21   -1    0    0  501  502  0.00000000000E+00  0.00000000000E+00  0.15871239202E+03  0.15871239202E+03  0.00000000000E+00 0.  1.
         21   -1    0    0  502  503 -0.00000000000E+00 -0.00000000000E+00 -0.30607540912E+03  0.30607540912E+03  0.00000000000E+00 0. -1.
         24    1    1    2    0    0  0.28157197269E+02 -0.13655914511E+03 -0.11844911039E+03  0.19984653006E+03  0.80419002446E+02 0. -1.
          1    1    1    2  501    0  0.55280601004E+02 -0.32450320328E+02  0.25147964286E+02  0.68857739177E+02  0.00000000000E+00 0. -1.
         -2    1    1    2    0  503 -0.83437798274E+02  0.16900946544E+03 -0.54061870999E+02  0.19608353190E+03  0.00000000000E+00 0.  1.
<mgrwt>
<rscale>  2 0.20677291E+03</rscale>
<asrwt>0</asrwt>
<pdfrwt beam="1">  1       21 0.24417292E-01 0.20677291E+03</pdfrwt>
<pdfrwt beam="2">  1       21 0.47088524E-01 0.20677291E+03</pdfrwt>
<totfact> 0.67944983E+04</totfact>
</mgrwt>
</event>
<event>
 5    1  0.1281005E-004  0.1517783E+03  0.7546771E-02  0.1198305E+00
         21   -1    0    0  501  502  0.00000000000E+00  0.00000000000E+00  0.18612800772E+02  0.18612800772E+02  0.00000000000E+00 0.  1.
         21   -1    0    0  502  503 -0.00000000000E+00 -0.00000000000E+00 -0.12827259670E+04  0.12827259670E+04  0.00000000000E+00 0. -1.
         24    1    1    2    0    0  0.32603835451E+02  0.25890287373E+02 -0.45455414390E+03  0.46348678812E+03  0.80419002446E+02 0. -1.
          1    1    1    2  501    0 -0.10710312068E+03 -0.68539437049E+02 -0.54829890908E+03  0.56285027013E+03  0.00000000000E+00 0. -1.
         -2    1    1    2    0  503  0.74499285225E+02  0.42649149677E+02 -0.26126011326E+03  0.27500170954E+03  0.00000000000E+00 0.  1.
<mgrwt>
<rscale>  2 0.15177828E+03</rscale>
<asrwt>0</asrwt>
<pdfrwt beam="1">  1       21 0.28635079E-02 0.15177828E+03</pdfrwt>
<pdfrwt beam="2">  1       21 0.19734245E+00 0.15177828E+03</pdfrwt>
<totfact> 0.97803692E+04</totfact>
</mgrwt>
</event>
<event>
 5    1  0.1281005E-004  0.1465324E+03  0.7546771E-02  0.1204800E+00
         21   -1    0    0  503  502  0.00000000000E+00  0.00000000000E+00  0.86253759328E+02  0.86253759328E+02  0.00000000000E+00 0. -1.
         21   -1    0    0  501  503 -0.00000000000E+00 -0.00000000000E+00 -0.27480233960E+03  0.27480233960E+03  0.00000000000E+00 0. -1.
         24    1    1    2    0    0 -0.13206969155E+02  0.61221646762E+02 -0.15460180490E+02  0.10309581564E+03  0.80419002446E+02 0. -1.
          1    1    1    2  501    0  0.76211790938E+02 -0.93270146491E+02 -0.10437449073E+03  0.15937876778E+03  0.00000000000E+00 0. -1.
         -2    1    1    2    0  502 -0.63004821784E+02  0.32048499729E+02 -0.68713909050E+02  0.98581515508E+02  0.00000000000E+00 0.  1.
<mgrwt>
<rscale>  2 0.14653239E+03</rscale>
<asrwt>0</asrwt>
<pdfrwt beam="1">  1       21 0.13269809E-01 0.14653239E+03</pdfrwt>
<pdfrwt beam="2">  1       21 0.42277282E-01 0.14653239E+03</pdfrwt>
<totfact> 0.26663846E+05</totfact>
</mgrwt>
</event>
<event>
 5    1  0.1281005E-004  0.2696638E+03  0.7546771E-02  0.1101472E+00
         21   -1    0    0  503  502  0.00000000000E+00  0.00000000000E+00  0.67129139148E+03  0.67129139148E+03  0.00000000000E+00 0.  1.
         21   -1    0    0  501  503 -0.00000000000E+00 -0.00000000000E+00 -0.14684654080E+03  0.14684654080E+03  0.00000000000E+00 0. -1.
         24    1    1    2    0    0 -0.87362738320E+02 -0.14491240671E+03  0.47209819661E+01  0.18740692967E+03  0.80419002446E+02 0. -1.
          1    1    1    2  501    0  0.13629166780E+03 -0.54401908212E+02  0.16417735492E+03  0.22020261169E+03  0.00000000000E+00 0. -1.
         -2    1    1    2    0  502 -0.48928929477E+02  0.19931431492E+03  0.35554651380E+03  0.41052839092E+03  0.00000000000E+00 0.  1.
<mgrwt>
<rscale>  2 0.26966382E+03</rscale>
<asrwt>0</asrwt>
<pdfrwt beam="1">  1       21 0.10327560E+00 0.26966382E+03</pdfrwt>
<pdfrwt beam="2">  1       21 0.22591776E-01 0.26966382E+03</pdfrwt>
<totfact> 0.13342784E+04</totfact>
</mgrwt>
</event>
<event>
 5    1  0.1281005E-004  0.2114518E+03  0.7546771E-02  0.1140421E+00
         21   -1    0    0  501  502  0.00000000000E+00  0.00000000000E+00  0.14526792066E+03  0.14526792066E+03  0.00000000000E+00 0. -1.
         21   -1    0    0  502  503 -0.00000000000E+00 -0.00000000000E+00 -0.34469068263E+03  0.34469068263E+03  0.00000000000E+00 0.  1.
         24    1    1    2    0    0 -0.17151276804E+01 -0.14824207252E+03 -0.33671449875E+01  0.16869264165E+03  0.80419002446E+02 0. -1.
          1    1    1    2  501    0 -0.23923292209E+02 -0.49430934453E+02 -0.48472517642E+02  0.73248386723E+02  0.00000000000E+00 0. -1.
         -2    1    1    2    0  503  0.25638419890E+02  0.19767300697E+03 -0.14758309934E+03  0.24801757492E+03  0.00000000000E+00 0.  1.
<mgrwt>
<rscale>  2 0.21145177E+03</rscale>
<asrwt>0</asrwt>
<pdfrwt beam="1">  1       21 0.22348911E-01 0.21145177E+03</pdfrwt>
<pdfrwt beam="2">  1       21 0.53029335E-01 0.21145177E+03</pdfrwt>
<totfact> 0.62586119E+04</totfact>
</mgrwt>
</event>
<event>
 5    1  0.1281005E-004  0.9730013E+02  0.7546771E-02  0.1286078E+00
         21   -1    0    0  503  502  0.00000000000E+00  0.00000000000E+00  0.10441389326E+03  0.10441389326E+03  0.00000000000E+00 0.  1.
         21   -1    0    0  501  503 -0.00000000000E+00 -0.00000000000E+00 -0.94421650644E+02  0.94421650644E+02  0.00000000000E+00 0. -1.
         24    1    1    2    0    0  0.39983971185E+02  0.13859365597E+02  0.19669357821E+02  0.92977951999E+02  0.80419002446E+02 0.  1.
          1    1    1    2  501    0 -0.70289799354E+02 -0.19401386559E+02 -0.15388345063E+02  0.74524297094E+02  0.00000000000E+00 0. -1.
         -2    1    1    2    0  502  0.30305828169E+02  0.55420209620E+01  0.57112298606E+01  0.31333294813E+02  0.00000000000E+00 0.  1.
<mgrwt>
<rscale>  2 0.97300131E+02</rscale>
<asrwt>0</asrwt>
<pdfrwt beam="1">  1       21 0.16063676E-01 0.97300131E+02</pdfrwt>
<pdfrwt beam="2">  1       21 0.14526408E-01 0.97300131E+02</pdfrwt>
<totfact> 0.14264170E+06</totfact>
</mgrwt>
</event>
<event>
 5    1  0.1281005E-004  0.1965682E+03  0.7546771E-02  0.1152667E+00
         21   -1    0    0  503  502  0.00000000000E+00  0.00000000000E+00  0.10500831628E+04  0.10500831628E+04  0.00000000000E+00 0. -1.
         21   -1    0    0  501  503 -0.00000000000E+00 -0.00000000000E+00 -0.36831682097E+02  0.36831682097E+02  0.00000000000E+00 0.  1.
         24    1    1    2    0    0  0.57609274108E+02  0.18511268979E+02  0.27284952733E+03  0.29081880280E+03  0.80419002446E+02 0.  0.
          1    1    1    2  501    0 -0.17402170547E+03 -0.25464508202E+02  0.45123105228E+03  0.48429480453E+03  0.00000000000E+00 0. -1.
         -2    1    1    2    0  502  0.11641243136E+03  0.69532392234E+01  0.28917090108E+03  0.31180123755E+03  0.00000000000E+00 0.  1.
<mgrwt>
<rscale>  2 0.19656817E+03</rscale>
<asrwt>0</asrwt>
<pdfrwt beam="1">  1       21 0.16155123E+00 0.19656817E+03</pdfrwt>
<pdfrwt beam="2">  1       21 0.56664134E-02 0.19656817E+03</pdfrwt>
<totfact> 0.53196999E+04</totfact>
</mgrwt>
</event>
<event>
 5    1  0.1281005E-004  0.1629041E+03  0.7546771E-02  0.1185457E+00
         21   -1    0    0  501  502  0.00000000000E+00  0.00000000000E+00  0.50710035389E+03  0.50710035389E+03  0.00000000000E+00 0. -1.
         21   -1    0    0  502  503 -0.00000000000E+00 -0.00000000000E+00 -0.54624904469E+02  0.54624904469E+02  0.00000000000E+00 0.  1.
         24    1    1    2    0    0 -0.44572851560E+02 -0.21165258132E+02  0.14119361201E+03  0.16981625150E+03  0.80419002446E+02 0. -1.
          1    1    1    2  501    0  0.44535406761E+02 -0.10043063427E+03  0.19412266277E+03  0.22305452911E+03  0.00000000000E+00 0. -1.
         -2    1    1    2    0  503  0.37444799403E-01  0.12159589241E+03  0.11715917464E+03  0.16885447775E+03  0.00000000000E+00 0.  1.
<mgrwt>
<rscale>  2 0.16290408E+03</rscale>
<asrwt>0</asrwt>
<pdfrwt beam="1">  1       21 0.78015436E-01 0.16290408E+03</pdfrwt>
<pdfrwt beam="2">  1       21 0.84038318E-02 0.16290408E+03</pdfrwt>
<totfact> 0.16194175E+05</totfact>
</mgrwt>
</event>
<event>
 5    1  0.1281005E-004  0.2278317E+03  0.7546771E-02  0.1128175E+00
         21   -1    0    0  503  502  0.00000000000E+00  0.00000000000E+00  0.11499031333E+03  0.11499031333E+03  0.00000000000E+00 0. -1.
         21   -1    0    0  501  503 -0.00000000000E+00 -0.00000000000E+00 -0.47143579380E+03  0.47143579380E+03  0.00000000000E+00 0.  1.
         24    1    1    2    0    0  0.10409154414E+03  0.53711637727E+02 -0.15256889094E+03  0.20848134695E+03  0.80419002446E+02 0.  0.
          1    1    1    2  501    0  0.87779125898E+02  0.44081948740E+02 -0.94921863588E+02  0.13659631523E+03  0.00000000000E+00 0. -1.
         -2    1    1    2    0  502 -0.19187067004E+03 -0.97793586467E+02 -0.10895472594E+03  0.24134844495E+03  0.00000000000E+00 0.  1.
<mgrwt>
<rscale>  2 0.22783165E+03</rscale>
<asrwt>0</asrwt>
<pdfrwt beam="1">  1       21 0.17690818E-01 0.22783165E+03</pdfrwt>
<pdfrwt beam="2">  1       21 0.72528583E-01 0.22783165E+03</pdfrwt>
<totfact> 0.48833312E+04</totfact>
</mgrwt>
</event>
<event>
 5    1  0.1281005E-004  0.3878493E+03  0.7546771E-02  0.1048070E+00
         21   -1    0    0  503  502  0.00000000000E+00  0.00000000000E+00  0.13432435200E+03  0.13432435200E+03  0.00000000000E+00 0.  1.
         21   -1    0    0  501  503 -0.00000000000E+00 -0.00000000000E+00 -0.12043539897E+04  0.12043539897E+04  0.00000000000E+00 0. -1.
         24    1    1    2    0    0  0.73576956105E+02  0.32921702248E+01 -0.70289001482E+02  0.12973883974E+03  0.80419002446E+02 0.  1.
          1    1    1    2  501    0 -0.17036651762E+03  0.30180362785E+03 -0.63696295885E+03  0.72514273840E+03  0.00000000000E+00 0. -1.
         -2    1    1    2    0  502  0.96789561511E+02 -0.30509579807E+03 -0.36277767733E+03  0.48379676352E+03  0.00000000000E+00 0.  1.
<mgrwt>
<rscale>  2 0.38784930E+03</rscale>
<asrwt>0</asrwt>
<pdfrwt beam="1">  1       21 0.20665284E-01 0.38784930E+03</pdfrwt>
<pdfrwt beam="2">  1       21 0.18528523E+00 0.38784930E+03</pdfrwt>
<totfact> 0.32000412E+03</totfact>
</mgrwt>
</event>
<event>
 5    1  0.1281005E-004  0.3178914E+03  0.7546771E-02  0.1076624E+00
         21   -1    0    0  501  502  0.00000000000E+00  0.00000000000E+00  0.50541997753E+03  0.50541997753E+03  0.00000000000E+00 0.  1.
         21   -1    0    0  502  503 -0.00000000000E+00 -0.00000000000E+00 -0.20755164431E+03  0.20755164431E+03  0.00000000000E+00 0. -1.
         24    1    1    2    0    0  0.71057793750E+02 -0.12789275264E+03  0.27714008005E+02  0.16923666395E+03  0.80419002446E+02 0.  0.
          1    1    1    2  501    0  0.64823894862E+02 -0.14784397311E+03  0.64250871782E+02  0.17374738057E+03  0.00000000000E+00 0. -1.
         -2    1    1    2    0  503 -0.13588168861E+03  0.27573672576E+03  0.20590345344E+03  0.36998757732E+03  0.00000000000E+00 0.  1.
<mgrwt>
<rscale>  2 0.31789138E+03</rscale>
<asrwt>0</asrwt>
<pdfrwt beam="1">  1       21 0.77756919E-01 0.31789138E+03</pdfrwt>
<pdfrwt beam="2">  1       21 0.31931022E-01 0.31789138E+03</pdfrwt>
<totfact> 0.12954266E+04</totfact>
</mgrwt>
</event>
<event>
 5    1  0.1281005E-004  0.2813953E+03  0.7546771E-02  0.1094929E+00
         21   -1    0    0  503  502  0.00000000000E+00  0.00000000000E+00  0.25740191834E+03  0.25740191834E+03  0.00000000000E+00 0.  1.
         21   -1    0    0  501  503 -0.00000000000E+00 -0.00000000000E+00 -0.35743947408E+03  0.35743947408E+03  0.00000000000E+00 0. -1.
         24    1    1    2    0    0  0.16643256550E+03 -0.51447548412E+02  0.39157586204E+02  0.19582436418E+03  0.80419002446E+02 0.  0.
          1    1    1    2  501    0 -0.22141885804E+03  0.14338809105E+03 -0.16189467309E+03  0.30950983914E+03  0.00000000000E+00 0. -1.
         -2    1    1    2    0  502  0.54986292547E+02 -0.91940542642E+02  0.22699531134E+02  0.10950718909E+03  0.00000000000E+00 0.  1.
<mgrwt>
<rscale>  2 0.28139527E+03</rscale>
<asrwt>0</asrwt>
<pdfrwt beam="1">  1       21 0.39600295E-01 0.28139527E+03</pdfrwt>
<pdfrwt beam="2">  1       21 0.54990689E-01 0.28139527E+03</pdfrwt>
<totfact> 0.18314487E+04</totfact>
</mgrwt>
</event>
<event>
 5    1  0.1281005E-004  0.1175355E+03  0.7546771E-02  0.1247219E+00
         21   -1    0    0  503  502  0.00000000000E+00  0.00000000000E+00  0.55498157563E+03  0.55498157563E+03  0.00000000000E+00 0.  1.
         21   -1    0    0  501  503 -0.00000000000E+00 -0.00000000000E+00 -0.25567518190E+02  0.25567518190E+02  0.00000000000E+00 0. -1.
         24    1    1    2    0    0  0.29265037834E+02 -0.24252490598E+02  0.23064835589E+03  0.24720539186E+03  0.80419002446E+02 0. -1.
          1    1    1    2  501    0  0.49939254841E+02 -0.21814064467E+02  0.13683136582E+03  0.14728409708E+03  0.00000000000E+00 0. -1.
         -2    1    1    2    0  502 -0.79204292675E+02  0.46066555065E+02  0.16193433573E+03  0.18605960487E+03  0.00000000000E+00 0.  1.
<mgrwt>
<rscale>  2 0.11753546E+03</rscale>
<asrwt>0</asrwt>
<pdfrwt beam="1">  1       21 0.85381772E-01 0.11753546E+03</pdfrwt>
<pdfrwt beam="2">  1       21 0.39334648E-02 0.11753546E+03</pdfrwt>
<totfact> 0.48403742E+05</totfact>
</mgrwt>
</event>
<event>
 5    1  0.1281005E-004  0.9847427E+02  0.7546771E-02  0.1283537E+00
         21   -1    0    0  503  502  0.00000000000E+00  0.00000000000E+00  0.12885885724E+04  0.12885885724E+04  0.00000000000E+00 0. -1.
         21   -1    0    0  501  503 -0.00000000000E+00 -0.00000000000E+00 -0.81895869999E+01  0.81895869999E+01  0.00000000000E+00 0.  1.
         24    1    1    2    0    0  0.62301548254E+02  0.65259261075E+01  0.64692574227E+03  0.65490778175E+03  0.80419002446E+02 0.  1.
          1    1    1    2  501    0 -0.69692883013E+02 -0.25841395109E+02  0.35872135587E+03  0.36634121635E+03  0.00000000000E+00 0. -1.
         -2    1    1    2    0  502  0.73913347588E+01  0.19315469002E+02  0.27475188730E+03  0.27552916134E+03  0.00000000000E+00 0.  1.
<mgrwt>
<rscale>  2 0.98474270E+02</rscale>
<asrwt>0</asrwt>
<pdfrwt beam="1">  1       21 0.19824423E+00 0.98474270E+02</pdfrwt>
<pdfrwt beam="2">  1       21 0.12599375E-02 0.98474270E+02</pdfrwt>
<totfact> 0.37328109E+05</totfact>
</mgrwt>
</event>
<event>
 5    1  0.1281005E-004  0.1252145E+03  0.7546771E-02  0.1234734E+00
         21   -1    0    0  503  502  0.00000000000E+00  0.00000000000E+00  0.33823008478E+02  0.33823008478E+02  0.00000000000E+00 0.  1.
         21   -1    0    0  501  503 -0.00000000000E+00 -0.00000000000E+00 -0.48181140415E+03  0.48181140415E+03  0.00000000000E+00 0. -1.
         24    1    1    2    0    0 -0.23807144307E+02 -0.15607069106E+02 -0.20298922056E+03  0.22018673971E+03  0.80419002446E+02 0.  1.
          1    1    1    2  501    0 -0.68089186224E+02 -0.12061137765E+02 -0.10265589425E+03  0.12377334507E+03  0.00000000000E+00 0. -1.
         -2    1    1    2    0  502  0.91896330531E+02  0.27668206871E+02 -0.14234328086E+03  0.17167432785E+03  0.00000000000E+00 0.  1.
<mgrwt>
<rscale>  2 0.12521453E+03</rscale>
<asrwt>0</asrwt>
<pdfrwt beam="1">  1       21 0.52035399E-02 0.12521453E+03</pdfrwt>
<pdfrwt beam="2">  1       21 0.74124830E-01 0.12521453E+03</pdfrwt>
<totfact> 0.41535753E+05</totfact>
</mgrwt>
</event>
<event>
 5    1  0.1281005E-004  0.1094273E+03  0.7546771E-02  0.1261634E+00
         21   -1    0    0  501  502  0.00000000000E+00  0.00000000000E+00  0.36946582274E+03  0.36946582274E+03  0.00000000000E+00 0. -1.
         21   -1    0    0  502  503 -0.00000000000E+00 -0.00000000000E+00 -0.32930437667E+02  0.32930437667E+02  0.00000000000E+00 0.  1.
         24    1    1    2    0    0 -0.14199992112E+02  0.55600838393E+02  0.13762885506E+03  0.16941667776E+03  0.80419002446E+02 0.  1.
          1    1    1    2  501    0 -0.94849433802E+00  0.31569379001E+02  0.68009122938E+02  0.74985106087E+02  0.00000000000E+00 0. -1.
         -2    1    1    2    0  503  0.15148486450E+02 -0.87170217394E+02  0.13089740707E+03  0.15799447655E+03  0.00000000000E+00 0.  1.
<mgrwt>
<rscale>  2 0.10942729E+03</rscale>
<asrwt>0</asrwt>
<pdfrwt beam="1">  1       21 0.56840893E-01 0.10942729E+03</pdfrwt>
<pdfrwt beam="2">  1       21 0.50662214E-02 0.10942729E+03</pdfrwt>
<totfact> 0.76898016E+05</totfact>
</mgrwt>
</event>
<event>
 5    1  0.1281005E-004  0.2400069E+03  0.7546771E-02  0.1119788E+00
         21   -1    0    0  501  502  0.00000000000E+00  0.00000000000E+00  0.27138096489E+03  0.27138096489E+03  0.00000000000E+00 0. -1.
         21   -1    0    0  502  503 -0.00000000000E+00 -0.00000000000E+00 -0.28855204943E+03  0.28855204943E+03  0.00000000000E+00 0.  1.
         24    1    1    2    0    0  0.19443424991E+02 -0.47406113464E+02  0.43211335637E+02  0.10468916778E+03  0.80419002446E+02 0.  0.
          1    1    1    2  501    0  0.87729946950E+02 -0.14206882472E+03  0.90938079027E+02  0.19013108312E+03  0.00000000000E+00 0. -1.
         -2    1    1    2    0  503 -0.10717337194E+03  0.18947493818E+03 -0.15132049921E+03  0.26511276343E+03  0.00000000000E+00 0.  1.
<mgrwt>
<rscale>  2 0.24000688E+03</rscale>
<asrwt>0</asrwt>
<pdfrwt beam="1">  1       21 0.41750918E-01 0.24000688E+03</pdfrwt>
<pdfrwt beam="2">  1       21 0.44392623E-01 0.24000688E+03</pdfrwt>
<totfact> 0.26247624E+04</totfact>
</mgrwt>
</event>
<event>
 5    1  0.1281005E-004  0.1828344E+03  0.7546771E-02  0.1165088E+00
         21   -1    0    0  503  502  0.00000000000E+00  0.00000000000E+00  0.35969558153E+02  0.35969558153E+02  0.00000000000E+00 0.  1.
         21   -1    0    0  501  503 -0.00000000000E+00 -0.00000000000E+00 -0.10073180502E+04  0.10073180502E+04  0.00000000000E+00 0. -1.
         24    1    1    2    0    0  0.76341475211E+01 -0.62618900547E+02 -0.36115173267E+03  0.37533611188E+03  0.80419002446E+02 0. -1.
          1    1    1    2  501    0 -0.13121633956E+03  0.19978987425E+02 -0.38888131348E+03  0.41090821807E+03  0.00000000000E+00 0. -1.
         -2    1    1    2    0  502  0.12358219204E+03  0.42639913122E+02 -0.22131544590E+03  0.25704327840E+03  0.00000000000E+00 0.  1.
<mgrwt>
<rscale>  2 0.18283441E+03</rscale>
<asrwt>0</asrwt>
<pdfrwt beam="1">  1       21 0.55337796E-02 0.18283441E+03</pdfrwt>
<pdfrwt beam="2">  1       21 0.15497197E+00 0.18283441E+03</pdfrwt>
<totfact> 0.62408207E+04</totfact>
</mgrwt>
</event>
<event>
 5    1  0.1281005E-004  0.1228007E+03  0.7546771E-02  0.1238547E+00
         21   -1    0    0  501  502  0.00000000000E+00  0.00000000000E+00  0.66801596419E+02  0.66801596419E+02  0.00000000000E+00 0. -1.
         21   -1    0    0  502  503 -0.00000000000E+00 -0.00000000000E+00 -0.24259457902E+03  0.24259457902E+03  0.00000000000E+00 0.  1.
         24    1    1    2    0    0 -0.48571026968E+02  0.12633573263E+01 -0.10426636083E+03  0.14035466037E+03  0.80419002446E+02 0.  0.
          1    1    1    2  501    0  0.10008600536E+03  0.77329557529E+00 -0.35721201377E+02  0.10627234204E+03  0.00000000000E+00 0. -1.
         -2    1    1    2    0  503 -0.51514978389E+02 -0.20366529016E+01 -0.35805420392E+02  0.62769173030E+02  0.00000000000E+00 0.  1.
<mgrwt>
<rscale>  2 0.12280071E+03</rscale>
<asrwt>0</asrwt>
<pdfrwt beam="1">  1       21 0.10277169E-01 0.12280071E+03</pdfrwt>
<pdfrwt beam="2">  1       21 0.37322243E-01 0.12280071E+03</pdfrwt>
<totfact> 0.53955488E+05</totfact>
</mgrwt>
</event>
<event>
 5    1  0.1281005E-004  0.9093905E+02  0.7546771E-02  0.1300593E+00
         21   -1    0    0  501  502  0.00000000000E+00  0.00000000000E+00  0.56714162254E+03  0.56714162254E+03  0.00000000000E+00 0.  1.
         21   -1    0    0  502  503 -0.00000000000E+00 -0.00000000000E+00 -0.14659543500E+02  0.14659543500E+02  0.00000000000E+00 0.  1.
         24    1    1    2    0    0  0.31922683840E+02  0.31639916046E+02  0.29399256924E+03  0.30808925452E+03  0.80419002446E+02 0.  1.
          1    1    1    2  501    0 -0.28177282503E+02  0.22143829164E+02  0.11347479859E+03  0.11899932073E+03  0.00000000000E+00 0. -1.
         -2    1    1    2    0  503 -0.37454013377E+01 -0.53783745209E+02  0.14501471121E+03  0.15471259079E+03  0.00000000000E+00 0.  1.
<mgrwt>
<rscale>  2 0.90939053E+02</rscale>
<asrwt>0</asrwt>
<pdfrwt beam="1">  1       21 0.87252540E-01 0.90939053E+02</pdfrwt>
<pdfrwt beam="2">  1       21 0.22553148E-02 0.90939053E+02</pdfrwt>
<totfact> 0.11424360E+06</totfact>
</mgrwt>
</event>
<event>
 5    1  0.1281005E-004  0.2481858E+03  0.7546771E-02  0.1114457E+00
         21   -1    0    0  501  502  0.00000000000E+00  0.00000000000E+00  0.14975319983E+04  0.14975319983E+04  0.00000000000E+00 0.  1.
         21   -1    0    0  502  503 -0.00000000000E+00 -0.00000000000E+00 -0.52416544808E+02  0.52416544808E+02  0.00000000000E+00 0. -1.
         24    1    1    2    0    0 -0.41280359293E+02 -0.57889015820E+00  0.67004451462E+02  0.11252206738E+03  0.80419002446E+02 0. -1.
          1    1    1    2  501    0 -0.17906942202E+03  0.36401714745E+02  0.53930928586E+03  0.56942554259E+03  0.00000000000E+00 0. -1.
         -2    1    1    2    0  503  0.22034978131E+03 -0.35822824586E+02  0.83880171621E+03  0.86800093318E+03  0.00000000000E+00 0.  1.
<mgrwt>
<rscale>  2 0.24818580E+03</rscale>
<asrwt>0</asrwt>
<pdfrwt beam="1">  1       21 0.23038951E+00 0.24818580E+03</pdfrwt>
<pdfrwt beam="2">  1       21 0.80640850E-02 0.24818580E+03</pdfrwt>
<totfact> 0.98373810E+03</totfact>
</mgrwt>
</event>
<event>
 5    1  0.1281005E-004  0.2846803E+03  0.7546771E-02  0.1093160E+00
         21   -1    0    0  501  502  0.00000000000E+00  0.00000000000E+00  0.73049006872E+02  0.73049006872E+02  0.00000000000E+00 0. -1.
         21   -1    0    0  502  503 -0.00000000000E+00 -0.00000000000E+00 -0.11798861199E+04  0.11798861199E+04  0.00000000000E+00 0.  1.
         24    1    1    2    0    0  0.11299269045E+02  0.44301248799E+02 -0.20482007574E+03  0.22474152599E+03  0.80419002446E+02 0. -1.
          1    1    1    2  501    0 -0.24219764799E+03 -0.42801914193E+02 -0.33194077521E+03  0.41312998293E+03  0.00000000000E+00 0. -1.
         -2    1    1    2    0  503  0.23089837895E+03 -0.14993346063E+01 -0.57007626206E+03  0.61506361782E+03  0.00000000000E+00 0.  1.
<mgrwt>
<rscale>  2 0.28468028E+03</rscale>
<asrwt>0</asrwt>
<pdfrwt beam="1">  1       21 0.11238310E-01 0.28468028E+03</pdfrwt>
<pdfrwt beam="2">  1       21 0.18152093E+00 0.28468028E+03</pdfrwt>
<totfact> 0.11023100E+04</totfact>
</mgrwt>
</event>
<event>
 5    1  0.1281005E-004  0.1720576E+03  0.7546771E-02  0.1175719E+00
         21   -1    0    0  503  502  0.00000000000E+00  0.00000000000E+00  0.80586212993E+02  0.80586212993E+02  0.00000000000E+00 0. -1.
         21   -1    0    0  501  503 -0.00000000000E+00 -0.00000000000E+00 -0.39736163822E+03  0.39736163822E+03  0.00000000000E+00 0.  1.
         24    1    1    2    0    0  0.19524040655E+02  0.21084844549E+02 -0.13667764058E+03  0.16116374351E+03  0.80419002446E+02 0.  1.
          1    1    1    2  501    0 -0.76159050729E+02  0.99613233750E+02 -0.68282666986E+02  0.14277786928E+03  0.00000000000E+00 0. -1.
         -2    1    1    2    0  502  0.56635010075E+02 -0.12069807830E+03 -0.11181511766E+03  0.17400623842E+03  0.00000000000E+00 0.  1.
<mgrwt>
<rscale>  2 0.17205764E+03</rscale>
<asrwt>0</asrwt>
<pdfrwt beam="1">  1       21 0.12397879E-01 0.17205764E+03</pdfrwt>
<pdfrwt beam="2">  1       21 0.61132560E-01 0.17205764E+03</pdfrwt>
<totfact> 0.13875957E+05</totfact>
</mgrwt>
</event>
<event>
 5    1  0.1281005E-004  0.2150469E+03  0.7546771E-02  0.1137631E+00
         21   -1    0    0  501  502  0.00000000000E+00  0.00000000000E+00  0.71534115458E+03  0.71534115458E+03  0.00000000000E+00 0.  1.
         21   -1    0    0  502  503 -0.00000000000E+00 -0.00000000000E+00 -0.67157239536E+02  0.67157239536E+02  0.00000000000E+00 0. -1.
         24    1    1    2    0    0 -0.80389542321E+02  0.59701820516E+02  0.16368073114E+03  0.20805139651E+03  0.80419002446E+02 0.  1.
          1    1    1    2  501    0  0.10385804547E+03  0.97660279385E+02  0.29010580477E+03  0.32324201729E+03  0.00000000000E+00 0. -1.
         -2    1    1    2    0  503 -0.23468503148E+02 -0.15736209990E+03  0.19439737913E+03  0.25120498032E+03  0.00000000000E+00 0.  1.
<mgrwt>
<rscale>  2 0.21504691E+03</rscale>
<asrwt>0</asrwt>
<pdfrwt beam="1">  1       21 0.11005248E+00 0.21504691E+03</pdfrwt>
<pdfrwt beam="2">  1       21 0.10331883E-01 0.21504691E+03</pdfrwt>
<totfact> 0.49393942E+04</totfact>
</mgrwt>
</event>
<event>
 5    1  0.1281005E-004  0.1810440E+03  0.7546771E-02  0.1166796E+00
         21   -1    0    0  501  502  0.00000000000E+00  0.00000000000E+00  0.46359459494E+02  0.46359459494E+02  0.00000000000E+00 0.  1.
         21   -1    0    0  502  503 -0.00000000000E+00 -0.00000000000E+00 -0.10241455456E+04  0.10241455456E+04  0.00000000000E+00 0.  1.
         24    1    1    2    0    0  0.70821910547E+02 -0.92330893321E+02 -0.70354183488E+03  0.71762041934E+03  0.80419002446E+02 0.  1.
          1    1    1    2  501    0 -0.13855597242E+02 -0.58128011261E+02 -0.57243463690E+02  0.82750573431E+02  0.00000000000E+00 0. -1.
         -2    1    1    2    0  503 -0.56966313305E+02  0.15045890458E+03 -0.21700078752E+03  0.27013401230E+03  0.00000000000E+00 0.  1.
<mgrwt>
<rscale>  2 0.18104404E+03</rscale>
<asrwt>0</asrwt>
<pdfrwt beam="1">  1       21 0.71322253E-02 0.18104404E+03</pdfrwt>
<pdfrwt beam="2">  1       21 0.15756084E+00 0.18104404E+03</pdfrwt>
<totfact> 0.38687979E+04</totfact>
</mgrwt>
</event>
<event>
 5    1  0.1281005E-004  0.1077448E+03  0.7546771E-02  0.1264804E+00
         21   -1    0    0  501  502  0.00000000000E+00  0.00000000000E+00  0.21826816369E+02  0.21826816369E+02  0.00000000000E+00 0.  1.
         21   -1    0    0  502  503 -0.00000000000E+00 -0.00000000000E+00 -0.55133024176E+03  0.55133024176E+03  0.00000000000E+00 0. -1.
         24    1    1    2    0    0  0.33816329606E+02 -0.12664581616E+02 -0.16582939136E+03  0.18780452276E+03  0.80419002446E+02 0.  1.
          1    1    1    2  501    0 -0.79643737648E+02  0.16544599509E+02 -0.23928647567E+03  0.25273477433E+03  0.00000000000E+00 0. -1.
         -2    1    1    2    0  503  0.45827408042E+02 -0.38800178930E+01 -0.12438755836E+03  0.13261776104E+03  0.00000000000E+00 0.  1.
<mgrwt>
<rscale>  2 0.10774476E+03</rscale>
<asrwt>0</asrwt>
<pdfrwt beam="1">  1       21 0.33579716E-02 0.10774476E+03</pdfrwt>
<pdfrwt beam="2">  1       21 0.84820041E-01 0.10774476E+03</pdfrwt>
<totfact> 0.63824255E+05</totfact>
</mgrwt>
</event>
<event>
 5    1  0.1281005E-004  0.1980083E+03  0.7546771E-02  0.1151430E+00
         21   -1    0    0  503  502  0.00000000000E+00  0.00000000000E+00  0.24061730999E+02  0.24061730999E+02  0.00000000000E+00 0. -1.
         21   -1    0    0  501  503 -0.00000000000E+00 -0.00000000000E+00 -0.21397221850E+04  0.21397221850E+04  0.00000000000E+00 0.  1.
         24    1    1    2    0    0 -0.78683210819E+02  0.10801947853E+03 -0.13901066846E+04  0.13988291768E+04  0.80419002446E+02 0.  0.
          1    1    1    2  501    0 -0.59163730595E+02  0.82205508047E+01 -0.22947667166E+03  0.23712331667E+03  0.00000000000E+00 0. -1.
         -2    1    1    2    0  502  0.13784694141E+03 -0.11624002934E+03 -0.49607709771E+03  0.52783142247E+03  0.00000000000E+00 0.  1.
<mgrwt>
<rscale>  2 0.19800832E+03</rscale>
<asrwt>0</asrwt>
<pdfrwt beam="1">  1       21 0.37018045E-02 0.19800832E+03</pdfrwt>
<pdfrwt beam="2">  1       21 0.32918805E+00 0.19800832E+03</pdfrwt>
<totfact> 0.10264892E+04</totfact>
</mgrwt>
</event>
<event>
 5    1  0.1281005E-004  0.1568827E+03  0.7546771E-02  0.1192262E+00
         21   -1    0    0  503  502  0.00000000000E+00  0.00000000000E+00  0.27494939882E+02  0.27494939882E+02  0.00000000000E+00 0. -1.
         21   -1    0    0  501  503 -0.00000000000E+00 -0.00000000000E+00 -0.12716988730E+04  0.12716988730E+04  0.00000000000E+00 0.  1.
         24    1    1    2    0    0 -0.26688329019E+02  0.45749655922E+02 -0.77637632091E+03  0.78232519168E+03  0.80419002446E+02 0.  1.
          1    1    1    2  501    0 -0.34688122780E+02  0.74658061127E+02 -0.21430563543E+03  0.22957351182E+03  0.00000000000E+00 0. -1.
         -2    1    1    2    0  502  0.61376451799E+02 -0.12040771705E+03 -0.25352197677E+03  0.28729510936E+03  0.00000000000E+00 0.  1.
<mgrwt>
<rscale>  2 0.15688269E+03</rscale>
<asrwt>0</asrwt>
<pdfrwt beam="1">  1       21 0.42299910E-02 0.15688269E+03</pdfrwt>
<pdfrwt beam="2">  1       21 0.19564597E+00 0.15688269E+03</pdfrwt>
<totfact> 0.52349498E+04</totfact>
</mgrwt>
</event>
<event>
 5    1  0.1281005E-004  0.1870694E+03  0.7546771E-02  0.1161131E+00
         21   -1    0    0  503  502  0.00000000000E+00  0.00000000000E+00  0.37384103836E+03  0.37384103836E+03  0.00000000000E+00 0.  1.
         21   -1    0    0  501  503 -0.00000000000E+00 -0.00000000000E+00 -0.97163171115E+02  0.97163171115E+02  0.00000000000E+00 0. -1.
         24    1    1    2    0    0  0.74142039453E+02  0.18607362179E+01  0.42022894250E+02  0.11719063081E+03  0.80419002446E+02 0.  1.
          1    1    1    2  501    0 -0.12511210865E+03 -0.95993609213E+02  0.14352348611E+03  0.21322946280E+03  0.00000000000E+00 0. -1.
         -2    1    1    2    0  502  0.50970069196E+02  0.94132872995E+02  0.91131486881E+02  0.14058411586E+03  0.00000000000E+00 0.  1.
<mgrwt>
<rscale>  2 0.18706943E+03</rscale>
<asrwt>0</asrwt>
<pdfrwt beam="1">  1       21 0.57514005E-01 0.18706943E+03</pdfrwt>
<pdfrwt beam="2">  1       21 0.14948180E-01 0.18706943E+03</pdfrwt>
<totfact> 0.11221448E+05</totfact>
</mgrwt>
</event>
<event>
 5    1  0.1281005E-004  0.2275391E+03  0.7546771E-02  0.1128384E+00
         21   -1    0    0  503  502  0.00000000000E+00  0.00000000000E+00  0.67161339607E+03  0.67161339607E+03  0.00000000000E+00 0. -1.
         21   -1    0    0  501  503 -0.00000000000E+00 -0.00000000000E+00 -0.89614961463E+02  0.89614961463E+02  0.00000000000E+00 0.  1.
         24    1    1    2    0    0 -0.10318830376E+01  0.15496643032E+02  0.19600723994E+02  0.84217664794E+02  0.80419002446E+02 0.  1.
          1    1    1    2  501    0  0.14116347059E+03  0.11470412316E+03  0.32171964463E+03  0.36957771990E+03  0.00000000000E+00 0. -1.
         -2    1    1    2    0  502 -0.14013158755E+03 -0.13020076620E+03  0.24067806598E+03  0.30743297284E+03  0.00000000000E+00 0.  1.
<mgrwt>
<rscale>  2 0.22753914E+03</rscale>
<asrwt>0</asrwt>
<pdfrwt beam="1">  1       21 0.10332513E+00 0.22753914E+03</pdfrwt>
<pdfrwt beam="2">  1       21 0.13786918E-01 0.22753914E+03</pdfrwt>
<totfact> 0.34070001E+04</totfact>
</mgrwt>
</event>
<event>
 5    1  0.1281005E-004  0.1237580E+03  0.7546771E-02  0.1237023E+00
         21   -1    0    0  503  502  0.00000000000E+00  0.00000000000E+00  0.46711542166E+02  0.46711542166E+02  0.00000000000E+00 0. -1.
         21   -1    0    0  501  503 -0.00000000000E+00 -0.00000000000E+00 -0.32931934047E+03  0.32931934047E+03  0.00000000000E+00 0.  1.
         24    1    1    2    0    0  0.12953099495E+01 -0.21119246453E+02 -0.90976557015E+02  0.12325441282E+03  0.80419002446E+02 0.  0.
          1    1    1    2  501    0  0.74399688147E+01 -0.71220437944E+02 -0.73966874962E+02  0.10295048571E+03  0.00000000000E+00 0. -1.
         -2    1    1    2    0  502 -0.87352787642E+01  0.92339684397E+02 -0.11766436632E+03  0.14982598410E+03  0.00000000000E+00 0.  1.
<mgrwt>
<rscale>  2 0.12375795E+03</rscale>
<asrwt>0</asrwt>
<pdfrwt beam="1">  1       21 0.71863909E-02 0.12375795E+03</pdfrwt>
<pdfrwt beam="2">  1       21 0.50664516E-01 0.12375795E+03</pdfrwt>
<totfact> 0.54035175E+05</totfact>
</mgrwt>
</event>
<event>
 5    1  0.1281005E-004  0.2794926E+03  0.7546771E-02  0.1095966E+00
         21   -1    0    0  503  502  0.00000000000E+00  0.00000000000E+00  0.16695521786E+04  0.16695521786E+04  0.00000000000E+00 0.  1.
         21   -1    0    0  501  503 -0.00000000000E+00 -0.00000000000E+00 -0.51840991466E+02  0.51840991466E+02  0.00000000000E+00 0. -1.
         24    1    1    2    0    0  0.72596886586E+02  0.55927967046E+02  0.58952589286E+03  0.60200186025E+03  0.80419002446E+02 0.  1.
          1    1    1    2  501    0 -0.16095388159E+03 -0.20690055912E+03  0.70046885284E+03  0.74791082835E+03  0.00000000000E+00 0. -1.
         -2    1    1    2    0  502  0.88356995001E+02  0.15097259208E+03  0.32771644145E+03  0.37148048148E+03  0.00000000000E+00 0.  1.
<mgrwt>
<rscale>  2 0.27949259E+03</rscale>
<asrwt>0</asrwt>
<pdfrwt beam="1">  1       21 0.25685414E+00 0.27949259E+03</pdfrwt>
<pdfrwt beam="2">  1       21 0.79755384E-02 0.27949259E+03</pdfrwt>
<totfact> 0.67922232E+03</totfact>
</mgrwt>
</event>
<event>
 5    1  0.1281005E-004  0.3636610E+03  0.7546771E-02  0.1057144E+00
         21   -1    0    0  501  502  0.00000000000E+00  0.00000000000E+00  0.80655185257E+03  0.80655185257E+03  0.00000000000E+00 0.  1.
         21   -1    0    0  502  503 -0.00000000000E+00 -0.00000000000E+00 -0.16525478365E+03  0.16525478365E+03  0.00000000000E+00 0.  1.
         24    1    1    2    0    0  0.15242567757E+03 -0.25278524401E+03  0.25318061801E+03  0.39711661771E+03  0.80419002446E+02 0.  1.
          1    1    1    2  501    0  0.83681341255E+02  0.12684412766E+02  0.10411673997E+03  0.13417807848E+03  0.00000000000E+00 0. -1.
         -2    1    1    2    0  503 -0.23610701882E+03  0.24010083124E+03  0.28399971094E+03  0.44051194003E+03  0.00000000000E+00 0.  1.
<mgrwt>
<rscale>  2 0.36366099E+03</rscale>
<asrwt>0</asrwt>
<pdfrwt beam="1">  1       21 0.12408490E+00 0.36366099E+03</pdfrwt>
<pdfrwt beam="2">  1       21 0.25423813E-01 0.36366099E+03</pdfrwt>
<totfact> 0.64687555E+03</totfact>
</mgrwt>
</event>
<event>
 5    1  0.1281005E-004  0.1132083E+03  0.7546771E-02  0.1254741E+00
         21   -1    0    0  503  502  0.00000000000E+00  0.00000000000E+00  0.47476685950E+03  0.47476685950E+03  0.00000000000E+00 0. -1.
         21   -1    0    0  501  503 -0.00000000000E+00 -0.00000000000E+00 -0.37134878800E+02  0.37134878800E+02  0.00000000000E+00 0.  1.
         24    1    1    2    0    0  0.17534598331E+02 -0.60224085605E+02  0.69824158039E+02  0.12360028975E+03  0.80419002446E+02 0.  1.
          1    1    1    2  501    0 -0.50852624868E+02  0.72811583875E+02  0.25736721142E+03  0.27225979820E+03  0.00000000000E+00 0. -1.
         -2    1    1    2    0  502  0.33318026537E+02 -0.12587498270E+02  0.11044061124E+03  0.11604165035E+03  0.00000000000E+00 0.  1.
<mgrwt>
<rscale>  2 0.11320826E+03</rscale>
<asrwt>0</asrwt>
<pdfrwt beam="1">  1       21 0.73041051E-01 0.11320826E+03</pdfrwt>
<pdfrwt beam="2">  1       21 0.57130586E-02 0.11320826E+03</pdfrwt>
<totfact> 0.36727831E+05</totfact>
</mgrwt>
</event>
<event>
 5    1  0.1281005E-004  0.1695259E+03  0.7546771E-02  0.1178343E+00
         21   -1    0    0  503  502  0.00000000000E+00  0.00000000000E+00  0.37127099075E+03  0.37127099075E+03  0.00000000000E+00 0. -1.
         21   -1    0    0  501  503 -0.00000000000E+00 -0.00000000000E+00 -0.80435561294E+02  0.80435561294E+02  0.00000000000E+00 0.  1.
         24    1    1    2    0    0 -0.63713826476E+02 -0.93469620422E+02  0.16259539536E+03  0.21377675312E+03  0.80419002446E+02 0.  0.
          1    1    1    2  501    0 -0.16697957209E+02 -0.40613895113E+02  0.24333149095E+02  0.50203708988E+02  0.00000000000E+00 0. -1.
         -2    1    1    2    0  502  0.80411783685E+02  0.13408351554E+03  0.10390688500E+03  0.18772608994E+03  0.00000000000E+00 0.  1.
<mgrwt>
<rscale>  2 0.16952589E+03</rscale>
<asrwt>0</asrwt>
<pdfrwt beam="1">  1       21 0.57118613E-01 0.16952589E+03</pdfrwt>
<pdfrwt beam="2">  1       21 0.12374702E-01 0.16952589E+03</pdfrwt>
<totfact> 0.16109245E+05</totfact>
</mgrwt>
</event>
<event>
 5    1  0.1281005E-004  0.2045493E+03  0.7546771E-02  0.1145957E+00
         21   -1    0    0  501  502  0.00000000000E+00  0.00000000000E+00  0.90152065969E+02  0.90152065969E+02  0.00000000000E+00 0.  1.
         21   -1    0    0  502  503 -0.00000000000E+00 -0.00000000000E+00 -0.47958456542E+03  0.47958456542E+03  0.00000000000E+00 0. -1.
         24    1    1    2    0    0 -0.83691372198E+02 -0.73870861259E+02 -0.16269048134E+03  0.21306468172E+03  0.80419002446E+02 0.  0.
          1    1    1    2  501    0 -0.57755216222E+02 -0.55303653915E+02 -0.41044430828E+02  0.89882169751E+02  0.00000000000E+00 0. -1.
         -2    1    1    2    0  503  0.14144658842E+03  0.12917451517E+03 -0.18569758729E+03  0.26678977992E+03  0.00000000000E+00 0.  1.
<mgrwt>
<rscale>  2 0.20454928E+03</rscale>
<asrwt>0</asrwt>
<pdfrwt beam="1">  1       21 0.13869549E-01 0.20454928E+03</pdfrwt>
<pdfrwt beam="2">  1       21 0.73782241E-01 0.20454928E+03</pdfrwt>
<totfact> 0.74177610E+04</totfact>
</mgrwt>
</event>
<event>
 5    1  0.1281005E-004  0.1400401E+03  0.7546771E-02  0.1213275E+00
         21   -1    0    0  501  502  0.00000000000E+00  0.00000000000E+00  0.57152686650E+02  0.57152686650E+02  0.00000000000E+00 0. -1.
         21   -1    0    0  502  503 -0.00000000000E+00 -0.00000000000E+00 -0.36563917731E+03  0.36563917731E+03  0.00000000000E+00 0.  1.
         24    1    1    2    0    0  0.15875966260E+02 -0.73261350158E+02 -0.81576974595E+02  0.13689883298E+03  0.80419002446E+02 0.  0.
          1    1    1    2  501    0 -0.20445040347E+01  0.12070527276E+03 -0.13194348679E+03  0.17883798974E+03  0.00000000000E+00 0. -1.
         -2    1    1    2    0  503 -0.13831462226E+02 -0.47443922602E+02 -0.94966029277E+02  0.10705504124E+03  0.00000000000E+00 0.  1.
<mgrwt>
<rscale>  2 0.14004006E+03</rscale>
<asrwt>0</asrwt>
<pdfrwt beam="1">  1       21 0.87927211E-02 0.14004006E+03</pdfrwt>
<pdfrwt beam="2">  1       21 0.56252180E-01 0.14004006E+03</pdfrwt>
<totfact> 0.30615894E+05</totfact>
</mgrwt>
</event>
<event>
 5    1  0.1281005E-004  0.1049871E+03  0.7546771E-02  0.1270145E+00
         21   -1    0    0  503  502  0.00000000000E+00  0.00000000000E+00  0.50607452450E+02  0.50607452450E+02  0.00000000000E+00 0.  1.
         21   -1    0    0  501  503 -0.00000000000E+00 -0.00000000000E+00 -0.23126944238E+03  0.23126944238E+03  0.00000000000E+00 0.  1.
         24    1    1    2    0    0 -0.12952498616E+02  0.39665625738E+02 -0.10707813729E+03  0.14026429527E+03  0.80419002446E+02 0.  1.
          1    1    1    2  501    0 -0.44817268006E+02  0.66791376265E+01 -0.39382977765E+02  0.60035134118E+02  0.00000000000E+00 0. -1.
         -2    1    1    2    0  502  0.57769766622E+02 -0.46344763365E+02 -0.34200874871E+02  0.81577465447E+02  0.00000000000E+00 0.  1.
<mgrwt>
<rscale>  2 0.10498709E+03</rscale>
<asrwt>0</asrwt>
<pdfrwt beam="1">  1       21 0.77857620E-02 0.10498709E+03</pdfrwt>
<pdfrwt beam="2">  1       21 0.35579914E-01 0.10498709E+03</pdfrwt>
<totfact> 0.95813707E+05</totfact>
</mgrwt>
</event>
<event>
 5    1  0.1281005E-004  0.2277026E+03  0.7546771E-02  0.1128267E+00
         21   -1    0    0  503  502  0.00000000000E+00  0.00000000000E+00  0.37294590984E+03  0.37294590984E+03  0.00000000000E+00 0.  1.
         21   -1    0    0  501  503 -0.00000000000E+00 -0.00000000000E+00 -0.19496784404E+03  0.19496784404E+03  0.00000000000E+00 0. -1.
         24    1    1    2    0    0  0.79550209602E+00  0.74790234267E+02  0.17302097135E+03  0.20493336587E+03  0.80419002446E+02 0.  1.
          1    1    1    2  501    0 -0.35614755792E+02  0.13156916836E+03 -0.52330678437E+02  0.14600464650E+03  0.00000000000E+00 0. -1.
         -2    1    1    2    0  502  0.34819253696E+02 -0.20635940263E+03  0.57287772884E+02  0.21697574151E+03  0.00000000000E+00 0.  1.
<mgrwt>
<rscale>  2 0.22770257E+03</rscale>
<asrwt>0</asrwt>
<pdfrwt beam="1">  1       21 0.57376293E-01 0.22770257E+03</pdfrwt>
<pdfrwt beam="2">  1       21 0.29995053E-01 0.22770257E+03</pdfrwt>
<totfact> 0.29837104E+04</totfact>
</mgrwt>
</event>
<event>
 5    1  0.1281005E-004  0.3200760E+03  0.7546771E-02  0.1075614E+00
         21   -1    0    0  503  502  0.00000000000E+00  0.00000000000E+00  0.51152056191E+03  0.51152056191E+03  0.00000000000E+00 0.  1.
         21   -1    0    0  501  503 -0.00000000000E+00 -0.00000000000E+00 -0.20335839490E+03  0.20335839490E+03  0.00000000000E+00 0.  1.
         24    1    1    2    0    0  0.15006969533E+03  0.18819600496E+03  0.15748815673E+03  0.29867772800E+03  0.80419002446E+02 0.  1.
          1    1    1    2  501    0  0.52674125115E+02  0.50650554038E+02  0.14052436892E+02  0.74414468106E+02  0.00000000000E+00 0. -1.
         -2    1    1    2    0  502 -0.20274382044E+03 -0.23884655900E+03  0.13662157339E+03  0.34178676070E+03  0.00000000000E+00 0.  1.
<mgrwt>
<rscale>  2 0.32007603E+03</rscale>
<asrwt>0</asrwt>
<pdfrwt beam="1">  1       21 0.78695471E-01 0.32007603E+03</pdfrwt>
<pdfrwt beam="2">  1       21 0.31285907E-01 0.32007603E+03</pdfrwt>
<totfact> 0.13113824E+04</totfact>
</mgrwt>
</event>
<event>
 5    1  0.1281005E-004  0.1676403E+03  0.7546771E-02  0.1180331E+00
         21   -1    0    0  501  502  0.00000000000E+00  0.00000000000E+00  0.20852638975E+03  0.20852638975E+03  0.00000000000E+00 0. -1.
         21   -1    0    0  502  503 -0.00000000000E+00 -0.00000000000E+00 -0.14817555559E+03  0.14817555559E+03  0.00000000000E+00 0.  1.
         24    1    1    2    0    0 -0.25343618449E+02  0.42688507444E+01 -0.58169540000E+01  0.84626089305E+02  0.80419002446E+02 0.  1.
          1    1    1    2  501    0 -0.10039132869E+03 -0.55930481377E+02  0.72699009247E+02  0.13598449753E+03  0.00000000000E+00 0. -1.
         -2    1    1    2    0  503  0.12573494714E+03  0.51661630632E+02 -0.65312210872E+01  0.13609135851E+03  0.00000000000E+00 0.  1.
<mgrwt>
<rscale>  2 0.16764031E+03</rscale>
<asrwt>0</asrwt>
<pdfrwt beam="1">  1       21 0.32080983E-01 0.16764031E+03</pdfrwt>
<pdfrwt beam="2">  1       21 0.22796239E-01 0.16764031E+03</pdfrwt>
<totfact> 0.17001286E+05</totfact>
</mgrwt>
</event>
<event>
 5    1  0.1281005E-004  0.1506251E+03  0.7546771E-02  0.1199707E+00
         21   -1    0    0  503  502  0.00000000000E+00  0.00000000000E+00  0.72793418446E+02  0.72793418446E+02  0.00000000000E+00 0. -1.
         21   -1    0    0  501  503 -0.00000000000E+00 -0.00000000000E+00 -0.33211170338E+03  0.33211170338E+03  0.00000000000E+00 0.  1.
         24    1    1    2    0    0 -0.40641045238E+02  0.64158967565E+01 -0.36870784907E+02  0.97568073791E+02  0.80419002446E+02 0.  1.
          1    1    1    2  501    0  0.71365745554E+02  0.87030418930E+02 -0.13457823440E+03  0.17543849245E+03  0.00000000000E+00 0. -1.
         -2    1    1    2    0  502 -0.30724700316E+02 -0.93446315686E+02 -0.87869265627E+02  0.13189855559E+03  0.00000000000E+00 0.  1.
<mgrwt>
<rscale>  2 0.15062515E+03</rscale>
<asrwt>0</asrwt>
<pdfrwt beam="1">  1       21 0.11198987E-01 0.15062515E+03</pdfrwt>
<pdfrwt beam="2">  1       21 0.51094109E-01 0.15062515E+03</pdfrwt>
<totfact> 0.24441866E+05</totfact>
</mgrwt>
</event>
<event>
 5    1  0.1281005E-004  0.2317164E+03  0.7546771E-02  0.1125437E+00
         21   -1    0    0  503  502  0.00000000000E+00  0.00000000000E+00  0.13211993017E+04  0.13211993017E+04  0.00000000000E+00 0.  1.
         21   -1    0    0  501  503 -0.00000000000E+00 -0.00000000000E+00 -0.43617830930E+02  0.43617830930E+02  0.00000000000E+00 0. -1.
         24    1    1    2    0    0  0.74619602616E+02 -0.53414611197E+02  0.34241490545E+03  0.36350569351E+03  0.80419002446E+02 0.  1.
          1    1    1    2  501    0 -0.52781015607E+02  0.19302267860E+03  0.39274070266E+03  0.44078208855E+03  0.00000000000E+00 0. -1.
         -2    1    1    2    0  502 -0.21838587009E+02 -0.13960806740E+03  0.54242586263E+03  0.56052935054E+03  0.00000000000E+00 0.  1.
<mgrwt>
<rscale>  2 0.23171645E+03</rscale>
<asrwt>0</asrwt>
<pdfrwt beam="1">  1       21 0.20326140E+00 0.23171645E+03</pdfrwt>
<pdfrwt beam="2">  1       21 0.67104365E-02 0.23171645E+03</pdfrwt>
<totfact> 0.20242895E+04</totfact>
</mgrwt>
</event>
<event>
 5    1  0.1281005E-004  0.1144932E+03  0.7546771E-02  0.1252468E+00
         21   -1    0    0  503  502  0.00000000000E+00  0.00000000000E+00  0.38518332585E+02  0.38518332585E+02  0.00000000000E+00 0. -1.
         21   -1    0    0  501  503 -0.00000000000E+00 -0.00000000000E+00 -0.34068173783E+03  0.34068173783E+03  0.00000000000E+00 0.  1.
         24    1    1    2    0    0 -0.36848910900E+02  0.23611556634E+02 -0.12680889544E+03  0.15640671264E+03  0.80419002446E+02 0.  0.
          1    1    1    2  501    0  0.70216199397E+02 -0.56840664087E+02 -0.11464921688E+03  0.14596444322E+03  0.00000000000E+00 0. -1.
         -2    1    1    2    0  502 -0.33367288497E+02  0.33229107453E+02 -0.60705292920E+02  0.76828914558E+02  0.00000000000E+00 0.  1.
<mgrwt>
<rscale>  2 0.11449322E+03</rscale>
<asrwt>0</asrwt>
<pdfrwt beam="1">  1       21 0.59258975E-02 0.11449322E+03</pdfrwt>
<pdfrwt beam="2">  1       21 0.52412574E-01 0.11449322E+03</pdfrwt>
<totfact> 0.69952857E+05</totfact>
</mgrwt>
</event>
<event>
 5    1  0.1281005E-004  0.1450389E+03  0.7546771E-02  0.1206705E+00
         21   -1    0    0  501  502  0.00000000000E+00  0.00000000000E+00  0.25842804895E+04  0.25842804895E+04  0.00000000000E+00 0.  1.
         21   -1    0    0  502  503 -0.00000000000E+00 -0.00000000000E+00 -0.82463113398E+01  0.82463113398E+01  0.00000000000E+00 0. -1.
         24    1    1    2    0    0 -0.26888721823E+02  0.67269936348E+01  0.84787677120E+03  0.85213290683E+03  0.80419002446E+02 0.  0.
          1    1    1    2  501    0  0.80853511283E+02  0.72873310874E+02  0.10024901384E+04  0.10083820146E+04  0.00000000000E+00 0. -1.
         -2    1    1    2    0  503 -0.53964789460E+02 -0.79600304509E+02  0.72566726854E+03  0.73201187941E+03  0.00000000000E+00 0.  1.
<mgrwt>
<rscale>  2 0.14503893E+03</rscale>
<asrwt>0</asrwt>
<pdfrwt beam="1">  1       21 0.39758097E+00 0.14503893E+03</pdfrwt>
<pdfrwt beam="2">  1       21 0.12686653E-02 0.14503893E+03</pdfrwt>
<totfact> 0.24672201E+04</totfact>
</mgrwt>
</event>
<event>
 5    1  0.1281005E-004  0.1816924E+03  0.7546771E-02  0.1166175E+00
         21   -1    0    0  501  502  0.00000000000E+00  0.00000000000E+00  0.40183967502E+03  0.40183967502E+03  0.00000000000E+00 0. -1.
         21   -1    0    0  502  503 -0.00000000000E+00 -0.00000000000E+00 -0.87711983056E+02  0.87711983056E+02  0.00000000000E+00 0.  1.
         24    1    1    2    0    0 -0.33098656744E+02  0.29654892974E+01  0.42432678798E+02  0.96809417876E+02  0.80419002446E+02 0.  0.
          1    1    1    2  501    0  0.15435126602E+03 -0.11763326489E+02  0.19510843757E+03  0.24905820923E+03  0.00000000000E+00 0. -1.
         -2    1    1    2    0  503 -0.12125260928E+03  0.87978371920E+01  0.76586575604E+02  0.14368403098E+03  0.00000000000E+00 0.  1.
<mgrwt>
<rscale>  2 0.18169239E+03</rscale>
<asrwt>0</asrwt>
<pdfrwt beam="1">  1       21 0.61821487E-01 0.18169239E+03</pdfrwt>
<pdfrwt beam="2">  1       21 0.13494152E-01 0.18169239E+03</pdfrwt>
<totfact> 0.11592718E+05</totfact>
</mgrwt>
</event>
<event>
 5    1  0.1281005E-004  0.9385860E+02  0.7546771E-02  0.1293768E+00
         21   -1    0    0  501  502  0.00000000000E+00  0.00000000000E+00  0.14027576706E+02  0.14027576706E+02  0.00000000000E+00 0.  1.
         21   -1    0    0  502  503 -0.00000000000E+00 -0.00000000000E+00 -0.67229025062E+03  0.67229025062E+03  0.00000000000E+00 0. -1.
         24    1    1    2    0    0  0.34528484114E+02 -0.83366403062E+01 -0.39704620247E+03  0.40666278246E+03  0.80419002446E+02 0. -1.
          1    1    1    2  501    0  0.23419487553E+02  0.29893703663E+02 -0.10419815295E+03  0.11090248416E+03  0.00000000000E+00 0. -1.
         -2    1    1    2    0  503 -0.57947971667E+02 -0.21557063357E+02 -0.15701831850E+03  0.16875256070E+03  0.00000000000E+00 0.  1.
<mgrwt>
<rscale>  2 0.93858597E+02</rscale>
<asrwt>0</asrwt>
<pdfrwt beam="1">  1       21 0.21580886E-02 0.93858597E+02</pdfrwt>
<pdfrwt beam="2">  1       21 0.10342928E+00 0.93858597E+02</pdfrwt>
<totfact> 0.83093887E+05</totfact>
</mgrwt>
</event>
<event>
 5    1  0.1281005E-004  0.1296761E+03  0.7546771E-02  0.1227937E+00
         21   -1    0    0  501  502  0.00000000000E+00  0.00000000000E+00  0.17475150036E+03  0.17475150036E+03  0.00000000000E+00 0. -1.
         21   -1    0    0  502  503 -0.00000000000E+00 -0.00000000000E+00 -0.99383208958E+02  0.99383208958E+02  0.00000000000E+00 0.  1.
         24    1    1    2    0    0  0.39255978631E+02  0.18915298424E+01  0.36703118029E+02  0.96741638248E+02  0.80419002446E+02 0. -1.
          1    1    1    2  501    0  0.29367597534E+02  0.66662214107E+02  0.33713555786E+02  0.80267742078E+02  0.00000000000E+00 0. -1.
         -2    1    1    2    0  503 -0.68623576164E+02 -0.68553743949E+02  0.49516175864E+01  0.97125328992E+02  0.00000000000E+00 0.  1.
<mgrwt>
<rscale>  2 0.12967611E+03</rscale>
<asrwt>0</asrwt>
<pdfrwt beam="1">  1       21 0.26884846E-01 0.12967611E+03</pdfrwt>
<pdfrwt beam="2">  1       21 0.15289724E-01 0.12967611E+03</pdfrwt>
<totfact> 0.50317235E+05</totfact>
</mgrwt>
</event>
<event>
 5    1  0.1281005E-004  0.1647143E+03  0.7546771E-02  0.1183475E+00
         21   -1    0    0  501  502  0.00000000000E+00  0.00000000000E+00  0.75843186796E+03  0.75843186796E+03  0.00000000000E+00 0. -1.
         21   -1    0    0  502  503 -0.00000000000E+00 -0.00000000000E+00 -0.39472376670E+02  0.39472376670E+02  0.00000000000E+00 0.  1.
         24    1    1    2    0    0  0.17677572524E+02 -0.38451253654E+02  0.30455722139E+03  0.31782591545E+03  0.80419002446E+02 0. -1.
          1    1    1    2  501    0 -0.71308400910E+02 -0.80819126847E+02  0.14558752185E+03  0.18114178376E+03  0.00000000000E+00 0. -1.
         -2    1    1    2    0  503  0.53630828387E+02  0.11927038050E+03  0.26881474804E+03  0.29893654541E+03  0.00000000000E+00 0.  1.
<mgrwt>
<rscale>  2 0.16471428E+03</rscale>
<asrwt>0</asrwt>
<pdfrwt beam="1">  1       21 0.11668182E+00 0.16471428E+03</pdfrwt>
<pdfrwt beam="2">  1       21 0.60726739E-02 0.16471428E+03</pdfrwt>
<totfact> 0.11061745E+05</totfact>
</mgrwt>
</event>
<event>
 5    1  0.1281005E-004  0.1594441E+03  0.7546771E-02  0.1189326E+00
         21   -1    0    0  501  502  0.00000000000E+00  0.00000000000E+00  0.13196118508E+04  0.13196118508E+04  0.00000000000E+00 0. -1.
         21   -1    0    0  502  503 -0.00000000000E+00 -0.00000000000E+00 -0.19882097220E+02  0.19882097220E+02  0.00000000000E+00 0.  1.
         24    1    1    2    0    0 -0.47634475560E+02 -0.70502594414E+02  0.38945164819E+03  0.40666873658E+03  0.80419002446E+02 0. -1.
          1    1    1    2  501    0 -0.23024208351E+02 -0.53973485749E+02  0.32841568944E+03  0.33361672081E+03  0.00000000000E+00 0. -1.
         -2    1    1    2    0  503  0.70658683911E+02  0.12447608016E+03  0.58186241598E+03  0.59920849066E+03  0.00000000000E+00 0.  1.
<mgrwt>
<rscale>  2 0.15944410E+03</rscale>
<asrwt>0</asrwt>
<pdfrwt beam="1">  1       21 0.20301714E+00 0.15944410E+03</pdfrwt>
<pdfrwt beam="2">  1       21 0.30587852E-02 0.15944410E+03</pdfrwt>
<totfact> 0.80374440E+04</totfact>
</mgrwt>
</event>
<event>
 5    1  0.1281005E-004  0.1753112E+03  0.7546771E-02  0.1172420E+00
         21   -1    0    0  501  502  0.00000000000E+00  0.00000000000E+00  0.18763988873E+03  0.18763988873E+03  0.00000000000E+00 0. -1.
         21   -1    0    0  502  503 -0.00000000000E+00 -0.00000000000E+00 -0.17182426199E+03  0.17182426199E+03  0.00000000000E+00 0.  1.
         24    1    1    2    0    0  0.77071306426E+02 -0.55717464104E+01  0.39319113048E+02  0.11825497553E+03  0.80419002446E+02 0.  0.
          1    1    1    2  501    0 -0.15006523135E+03 -0.37046900967E+02 -0.48291371144E+01  0.15464594109E+03  0.00000000000E+00 0. -1.
         -2    1    1    2    0  503  0.72993924925E+02  0.42618647378E+02 -0.18674349197E+02  0.86563234102E+02  0.00000000000E+00 0.  1.
<mgrwt>
<rscale>  2 0.17531117E+03</rscale>
<asrwt>0</asrwt>
<pdfrwt beam="1">  1       21 0.28867675E-01 0.17531117E+03</pdfrwt>
<pdfrwt beam="2">  1       21 0.26434502E-01 0.17531117E+03</pdfrwt>
<totfact> 0.15718409E+05</totfact>
</mgrwt>
</event>
<event>
 5    1  0.1281005E-004  0.2124268E+03  0.7546771E-02  0.1139658E+00
         21   -1    0    0  501  502  0.00000000000E+00  0.00000000000E+00  0.41767390584E+03  0.41767390584E+03  0.00000000000E+00 0.  1.
         21   -1    0    0  502  503 -0.00000000000E+00 -0.00000000000E+00 -0.11409863023E+03  0.11409863023E+03  0.00000000000E+00 0. -1.
         24    1    1    2    0    0  0.31212764567E+02 -0.41505223595E+00  0.24450217891E+02  0.89662913457E+02  0.80419002446E+02 0. -1.
          1    1    1    2  501    0  0.92384011543E+02  0.13001902744E+03  0.96976550003E+02  0.18666602352E+03  0.00000000000E+00 0. -1.
         -2    1    1    2    0  503 -0.12359677611E+03 -0.12960397521E+03  0.18214850772E+03  0.25544359909E+03  0.00000000000E+00 0.  1.
<mgrwt>
<rscale>  2 0.21242682E+03</rscale>
<asrwt>0</asrwt>
<pdfrwt beam="1">  1       21 0.64257523E-01 0.21242682E+03</pdfrwt>
<pdfrwt beam="2">  1       21 0.17553636E-01 0.21242682E+03</pdfrwt>
<totfact> 0.65128148E+04</totfact>
</mgrwt>
</event>
<event>
 5    1  0.1281005E-004  0.2837693E+03  0.7546771E-02  0.1093648E+00
         21   -1    0    0  503  502  0.00000000000E+00  0.00000000000E+00  0.30385520628E+03  0.30385520628E+03  0.00000000000E+00 0.  1.
         21   -1    0    0  501  503 -0.00000000000E+00 -0.00000000000E+00 -0.27339088287E+03  0.27339088287E+03  0.00000000000E+00 0. -1.
         24    1    1    2    0    0  0.27635696761E+02  0.93865484898E+02 -0.34905407566E+02  0.13137756438E+03  0.80419002446E+02 0. -1.
          1    1    1    2  501    0  0.13060508951E+03  0.11829158936E+03  0.32153426503E+02  0.17912127834E+03  0.00000000000E+00 0. -1.
         -2    1    1    2    0  502 -0.15824078627E+03 -0.21215707425E+03  0.33216304469E+02  0.26674724643E+03  0.00000000000E+00 0.  1.
<mgrwt>
<rscale>  2 0.28376929E+03</rscale>
<asrwt>0</asrwt>
<pdfrwt beam="1">  1       21 0.46746955E-01 0.28376929E+03</pdfrwt>
<pdfrwt beam="2">  1       21 0.42060136E-01 0.28376929E+03</pdfrwt>
<totfact> 0.22784210E+04</totfact>
</mgrwt>
</event>
<event>
 5    1  0.1281005E-004  0.1515650E+03  0.7546771E-02  0.1198563E+00
         21   -1    0    0  501  502  0.00000000000E+00  0.00000000000E+00  0.69523680193E+03  0.69523680193E+03  0.00000000000E+00 0.  1.
         21   -1    0    0  502  503 -0.00000000000E+00 -0.00000000000E+00 -0.41655320200E+02  0.41655320200E+02  0.00000000000E+00 0.  1.
         24    1    1    2    0    0 -0.84711466238E+02  0.76091313531E+02  0.46310055912E+03  0.48362719559E+03  0.80419002446E+02 0.  1.
          1    1    1    2  501    0 -0.14619954341E+02  0.20497425093E+02  0.49858231360E+02  0.55854549812E+02  0.00000000000E+00 0. -1.
         -2    1    1    2    0  503  0.99331420579E+02 -0.96588738625E+02  0.14062269125E+03  0.19741037672E+03  0.00000000000E+00 0.  1.
<mgrwt>
<rscale>  2 0.15156498E+03</rscale>
<asrwt>0</asrwt>
<pdfrwt beam="1">  1       21 0.10695950E+00 0.15156498E+03</pdfrwt>
<pdfrwt beam="2">  1       21 0.64085113E-02 0.15156498E+03</pdfrwt>
<totfact> 0.12511243E+05</totfact>
</mgrwt>
</event>
<event>
 5    1  0.1281005E-004  0.1804656E+03  0.7546771E-02  0.1167353E+00
         21   -1    0    0  503  502  0.00000000000E+00  0.00000000000E+00  0.19922156337E+03  0.19922156337E+03  0.00000000000E+00 0. -1.
         21   -1    0    0  501  503 -0.00000000000E+00 -0.00000000000E+00 -0.16990196883E+03  0.16990196883E+03  0.00000000000E+00 0. -1.
         24    1    1    2    0    0  0.29640939414E+02  0.14090294657E+03  0.42651190619E+02  0.17034836558E+03  0.80419002446E+02 0. -1.
          1    1    1    2  501    0 -0.42332014469E+02 -0.16415136318E+03 -0.21914350209E+02  0.17093246686E+03  0.00000000000E+00 0. -1.
         -2    1    1    2    0  502  0.12691075055E+02  0.23248416612E+02  0.85827541380E+01  0.27842699755E+02  0.00000000000E+00 0.  1.
<mgrwt>
<rscale>  2 0.18046562E+03</rscale>
<asrwt>0</asrwt>
<pdfrwt beam="1">  1       21 0.30649471E-01 0.18046562E+03</pdfrwt>
<pdfrwt beam="2">  1       21 0.26138764E-01 0.18046562E+03</pdfrwt>
<totfact> 0.14271960E+05</totfact>
</mgrwt>
</event>
<event>
 5    1  0.1580418E-004  0.3595095E+03  0.7546771E-02  0.1058778E+00
         21   -1    0    0  501  502  0.00000000000E+00  0.00000000000E+00  0.13603031622E+03  0.13603031622E+03  0.00000000000E+00 0.  1.
         21   -1    0    0  502  503 -0.00000000000E+00 -0.00000000000E+00 -0.11911956227E+04  0.11911956227E+04  0.00000000000E+00 0. -1.
         24    1    1    2    0    0  0.18996346955E+03  0.13750059394E+03 -0.67233245749E+03  0.71658264174E+03  0.80419002446E+02 0. -1.
          1    1    1    2  501    0  0.11235846578E+03  0.41489074954E+02 -0.62043199213E+02  0.13488931292E+03  0.00000000000E+00 0. -1.
         -2    1    1    2    0  503 -0.30232193532E+03 -0.17898966889E+03 -0.32078964983E+03  0.47575398431E+03  0.00000000000E+00 0.  1.
<mgrwt>
<rscale>  2 0.35950949E+03</rscale>
<asrwt>0</asrwt>
<pdfrwt beam="1">  1       21 0.20927741E-01 0.35950949E+03</pdfrwt>
<pdfrwt beam="2">  1       21 0.18326087E+00 0.35950949E+03</pdfrwt>
<totfact> 0.32707275E+03</totfact>
</mgrwt>
</event>
<event>
 5    1  0.1281005E-004  0.1255077E+03  0.7546771E-02  0.1234278E+00
         21   -1    0    0  501  502  0.00000000000E+00  0.00000000000E+00  0.91301985482E+01  0.91301985482E+01  0.00000000000E+00 0. -1.
         21   -1    0    0  502  503 -0.00000000000E+00 -0.00000000000E+00 -0.17411411833E+04  0.17411411833E+04  0.00000000000E+00 0.  1.
         24    1    1    2    0    0 -0.14766215273E+02  0.73091710573E+01 -0.50121902038E+03  0.50789682755E+03  0.80419002446E+02 0. -1.
          1    1    1    2  501    0 -0.69334000559E+02  0.31678420836E+02 -0.59388808853E+03  0.59876020883E+03  0.00000000000E+00 0. -1.
         -2    1    1    2    0  503  0.84100215832E+02 -0.38987591893E+02 -0.63690387587E+03  0.64361434550E+03  0.00000000000E+00 0.  1.
<mgrwt>
<rscale>  2 0.12550768E+03</rscale>
<asrwt>0</asrwt>
<pdfrwt beam="1">  1       21 0.14046467E-02 0.12550768E+03</pdfrwt>
<pdfrwt beam="2">  1       21 0.26786773E+00 0.12550768E+03</pdfrwt>
<totfact> 0.12039219E+05</totfact>
</mgrwt>
</event>
<event>
 5    1  0.1281005E-004  0.5190744E+03  0.7546771E-02  0.1008917E+00
         21   -1    0    0  503  502  0.00000000000E+00  0.00000000000E+00  0.69222726450E+03  0.69222726450E+03  0.00000000000E+00 0. -1.
         21   -1    0    0  501  503 -0.00000000000E+00 -0.00000000000E+00 -0.40545514544E+03  0.40545514544E+03  0.00000000000E+00 0.  1.
         24    1    1    2    0    0  0.10675739983E+03 -0.32904988664E+03 -0.21246047011E+01  0.35516573626E+03  0.80419002446E+02 0.  1.
          1    1    1    2  501    0 -0.23029369437E+03  0.45288275969E+03  0.23240548039E+03  0.55870411400E+03  0.00000000000E+00 0. -1.
         -2    1    1    2    0  502  0.12353629454E+03 -0.12383287305E+03  0.56491243365E+02  0.18381255967E+03  0.00000000000E+00 0.  1.
<mgrwt>
<rscale>  2 0.51907437E+03</rscale>
<asrwt>0</asrwt>
<pdfrwt beam="1">  1       21 0.10649650E+00 0.51907437E+03</pdfrwt>
<pdfrwt beam="2">  1       21 0.62377715E-01 0.51907437E+03</pdfrwt>
<totfact> 0.14048992E+03</totfact>
</mgrwt>
</event>
<event>
 5    1  0.1281005E-004  0.2282149E+03  0.7546771E-02  0.1127903E+00
         21   -1    0    0  503  502  0.00000000000E+00  0.00000000000E+00  0.53826082217E+02  0.53826082217E+02  0.00000000000E+00 0.  1.
         21   -1    0    0  501  503 -0.00000000000E+00 -0.00000000000E+00 -0.10596095587E+04  0.10596095587E+04  0.00000000000E+00 0. -1.
         24    1    1    2    0    0 -0.29779035763E+02 -0.11924609608E+03 -0.46929555646E+03  0.49174379271E+03  0.80419002446E+02 0.  1.
          1    1    1    2  501    0 -0.13118875513E+02  0.20934740060E+03 -0.41034585806E+03  0.46084939217E+03  0.00000000000E+00 0. -1.
         -2    1    1    2    0  502  0.42897911275E+02 -0.90101304524E+02 -0.12614206196E+03  0.16084245604E+03  0.00000000000E+00 0.  1.
<mgrwt>
<rscale>  2 0.22821494E+03</rscale>
<asrwt>0</asrwt>
<pdfrwt beam="1">  1       21 0.82809359E-02 0.22821494E+03</pdfrwt>
<pdfrwt beam="2">  1       21 0.16301685E+00 0.22821494E+03</pdfrwt>
<totfact> 0.26439755E+04</totfact>
</mgrwt>
</event>
<event>
 5    1  0.1281005E-004  0.4412427E+03  0.7546771E-02  0.1030366E+00
         21   -1    0    0  503  502  0.00000000000E+00  0.00000000000E+00  0.48055924737E+03  0.48055924737E+03  0.00000000000E+00 0. -1.
         21   -1    0    0  501  503 -0.00000000000E+00 -0.00000000000E+00 -0.47819501184E+03  0.47819501184E+03  0.00000000000E+00 0.  1.
         24    1    1    2    0    0  0.17779544138E+03  0.13553737140E+03  0.99115352619E+02  0.25743478223E+03  0.80419002446E+02 0.  1.
          1    1    1    2  501    0 -0.38068617120E+02  0.24062652001E+03 -0.16505980181E+03  0.29427041970E+03  0.00000000000E+00 0. -1.
         -2    1    1    2    0  502 -0.13972682426E+03 -0.37616389141E+03  0.68308684720E+02  0.40704905727E+03  0.00000000000E+00 0.  1.
<mgrwt>
<rscale>  2 0.44124269E+03</rscale>
<asrwt>0</asrwt>
<pdfrwt beam="1">  1       21 0.73932192E-01 0.44124269E+03</pdfrwt>
<pdfrwt beam="2">  1       21 0.73568463E-01 0.44124269E+03</pdfrwt>
<totfact> 0.23685393E+03</totfact>
</mgrwt>
</event>
<event>
 5    1  0.1281005E-004  0.1879842E+03  0.7546771E-02  0.1160292E+00
         21   -1    0    0  503  502  0.00000000000E+00  0.00000000000E+00  0.49516134523E+03  0.49516134523E+03  0.00000000000E+00 0. -1.
         21   -1    0    0  501  503 -0.00000000000E+00 -0.00000000000E+00 -0.72029607635E+02  0.72029607635E+02  0.00000000000E+00 0.  1.
         24    1    1    2    0    0  0.12174884756E+02  0.72148103487E+02  0.11136497139E+03  0.15563723675E+03  0.80419002446E+02 0. -1.
          1    1    1    2  501    0  0.86225196113E+02  0.58123855572E+02  0.10110395736E+03  0.14503508964E+03  0.00000000000E+00 0. -1.
         -2    1    1    2    0  502 -0.98400080868E+02 -0.13027195906E+03  0.21066280884E+03  0.26651862648E+03  0.00000000000E+00 0.  1.
<mgrwt>
<rscale>  2 0.18798421E+03</rscale>
<asrwt>0</asrwt>
<pdfrwt beam="1">  1       21 0.76178666E-01 0.18798421E+03</pdfrwt>
<pdfrwt beam="2">  1       21 0.11081478E-01 0.18798421E+03</pdfrwt>
<totfact> 0.10404458E+05</totfact>
</mgrwt>
</event>
<event>
 5    1  0.1281005E-004  0.1855627E+03  0.7546771E-02  0.1162525E+00
         21   -1    0    0  503  502  0.00000000000E+00  0.00000000000E+00  0.63477328579E+03  0.63477328579E+03  0.00000000000E+00 0.  1.
         21   -1    0    0  501  503 -0.00000000000E+00 -0.00000000000E+00 -0.54807799376E+02  0.54807799376E+02  0.00000000000E+00 0.  1.
         24    1    1    2    0    0 -0.11730494623E+03 -0.80708322298E+02  0.26846356044E+03  0.31434723307E+03  0.80419002446E+02 0.  1.
          1    1    1    2  501    0 -0.58335392398E+01 -0.36876290135E+02  0.39618083265E+02  0.54437886401E+02  0.00000000000E+00 0. -1.
         -2    1    1    2    0  502  0.12313848547E+03  0.11758461243E+03  0.27188384271E+03  0.32079596570E+03  0.00000000000E+00 0.  1.
<mgrwt>
<rscale>  2 0.18556268E+03</rscale>
<asrwt>0</asrwt>
<pdfrwt beam="1">  1       21 0.97657423E-01 0.18556268E+03</pdfrwt>
<pdfrwt beam="2">  1       21 0.84319696E-02 0.18556268E+03</pdfrwt>
<totfact> 0.95340656E+04</totfact>
</mgrwt>
</event>
<event>
 5    1  0.1281005E-004  0.3278886E+03  0.7546771E-02  0.1072075E+00
         21   -1    0    0  503  502  0.00000000000E+00  0.00000000000E+00  0.29197030224E+04  0.29197030224E+04  0.00000000000E+00 0. -1.
         21   -1    0    0  501  503 -0.00000000000E+00 -0.00000000000E+00 -0.39079408651E+02  0.39079408651E+02  0.00000000000E+00 0.  1.
         24    1    1    2    0    0  0.13413474250E+03 -0.15430696073E+03  0.11521264141E+04  0.11728875724E+04  0.80419002446E+02 0. -1.
          1    1    1    2  501    0  0.42033783462E+02 -0.11038372158E+03  0.29945743154E+03  0.32191017109E+03  0.00000000000E+00 0. -1.
         -2    1    1    2    0  502 -0.17616852596E+03  0.26469068231E+03  0.14290397680E+04  0.14639846876E+04  0.00000000000E+00 0.  1.
<mgrwt>
<rscale>  2 0.32788857E+03</rscale>
<asrwt>0</asrwt>
<pdfrwt beam="1">  1       21 0.44918491E+00 0.32788857E+03</pdfrwt>
<pdfrwt beam="2">  1       21 0.60122190E-02 0.32788857E+03</pdfrwt>
<totfact> 0.70301296E+02</totfact>
</mgrwt>
</event>
<event>
 5    1  0.1281005E-004  0.1083909E+03  0.7546771E-02  0.1263579E+00
         21   -1    0    0  503  502  0.00000000000E+00  0.00000000000E+00  0.18112813300E+02  0.18112813300E+02  0.00000000000E+00 0. -1.
         21   -1    0    0  501  503 -0.00000000000E+00 -0.00000000000E+00 -0.67707455977E+03  0.67707455977E+03  0.00000000000E+00 0.  1.
         24    1    1    2    0    0  0.89277941974E+01  0.13203523299E+02 -0.31712214968E+03  0.32754803054E+03  0.80419002446E+02 0.  1.
          1    1    1    2  501    0 -0.69933599587E+02  0.75949442826E+01 -0.16263795599E+03  0.17719903008E+03  0.00000000000E+00 0. -1.
         -2    1    1    2    0  502  0.61005805389E+02 -0.20798467582E+02 -0.17920164080E+03  0.19044031246E+03  0.00000000000E+00 0.  1.
<mgrwt>
<rscale>  2 0.10839090E+03</rscale>
<asrwt>0</asrwt>
<pdfrwt beam="1">  1       21 0.27865864E-02 0.10839090E+03</pdfrwt>
<pdfrwt beam="2">  1       21 0.10416533E+00 0.10839090E+03</pdfrwt>
<totfact> 0.54007526E+05</totfact>
</mgrwt>
</event>
<event>
 5    1  0.1281005E-004  0.2804984E+03  0.7546771E-02  0.1095417E+00
         21   -1    0    0  501  502  0.00000000000E+00  0.00000000000E+00  0.51167080851E+03  0.51167080851E+03  0.00000000000E+00 0. -1.
         21   -1    0    0  502  503 -0.00000000000E+00 -0.00000000000E+00 -0.23483117758E+03  0.23483117758E+03  0.00000000000E+00 0.  1.
         24    1    1    2    0    0  0.81620234974E+02 -0.11627524367E+03  0.15490183844E+03  0.22504130855E+03  0.80419002446E+02 0.  1.
          1    1    1    2  501    0  0.54486751697E+02 -0.11621317770E+03  0.20296144676E+03  0.24014091207E+03  0.00000000000E+00 0. -1.
         -2    1    1    2    0  503 -0.13610698667E+03  0.23248842137E+03 -0.81023654267E+02  0.28131976547E+03  0.00000000000E+00 0.  1.
<mgrwt>
<rscale>  2 0.28049841E+03</rscale>
<asrwt>0</asrwt>
<pdfrwt beam="1">  1       21 0.78718586E-01 0.28049841E+03</pdfrwt>
<pdfrwt beam="2">  1       21 0.36127874E-01 0.28049841E+03</pdfrwt>
<totfact> 0.10007407E+04</totfact>
</mgrwt>
</event>
<event>
 5    1  0.1281005E-004  0.1274600E+03  0.7546771E-02  0.1231274E+00
         21   -1    0    0  501  502  0.00000000000E+00  0.00000000000E+00  0.90131382357E+03  0.90131382357E+03  0.00000000000E+00 0.  1.
         21   -1    0    0  502  503 -0.00000000000E+00 -0.00000000000E+00 -0.20255729333E+02  0.20255729333E+02  0.00000000000E+00 0. -1.
         24    1    1    2    0    0 -0.76857280318E+01 -0.78452501240E+02  0.25488343632E+03  0.27865148022E+03  0.80419002446E+02 0. -1.
          1    1    1    2  501    0 -0.21629512319E+02 -0.26000480540E+02  0.96722827439E+02  0.10246543875E+03  0.00000000000E+00 0. -1.
         -2    1    1    2    0  503  0.29315240351E+02  0.10445298178E+03  0.52945183048E+03  0.54045263393E+03  0.00000000000E+00 0.  1.
<mgrwt>
<rscale>  2 0.12746003E+03</rscale>
<asrwt>0</asrwt>
<pdfrwt beam="1">  1       21 0.13866363E+00 0.12746003E+03</pdfrwt>
<pdfrwt beam="2">  1       21 0.31162667E-02 0.12746003E+03</pdfrwt>
<totfact> 0.22314044E+05</totfact>
</mgrwt>
</event>
<event>
 5    1  0.1281005E-004  0.1173512E+03  0.7546771E-02  0.1247532E+00
         21   -1    0    0  503  502  0.00000000000E+00  0.00000000000E+00  0.27425220419E+03  0.27425220419E+03  0.00000000000E+00 0. -1.
         21   -1    0    0  501  503 -0.00000000000E+00 -0.00000000000E+00 -0.51335924305E+02  0.51335924305E+02  0.00000000000E+00 0.  1.
         24    1    1    2    0    0 -0.22262145593E+02 -0.71516233250E+02  0.81717562209E+02  0.13694944568E+03  0.80419002446E+02 0.  1.
          1    1    1    2  501    0  0.41690989005E+02  0.89245347810E+02  0.10606350639E+03  0.14474922472E+03  0.00000000000E+00 0. -1.
         -2    1    1    2    0  502 -0.19428843412E+02 -0.17729114560E+02  0.35135211294E+02  0.43889458098E+02  0.00000000000E+00 0.  1.
<mgrwt>
<rscale>  2 0.11735123E+03</rscale>
<asrwt>0</asrwt>
<pdfrwt beam="1">  1       21 0.42192646E-01 0.11735123E+03</pdfrwt>
<pdfrwt beam="2">  1       21 0.78978347E-02 0.11735123E+03</pdfrwt>
<totfact> 0.66724874E+05</totfact>
</mgrwt>
</event>
<event>
 5    1  0.1281005E-004  0.2523767E+03  0.7546771E-02  0.1111812E+00
         21   -1    0    0  503  502  0.00000000000E+00  0.00000000000E+00  0.33476747460E+03  0.33476747460E+03  0.00000000000E+00 0. -1.
         21   -1    0    0  501  503 -0.00000000000E+00 -0.00000000000E+00 -0.23060209003E+03  0.23060209003E+03  0.00000000000E+00 0. -1.
         24    1    1    2    0    0  0.90642923898E+02  0.17867941183E+03  0.15296400260E+03  0.26458963304E+03  0.80419002446E+02 0. -1.
          1    1    1    2  501    0 -0.12462160787E+03 -0.20899112044E+03 -0.65977918490E+02  0.25211290982E+03  0.00000000000E+00 0. -1.
         -2    1    1    2    0  502  0.33978683973E+02  0.30311708605E+02  0.17179300459E+02  0.48667021764E+02  0.00000000000E+00 0.  1.
<mgrwt>
<rscale>  2 0.25237671E+03</rscale>
<asrwt>0</asrwt>
<pdfrwt beam="1">  1       21 0.51502689E-01 0.25237671E+03</pdfrwt>
<pdfrwt beam="2">  1       21 0.35477244E-01 0.25237671E+03</pdfrwt>
<totfact> 0.26613458E+04</totfact>
</mgrwt>
</event>
<event>
 5    1  0.1281005E-004  0.1050614E+03  0.7546771E-02  0.1269999E+00
         21   -1    0    0  501  502  0.00000000000E+00  0.00000000000E+00  0.45347906833E+03  0.45347906833E+03  0.00000000000E+00 0.  1.
         21   -1    0    0  502  503 -0.00000000000E+00 -0.00000000000E+00 -0.24864479938E+02  0.24864479938E+02  0.00000000000E+00 0.  1.
         24    1    1    2    0    0  0.57563598646E+02  0.27611821382E+01  0.16858561746E+03  0.19547255148E+03  0.80419002446E+02 0.  1.
          1    1    1    2  501    0  0.26422666862E+02 -0.61610803103E+01  0.56885550393E+02  0.63024456191E+02  0.00000000000E+00 0. -1.
         -2    1    1    2    0  503 -0.83986265508E+02  0.33998981722E+01  0.20314342054E+03  0.21984654060E+03  0.00000000000E+00 0.  1.
<mgrwt>
<rscale>  2 0.10506145E+03</rscale>
<asrwt>0</asrwt>
<pdfrwt beam="1">  1       21 0.69766004E-01 0.10506145E+03</pdfrwt>
<pdfrwt beam="2">  1       21 0.38253050E-02 0.10506145E+03</pdfrwt>
<totfact> 0.79257395E+05</totfact>
</mgrwt>
</event>
<event>
 5    1  0.1281005E-004  0.1954216E+03  0.7546771E-02  0.1153660E+00
         21   -1    0    0  503  502  0.00000000000E+00  0.00000000000E+00  0.36693331866E+03  0.36693331866E+03  0.00000000000E+00 0.  1.
         21   -1    0    0  501  503 -0.00000000000E+00 -0.00000000000E+00 -0.10467507114E+03  0.10467507114E+03  0.00000000000E+00 0. -1.
         24    1    1    2    0    0  0.10484048954E+03 -0.29218197270E+01  0.10012069439E+03  0.16580541209E+03  0.80419002446E+02 0. -1.
          1    1    1    2  501    0  0.76189285947E+02 -0.11603754068E+02  0.57986618851E+02  0.96446370421E+02  0.00000000000E+00 0. -1.
         -2    1    1    2    0  502 -0.18102977549E+03  0.14525573795E+02  0.10415093428E+03  0.20935660730E+03  0.00000000000E+00 0.  1.
<mgrwt>
<rscale>  2 0.19542165E+03</rscale>
<asrwt>0</asrwt>
<pdfrwt beam="1">  1       21 0.56451279E-01 0.19542165E+03</pdfrwt>
<pdfrwt beam="2">  1       21 0.16103857E-01 0.19542165E+03</pdfrwt>
<totfact> 0.10159598E+05</totfact>
</mgrwt>
</event>
<event>
 5    1  0.1281005E-004  0.2562545E+03  0.7546771E-02  0.1109415E+00
         21   -1    0    0  501  502  0.00000000000E+00  0.00000000000E+00  0.22398487756E+03  0.22398487756E+03  0.00000000000E+00 0. -1.
         21   -1    0    0  502  503 -0.00000000000E+00 -0.00000000000E+00 -0.29326104666E+03  0.29326104666E+03  0.00000000000E+00 0. -1.
         24    1    1    2    0    0 -0.72007688028E+01 -0.20836604280E+03 -0.25878738240E+02  0.22495595993E+03  0.80419002446E+02 0. -1.
          1    1    1    2  501    0  0.18859175981E+02  0.24749762630E+03 -0.36741120537E+02  0.25091961558E+03  0.00000000000E+00 0. -1.
         -2    1    1    2    0  503 -0.11658407178E+02 -0.39131583505E+02 -0.66563103236E+01  0.41370348713E+02  0.00000000000E+00 0.  1.
<mgrwt>
<rscale>  2 0.25625447E+03</rscale>
<asrwt>0</asrwt>
<pdfrwt beam="1">  1       21 0.34459212E-01 0.25625447E+03</pdfrwt>
<pdfrwt beam="2">  1       21 0.45117084E-01 0.25625447E+03</pdfrwt>
<totfact> 0.37127609E+04</totfact>
</mgrwt>
</event>
<event>
 5    1  0.1281005E-004  0.2173881E+03  0.7546771E-02  0.1135845E+00
         21   -1    0    0  501  502  0.00000000000E+00  0.00000000000E+00  0.48189683024E+03  0.48189683024E+03  0.00000000000E+00 0.  1.
         21   -1    0    0  502  503 -0.00000000000E+00 -0.00000000000E+00 -0.10948355265E+03  0.10948355265E+03  0.00000000000E+00 0. -1.
         24    1    1    2    0    0  0.57387110075E+02 -0.17118501547E+02  0.17755377233E+03  0.20390900304E+03  0.80419002446E+02 0.  1.
          1    1    1    2  501    0 -0.15862108400E+03  0.11325258948E+03  0.12283048570E+03  0.23037822278E+03  0.00000000000E+00 0. -1.
         -2    1    1    2    0  503  0.10123397392E+03 -0.96134087935E+02  0.72029019574E+02  0.15709315708E+03  0.00000000000E+00 0.  1.
<mgrwt>
<rscale>  2 0.21738812E+03</rscale>
<asrwt>0</asrwt>
<pdfrwt beam="1">  1       21 0.74137973E-01 0.21738812E+03</pdfrwt>
<pdfrwt beam="2">  1       21 0.16843624E-01 0.21738812E+03</pdfrwt>
<totfact> 0.51154672E+04</totfact>
</mgrwt>
</event>
<event>
 5    1  0.1281005E-004  0.1079011E+03  0.7546771E-02  0.1264507E+00
         21   -1    0    0  503  502  0.00000000000E+00  0.00000000000E+00  0.61332836640E+02  0.61332836640E+02  0.00000000000E+00 0. -1.
         21   -1    0    0  501  503 -0.00000000000E+00 -0.00000000000E+00 -0.21198101022E+03  0.21198101022E+03  0.00000000000E+00 0.  1.
         24    1    1    2    0    0  0.31149541450E+02  0.15710879626E+02 -0.69328306255E+02  0.11176204934E+03  0.80419002446E+02 0.  0.
          1    1    1    2  501    0 -0.36875784364E+02  0.50030251383E+02 -0.71661081180E+02  0.94858632089E+02  0.00000000000E+00 0. -1.
         -2    1    1    2    0  502  0.57262429136E+01 -0.65741131009E+02 -0.96587861405E+01  0.66693165421E+02  0.00000000000E+00 0.  1.
<mgrwt>
<rscale>  2 0.10790112E+03</rscale>
<asrwt>0</asrwt>
<pdfrwt beam="1">  1       21 0.94358212E-02 0.10790112E+03</pdfrwt>
<pdfrwt beam="2">  1       21 0.32612463E-01 0.10790112E+03</pdfrwt>
<totfact> 0.81542434E+05</totfact>
</mgrwt>
</event>
<event>
 5    1  0.1281005E-004  0.1132065E+03  0.7546771E-02  0.1254745E+00
         21   -1    0    0  503  502  0.00000000000E+00  0.00000000000E+00  0.48677901204E+03  0.48677901204E+03  0.00000000000E+00 0.  1.
         21   -1    0    0  501  503 -0.00000000000E+00 -0.00000000000E+00 -0.27718047564E+02  0.27718047564E+02  0.00000000000E+00 0. -1.
         24    1    1    2    0    0 -0.86297818110E+01  0.47504180506E+02  0.13861108461E+03  0.16736597334E+03  0.80419002446E+02 0.  0.
          1    1    1    2  501    0  0.51479434384E+02 -0.67858078502E+02  0.18650926870E+03  0.20503794354E+03  0.00000000000E+00 0. -1.
         -2    1    1    2    0  502 -0.42849652573E+02  0.20353897995E+02  0.13394061117E+03  0.14209314273E+03  0.00000000000E+00 0.  1.
<mgrwt>
<rscale>  2 0.11320648E+03</rscale>
<asrwt>0</asrwt>
<pdfrwt beam="1">  1       21 0.74889072E-01 0.11320648E+03</pdfrwt>
<pdfrwt beam="2">  1       21 0.42643154E-02 0.11320648E+03</pdfrwt>
<totfact> 0.56717379E+05</totfact>
</mgrwt>
</event>
<event>
 5    1  0.1281005E-004  0.1210498E+03  0.7546771E-02  0.1241375E+00
         21   -1    0    0  501  502  0.00000000000E+00  0.00000000000E+00  0.62093221742E+03  0.62093221742E+03  0.00000000000E+00 0. -1.
         21   -1    0    0  502  503 -0.00000000000E+00 -0.00000000000E+00 -0.23806880498E+02  0.23806880498E+02  0.00000000000E+00 0. -1.
         24    1    1    2    0    0  0.58130631766E+02 -0.71468367165E+02  0.29732997003E+03  0.32149529528E+03  0.80419002446E+02 0. -1.
          1    1    1    2  501    0 -0.76237225029E+02  0.47688205760E+02  0.24220501825E+03  0.25835934339E+03  0.00000000000E+00 0. -1.
         -2    1    1    2    0  503  0.18106593263E+02  0.23780161405E+02  0.57590348646E+02  0.64884459258E+02  0.00000000000E+00 0.  1.
<mgrwt>
<rscale>  2 0.12104982E+03</rscale>
<asrwt>0</asrwt>
<pdfrwt beam="1">  1       21 0.95528021E-01 0.12104982E+03</pdfrwt>
<pdfrwt beam="2">  1       21 0.36625975E-02 0.12104982E+03</pdfrwt>
<totfact> 0.42128709E+05</totfact>
</mgrwt>
</event>
<event>
 5    1  0.1281005E-004  0.1256554E+03  0.7546771E-02  0.1234049E+00
         21   -1    0    0  501  502  0.00000000000E+00  0.00000000000E+00  0.44671269788E+03  0.44671269788E+03  0.00000000000E+00 0.  1.
         21   -1    0    0  502  503 -0.00000000000E+00 -0.00000000000E+00 -0.40526702122E+02  0.40526702122E+02  0.00000000000E+00 0. -1.
         24    1    1    2    0    0 -0.14211709013E+02 -0.25551973244E+02  0.19820263018E+03  0.21588509576E+03  0.80419002446E+02 0.  0.
          1    1    1    2  501    0 -0.41648310902E+02 -0.54211736178E+02  0.12890604761E+03  0.14591183382E+03  0.00000000000E+00 0. -1.
         -2    1    1    2    0  503  0.55860019915E+02  0.79763709421E+02  0.79077317975E+02  0.12544247041E+03  0.00000000000E+00 0.  1.
<mgrwt>
<rscale>  2 0.12565539E+03</rscale>
<asrwt>0</asrwt>
<pdfrwt beam="1">  1       21 0.68725027E-01 0.12565539E+03</pdfrwt>
<pdfrwt beam="2">  1       21 0.62348776E-02 0.12565539E+03</pdfrwt>
<totfact> 0.36100372E+05</totfact>
</mgrwt>
</event>
<event>
 5    1  0.1281005E-004  0.1563529E+03  0.7546771E-02  0.1192877E+00
         21   -1    0    0  501  502  0.00000000000E+00  0.00000000000E+00  0.37155452302E+02  0.37155452302E+02  0.00000000000E+00 0.  1.
         21   -1    0    0  502  503 -0.00000000000E+00 -0.00000000000E+00 -0.72914812053E+03  0.72914812053E+03  0.00000000000E+00 0. -1.
         24    1    1    2    0    0 -0.18097472008E+02 -0.76152211190E+02 -0.33172091531E+03  0.35018946210E+03  0.80419002446E+02 0.  0.
          1    1    1    2  501    0 -0.10061036191E+02  0.13493217095E+03 -0.18565112302E+03  0.22972647798E+03  0.00000000000E+00 0. -1.
         -2    1    1    2    0  503  0.28158508199E+02 -0.58779959761E+02 -0.17462062991E+03  0.18638763275E+03  0.00000000000E+00 0.  1.
<mgrwt>
<rscale>  2 0.15635292E+03</rscale>
<asrwt>0</asrwt>
<pdfrwt beam="1">  1       21 0.57162234E-02 0.15635292E+03</pdfrwt>
<pdfrwt beam="2">  1       21 0.11217663E+00 0.15635292E+03</pdfrwt>
<totfact> 0.13535384E+05</totfact>
</mgrwt>
</event>
<event>
 5    1  0.1281005E-004  0.1866025E+03  0.7546771E-02  0.1161562E+00
         21   -1    0    0  503  502  0.00000000000E+00  0.00000000000E+00  0.46407909994E+03  0.46407909994E+03  0.00000000000E+00 0.  1.
         21   -1    0    0  501  503 -0.00000000000E+00 -0.00000000000E+00 -0.83810195431E+02  0.83810195431E+02  0.00000000000E+00 0. -1.
         24    1    1    2    0    0  0.21430318213E+02 -0.79781270762E+02  0.13938201790E+03  0.18088358845E+03  0.80419002446E+02 0.  1.
          1    1    1    2  501    0  0.96725125975E+02  0.98771312454E+02  0.61363923253E+02  0.15125162226E+03  0.00000000000E+00 0. -1.
         -2    1    1    2    0  502 -0.11815544419E+03 -0.18990041692E+02  0.17952296336E+03  0.21575408466E+03  0.00000000000E+00 0.  1.
<mgrwt>
<rscale>  2 0.18660254E+03</rscale>
<asrwt>0</asrwt>
<pdfrwt beam="1">  1       21 0.71396783E-01 0.18660254E+03</pdfrwt>
<pdfrwt beam="2">  1       21 0.12893876E-01 0.18660254E+03</pdfrwt>
<totfact> 0.91724263E+04</totfact>
</mgrwt>
</event>
<event>
 5    1  0.1281005E-004  0.1173662E+03  0.7546771E-02  0.1247506E+00
         21   -1    0    0  501  502  0.00000000000E+00  0.00000000000E+00  0.40600829289E+02  0.40600829289E+02  0.00000000000E+00 0.  1.
         21   -1    0    0  502  503 -0.00000000000E+00 -0.00000000000E+00 -0.38921347398E+03  0.38921347398E+03  0.00000000000E+00 0. -1.
         24    1    1    2    0    0 -0.32548069537E+02 -0.22936926061E+02 -0.21313434767E+03  0.23125515242E+03  0.80419002446E+02 0. -1.
          1    1    1    2  501    0  0.62528709903E+02  0.67035338991E+02 -0.90166699642E+02  0.12858308582E+03  0.00000000000E+00 0. -1.
         -2    1    1    2    0  503 -0.29980640366E+02 -0.44098412930E+02 -0.45311597377E+02  0.69976065026E+02  0.00000000000E+00 0.  1.
<mgrwt>
<rscale>  2 0.11736620E+03</rscale>
<asrwt>0</asrwt>
<pdfrwt beam="1">  1       21 0.62462816E-02 0.11736620E+03</pdfrwt>
<pdfrwt beam="2">  1       21 0.59878995E-01 0.11736620E+03</pdfrwt>
<totfact> 0.48412032E+05</totfact>
</mgrwt>
</event>
<event>
 5    1  0.1281005E-004  0.1263424E+03  0.7546771E-02  0.1232986E+00
         21   -1    0    0  503  502  0.00000000000E+00  0.00000000000E+00  0.36000602688E+03  0.36000602688E+03  0.00000000000E+00 0.  1.
         21   -1    0    0  501  503 -0.00000000000E+00 -0.00000000000E+00 -0.49665879483E+02  0.49665879483E+02  0.00000000000E+00 0.  1.
         24    1    1    2    0    0 -0.16579664890E+02  0.52861213476E+02  0.65997899101E+02  0.11786488798E+03  0.80419002446E+02 0.  1.
          1    1    1    2  501    0 -0.38790362873E+02  0.34292557224E+02  0.51306357320E+02  0.72890424846E+02  0.00000000000E+00 0. -1.
         -2    1    1    2    0  502  0.55370027763E+02 -0.87153770699E+02  0.19303589098E+03  0.21891659354E+03  0.00000000000E+00 0.  1.
<mgrwt>
<rscale>  2 0.12634243E+03</rscale>
<asrwt>0</asrwt>
<pdfrwt beam="1">  1       21 0.55385541E-01 0.12634243E+03</pdfrwt>
<pdfrwt beam="2">  1       21 0.76409048E-02 0.12634243E+03</pdfrwt>
<totfact> 0.40405604E+05</totfact>
</mgrwt>
</event>
<event>
 5    1  0.1281005E-004  0.1647205E+03  0.7546771E-02  0.1183468E+00
         21   -1    0    0  503  502  0.00000000000E+00  0.00000000000E+00  0.15470351015E+03  0.15470351015E+03  0.00000000000E+00 0.  1.
         21   -1    0    0  501  503 -0.00000000000E+00 -0.00000000000E+00 -0.29524661612E+03  0.29524661612E+03  0.00000000000E+00 0. -1.
         24    1    1    2    0    0 -0.59273907187E+02  0.51449058738E+02  0.30859000077E+02  0.11653280893E+03  0.80419002446E+02 0. -1.
          1    1    1    2  501    0  0.13456065723E+03 -0.22609369960E+02 -0.20485014548E+03  0.24613276130E+03  0.00000000000E+00 0. -1.
         -2    1    1    2    0  502 -0.75286750041E+02 -0.28839688778E+02  0.33448039427E+02  0.87284556034E+02  0.00000000000E+00 0.  1.
<mgrwt>
<rscale>  2 0.16472052E+03</rscale>
<asrwt>0</asrwt>
<pdfrwt beam="1">  1       21 0.23800540E-01 0.16472052E+03</pdfrwt>
<pdfrwt beam="2">  1       21 0.45422556E-01 0.16472052E+03</pdfrwt>
<totfact> 0.78245360E+04</totfact>
</mgrwt>
</event>
<event>
 5    1  0.1281005E-004  0.2132210E+03  0.7546771E-02  0.1139040E+00
         21   -1    0    0  503  502  0.00000000000E+00  0.00000000000E+00  0.18092220474E+03  0.18092220474E+03  0.00000000000E+00 0. -1.
         21   -1    0    0  501  503 -0.00000000000E+00 -0.00000000000E+00 -0.25225766497E+03  0.25225766497E+03  0.00000000000E+00 0.  1.
         24    1    1    2    0    0 -0.50986964119E+01  0.12603212900E+03 -0.35465361161E+02  0.15373711992E+03  0.80419002446E+02 0.  1.
          1    1    1    2  501    0  0.29201019057E+02  0.71823799539E+02 -0.44262499313E+01  0.77659187368E+02  0.00000000000E+00 0. -1.
         -2    1    1    2    0  502 -0.24102322645E+02 -0.19785592854E+03 -0.31443849138E+02  0.20178356242E+03  0.00000000000E+00 0.  1.
<mgrwt>
<rscale>  2 0.21322099E+03</rscale>
<asrwt>0</asrwt>
<pdfrwt beam="1">  1       21 0.27834186E-01 0.21322099E+03</pdfrwt>
<pdfrwt beam="2">  1       21 0.38808871E-01 0.21322099E+03</pdfrwt>
<totfact> 0.78210925E+04</totfact>
</mgrwt>
</event>
<event>
 5    1  0.1281005E-004  0.1570688E+03  0.7546771E-02  0.1192046E+00
         21   -1    0    0  503  502  0.00000000000E+00  0.00000000000E+00  0.23367078679E+03  0.23367078679E+03  0.00000000000E+00 0. -1.
         21   -1    0    0  501  503 -0.00000000000E+00 -0.00000000000E+00 -0.12099003789E+03  0.12099003789E+03  0.00000000000E+00 0.  1.
         24    1    1    2    0    0  0.15467732094E+02 -0.24457544424E+02 -0.20344130142E+02  0.87855118240E+02  0.80419002446E+02 0.  0.
          1    1    1    2  501    0 -0.56978868712E+02 -0.90222552945E+02  0.42241459829E+02  0.11476515790E+03  0.00000000000E+00 0. -1.
         -2    1    1    2    0  502  0.41511136618E+02  0.11468009737E+03  0.90783419209E+02  0.15204054854E+03  0.00000000000E+00 0.  1.
<mgrwt>
<rscale>  2 0.15706877E+03</rscale>
<asrwt>0</asrwt>
<pdfrwt beam="1">  1       21 0.35949352E-01 0.15706877E+03</pdfrwt>
<pdfrwt beam="2">  1       21 0.18613852E-01 0.15706877E+03</pdfrwt>
<totfact> 0.19893401E+05</totfact>
</mgrwt>
</event>
<event>
 5    1  0.1281005E-004  0.1472394E+03  0.7546771E-02  0.1203907E+00
         21   -1    0    0  503  502  0.00000000000E+00  0.00000000000E+00  0.13158743232E+02  0.13158743232E+02  0.00000000000E+00 0.  1.
         21   -1    0    0  501  503 -0.00000000000E+00 -0.00000000000E+00 -0.16569322679E+04  0.16569322679E+04  0.00000000000E+00 0. -1.
         24    1    1    2    0    0 -0.11655276794E+03 -0.26296015559E+02 -0.79601180869E+03  0.80893636566E+03  0.80419002446E+02 0.  1.
          1    1    1    2  501    0  0.12663829994E+03  0.48230387976E+01 -0.67787194861E+03  0.68961648721E+03  0.00000000000E+00 0. -1.
         -2    1    1    2    0  502 -0.10085531998E+02  0.21472976761E+02 -0.16988976732E+03  0.17153815822E+03  0.00000000000E+00 0.  1.
<mgrwt>
<rscale>  2 0.14723940E+03</rscale>
<asrwt>0</asrwt>
<pdfrwt beam="1">  1       21 0.20244210E-02 0.14723940E+03</pdfrwt>
<pdfrwt beam="2">  1       21 0.25491278E+00 0.14723940E+03</pdfrwt>
<totfact> 0.77834043E+04</totfact>
</mgrwt>
</event>
<event>
 5    1  0.1281005E-004  0.1146544E+03  0.7546771E-02  0.1252186E+00
         21   -1    0    0  503  502  0.00000000000E+00  0.00000000000E+00  0.49840515554E+02  0.49840515554E+02  0.00000000000E+00 0.  1.
         21   -1    0    0  501  503 -0.00000000000E+00 -0.00000000000E+00 -0.26717337886E+03  0.26717337886E+03  0.00000000000E+00 0. -1.
         24    1    1    2    0    0 -0.49570485324E+02  0.35569822977E+02 -0.78182791717E+02  0.12768010885E+03  0.80419002446E+02 0.  0.
          1    1    1    2  501    0  0.86094892995E+02 -0.18554208834E+02 -0.97267668533E+02  0.13121580929E+03  0.00000000000E+00 0. -1.
         -2    1    1    2    0  502 -0.36524407671E+02 -0.17015614143E+02 -0.41882403061E+02  0.58117976277E+02  0.00000000000E+00 0.  1.
<mgrwt>
<rscale>  2 0.11465441E+03</rscale>
<asrwt>0</asrwt>
<pdfrwt beam="1">  1       21 0.76677717E-02 0.11465441E+03</pdfrwt>
<pdfrwt beam="2">  1       21 0.41103596E-01 0.11465441E+03</pdfrwt>
<totfact> 0.73976628E+05</totfact>
</mgrwt>
</event>
<event>
 5    1  0.1281005E-004  0.1707255E+03  0.7546771E-02  0.1177093E+00
         21   -1    0    0  503  502  0.00000000000E+00  0.00000000000E+00  0.38967861399E+03  0.38967861399E+03  0.00000000000E+00 0.  1.
         21   -1    0    0  501  503 -0.00000000000E+00 -0.00000000000E+00 -0.80787475766E+02  0.80787475766E+02  0.00000000000E+00 0.  1.
         24    1    1    2    0    0  0.83477544997E+02  0.72377389518E+02  0.18825449429E+03  0.23262406927E+03  0.80419002446E+02 0.  1.
          1    1    1    2  501    0  0.49889369918E+02  0.57691913980E+01  0.25352374019E+02  0.56258116469E+02  0.00000000000E+00 0. -1.
         -2    1    1    2    0  502 -0.13336691492E+03 -0.78146580916E+02  0.95284269919E+02  0.18158390401E+03  0.00000000000E+00 0.  1.
<mgrwt>
<rscale>  2 0.17072552E+03</rscale>
<asrwt>0</asrwt>
<pdfrwt beam="1">  1       21 0.59950555E-01 0.17072552E+03</pdfrwt>
<pdfrwt beam="2">  1       21 0.12428843E-01 0.17072552E+03</pdfrwt>
<totfact> 0.14411572E+05</totfact>
</mgrwt>
</event>
<event>
 5    1  0.1281005E-004  0.1219886E+03  0.7546771E-02  0.1239852E+00
         21   -1    0    0  501  502  0.00000000000E+00  0.00000000000E+00  0.14842979408E+03  0.14842979408E+03  0.00000000000E+00 0. -1.
         21   -1    0    0  502  503 -0.00000000000E+00 -0.00000000000E+00 -0.10437692128E+03  0.10437692128E+03  0.00000000000E+00 0.  1.
         24    1    1    2    0    0 -0.46714771583E+01  0.55668277257E+01 -0.62572208029E+01  0.80988771051E+02  0.80419002446E+02 0.  1.
          1    1    1    2  501    0 -0.77918386297E+02  0.11877679921E+02  0.14581639992E+02  0.80155963149E+02  0.00000000000E+00 0. -1.
         -2    1    1    2    0  503  0.82589863455E+02 -0.17444507647E+02  0.35728453607E+02  0.91661981158E+02  0.00000000000E+00 0.  1.
<mgrwt>
<rscale>  2 0.12198862E+03</rscale>
<asrwt>0</asrwt>
<pdfrwt beam="1">  1       21 0.22835353E-01 0.12198862E+03</pdfrwt>
<pdfrwt beam="2">  1       21 0.16057988E-01 0.12198862E+03</pdfrwt>
<totfact> 0.62680451E+05</totfact>
</mgrwt>
</event>
<event>
 5    1  0.1281005E-004  0.1608404E+03  0.7546771E-02  0.1187751E+00
         21   -1    0    0  503  502  0.00000000000E+00  0.00000000000E+00  0.21337325974E+03  0.21337325974E+03  0.00000000000E+00 0.  1.
         21   -1    0    0  501  503 -0.00000000000E+00 -0.00000000000E+00 -0.14453427542E+03  0.14453427542E+03  0.00000000000E+00 0. -1.
         24    1    1    2    0    0  0.31419557141E+02  0.45905728661E+02  0.85834224406E+02  0.13011246877E+03  0.80419002446E+02 0.  1.
          1    1    1    2  501    0  0.23592488671E+02  0.81646645807E+02 -0.25196557128E+02  0.88643368530E+02  0.00000000000E+00 0. -1.
         -2    1    1    2    0  502 -0.55012045812E+02 -0.12755237447E+03  0.82013170352E+01  0.13915169786E+03  0.00000000000E+00 0.  1.
<mgrwt>
<rscale>  2 0.16084045E+03</rscale>
<asrwt>0</asrwt>
<pdfrwt beam="1">  1       21 0.32826655E-01 0.16084045E+03</pdfrwt>
<pdfrwt beam="2">  1       21 0.22236042E-01 0.16084045E+03</pdfrwt>
<totfact> 0.17071243E+05</totfact>
</mgrwt>
</event>
<event>
 5    1  0.1281005E-004  0.1984426E+03  0.7546771E-02  0.1151060E+00
         21   -1    0    0  501  502  0.00000000000E+00  0.00000000000E+00  0.46329395379E+03  0.46329395379E+03  0.00000000000E+00 0.  1.
         21   -1    0    0  502  503 -0.00000000000E+00 -0.00000000000E+00 -0.89272845397E+02  0.89272845397E+02  0.00000000000E+00 0. -1.
         24    1    1    2    0    0 -0.10365151027E+03 -0.26247261992E+02  0.17406863647E+03  0.21954421081E+03  0.80419002446E+02 0. -1.
          1    1    1    2  501    0  0.16604325105E+03  0.76656435222E+02  0.11423987800E+03  0.21563237235E+03  0.00000000000E+00 0. -1.
         -2    1    1    2    0  503 -0.62391740771E+02 -0.50409173230E+02  0.85712593916E+02  0.11739021602E+03  0.00000000000E+00 0.  1.
<mgrwt>
<rscale>  2 0.19844256E+03</rscale>
<asrwt>0</asrwt>
<pdfrwt beam="1">  1       21 0.71275992E-01 0.19844256E+03</pdfrwt>
<pdfrwt beam="2">  1       21 0.13734284E-01 0.19844256E+03</pdfrwt>
<totfact> 0.81752702E+04</totfact>
</mgrwt>
</event>
<event>
 5    1  0.1281005E-004  0.2383539E+03  0.7546771E-02  0.1120894E+00
         21   -1    0    0  503  502  0.00000000000E+00  0.00000000000E+00  0.95461564302E+02  0.95461564302E+02  0.00000000000E+00 0. -1.
         21   -1    0    0  501  503 -0.00000000000E+00 -0.00000000000E+00 -0.59605436207E+03  0.59605436207E+03  0.00000000000E+00 0.  1.
         24    1    1    2    0    0  0.80902132084E+02  0.51457710293E+02 -0.13078861782E+03  0.18101361670E+03  0.80419002446E+02 0. -1.
          1    1    1    2  501    0 -0.25515293176E+02  0.14511452283E+03 -0.16654831363E+03  0.22236815351E+03  0.00000000000E+00 0. -1.
         -2    1    1    2    0  502 -0.55386838908E+02 -0.19657223312E+03 -0.20325586632E+03  0.28813415617E+03  0.00000000000E+00 0.  1.
<mgrwt>
<rscale>  2 0.23835390E+03</rscale>
<asrwt>0</asrwt>
<pdfrwt beam="1">  1       21 0.14686395E-01 0.23835390E+03</pdfrwt>
<pdfrwt beam="2">  1       21 0.91700671E-01 0.23835390E+03</pdfrwt>
<totfact> 0.40085962E+04</totfact>
</mgrwt>
</event>
<event>
 5    1  0.1281005E-004  0.1823027E+03  0.7546771E-02  0.1165593E+00
         21   -1    0    0  503  502  0.00000000000E+00  0.00000000000E+00  0.16427394269E+03  0.16427394269E+03  0.00000000000E+00 0. -1.
         21   -1    0    0  501  503 -0.00000000000E+00 -0.00000000000E+00 -0.21735854841E+03  0.21735854841E+03  0.00000000000E+00 0.  1.
         24    1    1    2    0    0 -0.76636555597E+02  0.43434881015E+01  0.27999297497E+02  0.11464381430E+03  0.80419002446E+02 0.  0.
          1    1    1    2  501    0  0.14739500560E+03  0.58709789833E+02 -0.39556513734E+02  0.16351405101E+03  0.00000000000E+00 0. -1.
         -2    1    1    2    0  502 -0.70758450002E+02 -0.63053277934E+02 -0.41527389490E+02  0.10347462579E+03  0.00000000000E+00 0.  1.
<mgrwt>
<rscale>  2 0.18230266E+03</rscale>
<asrwt>0</asrwt>
<pdfrwt beam="1">  1       21 0.25272914E-01 0.18230266E+03</pdfrwt>
<pdfrwt beam="2">  1       21 0.33439776E-01 0.18230266E+03</pdfrwt>
<totfact> 0.12822903E+05</totfact>
</mgrwt>
</event>
<event>
 5    1  0.1281005E-004  0.1244127E+03  0.7546771E-02  0.1235990E+00
         21   -1    0    0  503  502  0.00000000000E+00  0.00000000000E+00  0.25257819692E+03  0.25257819692E+03  0.00000000000E+00 0.  1.
         21   -1    0    0  501  503 -0.00000000000E+00 -0.00000000000E+00 -0.63152611873E+02  0.63152611873E+02  0.00000000000E+00 0. -1.
         24    1    1    2    0    0 -0.48219926535E+02  0.49090450963E+02  0.64320313638E+02  0.12385213923E+03  0.80419002446E+02 0. -1.
          1    1    1    2  501    0  0.29253365896E+02  0.41308372288E+02  0.27942903983E+02  0.57818223081E+02  0.00000000000E+00 0. -1.
         -2    1    1    2    0  502  0.18966560639E+02 -0.90398823251E+02  0.97162367430E+02  0.13406044649E+03  0.00000000000E+00 0.  1.
<mgrwt>
<rscale>  2 0.12441268E+03</rscale>
<asrwt>0</asrwt>
<pdfrwt beam="1">  1       21 0.38858184E-01 0.12441268E+03</pdfrwt>
<pdfrwt beam="2">  1       21 0.97157866E-02 0.12441268E+03</pdfrwt>
<totfact> 0.54940740E+05</totfact>
</mgrwt>
</event>
<event>
 5    1  0.1281005E-004  0.1249752E+03  0.7546771E-02  0.1235108E+00
         21   -1    0    0  503  502  0.00000000000E+00  0.00000000000E+00  0.73176691413E+01  0.73176691413E+01  0.00000000000E+00 0.  1.
         21   -1    0    0  501  503 -0.00000000000E+00 -0.00000000000E+00 -0.21852468501E+04  0.21852468501E+04  0.00000000000E+00 0. -1.
         24    1    1    2    0    0  0.77038325142E+02 -0.15540372701E+01 -0.91997030268E+03  0.92668759155E+03  0.80419002446E+02 0. -1.
          1    1    1    2  501    0 -0.10770210399E+03 -0.18866798661E+01 -0.10692246261E+04  0.10746369637E+04  0.00000000000E+00 0. -1.
         -2    1    1    2    0  502  0.30663778845E+02  0.34407171362E+01 -0.18873425217E+03  0.19123996394E+03  0.00000000000E+00 0.  1.
<mgrwt>
<rscale>  2 0.12497524E+03</rscale>
<asrwt>0</asrwt>
<pdfrwt beam="1">  1       21 0.11257955E-02 0.12497524E+03</pdfrwt>
<pdfrwt beam="2">  1       21 0.33619174E+00 0.12497524E+03</pdfrwt>
<totfact> 0.70603137E+04</totfact>
</mgrwt>
</event>
<event>
 5    1  0.1281005E-004  0.2734268E+03  0.7546771E-02  0.1099334E+00
         21   -1    0    0  503  502  0.00000000000E+00  0.00000000000E+00  0.31300981486E+02  0.31300981486E+02  0.00000000000E+00 0.  1.
         21   -1    0    0  501  503 -0.00000000000E+00 -0.00000000000E+00 -0.25860283562E+04  0.25860283562E+04  0.00000000000E+00 0. -1.
         24    1    1    2    0    0 -0.43639039909E+02  0.94589187008E+02 -0.63483911363E+03  0.64833586686E+03  0.80419002446E+02 0. -1.
          1    1    1    2  501    0 -0.26258025640E+02 -0.24657286468E+03 -0.14297522775E+04  0.14510958743E+04  0.00000000000E+00 0. -1.
         -2    1    1    2    0  502  0.69897065549E+02  0.15198367767E+03 -0.49013598361E+03  0.51789759652E+03  0.00000000000E+00 0.  1.
<mgrwt>
<rscale>  2 0.27342684E+03</rscale>
<asrwt>0</asrwt>
<pdfrwt beam="1">  1       21 0.48155358E-02 0.27342684E+03</pdfrwt>
<pdfrwt beam="2">  1       21 0.39785050E+00 0.27342684E+03</pdfrwt>
<totfact> 0.23375429E+03</totfact>
</mgrwt>
</event>
<event>
 5    1  0.1281005E-004  0.1232608E+03  0.7546771E-02  0.1237813E+00
         21   -1    0    0  501  502  0.00000000000E+00  0.00000000000E+00  0.15109865204E+03  0.15109865204E+03  0.00000000000E+00 0. -1.
         21   -1    0    0  502  503 -0.00000000000E+00 -0.00000000000E+00 -0.11819191420E+03  0.11819191420E+03  0.00000000000E+00 0. -1.
         24    1    1    2    0    0 -0.22130716204E+02 -0.85795520118E+02 -0.34132879609E+02  0.12443033913E+03  0.80419002446E+02 0. -1.
          1    1    1    2  501    0  0.83139562467E+01  0.10382060519E+03  0.63195732413E+02  0.12182586148E+03  0.00000000000E+00 0. -1.
         -2    1    1    2    0  503  0.13816759957E+02 -0.18025085069E+02  0.38438850410E+01  0.23034365623E+02  0.00000000000E+00 0.  1.
<mgrwt>
<rscale>  2 0.12326079E+03</rscale>
<asrwt>0</asrwt>
<pdfrwt beam="1">  1       21 0.23245947E-01 0.12326079E+03</pdfrwt>
<pdfrwt beam="2">  1       21 0.18183371E-01 0.12326079E+03</pdfrwt>
<totfact> 0.48348538E+05</totfact>
</mgrwt>
</event>
<event>
 5    1  0.1281005E-004  0.2114465E+03  0.7546771E-02  0.1140426E+00
         21   -1    0    0  501  502  0.00000000000E+00  0.00000000000E+00  0.31564930498E+02  0.31564930498E+02  0.00000000000E+00 0. -1.
         21   -1    0    0  502  503 -0.00000000000E+00 -0.00000000000E+00 -0.14490124433E+04  0.14490124433E+04  0.00000000000E+00 0.  1.
         24    1    1    2    0    0  0.43080412696E+02 -0.10765991532E+03 -0.47679570382E+03  0.49724032264E+03  0.80419002446E+02 0.  0.
          1    1    1    2  501    0  0.61496321930E+02 -0.58871023014E+02 -0.37292405114E+03  0.38251789877E+03  0.00000000000E+00 0. -1.
         -2    1    1    2    0  503 -0.10457673463E+03  0.16653093834E+03 -0.56772775785E+03  0.60081915239E+03  0.00000000000E+00 0.  1.
<mgrwt>
<rscale>  2 0.21144651E+03</rscale>
<asrwt>0</asrwt>
<pdfrwt beam="1">  1       21 0.48561441E-02 0.21144651E+03</pdfrwt>
<pdfrwt beam="2">  1       21 0.22292495E+00 0.21144651E+03</pdfrwt>
<totfact> 0.26897586E+04</totfact>
</mgrwt>
</event>
<event>
 5    1  0.1281005E-004  0.1951904E+03  0.7546771E-02  0.1153861E+00
         21   -1    0    0  503  502  0.00000000000E+00  0.00000000000E+00  0.27339469192E+03  0.27339469192E+03  0.00000000000E+00 0. -1.
         21   -1    0    0  501  503 -0.00000000000E+00 -0.00000000000E+00 -0.13976813144E+03  0.13976813144E+03  0.00000000000E+00 0. -1.
         24    1    1    2    0    0 -0.37850676050E+02  0.80418859547E+02  0.46054407203E+02  0.12840596180E+03  0.80419002446E+02 0. -1.
          1    1    1    2  501    0  0.80140848356E+02 -0.16081499702E+03  0.50467174453E+02  0.18663052949E+03  0.00000000000E+00 0. -1.
         -2    1    1    2    0  502 -0.42290172306E+02  0.80396137470E+02  0.37104978823E+02  0.98126332079E+02  0.00000000000E+00 0.  1.
<mgrwt>
<rscale>  2 0.19519041E+03</rscale>
<asrwt>0</asrwt>
<pdfrwt beam="1">  1       21 0.42060722E-01 0.19519041E+03</pdfrwt>
<pdfrwt beam="2">  1       21 0.21502790E-01 0.19519041E+03</pdfrwt>
<totfact> 0.10952789E+05</totfact>
</mgrwt>
</event>
<event>
 5    1  0.1281005E-004  0.1688742E+03  0.7546771E-02  0.1179027E+00
         21   -1    0    0  501  502  0.00000000000E+00  0.00000000000E+00  0.32089075922E+02  0.32089075922E+02  0.00000000000E+00 0. -1.
         21   -1    0    0  502  503 -0.00000000000E+00 -0.00000000000E+00 -0.90609977734E+03  0.90609977734E+03  0.00000000000E+00 0.  1.
         24    1    1    2    0    0 -0.50712772294E+02 -0.21673140136E+01 -0.30607810609E+03  0.32051131884E+03  0.80419002446E+02 0.  0.
          1    1    1    2  501    0 -0.31500502876E+02 -0.10383194531E+03 -0.26659786824E+03  0.28783289926E+03  0.00000000000E+00 0. -1.
         -2    1    1    2    0  503  0.82213275170E+02  0.10599925933E+03 -0.30133472709E+03  0.32984463516E+03  0.00000000000E+00 0.  1.
<mgrwt>
<rscale>  2 0.16887420E+03</rscale>
<asrwt>0</asrwt>
<pdfrwt beam="1">  1       21 0.49367804E-02 0.16887420E+03</pdfrwt>
<pdfrwt beam="2">  1       21 0.13939998E+00 0.16887420E+03</pdfrwt>
<totfact> 0.10056445E+05</totfact>
</mgrwt>
</event>
<event>
 5    1  0.1281005E-004  0.2131409E+03  0.7546771E-02  0.1139103E+00
         21   -1    0    0  501  502  0.00000000000E+00  0.00000000000E+00  0.45112210879E+03  0.45112210879E+03  0.00000000000E+00 0.  1.
         21   -1    0    0  502  503 -0.00000000000E+00 -0.00000000000E+00 -0.15114133833E+03  0.15114133833E+03  0.00000000000E+00 0.  1.
         24    1    1    2    0    0  0.33793691441E+02 -0.99414127038E+02  0.27731805913E+03  0.30724209365E+03  0.80419002446E+02 0.  1.
          1    1    1    2  501    0 -0.22378578804E+02 -0.95848856685E+02  0.35050643996E+01  0.98489032860E+02  0.00000000000E+00 0. -1.
         -2    1    1    2    0  503 -0.11415112637E+02  0.19526298372E+03  0.19157646932E+02  0.19653232061E+03  0.00000000000E+00 0.  1.
<mgrwt>
<rscale>  2 0.21314092E+03</rscale>
<asrwt>0</asrwt>
<pdfrwt beam="1">  1       21 0.69403401E-01 0.21314092E+03</pdfrwt>
<pdfrwt beam="2">  1       21 0.23252514E-01 0.21314092E+03</pdfrwt>
<totfact> 0.32466852E+04</totfact>
</mgrwt>
</event>
<event>
 5    1  0.1281005E-004  0.1149988E+03  0.7546771E-02  0.1251583E+00
         21   -1    0    0  501  502  0.00000000000E+00  0.00000000000E+00  0.36167354228E+02  0.36167354228E+02  0.00000000000E+00 0.  1.
         21   -1    0    0  502  503 -0.00000000000E+00 -0.00000000000E+00 -0.39020696426E+03  0.39020696426E+03  0.00000000000E+00 0. -1.
         24    1    1    2    0    0  0.11894667220E+02  0.33603464535E+02 -0.15081597441E+03  0.17459481673E+03  0.80419002446E+02 0.  0.
          1    1    1    2  501    0  0.32531243267E+02 -0.74722999843E+02 -0.78565153922E+02  0.11320022926E+03  0.00000000000E+00 0. -1.
         -2    1    1    2    0  503 -0.44425910487E+02  0.41119535308E+02 -0.12465848170E+03  0.13857927250E+03  0.00000000000E+00 0.  1.
<mgrwt>
<rscale>  2 0.11499875E+03</rscale>
<asrwt>0</asrwt>
<pdfrwt beam="1">  1       21 0.55642083E-02 0.11499875E+03</pdfrwt>
<pdfrwt beam="2">  1       21 0.60031842E-01 0.11499875E+03</pdfrwt>
<totfact> 0.58551413E+05</totfact>
</mgrwt>
</event>
<event>
 5    1  0.1281005E-004  0.2307566E+03  0.7546771E-02  0.1126108E+00
         21   -1    0    0  503  502  0.00000000000E+00  0.00000000000E+00  0.12411847976E+03  0.12411847976E+03  0.00000000000E+00 0.  1.
         21   -1    0    0  501  503 -0.00000000000E+00 -0.00000000000E+00 -0.45458912399E+03  0.45458912399E+03  0.00000000000E+00 0. -1.
         24    1    1    2    0    0  0.11085804764E+03  0.10080552808E+03 -0.60865185232E+02  0.18061851496E+03  0.80419002446E+02 0.  1.
          1    1    1    2  501    0 -0.19180344700E+03 -0.61104378070E+02 -0.20392311062E+03  0.28654308986E+03  0.00000000000E+00 0. -1.
         -2    1    1    2    0  502  0.80945399355E+02 -0.39701150007E+02 -0.65682348389E+02  0.11154599894E+03  0.00000000000E+00 0.  1.
<mgrwt>
<rscale>  2 0.23075659E+03</rscale>
<asrwt>0</asrwt>
<pdfrwt beam="1">  1       21 0.19095151E-01 0.23075659E+03</pdfrwt>
<pdfrwt beam="2">  1       21 0.69936789E-01 0.23075659E+03</pdfrwt>
<totfact> 0.45872530E+04</totfact>
</mgrwt>
</event>
<event>
 5    1  0.1281005E-004  0.3799565E+03  0.7546771E-02  0.1050950E+00
         21   -1    0    0  501  502  0.00000000000E+00  0.00000000000E+00  0.27513374439E+03  0.27513374439E+03  0.00000000000E+00 0.  1.
         21   -1    0    0  502  503 -0.00000000000E+00 -0.00000000000E+00 -0.56842913808E+03  0.56842913808E+03  0.00000000000E+00 0. -1.
         24    1    1    2    0    0 -0.13620350434E+03  0.62231802988E+02 -0.12108005518E+02  0.17040543316E+03  0.80419002446E+02 0.  1.
          1    1    1    2  501    0 -0.22492971830E+03 -0.11101944408E+02 -0.19612970322E+03  0.29863605246E+03  0.00000000000E+00 0. -1.
         -2    1    1    2    0  503  0.36113322263E+03 -0.51129858580E+02 -0.85057684953E+02  0.37452139685E+03  0.00000000000E+00 0.  1.
<mgrwt>
<rscale>  2 0.37995653E+03</rscale>
<asrwt>0</asrwt>
<pdfrwt beam="1">  1       21 0.42328269E-01 0.37995653E+03</pdfrwt>
<pdfrwt beam="2">  1       21 0.87450635E-01 0.37995653E+03</pdfrwt>
<totfact> 0.54416227E+03</totfact>
</mgrwt>
</event>
<event>
 5    1  0.1281005E-004  0.1558604E+03  0.7546771E-02  0.1193451E+00
         21   -1    0    0  501  502  0.00000000000E+00  0.00000000000E+00  0.90515567507E+02  0.90515567507E+02  0.00000000000E+00 0. -1.
         21   -1    0    0  502  503 -0.00000000000E+00 -0.00000000000E+00 -0.26847956037E+03  0.26847956037E+03  0.00000000000E+00 0. -1.
         24    1    1    2    0    0 -0.28181042265E+02 -0.97050583762E+02 -0.70547923643E+02  0.14716389651E+03  0.80419002446E+02 0. -1.
          1    1    1    2  501    0  0.37447956207E+02  0.13675901200E+03 -0.82603804047E+02  0.16409986359E+03  0.00000000000E+00 0. -1.
         -2    1    1    2    0  503 -0.92669139420E+01 -0.39708428235E+02 -0.24812265171E+02  0.47731367776E+02  0.00000000000E+00 0.  1.
<mgrwt>
<rscale>  2 0.15586036E+03</rscale>
<asrwt>0</asrwt>
<pdfrwt beam="1">  1       21 0.13925472E-01 0.15586036E+03</pdfrwt>
<pdfrwt beam="2">  1       21 0.41304547E-01 0.15586036E+03</pdfrwt>
<totfact> 0.25581499E+05</totfact>
</mgrwt>
</event>
<event>
 5    1  0.1281005E-004  0.1733486E+03  0.7546771E-02  0.1174400E+00
         21   -1    0    0  503  502  0.00000000000E+00  0.00000000000E+00  0.66109005530E+03  0.66109005530E+03  0.00000000000E+00 0.  1.
         21   -1    0    0  501  503 -0.00000000000E+00 -0.00000000000E+00 -0.52475077955E+02  0.52475077955E+02  0.00000000000E+00 0.  1.
         24    1    1    2    0    0 -0.52820658021E+02 -0.12112897849E+03  0.14655028768E+03  0.21308790232E+03  0.80419002446E+02 0.  1.
          1    1    1    2  501    0 -0.27716096811E+02 -0.16709560512E+02  0.68213490736E+02  0.75501468551E+02  0.00000000000E+00 0. -1.
         -2    1    1    2    0  502  0.80536754832E+02  0.13783853900E+03  0.39385119893E+03  0.42497576238E+03  0.00000000000E+00 0.  1.
<mgrwt>
<rscale>  2 0.17334857E+03</rscale>
<asrwt>0</asrwt>
<pdfrwt beam="1">  1       21 0.10170616E+00 0.17334857E+03</pdfrwt>
<pdfrwt beam="2">  1       21 0.80730894E-02 0.17334857E+03</pdfrwt>
<totfact> 0.93909728E+04</totfact>
</mgrwt>
</event>
<event>
 5    1  0.1281005E-004  0.1292277E+03  0.7546771E-02  0.1228606E+00
         21   -1    0    0  503  502  0.00000000000E+00  0.00000000000E+00  0.12763144384E+03  0.12763144384E+03  0.00000000000E+00 0.  1.
         21   -1    0    0  501  503 -0.00000000000E+00 -0.00000000000E+00 -0.13190202087E+03  0.13190202087E+03  0.00000000000E+00 0. -1.
         24    1    1    2    0    0  0.74818551583E+01 -0.10092515622E+02 -0.81380779797E+01  0.81800252419E+02  0.80419002446E+02 0. -1.
          1    1    1    2  501    0 -0.13610954937E+02 -0.82827842889E+02 -0.56332036030E+01  0.84127537910E+02  0.00000000000E+00 0. -1.
         -2    1    1    2    0  502  0.61290997792E+01  0.92920358510E+02  0.95007045488E+01  0.93605674383E+02  0.00000000000E+00 0.  1.
<mgrwt>
<rscale>  2 0.12922772E+03</rscale>
<asrwt>0</asrwt>
<pdfrwt beam="1">  1       21 0.19635607E-01 0.12922772E+03</pdfrwt>
<pdfrwt beam="2">  1       21 0.20292619E-01 0.12922772E+03</pdfrwt>
<totfact> 0.54050689E+05</totfact>
</mgrwt>
</event>
<event>
 5    1  0.1281005E-004  0.2704737E+03  0.7546771E-02  0.1101009E+00
         21   -1    0    0  501  502  0.00000000000E+00  0.00000000000E+00  0.99542071993E+03  0.99542071993E+03  0.00000000000E+00 0. -1.
         21   -1    0    0  502  503 -0.00000000000E+00 -0.00000000000E+00 -0.97801095454E+02  0.97801095454E+02  0.00000000000E+00 0.  1.
         24    1    1    2    0    0  0.10236580012E+03 -0.70276484177E+02  0.82527908264E+02  0.16939779473E+03  0.80419002446E+02 0.  1.
          1    1    1    2  501    0 -0.39300144301E+02  0.22370360618E+03  0.65510500145E+03  0.69336164279E+03  0.00000000000E+00 0. -1.
         -2    1    1    2    0  503 -0.63065655823E+02 -0.15342712201E+03  0.15998671476E+03  0.23046237787E+03  0.00000000000E+00 0.  1.
<mgrwt>
<rscale>  2 0.27047372E+03</rscale>
<asrwt>0</asrwt>
<pdfrwt beam="1">  1       21 0.15314164E+00 0.27047372E+03</pdfrwt>
<pdfrwt beam="2">  1       21 0.15046323E-01 0.27047372E+03</pdfrwt>
<totfact> 0.10491435E+04</totfact>
</mgrwt>
</event>
<event>
 5    1  0.1281005E-004  0.1060289E+03  0.7546771E-02  0.1268106E+00
         21   -1    0    0  503  502  0.00000000000E+00  0.00000000000E+00  0.19765067661E+03  0.19765067661E+03  0.00000000000E+00 0. -1.
         21   -1    0    0  501  503 -0.00000000000E+00 -0.00000000000E+00 -0.58748412520E+02  0.58748412520E+02  0.00000000000E+00 0.  1.
         24    1    1    2    0    0 -0.27782864827E+02  0.19598554430E+02  0.77083460758E+02  0.11646916669E+03  0.80419002446E+02 0.  0.
          1    1    1    2  501    0  0.64705890190E+02  0.22725478574E+02  0.26161275430E+02  0.73401034965E+02  0.00000000000E+00 0. -1.
         -2    1    1    2    0  502 -0.36923025363E+02 -0.42324033004E+02  0.35657527898E+02  0.66528887466E+02  0.00000000000E+00 0.  1.
<mgrwt>
<rscale>  2 0.10602885E+03</rscale>
<asrwt>0</asrwt>
<pdfrwt beam="1">  1       21 0.30407796E-01 0.10602885E+03</pdfrwt>
<pdfrwt beam="2">  1       21 0.90382174E-02 0.10602885E+03</pdfrwt>
<totfact> 0.10053844E+06</totfact>
</mgrwt>
</event>
<event>
 5    1  0.1281005E-004  0.1712346E+03  0.7546771E-02  0.1176566E+00
         21   -1    0    0  501  502  0.00000000000E+00  0.00000000000E+00  0.14079093787E+03  0.14079093787E+03  0.00000000000E+00 0.  1.
         21   -1    0    0  502  503 -0.00000000000E+00 -0.00000000000E+00 -0.20877328737E+03  0.20877328737E+03  0.00000000000E+00 0. -1.
         24    1    1    2    0    0 -0.59996992942E+02 -0.23520920733E+02 -0.25976973191E+02  0.10627742924E+03  0.80419002446E+02 0.  0.
          1    1    1    2  501    0 -0.73430960159E+02  0.66672448285E+02 -0.12302074012E+02  0.99943295399E+02  0.00000000000E+00 0. -1.
         -2    1    1    2    0  503  0.13342795310E+03 -0.43151527552E+02 -0.29703302294E+02  0.14334350061E+03  0.00000000000E+00 0.  1.
<mgrwt>
<rscale>  2 0.17123465E+03</rscale>
<asrwt>0</asrwt>
<pdfrwt beam="1">  1       21 0.21660144E-01 0.17123465E+03</pdfrwt>
<pdfrwt beam="2">  1       21 0.32118967E-01 0.17123465E+03</pdfrwt>
<totfact> 0.18652176E+05</totfact>
</mgrwt>
</event>
<event>
 5    1  0.1281005E-004  0.1472145E+03  0.7546771E-02  0.1203938E+00
         21   -1    0    0  503  502  0.00000000000E+00  0.00000000000E+00  0.23422506544E+03  0.23422506544E+03  0.00000000000E+00 0.  1.
         21   -1    0    0  501  503 -0.00000000000E+00 -0.00000000000E+00 -0.92967276711E+02  0.92967276711E+02  0.00000000000E+00 0. -1.
         24    1    1    2    0    0  0.70631970521E+02  0.58988348846E+02  0.48234467229E+02  0.13138599751E+03  0.80419002446E+02 0. -1.
          1    1    1    2  501    0  0.39265359651E+02  0.12390469744E+02  0.24828207596E+02  0.48080475262E+02  0.00000000000E+00 0. -1.
         -2    1    1    2    0  502 -0.10989733017E+03 -0.71378818590E+02  0.68195113907E+02  0.14772586938E+03  0.00000000000E+00 0.  1.
<mgrwt>
<rscale>  2 0.14721452E+03</rscale>
<asrwt>0</asrwt>
<pdfrwt beam="1">  1       21 0.36034625E-01 0.14721452E+03</pdfrwt>
<pdfrwt beam="2">  1       21 0.14302658E-01 0.14721452E+03</pdfrwt>
<totfact> 0.32071100E+05</totfact>
</mgrwt>
</event>
<event>
 5    1  0.1281005E-004  0.2114892E+03  0.7546771E-02  0.1140392E+00
         21   -1    0    0  503  502  0.00000000000E+00  0.00000000000E+00  0.58000343141E+03  0.58000343141E+03  0.00000000000E+00 0.  1.
         21   -1    0    0  501  503 -0.00000000000E+00 -0.00000000000E+00 -0.89328412665E+02  0.89328412665E+02  0.00000000000E+00 0. -1.
         24    1    1    2    0    0  0.10937440433E+03 -0.25896320940E+02  0.15953788650E+03  0.21107565692E+03  0.80419002446E+02 0. -1.
          1    1    1    2  501    0 -0.19432727689E+03  0.40691570295E+02  0.12450040111E+03  0.23434855304E+03  0.00000000000E+00 0. -1.
         -2    1    1    2    0  502  0.84952872565E+02 -0.14795249355E+02  0.20663673113E+03  0.22390763411E+03  0.00000000000E+00 0.  1.
<mgrwt>
<rscale>  2 0.21148922E+03</rscale>
<asrwt>0</asrwt>
<pdfrwt beam="1">  1       21 0.89231295E-01 0.21148922E+03</pdfrwt>
<pdfrwt beam="2">  1       21 0.13742833E-01 0.21148922E+03</pdfrwt>
<totfact> 0.48811389E+04</totfact>
</mgrwt>
</event>
<event>
 5    1  0.1281005E-004  0.3080681E+03  0.7546771E-02  0.1081276E+00
         21   -1    0    0  501  502  0.00000000000E+00  0.00000000000E+00  0.67627701989E+02  0.67627701989E+02  0.00000000000E+00 0.  1.
         21   -1    0    0  502  503 -0.00000000000E+00 -0.00000000000E+00 -0.14074789933E+04  0.14074789933E+04  0.00000000000E+00 0. -1.
         24    1    1    2    0    0 -0.11087103075E+02  0.45137498777E+02 -0.18841651673E+03  0.21006741152E+03  0.80419002446E+02 0.  0.
          1    1    1    2  501    0  0.20904098493E+03 -0.18638864567E+03 -0.58365814626E+03  0.64737600535E+03  0.00000000000E+00 0. -1.
         -2    1    1    2    0  503 -0.19795388186E+03  0.14125114689E+03 -0.56777662837E+03  0.61766327847E+03  0.00000000000E+00 0.  1.
<mgrwt>
<rscale>  2 0.30806810E+03</rscale>
<asrwt>0</asrwt>
<pdfrwt beam="1">  1       21 0.10404262E-01 0.30806810E+03</pdfrwt>
<pdfrwt beam="2">  1       21 0.21653522E+00 0.30806810E+03</pdfrwt>
<totfact> 0.73512956E+03</totfact>
</mgrwt>
</event>
<event>
 5    1  0.1281005E-004  0.8858756E+02  0.7546771E-02  0.1306309E+00
         21   -1    0    0  501  502  0.00000000000E+00  0.00000000000E+00  0.68274084170E+02  0.68274084170E+02  0.00000000000E+00 0.  1.
         21   -1    0    0  502  503 -0.00000000000E+00 -0.00000000000E+00 -0.12490606320E+03  0.12490606320E+03  0.00000000000E+00 0.  1.
         24    1    1    2    0    0 -0.42037450534E+02  0.17335865593E+02 -0.56674161350E+02  0.10838291379E+03  0.80419002446E+02 0.  1.
          1    1    1    2  501    0 -0.46004756773E+01 -0.34716003625E+02  0.53812678382E+00  0.35023632944E+02  0.00000000000E+00 0. -1.
         -2    1    1    2    0  503  0.46637926212E+02  0.17380138032E+02 -0.49594446699E+00  0.49773600636E+02  0.00000000000E+00 0.  1.
<mgrwt>
<rscale>  2 0.88587563E+02</rscale>
<asrwt>0</asrwt>
<pdfrwt beam="1">  1       21 0.10503705E-01 0.88587563E+02</pdfrwt>
<pdfrwt beam="2">  1       21 0.19216317E-01 0.88587563E+02</pdfrwt>
<totfact> 0.18194451E+06</totfact>
</mgrwt>
</event>
<event>
 5    1  0.1281005E-004  0.2035009E+03  0.7546771E-02  0.1146818E+00
         21   -1    0    0  501  502  0.00000000000E+00  0.00000000000E+00  0.20129266938E+03  0.20129266938E+03  0.00000000000E+00 0.  1.
         21   -1    0    0  502  503 -0.00000000000E+00 -0.00000000000E+00 -0.22602503502E+03  0.22602503502E+03  0.00000000000E+00 0. -1.
         24    1    1    2    0    0 -0.16018464337E+03  0.40122812665E+02  0.52244866663E+02  0.19095994898E+03  0.80419002446E+02 0.  1.
          1    1    1    2  501    0  0.18993462426E+03 -0.33987491688E+02 -0.63562228017E+02  0.20315134239E+03  0.00000000000E+00 0. -1.
         -2    1    1    2    0  503 -0.29749980895E+02 -0.61353209770E+01 -0.13415004285E+02  0.33206413036E+02  0.00000000000E+00 0.  1.
<mgrwt>
<rscale>  2 0.20350086E+03</rscale>
<asrwt>0</asrwt>
<pdfrwt beam="1">  1       21 0.30968103E-01 0.20350086E+03</pdfrwt>
<pdfrwt beam="2">  1       21 0.34773082E-01 0.20350086E+03</pdfrwt>
<totfact> 0.79467207E+04</totfact>
</mgrwt>
</event>
<event>
 5    1  0.1281005E-004  0.2181789E+03  0.7546771E-02  0.1135248E+00
         21   -1    0    0  501  502  0.00000000000E+00  0.00000000000E+00  0.38997770813E+03  0.38997770813E+03  0.00000000000E+00 0.  1.
         21   -1    0    0  502  503 -0.00000000000E+00 -0.00000000000E+00 -0.12324812250E+03  0.12324812250E+03  0.00000000000E+00 0. -1.
         24    1    1    2    0    0  0.47646901794E+02  0.66632199535E+02  0.50168675795E+02  0.12527645130E+03  0.80419002446E+02 0.  1.
          1    1    1    2  501    0 -0.17743332455E+03 -0.40526042043E+01  0.11098907884E+03  0.20932650067E+03  0.00000000000E+00 0. -1.
         -2    1    1    2    0  503  0.12978642275E+03 -0.62579595331E+02  0.10557183099E+03  0.17862287866E+03  0.00000000000E+00 0.  1.
<mgrwt>
<rscale>  2 0.21817890E+03</rscale>
<asrwt>0</asrwt>
<pdfrwt beam="1">  1       21 0.59996570E-01 0.21817890E+03</pdfrwt>
<pdfrwt beam="2">  1       21 0.18961250E-01 0.21817890E+03</pdfrwt>
<totfact> 0.65319456E+04</totfact>
</mgrwt>
</event>
<event>
 5    1  0.1281005E-004  0.2725819E+03  0.7546771E-02  0.1099811E+00
         21   -1    0    0  503  502  0.00000000000E+00  0.00000000000E+00  0.91490954594E+02  0.91490954594E+02  0.00000000000E+00 0.  1.
         21   -1    0    0  501  503 -0.00000000000E+00 -0.00000000000E+00 -0.87580218655E+03  0.87580218655E+03  0.00000000000E+00 0. -1.
         24    1    1    2    0    0 -0.13401671352E+03 -0.12731821163E+03 -0.26201420174E+03  0.33058896592E+03  0.80419002446E+02 0. -1.
          1    1    1    2  501    0 -0.86166676302E+02 -0.56603076336E+01 -0.23866187674E+03  0.25380351967E+03  0.00000000000E+00 0. -1.
         -2    1    1    2    0  502  0.22018338983E+03  0.13297851927E+03 -0.28363515348E+03  0.38290065556E+03  0.00000000000E+00 0.  1.
<mgrwt>
<rscale>  2 0.27258190E+03</rscale>
<asrwt>0</asrwt>
<pdfrwt beam="1">  1       21 0.14075531E-01 0.27258190E+03</pdfrwt>
<pdfrwt beam="2">  1       21 0.13473880E+00 0.27258190E+03</pdfrwt>
<totfact> 0.16588931E+04</totfact>
</mgrwt>
</event>
<event>
 5    1  0.1281005E-004  0.1465092E+03  0.7546771E-02  0.1204829E+00
         21   -1    0    0  501  502  0.00000000000E+00  0.00000000000E+00  0.38397619754E+02  0.38397619754E+02  0.00000000000E+00 0. -1.
         21   -1    0    0  502  503 -0.00000000000E+00 -0.00000000000E+00 -0.56844848859E+03  0.56844848859E+03  0.00000000000E+00 0.  1.
         24    1    1    2    0    0  0.29817700095E+02 -0.19991403125E+02 -0.15046461861E+03  0.17434325007E+03  0.80419002446E+02 0.  0.
          1    1    1    2  501    0 -0.76719241984E+02 -0.69753522137E+02 -0.15953141987E+03  0.19026736417E+03  0.00000000000E+00 0. -1.
         -2    1    1    2    0  503  0.46901541889E+02  0.89744925262E+02 -0.22005483036E+03  0.24223549411E+03  0.00000000000E+00 0.  1.
<mgrwt>
<rscale>  2 0.14650924E+03</rscale>
<asrwt>0</asrwt>
<pdfrwt beam="1">  1       21 0.59073265E-02 0.14650924E+03</pdfrwt>
<pdfrwt beam="2">  1       21 0.87453608E-01 0.14650924E+03</pdfrwt>
<totfact> 0.23038587E+05</totfact>
</mgrwt>
</event>
<event>
 5    1  0.1281005E-004  0.2666324E+03  0.7546771E-02  0.1103223E+00
         21   -1    0    0  503  502  0.00000000000E+00  0.00000000000E+00  0.21862649626E+03  0.21862649626E+03  0.00000000000E+00 0.  1.
         21   -1    0    0  501  503 -0.00000000000E+00 -0.00000000000E+00 -0.39435748849E+03  0.39435748849E+03  0.00000000000E+00 0. -1.
         24    1    1    2    0    0 -0.10480524241E+03  0.13955270154E+02  0.62367911660E+02  0.14675101622E+03  0.80419002446E+02 0.  1.
          1    1    1    2  501    0  0.22462658516E+03  0.89814192305E+02 -0.13329092461E+03  0.27620673867E+03  0.00000000000E+00 0. -1.
         -2    1    1    2    0  502 -0.11982134275E+03 -0.10376946246E+03 -0.10480797928E+03  0.19002622987E+03  0.00000000000E+00 0.  1.
<mgrwt>
<rscale>  2 0.26663241E+03</rscale>
<asrwt>0</asrwt>
<pdfrwt beam="1">  1       21 0.33634846E-01 0.26663241E+03</pdfrwt>
<pdfrwt beam="2">  1       21 0.60670382E-01 0.26663241E+03</pdfrwt>
<totfact> 0.20722911E+04</totfact>
</mgrwt>
</event>
<event>
 5    1  0.1281005E-004  0.1718818E+03  0.7546771E-02  0.1175900E+00
         21   -1    0    0  501  502  0.00000000000E+00  0.00000000000E+00  0.98314020518E+02  0.98314020518E+02  0.00000000000E+00 0.  1.
         21   -1    0    0  502  503 -0.00000000000E+00 -0.00000000000E+00 -0.31769736062E+03  0.31769736062E+03  0.00000000000E+00 0. -1.
         24    1    1    2    0    0  0.74703181158E+02  0.76454423784E+01 -0.46607078987E+02  0.11949248441E+03  0.80419002446E+02 0.  1.
          1    1    1    2  501    0 -0.13731903673E+03  0.52404247208E+02 -0.14226534443E+03  0.20455354116E+03  0.00000000000E+00 0. -1.
         -2    1    1    2    0  503  0.62615855574E+02 -0.60049689587E+02 -0.30510916690E+02  0.91965355575E+02  0.00000000000E+00 0.  1.
<mgrwt>
<rscale>  2 0.17188180E+03</rscale>
<asrwt>0</asrwt>
<pdfrwt beam="1">  1       21 0.15125234E-01 0.17188180E+03</pdfrwt>
<pdfrwt beam="2">  1       21 0.48876516E-01 0.17188180E+03</pdfrwt>
<totfact> 0.15541045E+05</totfact>
</mgrwt>
</event>
<event>
 5    1  0.1281005E-004  0.2349114E+03  0.7546771E-02  0.1123230E+00
         21   -1    0    0  503  502  0.00000000000E+00  0.00000000000E+00  0.38447504749E+03  0.38447504749E+03  0.00000000000E+00 0.  1.
         21   -1    0    0  501  503 -0.00000000000E+00 -0.00000000000E+00 -0.14717178284E+03  0.14717178284E+03  0.00000000000E+00 0.  1.
         24    1    1    2    0    0 -0.35364852339E+02  0.16361427142E+03  0.67361975913E+02  0.19754785330E+03  0.80419002446E+02 0.  1.
          1    1    1    2  501    0 -0.32222991913E+02  0.50322675364E+02  0.15534489684E+02  0.61741503329E+02  0.00000000000E+00 0. -1.
         -2    1    1    2    0  502  0.67587844252E+02 -0.21393694678E+03  0.15440679905E+03  0.27235747370E+03  0.00000000000E+00 0.  1.
<mgrwt>
<rscale>  2 0.23491141E+03</rscale>
<asrwt>0</asrwt>
<pdfrwt beam="1">  1       21 0.59150007E-01 0.23491141E+03</pdfrwt>
<pdfrwt beam="2">  1       21 0.22641813E-01 0.23491141E+03</pdfrwt>
<totfact> 0.47893758E+04</totfact>
</mgrwt>
</event>
<event>
 5    1  0.1281005E-004  0.3388452E+03  0.7546771E-02  0.1067289E+00
         21   -1    0    0  503  502  0.00000000000E+00  0.00000000000E+00  0.65066021552E+03  0.65066021552E+03  0.00000000000E+00 0.  1.
         21   -1    0    0  501  503 -0.00000000000E+00 -0.00000000000E+00 -0.24140874670E+03  0.24140874670E+03  0.00000000000E+00 0. -1.
         24    1    1    2    0    0 -0.48027876939E+02  0.16849515209E+03  0.27279268107E+03  0.33403645915E+03  0.80419002446E+02 0.  0.
          1    1    1    2  501    0  0.10160206607E+03 -0.31390810079E+03 -0.29148842685E+02  0.33122640384E+03  0.00000000000E+00 0. -1.
         -2    1    1    2    0  502 -0.53574189127E+02  0.14541294870E+03  0.16560763043E+03  0.22680609923E+03  0.00000000000E+00 0.  1.
<mgrwt>
<rscale>  2 0.33884522E+03</rscale>
<asrwt>0</asrwt>
<pdfrwt beam="1">  1       21 0.10010157E+00 0.33884522E+03</pdfrwt>
<pdfrwt beam="2">  1       21 0.37139807E-01 0.33884522E+03</pdfrwt>
<totfact> 0.52491613E+03</totfact>
</mgrwt>
</event>
<event>
 5    1  0.1281005E-004  0.1578182E+03  0.7546771E-02  0.1191182E+00
         21   -1    0    0  503  502  0.00000000000E+00  0.00000000000E+00  0.12067174257E+03  0.12067174257E+03  0.00000000000E+00 0. -1.
         21   -1    0    0  501  503 -0.00000000000E+00 -0.00000000000E+00 -0.40728738979E+03  0.40728738979E+03  0.00000000000E+00 0.  1.
         24    1    1    2    0    0  0.66205559221E+02  0.38252695913E+02  0.59409593516E+02  0.12586961735E+03  0.80419002446E+02 0. -1.
          1    1    1    2  501    0  0.46684906944E+02  0.44656931683E+02 -0.11594035159E+03  0.13272485529E+03  0.00000000000E+00 0. -1.
         -2    1    1    2    0  502 -0.11289046616E+03 -0.82909627596E+02 -0.23008488914E+03  0.26936465973E+03  0.00000000000E+00 0.  1.
<mgrwt>
<rscale>  2 0.15781825E+03</rscale>
<asrwt>0</asrwt>
<pdfrwt beam="1">  1       21 0.18564883E-01 0.15781825E+03</pdfrwt>
<pdfrwt beam="2">  1       21 0.62659599E-01 0.15781825E+03</pdfrwt>
<totfact> 0.63592318E+04</totfact>
</mgrwt>
</event>
<event>
 5    1  0.1281005E-004  0.1767295E+03  0.7546771E-02  0.1171006E+00
         21   -1    0    0  501  502  0.00000000000E+00  0.00000000000E+00  0.17139264609E+03  0.17139264609E+03  0.00000000000E+00 0. -1.
         21   -1    0    0  502  503 -0.00000000000E+00 -0.00000000000E+00 -0.20043373725E+03  0.20043373725E+03  0.00000000000E+00 0.  1.
         24    1    1    2    0    0 -0.61498503224E+02  0.36809890931E+02  0.40814634116E+02  0.11519585184E+03  0.80419002446E+02 0. -1.
          1    1    1    2  501    0 -0.23146470379E+02  0.90190171951E+02 -0.14268640626E+02  0.94199895503E+02  0.00000000000E+00 0. -1.
         -2    1    1    2    0  503  0.84644973604E+02 -0.12700006288E+03 -0.55587084655E+02  0.16243063599E+03  0.00000000000E+00 0.  1.
<mgrwt>
<rscale>  2 0.17672951E+03</rscale>
<asrwt>0</asrwt>
<pdfrwt beam="1">  1       21 0.26368099E-01 0.17672951E+03</pdfrwt>
<pdfrwt beam="2">  1       21 0.30835960E-01 0.17672951E+03</pdfrwt>
<totfact> 0.13887555E+05</totfact>
</mgrwt>
</event>
<event>
 5    1  0.1281005E-004  0.2797096E+03  0.7546771E-02  0.1095848E+00
         21   -1    0    0  503  502  0.00000000000E+00  0.00000000000E+00  0.94726187945E+02  0.94726187945E+02  0.00000000000E+00 0.  1.
         21   -1    0    0  501  503 -0.00000000000E+00 -0.00000000000E+00 -0.94560818385E+03  0.94560818385E+03  0.00000000000E+00 0.  1.
         24    1    1    2    0    0 -0.92167085610E+02  0.11810738969E+03 -0.11792275262E+03  0.20692297772E+03  0.80419002446E+02 0.  1.
          1    1    1    2  501    0  0.10810676985E+01  0.12746268036E+03 -0.31931514422E+03  0.34381690610E+03  0.00000000000E+00 0. -1.
         -2    1    1    2    0  502  0.91086017912E+02 -0.24557007005E+03 -0.41364409907E+03  0.48959448798E+03  0.00000000000E+00 0.  1.
<mgrwt>
<rscale>  2 0.27970958E+03</rscale>
<asrwt>0</asrwt>
<pdfrwt beam="1">  1       21 0.14573259E-01 0.27970958E+03</pdfrwt>
<pdfrwt beam="2">  1       21 0.14547819E+00 0.27970958E+03</pdfrwt>
<totfact> 0.12691978E+04</totfact>
</mgrwt>
</event>
<event>
 5    1  0.1281005E-004  0.1566939E+03  0.7546771E-02  0.1192481E+00
         21   -1    0    0  501  502  0.00000000000E+00  0.00000000000E+00  0.10786036102E+03  0.10786036102E+03  0.00000000000E+00 0. -1.
         21   -1    0    0  502  503 -0.00000000000E+00 -0.00000000000E+00 -0.24288993434E+03  0.24288993434E+03  0.00000000000E+00 0.  1.
         24    1    1    2    0    0 -0.74282082691E+02 -0.97429596850E+02 -0.20565031934E+02  0.14798814359E+03  0.80419002446E+02 0.  0.
          1    1    1    2  501    0  0.88490403209E+02  0.11444635493E+03 -0.10447030620E+03  0.17844485001E+03  0.00000000000E+00 0. -1.
         -2    1    1    2    0  503 -0.14208320517E+02 -0.17016758082E+02 -0.99942351858E+01  0.24317301752E+02  0.00000000000E+00 0.  1.
<mgrwt>
<rscale>  2 0.15669390E+03</rscale>
<asrwt>0</asrwt>
<pdfrwt beam="1">  1       21 0.16593902E-01 0.15669390E+03</pdfrwt>
<pdfrwt beam="2">  1       21 0.37367682E-01 0.15669390E+03</pdfrwt>
<totfact> 0.22748685E+05</totfact>
</mgrwt>
</event>
<event>
 5    1  0.1281005E-004  0.2017746E+03  0.7546771E-02  0.1148250E+00
         21   -1    0    0  503  502  0.00000000000E+00  0.00000000000E+00  0.44179019567E+03  0.44179019567E+03  0.00000000000E+00 0.  1.
         21   -1    0    0  501  503 -0.00000000000E+00 -0.00000000000E+00 -0.10080271913E+03  0.10080271913E+03  0.00000000000E+00 0. -1.
         24    1    1    2    0    0 -0.30088689230E+02 -0.43012243269E+02  0.13015703137E+03  0.16175120111E+03  0.80419002446E+02 0.  0.
          1    1    1    2  501    0 -0.82786096180E+02 -0.97094459471E+02  0.42587278019E+02  0.13451597686E+03  0.00000000000E+00 0. -1.
         -2    1    1    2    0  502  0.11287478541E+03  0.14010670274E+03  0.16824316715E+03  0.24632573683E+03  0.00000000000E+00 0.  1.
<mgrwt>
<rscale>  2 0.20177460E+03</rscale>
<asrwt>0</asrwt>
<pdfrwt beam="1">  1       21 0.67967721E-01 0.20177460E+03</pdfrwt>
<pdfrwt beam="2">  1       21 0.15508111E-01 0.20177460E+03</pdfrwt>
<totfact> 0.72682471E+04</totfact>
</mgrwt>
</event>
<event>
 5    1  0.1281005E-004  0.1964661E+03  0.7546771E-02  0.1152755E+00
         21   -1    0    0  501  502  0.00000000000E+00  0.00000000000E+00  0.16003371571E+03  0.16003371571E+03  0.00000000000E+00 0. -1.
         21   -1    0    0  502  503 -0.00000000000E+00 -0.00000000000E+00 -0.25038882782E+03  0.25038882782E+03  0.00000000000E+00 0.  1.
         24    1    1    2    0    0  0.82485691507E+01  0.15368142005E+03 -0.44650253603E+01  0.17370426065E+03  0.80419002446E+02 0.  0.
          1    1    1    2  501    0  0.18814232432E+02  0.29022886933E+02 -0.44869954227E+01  0.34877448816E+02  0.00000000000E+00 0. -1.
         -2    1    1    2    0  503 -0.27062801583E+02 -0.18270430698E+03 -0.81403091324E+02  0.20184083406E+03  0.00000000000E+00 0.  1.
<mgrwt>
<rscale>  2 0.19646612E+03</rscale>
<asrwt>0</asrwt>
<pdfrwt beam="1">  1       21 0.24620572E-01 0.19646612E+03</pdfrwt>
<pdfrwt beam="2">  1       21 0.38521358E-01 0.19646612E+03</pdfrwt>
<totfact> 0.10119172E+05</totfact>
</mgrwt>
</event>
<event>
 5    1  0.1281005E-004  0.1942841E+03  0.7546771E-02  0.1154653E+00
         21   -1    0    0  503  502  0.00000000000E+00  0.00000000000E+00  0.13120429436E+03  0.13120429436E+03  0.00000000000E+00 0.  1.
         21   -1    0    0  501  503 -0.00000000000E+00 -0.00000000000E+00 -0.31505200317E+03  0.31505200317E+03  0.00000000000E+00 0. -1.
         24    1    1    2    0    0  0.13817327971E+03 -0.10175154259E+02 -0.13429701331E+03  0.20904136607E+03  0.80419002446E+02 0.  0.
          1    1    1    2  501    0  0.40132967288E+02  0.28359066220E+02 -0.28353960057E+02  0.56734810752E+02  0.00000000000E+00 0. -1.
         -2    1    1    2    0  502 -0.17830624700E+03 -0.18183911961E+02 -0.21196735446E+02  0.18048012070E+03  0.00000000000E+00 0.  1.
<mgrwt>
<rscale>  2 0.19428406E+03</rscale>
<asrwt>0</asrwt>
<pdfrwt beam="1">  1       21 0.20185276E-01 0.19428406E+03</pdfrwt>
<pdfrwt beam="2">  1       21 0.48469538E-01 0.19428406E+03</pdfrwt>
<totfact> 0.92172816E+04</totfact>
</mgrwt>
</event>
<event>
 5    1  0.1281005E-004  0.1773441E+03  0.7546771E-02  0.1170398E+00
         21   -1    0    0  501  502  0.00000000000E+00  0.00000000000E+00  0.10339971433E+03  0.10339971433E+03  0.00000000000E+00 0. -1.
         21   -1    0    0  502  503 -0.00000000000E+00 -0.00000000000E+00 -0.30602057233E+03  0.30602057233E+03  0.00000000000E+00 0. -1.
         24    1    1    2    0    0 -0.12132905209E+03 -0.82585226065E+02 -0.10894167878E+03  0.19969117100E+03  0.80419002446E+02 0. -1.
          1    1    1    2  501    0  0.12671193858E+03  0.24576182132E+02 -0.70094706388E+02  0.14687808540E+03  0.00000000000E+00 0. -1.
         -2    1    1    2    0  503 -0.53828864879E+01  0.58009043933E+02 -0.23584472837E+02  0.62851030253E+02  0.00000000000E+00 0.  1.
<mgrwt>
<rscale>  2 0.17734412E+03</rscale>
<asrwt>0</asrwt>
<pdfrwt beam="1">  1       21 0.15907648E-01 0.17734412E+03</pdfrwt>
<pdfrwt beam="2">  1       21 0.47080088E-01 0.17734412E+03</pdfrwt>
<totfact> 0.15289869E+05</totfact>
</mgrwt>
</event>
<event>
 5    1  0.1281005E-004  0.1599488E+03  0.7546771E-02  0.1188755E+00
         21   -1    0    0  503  502  0.00000000000E+00  0.00000000000E+00  0.19244951409E+03  0.19244951409E+03  0.00000000000E+00 0. -1.
         21   -1    0    0  501  503 -0.00000000000E+00 -0.00000000000E+00 -0.13477162671E+03  0.13477162671E+03  0.00000000000E+00 0.  1.
         24    1    1    2    0    0 -0.29223951143E+01  0.97339341110E+02  0.14434740508E+02  0.12711831264E+03  0.80419002446E+02 0.  1.
          1    1    1    2  501    0  0.73866211163E+01  0.47813202314E+02  0.22681334307E+02  0.53433205154E+02  0.00000000000E+00 0. -1.
         -2    1    1    2    0  502 -0.44642260020E+01 -0.14515254342E+03  0.20561812569E+02  0.14666962300E+03  0.00000000000E+00 0.  1.
<mgrwt>
<rscale>  2 0.15994884E+03</rscale>
<asrwt>0</asrwt>
<pdfrwt beam="1">  1       21 0.29607618E-01 0.15994884E+03</pdfrwt>
<pdfrwt beam="2">  1       21 0.20734096E-01 0.15994884E+03</pdfrwt>
<totfact> 0.23800725E+05</totfact>
</mgrwt>
</event>
<event>
 5    1  0.1281005E-004  0.2052352E+03  0.7546771E-02  0.1145396E+00
         21   -1    0    0  503  502  0.00000000000E+00  0.00000000000E+00  0.54053882543E+02  0.54053882543E+02  0.00000000000E+00 0.  1.
         21   -1    0    0  501  503 -0.00000000000E+00 -0.00000000000E+00 -0.11954587646E+04  0.11954587646E+04  0.00000000000E+00 0. -1.
         24    1    1    2    0    0  0.57139662357E+02  0.45560255238E+02 -0.55565704803E+02  0.12204688188E+03  0.80419002446E+02 0.  1.
          1    1    1    2  501    0 -0.17725555317E+03 -0.39100542345E+02 -0.59300115183E+03  0.62016026123E+03  0.00000000000E+00 0. -1.
         -2    1    1    2    0  502  0.12011589081E+03 -0.64597128934E+01 -0.49283802541E+03  0.50730550402E+03  0.00000000000E+00 0.  1.
<mgrwt>
<rscale>  2 0.20523525E+03</rscale>
<asrwt>0</asrwt>
<pdfrwt beam="1">  1       21 0.83159816E-02 0.20523525E+03</pdfrwt>
<pdfrwt beam="2">  1       21 0.18391674E+00 0.20523525E+03</pdfrwt>
<totfact> 0.19027300E+04</totfact>
</mgrwt>
</event>
<event>
 5    1  0.1281005E-004  0.1617955E+03  0.7546771E-02  0.1186684E+00
         21   -1    0    0  501  502  0.00000000000E+00  0.00000000000E+00  0.34285386253E+03  0.34285386253E+03  0.00000000000E+00 0. -1.
         21   -1    0    0  502  503 -0.00000000000E+00 -0.00000000000E+00 -0.76679730418E+02  0.76679730418E+02  0.00000000000E+00 0.  1.
         24    1    1    2    0    0 -0.36531141213E+02  0.62947247966E+02  0.94114772805E+02  0.14360253034E+03  0.80419002446E+02 0.  1.
          1    1    1    2  501    0  0.53537584405E+02 -0.13282624971E+03  0.10477840902E+03  0.17744745856E+03  0.00000000000E+00 0. -1.
         -2    1    1    2    0  503 -0.17006443192E+02  0.69879001739E+02  0.67280950296E+02  0.98483604051E+02  0.00000000000E+00 0.  1.
<mgrwt>
<rscale>  2 0.16179551E+03</rscale>
<asrwt>0</asrwt>
<pdfrwt beam="1">  1       21 0.52746747E-01 0.16179551E+03</pdfrwt>
<pdfrwt beam="2">  1       21 0.11796882E-01 0.16179551E+03</pdfrwt>
<totfact> 0.20800770E+05</totfact>
</mgrwt>
</event>
<event>
 5    1  0.1281005E-004  0.1416946E+03  0.7546771E-02  0.1211067E+00
         21   -1    0    0  503  502  0.00000000000E+00  0.00000000000E+00  0.46991162026E+03  0.46991162026E+03  0.00000000000E+00 0.  1.
         21   -1    0    0  501  503 -0.00000000000E+00 -0.00000000000E+00 -0.43121657727E+02  0.43121657727E+02  0.00000000000E+00 0. -1.
         24    1    1    2    0    0  0.16446461598E+02 -0.39852763857E+02  0.11620474701E+03  0.14774805606E+03  0.80419002446E+02 0.  0.
          1    1    1    2  501    0 -0.56305921876E+02 -0.61410872482E+02  0.14145035311E+03  0.16416410841E+03  0.00000000000E+00 0. -1.
         -2    1    1    2    0  502  0.39859460278E+02  0.10126363634E+03  0.16913486241E+03  0.20112111351E+03  0.00000000000E+00 0.  1.
<mgrwt>
<rscale>  2 0.14169460E+03</rscale>
<asrwt>0</asrwt>
<pdfrwt beam="1">  1       21 0.72294092E-01 0.14169460E+03</pdfrwt>
<pdfrwt beam="2">  1       21 0.66341015E-02 0.14169460E+03</pdfrwt>
<totfact> 0.28986934E+05</totfact>
</mgrwt>
</event>
<event>
 5    1  0.1281005E-004  0.1108266E+03  0.7546771E-02  0.1259047E+00
         21   -1    0    0  501  502  0.00000000000E+00  0.00000000000E+00  0.19687274073E+02  0.19687274073E+02  0.00000000000E+00 0.  1.
         21   -1    0    0  502  503 -0.00000000000E+00 -0.00000000000E+00 -0.63867318711E+03  0.63867318711E+03  0.00000000000E+00 0. -1.
         24    1    1    2    0    0 -0.46206038076E+02  0.20657008546E+02 -0.28552373792E+03  0.30091980797E+03  0.80419002446E+02 0. -1.
          1    1    1    2  501    0 -0.38556660050E+02  0.28759238382E+01 -0.13344956152E+03  0.13893765667E+03  0.00000000000E+00 0. -1.
         -2    1    1    2    0  503  0.84762698125E+02 -0.23532932384E+02 -0.20001261360E+03  0.21850299654E+03  0.00000000000E+00 0.  1.
<mgrwt>
<rscale>  2 0.11082663E+03</rscale>
<asrwt>0</asrwt>
<pdfrwt beam="1">  1       21 0.30288120E-02 0.11082663E+03</pdfrwt>
<pdfrwt beam="2">  1       21 0.98257395E-01 0.11082663E+03</pdfrwt>
<totfact> 0.54018945E+05</totfact>
</mgrwt>
</event>
<event>
 5    1  0.1281005E-004  0.1950335E+03  0.7546771E-02  0.1153998E+00
         21   -1    0    0  503  502  0.00000000000E+00  0.00000000000E+00  0.33689922717E+03  0.33689922717E+03  0.00000000000E+00 0.  1.
         21   -1    0    0  501  503 -0.00000000000E+00 -0.00000000000E+00 -0.11984187711E+03  0.11984187711E+03  0.00000000000E+00 0. -1.
         24    1    1    2    0    0 -0.85030068057E+02 -0.13359560921E+03  0.45679735583E+02  0.18338962204E+03  0.80419002446E+02 0. -1.
          1    1    1    2  501    0 -0.21198958821E+01 -0.28415102685E+02  0.29672144402E+02  0.41138159567E+02  0.00000000000E+00 0. -1.
         -2    1    1    2    0  502  0.87149963939E+02  0.16201071189E+03  0.14170547007E+03  0.23221332268E+03  0.00000000000E+00 0.  1.
<mgrwt>
<rscale>  2 0.19503353E+03</rscale>
<asrwt>0</asrwt>
<pdfrwt beam="1">  1       21 0.51830650E-01 0.19503353E+03</pdfrwt>
<pdfrwt beam="2">  1       21 0.18437212E-01 0.19503353E+03</pdfrwt>
<totfact> 0.94832561E+04</totfact>
</mgrwt>
</event>
<event>
 5    1  0.1281005E-004  0.2147697E+03  0.7546771E-02  0.1137844E+00
         21   -1    0    0  501  502  0.00000000000E+00  0.00000000000E+00  0.85717049314E+03  0.85717049314E+03  0.00000000000E+00 0.  1.
         21   -1    0    0  502  503 -0.00000000000E+00 -0.00000000000E+00 -0.69357706129E+02  0.69357706129E+02  0.00000000000E+00 0. -1.
         24    1    1    2    0    0  0.87003998329E+02  0.40830454122E+02  0.30967538379E+03  0.33407017375E+03  0.80419002446E+02 0. -1.
          1    1    1    2  501    0  0.53081412704E+02  0.95175002806E+02  0.32955258219E+03  0.34710347443E+03  0.00000000000E+00 0. -1.
         -2    1    1    2    0  503 -0.14008541103E+03 -0.13600545693E+03  0.14858482103E+03  0.24535455108E+03  0.00000000000E+00 0.  1.
<mgrwt>
<rscale>  2 0.21476974E+03</rscale>
<asrwt>0</asrwt>
<pdfrwt beam="1">  1       21 0.13187238E+00 0.21476974E+03</pdfrwt>
<pdfrwt beam="2">  1       21 0.10670417E-01 0.21476974E+03</pdfrwt>
<totfact> 0.29766048E+04</totfact>
</mgrwt>
</event>
<event>
 5    1  0.1281005E-004  0.1676711E+03  0.7546771E-02  0.1180299E+00
         21   -1    0    0  501  502  0.00000000000E+00  0.00000000000E+00  0.54812168957E+02  0.54812168957E+02  0.00000000000E+00 0.  1.
         21   -1    0    0  502  503 -0.00000000000E+00 -0.00000000000E+00 -0.53417494862E+03  0.53417494862E+03  0.00000000000E+00 0. -1.
         24    1    1    2    0    0  0.79405856949E+02  0.46417959593E+01 -0.21355982076E+03  0.24166474585E+03  0.80419002446E+02 0.  0.
          1    1    1    2  501    0  0.70564212354E+02  0.11120845584E+02 -0.10371749915E+03  0.12593768658E+03  0.00000000000E+00 0. -1.
         -2    1    1    2    0  503 -0.14997006930E+03 -0.15762641543E+02 -0.16208545975E+03  0.22138468515E+03  0.00000000000E+00 0.  1.
<mgrwt>
<rscale>  2 0.16767106E+03</rscale>
<asrwt>0</asrwt>
<pdfrwt beam="1">  1       21 0.84326413E-02 0.16767106E+03</pdfrwt>
<pdfrwt beam="2">  1       21 0.82180762E-01 0.16767106E+03</pdfrwt>
<totfact> 0.14293982E+05</totfact>
</mgrwt>
</event>
<event>
 5    1  0.1281005E-004  0.1662661E+03  0.7546771E-02  0.1181799E+00
         21   -1    0    0  503  502  0.00000000000E+00  0.00000000000E+00  0.87794411837E+03  0.87794411837E+03  0.00000000000E+00 0.  1.
         21   -1    0    0  501  503 -0.00000000000E+00 -0.00000000000E+00 -0.37408592129E+02  0.37408592129E+02  0.00000000000E+00 0. -1.
         24    1    1    2    0    0  0.24226071125E+02  0.85275577753E+02  0.16160055950E+03  0.20109893950E+03  0.80419002446E+02 0.  0.
          1    1    1    2  501    0 -0.52894808781E+02  0.51062976065E+02  0.14677636394E+03  0.16416025504E+03  0.00000000000E+00 0. -1.
         -2    1    1    2    0  502  0.28668737656E+02 -0.13633855382E+03  0.53215860280E+03  0.55009351596E+03  0.00000000000E+00 0.  1.
<mgrwt>
<rscale>  2 0.16626612E+03</rscale>
<asrwt>0</asrwt>
<pdfrwt beam="1">  1       21 0.13506831E+00 0.16626612E+03</pdfrwt>
<pdfrwt beam="2">  1       21 0.57551687E-02 0.16626612E+03</pdfrwt>
<totfact> 0.84147848E+04</totfact>
</mgrwt>
</event>
<event>
 5    1  0.1281005E-004  0.2998699E+03  0.7546771E-02  0.1085306E+00
         21   -1    0    0  503  502  0.00000000000E+00  0.00000000000E+00  0.32755309777E+03  0.32755309777E+03  0.00000000000E+00 0. -1.
         21   -1    0    0  501  503 -0.00000000000E+00 -0.00000000000E+00 -0.32744483431E+03  0.32744483431E+03  0.00000000000E+00 0.  1.
         24    1    1    2    0    0 -0.11363043580E+03 -0.11951987210E+02  0.21317822510E+02  0.14133786276E+03  0.80419002446E+02 0. -1.
          1    1    1    2  501    0 -0.16930564549E+03  0.44933834214E+02  0.10266833816E+03  0.20303753031E+03  0.00000000000E+00 0. -1.
         -2    1    1    2    0  502  0.28293608129E+03 -0.32981847004E+02 -0.12387789721E+03  0.31062253901E+03  0.00000000000E+00 0.  1.
<mgrwt>
<rscale>  2 0.29986990E+03</rscale>
<asrwt>0</asrwt>
<pdfrwt beam="1">  1       21 0.50392784E-01 0.29986990E+03</pdfrwt>
<pdfrwt beam="2">  1       21 0.50376129E-01 0.29986990E+03</pdfrwt>
<totfact> 0.13280823E+04</totfact>
</mgrwt>
</event>
<event>
 5    1  0.1281005E-004  0.1236606E+03  0.7546771E-02  0.1237178E+00
         21   -1    0    0  503  502  0.00000000000E+00  0.00000000000E+00  0.28744690451E+03  0.28744690451E+03  0.00000000000E+00 0. -1.
         21   -1    0    0  501  503 -0.00000000000E+00 -0.00000000000E+00 -0.55940310355E+02  0.55940310355E+02  0.00000000000E+00 0.  1.
         24    1    1    2    0    0 -0.21361544982E+02 -0.52419231737E+02  0.56075897350E+02  0.11320695066E+03  0.80419002446E+02 0.  1.
          1    1    1    2  501    0 -0.31428907499E+02 -0.34884948989E+02  0.57843386767E+02  0.74502303892E+02  0.00000000000E+00 0. -1.
         -2    1    1    2    0  502  0.52790452481E+02  0.87304180726E+02  0.11758731004E+03  0.15567796032E+03  0.00000000000E+00 0.  1.
<mgrwt>
<rscale>  2 0.12366060E+03</rscale>
<asrwt>0</asrwt>
<pdfrwt beam="1">  1       21 0.44222600E-01 0.12366060E+03</pdfrwt>
<pdfrwt beam="2">  1       21 0.86062017E-02 0.12366060E+03</pdfrwt>
<totfact> 0.52323834E+05</totfact>
</mgrwt>
</event>
<event>
 5    1  0.1281005E-004  0.1401064E+03  0.7546771E-02  0.1213186E+00
         21   -1    0    0  501  502  0.00000000000E+00  0.00000000000E+00  0.22758903886E+03  0.22758903886E+03  0.00000000000E+00 0.  1.
         21   -1    0    0  502  503 -0.00000000000E+00 -0.00000000000E+00 -0.87107798156E+02  0.87107798156E+02  0.00000000000E+00 0.  1.
         24    1    1    2    0    0  0.59630235884E+02  0.15532695686E+02  0.63776125451E+02  0.11971482698E+03  0.80419002446E+02 0.  1.
          1    1    1    2  501    0  0.11412538113E+02  0.68166744221E+02  0.23651982329E+02  0.73050443613E+02  0.00000000000E+00 0. -1.
         -2    1    1    2    0  503 -0.71042773998E+02 -0.83699439907E+02  0.53053132926E+02  0.12193156643E+03  0.00000000000E+00 0.  1.
<mgrwt>
<rscale>  2 0.14010638E+03</rscale>
<asrwt>0</asrwt>
<pdfrwt beam="1">  1       21 0.35013698E-01 0.14010638E+03</pdfrwt>
<pdfrwt beam="2">  1       21 0.13401200E-01 0.14010638E+03</pdfrwt>
<totfact> 0.38194991E+05</totfact>
</mgrwt>
</event>
<event>
 5    1  0.1281005E-004  0.1742900E+03  0.7546771E-02  0.1173447E+00
         21   -1    0    0  503  502  0.00000000000E+00  0.00000000000E+00  0.89585614618E+02  0.89585614618E+02  0.00000000000E+00 0. -1.
         21   -1    0    0  501  503 -0.00000000000E+00 -0.00000000000E+00 -0.39608282432E+03  0.39608282432E+03  0.00000000000E+00 0.  1.
         24    1    1    2    0    0  0.11935975542E+02 -0.43367975943E+02 -0.10751911094E+03  0.14160093227E+03  0.80419002446E+02 0.  1.
          1    1    1    2  501    0  0.11258815138E+03 -0.23617417251E+02 -0.16060636857E+03  0.19755576391E+03  0.00000000000E+00 0. -1.
         -2    1    1    2    0  502 -0.12452412692E+03  0.66985393194E+02 -0.38371730188E+02  0.14651174275E+03  0.00000000000E+00 0.  1.
<mgrwt>
<rscale>  2 0.17428998E+03</rscale>
<asrwt>0</asrwt>
<pdfrwt beam="1">  1       21 0.13782402E-01 0.17428998E+03</pdfrwt>
<pdfrwt beam="2">  1       21 0.60935819E-01 0.17428998E+03</pdfrwt>
<totfact> 0.11542829E+05</totfact>
</mgrwt>
</event>
<event>
 5    1  0.1281005E-004  0.1831138E+03  0.7546771E-02  0.1164823E+00
         21   -1    0    0  503  502  0.00000000000E+00  0.00000000000E+00  0.24229182565E+03  0.24229182565E+03  0.00000000000E+00 0.  1.
         21   -1    0    0  501  503 -0.00000000000E+00 -0.00000000000E+00 -0.17511994317E+03  0.17511994317E+03  0.00000000000E+00 0. -1.
         24    1    1    2    0    0 -0.80321562477E+02 -0.63196248565E+02  0.99506182139E+02  0.16374985640E+03  0.80419002446E+02 0.  0.
          1    1    1    2  501    0  0.12599197041E+03  0.11254610529E+03 -0.62281827291E+02  0.18005451517E+03  0.00000000000E+00 0. -1.
         -2    1    1    2    0  502 -0.45670407930E+02 -0.49349856726E+02  0.29947527636E+02  0.73607397257E+02  0.00000000000E+00 0.  1.
<mgrwt>
<rscale>  2 0.18311384E+03</rscale>
<asrwt>0</asrwt>
<pdfrwt beam="1">  1       21 0.37275665E-01 0.18311384E+03</pdfrwt>
<pdfrwt beam="2">  1       21 0.26941530E-01 0.18311384E+03</pdfrwt>
<totfact> 0.91430223E+04</totfact>
</mgrwt>
</event>
<event>
 5    1  0.1281005E-004  0.4002666E+03  0.7546771E-02  0.1043687E+00
         21   -1    0    0  501  502  0.00000000000E+00  0.00000000000E+00  0.20953012232E+03  0.20953012232E+03  0.00000000000E+00 0.  1.
         21   -1    0    0  502  503 -0.00000000000E+00 -0.00000000000E+00 -0.79090380661E+03  0.79090380661E+03  0.00000000000E+00 0.  1.
         24    1    1    2    0    0 -0.58085808509E+02  0.33017717638E+03 -0.17330549130E+03  0.38586647719E+03  0.80419002446E+02 0.  1.
          1    1    1    2  501    0  0.13318848207E+03 -0.17652644414E+02 -0.15749150583E+03  0.20701295133E+03  0.00000000000E+00 0. -1.
         -2    1    1    2    0  503 -0.75102673558E+02 -0.31252453196E+03 -0.25057668716E+03  0.40755450041E+03  0.00000000000E+00 0.  1.
<mgrwt>
<rscale>  2 0.40026657E+03</rscale>
<asrwt>0</asrwt>
<pdfrwt beam="1">  1       21 0.32235404E-01 0.40026657E+03</pdfrwt>
<pdfrwt beam="2">  1       21 0.12167751E+00 0.40026657E+03</pdfrwt>
<totfact> 0.41979135E+03</totfact>
</mgrwt>
</event>
<event>
 5    1  0.1281005E-004  0.2067210E+03  0.7546771E-02  0.1144189E+00
         21   -1    0    0  501  502  0.00000000000E+00  0.00000000000E+00  0.11134216655E+03  0.11134216655E+03  0.00000000000E+00 0.  1.
         21   -1    0    0  502  503 -0.00000000000E+00 -0.00000000000E+00 -0.39569973682E+03  0.39569973682E+03  0.00000000000E+00 0. -1.
         24    1    1    2    0    0  0.14213588147E+03  0.50894693963E+02 -0.16088638118E+03  0.23482870838E+03  0.80419002446E+02 0. -1.
          1    1    1    2  501    0  0.44235718654E+02 -0.32937437647E+02 -0.32949697715E+02  0.64244503135E+02  0.00000000000E+00 0. -1.
         -2    1    1    2    0  503 -0.18637160013E+03 -0.17957256316E+02 -0.90521491377E+02  0.20796869185E+03  0.00000000000E+00 0.  1.
<mgrwt>
<rscale>  2 0.20672095E+03</rscale>
<asrwt>0</asrwt>
<pdfrwt beam="1">  1       21 0.17129564E-01 0.20672095E+03</pdfrwt>
<pdfrwt beam="2">  1       21 0.60876881E-01 0.20672095E+03</pdfrwt>
<totfact> 0.76792520E+04</totfact>
</mgrwt>
</event>
<event>
 5    1  0.1281005E-004  0.1929598E+03  0.7546771E-02  0.1155819E+00
         21   -1    0    0  503  502  0.00000000000E+00  0.00000000000E+00  0.53052833781E+02  0.53052833781E+02  0.00000000000E+00 0. -1.
         21   -1    0    0  501  503 -0.00000000000E+00 -0.00000000000E+00 -0.74450745873E+03  0.74450745873E+03  0.00000000000E+00 0.  1.
         24    1    1    2    0    0 -0.22737630077E+02 -0.11867747858E+03 -0.17231917305E+03  0.22530525316E+03  0.80419002446E+02 0.  0.
          1    1    1    2  501    0 -0.79868392290E+01 -0.59463942022E+02 -0.12725001558E+03  0.14068516790E+03  0.00000000000E+00 0. -1.
         -2    1    1    2    0  502  0.30724469306E+02  0.17814142061E+03 -0.39188543632E+03  0.43156987146E+03  0.00000000000E+00 0.  1.
<mgrwt>
<rscale>  2 0.19295980E+03</rscale>
<asrwt>0</asrwt>
<pdfrwt beam="1">  1       21 0.81619747E-02 0.19295980E+03</pdfrwt>
<pdfrwt beam="2">  1       21 0.11453960E+00 0.19295980E+03</pdfrwt>
<totfact> 0.68600071E+04</totfact>
</mgrwt>
</event>
<event>
 5    1  0.1281005E-004  0.2641662E+03  0.7546771E-02  0.1104666E+00
         21   -1    0    0  501  502  0.00000000000E+00  0.00000000000E+00  0.94295768947E+02  0.94295768947E+02  0.00000000000E+00 0. -1.
         21   -1    0    0  502  503 -0.00000000000E+00 -0.00000000000E+00 -0.75927694081E+03  0.75927694081E+03  0.00000000000E+00 0.  1.
         24    1    1    2    0    0 -0.22162661316E+02  0.48397802709E+02 -0.14998583210E+03  0.17831572182E+03  0.80419002446E+02 0.  0.
          1    1    1    2  501    0 -0.33679697806E+02  0.18697577399E+03 -0.17735810255E+03  0.25990413357E+03  0.00000000000E+00 0. -1.
         -2    1    1    2    0  503  0.55842359122E+02 -0.23537357670E+03 -0.33763723722E+03  0.41535285438E+03  0.00000000000E+00 0.  1.
<mgrwt>
<rscale>  2 0.26416624E+03</rscale>
<asrwt>0</asrwt>
<pdfrwt beam="1">  1       21 0.14507042E-01 0.26416624E+03</pdfrwt>
<pdfrwt beam="2">  1       21 0.11681183E+00 0.26416624E+03</pdfrwt>
<totfact> 0.22621176E+04</totfact>
</mgrwt>
</event>
<event>
 5    1  0.1281005E-004  0.1655934E+03  0.7546771E-02  0.1182523E+00
         21   -1    0    0  501  502  0.00000000000E+00  0.00000000000E+00  0.44264943051E+02  0.44264943051E+02  0.00000000000E+00 0. -1.
         21   -1    0    0  502  503 -0.00000000000E+00 -0.00000000000E+00 -0.67428814862E+03  0.67428814862E+03  0.00000000000E+00 0.  1.
         24    1    1    2    0    0  0.94875055730E+02 -0.64232738419E+01 -0.19660191806E+03  0.23272744743E+03  0.80419002446E+02 0.  1.
          1    1    1    2  501    0  0.55707281607E+02 -0.28578266782E+01 -0.54547077868E+02  0.78018280559E+02  0.00000000000E+00 0. -1.
         -2    1    1    2    0  503 -0.15058233734E+03  0.92811005200E+01 -0.37887420964E+03  0.40780736368E+03  0.00000000000E+00 0.  1.
<mgrwt>
<rscale>  2 0.16559339E+03</rscale>
<asrwt>0</asrwt>
<pdfrwt beam="1">  1       21 0.68099911E-02 0.16559339E+03</pdfrwt>
<pdfrwt beam="2">  1       21 0.10373664E+00 0.16559339E+03</pdfrwt>
<totfact> 0.12061637E+05</totfact>
</mgrwt>
</event>
<event>
 5    1  0.1281005E-004  0.2160641E+03  0.7546771E-02  0.1136852E+00
         21   -1    0    0  503  502  0.00000000000E+00  0.00000000000E+00  0.16443710730E+03  0.16443710730E+03  0.00000000000E+00 0.  1.
         21   -1    0    0  501  503 -0.00000000000E+00 -0.00000000000E+00 -0.33662068784E+03  0.33662068784E+03  0.00000000000E+00 0. -1.
         24    1    1    2    0    0 -0.35647632505E+02 -0.64353301933E+02 -0.35995584652E+02  0.11478239953E+03  0.80419002446E+02 0.  1.
          1    1    1    2  501    0 -0.26148708243E+02  0.18539606461E+03 -0.16241971411E+03  0.24786209724E+03  0.00000000000E+00 0. -1.
         -2    1    1    2    0  502  0.61796340748E+02 -0.12104276268E+03  0.26231718222E+02  0.13841329838E+03  0.00000000000E+00 0.  1.
<mgrwt>
<rscale>  2 0.21606409E+03</rscale>
<asrwt>0</asrwt>
<pdfrwt beam="1">  1       21 0.25298017E-01 0.21606409E+03</pdfrwt>
<pdfrwt beam="2">  1       21 0.51787797E-01 0.21606409E+03</pdfrwt>
<totfact> 0.51849023E+04</totfact>
</mgrwt>
</event>
<event>
 5    1  0.1281005E-004  0.1389183E+03  0.7546771E-02  0.1214792E+00
         21   -1    0    0  501  502  0.00000000000E+00  0.00000000000E+00  0.19860329960E+02  0.19860329960E+02  0.00000000000E+00 0.  1.
         21   -1    0    0  502  503 -0.00000000000E+00 -0.00000000000E+00 -0.97309766514E+03  0.97309766514E+03  0.00000000000E+00 0.  1.
         24    1    1    2    0    0  0.54896110935E+02  0.53669038623E+02 -0.39065991075E+03  0.40617278408E+03  0.80419002446E+02 0.  1.
          1    1    1    2  501    0  0.42211601518E+02  0.18076512928E+02 -0.16627506176E+03  0.17249920517E+03  0.00000000000E+00 0. -1.
         -2    1    1    2    0  503 -0.97107712453E+02 -0.71745551551E+02 -0.39630236267E+03  0.41428600585E+03  0.00000000000E+00 0.  1.
<mgrwt>
<rscale>  2 0.13891833E+03</rscale>
<asrwt>0</asrwt>
<pdfrwt beam="1">  1       21 0.30554357E-02 0.13891833E+03</pdfrwt>
<pdfrwt beam="2">  1       21 0.14970731E+00 0.13891833E+03</pdfrwt>
<totfact> 0.18849185E+05</totfact>
</mgrwt>
</event>
<event>
 5    1  0.1281005E-004  0.1952908E+03  0.7546771E-02  0.1153774E+00
         21   -1    0    0  501  502  0.00000000000E+00  0.00000000000E+00  0.40812984415E+03  0.40812984415E+03  0.00000000000E+00 0. -1.
         21   -1    0    0  502  503 -0.00000000000E+00 -0.00000000000E+00 -0.97408129847E+02  0.97408129847E+02  0.00000000000E+00 0. -1.
         24    1    1    2    0    0 -0.10002869096E+02  0.11860343050E+03  0.13200156879E+03  0.19508577917E+03  0.80419002446E+02 0. -1.
          1    1    1    2  501    0 -0.35672417630E+02 -0.17257955470E+03  0.92768452540E+02  0.19915373425E+03  0.00000000000E+00 0. -1.
         -2    1    1    2    0  503  0.45675286726E+02  0.53976124197E+02  0.85951692973E+02  0.11129846057E+03  0.00000000000E+00 0.  1.
<mgrwt>
<rscale>  2 0.19529078E+03</rscale>
<asrwt>0</asrwt>
<pdfrwt beam="1">  1       21 0.62789206E-01 0.19529078E+03</pdfrwt>
<pdfrwt beam="2">  1       21 0.14985866E-01 0.19529078E+03</pdfrwt>
<totfact> 0.92225335E+04</totfact>
</mgrwt>
</event>
<event>
 5    1  0.1281005E-004  0.1544928E+03  0.7546771E-02  0.1195058E+00
         21   -1    0    0  503  502  0.00000000000E+00  0.00000000000E+00  0.89243243881E+02  0.89243243881E+02  0.00000000000E+00 0.  1.
         21   -1    0    0  501  503 -0.00000000000E+00 -0.00000000000E+00 -0.27536065861E+03  0.27536065861E+03  0.00000000000E+00 0.  1.
         24    1    1    2    0    0  0.87579030019E+02  0.37295659484E+02 -0.48386805850E+02  0.13367704235E+03  0.80419002446E+02 0.  1.
          1    1    1    2  501    0  0.43563413075E+00  0.56064432341E+02 -0.31223002920E+02  0.64173875231E+02  0.00000000000E+00 0. -1.
         -2    1    1    2    0  502 -0.88014664150E+02 -0.93360091825E+02 -0.10650760596E+03  0.16675298491E+03  0.00000000000E+00 0.  1.
<mgrwt>
<rscale>  2 0.15449280E+03</rscale>
<asrwt>0</asrwt>
<pdfrwt beam="1">  1       21 0.13729730E-01 0.15449280E+03</pdfrwt>
<pdfrwt beam="2">  1       21 0.42363178E-01 0.15449280E+03</pdfrwt>
<totfact> 0.24939548E+05</totfact>
</mgrwt>
</event>
<event>
 5    1  0.1281005E-004  0.1619118E+03  0.7546771E-02  0.1186555E+00
         21   -1    0    0  501  502  0.00000000000E+00  0.00000000000E+00  0.36767261112E+03  0.36767261112E+03  0.00000000000E+00 0.  1.
         21   -1    0    0  502  503 -0.00000000000E+00 -0.00000000000E+00 -0.74931816262E+02  0.74931816262E+02  0.00000000000E+00 0. -1.
         24    1    1    2    0    0 -0.20561158977E+02 -0.32269918696E+02  0.12449711479E+03  0.15307140966E+03  0.80419002446E+02 0.  1.
          1    1    1    2  501    0  0.50907581090E+02  0.12618625367E+03  0.10967472488E+03  0.17476583678E+03  0.00000000000E+00 0. -1.
         -2    1    1    2    0  503 -0.30346422112E+02 -0.93916334970E+02  0.58568955183E+02  0.11476718094E+03  0.00000000000E+00 0.  1.
<mgrwt>
<rscale>  2 0.16191180E+03</rscale>
<asrwt>0</asrwt>
<pdfrwt beam="1">  1       21 0.56565016E-01 0.16191180E+03</pdfrwt>
<pdfrwt beam="2">  1       21 0.11527972E-01 0.16191180E+03</pdfrwt>
<totfact> 0.18707387E+05</totfact>
</mgrwt>
</event>
<event>
 5    1  0.1281005E-004  0.1471245E+03  0.7546771E-02  0.1204052E+00
         21   -1    0    0  501  502  0.00000000000E+00  0.00000000000E+00  0.50666769211E+02  0.50666769211E+02  0.00000000000E+00 0.  1.
         21   -1    0    0  502  503 -0.00000000000E+00 -0.00000000000E+00 -0.46855847661E+03  0.46855847661E+03  0.00000000000E+00 0. -1.
         24    1    1    2    0    0  0.33029066422E+01 -0.24032260524E+02 -0.69758889735E+02  0.10918780788E+03  0.80419002446E+02 0.  1.
          1    1    1    2  501    0 -0.54560004459E+02  0.10273766168E+03 -0.14236470063E+03  0.18384648270E+03  0.00000000000E+00 0. -1.
         -2    1    1    2    0  503  0.51257097817E+02 -0.78705401155E+02 -0.20576811703E+03  0.22619095525E+03  0.00000000000E+00 0.  1.
<mgrwt>
<rscale>  2 0.14712451E+03</rscale>
<asrwt>0</asrwt>
<pdfrwt beam="1">  1       21 0.77948877E-02 0.14712451E+03</pdfrwt>
<pdfrwt beam="2">  1       21 0.72085918E-01 0.14712451E+03</pdfrwt>
<totfact> 0.22084910E+05</totfact>
</mgrwt>
</event>
<event>
 5    1  0.1281005E-004  0.2888900E+03  0.7546771E-02  0.1090930E+00
         21   -1    0    0  503  502  0.00000000000E+00  0.00000000000E+00  0.20881178651E+03  0.20881178651E+03  0.00000000000E+00 0.  1.
         21   -1    0    0  501  503 -0.00000000000E+00 -0.00000000000E+00 -0.43951878752E+03  0.43951878752E+03  0.00000000000E+00 0. -1.
         24    1    1    2    0    0 -0.14000993944E+03 -0.11560511721E+02 -0.15429582872E+03  0.22363105171E+03  0.80419002446E+02 0.  1.
          1    1    1    2  501    0  0.24391901415E+03 -0.99844042871E+02 -0.67647625360E+02  0.27210571398E+03  0.00000000000E+00 0. -1.
         -2    1    1    2    0  502 -0.10390907471E+03  0.11140455459E+03 -0.87635469281E+01  0.15259380835E+03  0.00000000000E+00 0.  1.
<mgrwt>
<rscale>  2 0.28889005E+03</rscale>
<asrwt>0</asrwt>
<pdfrwt beam="1">  1       21 0.32124890E-01 0.28889005E+03</pdfrwt>
<pdfrwt beam="2">  1       21 0.67618275E-01 0.28889005E+03</pdfrwt>
<totfact> 0.17728810E+04</totfact>
</mgrwt>
</event>
<event>
 5    1  0.1281005E-004  0.2501610E+03  0.7546771E-02  0.1113203E+00
         21   -1    0    0  501  502  0.00000000000E+00  0.00000000000E+00  0.92122604890E+03  0.92122604890E+03  0.00000000000E+00 0.  1.
         21   -1    0    0  502  503 -0.00000000000E+00 -0.00000000000E+00 -0.89643277275E+02  0.89643277275E+02  0.00000000000E+00 0. -1.
         24    1    1    2    0    0  0.68736396234E+02 -0.32132734566E+02  0.22776635179E+02  0.11288576466E+03  0.80419002446E+02 0. -1.
          1    1    1    2  501    0 -0.22852899883E+03  0.14355002499E+02  0.45553753176E+03  0.50984900926E+03  0.00000000000E+00 0. -1.
         -2    1    1    2    0  503  0.15979260259E+03  0.17777732067E+02  0.35326860469E+03  0.38813455226E+03  0.00000000000E+00 0.  1.
<mgrwt>
<rscale>  2 0.25016100E+03</rscale>
<asrwt>0</asrwt>
<pdfrwt beam="1">  1       21 0.14172708E+00 0.25016100E+03</pdfrwt>
<pdfrwt beam="2">  1       21 0.13791274E-01 0.25016100E+03</pdfrwt>
<totfact> 0.15275603E+04</totfact>
</mgrwt>
</event>
<event>
 5    1  0.1281005E-004  0.1463940E+03  0.7546771E-02  0.1204975E+00
         21   -1    0    0  501  502  0.00000000000E+00  0.00000000000E+00  0.30734768906E+03  0.30734768906E+03  0.00000000000E+00 0.  1.
         21   -1    0    0  502  503 -0.00000000000E+00 -0.00000000000E+00 -0.74224712837E+02  0.74224712837E+02  0.00000000000E+00 0.  1.
         24    1    1    2    0    0 -0.11061074114E+03 -0.31301627466E+02  0.67675260435E+02  0.15576162803E+03  0.80419002446E+02 0.  1.
          1    1    1    2  501    0 -0.62561086327E+01 -0.22851583718E+02  0.36783041223E+02  0.43753010127E+02  0.00000000000E+00 0. -1.
         -2    1    1    2    0  503  0.11686684977E+03  0.54153211184E+02  0.12866467457E+03  0.18205776374E+03  0.00000000000E+00 0.  1.
<mgrwt>
<rscale>  2 0.14639398E+03</rscale>
<asrwt>0</asrwt>
<pdfrwt beam="1">  1       21 0.47284259E-01 0.14639398E+03</pdfrwt>
<pdfrwt beam="2">  1       21 0.11419187E-01 0.14639398E+03</pdfrwt>
<totfact> 0.27737097E+05</totfact>
</mgrwt>
</event>
<event>
 5    1  0.1281005E-004  0.1447291E+03  0.7546771E-02  0.1207104E+00
         21   -1    0    0  503  502  0.00000000000E+00  0.00000000000E+00  0.66475512985E+03  0.66475512985E+03  0.00000000000E+00 0.  1.
         21   -1    0    0  501  503 -0.00000000000E+00 -0.00000000000E+00 -0.35129254448E+02  0.35129254448E+02  0.00000000000E+00 0.  1.
         24    1    1    2    0    0  0.34933502058E+02 -0.27250047094E+02  0.31494145562E+03  0.32805220782E+03  0.80419002446E+02 0.  1.
          1    1    1    2  501    0  0.79932117376E+02  0.20809424524E+02  0.11953711478E+03  0.14529727233E+03  0.00000000000E+00 0. -1.
         -2    1    1    2    0  502 -0.11486561943E+03  0.64406225701E+01  0.19514730501E+03  0.22653490415E+03  0.00000000000E+00 0.  1.
<mgrwt>
<rscale>  2 0.14472912E+03</rscale>
<asrwt>0</asrwt>
<pdfrwt beam="1">  1       21 0.10227001E+00 0.14472912E+03</pdfrwt>
<pdfrwt beam="2">  1       21 0.54045012E-02 0.14472912E+03</pdfrwt>
<totfact> 0.18638900E+05</totfact>
</mgrwt>
</event>
<event>
 5    1  0.1281005E-004  0.1129812E+03  0.7546771E-02  0.1255147E+00
         21   -1    0    0  501  502  0.00000000000E+00  0.00000000000E+00  0.12013639474E+03  0.12013639474E+03  0.00000000000E+00 0.  1.
         21   -1    0    0  502  503 -0.00000000000E+00 -0.00000000000E+00 -0.13572949330E+03  0.13572949330E+03  0.00000000000E+00 0.  1.
         24    1    1    2    0    0 -0.44088952291E+02 -0.46966004640E+02 -0.59968465082E+02  0.11921859781E+03  0.80419002446E+02 0.  1.
          1    1    1    2  501    0  0.88873465786E+01 -0.33731755324E+02 -0.57242522452E+01  0.35349445685E+02  0.00000000000E+00 0. -1.
         -2    1    1    2    0  503  0.35201605713E+02  0.80697759965E+02  0.50099618774E+02  0.10129784454E+03  0.00000000000E+00 0.  1.
<mgrwt>
<rscale>  2 0.11298120E+03</rscale>
<asrwt>0</asrwt>
<pdfrwt beam="1">  1       21 0.18482522E-01 0.11298120E+03</pdfrwt>
<pdfrwt beam="2">  1       21 0.20881460E-01 0.11298120E+03</pdfrwt>
<totfact> 0.57332087E+05</totfact>
</mgrwt>
</event>
<event>
 5    1  0.1281005E-004  0.1204445E+03  0.7546771E-02  0.1242366E+00
         21   -1    0    0  503  502  0.00000000000E+00  0.00000000000E+00  0.58798315491E+02  0.58798315491E+02  0.00000000000E+00 0.  1.
         21   -1    0    0  501  503 -0.00000000000E+00 -0.00000000000E+00 -0.24777416233E+03  0.24777416233E+03  0.00000000000E+00 0. -1.
         24    1    1    2    0    0  0.19508524697E+02 -0.30663152604E+02 -0.72862620450E+02  0.11444207651E+03  0.80419002446E+02 0.  0.
          1    1    1    2  501    0  0.29437663102E+02  0.78720368214E+02 -0.71103169054E+02  0.11008693397E+03  0.00000000000E+00 0. -1.
         -2    1    1    2    0  502 -0.48946187799E+02 -0.48057215610E+02 -0.45010057340E+02  0.82043467345E+02  0.00000000000E+00 0.  1.
<mgrwt>
<rscale>  2 0.12044446E+03</rscale>
<asrwt>0</asrwt>
<pdfrwt beam="1">  1       21 0.90458945E-02 0.12044446E+03</pdfrwt>
<pdfrwt beam="2">  1       21 0.38119103E-01 0.12044446E+03</pdfrwt>
<totfact> 0.64637939E+05</totfact>
</mgrwt>
</event>
<event>
 5    1  0.1281005E-004  0.1448753E+03  0.7546771E-02  0.1206915E+00
         21   -1    0    0  501  502  0.00000000000E+00  0.00000000000E+00  0.16071525385E+03  0.16071525385E+03  0.00000000000E+00 0. -1.
         21   -1    0    0  502  503 -0.00000000000E+00 -0.00000000000E+00 -0.13071923769E+03  0.13071923769E+03  0.00000000000E+00 0.  1.
         24    1    1    2    0    0  0.41096176430E+02  0.10006064767E+03  0.18284288393E+02  0.13602411582E+03  0.80419002446E+02 0.  1.
          1    1    1    2  501    0 -0.24714533125E+02 -0.12373084121E+03  0.89446285899E+01  0.12649164239E+03  0.00000000000E+00 0. -1.
         -2    1    1    2    0  503 -0.16381643305E+02  0.23670193536E+02  0.27670991846E+01  0.28918733328E+02  0.00000000000E+00 0.  1.
<mgrwt>
<rscale>  2 0.14487533E+03</rscale>
<asrwt>0</asrwt>
<pdfrwt beam="1">  1       21 0.24725424E-01 0.14487533E+03</pdfrwt>
<pdfrwt beam="2">  1       21 0.20110652E-01 0.14487533E+03</pdfrwt>
<totfact> 0.35663590E+05</totfact>
</mgrwt>
</event>
<event>
 5    1  0.1281005E-004  0.2584321E+03  0.7546771E-02  0.1108089E+00
         21   -1    0    0  503  502  0.00000000000E+00  0.00000000000E+00  0.66367300564E+02  0.66367300564E+02  0.00000000000E+00 0.  1.
         21   -1    0    0  501  503 -0.00000000000E+00 -0.00000000000E+00 -0.10116633679E+04  0.10116633679E+04  0.00000000000E+00 0.  1.
         24    1    1    2    0    0 -0.12240121063E+02  0.45039866036E+02 -0.18687396239E+03  0.20872830156E+03  0.80419002446E+02 0.  1.
          1    1    1    2  501    0 -0.20461387413E+03 -0.23642789942E+02 -0.39762401597E+03  0.44780651746E+03  0.00000000000E+00 0. -1.
         -2    1    1    2    0  502  0.21685399519E+03 -0.21397076094E+02 -0.36079808898E+03  0.42149584946E+03  0.00000000000E+00 0.  1.
<mgrwt>
<rscale>  2 0.25843211E+03</rscale>
<asrwt>0</asrwt>
<pdfrwt beam="1">  1       21 0.10210354E-01 0.25843211E+03</pdfrwt>
<pdfrwt beam="2">  1       21 0.15564051E+00 0.25843211E+03</pdfrwt>
<totfact> 0.20373837E+04</totfact>
</mgrwt>
</event>
<event>
 5    1  0.1281005E-004  0.1432997E+03  0.7546771E-02  0.1208957E+00
         21   -1    0    0  501  502  0.00000000000E+00  0.00000000000E+00  0.25396940775E+04  0.25396940775E+04  0.00000000000E+00 0. -1.
         21   -1    0    0  502  503 -0.00000000000E+00 -0.00000000000E+00 -0.81936983036E+01  0.81936983036E+01  0.00000000000E+00 0.  1.
         24    1    1    2    0    0  0.82780372693E+02 -0.36788092816E+02  0.94785055927E+03  0.95555944480E+03  0.80419002446E+02 0. -1.
          1    1    1    2  501    0 -0.12180535850E+03  0.33360873026E+02  0.12612496201E+04  0.12675567432E+04  0.00000000000E+00 0. -1.
         -2    1    1    2    0  503  0.39024985808E+02  0.34272197902E+01  0.32240019982E+03  0.32477158773E+03  0.00000000000E+00 0.  1.
<mgrwt>
<rscale>  2 0.14329968E+03</rscale>
<asrwt>0</asrwt>
<pdfrwt beam="1">  1       21 0.39072154E+00 0.14329968E+03</pdfrwt>
<pdfrwt beam="2">  1       21 0.12605710E-02 0.14329968E+03</pdfrwt>
<totfact> 0.27515122E+04</totfact>
</mgrwt>
</event>
<event>
 5    1  0.1281005E-004  0.2210326E+03  0.7546771E-02  0.1133116E+00
         21   -1    0    0  503  502  0.00000000000E+00  0.00000000000E+00  0.29617992404E+03  0.29617992404E+03  0.00000000000E+00 0. -1.
         21   -1    0    0  501  503 -0.00000000000E+00 -0.00000000000E+00 -0.17284815219E+03  0.17284815219E+03  0.00000000000E+00 0.  1.
         24    1    1    2    0    0 -0.46438349215E+02 -0.42008063432E+02  0.34494002829E+02  0.10760227626E+03  0.80419002446E+02 0.  0.
          1    1    1    2  501    0  0.16503166384E+03  0.11476057853E+03  0.94636477559E+02  0.22217448850E+03  0.00000000000E+00 0. -1.
         -2    1    1    2    0  502 -0.11859331463E+03 -0.72752515093E+02 -0.57987085371E+01  0.13925131148E+03  0.00000000000E+00 0.  1.
<mgrwt>
<rscale>  2 0.22103257E+03</rscale>
<asrwt>0</asrwt>
<pdfrwt beam="1">  1       21 0.45566142E-01 0.22103257E+03</pdfrwt>
<pdfrwt beam="2">  1       21 0.26592023E-01 0.22103257E+03</pdfrwt>
<totfact> 0.61366349E+04</totfact>
</mgrwt>
</event>
<event>
 5    1  0.1281005E-004  0.1552652E+03  0.7546771E-02  0.1194148E+00
         21   -1    0    0  503  502  0.00000000000E+00  0.00000000000E+00  0.12107501080E+03  0.12107501080E+03  0.00000000000E+00 0.  1.
         21   -1    0    0  501  503 -0.00000000000E+00 -0.00000000000E+00 -0.24651895453E+03  0.24651895453E+03  0.00000000000E+00 0.  1.
         24    1    1    2    0    0  0.59013273363E+02  0.35807729280E+02 -0.10302338310E+03  0.14780322503E+03  0.80419002446E+02 0.  1.
          1    1    1    2  501    0  0.69804115849E+02  0.34309651339E+01 -0.45179473120E+02  0.83220015036E+02  0.00000000000E+00 0. -1.
         -2    1    1    2    0  502 -0.12881738921E+03 -0.39238694414E+02  0.22758912494E+02  0.13657072527E+03  0.00000000000E+00 0.  1.
<mgrwt>
<rscale>  2 0.15526522E+03</rscale>
<asrwt>0</asrwt>
<pdfrwt beam="1">  1       21 0.18626925E-01 0.15526522E+03</pdfrwt>
<pdfrwt beam="2">  1       21 0.37925993E-01 0.15526522E+03</pdfrwt>
<totfact> 0.17870358E+05</totfact>
</mgrwt>
</event>
<event>
 5    1  0.1281005E-004  0.2250535E+03  0.7546771E-02  0.1130171E+00
         21   -1    0    0  501  502  0.00000000000E+00  0.00000000000E+00  0.26938228643E+03  0.26938228643E+03  0.00000000000E+00 0. -1.
         21   -1    0    0  502  503 -0.00000000000E+00 -0.00000000000E+00 -0.19952505617E+03  0.19952505617E+03  0.00000000000E+00 0. -1.
         24    1    1    2    0    0 -0.38621294647E+02 -0.15949464072E+03 -0.16928626880E+02  0.18353184787E+03  0.80419002446E+02 0. -1.
          1    1    1    2  501    0  0.29686460255E+02  0.21201469824E+03  0.89485031436E+02  0.23203251722E+03  0.00000000000E+00 0. -1.
         -2    1    1    2    0  503  0.89348343919E+01 -0.52520057524E+02 -0.26991742922E+01  0.53342977512E+02  0.00000000000E+00 0.  1.
<mgrwt>
<rscale>  2 0.22505353E+03</rscale>
<asrwt>0</asrwt>
<pdfrwt beam="1">  1       21 0.41443429E-01 0.22505353E+03</pdfrwt>
<pdfrwt beam="2">  1       21 0.30696162E-01 0.22505353E+03</pdfrwt>
<totfact> 0.56290020E+04</totfact>
</mgrwt>
</event>
<event>
 5    1  0.1281005E-004  0.1210687E+03  0.7546771E-02  0.1241344E+00
         21   -1    0    0  503  502  0.00000000000E+00  0.00000000000E+00  0.72889446959E+02  0.72889446959E+02  0.00000000000E+00 0. -1.
         21   -1    0    0  501  503 -0.00000000000E+00 -0.00000000000E+00 -0.20863435255E+03  0.20863435255E+03  0.00000000000E+00 0.  1.
         24    1    1    2    0    0 -0.30700466045E+02 -0.21163373308E+02 -0.26754587870E+02  0.92592823218E+02  0.80419002446E+02 0.  0.
          1    1    1    2  501    0 -0.55527286592E+02  0.35751315394E+02 -0.56665633668E+02  0.87019711259E+02  0.00000000000E+00 0. -1.
         -2    1    1    2    0  502  0.86227752636E+02 -0.14587942086E+02 -0.52324684054E+02  0.10191126503E+03  0.00000000000E+00 0.  1.
<mgrwt>
<rscale>  2 0.12106872E+03</rscale>
<asrwt>0</asrwt>
<pdfrwt beam="1">  1       21 0.11213761E-01 0.12106872E+03</pdfrwt>
<pdfrwt beam="2">  1       21 0.32097592E-01 0.12106872E+03</pdfrwt>
<totfact> 0.62211961E+05</totfact>
</mgrwt>
</event>
<event>
 5    1  0.1281005E-004  0.1848562E+03  0.7546771E-02  0.1163184E+00
         21   -1    0    0  503  502  0.00000000000E+00  0.00000000000E+00  0.51071641265E+03  0.51071641265E+03  0.00000000000E+00 0. -1.
         21   -1    0    0  501  503 -0.00000000000E+00 -0.00000000000E+00 -0.67235728180E+02  0.67235728180E+02  0.00000000000E+00 0.  1.
         24    1    1    2    0    0  0.56463802271E+02  0.14940075397E+01  0.10504630379E+03  0.14384830524E+03  0.80419002446E+02 0. -1.
          1    1    1    2  501    0 -0.13938195344E+03 -0.77049433100E+02  0.18657680557E+03  0.24530562257E+03  0.00000000000E+00 0. -1.
         -2    1    1    2    0  502  0.82918151166E+02  0.75555425560E+02  0.15185757510E+03  0.18879821302E+03  0.00000000000E+00 0.  1.
<mgrwt>
<rscale>  2 0.18485618E+03</rscale>
<asrwt>0</asrwt>
<pdfrwt beam="1">  1       21 0.78571753E-01 0.18485618E+03</pdfrwt>
<pdfrwt beam="2">  1       21 0.10343959E-01 0.18485618E+03</pdfrwt>
<totfact> 0.10980908E+05</totfact>
</mgrwt>
</event>
<event>
 5    1  0.1281005E-004  0.1186111E+03  0.7546771E-02  0.1245406E+00
         21   -1    0    0  501  502  0.00000000000E+00  0.00000000000E+00  0.54879505757E+03  0.54879505757E+03  0.00000000000E+00 0. -1.
         21   -1    0    0  502  503 -0.00000000000E+00 -0.00000000000E+00 -0.27309140647E+02  0.27309140647E+02  0.00000000000E+00 0.  1.
         24    1    1    2    0    0 -0.59634710226E+01 -0.74703760942E+02  0.17211085495E+03  0.20421943402E+03  0.80419002446E+02 0.  0.
          1    1    1    2  501    0  0.23892069853E+02 -0.19848174352E+02  0.78474176836E+02  0.84397733720E+02  0.00000000000E+00 0. -1.
         -2    1    1    2    0  503 -0.17928598831E+02  0.94551935294E+02  0.27090088514E+03  0.28748703048E+03  0.00000000000E+00 0.  1.
<mgrwt>
<rscale>  2 0.11861114E+03</rscale>
<asrwt>0</asrwt>
<pdfrwt beam="1">  1       21 0.84430001E-01 0.11861114E+03</pdfrwt>
<pdfrwt beam="2">  1       21 0.42014067E-02 0.11861114E+03</pdfrwt>
<totfact> 0.44495485E+05</totfact>
</mgrwt>
</event>
<event>
 5    1  0.1281005E-004  0.2669911E+03  0.7546771E-02  0.1103014E+00
         21   -1    0    0  503  502  0.00000000000E+00  0.00000000000E+00  0.42537986668E+03  0.42537986668E+03  0.00000000000E+00 0. -1.
         21   -1    0    0  501  503 -0.00000000000E+00 -0.00000000000E+00 -0.17081147832E+03  0.17081147832E+03  0.00000000000E+00 0.  1.
         24    1    1    2    0    0 -0.10245618276E+03 -0.31908837875E+02  0.39194033393E+02  0.13970981185E+03  0.80419002446E+02 0.  1.
          1    1    1    2  501    0  0.20069396346E+03  0.14684845050E+03  0.15871261546E+03  0.29501225176E+03  0.00000000000E+00 0. -1.
         -2    1    1    2    0  502 -0.98237780703E+02 -0.11493961263E+03  0.56661739507E+02  0.16146928139E+03  0.00000000000E+00 0.  1.
<mgrwt>
<rscale>  2 0.26699107E+03</rscale>
<asrwt>0</asrwt>
<pdfrwt beam="1">  1       21 0.65443056E-01 0.26699107E+03</pdfrwt>
<pdfrwt beam="2">  1       21 0.26278689E-01 0.26699107E+03</pdfrwt>
<totfact> 0.28504511E+04</totfact>
</mgrwt>
</event>
<event>
 5    1  0.1281005E-004  0.1241863E+03  0.7546771E-02  0.1236346E+00
         21   -1    0    0  501  502  0.00000000000E+00  0.00000000000E+00  0.81862316889E+01  0.81862316889E+01  0.00000000000E+00 0. -1.
         21   -1    0    0  502  503 -0.00000000000E+00 -0.00000000000E+00 -0.19240059706E+04  0.19240059706E+04  0.00000000000E+00 0.  1.
         24    1    1    2    0    0  0.10794923643E+02 -0.36408327252E+02 -0.56098684155E+03  0.56799256071E+03  0.80419002446E+02 0.  1.
          1    1    1    2  501    0 -0.68143615961E+02  0.66033797437E+02 -0.77703366856E+03  0.78280606594E+03  0.00000000000E+00 0. -1.
         -2    1    1    2    0  503  0.57348692318E+02 -0.29625470185E+02 -0.57779922879E+03  0.58139357563E+03  0.00000000000E+00 0.  1.
<mgrwt>
<rscale>  2 0.12418628E+03</rscale>
<asrwt>0</asrwt>
<pdfrwt beam="1">  1       21 0.12594186E-02 0.12418628E+03</pdfrwt>
<pdfrwt beam="2">  1       21 0.29600130E+00 0.12418628E+03</pdfrwt>
<totfact> 0.99663537E+04</totfact>
</mgrwt>
</event>
<event>
 5    1  0.1281005E-004  0.1766183E+03  0.7546771E-02  0.1171117E+00
         21   -1    0    0  503  502  0.00000000000E+00  0.00000000000E+00  0.68217315134E+03  0.68217315134E+03  0.00000000000E+00 0. -1.
         21   -1    0    0  501  503 -0.00000000000E+00 -0.00000000000E+00 -0.46334583370E+02  0.46334583370E+02  0.00000000000E+00 0. -1.
         24    1    1    2    0    0  0.99015773191E+02  0.21869240147E+02  0.20237426429E+03  0.24021853760E+03  0.80419002446E+02 0. -1.
          1    1    1    2  501    0 -0.15908462846E+03  0.22125278767E+01  0.28662386547E+03  0.32782015580E+03  0.00000000000E+00 0. -1.
         -2    1    1    2    0  502  0.60068855272E+02 -0.24081768024E+02  0.14684043820E+03  0.16046904130E+03  0.00000000000E+00 0.  1.
<mgrwt>
<rscale>  2 0.17661828E+03</rscale>
<asrwt>0</asrwt>
<pdfrwt beam="1">  1       21 0.10494971E+00 0.17661828E+03</pdfrwt>
<pdfrwt beam="2">  1       21 0.71283979E-02 0.17661828E+03</pdfrwt>
<totfact> 0.10792871E+05</totfact>
</mgrwt>
</event>
<event>
 5    1  0.1281005E-004  0.1067898E+03  0.7546771E-02  0.1266633E+00
         21   -1    0    0  501  502  0.00000000000E+00  0.00000000000E+00  0.12699550065E+03  0.12699550065E+03  0.00000000000E+00 0. -1.
         21   -1    0    0  502  503 -0.00000000000E+00 -0.00000000000E+00 -0.11227998819E+03  0.11227998819E+03  0.00000000000E+00 0. -1.
         24    1    1    2    0    0  0.39885665147E+02  0.43691428712E+02  0.60310253170E+02  0.11663768610E+03  0.80419002446E+02 0. -1.
          1    1    1    2  501    0 -0.45335724333E+02 -0.71908100189E+02 -0.31794678941E+02  0.90757943909E+02  0.00000000000E+00 0. -1.
         -2    1    1    2    0  503  0.54500591868E+01  0.28216671477E+02 -0.13800061767E+02  0.31879858832E+02  0.00000000000E+00 0.  1.
<mgrwt>
<rscale>  2 0.10678983E+03</rscale>
<asrwt>0</asrwt>
<pdfrwt beam="1">  1       21 0.19537769E-01 0.10678983E+03</pdfrwt>
<pdfrwt beam="2">  1       21 0.17273844E-01 0.10678983E+03</pdfrwt>
<totfact> 0.73297103E+05</totfact>
</mgrwt>
</event>
<event>
 5    1  0.1281005E-004  0.3796153E+03  0.7546771E-02  0.1051076E+00
         21   -1    0    0  503  502  0.00000000000E+00  0.00000000000E+00  0.26191355421E+03  0.26191355421E+03  0.00000000000E+00 0. -1.
         21   -1    0    0  501  503 -0.00000000000E+00 -0.00000000000E+00 -0.57758784285E+03  0.57758784285E+03  0.00000000000E+00 0.  1.
         24    1    1    2    0    0 -0.20039896626E+01  0.29051717056E+03 -0.10931642778E+03  0.32065797932E+03  0.80419002446E+02 0.  1.
          1    1    1    2  501    0 -0.13904767892E+02 -0.37326220626E+03 -0.21998590735E+03  0.43348796595E+03  0.00000000000E+00 0. -1.
         -2    1    1    2    0  502  0.15908757554E+02  0.82745035693E+02  0.13628046486E+02  0.85355451787E+02  0.00000000000E+00 0.  1.
<mgrwt>
<rscale>  2 0.37961526E+03</rscale>
<asrwt>0</asrwt>
<pdfrwt beam="1">  1       21 0.40294393E-01 0.37961526E+03</pdfrwt>
<pdfrwt beam="2">  1       21 0.88859667E-01 0.37961526E+03</pdfrwt>
<totfact> 0.58021696E+03</totfact>
</mgrwt>
</event>
<event>
 5    1  0.1281005E-004  0.1331830E+03  0.7546771E-02  0.1222808E+00
         21   -1    0    0  503  502  0.00000000000E+00  0.00000000000E+00  0.19705749109E+03  0.19705749109E+03  0.00000000000E+00 0.  1.
         21   -1    0    0  501  503 -0.00000000000E+00 -0.00000000000E+00 -0.94101778835E+02  0.94101778835E+02  0.00000000000E+00 0. -1.
         24    1    1    2    0    0 -0.81097596714E+02 -0.16667778335E+02  0.74673473238E+02  0.13746991884E+03  0.80419002446E+02 0.  1.
          1    1    1    2  501    0  0.87810142134E+02  0.60479489777E+02  0.17189606856E+02  0.10799940893E+03  0.00000000000E+00 0. -1.
         -2    1    1    2    0  502 -0.67125454199E+01 -0.43811711442E+02  0.11092632162E+02  0.45689942151E+02  0.00000000000E+00 0.  1.
<mgrwt>
<rscale>  2 0.13318296E+03</rscale>
<asrwt>0</asrwt>
<pdfrwt beam="1">  1       21 0.30316537E-01 0.13318296E+03</pdfrwt>
<pdfrwt beam="2">  1       21 0.14477197E-01 0.13318296E+03</pdfrwt>
<totfact> 0.44077549E+05</totfact>
</mgrwt>
</event>
<event>
 5    1  0.1281005E-004  0.1727370E+03  0.7546771E-02  0.1175023E+00
         21   -1    0    0  503  502  0.00000000000E+00  0.00000000000E+00  0.10898166983E+04  0.10898166983E+04  0.00000000000E+00 0.  1.
         21   -1    0    0  501  503 -0.00000000000E+00 -0.00000000000E+00 -0.33475121133E+02  0.33475121133E+02  0.00000000000E+00 0. -1.
         24    1    1    2    0    0  0.56405020557E+02  0.53059657921E+02  0.15322343470E+03  0.18958241094E+03  0.80419002446E+02 0. -1.
          1    1    1    2  501    0  0.84858681649E+02 -0.65623927640E+01  0.25821768011E+03  0.27188312043E+03  0.00000000000E+00 0. -1.
         -2    1    1    2    0  502 -0.14126370221E+03 -0.46497265157E+02  0.64490046231E+03  0.66182628802E+03  0.00000000000E+00 0.  1.
<mgrwt>
<rscale>  2 0.17273697E+03</rscale>
<asrwt>0</asrwt>
<pdfrwt beam="1">  1       21 0.16766408E+00 0.17273697E+03</pdfrwt>
<pdfrwt beam="2">  1       21 0.51500195E-02 0.17273697E+03</pdfrwt>
<totfact> 0.57366655E+04</totfact>
</mgrwt>
</event>
<event>
 5    1  0.1281005E-004  0.2219229E+03  0.7546771E-02  0.1132458E+00
         21   -1    0    0  503  502  0.00000000000E+00  0.00000000000E+00  0.29012931699E+03  0.29012931699E+03  0.00000000000E+00 0. -1.
         21   -1    0    0  501  503 -0.00000000000E+00 -0.00000000000E+00 -0.17272415344E+03  0.17272415344E+03  0.00000000000E+00 0. -1.
         24    1    1    2    0    0  0.95471314548E+02 -0.15813378312E+03  0.35794114079E+02  0.20462037979E+03  0.80419002446E+02 0. -1.
          1    1    1    2  501    0 -0.69788297863E+02  0.18944077207E+03  0.81560948588E+02  0.21773929589E+03  0.00000000000E+00 0. -1.
         -2    1    1    2    0  502 -0.25683016685E+02 -0.31306988947E+02  0.50100878867E-01  0.40493794747E+02  0.00000000000E+00 0.  1.
<mgrwt>
<rscale>  2 0.22192287E+03</rscale>
<asrwt>0</asrwt>
<pdfrwt beam="1">  1       21 0.44635280E-01 0.22192287E+03</pdfrwt>
<pdfrwt beam="2">  1       21 0.26572947E-01 0.22192287E+03</pdfrwt>
<totfact> 0.64098339E+04</totfact>
</mgrwt>
</event>
<event>
 5    1  0.1281005E-004  0.1713691E+03  0.7546771E-02  0.1176428E+00
         21   -1    0    0  501  502  0.00000000000E+00  0.00000000000E+00  0.59672207024E+02  0.59672207024E+02  0.00000000000E+00 0.  1.
         21   -1    0    0  502  503 -0.00000000000E+00 -0.00000000000E+00 -0.51007205641E+03  0.51007205641E+03  0.00000000000E+00 0.  1.
         24    1    1    2    0    0  0.80717035684E+02  0.56976379978E+02 -0.22099792551E+03  0.25508595955E+03  0.80419002446E+02 0.  1.
          1    1    1    2  501    0  0.76159767388E+01  0.64611297286E+02 -0.71512861639E+02  0.96678395821E+02  0.00000000000E+00 0. -1.
         -2    1    1    2    0  503 -0.88333012423E+02 -0.12158767726E+03 -0.15788906224E+03  0.21797990806E+03  0.00000000000E+00 0.  1.
<mgrwt>
<rscale>  2 0.17136906E+03</rscale>
<asrwt>0</asrwt>
<pdfrwt beam="1">  1       21 0.91803399E-02 0.17136906E+03</pdfrwt>
<pdfrwt beam="2">  1       21 0.78472621E-01 0.17136906E+03</pdfrwt>
<totfact> 0.13655724E+05</totfact>
</mgrwt>
</event>
<event>
 5    1  0.1281005E-004  0.2035866E+03  0.7546771E-02  0.1146748E+00
         21   -1    0    0  501  502  0.00000000000E+00  0.00000000000E+00  0.11725585228E+04  0.11725585228E+04  0.00000000000E+00 0. -1.
         21   -1    0    0  502  503 -0.00000000000E+00 -0.00000000000E+00 -0.38613863635E+02  0.38613863635E+02  0.00000000000E+00 0.  1.
         24    1    1    2    0    0 -0.18068973148E+02  0.55246619176E+02  0.25066334246E+03  0.26958858271E+03  0.80419002446E+02 0. -1.
          1    1    1    2  501    0  0.14244668673E+03 -0.10186276227E+03  0.64959861487E+03  0.67278929937E+03  0.00000000000E+00 0. -1.
         -2    1    1    2    0  503 -0.12437771358E+03  0.46616143094E+02  0.23368270178E+03  0.26879450430E+03  0.00000000000E+00 0.  1.
<mgrwt>
<rscale>  2 0.20358658E+03</rscale>
<asrwt>0</asrwt>
<pdfrwt beam="1">  1       21 0.18039359E+00 0.20358658E+03</pdfrwt>
<pdfrwt beam="2">  1       21 0.59405953E-02 0.20358658E+03</pdfrwt>
<totfact> 0.36012283E+04</totfact>
</mgrwt>
</event>
<event>
 5    1  0.1281005E-004  0.1508602E+03  0.7546771E-02  0.1199420E+00
         21   -1    0    0  501  502  0.00000000000E+00  0.00000000000E+00  0.46731210404E+02  0.46731210404E+02  0.00000000000E+00 0. -1.
         21   -1    0    0  502  503 -0.00000000000E+00 -0.00000000000E+00 -0.50513915719E+03  0.50513915719E+03  0.00000000000E+00 0. -1.
         24    1    1    2    0    0 -0.89838883889E+02  0.30584293096E+02 -0.15653808405E+03  0.19994452169E+03  0.80419002446E+02 0. -1.
          1    1    1    2  501    0  0.13209433263E+03 -0.27744572478E+02 -0.25659648475E+03  0.28993176783E+03  0.00000000000E+00 0. -1.
         -2    1    1    2    0  503 -0.42255448737E+02 -0.28397206179E+01 -0.45273377992E+02  0.61994078072E+02  0.00000000000E+00 0.  1.
<mgrwt>
<rscale>  2 0.15086021E+03</rscale>
<asrwt>0</asrwt>
<pdfrwt beam="1">  1       21 0.71894172E-02 0.15086021E+03</pdfrwt>
<pdfrwt beam="2">  1       21 0.77713715E-01 0.15086021E+03</pdfrwt>
<totfact> 0.21471493E+05</totfact>
</mgrwt>
</event>
<event>
 5    1  0.1281005E-004  0.4009213E+03  0.7546771E-02  0.1043461E+00
         21   -1    0    0  503  502  0.00000000000E+00  0.00000000000E+00  0.18896042318E+04  0.18896042318E+04  0.00000000000E+00 0. -1.
         21   -1    0    0  501  503 -0.00000000000E+00 -0.00000000000E+00 -0.12439380174E+03  0.12439380174E+03  0.00000000000E+00 0.  1.
         24    1    1    2    0    0  0.46162346599E+02  0.28204032709E+03  0.22341699456E+03  0.37156436557E+03  0.80419002446E+02 0.  0.
          1    1    1    2  501    0 -0.10099586069E+03 -0.37972591291E+03  0.14344146027E+04  0.14872582779E+04  0.00000000000E+00 0. -1.
         -2    1    1    2    0  502  0.54833514089E+02  0.97685585820E+02  0.10737883280E+03  0.15517539005E+03  0.00000000000E+00 0.  1.
<mgrwt>
<rscale>  2 0.40092133E+03</rscale>
<asrwt>0</asrwt>
<pdfrwt beam="1">  1       21 0.29070832E+00 0.40092133E+03</pdfrwt>
<pdfrwt beam="2">  1       21 0.19137509E-01 0.40092133E+03</pdfrwt>
<totfact> 0.80244720E+02</totfact>
</mgrwt>
</event>
<event>
 5    1  0.1281005E-004  0.1406936E+03  0.7546771E-02  0.1212399E+00
         21   -1    0    0  503  502  0.00000000000E+00  0.00000000000E+00  0.21535529248E+03  0.21535529248E+03  0.00000000000E+00 0. -1.
         21   -1    0    0  501  503 -0.00000000000E+00 -0.00000000000E+00 -0.92767141009E+02  0.92767141009E+02  0.00000000000E+00 0.  1.
         24    1    1    2    0    0  0.77148549532E+01 -0.29235181095E+02  0.48806675448E+02  0.98810537511E+02  0.80419002446E+02 0. -1.
          1    1    1    2  501    0  0.13955448764E+02 -0.81474603719E+02  0.24577533770E+02  0.86237583266E+02  0.00000000000E+00 0. -1.
         -2    1    1    2    0  502 -0.21670303717E+02  0.11070978481E+03  0.49203942254E+02  0.12307431271E+03  0.00000000000E+00 0.  1.
<mgrwt>
<rscale>  2 0.14069356E+03</rscale>
<asrwt>0</asrwt>
<pdfrwt beam="1">  1       21 0.33131583E-01 0.14069356E+03</pdfrwt>
<pdfrwt beam="2">  1       21 0.14271868E-01 0.14069356E+03</pdfrwt>
<totfact> 0.38017396E+05</totfact>
</mgrwt>
</event>
<event>
 5    1  0.1281005E-004  0.2873142E+03  0.7546771E-02  0.1091760E+00
         21   -1    0    0  503  502  0.00000000000E+00  0.00000000000E+00  0.10929679203E+04  0.10929679203E+04  0.00000000000E+00 0. -1.
         21   -1    0    0  501  503 -0.00000000000E+00 -0.00000000000E+00 -0.77539670989E+02  0.77539670989E+02  0.00000000000E+00 0.  1.
         24    1    1    2    0    0  0.61941782651E+02 -0.22315267056E+03  0.39786742732E+03  0.46733243467E+03  0.80419002446E+02 0.  1.
          1    1    1    2  501    0 -0.10959615423E+03  0.25127759333E+03  0.45225580874E+03  0.52885448138E+03  0.00000000000E+00 0. -1.
         -2    1    1    2    0  502  0.47654371583E+02 -0.28124922777E+02  0.16530501327E+03  0.17432067526E+03  0.00000000000E+00 0.  1.
<mgrwt>
<rscale>  2 0.28731418E+03</rscale>
<asrwt>0</asrwt>
<pdfrwt beam="1">  1       21 0.16814890E+00 0.28731418E+03</pdfrwt>
<pdfrwt beam="2">  1       21 0.11929181E-01 0.28731418E+03</pdfrwt>
<totfact> 0.12279707E+04</totfact>
</mgrwt>
</event>
<event>
 5    1  0.1281005E-004  0.1146356E+03  0.7546771E-02  0.1252218E+00
         21   -1    0    0  501  502  0.00000000000E+00  0.00000000000E+00  0.52970404685E+03  0.52970404685E+03  0.00000000000E+00 0. -1.
         21   -1    0    0  502  503 -0.00000000000E+00 -0.00000000000E+00 -0.25734062162E+02  0.25734062162E+02  0.00000000000E+00 0.  1.
         24    1    1    2    0    0 -0.17727135690E+02  0.13593083778E+02  0.18439333243E+03  0.20240340972E+03  0.80419002446E+02 0.  1.
          1    1    1    2  501    0 -0.63348256041E+02 -0.13309646859E+02  0.10160406387E+03  0.12047212971E+03  0.00000000000E+00 0. -1.
         -2    1    1    2    0  503  0.81075391731E+02 -0.28343691947E+00  0.21797258839E+03  0.23256256958E+03  0.00000000000E+00 0.  1.
<mgrwt>
<rscale>  2 0.11463562E+03</rscale>
<asrwt>0</asrwt>
<pdfrwt beam="1">  1       21 0.81492922E-01 0.11463562E+03</pdfrwt>
<pdfrwt beam="2">  1       21 0.39590869E-02 0.11463562E+03</pdfrwt>
<totfact> 0.53187427E+05</totfact>
</mgrwt>
</event>
<event>
 5    1  0.1281005E-004  0.1112322E+03  0.7546771E-02  0.1258305E+00
         21   -1    0    0  501  502  0.00000000000E+00  0.00000000000E+00  0.53735870009E+02  0.53735870009E+02  0.00000000000E+00 0. -1.
         21   -1    0    0  502  503 -0.00000000000E+00 -0.00000000000E+00 -0.24755805167E+03  0.24755805167E+03  0.00000000000E+00 0.  1.
         24    1    1    2    0    0  0.17999371670E+02 -0.36841387102E+02 -0.11560585704E+03  0.14667377175E+03  0.80419002446E+02 0.  1.
          1    1    1    2  501    0 -0.66510894751E+01  0.83709366779E+02 -0.39603416564E+02  0.92843554872E+02  0.00000000000E+00 0. -1.
         -2    1    1    2    0  503 -0.11348282195E+02 -0.46867979677E+02 -0.38612908058E+02  0.61776595054E+02  0.00000000000E+00 0.  1.
<mgrwt>
<rscale>  2 0.11123221E+03</rscale>
<asrwt>0</asrwt>
<pdfrwt beam="1">  1       21 0.82670568E-02 0.11123221E+03</pdfrwt>
<pdfrwt beam="2">  1       21 0.38085855E-01 0.11123221E+03</pdfrwt>
<totfact> 0.75647322E+05</totfact>
</mgrwt>
</event>
<event>
 5    1  0.1281005E-004  0.1380931E+03  0.7546771E-02  0.1215918E+00
         21   -1    0    0  503  502  0.00000000000E+00  0.00000000000E+00  0.16706391780E+03  0.16706391780E+03  0.00000000000E+00 0.  1.
         21   -1    0    0  501  503 -0.00000000000E+00 -0.00000000000E+00 -0.11486772191E+03  0.11486772191E+03  0.00000000000E+00 0. -1.
         24    1    1    2    0    0  0.54677590675E+02  0.14909731052E+02  0.27455556794E+02  0.10214187464E+03  0.80419002446E+02 0.  0.
          1    1    1    2  501    0 -0.98848649622E+02 -0.59225829563E+02  0.11244290426E+02  0.11578077771E+03  0.00000000000E+00 0. -1.
         -2    1    1    2    0  502  0.44171058947E+02  0.44316098511E+02  0.13496348661E+02  0.64008987361E+02  0.00000000000E+00 0.  1.
<mgrwt>
<rscale>  2 0.13809306E+03</rscale>
<asrwt>0</asrwt>
<pdfrwt beam="1">  1       21 0.25702141E-01 0.13809306E+03</pdfrwt>
<pdfrwt beam="2">  1       21 0.17671957E-01 0.13809306E+03</pdfrwt>
<totfact> 0.42090626E+05</totfact>
</mgrwt>
</event>
<event>
 5    1  0.1281005E-004  0.2620761E+03  0.7546771E-02  0.1105902E+00
         21   -1    0    0  503  502  0.00000000000E+00  0.00000000000E+00  0.12263232510E+04  0.12263232510E+04  0.00000000000E+00 0. -1.
         21   -1    0    0  501  503 -0.00000000000E+00 -0.00000000000E+00 -0.56194139419E+02  0.56194139419E+02  0.00000000000E+00 0.  1.
         24    1    1    2    0    0  0.87819105331E-01  0.37513553396E+02  0.21889236086E+03  0.23619558844E+03  0.80419002446E+02 0.  0.
          1    1    1    2  501    0 -0.10272717124E+03 -0.21052307950E+03  0.48921430652E+03  0.54240526953E+03  0.00000000000E+00 0. -1.
         -2    1    1    2    0  502  0.10263935214E+03  0.17300952610E+03  0.46202244422E+03  0.50391653247E+03  0.00000000000E+00 0.  1.
<mgrwt>
<rscale>  2 0.26207614E+03</rscale>
<asrwt>0</asrwt>
<pdfrwt beam="1">  1       21 0.18866510E+00 0.26207614E+03</pdfrwt>
<pdfrwt beam="2">  1       21 0.86452531E-02 0.26207614E+03</pdfrwt>
<totfact> 0.15921419E+04</totfact>
</mgrwt>
</event>
<event>
 5    1  0.1281005E-004  0.2305639E+03  0.7546771E-02  0.1126244E+00
         21   -1    0    0  501  502  0.00000000000E+00  0.00000000000E+00  0.53975297179E+03  0.53975297179E+03  0.00000000000E+00 0. -1.
         21   -1    0    0  502  503 -0.00000000000E+00 -0.00000000000E+00 -0.10993735544E+03  0.10993735544E+03  0.00000000000E+00 0. -1.
         24    1    1    2    0    0 -0.53108713641E+02 -0.87055727494E+02  0.35374649143E+02  0.13460244021E+03  0.80419002446E+02 0. -1.
          1    1    1    2  501    0  0.10659542438E+03  0.18851338534E+03  0.25852596596E+03  0.33724702523E+03  0.00000000000E+00 0. -1.
         -2    1    1    2    0  503 -0.53486710737E+02 -0.10145765785E+03  0.13591500124E+03  0.17784086179E+03  0.00000000000E+00 0.  1.
<mgrwt>
<rscale>  2 0.23056385E+03</rscale>
<asrwt>0</asrwt>
<pdfrwt beam="1">  1       21 0.83038917E-01 0.23056385E+03</pdfrwt>
<pdfrwt beam="2">  1       21 0.16913440E-01 0.23056385E+03</pdfrwt>
<totfact> 0.39046187E+04</totfact>
</mgrwt>
</event>
<event>
 5    1  0.1281005E-004  0.1840193E+03  0.7546771E-02  0.1163969E+00
         21   -1    0    0  503  502  0.00000000000E+00  0.00000000000E+00  0.36909174910E+04  0.36909174910E+04  0.00000000000E+00 0. -1.
         21   -1    0    0  501  503 -0.00000000000E+00 -0.00000000000E+00 -0.12823430947E+02  0.12823430947E+02  0.00000000000E+00 0. -1.
         24    1    1    2    0    0  0.15299985473E+01  0.13255008729E+03  0.24843287289E+04  0.24891621715E+04  0.80419002446E+02 0. -1.
          1    1    1    2  501    0  0.24028813749E+02 -0.16776700162E+03  0.76165403278E+03  0.78028201080E+03  0.00000000000E+00 0. -1.
         -2    1    1    2    0  502 -0.25558812297E+02  0.35216914335E+02  0.43211129837E+03  0.43429673971E+03  0.00000000000E+00 0.  1.
<mgrwt>
<rscale>  2 0.18401933E+03</rscale>
<asrwt>0</asrwt>
<pdfrwt beam="1">  1       21 0.56783261E+00 0.18401933E+03</pdfrwt>
<pdfrwt beam="2">  1       21 0.19728385E-02 0.18401933E+03</pdfrwt>
<totfact> 0.77004813E+02</totfact>
</mgrwt>
</event>
<event>
 5    1  0.1281005E-004  0.1075833E+03  0.7546771E-02  0.1265112E+00
         21   -1    0    0  501  502  0.00000000000E+00  0.00000000000E+00  0.14164200623E+04  0.14164200623E+04  0.00000000000E+00 0. -1.
         21   -1    0    0  502  503 -0.00000000000E+00 -0.00000000000E+00 -0.89950895819E+01  0.89950895819E+01  0.00000000000E+00 0.  1.
         24    1    1    2    0    0 -0.41486930393E+01 -0.28750888414E+02  0.74246814692E+03  0.74737540124E+03  0.80419002446E+02 0. -1.
          1    1    1    2  501    0  0.57801864108E+02  0.45383814380E+02  0.44478465909E+03  0.45081497209E+03  0.00000000000E+00 0. -1.
         -2    1    1    2    0  503 -0.53653171068E+02 -0.16632925966E+02  0.22017216671E+03  0.22722477855E+03  0.00000000000E+00 0.  1.
<mgrwt>
<rscale>  2 0.10758330E+03</rscale>
<asrwt>0</asrwt>
<pdfrwt beam="1">  1       21 0.21791060E+00 0.10758330E+03</pdfrwt>
<pdfrwt beam="2">  1       21 0.13838611E-02 0.10758330E+03</pdfrwt>
<totfact> 0.24291355E+05</totfact>
</mgrwt>
</event>
<event>
 5    1  0.1281005E-004  0.1935770E+03  0.7546771E-02  0.1155274E+00
         21   -1    0    0  501  502  0.00000000000E+00  0.00000000000E+00  0.15245039088E+04  0.15245039088E+04  0.00000000000E+00 0. -1.
         21   -1    0    0  502  503 -0.00000000000E+00 -0.00000000000E+00 -0.29610800566E+02  0.29610800566E+02  0.00000000000E+00 0.  1.
         24    1    1    2    0    0  0.87119331521E+02  0.10156201125E+03  0.39138034726E+03  0.42136731272E+03  0.80419002446E+02 0.  0.
          1    1    1    2  501    0 -0.13762285176E+03 -0.11436331965E+03  0.10097437857E+04  0.10254762459E+04  0.00000000000E+00 0. -1.
         -2    1    1    2    0  503  0.50503520234E+02  0.12801308406E+02  0.93768975315E+02  0.10727115076E+03  0.00000000000E+00 0.  1.
<mgrwt>
<rscale>  2 0.19357703E+03</rscale>
<asrwt>0</asrwt>
<pdfrwt beam="1">  1       21 0.23453900E+00 0.19357703E+03</pdfrwt>
<pdfrwt beam="2">  1       21 0.45555090E-02 0.19357703E+03</pdfrwt>
<totfact> 0.25839780E+04</totfact>
</mgrwt>
</event>
<event>
 5    1  0.1281005E-004  0.5598142E+03  0.7546771E-02  0.9992475E-01
         21   -1    0    0  503  502  0.00000000000E+00  0.00000000000E+00  0.15549218623E+04  0.15549218623E+04  0.00000000000E+00 0.  1.
         21   -1    0    0  501  503 -0.00000000000E+00 -0.00000000000E+00 -0.21514456490E+03  0.21514456490E+03  0.00000000000E+00 0. -1.
         24    1    1    2    0    0 -0.14795784564E+03  0.14949668836E+03  0.20572024059E+03  0.30500625774E+03  0.80419002446E+02 0. -1.
          1    1    1    2  501    0  0.29764593750E+03 -0.46105926561E+03  0.49757550550E+03  0.74077671007E+03  0.00000000000E+00 0. -1.
         -2    1    1    2    0  502 -0.14968809185E+03  0.31156257725E+03  0.63648155132E+03  0.72428345940E+03  0.00000000000E+00 0.  1.
<mgrwt>
<rscale>  2 0.55981418E+03</rscale>
<asrwt>0</asrwt>
<pdfrwt beam="1">  1       21 0.23921874E+00 0.55981418E+03</pdfrwt>
<pdfrwt beam="2">  1       21 0.33099165E-01 0.55981418E+03</pdfrwt>
<totfact> 0.52452108E+02</totfact>
</mgrwt>
</event>
<event>
 5    1  0.1281005E-004  0.1270618E+03  0.7546771E-02  0.1231882E+00
         21   -1    0    0  501  502  0.00000000000E+00  0.00000000000E+00  0.49409219853E+02  0.49409219853E+02  0.00000000000E+00 0. -1.
         21   -1    0    0  502  503 -0.00000000000E+00 -0.00000000000E+00 -0.33676015394E+03  0.33676015394E+03  0.00000000000E+00 0. -1.
         24    1    1    2    0    0 -0.22411688424E+02 -0.46244238867E+02 -0.77022021906E+02  0.12263939505E+03  0.80419002446E+02 0. -1.
          1    1    1    2  501    0  0.80217403315E+01  0.10138406599E+03 -0.13054518209E+03  0.16548450598E+03  0.00000000000E+00 0. -1.
         -2    1    1    2    0  503  0.14389948092E+02 -0.55139827118E+02 -0.79783730087E+02  0.98045472753E+02  0.00000000000E+00 0.  1.
<mgrwt>
<rscale>  2 0.12706175E+03</rscale>
<asrwt>0</asrwt>
<pdfrwt beam="1">  1       21 0.76014180E-02 0.12706175E+03</pdfrwt>
<pdfrwt beam="2">  1       21 0.51809257E-01 0.12706175E+03</pdfrwt>
<totfact> 0.46845847E+05</totfact>
</mgrwt>
</event>
<event>
 5    1  0.1281005E-004  0.2214509E+03  0.7546771E-02  0.1132806E+00
         21   -1    0    0  503  502  0.00000000000E+00  0.00000000000E+00  0.71569344280E+03  0.71569344280E+03  0.00000000000E+00 0.  1.
         21   -1    0    0  501  503 -0.00000000000E+00 -0.00000000000E+00 -0.80654262852E+02  0.80654262852E+02  0.00000000000E+00 0.  1.
         24    1    1    2    0    0  0.99176992944E+02  0.15569711857E+03  0.44201000921E+03  0.48571363256E+03  0.80419002446E+02 0.  1.
          1    1    1    2  501    0 -0.26881902282E+02  0.31181224756E+02  0.48253433689E+02  0.63429482973E+02  0.00000000000E+00 0. -1.
         -2    1    1    2    0  502 -0.72295090663E+02 -0.18687834332E+03  0.14477573705E+03  0.24720459012E+03  0.00000000000E+00 0.  1.
<mgrwt>
<rscale>  2 0.22145086E+03</rscale>
<asrwt>0</asrwt>
<pdfrwt beam="1">  1       21 0.11010668E+00 0.22145086E+03</pdfrwt>
<pdfrwt beam="2">  1       21 0.12408349E-01 0.22145086E+03</pdfrwt>
<totfact> 0.35451519E+04</totfact>
</mgrwt>
</event>
<event>
 5    1  0.1281005E-004  0.2437270E+03  0.7546771E-02  0.1117335E+00
         21   -1    0    0  501  502  0.00000000000E+00  0.00000000000E+00  0.12779953529E+04  0.12779953529E+04  0.00000000000E+00 0. -1.
         21   -1    0    0  502  503 -0.00000000000E+00 -0.00000000000E+00 -0.52493641732E+02  0.52493641732E+02  0.00000000000E+00 0.  1.
         24    1    1    2    0    0  0.33081046431E+02  0.42703578084E+00  0.10351816457E+03  0.13519528225E+03  0.80419002446E+02 0.  1.
          1    1    1    2  501    0 -0.95685881469E+02 -0.18353532783E+03  0.71993143558E+03  0.74909430408E+03  0.00000000000E+00 0. -1.
         -2    1    1    2    0  503  0.62604835038E+02  0.18310829205E+03  0.40205211098E+03  0.44619940826E+03  0.00000000000E+00 0.  1.
<mgrwt>
<rscale>  2 0.24372696E+03</rscale>
<asrwt>0</asrwt>
<pdfrwt beam="1">  1       21 0.19661465E+00 0.24372696E+03</pdfrwt>
<pdfrwt beam="2">  1       21 0.80759459E-02 0.24372696E+03</pdfrwt>
<totfact> 0.16071055E+04</totfact>
</mgrwt>
</event>
<event>
 5    1  0.1281005E-004  0.1129421E+03  0.7546771E-02  0.1255217E+00
         21   -1    0    0  503  502  0.00000000000E+00  0.00000000000E+00  0.39683723039E+02  0.39683723039E+02  0.00000000000E+00 0.  1.
         21   -1    0    0  501  503 -0.00000000000E+00 -0.00000000000E+00 -0.32812477436E+03  0.32812477436E+03  0.00000000000E+00 0. -1.
         24    1    1    2    0    0 -0.17140823414E+02  0.12628922951E+02 -0.11960504556E+03  0.14569104433E+03  0.80419002446E+02 0. -1.
          1    1    1    2  501    0  0.79548414034E+02 -0.10625054699E+02 -0.11125384755E+03  0.13717966524E+03  0.00000000000E+00 0. -1.
         -2    1    1    2    0  502 -0.62407590619E+02 -0.20038682516E+01 -0.57582158221E+02  0.84937787823E+02  0.00000000000E+00 0.  1.
<mgrwt>
<rscale>  2 0.11294212E+03</rscale>
<asrwt>0</asrwt>
<pdfrwt beam="1">  1       21 0.61051884E-02 0.11294212E+03</pdfrwt>
<pdfrwt beam="2">  1       21 0.50480733E-01 0.11294212E+03</pdfrwt>
<totfact> 0.71878823E+05</totfact>
</mgrwt>
</event>
<event>
 5    1  0.1281005E-004  0.1010123E+03  0.7546771E-02  0.1278182E+00
         21   -1    0    0  501  502  0.00000000000E+00  0.00000000000E+00  0.52116570260E+03  0.52116570260E+03  0.00000000000E+00 0. -1.
         21   -1    0    0  502  503 -0.00000000000E+00 -0.00000000000E+00 -0.19852439866E+02  0.19852439866E+02  0.00000000000E+00 0.  1.
         24    1    1    2    0    0 -0.10677643205E+02  0.18286864325E+01  0.21504689502E+03  0.22984720832E+03  0.80419002446E+02 0.  0.
          1    1    1    2  501    0 -0.28780760161E+02  0.48821372964E+02  0.11356584079E+03  0.12692146709E+03  0.00000000000E+00 0. -1.
         -2    1    1    2    0  503  0.39458403366E+02 -0.50650059396E+02  0.17270052692E+03  0.18424946706E+03  0.00000000000E+00 0.  1.
<mgrwt>
<rscale>  2 0.10101226E+03</rscale>
<asrwt>0</asrwt>
<pdfrwt beam="1">  1       21 0.80179328E-01 0.10101226E+03</pdfrwt>
<pdfrwt beam="2">  1       21 0.30542219E-02 0.10101226E+03</pdfrwt>
<totfact> 0.84514151E+05</totfact>
</mgrwt>
</event>
<event>
 5    1  0.1281005E-004  0.1287179E+03  0.7546771E-02  0.1229371E+00
         21   -1    0    0  503  502  0.00000000000E+00  0.00000000000E+00  0.15117248328E+03  0.15117248328E+03  0.00000000000E+00 0.  1.
         21   -1    0    0  501  503 -0.00000000000E+00 -0.00000000000E+00 -0.13802721631E+03  0.13802721631E+03  0.00000000000E+00 0. -1.
         24    1    1    2    0    0  0.54248977306E+02 -0.57693372845E+02  0.53128049395E+00  0.11286706793E+03  0.80419002446E+02 0. -1.
          1    1    1    2  501    0 -0.93290558518E+02  0.36771842706E+02 -0.39643935893E+02  0.10782828190E+03  0.00000000000E+00 0. -1.
         -2    1    1    2    0  502  0.39041581212E+02  0.20921530139E+02  0.52257922371E+02  0.68504349770E+02  0.00000000000E+00 0.  1.
<mgrwt>
<rscale>  2 0.12871794E+03</rscale>
<asrwt>0</asrwt>
<pdfrwt beam="1">  1       21 0.23257305E-01 0.12871794E+03</pdfrwt>
<pdfrwt beam="2">  1       21 0.21234956E-01 0.12871794E+03</pdfrwt>
<totfact> 0.36262326E+05</totfact>
</mgrwt>
</event>
<event>
 5    1  0.1281005E-004  0.1951673E+03  0.7546771E-02  0.1153882E+00
         21   -1    0    0  503  502  0.00000000000E+00  0.00000000000E+00  0.98710064605E+03  0.98710064605E+03  0.00000000000E+00 0. -1.
         21   -1    0    0  501  503 -0.00000000000E+00 -0.00000000000E+00 -0.39351272812E+02  0.39351272812E+02  0.00000000000E+00 0.  1.
         24    1    1    2    0    0 -0.24437149265E+02 -0.10518753241E+03  0.32789604760E+03  0.35446385602E+03  0.80419002446E+02 0.  1.
          1    1    1    2  501    0  0.54585654119E+02  0.17303843483E+03  0.48841304685E+03  0.52102706062E+03  0.00000000000E+00 0. -1.
         -2    1    1    2    0  502 -0.30148504854E+02 -0.67850902419E+02  0.13144027879E+03  0.15096100222E+03  0.00000000000E+00 0.  1.
<mgrwt>
<rscale>  2 0.19516729E+03</rscale>
<asrwt>0</asrwt>
<pdfrwt beam="1">  1       21 0.15186162E+00 0.19516729E+03</pdfrwt>
<pdfrwt beam="2">  1       21 0.60540427E-02 0.19516729E+03</pdfrwt>
<totfact> 0.56104501E+04</totfact>
</mgrwt>
</event>
<event>
 5    1  0.1281005E-004  0.1075722E+03  0.7546771E-02  0.1265133E+00
         21   -1    0    0  503  502  0.00000000000E+00  0.00000000000E+00  0.10225546783E+04  0.10225546783E+04  0.00000000000E+00 0. -1.
         21   -1    0    0  501  503 -0.00000000000E+00 -0.00000000000E+00 -0.11477692015E+02  0.11477692015E+02  0.00000000000E+00 0.  1.
         24    1    1    2    0    0 -0.56976016708E+02 -0.40642629285E+01  0.40636846555E+03  0.41816902140E+03  0.80419002446E+02 0.  0.
          1    1    1    2  501    0  0.64398433540E+02  0.42630092152E+02  0.41675963431E+03  0.42385501742E+03  0.00000000000E+00 0. -1.
         -2    1    1    2    0  502 -0.74224168316E+01 -0.38565829224E+02  0.18794888641E+03  0.19200833148E+03  0.00000000000E+00 0.  1.
<mgrwt>
<rscale>  2 0.10757221E+03</rscale>
<asrwt>0</asrwt>
<pdfrwt beam="1">  1       21 0.15731603E+00 0.10757221E+03</pdfrwt>
<pdfrwt beam="2">  1       21 0.17657996E-02 0.10757221E+03</pdfrwt>
<totfact> 0.40781299E+05</totfact>
</mgrwt>
</event>
<event>
 5    1  0.1281005E-004  0.1499563E+03  0.7546771E-02  0.1200527E+00
         21   -1    0    0  503  502  0.00000000000E+00  0.00000000000E+00  0.17821848657E+02  0.17821848657E+02  0.00000000000E+00 0. -1.
         21   -1    0    0  501  503 -0.00000000000E+00 -0.00000000000E+00 -0.12838476902E+04  0.12838476902E+04  0.00000000000E+00 0. -1.
         24    1    1    2    0    0 -0.43659862532E+02  0.39113015854E+02 -0.42198200769E+03  0.43355742685E+03  0.80419002446E+02 0. -1.
          1    1    1    2  501    0  0.25463667173E+02 -0.11734570164E+03 -0.57153837193E+03  0.58401585820E+03  0.00000000000E+00 0. -1.
         -2    1    1    2    0  502  0.18196195359E+02  0.78232685790E+02 -0.27250546194E+03  0.28409625383E+03  0.00000000000E+00 0.  1.
<mgrwt>
<rscale>  2 0.14995630E+03</rscale>
<asrwt>0</asrwt>
<pdfrwt beam="1">  1       21 0.27418224E-02 0.14995630E+03</pdfrwt>
<pdfrwt beam="2">  1       21 0.19751506E+00 0.14995630E+03</pdfrwt>
<totfact> 0.10487593E+05</totfact>
</mgrwt>
</event>
<event>
 5    1  0.1281005E-004  0.1385045E+03  0.7546771E-02  0.1215356E+00
         21   -1    0    0  503  502  0.00000000000E+00  0.00000000000E+00  0.44023487655E+02  0.44023487655E+02  0.00000000000E+00 0. -1.
         21   -1    0    0  501  503 -0.00000000000E+00 -0.00000000000E+00 -0.76174389948E+03  0.76174389948E+03  0.00000000000E+00 0.  1.
         24    1    1    2    0    0  0.33412425730E+02  0.32843940096E+02 -0.54310101829E+03  0.55101819082E+03  0.80419002446E+02 0.  0.
          1    1    1    2  501    0  0.49782710271E+02  0.47118131752E+02 -0.81337521111E+02  0.10636836429E+03  0.00000000000E+00 0. -1.
         -2    1    1    2    0  502 -0.83195136001E+02 -0.79962071848E+02 -0.93281872423E+02  0.14838083202E+03  0.00000000000E+00 0.  1.
<mgrwt>
<rscale>  2 0.13850450E+03</rscale>
<asrwt>0</asrwt>
<pdfrwt beam="1">  1       21 0.67728445E-02 0.13850450E+03</pdfrwt>
<pdfrwt beam="2">  1       21 0.11719136E+00 0.13850450E+03</pdfrwt>
<totfact> 0.91878428E+04</totfact>
</mgrwt>
</event>
<event>
 5    1  0.1281005E-004  0.2208909E+03  0.7546771E-02  0.1133221E+00
         21   -1    0    0  501  502  0.00000000000E+00  0.00000000000E+00  0.21128201463E+03  0.21128201463E+03  0.00000000000E+00 0. -1.
         21   -1    0    0  502  503 -0.00000000000E+00 -0.00000000000E+00 -0.34782660751E+03  0.34782660751E+03  0.00000000000E+00 0.  1.
         24    1    1    2    0    0 -0.46440995182E+02 -0.56018152196E+02 -0.55718841907E+02  0.12192868697E+03  0.80419002446E+02 0.  0.
          1    1    1    2  501    0  0.17460512658E+03  0.95765263201E+02  0.91179888598E+02  0.21902444601E+03  0.00000000000E+00 0. -1.
         -2    1    1    2    0  503 -0.12816413140E+03 -0.39747111005E+02 -0.17200563957E+03  0.21815548917E+03  0.00000000000E+00 0.  1.
<mgrwt>
<rscale>  2 0.22089090E+03</rscale>
<asrwt>0</asrwt>
<pdfrwt beam="1">  1       21 0.32504926E-01 0.22089090E+03</pdfrwt>
<pdfrwt beam="2">  1       21 0.53511785E-01 0.22089090E+03</pdfrwt>
<totfact> 0.29650678E+04</totfact>
</mgrwt>
</event>
<event>
 5    1  0.1281005E-004  0.9610187E+02  0.7546771E-02  0.1288714E+00
         21   -1    0    0  501  502  0.00000000000E+00  0.00000000000E+00  0.18771262913E+04  0.18771262913E+04  0.00000000000E+00 0.  1.
         21   -1    0    0  502  503 -0.00000000000E+00 -0.00000000000E+00 -0.57143105110E+01  0.57143105110E+01  0.00000000000E+00 0. -1.
         24    1    1    2    0    0 -0.23913323001E+02 -0.18108041524E+01  0.53035299827E+03  0.53695124989E+03  0.80419002446E+02 0. -1.
          1    1    1    2  501    0 -0.32311297943E+01  0.51533955365E+02  0.85138829393E+03  0.85295264569E+03  0.00000000000E+00 0. -1.
         -2    1    1    2    0  503  0.27144452796E+02 -0.49723151213E+02  0.48967068860E+03  0.49293670624E+03  0.00000000000E+00 0.  1.
<mgrwt>
<rscale>  2 0.96101865E+02</rscale>
<asrwt>0</asrwt>
<pdfrwt beam="1">  1       21 0.28878817E+00 0.96101865E+02</pdfrwt>
<pdfrwt beam="2">  1       21 0.87912619E-03 0.96101865E+02</pdfrwt>
<totfact> 0.19886075E+05</totfact>
</mgrwt>
</event>
<event>
 5    1  0.1281005E-004  0.1328539E+03  0.7546771E-02  0.1223282E+00
         21   -1    0    0  503  502  0.00000000000E+00  0.00000000000E+00  0.77732462017E+03  0.77732462017E+03  0.00000000000E+00 0.  1.
         21   -1    0    0  501  503 -0.00000000000E+00 -0.00000000000E+00 -0.22826217124E+02  0.22826217124E+02  0.00000000000E+00 0. -1.
         24    1    1    2    0    0 -0.75864205976E+02 -0.62305843204E+02  0.33757624901E+03  0.36064156125E+03  0.80419002446E+02 0. -1.
          1    1    1    2  501    0 -0.16476340645E+02 -0.11914213667E+02  0.71543832964E+02  0.74377001308E+02  0.00000000000E+00 0. -1.
         -2    1    1    2    0  502  0.92340546621E+02  0.74220056870E+02  0.34537832107E+03  0.36513227474E+03  0.00000000000E+00 0.  1.
<mgrwt>
<rscale>  2 0.13285385E+03</rscale>
<asrwt>0</asrwt>
<pdfrwt beam="1">  1       21 0.11958838E+00 0.13285385E+03</pdfrwt>
<pdfrwt beam="2">  1       21 0.35117263E-02 0.13285385E+03</pdfrwt>
<totfact> 0.26424236E+05</totfact>
</mgrwt>
</event>
<event>
 5    1  0.1281005E-004  0.1786324E+03  0.7546771E-02  0.1169133E+00
         21   -1    0    0  501  502  0.00000000000E+00  0.00000000000E+00  0.79940165647E+03  0.79940165647E+03  0.00000000000E+00 0.  1.
         21   -1    0    0  502  503 -0.00000000000E+00 -0.00000000000E+00 -0.40906038478E+02  0.40906038478E+02  0.00000000000E+00 0. -1.
         24    1    1    2    0    0  0.28304911310E+01  0.50649312081E+02  0.17605204856E+03  0.20008724160E+03  0.80419002446E+02 0. -1.
          1    1    1    2  501    0  0.12068331479E+03  0.16155903806E+02  0.32344447331E+03  0.34560353443E+03  0.00000000000E+00 0. -1.
         -2    1    1    2    0  503 -0.12351380592E+03 -0.66805215887E+02  0.25899909611E+03  0.29461691891E+03  0.00000000000E+00 0.  1.
<mgrwt>
<rscale>  2 0.17863240E+03</rscale>
<asrwt>0</asrwt>
<pdfrwt beam="1">  1       21 0.12298486E+00 0.17863240E+03</pdfrwt>
<pdfrwt beam="2">  1       21 0.62932373E-02 0.17863240E+03</pdfrwt>
<totfact> 0.90834567E+04</totfact>
</mgrwt>
</event>
<event>
 5    1  0.1281005E-004  0.8947524E+02  0.7546771E-02  0.1304127E+00
         21   -1    0    0  503  502  0.00000000000E+00  0.00000000000E+00  0.12698346659E+02  0.12698346659E+02  0.00000000000E+00 0. -1.
         21   -1    0    0  501  503 -0.00000000000E+00 -0.00000000000E+00 -0.63363553810E+03  0.63363553810E+03  0.00000000000E+00 0.  1.
         24    1    1    2    0    0  0.41288223251E+02 -0.13230568795E+01 -0.33608579354E+03  0.34803353923E+03  0.80419002446E+02 0.  1.
          1    1    1    2  501    0  0.22257282634E+02  0.10011605597E+02 -0.75897516742E+02  0.79724851360E+02  0.00000000000E+00 0. -1.
         -2    1    1    2    0  502 -0.63545505885E+02 -0.86885487177E+01 -0.20895388117E+03  0.21857549417E+03  0.00000000000E+00 0.  1.
<mgrwt>
<rscale>  2 0.89475239E+02</rscale>
<asrwt>0</asrwt>
<pdfrwt beam="1">  1       21 0.19535919E-02 0.89475239E+02</pdfrwt>
<pdfrwt beam="2">  1       21 0.97482384E-01 0.89475239E+02</pdfrwt>
<totfact> 0.11177260E+06</totfact>
</mgrwt>
</event>
<event>
 5    1  0.1281005E-004  0.1501943E+03  0.7546771E-02  0.1200234E+00
         21   -1    0    0  501  502  0.00000000000E+00  0.00000000000E+00  0.93319539324E+02  0.93319539324E+02  0.00000000000E+00 0.  1.
         21   -1    0    0  502  503 -0.00000000000E+00 -0.00000000000E+00 -0.25327637405E+03  0.25327637405E+03  0.00000000000E+00 0. -1.
         24    1    1    2    0    0 -0.39308162929E+02  0.38832621870E+02 -0.25552972722E+02  0.10086265197E+03  0.80419002446E+02 0.  0.
          1    1    1    2  501    0 -0.23160124366E+02  0.71977178853E+02 -0.30675534926E+02  0.81597145044E+02  0.00000000000E+00 0. -1.
         -2    1    1    2    0  503  0.62468287295E+02 -0.11080980072E+03 -0.10372832708E+03  0.16413611636E+03  0.00000000000E+00 0.  1.
<mgrwt>
<rscale>  2 0.15019431E+03</rscale>
<asrwt>0</asrwt>
<pdfrwt beam="1">  1       21 0.14356852E-01 0.15019431E+03</pdfrwt>
<pdfrwt beam="2">  1       21 0.38965596E-01 0.15019431E+03</pdfrwt>
<totfact> 0.27251174E+05</totfact>
</mgrwt>
</event>
<event>
 5    1  0.1281005E-004  0.2652955E+03  0.7546771E-02  0.1104003E+00
         21   -1    0    0  503  502  0.00000000000E+00  0.00000000000E+00  0.48655215668E+02  0.48655215668E+02  0.00000000000E+00 0. -1.
         21   -1    0    0  501  503 -0.00000000000E+00 -0.00000000000E+00 -0.14856980301E+04  0.14856980301E+04  0.00000000000E+00 0.  1.
         24    1    1    2    0    0 -0.13481062631E+03  0.45984044211E+02 -0.33620224120E+03  0.37388179981E+03  0.80419002446E+02 0.  1.
          1    1    1    2  501    0  0.24591541735E+03  0.21777485227E+01 -0.71980176541E+03  0.76065347996E+03  0.00000000000E+00 0. -1.
         -2    1    1    2    0  502 -0.11110479104E+03 -0.48161792734E+02 -0.38103880778E+03  0.39981796597E+03  0.00000000000E+00 0.  1.
<mgrwt>
<rscale>  2 0.26529546E+03</rscale>
<asrwt>0</asrwt>
<pdfrwt beam="1">  1       21 0.74854189E-02 0.26529546E+03</pdfrwt>
<pdfrwt beam="2">  1       21 0.22856889E+00 0.26529546E+03</pdfrwt>
<totfact> 0.11362945E+04</totfact>
</mgrwt>
</event>
<event>
 5    1  0.1281005E-004  0.2785102E+03  0.7546771E-02  0.1096505E+00
         21   -1    0    0  503  502  0.00000000000E+00  0.00000000000E+00  0.51248718407E+03  0.51248718407E+03  0.00000000000E+00 0.  1.
         21   -1    0    0  501  503 -0.00000000000E+00 -0.00000000000E+00 -0.18819240682E+03  0.18819240682E+03  0.00000000000E+00 0. -1.
         24    1    1    2    0    0 -0.58709050141E+02 -0.63142235351E+01  0.20519992446E+03  0.22816846175E+03  0.80419002446E+02 0.  1.
          1    1    1    2  501    0 -0.17134495322E+03  0.11135623461E+03  0.52159678887E+02  0.21090266969E+03  0.00000000000E+00 0. -1.
         -2    1    1    2    0  502  0.23005400336E+03 -0.10504201108E+03  0.66935173910E+02  0.26160845945E+03  0.00000000000E+00 0.  1.
<mgrwt>
<rscale>  2 0.27851018E+03</rscale>
<asrwt>0</asrwt>
<pdfrwt beam="1">  1       21 0.78844182E-01 0.27851018E+03</pdfrwt>
<pdfrwt beam="2">  1       21 0.28952678E-01 0.27851018E+03</pdfrwt>
<totfact> 0.15485126E+04</totfact>
</mgrwt>
</event>
<event>
 5    1  0.1281005E-004  0.1967876E+03  0.7546771E-02  0.1152478E+00
         21   -1    0    0  503  502  0.00000000000E+00  0.00000000000E+00  0.46691494187E+03  0.46691494187E+03  0.00000000000E+00 0. -1.
         21   -1    0    0  501  503 -0.00000000000E+00 -0.00000000000E+00 -0.83039682417E+02  0.83039682417E+02  0.00000000000E+00 0.  1.
         24    1    1    2    0    0  0.23278910884E+02 -0.14195265945E+03  0.15282427451E+03  0.22475528926E+03  0.80419002446E+02 0.  0.
          1    1    1    2  501    0  0.40193875908E+02  0.15822279146E+03  0.16852711338E+03  0.23463032060E+03  0.00000000000E+00 0. -1.
         -2    1    1    2    0  502 -0.63472786792E+02 -0.16270132012E+02  0.62523871557E+02  0.90569014422E+02  0.00000000000E+00 0.  1.
<mgrwt>
<rscale>  2 0.19678756E+03</rscale>
<asrwt>0</asrwt>
<pdfrwt beam="1">  1       21 0.71833067E-01 0.19678756E+03</pdfrwt>
<pdfrwt beam="2">  1       21 0.12775336E-01 0.19678756E+03</pdfrwt>
<totfact> 0.91630539E+04</totfact>
</mgrwt>
</event>
<event>
 5    1  0.1281005E-004  0.1996276E+03  0.7546771E-02  0.1150054E+00
         21   -1    0    0  501  502  0.00000000000E+00  0.00000000000E+00  0.60203319906E+03  0.60203319906E+03  0.00000000000E+00 0. -1.
         21   -1    0    0  502  503 -0.00000000000E+00 -0.00000000000E+00 -0.67676026695E+02  0.67676026695E+02  0.00000000000E+00 0.  1.
         24    1    1    2    0    0  0.57265723709E+02  0.53321281197E+02  0.10828622372E+03  0.15593474386E+03  0.80419002446E+02 0.  0.
          1    1    1    2  501    0 -0.12902939314E+03 -0.12921112830E+03  0.27568329120E+03  0.33067412511E+03  0.00000000000E+00 0. -1.
         -2    1    1    2    0  503  0.71763669434E+02  0.75889847101E+02  0.15038765744E+03  0.18310035678E+03  0.00000000000E+00 0.  1.
<mgrwt>
<rscale>  2 0.19962762E+03</rscale>
<asrwt>0</asrwt>
<pdfrwt beam="1">  1       21 0.92620489E-01 0.19962762E+03</pdfrwt>
<pdfrwt beam="2">  1       21 0.10411697E-01 0.19962762E+03</pdfrwt>
<totfact> 0.74022122E+04</totfact>
</mgrwt>
</event>
<event>
 5    1  0.1281005E-004  0.1487486E+03  0.7546771E-02  0.1202019E+00
         21   -1    0    0  501  502  0.00000000000E+00  0.00000000000E+00  0.71061049794E+03  0.71061049794E+03  0.00000000000E+00 0. -1.
         21   -1    0    0  502  503 -0.00000000000E+00 -0.00000000000E+00 -0.33701287910E+02  0.33701287910E+02  0.00000000000E+00 0. -1.
         24    1    1    2    0    0  0.55242811756E+02 -0.23597718816E+02  0.30155889483E+03  0.31782637334E+03  0.80419002446E+02 0. -1.
          1    1    1    2  501    0 -0.83170509919E+02  0.91527894848E+02  0.18572842193E+03  0.22313613775E+03  0.00000000000E+00 0. -1.
         -2    1    1    2    0  503  0.27927698163E+02 -0.67930176032E+02  0.18962189328E+03  0.20334927477E+03  0.00000000000E+00 0.  1.
<mgrwt>
<rscale>  2 0.14874859E+03</rscale>
<asrwt>0</asrwt>
<pdfrwt beam="1">  1       21 0.10932468E+00 0.14874859E+03</pdfrwt>
<pdfrwt beam="2">  1       21 0.51848141E-02 0.14874859E+03</pdfrwt>
<totfact> 0.17032374E+05</totfact>
</mgrwt>
</event>
<event>
 5    1  0.1281005E-004  0.3354182E+03  0.7546771E-02  0.1068764E+00
         21   -1    0    0  503  502  0.00000000000E+00  0.00000000000E+00  0.37229904524E+02  0.37229904524E+02  0.00000000000E+00 0. -1.
         21   -1    0    0  501  503 -0.00000000000E+00 -0.00000000000E+00 -0.30838485667E+04  0.30838485667E+04  0.00000000000E+00 0.  1.
         24    1    1    2    0    0 -0.92065991443E+01 -0.20144797352E+03 -0.10459600495E+04  0.10682535695E+04  0.80419002446E+02 0.  1.
          1    1    1    2  501    0 -0.37400866388E+02  0.32216698161E+03 -0.15697534334E+04  0.16029086781E+04  0.00000000000E+00 0. -1.
         -2    1    1    2    0  502  0.46607465532E+02 -0.12071900809E+03 -0.43090517925E+03  0.44991622360E+03  0.00000000000E+00 0.  1.
<mgrwt>
<rscale>  2 0.33541821E+03</rscale>
<asrwt>0</asrwt>
<pdfrwt beam="1">  1       21 0.57276759E-02 0.33541821E+03</pdfrwt>
<pdfrwt beam="2">  1       21 0.47443838E+00 0.33541821E+03</pdfrwt>
<totfact> 0.51074446E+02</totfact>
</mgrwt>
</event>
<event>
 5    1  0.1281005E-004  0.1500676E+03  0.7546771E-02  0.1200390E+00
         21   -1    0    0  501  502  0.00000000000E+00  0.00000000000E+00  0.71775087593E+02  0.71775087593E+02  0.00000000000E+00 0.  1.
         21   -1    0    0  502  503 -0.00000000000E+00 -0.00000000000E+00 -0.32115911307E+03  0.32115911307E+03  0.00000000000E+00 0. -1.
         24    1    1    2    0    0  0.69184655504E+01 -0.29182242595E+02 -0.62924311713E+02  0.10642440231E+03  0.80419002446E+02 0.  0.
          1    1    1    2  501    0  0.81224021961E+02 -0.50368144721E+02 -0.59006871474E+02  0.11232142550E+03  0.00000000000E+00 0. -1.
         -2    1    1    2    0  503 -0.88142487512E+02  0.79550387315E+02 -0.12745284229E+03  0.17418837284E+03  0.00000000000E+00 0.  1.
<mgrwt>
<rscale>  2 0.15006760E+03</rscale>
<asrwt>0</asrwt>
<pdfrwt beam="1">  1       21 0.11042321E-01 0.15006760E+03</pdfrwt>
<pdfrwt beam="2">  1       21 0.49409094E-01 0.15006760E+03</pdfrwt>
<totfact> 0.26865756E+05</totfact>
</mgrwt>
</event>
<event>
 5    1  0.1281005E-004  0.7786169E+02  0.7546771E-02  0.1335232E+00
         21   -1    0    0  501  502  0.00000000000E+00  0.00000000000E+00  0.23459411777E+03  0.23459411777E+03  0.00000000000E+00 0. -1.
         21   -1    0    0  502  503 -0.00000000000E+00 -0.00000000000E+00 -0.26229459891E+02  0.26229459891E+02  0.00000000000E+00 0.  1.
         24    1    1    2    0    0  0.50756572680E+01  0.12315574536E+02  0.11896349738E+03  0.14421152983E+03  0.80419002446E+02 0. -1.
          1    1    1    2  501    0 -0.33222133866E+01 -0.43173402290E+02  0.59671115684E+02  0.73726669625E+02  0.00000000000E+00 0. -1.
         -2    1    1    2    0  503 -0.17534438813E+01  0.30857827754E+02  0.29730044817E+02  0.42885378207E+02  0.00000000000E+00 0.  1.
<mgrwt>
<rscale>  2 0.77861687E+02</rscale>
<asrwt>0</asrwt>
<pdfrwt beam="1">  1       21 0.36091401E-01 0.77861687E+02</pdfrwt>
<pdfrwt beam="2">  1       21 0.40353017E-02 0.77861687E+02</pdfrwt>
<totfact> 0.27752999E+06</totfact>
</mgrwt>
</event>
<event>
 5    1  0.1281005E-004  0.1289967E+03  0.7546771E-02  0.1228952E+00
         21   -1    0    0  501  502  0.00000000000E+00  0.00000000000E+00  0.57521572632E+03  0.57521572632E+03  0.00000000000E+00 0.  1.
         21   -1    0    0  502  503 -0.00000000000E+00 -0.00000000000E+00 -0.31624038535E+02  0.31624038535E+02  0.00000000000E+00 0. -1.
         24    1    1    2    0    0 -0.27401959499E+02 -0.41051668140E+01  0.18811718341E+03  0.20645340982E+03  0.80419002446E+02 0. -1.
          1    1    1    2  501    0 -0.39128412368E+02 -0.65721674018E+02  0.91004576919E+02  0.11887894730E+03  0.00000000000E+00 0. -1.
         -2    1    1    2    0  503  0.66530371867E+02  0.69826840832E+02  0.26446992745E+03  0.28150740773E+03  0.00000000000E+00 0.  1.
<mgrwt>
<rscale>  2 0.12899671E+03</rscale>
<asrwt>0</asrwt>
<pdfrwt beam="1">  1       21 0.88494720E-01 0.12899671E+03</pdfrwt>
<pdfrwt beam="2">  1       21 0.48652371E-02 0.12899671E+03</pdfrwt>
<totfact> 0.31251422E+05</totfact>
</mgrwt>
</event>
<event>
 5    1  0.1281005E-004  0.1775190E+03  0.7546771E-02  0.1170226E+00
         21   -1    0    0  503  502  0.00000000000E+00  0.00000000000E+00  0.34237972891E+03  0.34237972891E+03  0.00000000000E+00 0. -1.
         21   -1    0    0  501  503 -0.00000000000E+00 -0.00000000000E+00 -0.95754349624E+02  0.95754349624E+02  0.00000000000E+00 0.  1.
         24    1    1    2    0    0 -0.10369774560E+03 -0.48688891019E+02  0.95805760845E+02  0.16961659800E+03  0.80419002446E+02 0.  1.
          1    1    1    2  501    0  0.15085745827E+03  0.66227520256E+02  0.84175059367E+02  0.18501215574E+03  0.00000000000E+00 0. -1.
         -2    1    1    2    0  502 -0.47159712668E+02 -0.17538629237E+02  0.66644559073E+02  0.83505324791E+02  0.00000000000E+00 0.  1.
<mgrwt>
<rscale>  2 0.17751899E+03</rscale>
<asrwt>0</asrwt>
<pdfrwt beam="1">  1       21 0.52673804E-01 0.17751899E+03</pdfrwt>
<pdfrwt beam="2">  1       21 0.14731439E-01 0.17751899E+03</pdfrwt>
<totfact> 0.13922275E+05</totfact>
</mgrwt>
</event>
<event>
 5    1  0.1281005E-004  0.1669152E+03  0.7546771E-02  0.1181104E+00
         21   -1    0    0  503  502  0.00000000000E+00  0.00000000000E+00  0.68151567341E+02  0.68151567341E+02  0.00000000000E+00 0. -1.
         21   -1    0    0  501  503 -0.00000000000E+00 -0.00000000000E+00 -0.42959088891E+03  0.42959088891E+03  0.00000000000E+00 0.  1.
         24    1    1    2    0    0 -0.17580565109E+02 -0.92093236345E+02 -0.89916377638E+02  0.15278223513E+03  0.80419002446E+02 0. -1.
          1    1    1    2  501    0  0.29505775988E+02 -0.55169739821E+02 -0.10602934476E+03  0.12311179049E+03  0.00000000000E+00 0. -1.
         -2    1    1    2    0  502 -0.11925210879E+02  0.14726297617E+03 -0.16549359917E+03  0.22184843063E+03  0.00000000000E+00 0.  1.
<mgrwt>
<rscale>  2 0.16691520E+03</rscale>
<asrwt>0</asrwt>
<pdfrwt beam="1">  1       21 0.10484857E-01 0.16691520E+03</pdfrwt>
<pdfrwt beam="2">  1       21 0.66090905E-01 0.16691520E+03</pdfrwt>
<totfact> 0.15820972E+05</totfact>
</mgrwt>
</event>
<event>
 5    1  0.1281005E-004  0.1104549E+03  0.7546771E-02  0.1259730E+00
         21   -1    0    0  501  502  0.00000000000E+00  0.00000000000E+00  0.18355276435E+03  0.18355276435E+03  0.00000000000E+00 0.  1.
         21   -1    0    0  502  503 -0.00000000000E+00 -0.00000000000E+00 -0.67225269101E+02  0.67225269101E+02  0.00000000000E+00 0.  1.
         24    1    1    2    0    0 -0.58418166438E+02  0.23904282993E+02  0.52777621853E+02  0.11505125049E+03  0.80419002446E+02 0.  1.
          1    1    1    2  501    0 -0.28459221529E+02  0.41111637796E+00  0.72011460630E+01  0.29359032875E+02  0.00000000000E+00 0. -1.
         -2    1    1    2    0  503  0.86877387968E+02 -0.24315399371E+02  0.56348727329E+02  0.10636775009E+03  0.00000000000E+00 0.  1.
<mgrwt>
<rscale>  2 0.11045491E+03</rscale>
<asrwt>0</asrwt>
<pdfrwt beam="1">  1       21 0.28238887E-01 0.11045491E+03</pdfrwt>
<pdfrwt beam="2">  1       21 0.10342349E-01 0.11045491E+03</pdfrwt>
<totfact> 0.91704161E+05</totfact>
</mgrwt>
</event>
<event>
 5    1  0.1281005E-004  0.1239798E+03  0.7546771E-02  0.1236672E+00
         21   -1    0    0  501  502  0.00000000000E+00  0.00000000000E+00  0.11494994584E+03  0.11494994584E+03  0.00000000000E+00 0. -1.
         21   -1    0    0  502  503 -0.00000000000E+00 -0.00000000000E+00 -0.13751241149E+03  0.13751241149E+03  0.00000000000E+00 0. -1.
         24    1    1    2    0    0 -0.10035756744E+02 -0.72576481649E+02 -0.30306811282E+02  0.11293263862E+03  0.80419002446E+02 0.  1.
          1    1    1    2  501    0  0.30919839911E+02 -0.24763754707E+02  0.50819445681E+01  0.39938780751E+02  0.00000000000E+00 0. -1.
         -2    1    1    2    0  503 -0.20884083167E+02  0.97340236357E+02  0.26624010599E+01  0.99590937957E+02  0.00000000000E+00 0.  1.
<mgrwt>
<rscale>  2 0.12397977E+03</rscale>
<asrwt>0</asrwt>
<pdfrwt beam="1">  1       21 0.17684607E-01 0.12397977E+03</pdfrwt>
<pdfrwt beam="2">  1       21 0.21155756E-01 0.12397977E+03</pdfrwt>
<totfact> 0.60640557E+05</totfact>
</mgrwt>
</event>
<event>
 5    1  0.1281005E-004  0.2519739E+03  0.7546771E-02  0.1112064E+00
         21   -1    0    0  501  502  0.00000000000E+00  0.00000000000E+00  0.62086881248E+03  0.62086881248E+03  0.00000000000E+00 0.  1.
         21   -1    0    0  502  503 -0.00000000000E+00 -0.00000000000E+00 -0.10339790281E+03  0.10339790281E+03  0.00000000000E+00 0.  1.
         24    1    1    2    0    0  0.11123769223E+03 -0.10811581450E+03  0.21433233878E+03  0.27652924062E+03  0.80419002446E+02 0.  1.
          1    1    1    2  501    0 -0.44406650561E+02 -0.10065343608E+03  0.11023458663E+03  0.15573929786E+03  0.00000000000E+00 0. -1.
         -2    1    1    2    0  503 -0.66831041666E+02  0.20876925058E+03  0.19290398426E+03  0.29199817681E+03  0.00000000000E+00 0.  1.
<mgrwt>
<rscale>  2 0.25197392E+03</rscale>
<asrwt>0</asrwt>
<pdfrwt beam="1">  1       21 0.95518276E-01 0.25197392E+03</pdfrwt>
<pdfrwt beam="2">  1       21 0.15907370E-01 0.25197392E+03</pdfrwt>
<totfact> 0.31268322E+04</totfact>
</mgrwt>
</event>
<event>
 5    1  0.1281005E-004  0.1538877E+03  0.7546771E-02  0.1195776E+00
         21   -1    0    0  501  502  0.00000000000E+00  0.00000000000E+00  0.23287509250E+03  0.23287509250E+03  0.00000000000E+00 0. -1.
         21   -1    0    0  502  503 -0.00000000000E+00 -0.00000000000E+00 -0.10523141552E+03  0.10523141552E+03  0.00000000000E+00 0.  1.
         24    1    1    2    0    0 -0.55368904280E+02  0.68331104199E+02  0.54097087453E+02  0.13087614828E+03  0.80419002446E+02 0.  0.
          1    1    1    2  501    0 -0.11556285629E+02  0.50725583304E+02  0.42476529718E+02  0.67163145519E+02  0.00000000000E+00 0. -1.
         -2    1    1    2    0  503  0.66925189909E+02 -0.11905668750E+03  0.31070059809E+02  0.14006721422E+03  0.00000000000E+00 0.  1.
<mgrwt>
<rscale>  2 0.15388774E+03</rscale>
<asrwt>0</asrwt>
<pdfrwt beam="1">  1       21 0.35826937E-01 0.15388774E+03</pdfrwt>
<pdfrwt beam="2">  1       21 0.16189449E-01 0.15388774E+03</pdfrwt>
<totfact> 0.25885170E+05</totfact>
</mgrwt>
</event>
<event>
 5    1  0.1281005E-004  0.1103509E+03  0.7546771E-02  0.1259922E+00
         21   -1    0    0  503  502  0.00000000000E+00  0.00000000000E+00  0.58754061479E+03  0.58754061479E+03  0.00000000000E+00 0. -1.
         21   -1    0    0  501  503 -0.00000000000E+00 -0.00000000000E+00 -0.22818786486E+02  0.22818786486E+02  0.00000000000E+00 0.  1.
         24    1    1    2    0    0 -0.34592675528E+02 -0.40315028506E+02  0.33726439403E+03  0.35076550879E+03  0.80419002446E+02 0.  0.
          1    1    1    2  501    0  0.71979153651E+01 -0.39388779795E+02  0.87363200327E+02  0.96102105756E+02  0.00000000000E+00 0. -1.
         -2    1    1    2    0  502  0.27394760163E+02  0.79703808302E+02  0.14009423395E+03  0.16349178673E+03  0.00000000000E+00 0.  1.
<mgrwt>
<rscale>  2 0.11035085E+03</rscale>
<asrwt>0</asrwt>
<pdfrwt beam="1">  1       21 0.90390853E-01 0.11035085E+03</pdfrwt>
<pdfrwt beam="2">  1       21 0.35105830E-02 0.11035085E+03</pdfrwt>
<totfact> 0.51367983E+05</totfact>
</mgrwt>
</event>
<event>
 5    1  0.1281005E-004  0.1626868E+03  0.7546771E-02  0.1185696E+00
         21   -1    0    0  503  502  0.00000000000E+00  0.00000000000E+00  0.44430269830E+03  0.44430269830E+03  0.00000000000E+00 0. -1.
         21   -1    0    0  501  503 -0.00000000000E+00 -0.00000000000E+00 -0.60809424816E+02  0.60809424816E+02  0.00000000000E+00 0.  1.
         24    1    1    2    0    0  0.58762416944E+02 -0.85915507738E+02  0.12874732735E+03  0.18405864926E+03  0.80419002446E+02 0.  1.
          1    1    1    2  501    0  0.42311388213E+02 -0.20548123536E+02  0.80260112175E+02  0.93027762306E+02  0.00000000000E+00 0. -1.
         -2    1    1    2    0  502 -0.10107380516E+03  0.10646363127E+03  0.17448583396E+03  0.22802571155E+03  0.00000000000E+00 0.  1.
<mgrwt>
<rscale>  2 0.16268679E+03</rscale>
<asrwt>0</asrwt>
<pdfrwt beam="1">  1       21 0.68354259E-01 0.16268679E+03</pdfrwt>
<pdfrwt beam="2">  1       21 0.93552964E-02 0.16268679E+03</pdfrwt>
<totfact> 0.17991925E+05</totfact>
</mgrwt>
</event>
<event>
 5    1  0.1281005E-004  0.1577233E+03  0.7546771E-02  0.1191291E+00
         21   -1    0    0  503  502  0.00000000000E+00  0.00000000000E+00  0.14387028335E+04  0.14387028335E+04  0.00000000000E+00 0.  1.
         21   -1    0    0  501  503 -0.00000000000E+00 -0.00000000000E+00 -0.18116192359E+02  0.18116192359E+02  0.00000000000E+00 0. -1.
         24    1    1    2    0    0  0.13559708881E+02  0.56017534862E+02  0.31359336078E+03  0.32883102316E+03  0.80419002446E+02 0. -1.
          1    1    1    2  501    0  0.75074131339E+02  0.40636025769E+02  0.41904770080E+03  0.42765451867E+03  0.00000000000E+00 0. -1.
         -2    1    1    2    0  502 -0.88633840220E+02 -0.96653560632E+02  0.68794557955E+03  0.70033348402E+03  0.00000000000E+00 0.  1.
<mgrwt>
<rscale>  2 0.15772329E+03</rscale>
<asrwt>0</asrwt>
<pdfrwt beam="1">  1       21 0.22133881E+00 0.15772329E+03</pdfrwt>
<pdfrwt beam="2">  1       21 0.27871077E-02 0.15772329E+03</pdfrwt>
<totfact> 0.72272220E+04</totfact>
</mgrwt>
</event>
<event>
 5    1  0.1281005E-004  0.1038918E+03  0.7546771E-02  0.1272318E+00
         21   -1    0    0  503  502  0.00000000000E+00  0.00000000000E+00  0.42163397086E+03  0.42163397086E+03  0.00000000000E+00 0.  1.
         21   -1    0    0  501  503 -0.00000000000E+00 -0.00000000000E+00 -0.40011236999E+02  0.40011236999E+02  0.00000000000E+00 0. -1.
         24    1    1    2    0    0  0.42607640666E+01 -0.42435708040E+02  0.37951003850E+02  0.98622705676E+02  0.80419002446E+02 0. -1.
          1    1    1    2  501    0 -0.20198857808E+02 -0.33525433439E+02  0.10574639700E+03  0.11275747879E+03  0.00000000000E+00 0. -1.
         -2    1    1    2    0  502  0.15938093741E+02  0.75961141479E+02  0.23792533301E+03  0.25026502339E+03  0.00000000000E+00 0.  1.
<mgrwt>
<rscale>  2 0.10389182E+03</rscale>
<asrwt>0</asrwt>
<pdfrwt beam="1">  1       21 0.64866762E-01 0.10389182E+03</pdfrwt>
<pdfrwt beam="2">  1       21 0.61555752E-02 0.10389182E+03</pdfrwt>
<totfact> 0.41918973E+05</totfact>
</mgrwt>
</event>
<event>
 5    1  0.1281005E-004  0.1393744E+03  0.7546771E-02  0.1214173E+00
         21   -1    0    0  501  502  0.00000000000E+00  0.00000000000E+00  0.40248802682E+03  0.40248802682E+03  0.00000000000E+00 0.  1.
         21   -1    0    0  502  503 -0.00000000000E+00 -0.00000000000E+00 -0.51320338415E+02  0.51320338415E+02  0.00000000000E+00 0.  1.
         24    1    1    2    0    0 -0.10214365953E+03 -0.47204564334E+01  0.10948154879E+03  0.17002657255E+03  0.80419002446E+02 0.  1.
          1    1    1    2  501    0 -0.19668664135E+02 -0.15677782847E+02  0.37775949791E+02  0.45383605040E+02  0.00000000000E+00 0. -1.
         -2    1    1    2    0  503  0.12181232366E+03  0.20398239280E+02  0.20391018982E+03  0.23839818765E+03  0.00000000000E+00 0.  1.
<mgrwt>
<rscale>  2 0.13937435E+03</rscale>
<asrwt>0</asrwt>
<pdfrwt beam="1">  1       21 0.61921233E-01 0.13937435E+03</pdfrwt>
<pdfrwt beam="2">  1       21 0.78954369E-02 0.13937435E+03</pdfrwt>
<totfact> 0.30091263E+05</totfact>
</mgrwt>
</event>
<event>
 5    1  0.1281005E-004  0.1280257E+03  0.7546771E-02  0.1230415E+00
         21   -1    0    0  501  502  0.00000000000E+00  0.00000000000E+00  0.31128195268E+03  0.31128195268E+03  0.00000000000E+00 0.  1.
         21   -1    0    0  502  503 -0.00000000000E+00 -0.00000000000E+00 -0.53059697499E+02  0.53059697499E+02  0.00000000000E+00 0. -1.
         24    1    1    2    0    0 -0.87120319887E+02  0.34854524542E+01  0.10396686283E+03  0.15772895434E+03  0.80419002446E+02 0. -1.
          1    1    1    2  501    0 -0.25694475373E+01 -0.40375461595E+02  0.46964146384E+02  0.61987184201E+02  0.00000000000E+00 0. -1.
         -2    1    1    2    0  503  0.89689767425E+02  0.36890009140E+02  0.10729124597E+03  0.14462551164E+03  0.00000000000E+00 0.  1.
<mgrwt>
<rscale>  2 0.12802566E+03</rscale>
<asrwt>0</asrwt>
<pdfrwt beam="1">  1       21 0.47889530E-01 0.12802566E+03</pdfrwt>
<pdfrwt beam="2">  1       21 0.81630306E-02 0.12802566E+03</pdfrwt>
<totfact> 0.48725130E+05</totfact>
</mgrwt>
</event>
<event>
 5    1  0.1281005E-004  0.1747091E+03  0.7546771E-02  0.1173024E+00
         21   -1    0    0  501  502  0.00000000000E+00  0.00000000000E+00  0.48962621812E+02  0.48962621812E+02  0.00000000000E+00 0. -1.
         21   -1    0    0  502  503 -0.00000000000E+00 -0.00000000000E+00 -0.66703373830E+03  0.66703373830E+03  0.00000000000E+00 0.  1.
         24    1    1    2    0    0  0.83520564475E+02  0.56135532750E+02 -0.31908966325E+03  0.34411090055E+03  0.80419002446E+02 0.  1.
          1    1    1    2  501    0  0.52848257532E+02  0.28558652565E+02 -0.70043206068E+02  0.92274512606E+02  0.00000000000E+00 0. -1.
         -2    1    1    2    0  503 -0.13636882201E+03 -0.84694185315E+02 -0.22893824716E+03  0.27961094695E+03  0.00000000000E+00 0.  1.
<mgrwt>
<rscale>  2 0.17470908E+03</rscale>
<asrwt>0</asrwt>
<pdfrwt beam="1">  1       21 0.75327115E-02 0.17470908E+03</pdfrwt>
<pdfrwt beam="2">  1       21 0.10262057E+00 0.17470908E+03</pdfrwt>
<totfact> 0.10360255E+05</totfact>
</mgrwt>
</event>
<event>
 5    1  0.1281005E-004  0.1199690E+03  0.7546771E-02  0.1243148E+00
         21   -1    0    0  503  502  0.00000000000E+00  0.00000000000E+00  0.27774582253E+03  0.27774582253E+03  0.00000000000E+00 0.  1.
         21   -1    0    0  501  503 -0.00000000000E+00 -0.00000000000E+00 -0.51987845856E+02  0.51987845856E+02  0.00000000000E+00 0. -1.
         24    1    1    2    0    0 -0.35390524748E+02  0.46389274021E+02  0.90878216126E+02  0.13464961978E+03  0.80419002446E+02 0.  0.
          1    1    1    2  501    0 -0.10675834724E+02  0.40690577633E+02  0.34095987850E+02  0.54150096423E+02  0.00000000000E+00 0. -1.
         -2    1    1    2    0  502  0.46066359472E+02 -0.87079851654E+02  0.10078377270E+03  0.14093395219E+03  0.00000000000E+00 0.  1.
<mgrwt>
<rscale>  2 0.11996902E+03</rscale>
<asrwt>0</asrwt>
<pdfrwt beam="1">  1       21 0.42730125E-01 0.11996902E+03</pdfrwt>
<pdfrwt beam="2">  1       21 0.79981303E-02 0.11996902E+03</pdfrwt>
<totfact> 0.63647910E+05</totfact>
</mgrwt>
</event>
<event>
 5    1  0.1281005E-004  0.8695437E+02  0.7546771E-02  0.1310399E+00
         21   -1    0    0  501  502  0.00000000000E+00  0.00000000000E+00  0.53152445568E+03  0.53152445568E+03  0.00000000000E+00 0. -1.
         21   -1    0    0  502  503 -0.00000000000E+00 -0.00000000000E+00 -0.15084524775E+02  0.15084524775E+02  0.00000000000E+00 0.  1.
         24    1    1    2    0    0  0.10411622673E+02  0.67232693835E+01  0.19138271048E+03  0.20796192455E+03  0.80419002446E+02 0.  1.
          1    1    1    2  501    0 -0.28726080383E+01 -0.49258479203E+02  0.13478501898E+03  0.14353275233E+03  0.00000000000E+00 0. -1.
         -2    1    1    2    0  503 -0.75390146347E+01  0.42535209819E+02  0.19027220145E+03  0.19511430358E+03  0.00000000000E+00 0.  1.
<mgrwt>
<rscale>  2 0.86954375E+02</rscale>
<asrwt>0</asrwt>
<pdfrwt beam="1">  1       21 0.81772979E-01 0.86954375E+02</pdfrwt>
<pdfrwt beam="2">  1       21 0.23206965E-02 0.86954375E+02</pdfrwt>
<totfact> 0.12600902E+06</totfact>
</mgrwt>
</event>
<event>
 5    1  0.1281005E-004  0.1145994E+03  0.7546771E-02  0.1252282E+00
         21   -1    0    0  501  502  0.00000000000E+00  0.00000000000E+00  0.22506066417E+02  0.22506066417E+02  0.00000000000E+00 0. -1.
         21   -1    0    0  502  503 -0.00000000000E+00 -0.00000000000E+00 -0.62061099577E+03  0.62061099577E+03  0.00000000000E+00 0.  1.
         24    1    1    2    0    0  0.30461492171E+02 -0.74821593971E+01 -0.24665366973E+03  0.26132189721E+03  0.80419002446E+02 0.  1.
          1    1    1    2  501    0 -0.38468829764E+02  0.69987437399E+02 -0.14026284542E+03  0.16140557011E+03  0.00000000000E+00 0. -1.
         -2    1    1    2    0  503  0.80073375927E+01 -0.62505278002E+02 -0.21118841420E+03  0.22038959487E+03  0.00000000000E+00 0.  1.
<mgrwt>
<rscale>  2 0.11459940E+03</rscale>
<asrwt>0</asrwt>
<pdfrwt beam="1">  1       21 0.34624718E-02 0.11459940E+03</pdfrwt>
<pdfrwt beam="2">  1       21 0.95478613E-01 0.11459940E+03</pdfrwt>
<totfact> 0.46322876E+05</totfact>
</mgrwt>
</event>
<event>
 5    1  0.1281005E-004  0.1689573E+03  0.7546771E-02  0.1178940E+00
         21   -1    0    0  503  502  0.00000000000E+00  0.00000000000E+00  0.45567349363E+03  0.45567349363E+03  0.00000000000E+00 0.  1.
         21   -1    0    0  501  503 -0.00000000000E+00 -0.00000000000E+00 -0.70893981691E+02  0.70893981691E+02  0.00000000000E+00 0. -1.
         24    1    1    2    0    0  0.30760144673E+01  0.10825667434E+02  0.13618251852E+03  0.15855456867E+03  0.80419002446E+02 0.  0.
          1    1    1    2  501    0 -0.49050063869E+02  0.11377635341E+03  0.18003043493E+03  0.21854501793E+03  0.00000000000E+00 0. -1.
         -2    1    1    2    0  502  0.45974049402E+02 -0.12460202084E+03  0.68566558484E+02  0.14946788872E+03  0.00000000000E+00 0.  1.
<mgrwt>
<rscale>  2 0.16895731E+03</rscale>
<asrwt>0</asrwt>
<pdfrwt beam="1">  1       21 0.70103613E-01 0.16895731E+03</pdfrwt>
<pdfrwt beam="2">  1       21 0.10906767E-01 0.16895731E+03</pdfrwt>
<totfact> 0.12961207E+05</totfact>
</mgrwt>
</event>
<event>
 5    1  0.1281005E-004  0.1778757E+03  0.7546771E-02  0.1169875E+00
         21   -1    0    0  503  502  0.00000000000E+00  0.00000000000E+00  0.71045494281E+02  0.71045494281E+02  0.00000000000E+00 0.  1.
         21   -1    0    0  501  503 -0.00000000000E+00 -0.00000000000E+00 -0.46292363798E+03  0.46292363798E+03  0.00000000000E+00 0. -1.
         24    1    1    2    0    0 -0.80831860151E+02 -0.38184924090E+02 -0.17864926606E+03  0.21534775193E+03  0.80419002446E+02 0.  0.
          1    1    1    2  501    0  0.15626350811E+03  0.17187672086E+02 -0.12654684054E+03  0.20181130516E+03  0.00000000000E+00 0. -1.
         -2    1    1    2    0  502 -0.75431647962E+02  0.20997252004E+02 -0.86682037103E+02  0.11681007517E+03  0.00000000000E+00 0.  1.
<mgrwt>
<rscale>  2 0.17787571E+03</rscale>
<asrwt>0</asrwt>
<pdfrwt beam="1">  1       21 0.10930077E-01 0.17787571E+03</pdfrwt>
<pdfrwt beam="2">  1       21 0.71219018E-01 0.17787571E+03</pdfrwt>
<totfact> 0.12429247E+05</totfact>
</mgrwt>
</event>
<event>
 5    1  0.1281005E-004  0.1274050E+03  0.7546771E-02  0.1231358E+00
         21   -1    0    0  501  502  0.00000000000E+00  0.00000000000E+00  0.23793160992E+03  0.23793160992E+03  0.00000000000E+00 0. -1.
         21   -1    0    0  502  503 -0.00000000000E+00 -0.00000000000E+00 -0.74468335995E+02  0.74468335995E+02  0.00000000000E+00 0.  1.
         24    1    1    2    0    0 -0.77832549671E+01  0.21499275656E+02  0.97927478334E+02  0.12876259115E+03  0.80419002446E+02 0. -1.
          1    1    1    2  501    0 -0.17531155270E+02  0.72121075236E+02  0.34168359342E+02  0.81708430890E+02  0.00000000000E+00 0. -1.
         -2    1    1    2    0  503  0.25314410237E+02 -0.93620350892E+02  0.31367436253E+02  0.10192892388E+03  0.00000000000E+00 0.  1.
<mgrwt>
<rscale>  2 0.12740498E+03</rscale>
<asrwt>0</asrwt>
<pdfrwt beam="1">  1       21 0.36604863E-01 0.12740498E+03</pdfrwt>
<pdfrwt beam="2">  1       21 0.11456667E-01 0.12740498E+03</pdfrwt>
<totfact> 0.46303601E+05</totfact>
</mgrwt>
</event>
<event>
 5    1  0.1281005E-004  0.2285334E+03  0.7546771E-02  0.1127676E+00
         21   -1    0    0  501  502  0.00000000000E+00  0.00000000000E+00  0.27543587320E+03  0.27543587320E+03  0.00000000000E+00 0. -1.
         21   -1    0    0  502  503 -0.00000000000E+00 -0.00000000000E+00 -0.20695523619E+03  0.20695523619E+03  0.00000000000E+00 0.  1.
         24    1    1    2    0    0  0.10607787404E+03 -0.62072475642E+02  0.34985623467E+02  0.15098581853E+03  0.80419002446E+02 0. -1.
          1    1    1    2  501    0  0.35535618435E+02 -0.93375219876E+02  0.64398498503E+02  0.11886495898E+03  0.00000000000E+00 0. -1.
         -2    1    1    2    0  503 -0.14161349247E+03  0.15544769552E+03 -0.30903484955E+02  0.21254033188E+03  0.00000000000E+00 0.  1.
<mgrwt>
<rscale>  2 0.22853336E+03</rscale>
<asrwt>0</asrwt>
<pdfrwt beam="1">  1       21 0.42374750E-01 0.22853336E+03</pdfrwt>
<pdfrwt beam="2">  1       21 0.31839267E-01 0.22853336E+03</pdfrwt>
<totfact> 0.49987392E+04</totfact>
</mgrwt>
</event>
<event>
 5    1  0.1281005E-004  0.1066158E+03  0.7546771E-02  0.1266968E+00
         21   -1    0    0  501  502  0.00000000000E+00  0.00000000000E+00  0.30473957436E+03  0.30473957436E+03  0.00000000000E+00 0.  1.
         21   -1    0    0  502  503 -0.00000000000E+00 -0.00000000000E+00 -0.39283247209E+02  0.39283247209E+02  0.00000000000E+00 0. -1.
         24    1    1    2    0    0  0.48092688568E+01 -0.20334128697E+02  0.99408294646E+02  0.12956014378E+03  0.80419002446E+02 0. -1.
          1    1    1    2  501    0 -0.65686472613E+02 -0.82818819668E+00  0.11419833368E+03  0.13174466971E+03  0.00000000000E+00 0. -1.
         -2    1    1    2    0  503  0.60877203756E+02  0.21162316894E+02  0.51849698820E+02  0.82718008083E+02  0.00000000000E+00 0.  1.
<mgrwt>
<rscale>  2 0.10661576E+03</rscale>
<asrwt>0</asrwt>
<pdfrwt beam="1">  1       21 0.46883010E-01 0.10661576E+03</pdfrwt>
<pdfrwt beam="2">  1       21 0.60435767E-02 0.10661576E+03</pdfrwt>
<totfact> 0.85039582E+05</totfact>
</mgrwt>
</event>
<event>
 5    1  0.1281005E-004  0.1088916E+03  0.7546771E-02  0.1262636E+00
         21   -1    0    0  503  502  0.00000000000E+00  0.00000000000E+00  0.85561510242E+02  0.85561510242E+02  0.00000000000E+00 0. -1.
         21   -1    0    0  501  503 -0.00000000000E+00 -0.00000000000E+00 -0.15462394461E+03  0.15462394461E+03  0.00000000000E+00 0.  1.
         24    1    1    2    0    0 -0.10128945566E+00 -0.49880482466E+02 -0.68431040638E+02  0.11678225922E+03  0.80419002446E+02 0.  0.
          1    1    1    2  501    0  0.14403797159E+02 -0.34594625427E+02 -0.38122284155E+01  0.37666836429E+02  0.00000000000E+00 0. -1.
         -2    1    1    2    0  502 -0.14302507703E+02  0.84475107893E+02  0.31808346890E+01  0.85736359203E+02  0.00000000000E+00 0.  1.
<mgrwt>
<rscale>  2 0.10889157E+03</rscale>
<asrwt>0</asrwt>
<pdfrwt beam="1">  1       21 0.13163309E-01 0.10889157E+03</pdfrwt>
<pdfrwt beam="2">  1       21 0.23788299E-01 0.10889157E+03</pdfrwt>
<totfact> 0.82908703E+05</totfact>
</mgrwt>
</event>
<event>
 5    1  0.1281005E-004  0.1089586E+03  0.7546771E-02  0.1262511E+00
         21   -1    0    0  501  502  0.00000000000E+00  0.00000000000E+00  0.28482482005E+03  0.28482482005E+03  0.00000000000E+00 0. -1.
         21   -1    0    0  502  503 -0.00000000000E+00 -0.00000000000E+00 -0.50185422389E+02  0.50185422389E+02  0.00000000000E+00 0. -1.
         24    1    1    2    0    0 -0.43305470920E+02  0.16935853483E+02  0.35367998114E+02  0.99399689083E+02  0.80419002446E+02 0. -1.
          1    1    1    2  501    0  0.26053653646E+02 -0.67096897859E+02  0.12673073167E+03  0.14574451934E+03  0.00000000000E+00 0. -1.
         -2    1    1    2    0  503  0.17251817274E+02  0.50161044376E+02  0.72540667885E+02  0.89866034013E+02  0.00000000000E+00 0.  1.
<mgrwt>
<rscale>  2 0.10895855E+03</rscale>
<asrwt>0</asrwt>
<pdfrwt beam="1">  1       21 0.43819202E-01 0.10895855E+03</pdfrwt>
<pdfrwt beam="2">  1       21 0.77208344E-02 0.10895855E+03</pdfrwt>
<totfact> 0.64296110E+05</totfact>
</mgrwt>
</event>
<event>
 5    1  0.1281005E-004  0.3082258E+03  0.7546771E-02  0.1081199E+00
         21   -1    0    0  503  502  0.00000000000E+00  0.00000000000E+00  0.98267555355E+02  0.98267555355E+02  0.00000000000E+00 0.  1.
         21   -1    0    0  501  503 -0.00000000000E+00 -0.00000000000E+00 -0.98669229961E+03  0.98669229961E+03  0.00000000000E+00 0. -1.
         24    1    1    2    0    0  0.13670020012E+03 -0.23512320229E+02 -0.22386167161E+03  0.27535620183E+03  0.80419002446E+02 0. -1.
          1    1    1    2  501    0  0.79281994347E+02  0.17512394996E+03 -0.34719354219E+03  0.39685940611E+03  0.00000000000E+00 0. -1.
         -2    1    1    2    0  502 -0.21598219446E+03 -0.15161162973E+03 -0.31736953045E+03  0.41274424703E+03  0.00000000000E+00 0.  1.
<mgrwt>
<rscale>  2 0.30822580E+03</rscale>
<asrwt>0</asrwt>
<pdfrwt beam="1">  1       21 0.15118085E-01 0.30822580E+03</pdfrwt>
<pdfrwt beam="2">  1       21 0.15179882E+00 0.30822580E+03</pdfrwt>
<totfact> 0.10444330E+04</totfact>
</mgrwt>
</event>
<event>
 5    1  0.1281005E-004  0.1988807E+03  0.7546771E-02  0.1150687E+00
         21   -1    0    0  501  502  0.00000000000E+00  0.00000000000E+00  0.12064421401E+03  0.12064421401E+03  0.00000000000E+00 0. -1.
         21   -1    0    0  502  503 -0.00000000000E+00 -0.00000000000E+00 -0.33718141394E+03  0.33718141394E+03  0.00000000000E+00 0. -1.
         24    1    1    2    0    0  0.94271829555E+02 -0.97469952714E+02 -0.12343161694E+03  0.20022524702E+03  0.80419002446E+02 0. -1.
          1    1    1    2  501    0 -0.11958013191E+03  0.14397720964E+03 -0.75289130016E+02  0.20173571311E+03  0.00000000000E+00 0. -1.
         -2    1    1    2    0  503  0.25308302357E+02 -0.46507256925E+02 -0.17816452978E+02  0.55864667828E+02  0.00000000000E+00 0.  1.
<mgrwt>
<rscale>  2 0.19888071E+03</rscale>
<asrwt>0</asrwt>
<pdfrwt beam="1">  1       21 0.18560649E-01 0.19888071E+03</pdfrwt>
<pdfrwt beam="2">  1       21 0.51874062E-01 0.19888071E+03</pdfrwt>
<totfact> 0.93349659E+04</totfact>
</mgrwt>
</event>
<event>
 5    1  0.1281005E-004  0.1399510E+03  0.7546771E-02  0.1213395E+00
         21   -1    0    0  503  502  0.00000000000E+00  0.00000000000E+00  0.24133847380E+03  0.24133847380E+03  0.00000000000E+00 0.  1.
         21   -1    0    0  501  503 -0.00000000000E+00 -0.00000000000E+00 -0.86186187161E+02  0.86186187161E+02  0.00000000000E+00 0.  1.
         24    1    1    2    0    0 -0.78115987129E+02  0.39689248957E+02  0.30226935118E+02  0.12271196962E+03  0.80419002446E+02 0.  1.
          1    1    1    2  501    0 -0.26718641039E+02  0.25979635863E+02  0.18392916542E+02  0.41558713136E+02  0.00000000000E+00 0. -1.
         -2    1    1    2    0  502  0.10483462817E+03 -0.65668884820E+02  0.10653243498E+03  0.16325397821E+03  0.00000000000E+00 0.  1.
<mgrwt>
<rscale>  2 0.13995098E+03</rscale>
<asrwt>0</asrwt>
<pdfrwt beam="1">  1       21 0.37128996E-01 0.13995098E+03</pdfrwt>
<pdfrwt beam="2">  1       21 0.13259414E-01 0.13995098E+03</pdfrwt>
<totfact> 0.34669519E+05</totfact>
</mgrwt>
</event>
<event>
 5    1  0.1281005E-004  0.1378197E+03  0.7546771E-02  0.1216293E+00
         21   -1    0    0  503  502  0.00000000000E+00  0.00000000000E+00  0.73932580799E+02  0.73932580799E+02  0.00000000000E+00 0.  1.
         21   -1    0    0  501  503 -0.00000000000E+00 -0.00000000000E+00 -0.30738315693E+03  0.30738315693E+03  0.00000000000E+00 0.  1.
         24    1    1    2    0    0 -0.72468768366E+02  0.36406383265E+02 -0.30877210168E+02  0.11831215150E+03  0.80419002446E+02 0.  1.
          1    1    1    2  501    0 -0.34353614124E+02  0.20892525563E+02 -0.22927868548E+02  0.46285587216E+02  0.00000000000E+00 0. -1.
         -2    1    1    2    0  502  0.10682238249E+03 -0.57298908828E+02 -0.17964549741E+03  0.21671799901E+03  0.00000000000E+00 0.  1.
<mgrwt>
<rscale>  2 0.13781966E+03</rscale>
<asrwt>0</asrwt>
<pdfrwt beam="1">  1       21 0.11374243E-01 0.13781966E+03</pdfrwt>
<pdfrwt beam="2">  1       21 0.47289716E-01 0.13781966E+03</pdfrwt>
<totfact> 0.27972624E+05</totfact>
</mgrwt>
</event>
<event>
 5    1  0.1281005E-004  0.1485998E+03  0.7546771E-02  0.1202204E+00
         21   -1    0    0  501  502  0.00000000000E+00  0.00000000000E+00  0.10735931403E+03  0.10735931403E+03  0.00000000000E+00 0. -1.
         21   -1    0    0  502  503 -0.00000000000E+00 -0.00000000000E+00 -0.21221823397E+03  0.21221823397E+03  0.00000000000E+00 0. -1.
         24    1    1    2    0    0  0.34032285995E+02 -0.23879441286E+02 -0.66996077270E+01  0.90777336953E+02  0.80419002446E+02 0. -1.
          1    1    1    2  501    0  0.27049030293E+02  0.10312641108E+03 -0.51396717771E+02  0.11835678814E+03  0.00000000000E+00 0. -1.
         -2    1    1    2    0  503 -0.61081316289E+02 -0.79246969796E+02 -0.46762594443E+02  0.11044342289E+03  0.00000000000E+00 0.  1.
<mgrwt>
<rscale>  2 0.14859978E+03</rscale>
<asrwt>0</asrwt>
<pdfrwt beam="1">  1       21 0.16516818E-01 0.14859978E+03</pdfrwt>
<pdfrwt beam="2">  1       21 0.32648959E-01 0.14859978E+03</pdfrwt>
<totfact> 0.29990034E+05</totfact>
</mgrwt>
</event>
<event>
 5    1  0.1281005E-004  0.1097398E+03  0.7546771E-02  0.1261053E+00
         21   -1    0    0  501  502  0.00000000000E+00  0.00000000000E+00  0.85326487106E+03  0.85326487106E+03  0.00000000000E+00 0.  1.
         21   -1    0    0  502  503 -0.00000000000E+00 -0.00000000000E+00 -0.14122859678E+02  0.14122859678E+02  0.00000000000E+00 0. -1.
         24    1    1    2    0    0  0.47115344274E+02 -0.27861279203E+02  0.36128397896E+03  0.37415162160E+03  0.80419002446E+02 0.  0.
          1    1    1    2  501    0  0.35366461636E+02  0.16191520721E+02  0.15372165509E+03  0.15856638734E+03  0.00000000000E+00 0. -1.
         -2    1    1    2    0  503 -0.82481805909E+02  0.11669758481E+02  0.32413637733E+03  0.33466972179E+03  0.00000000000E+00 0.  1.
<mgrwt>
<rscale>  2 0.10973977E+03</rscale>
<asrwt>0</asrwt>
<pdfrwt beam="1">  1       21 0.13127148E+00 0.10973977E+03</pdfrwt>
<pdfrwt beam="2">  1       21 0.21727483E-02 0.10973977E+03</pdfrwt>
<totfact> 0.46271289E+05</totfact>
</mgrwt>
</event>
<event>
 5    1  0.1281005E-004  0.2613974E+03  0.7546771E-02  0.1106307E+00
         21   -1    0    0  501  502  0.00000000000E+00  0.00000000000E+00  0.14596033209E+03  0.14596033209E+03  0.00000000000E+00 0.  1.
         21   -1    0    0  502  503 -0.00000000000E+00 -0.00000000000E+00 -0.50359576029E+03  0.50359576029E+03  0.00000000000E+00 0. -1.
         24    1    1    2    0    0  0.66121476480E+02 -0.13571439717E+02 -0.10055365541E+03  0.14537705183E+03  0.80419002446E+02 0.  0.
          1    1    1    2  501    0  0.16885445974E+03 -0.46750908902E+02 -0.42472303918E+02  0.18028137080E+03  0.00000000000E+00 0. -1.
         -2    1    1    2    0  503 -0.23497593622E+03  0.60322348619E+02 -0.21460946886E+03  0.32389766975E+03  0.00000000000E+00 0.  1.
<mgrwt>
<rscale>  2 0.26139743E+03</rscale>
<asrwt>0</asrwt>
<pdfrwt beam="1">  1       21 0.22455436E-01 0.26139743E+03</pdfrwt>
<pdfrwt beam="2">  1       21 0.77476271E-01 0.26139743E+03</pdfrwt>
<totfact> 0.26510849E+04</totfact>
</mgrwt>
</event>
<event>
 5    1  0.1281005E-004  0.1841502E+03  0.7546771E-02  0.1163846E+00
         21   -1    0    0  501  502  0.00000000000E+00  0.00000000000E+00  0.26854012635E+02  0.26854012635E+02  0.00000000000E+00 0. -1.
         21   -1    0    0  502  503 -0.00000000000E+00 -0.00000000000E+00 -0.12998991182E+04  0.12998991182E+04  0.00000000000E+00 0.  1.
         24    1    1    2    0    0 -0.54122311593E+02 -0.21194540274E+02 -0.41747645530E+03  0.42910632695E+03  0.80419002446E+02 0.  0.
          1    1    1    2  501    0  0.15982403724E+03 -0.59811895665E+01 -0.44694437889E+03  0.47469861526E+03  0.00000000000E+00 0. -1.
         -2    1    1    2    0  503 -0.10570172565E+03  0.27175729840E+02 -0.40862427138E+03  0.42294818862E+03  0.00000000000E+00 0.  1.
<mgrwt>
<rscale>  2 0.18415020E+03</rscale>
<asrwt>0</asrwt>
<pdfrwt beam="1">  1       21 0.41313863E-02 0.18415020E+03</pdfrwt>
<pdfrwt beam="2">  1       21 0.19998449E+00 0.18415020E+03</pdfrwt>
<totfact> 0.50126486E+04</totfact>
</mgrwt>
</event>
<event>
 5    1  0.1281005E-004  0.8837851E+02  0.7546771E-02  0.1306827E+00
         21   -1    0    0  501  502  0.00000000000E+00  0.00000000000E+00  0.11702150796E+04  0.11702150796E+04  0.00000000000E+00 0. -1.
         21   -1    0    0  502  503 -0.00000000000E+00 -0.00000000000E+00 -0.67284116530E+01  0.67284116530E+01  0.00000000000E+00 0.  1.
         24    1    1    2    0    0  0.72251752408E+01  0.63209657452E+00  0.49294855097E+03  0.49951786011E+03  0.80419002446E+02 0.  1.
          1    1    1    2  501    0  0.49966413635E+01 -0.47405358350E+02  0.30439335701E+03  0.30810314867E+03  0.00000000000E+00 0. -1.
         -2    1    1    2    0  503 -0.12221816604E+02  0.46773261775E+02  0.36614475991E+03  0.36932248243E+03  0.00000000000E+00 0.  1.
<mgrwt>
<rscale>  2 0.88378514E+02</rscale>
<asrwt>0</asrwt>
<pdfrwt beam="1">  1       21 0.18003293E+00 0.88378514E+02</pdfrwt>
<pdfrwt beam="2">  1       21 0.10351412E-02 0.88378514E+02</pdfrwt>
<totfact> 0.66694977E+05</totfact>
</mgrwt>
</event>
<event>
 5    1  0.1281005E-004  0.1596287E+03  0.7546771E-02  0.1189117E+00
         21   -1    0    0  503  502  0.00000000000E+00  0.00000000000E+00  0.40151758853E+03  0.40151758853E+03  0.00000000000E+00 0.  1.
         21   -1    0    0  501  503 -0.00000000000E+00 -0.00000000000E+00 -0.70533435030E+02  0.70533435030E+02  0.00000000000E+00 0.  1.
         24    1    1    2    0    0 -0.95843033673E+02  0.39616874813E+02  0.65897737593E+02  0.14685064402E+03  0.80419002446E+02 0.  1.
          1    1    1    2  501    0 -0.43479030558E+02 -0.17893576273E+02  0.57939571700E+02  0.74616353026E+02  0.00000000000E+00 0. -1.
         -2    1    1    2    0  502  0.13932206423E+03 -0.21723298539E+02  0.20714684421E+03  0.25058402652E+03  0.00000000000E+00 0.  1.
<mgrwt>
<rscale>  2 0.15962872E+03</rscale>
<asrwt>0</asrwt>
<pdfrwt beam="1">  1       21 0.61771935E-01 0.15962872E+03</pdfrwt>
<pdfrwt beam="2">  1       21 0.10851298E-01 0.15962872E+03</pdfrwt>
<totfact> 0.17273830E+05</totfact>
</mgrwt>
</event>
<event>
 5    1  0.1281005E-004  0.1154699E+03  0.7546771E-02  0.1250763E+00
         21   -1    0    0  501  502  0.00000000000E+00  0.00000000000E+00  0.21157240077E+03  0.21157240077E+03  0.00000000000E+00 0. -1.
         21   -1    0    0  502  503 -0.00000000000E+00 -0.00000000000E+00 -0.64740654168E+02  0.64740654168E+02  0.00000000000E+00 0.  1.
         24    1    1    2    0    0  0.38410376776E+01  0.63062273064E+02  0.87526593612E+02  0.13460952566E+03  0.80419002446E+02 0. -1.
          1    1    1    2  501    0  0.30689806786E+02  0.21405897732E+02  0.15979113583E+02  0.40686714898E+02  0.00000000000E+00 0. -1.
         -2    1    1    2    0  503 -0.34530844464E+02 -0.84468170796E+02  0.43326039408E+02  0.10101681438E+03  0.00000000000E+00 0.  1.
<mgrwt>
<rscale>  2 0.11546987E+03</rscale>
<asrwt>0</asrwt>
<pdfrwt beam="1">  1       21 0.32549600E-01 0.11546987E+03</pdfrwt>
<pdfrwt beam="2">  1       21 0.99601007E-02 0.11546987E+03</pdfrwt>
<totfact> 0.74524132E+05</totfact>
</mgrwt>
</event>
<event>
 5    1  0.1281005E-004  0.2330057E+03  0.7546771E-02  0.1124542E+00
         21   -1    0    0  501  502  0.00000000000E+00  0.00000000000E+00  0.18786689528E+03  0.18786689528E+03  0.00000000000E+00 0.  1.
         21   -1    0    0  502  503 -0.00000000000E+00 -0.00000000000E+00 -0.31634792822E+03  0.31634792822E+03  0.00000000000E+00 0. -1.
         24    1    1    2    0    0  0.90947637736E+02 -0.10242820673E+03 -0.97839872047E+02  0.18655526490E+03  0.80419002446E+02 0. -1.
          1    1    1    2  501    0  0.97943971490E+02  0.15218061559E+02 -0.45528721826E+02  0.10907554932E+03  0.00000000000E+00 0. -1.
         -2    1    1    2    0  503 -0.18889160923E+03  0.87210145173E+02  0.14887560935E+02  0.20858400928E+03  0.00000000000E+00 0.  1.
<mgrwt>
<rscale>  2 0.23300573E+03</rscale>
<asrwt>0</asrwt>
<pdfrwt beam="1">  1       21 0.28902600E-01 0.23300573E+03</pdfrwt>
<pdfrwt beam="2">  1       21 0.48668911E-01 0.23300573E+03</pdfrwt>
<totfact> 0.45305898E+04</totfact>
</mgrwt>
</event>
<event>
 5    1  0.1281005E-004  0.2453646E+03  0.7546771E-02  0.1116270E+00
         21   -1    0    0  503  502  0.00000000000E+00  0.00000000000E+00  0.14827089995E+03  0.14827089995E+03  0.00000000000E+00 0. -1.
         21   -1    0    0  501  503 -0.00000000000E+00 -0.00000000000E+00 -0.41088668578E+03  0.41088668578E+03  0.00000000000E+00 0.  1.
         24    1    1    2    0    0  0.10459107481E+03 -0.18422441759E+01 -0.94974344931E+02  0.16257314951E+03  0.80419002446E+02 0.  1.
          1    1    1    2  501    0 -0.22581736748E+03 -0.42346743766E+02 -0.11851253073E+03  0.25851876161E+03  0.00000000000E+00 0. -1.
         -2    1    1    2    0  502  0.12122629267E+03  0.44188987942E+02 -0.49128910165E+02  0.13806567461E+03  0.00000000000E+00 0.  1.
<mgrwt>
<rscale>  2 0.24536461E+03</rscale>
<asrwt>0</asrwt>
<pdfrwt beam="1">  1       21 0.22810908E-01 0.24536461E+03</pdfrwt>
<pdfrwt beam="2">  1       21 0.63213336E-01 0.24536461E+03</pdfrwt>
<totfact> 0.40710653E+04</totfact>
</mgrwt>
</event>
<event>
 5    1  0.1281005E-004  0.2995476E+03  0.7546771E-02  0.1085467E+00
         21   -1    0    0  503  502  0.00000000000E+00  0.00000000000E+00  0.39844913858E+03  0.39844913858E+03  0.00000000000E+00 0. -1.
         21   -1    0    0  501  503 -0.00000000000E+00 -0.00000000000E+00 -0.23739382806E+03  0.23739382806E+03  0.00000000000E+00 0. -1.
         24    1    1    2    0    0 -0.15416581620E+03  0.93585347602E+02  0.19419432606E+02  0.19841785829E+03  0.80419002446E+02 0. -1.
          1    1    1    2  501    0  0.24947781561E+03 -0.14977873045E+03  0.53262897626E+02  0.29582052809E+03  0.00000000000E+00 0. -1.
         -2    1    1    2    0  502 -0.95311999409E+02  0.56193382845E+02  0.88372980282E+02  0.14160458026E+03  0.00000000000E+00 0.  1.
<mgrwt>
<rscale>  2 0.29954758E+03</rscale>
<asrwt>0</asrwt>
<pdfrwt beam="1">  1       21 0.61299868E-01 0.29954758E+03</pdfrwt>
<pdfrwt beam="2">  1       21 0.36522127E-01 0.29954758E+03</pdfrwt>
<totfact> 0.16940074E+04</totfact>
</mgrwt>
</event>
<event>
 5    1  0.1281005E-004  0.1533125E+03  0.7546771E-02  0.1196461E+00
         21   -1    0    0  503  502  0.00000000000E+00  0.00000000000E+00  0.66905235485E+02  0.66905235485E+02  0.00000000000E+00 0. -1.
         21   -1    0    0  501  503 -0.00000000000E+00 -0.00000000000E+00 -0.39198545750E+03  0.39198545750E+03  0.00000000000E+00 0.  1.
         24    1    1    2    0    0 -0.52065147555E+02  0.79517200122E+02 -0.70959973264E+02  0.14330491431E+03  0.80419002446E+02 0. -1.
          1    1    1    2  501    0 -0.29112349245E+02  0.32597027487E+02 -0.95741338841E+02  0.10524494783E+03  0.00000000000E+00 0. -1.
         -2    1    1    2    0  502  0.81177496800E+02 -0.11211422761E+03 -0.15837890991E+03  0.21034083085E+03  0.00000000000E+00 0.  1.
<mgrwt>
<rscale>  2 0.15331250E+03</rscale>
<asrwt>0</asrwt>
<pdfrwt beam="1">  1       21 0.10293113E-01 0.15331250E+03</pdfrwt>
<pdfrwt beam="2">  1       21 0.60305454E-01 0.15331250E+03</pdfrwt>
<totfact> 0.19994056E+05</totfact>
</mgrwt>
</event>
<event>
 5    1  0.1281005E-004  0.4099000E+03  0.7546771E-02  0.1040405E+00
         21   -1    0    0  503  502  0.00000000000E+00  0.00000000000E+00  0.26170937497E+03  0.26170937497E+03  0.00000000000E+00 0.  1.
         21   -1    0    0  501  503 -0.00000000000E+00 -0.00000000000E+00 -0.70497192754E+03  0.70497192754E+03  0.00000000000E+00 0. -1.
         24    1    1    2    0    0  0.13233117921E+02  0.23447415450E+03 -0.12232592167E+03  0.27673830888E+03  0.80419002446E+02 0. -1.
          1    1    1    2  501    0 -0.16077823437E+03 -0.34935135454E+03 -0.32409262938E+03  0.50292349516E+03  0.00000000000E+00 0. -1.
         -2    1    1    2    0  502  0.14754511645E+03  0.11487720004E+03  0.31559984693E+01  0.18701949846E+03  0.00000000000E+00 0.  1.
<mgrwt>
<rscale>  2 0.40990003E+03</rscale>
<asrwt>0</asrwt>
<pdfrwt beam="1">  1       21 0.40262981E-01 0.40990003E+03</pdfrwt>
<pdfrwt beam="2">  1       21 0.10845722E+00 0.40990003E+03</pdfrwt>
<totfact> 0.35520955E+03</totfact>
</mgrwt>
</event>
<event>
 5    1  0.1281005E-004  0.7958760E+02  0.7546771E-02  0.1330226E+00
         21   -1    0    0  503  502  0.00000000000E+00  0.00000000000E+00  0.19932185084E+03  0.19932185084E+03  0.00000000000E+00 0. -1.
         21   -1    0    0  501  503 -0.00000000000E+00 -0.00000000000E+00 -0.45825918330E+02  0.45825918330E+02  0.00000000000E+00 0.  1.
         24    1    1    2    0    0  0.21355240592E+02 -0.19452437988E+02  0.14831848195E+03  0.17117252025E+03  0.80419002446E+02 0. -1.
          1    1    1    2  501    0 -0.31695849600E+02 -0.16907697527E+02  0.93121924760E+00  0.35935557417E+02  0.00000000000E+00 0. -1.
         -2    1    1    2    0  502  0.10340609008E+02  0.36360135515E+02  0.42462313059E+01  0.38039691503E+02  0.00000000000E+00 0.  1.
<mgrwt>
<rscale>  2 0.79587596E+02</rscale>
<asrwt>0</asrwt>
<pdfrwt beam="1">  1       21 0.30664900E-01 0.79587596E+02</pdfrwt>
<pdfrwt beam="2">  1       21 0.70501414E-02 0.79587596E+02</pdfrwt>
<totfact> 0.15020785E+06</totfact>
</mgrwt>
</event>
<event>
 5    1  0.1281005E-004  0.1278821E+03  0.7546771E-02  0.1230633E+00
         21   -1    0    0  501  502  0.00000000000E+00  0.00000000000E+00  0.27142820482E+03  0.27142820482E+03  0.00000000000E+00 0.  1.
         21   -1    0    0  502  503 -0.00000000000E+00 -0.00000000000E+00 -0.76106819004E+02  0.76106819004E+02  0.00000000000E+00 0. -1.
         24    1    1    2    0    0 -0.46253237115E+02 -0.28383577592E+01  0.15318885919E+03  0.17911298320E+03  0.80419002446E+02 0.  0.
          1    1    1    2  501    0 -0.32378311539E+02 -0.56037081953E+02  0.19871178531E+02  0.67700615567E+02  0.00000000000E+00 0. -1.
         -2    1    1    2    0  503  0.78631548654E+02  0.58875439712E+02  0.22261348093E+02  0.10072142505E+03  0.00000000000E+00 0.  1.
<mgrwt>
<rscale>  2 0.12788214E+03</rscale>
<asrwt>0</asrwt>
<pdfrwt beam="1">  1       21 0.41758185E-01 0.12788214E+03</pdfrwt>
<pdfrwt beam="2">  1       21 0.11708741E-01 0.12788214E+03</pdfrwt>
<totfact> 0.34271341E+05</totfact>
</mgrwt>
</event>
<event>
 5    1  0.1281005E-004  0.1417211E+03  0.7546771E-02  0.1211032E+00
         21   -1    0    0  503  502  0.00000000000E+00  0.00000000000E+00  0.21437174548E+04  0.21437174548E+04  0.00000000000E+00 0. -1.
         21   -1    0    0  501  503 -0.00000000000E+00 -0.00000000000E+00 -0.10086768049E+02  0.10086768049E+02  0.00000000000E+00 0. -1.
         24    1    1    2    0    0 -0.64325928115E+02 -0.26840305505E+02  0.10430927571E+04  0.10485074835E+04  0.80419002446E+02 0. -1.
          1    1    1    2  501    0  0.11962992343E+03  0.16579383726E+02  0.64364375941E+03  0.65487669341E+03  0.00000000000E+00 0. -1.
         -2    1    1    2    0  502 -0.55303995314E+02  0.10260921778E+02  0.44689417020E+03  0.45042004593E+03  0.00000000000E+00 0.  1.
<mgrwt>
<rscale>  2 0.14172111E+03</rscale>
<asrwt>0</asrwt>
<pdfrwt beam="1">  1       21 0.32980232E+00 0.14172111E+03</pdfrwt>
<pdfrwt beam="2">  1       21 0.15518122E-02 0.14172111E+03</pdfrwt>
<totfact> 0.45088023E+04</totfact>
</mgrwt>
</event>
<event>
 5    1  0.1281005E-004  0.2544914E+03  0.7546771E-02  0.1110499E+00
         21   -1    0    0  503  502  0.00000000000E+00  0.00000000000E+00  0.14953513335E+03  0.14953513335E+03  0.00000000000E+00 0.  1.
         21   -1    0    0  501  503 -0.00000000000E+00 -0.00000000000E+00 -0.44695335314E+03  0.44695335314E+03  0.00000000000E+00 0. -1.
         24    1    1    2    0    0 -0.18606267721E+03 -0.12121292364E+03 -0.86156430949E+02  0.25140015763E+03  0.80419002446E+02 0.  1.
          1    1    1    2  501    0  0.20148646291E+03  0.14230795231E+03 -0.18892123102E+03  0.31070819036E+03  0.00000000000E+00 0. -1.
         -2    1    1    2    0  502 -0.15423785703E+02 -0.21095028677E+02 -0.22340557822E+02  0.34380138512E+02  0.00000000000E+00 0.  1.
<mgrwt>
<rscale>  2 0.25449141E+03</rscale>
<asrwt>0</asrwt>
<pdfrwt beam="1">  1       21 0.23005405E-01 0.25449141E+03</pdfrwt>
<pdfrwt beam="2">  1       21 0.68762054E-01 0.25449141E+03</pdfrwt>
<totfact> 0.33169367E+04</totfact>
</mgrwt>
</event>
<event>
 5    1  0.1281005E-004  0.2967917E+03  0.7546771E-02  0.1086856E+00
         21   -1    0    0  501  502  0.00000000000E+00  0.00000000000E+00  0.49172025660E+03  0.49172025660E+03  0.00000000000E+00 0. -1.
         21   -1    0    0  502  503 -0.00000000000E+00 -0.00000000000E+00 -0.18169797124E+03  0.18169797124E+03  0.00000000000E+00 0.  1.
         24    1    1    2    0    0 -0.14914969068E+03  0.88993876254E+02  0.73055173293E+02  0.20486535710E+03  0.80419002446E+02 0.  1.
          1    1    1    2  501    0  0.23501981946E+03  0.48603579183E+02  0.16416719423E+03  0.29077051280E+03  0.00000000000E+00 0. -1.
         -2    1    1    2    0  503 -0.85870128784E+02 -0.13759745544E+03  0.72799917841E+02  0.17778235795E+03  0.00000000000E+00 0.  1.
<mgrwt>
<rscale>  2 0.29679167E+03</rscale>
<asrwt>0</asrwt>
<pdfrwt beam="1">  1       21 0.75649270E-01 0.29679167E+03</pdfrwt>
<pdfrwt beam="2">  1       21 0.27953534E-01 0.29679167E+03</pdfrwt>
<totfact> 0.18074661E+04</totfact>
</mgrwt>
</event>
<event>
 5    1  0.1281005E-004  0.1103321E+03  0.7546771E-02  0.1259956E+00
         21   -1    0    0  503  502  0.00000000000E+00  0.00000000000E+00  0.33338121099E+03  0.33338121099E+03  0.00000000000E+00 0.  1.
         21   -1    0    0  501  503 -0.00000000000E+00 -0.00000000000E+00 -0.40088905622E+02  0.40088905622E+02  0.00000000000E+00 0. -1.
         24    1    1    2    0    0 -0.14336551872E+02  0.63196135126E+02  0.92107468485E+02  0.13838457255E+03  0.80419002446E+02 0.  1.
          1    1    1    2  501    0  0.36708418847E+02 -0.80911242401E+02  0.17542576524E+03  0.19664266137E+03  0.00000000000E+00 0. -1.
         -2    1    1    2    0  502 -0.22371866974E+02  0.17715107275E+02  0.25759071637E+02  0.38442882687E+02  0.00000000000E+00 0.  1.
<mgrwt>
<rscale>  2 0.11033206E+03</rscale>
<asrwt>0</asrwt>
<pdfrwt beam="1">  1       21 0.51289415E-01 0.11033206E+03</pdfrwt>
<pdfrwt beam="2">  1       21 0.61675242E-02 0.11033206E+03</pdfrwt>
<totfact> 0.68380413E+05</totfact>
</mgrwt>
</event>
<event>
 5    1  0.1281005E-004  0.1752219E+03  0.7546771E-02  0.1172509E+00
         21   -1    0    0  501  502  0.00000000000E+00  0.00000000000E+00  0.44316867530E+02  0.44316867530E+02  0.00000000000E+00 0. -1.
         21   -1    0    0  502  503 -0.00000000000E+00 -0.00000000000E+00 -0.71817073613E+03  0.71817073613E+03  0.00000000000E+00 0. -1.
         24    1    1    2    0    0 -0.10689407973E+02 -0.11380936049E+03 -0.32250026812E+03  0.35148324692E+03  0.80419002446E+02 0. -1.
          1    1    1    2  501    0 -0.13394117641E+02  0.15895149888E+03 -0.29125598767E+03  0.33207684613E+03  0.00000000000E+00 0. -1.
         -2    1    1    2    0  503  0.24083525614E+02 -0.45142138390E+02 -0.60097612816E+02  0.78927510607E+02  0.00000000000E+00 0.  1.
<mgrwt>
<rscale>  2 0.17522191E+03</rscale>
<asrwt>0</asrwt>
<pdfrwt beam="1">  1       21 0.68179801E-02 0.17522191E+03</pdfrwt>
<pdfrwt beam="2">  1       21 0.11048780E+00 0.17522191E+03</pdfrwt>
<totfact> 0.10304252E+05</totfact>
</mgrwt>
</event>
<event>
 5    1  0.1281005E-004  0.2080282E+03  0.7546771E-02  0.1143137E+00
         21   -1    0    0  503  502  0.00000000000E+00  0.00000000000E+00  0.86028272081E+03  0.86028272081E+03  0.00000000000E+00 0. -1.
         21   -1    0    0  501  503 -0.00000000000E+00 -0.00000000000E+00 -0.51896162952E+02  0.51896162952E+02  0.00000000000E+00 0. -1.
         24    1    1    2    0    0  0.36206075984E+02  0.12337419397E+03  0.24602569261E+03  0.28901198774E+03  0.80419002446E+02 0. -1.
          1    1    1    2  501    0 -0.11127547059E+03 -0.14820715012E+03  0.34101699618E+03  0.38812392529E+03  0.00000000000E+00 0. -1.
         -2    1    1    2    0  502  0.75069394607E+02  0.24832956154E+02  0.22134386906E+03  0.23504297073E+03  0.00000000000E+00 0.  1.
<mgrwt>
<rscale>  2 0.20802817E+03</rscale>
<asrwt>0</asrwt>
<pdfrwt beam="1">  1       21 0.13235118E+00 0.20802817E+03</pdfrwt>
<pdfrwt beam="2">  1       21 0.79840257E-02 0.20802817E+03</pdfrwt>
<totfact> 0.49332530E+04</totfact>
</mgrwt>
</event>
<event>
 5    1  0.1281005E-004  0.1388849E+03  0.7546771E-02  0.1214837E+00
         21   -1    0    0  503  502  0.00000000000E+00  0.00000000000E+00  0.73920285942E+02  0.73920285942E+02  0.00000000000E+00 0.  1.
         21   -1    0    0  501  503 -0.00000000000E+00 -0.00000000000E+00 -0.26840446553E+03  0.26840446553E+03  0.00000000000E+00 0. -1.
         24    1    1    2    0    0 -0.52648715394E+02 -0.43380639860E+00 -0.61715521402E+02  0.11422826689E+03  0.80419002446E+02 0. -1.
          1    1    1    2  501    0  0.72009926369E+02  0.75376590401E+02 -0.98593638756E+02  0.14348437364E+03  0.00000000000E+00 0. -1.
         -2    1    1    2    0  502 -0.19361210975E+02 -0.74942784003E+02 -0.34175019429E+02  0.84612110938E+02  0.00000000000E+00 0.  1.
<mgrwt>
<rscale>  2 0.13888488E+03</rscale>
<asrwt>0</asrwt>
<pdfrwt beam="1">  1       21 0.11372352E-01 0.13888488E+03</pdfrwt>
<pdfrwt beam="2">  1       21 0.41292994E-01 0.13888488E+03</pdfrwt>
<totfact> 0.36844643E+05</totfact>
</mgrwt>
</event>
<event>
 5    1  0.1281005E-004  0.2729467E+03  0.7546771E-02  0.1099605E+00
         21   -1    0    0  503  502  0.00000000000E+00  0.00000000000E+00  0.27180618572E+03  0.27180618572E+03  0.00000000000E+00 0.  1.
         21   -1    0    0  501  503 -0.00000000000E+00 -0.00000000000E+00 -0.30236039504E+03  0.30236039504E+03  0.00000000000E+00 0. -1.
         24    1    1    2    0    0  0.50316046994E+02 -0.12461972147E+03 -0.68181055262E+02  0.17081467096E+03  0.80419002446E+02 0.  0.
          1    1    1    2  501    0 -0.75807720069E+01  0.25343943732E+03 -0.23219093165E+02  0.25461371287E+03  0.00000000000E+00 0. -1.
         -2    1    1    2    0  502 -0.42735274987E+02 -0.12881971585E+03  0.60845939102E+02  0.14873819693E+03  0.00000000000E+00 0.  1.
<mgrwt>
<rscale>  2 0.27294674E+03</rscale>
<asrwt>0</asrwt>
<pdfrwt beam="1">  1       21 0.41816336E-01 0.27294674E+03</pdfrwt>
<pdfrwt beam="2">  1       21 0.46516984E-01 0.27294674E+03</pdfrwt>
<totfact> 0.23401439E+04</totfact>
</mgrwt>
</event>
<event>
 5    1  0.1281005E-004  0.1333298E+03  0.7546771E-02  0.1222597E+00
         21   -1    0    0  503  502  0.00000000000E+00  0.00000000000E+00  0.12354124258E+04  0.12354124258E+04  0.00000000000E+00 0.  1.
         21   -1    0    0  501  503 -0.00000000000E+00 -0.00000000000E+00 -0.16843232482E+02  0.16843232482E+02  0.00000000000E+00 0. -1.
         24    1    1    2    0    0  0.10031562295E+03  0.56197926060E+01  0.35544810417E+03  0.37802827538E+03  0.80419002446E+02 0. -1.
          1    1    1    2  501    0 -0.76709062192E+01  0.35707023756E+02  0.18629359879E+03  0.18983977270E+03  0.00000000000E+00 0. -1.
         -2    1    1    2    0  502 -0.92644716735E+02 -0.41326816362E+02  0.67682749033E+03  0.68438761017E+03  0.00000000000E+00 0.  1.
<mgrwt>
<rscale>  2 0.13332977E+03</rscale>
<asrwt>0</asrwt>
<pdfrwt beam="1">  1       21 0.19006338E+00 0.13332977E+03</pdfrwt>
<pdfrwt beam="2">  1       21 0.25912675E-02 0.13332977E+03</pdfrwt>
<totfact> 0.12970598E+05</totfact>
</mgrwt>
</event>
<event>
 5    1  0.1281005E-004  0.1068324E+03  0.7546771E-02  0.1266551E+00
         21   -1    0    0  503  502  0.00000000000E+00  0.00000000000E+00  0.13687692611E+04  0.13687692611E+04  0.00000000000E+00 0.  1.
         21   -1    0    0  501  503 -0.00000000000E+00 -0.00000000000E+00 -0.89891086997E+01  0.89891086997E+01  0.00000000000E+00 0. -1.
         24    1    1    2    0    0 -0.35001501224E+02  0.10255618706E+02  0.42974431512E+03  0.43872277709E+03  0.80419002446E+02 0.  1.
          1    1    1    2  501    0 -0.44441291648E+02  0.41074240103E+01  0.22429073650E+03  0.22868807100E+03  0.00000000000E+00 0. -1.
         -2    1    1    2    0  502  0.79442792872E+02 -0.14363042716E+02  0.70574510076E+03  0.71034752170E+03  0.00000000000E+00 0.  1.
<mgrwt>
<rscale>  2 0.10683245E+03</rscale>
<asrwt>0</asrwt>
<pdfrwt beam="1">  1       21 0.21057972E+00 0.10683245E+03</pdfrwt>
<pdfrwt beam="2">  1       21 0.13829409E-02 0.10683245E+03</pdfrwt>
<totfact> 0.26927931E+05</totfact>
</mgrwt>
</event>
<event>
 5    1  0.1281005E-004  0.1540272E+03  0.7546771E-02  0.1195610E+00
         21   -1    0    0  501  502  0.00000000000E+00  0.00000000000E+00  0.75730318303E+02  0.75730318303E+02  0.00000000000E+00 0.  1.
         21   -1    0    0  502  503 -0.00000000000E+00 -0.00000000000E+00 -0.35266172402E+03  0.35266172402E+03  0.00000000000E+00 0. -1.
         24    1    1    2    0    0 -0.45100699142E+02 -0.30437373174E+02 -0.15932236052E+03  0.18657796564E+03  0.80419002446E+02 0. -1.
          1    1    1    2  501    0  0.12294551139E+03 -0.97874896694E+01 -0.75376319302E+02  0.14454405292E+03  0.00000000000E+00 0. -1.
         -2    1    1    2    0  503 -0.77844812246E+02  0.40224862843E+02 -0.42232725896E+02  0.97270023753E+02  0.00000000000E+00 0.  1.
<mgrwt>
<rscale>  2 0.15402715E+03</rscale>
<asrwt>0</asrwt>
<pdfrwt beam="1">  1       21 0.11650818E-01 0.15402715E+03</pdfrwt>
<pdfrwt beam="2">  1       21 0.54255650E-01 0.15402715E+03</pdfrwt>
<totfact> 0.20085882E+05</totfact>
</mgrwt>
</event>
<event>
 5    1  0.1281005E-004  0.2187466E+03  0.7546771E-02  0.1134821E+00
         21   -1    0    0  503  502  0.00000000000E+00  0.00000000000E+00  0.67329483241E+03  0.67329483241E+03  0.00000000000E+00 0. -1.
         21   -1    0    0  501  503 -0.00000000000E+00 -0.00000000000E+00 -0.78281441113E+02  0.78281441113E+02  0.00000000000E+00 0.  1.
         24    1    1    2    0    0 -0.61406661917E+02  0.22750266918E+01  0.60472652042E+02  0.11789873398E+03  0.80419002446E+02 0.  1.
          1    1    1    2  501    0 -0.13282701119E+03  0.37502474432E+02  0.26835847767E+03  0.30177097777E+03  0.00000000000E+00 0. -1.
         -2    1    1    2    0  502  0.19423367310E+03 -0.39777501123E+02  0.26618226159E+03  0.33190656177E+03  0.00000000000E+00 0.  1.
<mgrwt>
<rscale>  2 0.21874659E+03</rscale>
<asrwt>0</asrwt>
<pdfrwt beam="1">  1       21 0.10358382E+00 0.21874659E+03</pdfrwt>
<pdfrwt beam="2">  1       21 0.12043299E-01 0.21874659E+03</pdfrwt>
<totfact> 0.43416860E+04</totfact>
</mgrwt>
</event>
<event>
 5    1  0.1281005E-004  0.2199111E+03  0.7546771E-02  0.1133949E+00
         21   -1    0    0  503  502  0.00000000000E+00  0.00000000000E+00  0.45471005437E+02  0.45471005437E+02  0.00000000000E+00 0. -1.
         21   -1    0    0  501  503 -0.00000000000E+00 -0.00000000000E+00 -0.11238752564E+04  0.11238752564E+04  0.00000000000E+00 0.  1.
         24    1    1    2    0    0  0.25880139194E+02  0.71511578928E+02 -0.28204172786E+03  0.30298257332E+03  0.80419002446E+02 0. -1.
          1    1    1    2  501    0 -0.14316675682E+03 -0.13413014243E+03 -0.35735154794E+03  0.40766131063E+03  0.00000000000E+00 0. -1.
         -2    1    1    2    0  502  0.11728661763E+03  0.62618563498E+02 -0.43901097512E+03  0.45870237785E+03  0.00000000000E+00 0.  1.
<mgrwt>
<rscale>  2 0.21991109E+03</rscale>
<asrwt>0</asrwt>
<pdfrwt beam="1">  1       21 0.69955401E-02 0.21991109E+03</pdfrwt>
<pdfrwt beam="2">  1       21 0.17290386E+00 0.21991109E+03</pdfrwt>
<totfact> 0.30302900E+04</totfact>
</mgrwt>
</event>
<event>
 5    1  0.1281005E-004  0.2152138E+03  0.7546771E-02  0.1137502E+00
         21   -1    0    0  503  502  0.00000000000E+00  0.00000000000E+00  0.51595633015E+03  0.51595633015E+03  0.00000000000E+00 0.  1.
         21   -1    0    0  501  503 -0.00000000000E+00 -0.00000000000E+00 -0.10106729412E+03  0.10106729412E+03  0.00000000000E+00 0. -1.
         24    1    1    2    0    0  0.55555530558E+02 -0.69686624770E+01  0.84594396916E+02  0.12945426674E+03  0.80419002446E+02 0.  1.
          1    1    1    2  501    0 -0.18684084847E+02  0.16708681939E+03  0.75296413759E+02  0.18421902769E+03  0.00000000000E+00 0. -1.
         -2    1    1    2    0  502 -0.36871445711E+02 -0.16011815691E+03  0.25499822535E+03  0.30335032984E+03  0.00000000000E+00 0.  1.
<mgrwt>
<rscale>  2 0.21521383E+03</rscale>
<asrwt>0</asrwt>
<pdfrwt beam="1">  1       21 0.79377895E-01 0.21521383E+03</pdfrwt>
<pdfrwt beam="2">  1       21 0.15548815E-01 0.21521383E+03</pdfrwt>
<totfact> 0.50866873E+04</totfact>
</mgrwt>
</event>
<event>
 5    1  0.1281005E-004  0.9204374E+02  0.7546771E-02  0.1297977E+00
         21   -1    0    0  501  502  0.00000000000E+00  0.00000000000E+00  0.59151609204E+02  0.59151609204E+02  0.00000000000E+00 0. -1.
         21   -1    0    0  502  503 -0.00000000000E+00 -0.00000000000E+00 -0.14353558498E+03  0.14353558498E+03  0.00000000000E+00 0.  1.
         24    1    1    2    0    0 -0.24873397744E+02  0.33324740847E+02 -0.36894623491E+02  0.97763252118E+02  0.80419002446E+02 0.  1.
          1    1    1    2  501    0  0.22977669717E+01  0.28057357892E+02 -0.14937910829E+02  0.31869048383E+02  0.00000000000E+00 0. -1.
         -2    1    1    2    0  503  0.22575630772E+02 -0.61382098738E+02 -0.32551441461E+02  0.73054893686E+02  0.00000000000E+00 0.  1.
<mgrwt>
<rscale>  2 0.92043740E+02</rscale>
<asrwt>0</asrwt>
<pdfrwt beam="1">  1       21 0.91002477E-02 0.92043740E+02</pdfrwt>
<pdfrwt beam="2">  1       21 0.22082397E-01 0.92043740E+02</pdfrwt>
<totfact> 0.18092060E+06</totfact>
</mgrwt>
</event>
<event>
 5    1  0.1281005E-004  0.2305539E+03  0.7546771E-02  0.1126251E+00
         21   -1    0    0  501  502  0.00000000000E+00  0.00000000000E+00  0.10788531334E+04  0.10788531334E+04  0.00000000000E+00 0. -1.
         21   -1    0    0  502  503 -0.00000000000E+00 -0.00000000000E+00 -0.49593744606E+02  0.49593744606E+02  0.00000000000E+00 0.  1.
         24    1    1    2    0    0 -0.50606148973E+02 -0.82459525617E+02  0.31868831933E+03  0.34262226505E+03  0.80419002446E+02 0. -1.
          1    1    1    2  501    0  0.89431987826E+02 -0.10840045137E+03  0.31355957667E+03  0.34361074842E+03  0.00000000000E+00 0. -1.
         -2    1    1    2    0  503 -0.38825838853E+02  0.19085997699E+03  0.39701149280E+03  0.44221386454E+03  0.00000000000E+00 0.  1.
<mgrwt>
<rscale>  2 0.23055386E+03</rscale>
<asrwt>0</asrwt>
<pdfrwt beam="1">  1       21 0.16597739E+00 0.23055386E+03</pdfrwt>
<pdfrwt beam="2">  1       21 0.76298077E-02 0.23055386E+03</pdfrwt>
<totfact> 0.28998007E+04</totfact>
</mgrwt>
</event>
<event>
 5    1  0.1281005E-004  0.1402744E+03  0.7546771E-02  0.1212960E+00
         21   -1    0    0  503  502  0.00000000000E+00  0.00000000000E+00  0.62452875974E+02  0.62452875974E+02  0.00000000000E+00 0. -1.
         21   -1    0    0  501  503 -0.00000000000E+00 -0.00000000000E+00 -0.31682630154E+03  0.31682630154E+03  0.00000000000E+00 0.  1.
         24    1    1    2    0    0 -0.82621202760E+01  0.57185719962E+02 -0.10003212895E+03  0.14075550424E+03  0.80419002446E+02 0.  0.
          1    1    1    2  501    0  0.13729495118E+02  0.61347918552E+02 -0.46673877735E+02  0.78297618161E+02  0.00000000000E+00 0. -1.
         -2    1    1    2    0  502 -0.54673748415E+01 -0.11853363851E+03 -0.10766741889E+03  0.16022605511E+03  0.00000000000E+00 0.  1.
<mgrwt>
<rscale>  2 0.14027439E+03</rscale>
<asrwt>0</asrwt>
<pdfrwt beam="1">  1       21 0.96081349E-02 0.14027439E+03</pdfrwt>
<pdfrwt beam="2">  1       21 0.48742507E-01 0.14027439E+03</pdfrwt>
<totfact> 0.35347912E+05</totfact>
</mgrwt>
</event>
<event>
 5    1  0.1281005E-004  0.1652420E+03  0.7546771E-02  0.1182903E+00
         21   -1    0    0  501  502  0.00000000000E+00  0.00000000000E+00  0.11464344266E+03  0.11464344266E+03  0.00000000000E+00 0. -1.
         21   -1    0    0  502  503 -0.00000000000E+00 -0.00000000000E+00 -0.26693964681E+03  0.26693964681E+03  0.00000000000E+00 0. -1.
         24    1    1    2    0    0 -0.10846892101E+03 -0.20554829981E+02 -0.30463042027E+01  0.13661809464E+03  0.80419002446E+02 0. -1.
          1    1    1    2  501    0  0.14115229752E+03 -0.19180873981E+02 -0.10304493877E+03  0.17581278801E+03  0.00000000000E+00 0. -1.
         -2    1    1    2    0  503 -0.32683376510E+02  0.39735703962E+02 -0.46204961183E+02  0.69152206815E+02  0.00000000000E+00 0.  1.
<mgrwt>
<rscale>  2 0.16524197E+03</rscale>
<asrwt>0</asrwt>
<pdfrwt beam="1">  1       21 0.17637453E-01 0.16524197E+03</pdfrwt>
<pdfrwt beam="2">  1       21 0.41067638E-01 0.16524197E+03</pdfrwt>
<totfact> 0.16793167E+05</totfact>
</mgrwt>
</event>
<event>
 5    1  0.1281005E-004  0.1074582E+03  0.7546771E-02  0.1265351E+00
         21   -1    0    0  501  502  0.00000000000E+00  0.00000000000E+00  0.76971697439E+02  0.76971697439E+02  0.00000000000E+00 0.  1.
         21   -1    0    0  502  503 -0.00000000000E+00 -0.00000000000E+00 -0.15121889639E+03  0.15121889639E+03  0.00000000000E+00 0. -1.
         24    1    1    2    0    0  0.86933155258E+01 -0.19925271621E+02 -0.35757329430E+02  0.90655351449E+02  0.80419002446E+02 0.  0.
          1    1    1    2  501    0  0.52955558968E+02 -0.21695576625E+02 -0.22243354424E+02  0.61398339446E+02  0.00000000000E+00 0. -1.
         -2    1    1    2    0  503 -0.61648874494E+02  0.41620848246E+02 -0.16246515092E+02  0.76136902930E+02  0.00000000000E+00 0.  1.
<mgrwt>
<rscale>  2 0.10745817E+03</rscale>
<asrwt>0</asrwt>
<pdfrwt beam="1">  1       21 0.11841800E-01 0.10745817E+03</pdfrwt>
<pdfrwt beam="2">  1       21 0.23264445E-01 0.10745817E+03</pdfrwt>
<totfact> 0.10419764E+06</totfact>
</mgrwt>
</event>
<event>
 5    1  0.1281005E-004  0.2307704E+03  0.7546771E-02  0.1126099E+00
         21   -1    0    0  503  502  0.00000000000E+00  0.00000000000E+00  0.94863728286E+02  0.94863728286E+02  0.00000000000E+00 0. -1.
         21   -1    0    0  501  503 -0.00000000000E+00 -0.00000000000E+00 -0.58231570602E+03  0.58231570602E+03  0.00000000000E+00 0.  1.
         24    1    1    2    0    0 -0.11953148294E+03  0.23144816964E+02 -0.14799491770E+03  0.20782966483E+03  0.80419002446E+02 0.  0.
          1    1    1    2  501    0 -0.94323705216E+02 -0.37006855583E+02 -0.16215769106E+03  0.19121084042E+03  0.00000000000E+00 0. -1.
         -2    1    1    2    0  502  0.21385518815E+03  0.13862038619E+02 -0.17729936897E+03  0.27813892905E+03  0.00000000000E+00 0.  1.
<mgrwt>
<rscale>  2 0.23077040E+03</rscale>
<asrwt>0</asrwt>
<pdfrwt beam="1">  1       21 0.14594420E-01 0.23077040E+03</pdfrwt>
<pdfrwt beam="2">  1       21 0.89587031E-01 0.23077040E+03</pdfrwt>
<totfact> 0.42960834E+04</totfact>
</mgrwt>
</event>
<event>
 5    1  0.1281005E-004  0.1204888E+03  0.7546771E-02  0.1242293E+00
         21   -1    0    0  503  502  0.00000000000E+00  0.00000000000E+00  0.69474691148E+02  0.69474691148E+02  0.00000000000E+00 0. -1.
         21   -1    0    0  501  503 -0.00000000000E+00 -0.00000000000E+00 -0.21182966857E+03  0.21182966857E+03  0.00000000000E+00 0. -1.
         24    1    1    2    0    0 -0.50003450390E+02 -0.85187296239E+00 -0.61757699271E+02  0.11305883474E+03  0.80419002446E+02 0. -1.
          1    1    1    2  501    0  0.98082281073E+02 -0.21301393617E+01 -0.42889872169E+02  0.10707106280E+03  0.00000000000E+00 0. -1.
         -2    1    1    2    0  502 -0.48078830683E+02  0.29820123241E+01 -0.37707405980E+02  0.61174462181E+02  0.00000000000E+00 0.  1.
<mgrwt>
<rscale>  2 0.12048883E+03</rscale>
<asrwt>0</asrwt>
<pdfrwt beam="1">  1       21 0.10688414E-01 0.12048883E+03</pdfrwt>
<pdfrwt beam="2">  1       21 0.32589180E-01 0.12048883E+03</pdfrwt>
<totfact> 0.65716096E+05</totfact>
</mgrwt>
</event>
<event>
 5    1  0.1281005E-004  0.2192046E+03  0.7546771E-02  0.1134477E+00
         21   -1    0    0  501  502  0.00000000000E+00  0.00000000000E+00  0.37090706678E+03  0.37090706678E+03  0.00000000000E+00 0. -1.
         21   -1    0    0  502  503 -0.00000000000E+00 -0.00000000000E+00 -0.13008794650E+03  0.13008794650E+03  0.00000000000E+00 0.  1.
         24    1    1    2    0    0 -0.67518001735E+02 -0.53318820882E+01  0.62781729258E+02  0.12245762944E+03  0.80419002446E+02 0. -1.
          1    1    1    2  501    0  0.12024454337E+03 -0.13652656893E+03  0.11007318171E+03  0.21263668443E+03  0.00000000000E+00 0. -1.
         -2    1    1    2    0  503 -0.52726541639E+02  0.14185845101E+03  0.67964209314E+02  0.16590069941E+03  0.00000000000E+00 0.  1.
<mgrwt>
<rscale>  2 0.21920459E+03</rscale>
<asrwt>0</asrwt>
<pdfrwt beam="1">  1       21 0.57062625E-01 0.21920459E+03</pdfrwt>
<pdfrwt beam="2">  1       21 0.20013530E-01 0.21920459E+03</pdfrwt>
<totfact> 0.65724272E+04</totfact>
</mgrwt>
</event>
<event>
 5    1  0.1281005E-004  0.1408317E+03  0.7546771E-02  0.1212214E+00
         21   -1    0    0  503  502  0.00000000000E+00  0.00000000000E+00  0.17082789942E+03  0.17082789942E+03  0.00000000000E+00 0. -1.
         21   -1    0    0  501  503 -0.00000000000E+00 -0.00000000000E+00 -0.15703377971E+03  0.15703377971E+03  0.00000000000E+00 0.  1.
         24    1    1    2    0    0  0.47206381323E+02 -0.49161479588E+02 -0.50624099628E+02  0.11694147652E+03  0.80419002446E+02 0.  1.
          1    1    1    2  501    0 -0.41248976112E+02  0.10877689701E+03 -0.83819649342E+01  0.11663682390E+03  0.00000000000E+00 0. -1.
         -2    1    1    2    0  502 -0.59574052112E+01 -0.59615417419E+02  0.72800184277E+02  0.94283378714E+02  0.00000000000E+00 0.  1.
<mgrwt>
<rscale>  2 0.14083174E+03</rscale>
<asrwt>0</asrwt>
<pdfrwt beam="1">  1       21 0.26281215E-01 0.14083174E+03</pdfrwt>
<pdfrwt beam="2">  1       21 0.24159043E-01 0.14083174E+03</pdfrwt>
<totfact> 0.22552159E+05</totfact>
</mgrwt>
</event>
<event>
 5    1  0.1281005E-004  0.1451682E+03  0.7546771E-02  0.1206539E+00
         21   -1    0    0  503  502  0.00000000000E+00  0.00000000000E+00  0.98102805807E+02  0.98102805807E+02  0.00000000000E+00 0. -1.
         21   -1    0    0  501  503 -0.00000000000E+00 -0.00000000000E+00 -0.21877604401E+03  0.21877604401E+03  0.00000000000E+00 0.  1.
         24    1    1    2    0    0  0.49627772114E+02 -0.10217493890E+03 -0.36730884876E+02  0.14394098708E+03  0.80419002446E+02 0.  0.
          1    1    1    2  501    0 -0.31946395722E+02  0.12111076027E+03 -0.68072393863E+02  0.14255609163E+03  0.00000000000E+00 0. -1.
         -2    1    1    2    0  502 -0.17681376392E+02 -0.18935821374E+02 -0.15869959460E+02  0.30381771105E+02  0.00000000000E+00 0.  1.
<mgrwt>
<rscale>  2 0.14516818E+03</rscale>
<asrwt>0</asrwt>
<pdfrwt beam="1">  1       21 0.15092739E-01 0.14516818E+03</pdfrwt>
<pdfrwt beam="2">  1       21 0.33657853E-01 0.14516818E+03</pdfrwt>
<totfact> 0.33301561E+05</totfact>
</mgrwt>
</event>
<event>
 5    1  0.1281005E-004  0.1946572E+03  0.7546771E-02  0.1154327E+00
         21   -1    0    0  503  502  0.00000000000E+00  0.00000000000E+00  0.37179206128E+03  0.37179206128E+03  0.00000000000E+00 0.  1.
         21   -1    0    0  501  503 -0.00000000000E+00 -0.00000000000E+00 -0.10379902400E+03  0.10379902400E+03  0.00000000000E+00 0. -1.
         24    1    1    2    0    0 -0.13656062153E+03  0.95256390981E+02  0.96147198624E+02  0.20840845265E+03  0.80419002446E+02 0. -1.
          1    1    1    2  501    0  0.92755230958E+00  0.23871056301E+02  0.23768020668E+02  0.33698760937E+02  0.00000000000E+00 0. -1.
         -2    1    1    2    0  502  0.13563306923E+03 -0.11912744728E+03  0.14807781798E+03  0.23348387169E+03  0.00000000000E+00 0.  1.
<mgrwt>
<rscale>  2 0.19465724E+03</rscale>
<asrwt>0</asrwt>
<pdfrwt beam="1">  1       21 0.57198778E-01 0.19465724E+03</pdfrwt>
<pdfrwt beam="2">  1       21 0.15969081E-01 0.19465724E+03</pdfrwt>
<totfact> 0.10035706E+05</totfact>
</mgrwt>
</event>
<event>
 5    1  0.1281005E-004  0.9415960E+02  0.7546771E-02  0.1293080E+00
         21   -1    0    0  503  502  0.00000000000E+00  0.00000000000E+00  0.25056783820E+03  0.25056783820E+03  0.00000000000E+00 0.  1.
         21   -1    0    0  501  503 -0.00000000000E+00 -0.00000000000E+00 -0.36217322442E+02  0.36217322442E+02  0.00000000000E+00 0.  1.
         24    1    1    2    0    0  0.46582816977E+02  0.11114288237E+02  0.12620204334E+03  0.15712306622E+03  0.80419002446E+02 0.  1.
          1    1    1    2  501    0  0.60958080571E+01  0.28287309401E+02  0.21798926538E+02  0.36228772367E+02  0.00000000000E+00 0. -1.
         -2    1    1    2    0  502 -0.52678625034E+02 -0.39401597638E+02  0.66349545879E+02  0.93433322055E+02  0.00000000000E+00 0.  1.
<mgrwt>
<rscale>  2 0.94159603E+02</rscale>
<asrwt>0</asrwt>
<pdfrwt beam="1">  1       21 0.38548897E-01 0.94159603E+02</pdfrwt>
<pdfrwt beam="2">  1       21 0.55718959E-02 0.94159603E+02</pdfrwt>
<totfact> 0.14395584E+06</totfact>
</mgrwt>
</event>
<event>
 5    1  0.1281005E-004  0.1620706E+03  0.7546771E-02  0.1186379E+00
         21   -1    0    0  501  502  0.00000000000E+00  0.00000000000E+00  0.25968176804E+03  0.25968176804E+03  0.00000000000E+00 0. -1.
         21   -1    0    0  502  503 -0.00000000000E+00 -0.00000000000E+00 -0.10844076335E+03  0.10844076335E+03  0.00000000000E+00 0.  1.
         24    1    1    2    0    0 -0.10446621301E+03 -0.85059271955E+02  0.12071762792E+03  0.19796017541E+03  0.80419002446E+02 0. -1.
          1    1    1    2  501    0  0.12391174569E+03  0.78688357489E+02  0.24371207639E+02  0.14879493972E+03  0.00000000000E+00 0. -1.
         -2    1    1    2    0  503 -0.19445532682E+02  0.63709144657E+01  0.61521691335E+01  0.21367416256E+02  0.00000000000E+00 0.  1.
<mgrwt>
<rscale>  2 0.16207065E+03</rscale>
<asrwt>0</asrwt>
<pdfrwt beam="1">  1       21 0.39951041E-01 0.16207065E+03</pdfrwt>
<pdfrwt beam="2">  1       21 0.16683194E-01 0.16207065E+03</pdfrwt>
<totfact> 0.19679756E+05</totfact>
</mgrwt>
</event>
<event>
 5    1  0.1281005E-004  0.2508422E+03  0.7546771E-02  0.1112774E+00
         21   -1    0    0  503  502  0.00000000000E+00  0.00000000000E+00  0.64445411804E+02  0.64445411804E+02  0.00000000000E+00 0. -1.
         21   -1    0    0  501  503 -0.00000000000E+00 -0.00000000000E+00 -0.10121315476E+04  0.10121315476E+04  0.00000000000E+00 0.  1.
         24    1    1    2    0    0 -0.24258606038E+02  0.92730569227E+02 -0.27890438651E+03  0.30568335121E+03  0.80419002446E+02 0.  0.
          1    1    1    2  501    0  0.20298079765E+02  0.14117503205E+03 -0.18572897611E+03  0.23417440996E+03  0.00000000000E+00 0. -1.
         -2    1    1    2    0  502  0.39605262731E+01 -0.23390560127E+03 -0.48305277317E+03  0.53671919823E+03  0.00000000000E+00 0.  1.
<mgrwt>
<rscale>  2 0.25084224E+03</rscale>
<asrwt>0</asrwt>
<pdfrwt beam="1">  1       21 0.99146792E-02 0.25084224E+03</pdfrwt>
<pdfrwt beam="2">  1       21 0.15571254E+00 0.25084224E+03</pdfrwt>
<totfact> 0.21526686E+04</totfact>
</mgrwt>
</event>
<event>
 5    1  0.1281005E-004  0.1887702E+03  0.7546771E-02  0.1159575E+00
         21   -1    0    0  503  502  0.00000000000E+00  0.00000000000E+00  0.72147066462E+03  0.72147066462E+03  0.00000000000E+00 0.  1.
         21   -1    0    0  501  503 -0.00000000000E+00 -0.00000000000E+00 -0.51428032826E+02  0.51428032826E+02  0.00000000000E+00 0. -1.
         24    1    1    2    0    0 -0.20021542471E+02 -0.15398922173E+02  0.13439680007E+03  0.15864332570E+03  0.80419002446E+02 0.  1.
          1    1    1    2  501    0  0.14701790756E+03 -0.43414384978E+02  0.21172854273E+03  0.26139634614E+03  0.00000000000E+00 0. -1.
         -2    1    1    2    0  502 -0.12699636509E+03  0.58813307152E+02  0.32391728899E+03  0.35285902561E+03  0.00000000000E+00 0.  1.
<mgrwt>
<rscale>  2 0.18877016E+03</rscale>
<asrwt>0</asrwt>
<pdfrwt beam="1">  1       21 0.11099548E+00 0.18877016E+03</pdfrwt>
<pdfrwt beam="2">  1       21 0.79120056E-02 0.18877016E+03</pdfrwt>
<totfact> 0.78310397E+04</totfact>
</mgrwt>
</event>
<event>
 5    1  0.1281005E-004  0.1386632E+03  0.7546771E-02  0.1215139E+00
         21   -1    0    0  503  502  0.00000000000E+00  0.00000000000E+00  0.55874240447E+02  0.55874240447E+02  0.00000000000E+00 0.  1.
         21   -1    0    0  501  503 -0.00000000000E+00 -0.00000000000E+00 -0.36674401007E+03  0.36674401007E+03  0.00000000000E+00 0. -1.
         24    1    1    2    0    0  0.27397506829E+02 -0.79506753125E+01 -0.14803750784E+03  0.17086882776E+03  0.80419002446E+02 0. -1.
          1    1    1    2  501    0 -0.93252970678E+02  0.57524743668E+02 -0.93376443586E+02  0.14395962243E+03  0.00000000000E+00 0. -1.
         -2    1    1    2    0  502  0.65855463849E+02 -0.49574068355E+02 -0.69455818192E+02  0.10778980032E+03  0.00000000000E+00 0.  1.
<mgrwt>
<rscale>  2 0.13866316E+03</rscale>
<asrwt>0</asrwt>
<pdfrwt beam="1">  1       21 0.85960368E-02 0.13866316E+03</pdfrwt>
<pdfrwt beam="2">  1       21 0.56422157E-01 0.13866316E+03</pdfrwt>
<totfact> 0.31648960E+05</totfact>
</mgrwt>
</event>
<event>
 5    1  0.1281005E-004  0.9903284E+02  0.7546771E-02  0.1282343E+00
         21   -1    0    0  501  502  0.00000000000E+00  0.00000000000E+00  0.21714563152E+02  0.21714563152E+02  0.00000000000E+00 0.  1.
         21   -1    0    0  502  503 -0.00000000000E+00 -0.00000000000E+00 -0.51214609698E+03  0.51214609698E+03  0.00000000000E+00 0.  1.
         24    1    1    2    0    0  0.77137282515E+01  0.45605840992E+02 -0.15438311644E+03  0.18011317812E+03  0.80419002446E+02 0.  1.
          1    1    1    2  501    0  0.27308903209E+02  0.17983112756E+02 -0.60207034662E+02  0.68513178015E+02  0.00000000000E+00 0. -1.
         -2    1    1    2    0  503 -0.35022631461E+02 -0.63588953748E+02 -0.27584138272E+03  0.28523430400E+03  0.00000000000E+00 0.  1.
<mgrwt>
<rscale>  2 0.99032845E+02</rscale>
<asrwt>0</asrwt>
<pdfrwt beam="1">  1       21 0.33407024E-02 0.99032845E+02</pdfrwt>
<pdfrwt beam="2">  1       21 0.78791699E-01 0.99032845E+02</pdfrwt>
<totfact> 0.75867631E+05</totfact>
</mgrwt>
</event>
<event>
 5    1  0.1281005E-004  0.1402590E+03  0.7546771E-02  0.1212981E+00
         21   -1    0    0  503  502  0.00000000000E+00  0.00000000000E+00  0.24539767587E+02  0.24539767587E+02  0.00000000000E+00 0. -1.
         21   -1    0    0  501  503 -0.00000000000E+00 -0.00000000000E+00 -0.80256873141E+03  0.80256873141E+03  0.00000000000E+00 0.  1.
         24    1    1    2    0    0 -0.91308639748E+02 -0.10506624696E+02 -0.34630788574E+03  0.36721114435E+03  0.80419002446E+02 0.  1.
          1    1    1    2  501    0  0.12346597234E+03 -0.30254825285E+01 -0.32938634496E+03  0.35177885683E+03  0.00000000000E+00 0. -1.
         -2    1    1    2    0  502 -0.32157332593E+02  0.13532107225E+02 -0.10233473313E+03  0.10811849781E+03  0.00000000000E+00 0.  1.
<mgrwt>
<rscale>  2 0.14025903E+03</rscale>
<asrwt>0</asrwt>
<pdfrwt beam="1">  1       21 0.37753485E-02 0.14025903E+03</pdfrwt>
<pdfrwt beam="2">  1       21 0.12347212E+00 0.14025903E+03</pdfrwt>
<totfact> 0.21618036E+05</totfact>
</mgrwt>
</event>
<event>
 5    1  0.1281005E-004  0.1189027E+03  0.7546771E-02  0.1244918E+00
         21   -1    0    0  501  502  0.00000000000E+00  0.00000000000E+00  0.36915603846E+02  0.36915603846E+02  0.00000000000E+00 0.  1.
         21   -1    0    0  502  503 -0.00000000000E+00 -0.00000000000E+00 -0.39362541859E+03  0.39362541859E+03  0.00000000000E+00 0.  1.
         24    1    1    2    0    0 -0.23867319101E+02  0.80142950968E+02 -0.20386251355E+03  0.23456274618E+03  0.80419002446E+02 0.  1.
          1    1    1    2  501    0  0.48953186913E+01  0.19628620740E+02 -0.17390806648E+02  0.26677463393E+02  0.00000000000E+00 0. -1.
         -2    1    1    2    0  503  0.18972000409E+02 -0.99771571708E+02 -0.13545649455E+03  0.16930081286E+03  0.00000000000E+00 0.  1.
<mgrwt>
<rscale>  2 0.11890270E+03</rscale>
<asrwt>0</asrwt>
<pdfrwt beam="1">  1       21 0.56793240E-02 0.11890270E+03</pdfrwt>
<pdfrwt beam="2">  1       21 0.60557753E-01 0.11890270E+03</pdfrwt>
<totfact> 0.55514476E+05</totfact>
</mgrwt>
</event>
<event>
 5    1  0.1281005E-004  0.1231108E+03  0.7546771E-02  0.1238052E+00
         21   -1    0    0  501  502  0.00000000000E+00  0.00000000000E+00  0.27286644022E+02  0.27286644022E+02  0.00000000000E+00 0.  1.
         21   -1    0    0  502  503 -0.00000000000E+00 -0.00000000000E+00 -0.57017500464E+03  0.57017500464E+03  0.00000000000E+00 0. -1.
         24    1    1    2    0    0  0.16438884397E+02 -0.16554546132E+02 -0.17002972629E+03  0.18952998100E+03  0.80419002446E+02 0.  1.
          1    1    1    2  501    0 -0.81429694928E+02  0.43278553958E+02 -0.24900108084E+03  0.26552846685E+03  0.00000000000E+00 0. -1.
         -2    1    1    2    0  503  0.64990810532E+02 -0.26724007826E+02 -0.12385755349E+03  0.14240320082E+03  0.00000000000E+00 0.  1.
<mgrwt>
<rscale>  2 0.12311084E+03</rscale>
<asrwt>0</asrwt>
<pdfrwt beam="1">  1       21 0.41979452E-02 0.12311084E+03</pdfrwt>
<pdfrwt beam="2">  1       21 0.87719233E-01 0.12311084E+03</pdfrwt>
<totfact> 0.40838275E+05</totfact>
</mgrwt>
</event>
<event>
 5    1  0.1281005E-004  0.1739456E+03  0.7546771E-02  0.1173795E+00
         21   -1    0    0  501  502  0.00000000000E+00  0.00000000000E+00  0.46805536522E+03  0.46805536522E+03  0.00000000000E+00 0. -1.
         21   -1    0    0  502  503 -0.00000000000E+00 -0.00000000000E+00 -0.82799875235E+02  0.82799875235E+02  0.00000000000E+00 0.  1.
         24    1    1    2    0    0  0.92762732755E+02  0.64431139243E+02  0.24948499955E+03  0.28542297954E+03  0.80419002446E+02 0.  0.
          1    1    1    2  501    0  0.53089470617E+02 -0.13822441816E+02  0.88231211416E+02  0.10389561327E+03  0.00000000000E+00 0. -1.
         -2    1    1    2    0  503 -0.14585220337E+03 -0.50608697427E+02  0.47539279013E+02  0.16153664765E+03  0.00000000000E+00 0.  1.
<mgrwt>
<rscale>  2 0.17394562E+03</rscale>
<asrwt>0</asrwt>
<pdfrwt beam="1">  1       21 0.72008516E-01 0.17394562E+03</pdfrwt>
<pdfrwt beam="2">  1       21 0.12738443E-01 0.17394562E+03</pdfrwt>
<totfact> 0.92466581E+04</totfact>
</mgrwt>
</event>
<event>
 5    1  0.1281005E-004  0.1782587E+03  0.7546771E-02  0.1169499E+00
         21   -1    0    0  503  502  0.00000000000E+00  0.00000000000E+00  0.12343256044E+04  0.12343256044E+04  0.00000000000E+00 0. -1.
         21   -1    0    0  501  503 -0.00000000000E+00 -0.00000000000E+00 -0.28055948864E+02  0.28055948864E+02  0.00000000000E+00 0.  1.
         24    1    1    2    0    0 -0.80615670854E+02 -0.17305649225E+02  0.56746176987E+03  0.57903233770E+03  0.80419002446E+02 0. -1.
          1    1    1    2  501    0 -0.79737039752E+02  0.13984228593E+02  0.18163911542E+03  0.19886257166E+03  0.00000000000E+00 0. -1.
         -2    1    1    2    0  502  0.16035271061E+03  0.33214206318E+01  0.45716877028E+03  0.48448664393E+03  0.00000000000E+00 0.  1.
<mgrwt>
<rscale>  2 0.17825873E+03</rscale>
<asrwt>0</asrwt>
<pdfrwt beam="1">  1       21 0.18989621E+00 0.17825873E+03</pdfrwt>
<pdfrwt beam="2">  1       21 0.43163008E-02 0.17825873E+03</pdfrwt>
<totfact> 0.54358557E+04</totfact>
</mgrwt>
</event>
<event>
 5    1  0.1281005E-004  0.1795344E+03  0.7546771E-02  0.1168254E+00
         21   -1    0    0  503  502  0.00000000000E+00  0.00000000000E+00  0.80504510339E+03  0.80504510339E+03  0.00000000000E+00 0.  1.
         21   -1    0    0  501  503 -0.00000000000E+00 -0.00000000000E+00 -0.41054150733E+02  0.41054150733E+02  0.00000000000E+00 0.  1.
         24    1    1    2    0    0 -0.48943728963E+02 -0.68685168458E+02  0.31367595668E+03  0.33462361352E+03  0.80419002446E+02 0.  1.
          1    1    1    2  501    0 -0.13568591813E+02 -0.80052258075E+02  0.14978282234E+03  0.17037418988E+03  0.00000000000E+00 0. -1.
         -2    1    1    2    0  502  0.62512320776E+02  0.14873742653E+03  0.30053217363E+03  0.34110145073E+03  0.00000000000E+00 0.  1.
<mgrwt>
<rscale>  2 0.17953444E+03</rscale>
<asrwt>0</asrwt>
<pdfrwt beam="1">  1       21 0.12385308E+00 0.17953444E+03</pdfrwt>
<pdfrwt beam="2">  1       21 0.63160238E-02 0.17953444E+03</pdfrwt>
<totfact> 0.88669425E+04</totfact>
</mgrwt>
</event>
<event>
 5    1  0.1281005E-004  0.6687968E+02  0.7546771E-02  0.1371037E+00
         21   -1    0    0  503  502  0.00000000000E+00  0.00000000000E+00  0.37437770331E+03  0.37437770331E+03  0.00000000000E+00 0.  1.
         21   -1    0    0  501  503 -0.00000000000E+00 -0.00000000000E+00 -0.12361003917E+02  0.12361003917E+02  0.00000000000E+00 0. -1.
         24    1    1    2    0    0 -0.28453460256E+02 -0.13782770888E+02  0.26540960657E+03  0.27912190775E+03  0.80419002446E+02 0.  1.
          1    1    1    2  501    0  0.84402301086E+01  0.23595330654E+02  0.54016793975E+02  0.59546546032E+02  0.00000000000E+00 0. -1.
         -2    1    1    2    0  502  0.20013230147E+02 -0.98125597660E+01  0.42590298846E+02  0.48070253440E+02  0.00000000000E+00 0.  1.
<mgrwt>
<rscale>  2 0.66879684E+02</rscale>
<asrwt>0</asrwt>
<pdfrwt beam="1">  1       21 0.57596561E-01 0.66879684E+02</pdfrwt>
<pdfrwt beam="2">  1       21 0.19016932E-02 0.66879684E+02</pdfrwt>
<totfact> 0.36263095E+06</totfact>
</mgrwt>
</event>
<event>
 5    1  0.1281005E-004  0.2390708E+03  0.7546771E-02  0.1120413E+00
         21   -1    0    0  501  502  0.00000000000E+00  0.00000000000E+00  0.32210672113E+03  0.32210672113E+03  0.00000000000E+00 0.  1.
         21   -1    0    0  502  503 -0.00000000000E+00 -0.00000000000E+00 -0.18849920351E+03  0.18849920351E+03  0.00000000000E+00 0.  1.
         24    1    1    2    0    0  0.56066605910E+02 -0.16737372317E+03  0.10353777033E+03  0.21987431261E+03  0.80419002446E+02 0.  1.
          1    1    1    2  501    0  0.51975879700E+02 -0.29379556681E+02 -0.15505973485E+02  0.61685376185E+02  0.00000000000E+00 0. -1.
         -2    1    1    2    0  503 -0.10804248561E+03  0.19675327985E+03  0.45575720772E+02  0.22904623584E+03  0.00000000000E+00 0.  1.
<mgrwt>
<rscale>  2 0.23907076E+03</rscale>
<asrwt>0</asrwt>
<pdfrwt beam="1">  1       21 0.49554880E-01 0.23907076E+03</pdfrwt>
<pdfrwt beam="2">  1       21 0.28999877E-01 0.23907076E+03</pdfrwt>
<totfact> 0.43231889E+04</totfact>
</mgrwt>
</event>
<event>
 5    1  0.1281005E-004  0.1854700E+03  0.7546771E-02  0.1162612E+00
         21   -1    0    0  501  502  0.00000000000E+00  0.00000000000E+00  0.17097201741E+03  0.17097201741E+03  0.00000000000E+00 0. -1.
         21   -1    0    0  502  503 -0.00000000000E+00 -0.00000000000E+00 -0.21381264112E+03  0.21381264112E+03  0.00000000000E+00 0.  1.
         24    1    1    2    0    0  0.76245980474E+02  0.16362465805E+02  0.99004178166E+01  0.11245627618E+03  0.80419002446E+02 0.  0.
          1    1    1    2  501    0  0.90956593292E+02 -0.11139295579E+02  0.13071753411E+02  0.92563796954E+02  0.00000000000E+00 0. -1.
         -2    1    1    2    0  503 -0.16720257377E+03 -0.52231702260E+01 -0.65812794936E+02  0.17976458538E+03  0.00000000000E+00 0.  1.
<mgrwt>
<rscale>  2 0.18546996E+03</rscale>
<asrwt>0</asrwt>
<pdfrwt beam="1">  1       21 0.26303387E-01 0.18546996E+03</pdfrwt>
<pdfrwt beam="2">  1       21 0.32894252E-01 0.18546996E+03</pdfrwt>
<totfact> 0.12256871E+05</totfact>
</mgrwt>
</event>
<event>
 5    1  0.1281005E-004  0.1637906E+03  0.7546771E-02  0.1184482E+00
         21   -1    0    0  501  502  0.00000000000E+00  0.00000000000E+00  0.98601568031E+02  0.98601568031E+02  0.00000000000E+00 0. -1.
         21   -1    0    0  502  503 -0.00000000000E+00 -0.00000000000E+00 -0.29450812541E+03  0.29450812541E+03  0.00000000000E+00 0.  1.
         24    1    1    2    0    0 -0.57622830129E+02  0.10379697220E+03 -0.14008891364E+03  0.20046526300E+03  0.80419002446E+02 0.  1.
          1    1    1    2  501    0  0.95272732022E+02 -0.11054888598E+03 -0.40624242641E+02  0.15148689299E+03  0.00000000000E+00 0. -1.
         -2    1    1    2    0  503 -0.37649901893E+02  0.67519137836E+01 -0.15193401104E+02  0.41157537455E+02  0.00000000000E+00 0.  1.
<mgrwt>
<rscale>  2 0.16379062E+03</rscale>
<asrwt>0</asrwt>
<pdfrwt beam="1">  1       21 0.15169472E-01 0.16379062E+03</pdfrwt>
<pdfrwt beam="2">  1       21 0.45308942E-01 0.16379062E+03</pdfrwt>
<totfact> 0.18119638E+05</totfact>
</mgrwt>
</event>
<event>
 5    1  0.1281005E-004  0.2041880E+03  0.7546771E-02  0.1146253E+00
         21   -1    0    0  501  502  0.00000000000E+00  0.00000000000E+00  0.14326504622E+03  0.14326504622E+03  0.00000000000E+00 0. -1.
         21   -1    0    0  502  503 -0.00000000000E+00 -0.00000000000E+00 -0.49816355445E+03  0.49816355445E+03  0.00000000000E+00 0.  1.
         24    1    1    2    0    0  0.12182058281E+02  0.64702588923E+01 -0.43058708576E+02  0.92257981404E+02  0.80419002446E+02 0. -1.
          1    1    1    2  501    0 -0.94225785305E+02 -0.14077608715E+03  0.30742257165E+02  0.17216704593E+03  0.00000000000E+00 0. -1.
         -2    1    1    2    0  503  0.82043727024E+02  0.13430582826E+03 -0.34258205682E+03  0.37700357333E+03  0.00000000000E+00 0.  1.
<mgrwt>
<rscale>  2 0.20418798E+03</rscale>
<asrwt>0</asrwt>
<pdfrwt beam="1">  1       21 0.22040777E-01 0.20418798E+03</pdfrwt>
<pdfrwt beam="2">  1       21 0.76640546E-01 0.20418798E+03</pdfrwt>
<totfact> 0.28949801E+04</totfact>
</mgrwt>
</event>
<event>
 5    1  0.1281005E-004  0.4022204E+03  0.7546771E-02  0.1043014E+00
         21   -1    0    0  501  502  0.00000000000E+00  0.00000000000E+00  0.28297703702E+03  0.28297703702E+03  0.00000000000E+00 0.  1.
         21   -1    0    0  502  503 -0.00000000000E+00 -0.00000000000E+00 -0.57587655922E+03  0.57587655922E+03  0.00000000000E+00 0. -1.
         24    1    1    2    0    0 -0.98150967971E+02 -0.31405134693E+03 -0.11470201504E+03  0.35761100267E+03  0.80419002446E+02 0.  0.
          1    1    1    2  501    0 -0.29878810777E+02 -0.61811391442E+02 -0.75911657734E+01  0.69072550577E+02  0.00000000000E+00 0. -1.
         -2    1    1    2    0  503  0.12802977875E+03  0.37586273837E+03 -0.17060634138E+03  0.43217004300E+03  0.00000000000E+00 0.  1.
<mgrwt>
<rscale>  2 0.40222037E+03</rscale>
<asrwt>0</asrwt>
<pdfrwt beam="1">  1       21 0.43534929E-01 0.40222037E+03</pdfrwt>
<pdfrwt beam="2">  1       21 0.88596393E-01 0.40222037E+03</pdfrwt>
<totfact> 0.49363404E+03</totfact>
</mgrwt>
</event>
<event>
 5    1  0.1281005E-004  0.1742180E+03  0.7546771E-02  0.1173519E+00
         21   -1    0    0  503  502  0.00000000000E+00  0.00000000000E+00  0.57971705123E+02  0.57971705123E+02  0.00000000000E+00 0.  1.
         21   -1    0    0  501  503 -0.00000000000E+00 -0.00000000000E+00 -0.73567378189E+03  0.73567378189E+03  0.00000000000E+00 0. -1.
         24    1    1    2    0    0  0.38992158544E+02  0.68297557622E+02 -0.51218314634E+02  0.12359399869E+03  0.80419002446E+02 0.  1.
          1    1    1    2  501    0 -0.90435198423E+02 -0.12826753453E+03 -0.37724826858E+03  0.40859190114E+03  0.00000000000E+00 0. -1.
         -2    1    1    2    0  502  0.51443039879E+02  0.59969976909E+02 -0.24923549355E+03  0.26145958718E+03  0.00000000000E+00 0.  1.
<mgrwt>
<rscale>  2 0.17421803E+03</rscale>
<asrwt>0</asrwt>
<pdfrwt beam="1">  1       21 0.89187228E-02 0.17421803E+03</pdfrwt>
<pdfrwt beam="2">  1       21 0.11318060E+00 0.17421803E+03</pdfrwt>
<totfact> 0.61041744E+04</totfact>
</mgrwt>
</event>
<event>
 5    1  0.1281005E-004  0.1537236E+03  0.7546771E-02  0.1195971E+00
         21   -1    0    0  503  502  0.00000000000E+00  0.00000000000E+00  0.19962228882E+03  0.19962228882E+03  0.00000000000E+00 0. -1.
         21   -1    0    0  501  503 -0.00000000000E+00 -0.00000000000E+00 -0.12095943346E+03  0.12095943346E+03  0.00000000000E+00 0.  1.
         24    1    1    2    0    0 -0.60387766034E+02 -0.30319576486E+02  0.37494619295E+02  0.11153036105E+03  0.80419002446E+02 0.  0.
          1    1    1    2  501    0  0.68332804154E+02 -0.72299834411E+02  0.36674883818E+02  0.10602681398E+03  0.00000000000E+00 0. -1.
         -2    1    1    2    0  502 -0.79450381197E+01  0.10261941090E+03  0.44933522427E+01  0.10302454726E+03  0.00000000000E+00 0.  1.
<mgrwt>
<rscale>  2 0.15372364E+03</rscale>
<asrwt>0</asrwt>
<pdfrwt beam="1">  1       21 0.30711121E-01 0.15372364E+03</pdfrwt>
<pdfrwt beam="2">  1       21 0.18609144E-01 0.15372364E+03</pdfrwt>
<totfact> 0.27126387E+05</totfact>
</mgrwt>
</event>
<event>
 5    1  0.1281005E-004  0.9774790E+02  0.7546771E-02  0.1285104E+00
         21   -1    0    0  503  502  0.00000000000E+00  0.00000000000E+00  0.39388764348E+02  0.39388764348E+02  0.00000000000E+00 0.  1.
         21   -1    0    0  501  503 -0.00000000000E+00 -0.00000000000E+00 -0.24643036617E+03  0.24643036617E+03  0.00000000000E+00 0. -1.
         24    1    1    2    0    0 -0.19509452459E+02 -0.33020986315E+02 -0.79839957601E+02  0.11963544231E+03  0.80419002446E+02 0.  0.
          1    1    1    2  501    0 -0.12121838962E+02 -0.31930957310E+02 -0.48882159553E+02  0.59632126719E+02  0.00000000000E+00 0. -1.
         -2    1    1    2    0  502  0.31631291420E+02  0.64951943625E+02 -0.78319484672E+02  0.10655156149E+03  0.00000000000E+00 0.  1.
<mgrwt>
<rscale>  2 0.97747899E+02</rscale>
<asrwt>0</asrwt>
<pdfrwt beam="1">  1       21 0.60598100E-02 0.97747899E+02</pdfrwt>
<pdfrwt beam="2">  1       21 0.37912363E-01 0.97747899E+02</pdfrwt>
<totfact> 0.12930233E+06</totfact>
</mgrwt>
</event>
<event>
 5    1  0.1281005E-004  0.1293782E+03  0.7546771E-02  0.1228381E+00
         21   -1    0    0  503  502  0.00000000000E+00  0.00000000000E+00  0.44032629160E+03  0.44032629160E+03  0.00000000000E+00 0. -1.
         21   -1    0    0  501  503 -0.00000000000E+00 -0.00000000000E+00 -0.40614576001E+02  0.40614576001E+02  0.00000000000E+00 0.  1.
         24    1    1    2    0    0 -0.29554956886E+02  0.75701638137E+02  0.12068142219E+03  0.16623915035E+03  0.80419002446E+02 0.  1.
          1    1    1    2  501    0  0.36267776013E+02 -0.10670709963E+03  0.20047507695E+03  0.22998263666E+03  0.00000000000E+00 0. -1.
         -2    1    1    2    0  502 -0.67128191270E+01  0.31005461490E+02  0.78555216464E+02  0.84719080593E+02  0.00000000000E+00 0.  1.
<mgrwt>
<rscale>  2 0.12937816E+03</rscale>
<asrwt>0</asrwt>
<pdfrwt beam="1">  1       21 0.67742503E-01 0.12937816E+03</pdfrwt>
<pdfrwt beam="2">  1       21 0.62483966E-02 0.12937816E+03</pdfrwt>
<totfact> 0.37087043E+05</totfact>
</mgrwt>
</event>
<event>
 5    1  0.1281005E-004  0.3482054E+03  0.7546771E-02  0.1063354E+00
         21   -1    0    0  503  502  0.00000000000E+00  0.00000000000E+00  0.16543006814E+03  0.16543006814E+03  0.00000000000E+00 0.  1.
         21   -1    0    0  501  503 -0.00000000000E+00 -0.00000000000E+00 -0.73881944974E+03  0.73881944974E+03  0.00000000000E+00 0. -1.
         24    1    1    2    0    0 -0.11942104004E+03  0.48412766651E+02 -0.13039825885E+03  0.20019016620E+03  0.80419002446E+02 0.  0.
          1    1    1    2  501    0  0.29532050100E+03 -0.16032398829E+03 -0.30691451934E+03  0.45509834290E+03  0.00000000000E+00 0. -1.
         -2    1    1    2    0  502 -0.17589946095E+03  0.11191122163E+03 -0.13607660342E+03  0.24896100877E+03  0.00000000000E+00 0.  1.
<mgrwt>
<rscale>  2 0.34820535E+03</rscale>
<asrwt>0</asrwt>
<pdfrwt beam="1">  1       21 0.25450780E-01 0.34820535E+03</pdfrwt>
<pdfrwt beam="2">  1       21 0.11366453E+00 0.34820535E+03</pdfrwt>
<totfact> 0.80992969E+03</totfact>
</mgrwt>
</event>
<event>
 5    1  0.1281005E-004  0.1287011E+03  0.7546771E-02  0.1229396E+00
         21   -1    0    0  501  502  0.00000000000E+00  0.00000000000E+00  0.20167024507E+03  0.20167024507E+03  0.00000000000E+00 0.  1.
         21   -1    0    0  502  503 -0.00000000000E+00 -0.00000000000E+00 -0.84652592533E+02  0.84652592533E+02  0.00000000000E+00 0.  1.
         24    1    1    2    0    0 -0.75592304529E+02  0.37420355140E+01  0.73335898268E+02  0.13256533960E+03  0.80419002446E+02 0.  1.
          1    1    1    2  501    0 -0.35572159890E+02  0.22517723794E+01  0.15829669420E+02  0.39000352204E+02  0.00000000000E+00 0. -1.
         -2    1    1    2    0  503  0.11116446442E+03 -0.59938078933E+01  0.27852084853E+02  0.11475714580E+03  0.00000000000E+00 0.  1.
<mgrwt>
<rscale>  2 0.12870107E+03</rscale>
<asrwt>0</asrwt>
<pdfrwt beam="1">  1       21 0.31026191E-01 0.12870107E+03</pdfrwt>
<pdfrwt beam="2">  1       21 0.13023476E-01 0.12870107E+03</pdfrwt>
<totfact> 0.50961455E+05</totfact>
</mgrwt>
</event>
<event>
 5    1  0.1281005E-004  0.2056196E+03  0.7546771E-02  0.1145083E+00
         21   -1    0    0  501  502  0.00000000000E+00  0.00000000000E+00  0.16096266005E+03  0.16096266005E+03  0.00000000000E+00 0.  1.
         21   -1    0    0  502  503 -0.00000000000E+00 -0.00000000000E+00 -0.27672286276E+03  0.27672286276E+03  0.00000000000E+00 0. -1.
         24    1    1    2    0    0  0.62893915987E+02  0.77917308902E+02  0.72434415993E+01  0.12863294716E+03  0.80419002446E+02 0.  0.
          1    1    1    2  501    0  0.25908568145E+02 -0.15987919439E+03 -0.81210284174E+02  0.18118421829E+03  0.00000000000E+00 0. -1.
         -2    1    1    2    0  503 -0.88802484132E+02  0.81961885491E+02 -0.41793360135E+02  0.12786835735E+03  0.00000000000E+00 0.  1.
<mgrwt>
<rscale>  2 0.20561959E+03</rscale>
<asrwt>0</asrwt>
<pdfrwt beam="1">  1       21 0.24763486E-01 0.20561959E+03</pdfrwt>
<pdfrwt beam="2">  1       21 0.42572748E-01 0.20561959E+03</pdfrwt>
<totfact> 0.81415403E+04</totfact>
</mgrwt>
</event>
<event>
 5    1  0.1281005E-004  0.1938356E+03  0.7546771E-02  0.1155047E+00
         21   -1    0    0  501  502  0.00000000000E+00  0.00000000000E+00  0.40810004813E+03  0.40810004813E+03  0.00000000000E+00 0. -1.
         21   -1    0    0  502  503 -0.00000000000E+00 -0.00000000000E+00 -0.92212129090E+02  0.92212129090E+02  0.00000000000E+00 0.  1.
         24    1    1    2    0    0 -0.14998514442E+02 -0.10509381531E+03  0.11732420903E+03  0.17748760923E+03  0.80419002446E+02 0. -1.
          1    1    1    2  501    0 -0.15357106867E+02 -0.72608521881E+02  0.55192815662E+02  0.92488297000E+02  0.00000000000E+00 0. -1.
         -2    1    1    2    0  503  0.30355621309E+02  0.17770233719E+03  0.14337089434E+03  0.23033627098E+03  0.00000000000E+00 0.  1.
<mgrwt>
<rscale>  2 0.19383555E+03</rscale>
<asrwt>0</asrwt>
<pdfrwt beam="1">  1       21 0.62784622E-01 0.19383555E+03</pdfrwt>
<pdfrwt beam="2">  1       21 0.14186482E-01 0.19383555E+03</pdfrwt>
<totfact> 0.10196526E+05</totfact>
</mgrwt>
</event>
<event>
 5    1  0.1281005E-004  0.1577956E+03  0.7546771E-02  0.1191208E+00
         21   -1    0    0  501  502  0.00000000000E+00  0.00000000000E+00  0.42644583651E+03  0.42644583651E+03  0.00000000000E+00 0.  1.
         21   -1    0    0  502  503 -0.00000000000E+00 -0.00000000000E+00 -0.77804817547E+02  0.77804817547E+02  0.00000000000E+00 0. -1.
         24    1    1    2    0    0  0.84087990205E+01 -0.40885698868E+02  0.15542863809E+01  0.90619975907E+02  0.80419002446E+02 0. -1.
          1    1    1    2  501    0 -0.11477812843E+03  0.24442086790E+02  0.17942967365E+03  0.21439785950E+03  0.00000000000E+00 0. -1.
         -2    1    1    2    0  503  0.10636932941E+03  0.16443612078E+02  0.16765705893E+03  0.19923281865E+03  0.00000000000E+00 0.  1.
<mgrwt>
<rscale>  2 0.15779562E+03</rscale>
<asrwt>0</asrwt>
<pdfrwt beam="1">  1       21 0.65607050E-01 0.15779562E+03</pdfrwt>
<pdfrwt beam="2">  1       21 0.11969972E-01 0.15779562E+03</pdfrwt>
<totfact> 0.12751998E+05</totfact>
</mgrwt>
</event>
<event>
 5    1  0.1281005E-004  0.1633662E+03  0.7546771E-02  0.1184948E+00
         21   -1    0    0  503  502  0.00000000000E+00  0.00000000000E+00  0.18429359871E+03  0.18429359871E+03  0.00000000000E+00 0.  1.
         21   -1    0    0  501  503 -0.00000000000E+00 -0.00000000000E+00 -0.14946739965E+03  0.14946739965E+03  0.00000000000E+00 0. -1.
         24    1    1    2    0    0 -0.11262374622E+02 -0.40675636533E+02 -0.11107569002E+02  0.91498319837E+02  0.80419002446E+02 0. -1.
          1    1    1    2  501    0 -0.47055715354E+02 -0.85116559644E+02  0.34274032184E+02  0.10312021313E+03  0.00000000000E+00 0. -1.
         -2    1    1    2    0  502  0.58318089976E+02  0.12579219618E+03  0.11659735876E+02  0.13914246540E+03  0.00000000000E+00 0.  1.
<mgrwt>
<rscale>  2 0.16336622E+03</rscale>
<asrwt>0</asrwt>
<pdfrwt beam="1">  1       21 0.28352861E-01 0.16336622E+03</pdfrwt>
<pdfrwt beam="2">  1       21 0.22994985E-01 0.16336622E+03</pdfrwt>
<totfact> 0.21291165E+05</totfact>
</mgrwt>
</event>
<event>
 5    1  0.1281005E-004  0.1147995E+03  0.7546771E-02  0.1251931E+00
         21   -1    0    0  501  502  0.00000000000E+00  0.00000000000E+00  0.22179345554E+03  0.22179345554E+03  0.00000000000E+00 0. -1.
         21   -1    0    0  502  503 -0.00000000000E+00 -0.00000000000E+00 -0.61003880784E+02  0.61003880784E+02  0.00000000000E+00 0.  1.
         24    1    1    2    0    0 -0.33913959820E+01  0.22067751956E+02  0.74335350418E+02  0.11176514447E+03  0.80419002446E+02 0. -1.
          1    1    1    2  501    0 -0.33477082059E+02  0.52895550998E+02  0.25379237510E+02  0.67548205270E+02  0.00000000000E+00 0. -1.
         -2    1    1    2    0  503  0.36868478041E+02 -0.74963302954E+02  0.61074986829E+02  0.10348398658E+03  0.00000000000E+00 0.  1.
<mgrwt>
<rscale>  2 0.11479952E+03</rscale>
<asrwt>0</asrwt>
<pdfrwt beam="1">  1       21 0.34122070E-01 0.11479952E+03</pdfrwt>
<pdfrwt beam="2">  1       21 0.93852125E-02 0.11479952E+03</pdfrwt>
<totfact> 0.75394678E+05</totfact>
</mgrwt>
</event>
<event>
 5    1  0.1281005E-004  0.3146508E+03  0.7546771E-02  0.1078138E+00
         21   -1    0    0  501  502  0.00000000000E+00  0.00000000000E+00  0.57640346405E+03  0.57640346405E+03  0.00000000000E+00 0. -1.
         21   -1    0    0  502  503 -0.00000000000E+00 -0.00000000000E+00 -0.18454580445E+03  0.18454580445E+03  0.00000000000E+00 0.  1.
         24    1    1    2    0    0  0.10110270770E+03 -0.11574428204E+03  0.55180300095E+02  0.18201806999E+03  0.80419002446E+02 0.  0.
          1    1    1    2  501    0 -0.76015949816E+01 -0.16231371576E+03  0.53177651729E+02  0.17097189597E+03  0.00000000000E+00 0. -1.
         -2    1    1    2    0  503 -0.93501112717E+02  0.27805799780E+03  0.28349970778E+03  0.40795930254E+03  0.00000000000E+00 0.  1.
<mgrwt>
<rscale>  2 0.31465080E+03</rscale>
<asrwt>0</asrwt>
<pdfrwt beam="1">  1       21 0.88677455E-01 0.31465080E+03</pdfrwt>
<pdfrwt beam="2">  1       21 0.28391662E-01 0.31465080E+03</pdfrwt>
<totfact> 0.12076241E+04</totfact>
</mgrwt>
</event>
<event>
 5    1  0.1281005E-004  0.1713183E+03  0.7546771E-02  0.1176480E+00
         21   -1    0    0  503  502  0.00000000000E+00  0.00000000000E+00  0.11349280929E+03  0.11349280929E+03  0.00000000000E+00 0. -1.
         21   -1    0    0  501  503 -0.00000000000E+00 -0.00000000000E+00 -0.28354514489E+03  0.28354514489E+03  0.00000000000E+00 0.  1.
         24    1    1    2    0    0 -0.11997216025E+02 -0.19606624183E+02 -0.64895249863E+02  0.10586294117E+03  0.80419002446E+02 0.  1.
          1    1    1    2  501    0  0.12905465862E+03 -0.28960664389E+02 -0.98997251558E+01  0.13263419451E+03  0.00000000000E+00 0. -1.
         -2    1    1    2    0  502 -0.11705744260E+03  0.48567288572E+02 -0.95257360578E+02  0.15854081850E+03  0.00000000000E+00 0.  1.
<mgrwt>
<rscale>  2 0.17131832E+03</rscale>
<asrwt>0</asrwt>
<pdfrwt beam="1">  1       21 0.17460432E-01 0.17131832E+03</pdfrwt>
<pdfrwt beam="2">  1       21 0.43622330E-01 0.17131832E+03</pdfrwt>
<totfact> 0.15104366E+05</totfact>
</mgrwt>
</event>
<event>
 5    1  0.1281005E-004  0.2337563E+03  0.7546771E-02  0.1124023E+00
         21   -1    0    0  503  502  0.00000000000E+00  0.00000000000E+00  0.10021503200E+03  0.10021503200E+03  0.00000000000E+00 0. -1.
         21   -1    0    0  501  503 -0.00000000000E+00 -0.00000000000E+00 -0.56499595274E+03  0.56499595274E+03  0.00000000000E+00 0.  1.
         24    1    1    2    0    0  0.13751541391E+03 -0.92403853574E+02 -0.24443805334E+03  0.30604924292E+03  0.80419002446E+02 0.  0.
          1    1    1    2  501    0 -0.18741122740E+03  0.12360410506E+03 -0.16796436475E+03  0.28038004702E+03  0.00000000000E+00 0. -1.
         -2    1    1    2    0  502  0.49895813484E+02 -0.31200251484E+02 -0.52378502648E+02  0.78781694800E+02  0.00000000000E+00 0.  1.
<mgrwt>
<rscale>  2 0.23375633E+03</rscale>
<asrwt>0</asrwt>
<pdfrwt beam="1">  1       21 0.15417697E-01 0.23375633E+03</pdfrwt>
<pdfrwt beam="2">  1       21 0.86922454E-01 0.23375633E+03</pdfrwt>
<totfact> 0.41618076E+04</totfact>
</mgrwt>
</event>
<event>
 5    1  0.1281005E-004  0.2576408E+03  0.7546771E-02  0.1108569E+00
         21   -1    0    0  503  502  0.00000000000E+00  0.00000000000E+00  0.48129390588E+03  0.48129390588E+03  0.00000000000E+00 0.  1.
         21   -1    0    0  501  503 -0.00000000000E+00 -0.00000000000E+00 -0.14823567479E+03  0.14823567479E+03  0.00000000000E+00 0. -1.
         24    1    1    2    0    0  0.22821595666E+02 -0.19182871732E+03  0.19661800137E+03  0.28713226296E+03  0.80419002446E+02 0.  1.
          1    1    1    2  501    0 -0.11026137934E+03  0.18867748772E+03  0.61048127241E+02  0.22690006608E+03  0.00000000000E+00 0. -1.
         -2    1    1    2    0  502  0.87439783679E+02  0.31512296010E+01  0.75392102478E+02  0.11549725163E+03  0.00000000000E+00 0.  1.
<mgrwt>
<rscale>  2 0.25764076E+03</rscale>
<asrwt>0</asrwt>
<pdfrwt beam="1">  1       21 0.74045215E-01 0.25764076E+03</pdfrwt>
<pdfrwt beam="2">  1       21 0.22805489E-01 0.25764076E+03</pdfrwt>
<totfact> 0.28556527E+04</totfact>
</mgrwt>
</event>
<event>
 5    1  0.1281005E-004  0.1741681E+03  0.7546771E-02  0.1173570E+00
         21   -1    0    0  501  502  0.00000000000E+00  0.00000000000E+00  0.31564075717E+03  0.31564075717E+03  0.00000000000E+00 0.  1.
         21   -1    0    0  502  503 -0.00000000000E+00 -0.00000000000E+00 -0.96956629225E+02  0.96956629225E+02  0.00000000000E+00 0. -1.
         24    1    1    2    0    0  0.44476104303E+02 -0.92692477486E+02  0.83171131045E+02  0.15477296996E+03  0.80419002446E+02 0.  0.
          1    1    1    2  501    0 -0.73346163982E+02  0.14248372212E+03  0.85830241482E+02  0.18179136721E+03  0.00000000000E+00 0. -1.
         -2    1    1    2    0  503  0.28870059679E+02 -0.49791244635E+02  0.49682755420E+02  0.76033049224E+02  0.00000000000E+00 0.  1.
<mgrwt>
<rscale>  2 0.17416807E+03</rscale>
<asrwt>0</asrwt>
<pdfrwt beam="1">  1       21 0.48560116E-01 0.17416807E+03</pdfrwt>
<pdfrwt beam="2">  1       21 0.14916405E-01 0.17416807E+03</pdfrwt>
<totfact> 0.16141946E+05</totfact>
</mgrwt>
</event>
<event>
 5    1  0.1281005E-004  0.1132057E+03  0.7546771E-02  0.1254746E+00
         21   -1    0    0  503  502  0.00000000000E+00  0.00000000000E+00  0.30883837382E+03  0.30883837382E+03  0.00000000000E+00 0.  1.
         21   -1    0    0  501  503 -0.00000000000E+00 -0.00000000000E+00 -0.43357036525E+02  0.43357036525E+02  0.00000000000E+00 0.  1.
         24    1    1    2    0    0 -0.56668554219E+02  0.20735412898E+00  0.98642070980E+02  0.13931562064E+03  0.80419002446E+02 0.  1.
          1    1    1    2  501    0 -0.29042862960E+02 -0.25518299093E+02  0.27890509355E+02  0.47671291042E+02  0.00000000000E+00 0. -1.
         -2    1    1    2    0  502  0.85711417179E+02  0.25310944964E+02  0.13894875696E+03  0.16520849867E+03  0.00000000000E+00 0.  1.
<mgrwt>
<rscale>  2 0.11320565E+03</rscale>
<asrwt>0</asrwt>
<pdfrwt beam="1">  1       21 0.47513595E-01 0.11320565E+03</pdfrwt>
<pdfrwt beam="2">  1       21 0.66703135E-02 0.11320565E+03</pdfrwt>
<totfact> 0.70032275E+05</totfact>
</mgrwt>
</event>
<event>
 5    1  0.1281005E-004  0.3484332E+03  0.7546771E-02  0.1063260E+00
         21   -1    0    0  503  502  0.00000000000E+00  0.00000000000E+00  0.58871361878E+03  0.58871361878E+03  0.00000000000E+00 0. -1.
         21   -1    0    0  501  503 -0.00000000000E+00 -0.00000000000E+00 -0.21038883118E+03  0.21038883118E+03  0.00000000000E+00 0.  1.
         24    1    1    2    0    0 -0.20740299450E+03 -0.87286825433E+02  0.80069220466E+02  0.25201842798E+03  0.80419002446E+02 0.  1.
          1    1    1    2  501    0  0.32142173148E+03  0.12728703391E+02  0.22341638844E+03  0.39164886311E+03  0.00000000000E+00 0. -1.
         -2    1    1    2    0  502 -0.11401873697E+03  0.74558122043E+02  0.74839178696E+02  0.15543515887E+03  0.00000000000E+00 0.  1.
<mgrwt>
<rscale>  2 0.34843323E+03</rscale>
<asrwt>0</asrwt>
<pdfrwt beam="1">  1       21 0.90571325E-01 0.34843323E+03</pdfrwt>
<pdfrwt beam="2">  1       21 0.32367513E-01 0.34843323E+03</pdfrwt>
<totfact> 0.87469415E+03</totfact>
</mgrwt>
</event>
<event>
 5    1  0.1281005E-004  0.2139261E+03  0.7546771E-02  0.1138494E+00
         21   -1    0    0  503  502  0.00000000000E+00  0.00000000000E+00  0.11298123454E+03  0.11298123454E+03  0.00000000000E+00 0. -1.
         21   -1    0    0  501  503 -0.00000000000E+00 -0.00000000000E+00 -0.42514823818E+03  0.42514823818E+03  0.00000000000E+00 0.  1.
         24    1    1    2    0    0 -0.64733367862E+02  0.81202742581E+02 -0.15177834798E+03  0.20071915003E+03  0.80419002446E+02 0.  0.
          1    1    1    2  501    0  0.17295518115E+03 -0.25607805789E+02 -0.10254136783E+03  0.20269185115E+03  0.00000000000E+00 0. -1.
         -2    1    1    2    0  502 -0.10822181329E+03 -0.55594936792E+02 -0.57847287825E+02  0.13471847155E+03  0.00000000000E+00 0.  1.
<mgrwt>
<rscale>  2 0.21392612E+03</rscale>
<asrwt>0</asrwt>
<pdfrwt beam="1">  1       21 0.17381728E-01 0.21392612E+03</pdfrwt>
<pdfrwt beam="2">  1       21 0.65407422E-01 0.21392612E+03</pdfrwt>
<totfact> 0.63764925E+04</totfact>
</mgrwt>
</event>
<event>
 5    1  0.1281005E-004  0.1132192E+03  0.7546771E-02  0.1254722E+00
         21   -1    0    0  503  502  0.00000000000E+00  0.00000000000E+00  0.40612350111E+02  0.40612350111E+02  0.00000000000E+00 0. -1.
         21   -1    0    0  501  503 -0.00000000000E+00 -0.00000000000E+00 -0.31659169912E+03  0.31659169912E+03  0.00000000000E+00 0.  1.
         24    1    1    2    0    0  0.12713820098E+02 -0.20670888964E+02 -0.94513553145E+02  0.12644743791E+03  0.80419002446E+02 0. -1.
          1    1    1    2  501    0  0.33908758755E+02  0.68010117479E+02 -0.92361445410E+02  0.11960692538E+03  0.00000000000E+00 0. -1.
         -2    1    1    2    0  502 -0.46622578853E+02 -0.47339228515E+02 -0.89104350452E+02  0.11114968594E+03  0.00000000000E+00 0.  1.
<mgrwt>
<rscale>  2 0.11321921E+03</rscale>
<asrwt>0</asrwt>
<pdfrwt beam="1">  1       21 0.62480536E-02 0.11321921E+03</pdfrwt>
<pdfrwt beam="2">  1       21 0.48706417E-01 0.11321921E+03</pdfrwt>
<totfact> 0.74386578E+05</totfact>
</mgrwt>
</event>
<event>
 5    1  0.1281005E-004  0.2738034E+03  0.7546771E-02  0.1099122E+00
         21   -1    0    0  503  502  0.00000000000E+00  0.00000000000E+00  0.47920474073E+03  0.47920474073E+03  0.00000000000E+00 0.  1.
         21   -1    0    0  501  503 -0.00000000000E+00 -0.00000000000E+00 -0.16488676153E+03  0.16488676153E+03  0.00000000000E+00 0.  1.
         24    1    1    2    0    0  0.62140171054E+02  0.19635195355E+03  0.10077228950E+03  0.24297687299E+03  0.80419002446E+02 0.  1.
          1    1    1    2  501    0 -0.14726430730E+02  0.62061719812E+02  0.20177434571E+01  0.63816895229E+02  0.00000000000E+00 0. -1.
         -2    1    1    2    0  502 -0.47413740324E+02 -0.25841367336E+03  0.21152794624E+03  0.33729773405E+03  0.00000000000E+00 0.  1.
<mgrwt>
<rscale>  2 0.27380337E+03</rscale>
<asrwt>0</asrwt>
<pdfrwt beam="1">  1       21 0.73723806E-01 0.27380337E+03</pdfrwt>
<pdfrwt beam="2">  1       21 0.25367194E-01 0.27380337E+03</pdfrwt>
<totfact> 0.23351213E+04</totfact>
</mgrwt>
</event>
<event>
 5    1  0.1281005E-004  0.1247598E+03  0.7546771E-02  0.1235445E+00
         21   -1    0    0  503  502  0.00000000000E+00  0.00000000000E+00  0.54414621243E+03  0.54414621243E+03  0.00000000000E+00 0. -1.
         21   -1    0    0  501  503 -0.00000000000E+00 -0.00000000000E+00 -0.28771006061E+02  0.28771006061E+02  0.00000000000E+00 0.  1.
         24    1    1    2    0    0  0.67198726028E+02  0.62103018626E+01  0.23658985748E+03  0.25883626726E+03  0.80419002446E+02 0.  1.
          1    1    1    2  501    0 -0.95177618856E+02  0.29061066195E+02  0.19779246125E+03  0.22141631021E+03  0.00000000000E+00 0. -1.
         -2    1    1    2    0  502  0.27978892827E+02 -0.35271368058E+02  0.80992887633E+02  0.92664641021E+02  0.00000000000E+00 0.  1.
<mgrwt>
<rscale>  2 0.12475976E+03</rscale>
<asrwt>0</asrwt>
<pdfrwt beam="1">  1       21 0.83714795E-01 0.12475976E+03</pdfrwt>
<pdfrwt beam="2">  1       21 0.44263090E-02 0.12475976E+03</pdfrwt>
<totfact> 0.41545146E+05</totfact>
</mgrwt>
</event>
<event>
 5    1  0.1281005E-004  0.1814046E+03  0.7546771E-02  0.1166451E+00
         21   -1    0    0  503  502  0.00000000000E+00  0.00000000000E+00  0.25654138010E+03  0.25654138010E+03  0.00000000000E+00 0. -1.
         21   -1    0    0  501  503 -0.00000000000E+00 -0.00000000000E+00 -0.12947370620E+03  0.12947370620E+03  0.00000000000E+00 0.  1.
         24    1    1    2    0    0  0.30640952267E+02 -0.44839658208E+02  0.34028083862E+02  0.10283282234E+03  0.80419002446E+02 0.  1.
          1    1    1    2  501    0 -0.23652579243E+02  0.15429197548E+03  0.38881301251E+02  0.16086396051E+03  0.00000000000E+00 0. -1.
         -2    1    1    2    0  502 -0.69883730244E+01 -0.10945231728E+03  0.54158288787E+02  0.12231830345E+03  0.00000000000E+00 0.  1.
<mgrwt>
<rscale>  2 0.18140458E+03</rscale>
<asrwt>0</asrwt>
<pdfrwt beam="1">  1       21 0.39467905E-01 0.18140458E+03</pdfrwt>
<pdfrwt beam="2">  1       21 0.19919032E-01 0.18140458E+03</pdfrwt>
<totfact> 0.14446754E+05</totfact>
</mgrwt>
</event>
<event>
 5    1  0.1281005E-004  0.1065278E+03  0.7546771E-02  0.1267138E+00
         21   -1    0    0  503  502  0.00000000000E+00  0.00000000000E+00  0.16899879641E+03  0.16899879641E+03  0.00000000000E+00 0.  1.
         21   -1    0    0  501  503 -0.00000000000E+00 -0.00000000000E+00 -0.70885587023E+02  0.70885587023E+02  0.00000000000E+00 0. -1.
         24    1    1    2    0    0  0.19062259769E+02 -0.44769211838E+01  0.63659225298E+02  0.10441803240E+03  0.80419002446E+02 0.  0.
          1    1    1    2  501    0  0.26595194735E+02 -0.51553870667E+02  0.82900159516E+01  0.58598893575E+02  0.00000000000E+00 0. -1.
         -2    1    1    2    0  502 -0.45657454505E+02  0.56030791851E+02  0.26163968140E+02  0.76867457459E+02  0.00000000000E+00 0.  1.
<mgrwt>
<rscale>  2 0.10652783E+03</rscale>
<asrwt>0</asrwt>
<pdfrwt beam="1">  1       21 0.25999815E-01 0.10652783E+03</pdfrwt>
<pdfrwt beam="2">  1       21 0.10905475E-01 0.10652783E+03</pdfrwt>
<totfact> 0.97723365E+05</totfact>
</mgrwt>
</event>
<event>
 5    1  0.1281005E-004  0.1369949E+03  0.7546771E-02  0.1217431E+00
         21   -1    0    0  501  502  0.00000000000E+00  0.00000000000E+00  0.87224703701E+02  0.87224703701E+02  0.00000000000E+00 0. -1.
         21   -1    0    0  502  503 -0.00000000000E+00 -0.00000000000E+00 -0.22021361361E+03  0.22021361361E+03  0.00000000000E+00 0. -1.
         24    1    1    2    0    0 -0.67971589836E+02 -0.59712607646E+02 -0.62820377569E+02  0.13637942781E+03  0.80419002446E+02 0. -1.
          1    1    1    2  501    0  0.98692212357E+02  0.69489151790E+02 -0.40693254181E+02  0.12737674800E+03  0.00000000000E+00 0. -1.
         -2    1    1    2    0  503 -0.30720622521E+02 -0.97765441438E+01 -0.29475278161E+02  0.43682141502E+02  0.00000000000E+00 0.  1.
<mgrwt>
<rscale>  2 0.13699490E+03</rscale>
<asrwt>0</asrwt>
<pdfrwt beam="1">  1       21 0.13419185E-01 0.13699490E+03</pdfrwt>
<pdfrwt beam="2">  1       21 0.33879017E-01 0.13699490E+03</pdfrwt>
<totfact> 0.40667694E+05</totfact>
</mgrwt>
</event>
<event>
 5    1  0.1281005E-004  0.1660592E+03  0.7546771E-02  0.1182021E+00
         21   -1    0    0  501  502  0.00000000000E+00  0.00000000000E+00  0.13552006222E+02  0.13552006222E+02  0.00000000000E+00 0. -1.
         21   -1    0    0  502  503 -0.00000000000E+00 -0.00000000000E+00 -0.20521524061E+04  0.20521524061E+04  0.00000000000E+00 0.  1.
         24    1    1    2    0    0 -0.75096556279E+02  0.58254854666E+02 -0.82110262644E+03  0.83048772415E+03  0.80419002446E+02 0.  1.
          1    1    1    2  501    0 -0.60500127666E+02 -0.12140863997E+01 -0.30620407798E+03  0.31212605919E+03  0.00000000000E+00 0. -1.
         -2    1    1    2    0  503  0.13559668394E+03 -0.57040768267E+02 -0.91129369549E+03  0.92309062902E+03  0.00000000000E+00 0.  1.
<mgrwt>
<rscale>  2 0.16605922E+03</rscale>
<asrwt>0</asrwt>
<pdfrwt beam="1">  1       21 0.20849251E-02 0.16605922E+03</pdfrwt>
<pdfrwt beam="2">  1       21 0.31571559E+00 0.16605922E+03</pdfrwt>
<totfact> 0.32767027E+04</totfact>
</mgrwt>
</event>
<event>
 5    1  0.1281005E-004  0.1187813E+03  0.7546771E-02  0.1245121E+00
         21   -1    0    0  501  502  0.00000000000E+00  0.00000000000E+00  0.12961032279E+03  0.12961032279E+03  0.00000000000E+00 0. -1.
         21   -1    0    0  502  503 -0.00000000000E+00 -0.00000000000E+00 -0.11033391908E+03  0.11033391908E+03  0.00000000000E+00 0. -1.
         24    1    1    2    0    0 -0.37251944422E+02  0.73099437703E+01  0.14900591763E+02  0.90168654367E+02  0.80419002446E+02 0. -1.
          1    1    1    2  501    0  0.33420711338E+02 -0.74333312431E+02  0.11325794143E+02  0.82284013613E+02  0.00000000000E+00 0. -1.
         -2    1    1    2    0  503  0.38312330841E+01  0.67023368661E+02 -0.69499821925E+01  0.67491573890E+02  0.00000000000E+00 0.  1.
<mgrwt>
<rscale>  2 0.11878128E+03</rscale>
<asrwt>0</asrwt>
<pdfrwt beam="1">  1       21 0.19940050E-01 0.11878128E+03</pdfrwt>
<pdfrwt beam="2">  1       21 0.16974449E-01 0.11878128E+03</pdfrwt>
<totfact> 0.72904463E+05</totfact>
</mgrwt>
</event>
<event>
 5    1  0.1281005E-004  0.1662880E+03  0.7546771E-02  0.1181775E+00
         21   -1    0    0  503  502  0.00000000000E+00  0.00000000000E+00  0.15571519243E+03  0.15571519243E+03  0.00000000000E+00 0. -1.
         21   -1    0    0  501  503 -0.00000000000E+00 -0.00000000000E+00 -0.18967201898E+03  0.18967201898E+03  0.00000000000E+00 0. -1.
         24    1    1    2    0    0 -0.41653074675E+02 -0.10030950957E+03  0.93874436262E+01  0.13547072153E+03  0.80419002446E+02 0. -1.
          1    1    1    2  501    0  0.54926935818E+02  0.14275550147E+03 -0.57248958376E+02  0.16332037446E+03  0.00000000000E+00 0. -1.
         -2    1    1    2    0  502 -0.13273861143E+02 -0.42445991904E+02  0.13904688199E+02  0.46596115420E+02  0.00000000000E+00 0.  1.
<mgrwt>
<rscale>  2 0.16628802E+03</rscale>
<asrwt>0</asrwt>
<pdfrwt beam="1">  1       21 0.23956183E-01 0.16628802E+03</pdfrwt>
<pdfrwt beam="2">  1       21 0.29180311E-01 0.16628802E+03</pdfrwt>
<totfact> 0.18623375E+05</totfact>
</mgrwt>
</event>
<event>
 5    1  0.1281005E-004  0.1600338E+03  0.7546771E-02  0.1188659E+00
         21   -1    0    0  503  502  0.00000000000E+00  0.00000000000E+00  0.95823491631E+03  0.95823491631E+03  0.00000000000E+00 0.  1.
         21   -1    0    0  501  503 -0.00000000000E+00 -0.00000000000E+00 -0.28027865766E+02  0.28027865766E+02  0.00000000000E+00 0. -1.
         24    1    1    2    0    0  0.36952006645E+02  0.11718580496E+03  0.52054759118E+03  0.54086502412E+03  0.80419002446E+02 0.  0.
          1    1    1    2  501    0 -0.67363201214E+02 -0.12484194840E+03  0.30988242010E+03  0.34080849058E+03  0.00000000000E+00 0. -1.
         -2    1    1    2    0  502  0.30411194568E+02  0.76561434387E+01  0.99777039269E+02  0.10458926739E+03  0.00000000000E+00 0.  1.
<mgrwt>
<rscale>  2 0.16003383E+03</rscale>
<asrwt>0</asrwt>
<pdfrwt beam="1">  1       21 0.14742073E+00 0.16003383E+03</pdfrwt>
<pdfrwt beam="2">  1       21 0.43119801E-02 0.16003383E+03</pdfrwt>
<totfact> 0.10976444E+05</totfact>
</mgrwt>
</event>
<event>
 5    1  0.1281005E-004  0.3036115E+03  0.7546771E-02  0.1083449E+00
         21   -1    0    0  501  502  0.00000000000E+00  0.00000000000E+00  0.39319858836E+03  0.39319858836E+03  0.00000000000E+00 0.  1.
         21   -1    0    0  502  503 -0.00000000000E+00 -0.00000000000E+00 -0.26552886710E+03  0.26552886710E+03  0.00000000000E+00 0.  1.
         24    1    1    2    0    0  0.14698556722E+03  0.41088712831E+02  0.12473263475E+03  0.21288138815E+03  0.80419002446E+02 0.  1.
          1    1    1    2  501    0  0.49562734607E+02 -0.18473389982E+03 -0.47847552156E+02  0.19716101707E+03  0.00000000000E+00 0. -1.
         -2    1    1    2    0  503 -0.19654830182E+03  0.14364518699E+03  0.50784638662E+02  0.24868505025E+03  0.00000000000E+00 0.  1.
<mgrwt>
<rscale>  2 0.30361152E+03</rscale>
<asrwt>0</asrwt>
<pdfrwt beam="1">  1       21 0.60492091E-01 0.30361152E+03</pdfrwt>
<pdfrwt beam="2">  1       21 0.40850595E-01 0.30361152E+03</pdfrwt>
<totfact> 0.13863845E+04</totfact>
</mgrwt>
</event>
<event>
 5    1  0.1281005E-004  0.2099391E+03  0.7546771E-02  0.1141614E+00
         21   -1    0    0  503  502  0.00000000000E+00  0.00000000000E+00  0.52820462952E+02  0.52820462952E+02  0.00000000000E+00 0. -1.
         21   -1    0    0  501  503 -0.00000000000E+00 -0.00000000000E+00 -0.86921201083E+03  0.86921201083E+03  0.00000000000E+00 0. -1.
         24    1    1    2    0    0  0.10888852324E+03  0.30418426968E+02 -0.27248784366E+03  0.30577578728E+03  0.80419002446E+02 0. -1.
          1    1    1    2  501    0 -0.14870230568E+03 -0.11478282746E+03 -0.42847398179E+03  0.46784337792E+03  0.00000000000E+00 0. -1.
         -2    1    1    2    0  502  0.39813782445E+02  0.84364400491E+02 -0.11542972243E+03  0.14841330858E+03  0.00000000000E+00 0.  1.
<mgrwt>
<rscale>  2 0.20993912E+03</rscale>
<asrwt>0</asrwt>
<pdfrwt beam="1">  1       21 0.81262255E-02 0.20993912E+03</pdfrwt>
<pdfrwt beam="2">  1       21 0.13372492E+00 0.20993912E+03</pdfrwt>
<totfact> 0.46549116E+04</totfact>
</mgrwt>
</event>
<event>
 5    1  0.1281005E-004  0.1094561E+03  0.7546771E-02  0.1261580E+00
         21   -1    0    0  501  502  0.00000000000E+00  0.00000000000E+00  0.35160024627E+03  0.35160024627E+03  0.00000000000E+00 0. -1.
         21   -1    0    0  502  503 -0.00000000000E+00 -0.00000000000E+00 -0.38621179406E+02  0.38621179406E+02  0.00000000000E+00 0.  1.
         24    1    1    2    0    0 -0.20100533556E+02  0.27671711084E+02  0.19270895954E+03  0.21159800114E+03  0.80419002446E+02 0. -1.
          1    1    1    2  501    0  0.59411429505E+02 -0.57111228065E+02  0.67401217117E+02  0.10646283105E+03  0.00000000000E+00 0. -1.
         -2    1    1    2    0  503 -0.39310895949E+02  0.29439516982E+02  0.52868890197E+02  0.72160593478E+02  0.00000000000E+00 0.  1.
<mgrwt>
<rscale>  2 0.10945611E+03</rscale>
<asrwt>0</asrwt>
<pdfrwt beam="1">  1       21 0.54092344E-01 0.10945611E+03</pdfrwt>
<pdfrwt beam="2">  1       21 0.59417201E-02 0.10945611E+03</pdfrwt>
<totfact> 0.65233819E+05</totfact>
</mgrwt>
</event>
<event>
 5    1  0.1281005E-004  0.1716188E+03  0.7546771E-02  0.1176170E+00
         21   -1    0    0  503  502  0.00000000000E+00  0.00000000000E+00  0.74468282854E+02  0.74468282854E+02  0.00000000000E+00 0.  1.
         21   -1    0    0  501  503 -0.00000000000E+00 -0.00000000000E+00 -0.46688430058E+03  0.46688430058E+03  0.00000000000E+00 0. -1.
         24    1    1    2    0    0  0.41426974898E+02 -0.63222651753E+02 -0.22035051967E+03  0.24644444692E+03  0.80419002446E+02 0.  0.
          1    1    1    2  501    0 -0.13030675400E+03  0.13434470762E+02 -0.13041798983E+03  0.18484909308E+03  0.00000000000E+00 0. -1.
         -2    1    1    2    0  502  0.88879779102E+02  0.49788180991E+02 -0.41647508228E+02  0.11005904343E+03  0.00000000000E+00 0.  1.
<mgrwt>
<rscale>  2 0.17161882E+03</rscale>
<asrwt>0</asrwt>
<pdfrwt beam="1">  1       21 0.11456659E-01 0.17161882E+03</pdfrwt>
<pdfrwt beam="2">  1       21 0.71828353E-01 0.17161882E+03</pdfrwt>
<totfact> 0.11246794E+05</totfact>
</mgrwt>
</event>
<event>
 5    1  0.1281005E-004  0.1571895E+03  0.7546771E-02  0.1191907E+00
         21   -1    0    0  503  502  0.00000000000E+00  0.00000000000E+00  0.55549524068E+03  0.55549524068E+03  0.00000000000E+00 0. -1.
         21   -1    0    0  501  503 -0.00000000000E+00 -0.00000000000E+00 -0.44697860369E+02  0.44697860369E+02  0.00000000000E+00 0. -1.
         24    1    1    2    0    0 -0.11681967931E+02 -0.92983183901E+02  0.21874045696E+03  0.25119105145E+03  0.80419002446E+02 0. -1.
          1    1    1    2  501    0 -0.36108542612E+02  0.12712686792E+03  0.20895645371E+03  0.24724050425E+03  0.00000000000E+00 0. -1.
         -2    1    1    2    0  502  0.47790510544E+02 -0.34143684019E+02  0.83100469641E+02  0.10176154534E+03  0.00000000000E+00 0.  1.
<mgrwt>
<rscale>  2 0.15718946E+03</rscale>
<asrwt>0</asrwt>
<pdfrwt beam="1">  1       21 0.85460801E-01 0.15718946E+03</pdfrwt>
<pdfrwt beam="2">  1       21 0.68765943E-02 0.15718946E+03</pdfrwt>
<totfact> 0.18677316E+05</totfact>
</mgrwt>
</event>
<event>
 5    1  0.1281005E-004  0.1558504E+03  0.7546771E-02  0.1193463E+00
         21   -1    0    0  503  502  0.00000000000E+00  0.00000000000E+00  0.19821202691E+03  0.19821202691E+03  0.00000000000E+00 0.  1.
         21   -1    0    0  501  503 -0.00000000000E+00 -0.00000000000E+00 -0.12666776802E+03  0.12666776802E+03  0.00000000000E+00 0. -1.
         24    1    1    2    0    0 -0.33211322001E+01 -0.61111557916E+02  0.40196744738E+02  0.10875958198E+03  0.80419002446E+02 0.  1.
          1    1    1    2  501    0 -0.41594956148E+02 -0.64776282990E+02 -0.63567840727E+01  0.77243225714E+02  0.00000000000E+00 0. -1.
         -2    1    1    2    0  502  0.44916088348E+02  0.12588784091E+03  0.37704298221E+02  0.13887698724E+03  0.00000000000E+00 0.  1.
<mgrwt>
<rscale>  2 0.15585036E+03</rscale>
<asrwt>0</asrwt>
<pdfrwt beam="1">  1       21 0.30494158E-01 0.15585036E+03</pdfrwt>
<pdfrwt beam="2">  1       21 0.19487349E-01 0.15585036E+03</pdfrwt>
<totfact> 0.25244514E+05</totfact>
</mgrwt>
</event>
<event>
 5    1  0.1281005E-004  0.3160104E+03  0.7546771E-02  0.1077500E+00
         21   -1    0    0  501  502  0.00000000000E+00  0.00000000000E+00  0.58867261290E+03  0.58867261290E+03  0.00000000000E+00 0.  1.
         21   -1    0    0  502  503 -0.00000000000E+00 -0.00000000000E+00 -0.20712234114E+03  0.20712234114E+03  0.00000000000E+00 0.  1.
         24    1    1    2    0    0 -0.49693447290E+02  0.21287098328E+03  0.43179300998E+02  0.23688639094E+03  0.80419002446E+02 0.  1.
          1    1    1    2  501    0  0.38146974168E+02  0.89094107249E+02 -0.10355710236E+02  0.97468930020E+02  0.00000000000E+00 0. -1.
         -2    1    1    2    0  503  0.11546473122E+02 -0.30196509053E+03  0.34872668099E+03  0.46143963308E+03  0.00000000000E+00 0.  1.
<mgrwt>
<rscale>  2 0.31601041E+03</rscale>
<asrwt>0</asrwt>
<pdfrwt beam="1">  1       21 0.90565017E-01 0.31601041E+03</pdfrwt>
<pdfrwt beam="2">  1       21 0.31864976E-01 0.31601041E+03</pdfrwt>
<totfact> 0.91489893E+03</totfact>
</mgrwt>
</event>
<event>
 5    1  0.1281005E-004  0.9762807E+02  0.7546771E-02  0.1285364E+00
         21   -1    0    0  503  502  0.00000000000E+00  0.00000000000E+00  0.13916993111E+02  0.13916993111E+02  0.00000000000E+00 0.  1.
         21   -1    0    0  501  503 -0.00000000000E+00 -0.00000000000E+00 -0.72861317759E+03  0.72861317759E+03  0.00000000000E+00 0.  1.
         24    1    1    2    0    0 -0.35364524320E+02 -0.69784275976E+02 -0.49690678348E+03  0.50941541219E+03  0.80419002446E+02 0.  1.
          1    1    1    2  501    0  0.20277145646E+02  0.12493344784E+02 -0.66751286164E+02  0.70872988536E+02  0.00000000000E+00 0. -1.
         -2    1    1    2    0  502  0.15087378675E+02  0.57290931192E+02 -0.15103811483E+03  0.16224176998E+03  0.00000000000E+00 0.  1.
<mgrwt>
<rscale>  2 0.97628069E+02</rscale>
<asrwt>0</asrwt>
<pdfrwt beam="1">  1       21 0.21410749E-02 0.97628069E+02</pdfrwt>
<pdfrwt beam="2">  1       21 0.11209439E+00 0.97628069E+02</pdfrwt>
<totfact> 0.69619834E+05</totfact>
</mgrwt>
</event>
<event>
 5    1  0.1281005E-004  0.1692011E+03  0.7546771E-02  0.1178684E+00
         21   -1    0    0  503  502  0.00000000000E+00  0.00000000000E+00  0.64636636595E+03  0.64636636595E+03  0.00000000000E+00 0. -1.
         21   -1    0    0  501  503 -0.00000000000E+00 -0.00000000000E+00 -0.46389095457E+02  0.46389095457E+02  0.00000000000E+00 0.  1.
         24    1    1    2    0    0 -0.88494063149E+01 -0.86197230851E+01  0.20805294622E+03  0.22339618618E+03  0.80419002446E+02 0. -1.
          1    1    1    2  501    0 -0.54012173317E+02  0.11862382308E+03  0.17601750193E+03  0.21902302905E+03  0.00000000000E+00 0. -1.
         -2    1    1    2    0  502  0.62861579632E+02 -0.11000410000E+03  0.21590682234E+03  0.25033624617E+03  0.00000000000E+00 0.  1.
<mgrwt>
<rscale>  2 0.16920114E+03</rscale>
<asrwt>0</asrwt>
<pdfrwt beam="1">  1       21 0.99440973E-01 0.16920114E+03</pdfrwt>
<pdfrwt beam="2">  1       21 0.71367844E-02 0.16920114E+03</pdfrwt>
<totfact> 0.12283244E+05</totfact>
</mgrwt>
</event>
<event>
 5    1  0.1281005E-004  0.1518513E+03  0.7546771E-02  0.1198216E+00
         21   -1    0    0  501  502  0.00000000000E+00  0.00000000000E+00  0.27391808607E+02  0.27391808607E+02  0.00000000000E+00 0. -1.
         21   -1    0    0  502  503 -0.00000000000E+00 -0.00000000000E+00 -0.95752179350E+03  0.95752179350E+03  0.00000000000E+00 0. -1.
         24    1    1    2    0    0 -0.98597367014E+01 -0.99118850319E+02 -0.23159696003E+03  0.26462450519E+03  0.80419002446E+02 0. -1.
          1    1    1    2  501    0  0.57170835306E+02  0.11277679187E+03 -0.49932185314E+03  0.51508195679E+03  0.00000000000E+00 0. -1.
         -2    1    1    2    0  503 -0.47311098604E+02 -0.13657941548E+02 -0.19921117173E+03  0.20520714013E+03  0.00000000000E+00 0.  1.
<mgrwt>
<rscale>  2 0.15185132E+03</rscale>
<asrwt>0</asrwt>
<pdfrwt beam="1">  1       21 0.42141237E-02 0.15185132E+03</pdfrwt>
<pdfrwt beam="2">  1       21 0.14731107E+00 0.15185132E+03</pdfrwt>
<totfact> 0.11470658E+05</totfact>
</mgrwt>
</event>
<event>
 5    1  0.1281005E-004  0.1516889E+03  0.7546771E-02  0.1198413E+00
         21   -1    0    0  501  502  0.00000000000E+00  0.00000000000E+00  0.52419082761E+02  0.52419082761E+02  0.00000000000E+00 0. -1.
         21   -1    0    0  502  503 -0.00000000000E+00 -0.00000000000E+00 -0.44742146981E+03  0.44742146981E+03  0.00000000000E+00 0.  1.
         24    1    1    2    0    0  0.55337408819E+02 -0.79176548505E+02 -0.16551883762E+03  0.20783372250E+03  0.80419002446E+02 0.  0.
          1    1    1    2  501    0  0.17770325162E+01 -0.42885747737E+02 -0.79687507792E+02  0.90512121297E+02  0.00000000000E+00 0. -1.
         -2    1    1    2    0  503 -0.57114441335E+02  0.12206229624E+03 -0.14979604164E+03  0.20149470877E+03  0.00000000000E+00 0.  1.
<mgrwt>
<rscale>  2 0.15168893E+03</rscale>
<asrwt>0</asrwt>
<pdfrwt beam="1">  1       21 0.80644744E-02 0.15168893E+03</pdfrwt>
<pdfrwt beam="2">  1       21 0.68834071E-01 0.15168893E+03</pdfrwt>
<totfact> 0.23015491E+05</totfact>
</mgrwt>
</event>
<event>
 5    1  0.1281005E-004  0.1324844E+03  0.7546771E-02  0.1223815E+00
         21   -1    0    0  503  502  0.00000000000E+00  0.00000000000E+00  0.75315007197E+03  0.75315007197E+03  0.00000000000E+00 0.  1.
         21   -1    0    0  501  503 -0.00000000000E+00 -0.00000000000E+00 -0.24915138113E+02  0.24915138113E+02  0.00000000000E+00 0. -1.
         24    1    1    2    0    0 -0.44630643830E+02 -0.16990481594E+02  0.33638660325E+03  0.34914715184E+03  0.80419002446E+02 0. -1.
          1    1    1    2  501    0 -0.28484068379E+02 -0.59289887349E+02  0.11340053365E+03  0.13109658243E+03  0.00000000000E+00 0. -1.
         -2    1    1    2    0  502  0.73114712209E+02  0.76280368943E+02  0.27844779696E+03  0.29782147582E+03  0.00000000000E+00 0.  1.
<mgrwt>
<rscale>  2 0.13248437E+03</rscale>
<asrwt>0</asrwt>
<pdfrwt beam="1">  1       21 0.11586922E+00 0.13248437E+03</pdfrwt>
<pdfrwt beam="2">  1       21 0.38330988E-02 0.13248437E+03</pdfrwt>
<totfact> 0.24680906E+05</totfact>
</mgrwt>
</event>
<event>
 5    1  0.1281005E-004  0.2698425E+03  0.7546771E-02  0.1101370E+00
         21   -1    0    0  503  502  0.00000000000E+00  0.00000000000E+00  0.12099228741E+03  0.12099228741E+03  0.00000000000E+00 0. -1.
         21   -1    0    0  501  503 -0.00000000000E+00 -0.00000000000E+00 -0.71581160635E+03  0.71581160635E+03  0.00000000000E+00 0. -1.
         24    1    1    2    0    0  0.19378951014E+03  0.86121251636E+02 -0.41892412345E+03  0.47637787668E+03  0.80419002446E+02 0. -1.
          1    1    1    2  501    0 -0.24389972456E+03 -0.95452726472E+02 -0.16050765385E+03  0.30718236534E+03  0.00000000000E+00 0. -1.
         -2    1    1    2    0  502  0.50110214420E+02  0.93314748361E+01 -0.15387541639E+02  0.53243651730E+02  0.00000000000E+00 0.  1.
<mgrwt>
<rscale>  2 0.26984246E+03</rscale>
<asrwt>0</asrwt>
<pdfrwt beam="1">  1       21 0.18614198E-01 0.26984246E+03</pdfrwt>
<pdfrwt beam="2">  1       21 0.11012487E+00 0.26984246E+03</pdfrwt>
<totfact> 0.16447564E+04</totfact>
</mgrwt>
</event>
<event>
 5    1  0.1281005E-004  0.8067871E+02  0.7546771E-02  0.1327136E+00
         21   -1    0    0  501  502  0.00000000000E+00  0.00000000000E+00  0.91653606046E+02  0.91653606046E+02  0.00000000000E+00 0. -1.
         21   -1    0    0  502  503 -0.00000000000E+00 -0.00000000000E+00 -0.74946529287E+02  0.74946529287E+02  0.00000000000E+00 0.  1.
         24    1    1    2    0    0 -0.17993780586E+02  0.76157744188E+01  0.26025526999E+02  0.86754366863E+02  0.80419002446E+02 0.  0.
          1    1    1    2  501    0 -0.25261516740E+02 -0.21497491541E+02  0.12888935281E+01  0.33195596351E+02  0.00000000000E+00 0. -1.
         -2    1    1    2    0  503  0.43255297326E+02  0.13881717123E+02 -0.10607343768E+02  0.46650172120E+02  0.00000000000E+00 0.  1.
<mgrwt>
<rscale>  2 0.80678709E+02</rscale>
<asrwt>0</asrwt>
<pdfrwt beam="1">  1       21 0.14100555E-01 0.80678709E+02</pdfrwt>
<pdfrwt beam="2">  1       21 0.11530235E-01 0.80678709E+02</pdfrwt>
<totfact> 0.26855171E+06</totfact>
</mgrwt>
</event>
<event>
 5    1  0.1281005E-004  0.1179691E+03  0.7546771E-02  0.1246486E+00
         21   -1    0    0  501  502  0.00000000000E+00  0.00000000000E+00  0.29151760837E+03  0.29151760837E+03  0.00000000000E+00 0.  1.
         21   -1    0    0  502  503 -0.00000000000E+00 -0.00000000000E+00 -0.53759709811E+02  0.53759709811E+02  0.00000000000E+00 0.  1.
         24    1    1    2    0    0 -0.45246151483E+02 -0.17657067808E+02  0.15393100038E+03  0.18033567340E+03  0.80419002446E+02 0.  1.
          1    1    1    2  501    0 -0.38083171378E+02  0.40493702691E+02  0.35200489790E+02  0.65796218594E+02  0.00000000000E+00 0. -1.
         -2    1    1    2    0  503  0.83329322861E+02 -0.22836634883E+02  0.48626408386E+02  0.99145426187E+02  0.00000000000E+00 0.  1.
<mgrwt>
<rscale>  2 0.11796907E+03</rscale>
<asrwt>0</asrwt>
<pdfrwt beam="1">  1       21 0.44848862E-01 0.11796907E+03</pdfrwt>
<pdfrwt beam="2">  1       21 0.82707248E-02 0.11796907E+03</pdfrwt>
<totfact> 0.54488916E+05</totfact>
</mgrwt>
</event>
<event>
 5    1  0.1281005E-004  0.7635454E+02  0.7546771E-02  0.1339727E+00
         21   -1    0    0  501  502  0.00000000000E+00  0.00000000000E+00  0.19775944810E+03  0.19775944810E+03  0.00000000000E+00 0.  1.
         21   -1    0    0  502  503 -0.00000000000E+00 -0.00000000000E+00 -0.37338848989E+02  0.37338848989E+02  0.00000000000E+00 0. -1.
         24    1    1    2    0    0 -0.26067454601E+02 -0.53225960270E+01  0.46622612857E+02  0.96688811151E+02  0.80419002446E+02 0.  0.
          1    1    1    2  501    0  0.46173576006E+02  0.10260308623E+02  0.10637233213E+03  0.11641454418E+03  0.00000000000E+00 0. -1.
         -2    1    1    2    0  503 -0.20106121405E+02 -0.49377125959E+01  0.74256541212E+01  0.21994941754E+02  0.00000000000E+00 0.  1.
<mgrwt>
<rscale>  2 0.76354545E+02</rscale>
<asrwt>0</asrwt>
<pdfrwt beam="1">  1       21 0.30424530E-01 0.76354545E+02</pdfrwt>
<pdfrwt beam="2">  1       21 0.57444384E-02 0.76354545E+02</pdfrwt>
<totfact> 0.21471110E+06</totfact>
</mgrwt>
</event>
<event>
 5    1  0.1281005E-004  0.2913714E+03  0.7546771E-02  0.1089635E+00
         21   -1    0    0  501  502  0.00000000000E+00  0.00000000000E+00  0.14312228537E+03  0.14312228537E+03  0.00000000000E+00 0.  1.
         21   -1    0    0  502  503 -0.00000000000E+00 -0.00000000000E+00 -0.67187000221E+03  0.67187000221E+03  0.00000000000E+00 0. -1.
         24    1    1    2    0    0  0.39888601665E+02 -0.12557261110E+02 -0.20496078145E+03  0.22410917705E+03  0.80419002446E+02 0. -1.
          1    1    1    2  501    0 -0.22566999559E+03  0.14113108289E+03 -0.20258487436E+03  0.33449299064E+03  0.00000000000E+00 0. -1.
         -2    1    1    2    0  503  0.18578139393E+03 -0.12857382178E+03 -0.12120206102E+03  0.25639011989E+03  0.00000000000E+00 0.  1.
<mgrwt>
<rscale>  2 0.29137139E+03</rscale>
<asrwt>0</asrwt>
<pdfrwt beam="1">  1       21 0.22018814E-01 0.29137139E+03</pdfrwt>
<pdfrwt beam="2">  1       21 0.10336461E+00 0.29137139E+03</pdfrwt>
<totfact> 0.13839110E+04</totfact>
</mgrwt>
</event>
<event>
 5    1  0.1281005E-004  0.1812909E+03  0.7546771E-02  0.1166560E+00
         21   -1    0    0  501  502  0.00000000000E+00  0.00000000000E+00  0.58805701327E+02  0.58805701327E+02  0.00000000000E+00 0.  1.
         21   -1    0    0  502  503 -0.00000000000E+00 -0.00000000000E+00 -0.57318494839E+03  0.57318494839E+03  0.00000000000E+00 0. -1.
         24    1    1    2    0    0 -0.12785836062E+03  0.32234564411E+02 -0.17479468978E+03  0.23325356815E+03  0.80419002446E+02 0.  1.
          1    1    1    2  501    0  0.16670819453E+03 -0.28184622727E+02 -0.26094909076E+03  0.31093475690E+03  0.00000000000E+00 0. -1.
         -2    1    1    2    0  503 -0.38849833910E+02 -0.40499416844E+01 -0.78635466517E+02  0.87802324667E+02  0.00000000000E+00 0.  1.
<mgrwt>
<rscale>  2 0.18129092E+03</rscale>
<asrwt>0</asrwt>
<pdfrwt beam="1">  1       21 0.90470308E-02 0.18129092E+03</pdfrwt>
<pdfrwt beam="2">  1       21 0.88182302E-01 0.18129092E+03</pdfrwt>
<totfact> 0.10707082E+05</totfact>
</mgrwt>
</event>
<event>
 5    1  0.1281005E-004  0.1391202E+03  0.7546771E-02  0.1214518E+00
         21   -1    0    0  503  502  0.00000000000E+00  0.00000000000E+00  0.80748468148E+02  0.80748468148E+02  0.00000000000E+00 0.  1.
         21   -1    0    0  501  503 -0.00000000000E+00 -0.00000000000E+00 -0.23970649728E+03  0.23970649728E+03  0.00000000000E+00 0.  1.
         24    1    1    2    0    0 -0.48213612880E+02  0.94634251676E+02 -0.77166628435E+02  0.15395485882E+03  0.80419002446E+02 0.  1.
          1    1    1    2  501    0  0.23316092409E+01  0.20733555562E+02 -0.12241621459E+02  0.24190370478E+02  0.00000000000E+00 0. -1.
         -2    1    1    2    0  502  0.45882003639E+02 -0.11536780724E+03 -0.69549779242E+02  0.14230973613E+03  0.00000000000E+00 0.  1.
<mgrwt>
<rscale>  2 0.13912018E+03</rscale>
<asrwt>0</asrwt>
<pdfrwt beam="1">  1       21 0.12422841E-01 0.13912018E+03</pdfrwt>
<pdfrwt beam="2">  1       21 0.36877923E-01 0.13912018E+03</pdfrwt>
<totfact> 0.39476594E+05</totfact>
</mgrwt>
</event>
<event>
 5    1  0.1281005E-004  0.1538983E+03  0.7546771E-02  0.1195763E+00
         21   -1    0    0  501  502  0.00000000000E+00  0.00000000000E+00  0.19447420333E+03  0.19447420333E+03  0.00000000000E+00 0.  1.
         21   -1    0    0  502  503 -0.00000000000E+00 -0.00000000000E+00 -0.12727611570E+03  0.12727611570E+03  0.00000000000E+00 0.  1.
         24    1    1    2    0    0  0.96923099469E+00  0.11646669984E+03 -0.77376789681E+00  0.14153885068E+03  0.80419002446E+02 0.  1.
          1    1    1    2  501    0 -0.74741753155E+01  0.24258751030E+02  0.16256203491E+02  0.30143232244E+02  0.00000000000E+00 0. -1.
         -2    1    1    2    0  503  0.65049443208E+01 -0.14072545087E+03  0.51715652032E+02  0.15006823611E+03  0.00000000000E+00 0.  1.
<mgrwt>
<rscale>  2 0.15389825E+03</rscale>
<asrwt>0</asrwt>
<pdfrwt beam="1">  1       21 0.29919108E-01 0.15389825E+03</pdfrwt>
<pdfrwt beam="2">  1       21 0.19580941E-01 0.15389825E+03</pdfrwt>
<totfact> 0.25972243E+05</totfact>
</mgrwt>
</event>
<event>
 5    1  0.1281005E-004  0.1583495E+03  0.7546771E-02  0.1190573E+00
         21   -1    0    0  503  502  0.00000000000E+00  0.00000000000E+00  0.47818803212E+03  0.47818803212E+03  0.00000000000E+00 0.  1.
         21   -1    0    0  501  503 -0.00000000000E+00 -0.00000000000E+00 -0.53576518090E+02  0.53576518090E+02  0.00000000000E+00 0. -1.
         24    1    1    2    0    0  0.90689810806E+00  0.80065772366E+02  0.16924303409E+03  0.20376891547E+03  0.80419002446E+02 0.  1.
          1    1    1    2  501    0 -0.52241467584E+02  0.44411650818E+02  0.62513513558E+02  0.92787418550E+02  0.00000000000E+00 0. -1.
         -2    1    1    2    0  502  0.51334569476E+02 -0.12447742318E+03  0.19285496638E+03  0.23520821619E+03  0.00000000000E+00 0.  1.
<mgrwt>
<rscale>  2 0.15834946E+03</rscale>
<asrwt>0</asrwt>
<pdfrwt beam="1">  1       21 0.73567387E-01 0.15834946E+03</pdfrwt>
<pdfrwt beam="2">  1       21 0.82425416E-02 0.15834946E+03</pdfrwt>
<totfact> 0.19114921E+05</totfact>
</mgrwt>
</event>
<event>
 5    1  0.1281005E-004  0.1332521E+03  0.7546771E-02  0.1222708E+00
         21   -1    0    0  501  502  0.00000000000E+00  0.00000000000E+00  0.23483275005E+03  0.23483275005E+03  0.00000000000E+00 0. -1.
         21   -1    0    0  502  503 -0.00000000000E+00 -0.00000000000E+00 -0.78311125601E+02  0.78311125601E+02  0.00000000000E+00 0.  1.
         24    1    1    2    0    0  0.23568035749E+02  0.85340422667E+02  0.98878925533E+02  0.15518601071E+03  0.80419002446E+02 0. -1.
          1    1    1    2  501    0 -0.14600311619E+01  0.29708381704E+02  0.14733668864E+02  0.33193382363E+02  0.00000000000E+00 0. -1.
         -2    1    1    2    0  503 -0.22108004587E+02 -0.11504880437E+03  0.42909030054E+02  0.12476448258E+03  0.00000000000E+00 0.  1.
<mgrwt>
<rscale>  2 0.13325210E+03</rscale>
<asrwt>0</asrwt>
<pdfrwt beam="1">  1       21 0.36128115E-01 0.13325210E+03</pdfrwt>
<pdfrwt beam="2">  1       21 0.12047866E-01 0.13325210E+03</pdfrwt>
<totfact> 0.43446648E+05</totfact>
</mgrwt>
</event>
<event>
 5    1  0.1281005E-004  0.2749202E+03  0.7546771E-02  0.1098496E+00
         21   -1    0    0  503  502  0.00000000000E+00  0.00000000000E+00  0.13890370484E+03  0.13890370484E+03  0.00000000000E+00 0. -1.
         21   -1    0    0  501  503 -0.00000000000E+00 -0.00000000000E+00 -0.54741531601E+03  0.54741531601E+03  0.00000000000E+00 0. -1.
         24    1    1    2    0    0  0.22446235723E+03  0.92896179172E+02 -0.18457917958E+03  0.31551503832E+03  0.80419002446E+02 0. -1.
          1    1    1    2  501    0 -0.23468314973E+03 -0.12100325220E+03 -0.21194510585E+03  0.33858336596E+03  0.00000000000E+00 0. -1.
         -2    1    1    2    0  502  0.10220792501E+02  0.28107073028E+02 -0.11987325739E+02  0.32220616567E+02  0.00000000000E+00 0.  1.
<mgrwt>
<rscale>  2 0.27492023E+03</rscale>
<asrwt>0</asrwt>
<pdfrwt beam="1">  1       21 0.21369801E-01 0.27492023E+03</pdfrwt>
<pdfrwt beam="2">  1       21 0.84217740E-01 0.27492023E+03</pdfrwt>
<totfact> 0.23929598E+04</totfact>
</mgrwt>
</event>
<event>
 5    1  0.1281005E-004  0.1119904E+03  0.7546771E-02  0.1256928E+00
         21   -1    0    0  501  502  0.00000000000E+00  0.00000000000E+00  0.55590934310E+02  0.55590934310E+02  0.00000000000E+00 0. -1.
         21   -1    0    0  502  503 -0.00000000000E+00 -0.00000000000E+00 -0.24570101146E+03  0.24570101146E+03  0.00000000000E+00 0.  1.
         24    1    1    2    0    0  0.43289956241E+02  0.13478962714E+02 -0.39576999778E+02  0.10044529662E+03  0.80419002446E+02 0. -1.
          1    1    1    2  501    0  0.32082422088E+02  0.30608659090E+02 -0.64442221324E+02  0.78223856383E+02  0.00000000000E+00 0. -1.
         -2    1    1    2    0  503 -0.75372378329E+02 -0.44087621803E+02 -0.86090856052E+02  0.12262279277E+03  0.00000000000E+00 0.  1.
<mgrwt>
<rscale>  2 0.11199040E+03</rscale>
<asrwt>0</asrwt>
<pdfrwt beam="1">  1       21 0.85524516E-02 0.11199040E+03</pdfrwt>
<pdfrwt beam="2">  1       21 0.37800155E-01 0.11199040E+03</pdfrwt>
<totfact> 0.72421323E+05</totfact>
</mgrwt>
</event>
<event>
 5    1  0.1281005E-004  0.1421858E+03  0.7546771E-02  0.1210418E+00
         21   -1    0    0  503  502  0.00000000000E+00  0.00000000000E+00  0.87153175683E+01  0.87153175683E+01  0.00000000000E+00 0.  1.
         21   -1    0    0  501  503 -0.00000000000E+00 -0.00000000000E+00 -0.23248484630E+04  0.23248484630E+04  0.00000000000E+00 0.  1.
         24    1    1    2    0    0 -0.11356885807E+03 -0.25849927535E+02 -0.12017766260E+04  0.12100827984E+04  0.80419002446E+02 0.  1.
          1    1    1    2  501    0 -0.68653350741E+01  0.21226953271E+02 -0.16229252050E+03  0.16381873697E+03  0.00000000000E+00 0. -1.
         -2    1    1    2    0  502  0.12043419314E+03  0.46229742641E+01 -0.95206399896E+03  0.95966224522E+03  0.00000000000E+00 0.  1.
<mgrwt>
<rscale>  2 0.14218578E+03</rscale>
<asrwt>0</asrwt>
<pdfrwt beam="1">  1       21 0.13408164E-02 0.14218578E+03</pdfrwt>
<pdfrwt beam="2">  1       21 0.35766945E+00 0.14218578E+03</pdfrwt>
<totfact> 0.39295326E+04</totfact>
</mgrwt>
</event>
<event>
 5    1  0.1281005E-004  0.1632321E+03  0.7546771E-02  0.1185095E+00
         21   -1    0    0  503  502  0.00000000000E+00  0.00000000000E+00  0.77253180957E+02  0.77253180957E+02  0.00000000000E+00 0.  1.
         21   -1    0    0  501  503 -0.00000000000E+00 -0.00000000000E+00 -0.35198153586E+03  0.35198153586E+03  0.00000000000E+00 0.  1.
         24    1    1    2    0    0  0.23601354542E+02  0.10921891209E+03 -0.14058497610E+03  0.19676673030E+03  0.80419002446E+02 0.  1.
          1    1    1    2  501    0  0.59065509774E+02 -0.10428453053E+02 -0.31427771780E+02  0.67714045198E+02  0.00000000000E+00 0. -1.
         -2    1    1    2    0  502 -0.82666864316E+02 -0.98790459038E+02 -0.10271560702E+03  0.16475394131E+03  0.00000000000E+00 0.  1.
<mgrwt>
<rscale>  2 0.16323211E+03</rscale>
<asrwt>0</asrwt>
<pdfrwt beam="1">  1       21 0.11885105E-01 0.16323211E+03</pdfrwt>
<pdfrwt beam="2">  1       21 0.54151006E-01 0.16323211E+03</pdfrwt>
<totfact> 0.19417373E+05</totfact>
</mgrwt>
</event>
<event>
 5    1  0.1281005E-004  0.2888533E+03  0.7546771E-02  0.1090949E+00
         21   -1    0    0  501  502  0.00000000000E+00  0.00000000000E+00  0.13839118165E+03  0.13839118165E+03  0.00000000000E+00 0.  1.
         21   -1    0    0  502  503 -0.00000000000E+00 -0.00000000000E+00 -0.60647952261E+03  0.60647952261E+03  0.00000000000E+00 0. -1.
         24    1    1    2    0    0  0.27959968565E+02 -0.56391523843E+02 -0.71348326518E+02  0.12457753993E+03  0.80419002446E+02 0.  0.
          1    1    1    2  501    0 -0.31355743591E+02 -0.20841265583E+03 -0.15372922151E+03  0.26086719095E+03  0.00000000000E+00 0. -1.
         -2    1    1    2    0  503  0.33957750265E+01  0.26480417968E+03 -0.24301079293E+03  0.35942597338E+03  0.00000000000E+00 0.  1.
<mgrwt>
<rscale>  2 0.28885326E+03</rscale>
<asrwt>0</asrwt>
<pdfrwt beam="1">  1       21 0.21290951E-01 0.28885326E+03</pdfrwt>
<pdfrwt beam="2">  1       21 0.93304543E-01 0.28885326E+03</pdfrwt>
<totfact> 0.18862734E+04</totfact>
</mgrwt>
</event>
<event>
 5    1  0.1281005E-004  0.1668508E+03  0.7546771E-02  0.1181172E+00
         21   -1    0    0  501  502  0.00000000000E+00  0.00000000000E+00  0.11147419504E+03  0.11147419504E+03  0.00000000000E+00 0. -1.
         21   -1    0    0  502  503 -0.00000000000E+00 -0.00000000000E+00 -0.28669472783E+03  0.28669472783E+03  0.00000000000E+00 0.  1.
         24    1    1    2    0    0 -0.10040532938E+02 -0.89246694413E+02 -0.63868761259E+02  0.13642660805E+03  0.80419002446E+02 0.  1.
          1    1    1    2  501    0  0.18290097323E+01 -0.61825991778E+02  0.16104721437E+02  0.63915260998E+02  0.00000000000E+00 0. -1.
         -2    1    1    2    0  503  0.82115232055E+01  0.15107268619E+03 -0.12745649296E+03  0.19782705382E+03  0.00000000000E+00 0.  1.
<mgrwt>
<rscale>  2 0.16685081E+03</rscale>
<asrwt>0</asrwt>
<pdfrwt beam="1">  1       21 0.17149877E-01 0.16685081E+03</pdfrwt>
<pdfrwt beam="2">  1       21 0.44106880E-01 0.16685081E+03</pdfrwt>
<totfact> 0.15286519E+05</totfact>
</mgrwt>
</event>
<event>
 5    1  0.1281005E-004  0.1814993E+03  0.7546771E-02  0.1166360E+00
         21   -1    0    0  501  502  0.00000000000E+00  0.00000000000E+00  0.72442183827E+02  0.72442183827E+02  0.00000000000E+00 0.  1.
         21   -1    0    0  502  503 -0.00000000000E+00 -0.00000000000E+00 -0.46924690821E+03  0.46924690821E+03  0.00000000000E+00 0. -1.
         24    1    1    2    0    0  0.36667951252E+02 -0.20265664924E+02 -0.68477281133E+02  0.11362917675E+03  0.80419002446E+02 0.  0.
          1    1    1    2  501    0 -0.15196155415E+03  0.35421990870E+02 -0.16015878080E+03  0.22360202692E+03  0.00000000000E+00 0. -1.
         -2    1    1    2    0  503  0.11529360289E+03 -0.15156325946E+02 -0.16816866245E+03  0.20445788837E+03  0.00000000000E+00 0.  1.
<mgrwt>
<rscale>  2 0.18149932E+03</rscale>
<asrwt>0</asrwt>
<pdfrwt beam="1">  1       21 0.11144951E-01 0.18149932E+03</pdfrwt>
<pdfrwt beam="2">  1       21 0.72191833E-01 0.18149932E+03</pdfrwt>
<totfact> 0.11636548E+05</totfact>
</mgrwt>
</event>
<event>
 5    1  0.1281005E-004  0.1582846E+03  0.7546771E-02  0.1190647E+00
         21   -1    0    0  503  502  0.00000000000E+00  0.00000000000E+00  0.21556108496E+03  0.21556108496E+03  0.00000000000E+00 0. -1.
         21   -1    0    0  501  503 -0.00000000000E+00 -0.00000000000E+00 -0.12171200991E+03  0.12171200991E+03  0.00000000000E+00 0. -1.
         24    1    1    2    0    0  0.41387661368E+02  0.26555461717E+02  0.37894691899E+02  0.10159406818E+03  0.80419002446E+02 0. -1.
          1    1    1    2  501    0 -0.12384706097E+03 -0.54407319517E+02  0.61724345480E+01  0.13541177894E+03  0.00000000000E+00 0. -1.
         -2    1    1    2    0  502  0.82459399598E+02  0.27851857800E+02  0.49781948603E+02  0.10026724775E+03  0.00000000000E+00 0.  1.
<mgrwt>
<rscale>  2 0.15828461E+03</rscale>
<asrwt>0</asrwt>
<pdfrwt beam="1">  1       21 0.33163244E-01 0.15828461E+03</pdfrwt>
<pdfrwt beam="2">  1       21 0.18724925E-01 0.15828461E+03</pdfrwt>
<totfact> 0.23062039E+05</totfact>
</mgrwt>
</event>
<event>
 5    1  0.1281005E-004  0.1833576E+03  0.7546771E-02  0.1164593E+00
         21   -1    0    0  503  502  0.00000000000E+00  0.00000000000E+00  0.22714730339E+04  0.22714730339E+04  0.00000000000E+00 0.  1.
         21   -1    0    0  501  503 -0.00000000000E+00 -0.00000000000E+00 -0.19831286600E+02  0.19831286600E+02  0.00000000000E+00 0. -1.
         24    1    1    2    0    0  0.94111079195E+02 -0.46147564726E+02  0.13089871797E+04  0.13156371634E+04  0.80419002446E+02 0.  1.
          1    1    1    2  501    0 -0.15922728416E+03  0.86511344978E+01  0.45225431384E+03  0.47954367323E+03  0.00000000000E+00 0. -1.
         -2    1    1    2    0  502  0.65116204968E+02  0.37496430228E+02  0.49040025374E+03  0.49612348392E+03  0.00000000000E+00 0.  1.
<mgrwt>
<rscale>  2 0.18335758E+03</rscale>
<asrwt>0</asrwt>
<pdfrwt beam="1">  1       21 0.34945718E+00 0.18335758E+03</pdfrwt>
<pdfrwt beam="2">  1       21 0.30509690E-02 0.18335758E+03</pdfrwt>
<totfact> 0.10963366E+04</totfact>
</mgrwt>
</event>
<event>
 5    1  0.1281005E-004  0.1489034E+03  0.7546771E-02  0.1201827E+00
         21   -1    0    0  503  502  0.00000000000E+00  0.00000000000E+00  0.20077367670E+02  0.20077367670E+02  0.00000000000E+00 0. -1.
         21   -1    0    0  501  503 -0.00000000000E+00 -0.00000000000E+00 -0.11336341076E+04  0.11336341076E+04  0.00000000000E+00 0.  1.
         24    1    1    2    0    0 -0.66136316644E+02 -0.34161277028E+02 -0.43783024963E+03  0.45133529518E+03  0.80419002446E+02 0.  0.
          1    1    1    2  501    0  0.11641820793E+03  0.60782540880E+02 -0.52758077561E+03  0.54368114848E+03  0.00000000000E+00 0. -1.
         -2    1    1    2    0  502 -0.50281891285E+02 -0.26621263852E+02 -0.14814571473E+03  0.15869503166E+03  0.00000000000E+00 0.  1.
<mgrwt>
<rscale>  2 0.14890344E+03</rscale>
<asrwt>0</asrwt>
<pdfrwt beam="1">  1       21 0.30888257E-02 0.14890344E+03</pdfrwt>
<pdfrwt beam="2">  1       21 0.17440525E+00 0.14890344E+03</pdfrwt>
<totfact> 0.12258482E+05</totfact>
</mgrwt>
</event>
<event>
 5    1  0.1281005E-004  0.8509580E+02  0.7546771E-02  0.1315182E+00
         21   -1    0    0  501  502  0.00000000000E+00  0.00000000000E+00  0.13845247235E+03  0.13845247235E+03  0.00000000000E+00 0.  1.
         21   -1    0    0  502  503 -0.00000000000E+00 -0.00000000000E+00 -0.63014714680E+02  0.63014714680E+02  0.00000000000E+00 0. -1.
         24    1    1    2    0    0 -0.34700725281E+02  0.28773451021E+02 -0.55516165872E-01  0.92191490145E+02  0.80419002446E+02 0. -1.
          1    1    1    2  501    0  0.27557725186E+02  0.16531226936E+02  0.22712526842E+02  0.39351855827E+02  0.00000000000E+00 0. -1.
         -2    1    1    2    0  503  0.71430000946E+01 -0.45304677956E+02  0.52780746993E+02  0.69923841057E+02  0.00000000000E+00 0.  1.
<mgrwt>
<rscale>  2 0.85095799E+02</rscale>
<asrwt>0</asrwt>
<pdfrwt beam="1">  1       21 0.21300380E-01 0.85095799E+02</pdfrwt>
<pdfrwt beam="2">  1       21 0.96945715E-02 0.85095799E+02</pdfrwt>
<totfact> 0.17285911E+06</totfact>
</mgrwt>
</event>
<event>
 5    1  0.1281005E-004  0.1739659E+03  0.7546771E-02  0.1173774E+00
         21   -1    0    0  503  502  0.00000000000E+00  0.00000000000E+00  0.69223830029E+03  0.69223830029E+03  0.00000000000E+00 0.  1.
         21   -1    0    0  501  503 -0.00000000000E+00 -0.00000000000E+00 -0.44751918258E+02  0.44751918258E+02  0.00000000000E+00 0. -1.
         24    1    1    2    0    0  0.36812068521E+02 -0.53844238259E+02  0.20465515251E+03  0.22935840466E+03  0.80419002446E+02 0. -1.
          1    1    1    2  501    0  0.20561746488E+02 -0.88530411752E+02  0.12366107407E+03  0.15346817411E+03  0.00000000000E+00 0. -1.
         -2    1    1    2    0  502 -0.57373815010E+02  0.14237465001E+03  0.31917015545E+03  0.35416363978E+03  0.00000000000E+00 0.  1.
<mgrwt>
<rscale>  2 0.17396595E+03</rscale>
<asrwt>0</asrwt>
<pdfrwt beam="1">  1       21 0.10649819E+00 0.17396595E+03</pdfrwt>
<pdfrwt beam="2">  1       21 0.68849110E-02 0.17396595E+03</pdfrwt>
<totfact> 0.11076231E+05</totfact>
</mgrwt>
</event>
<event>
 5    1  0.1281005E-004  0.1325551E+03  0.7546771E-02  0.1223713E+00
         21   -1    0    0  501  502  0.00000000000E+00  0.00000000000E+00  0.14305634909E+03  0.14305634909E+03  0.00000000000E+00 0. -1.
         21   -1    0    0  502  503 -0.00000000000E+00 -0.00000000000E+00 -0.12308434032E+03  0.12308434032E+03  0.00000000000E+00 0.  1.
         24    1    1    2    0    0 -0.55223147575E+02  0.54273182724E+02  0.60123351033E+01  0.11179686274E+03  0.80419002446E+02 0. -1.
          1    1    1    2  501    0  0.29121919577E+02 -0.98173388335E+02  0.13337041091E+02  0.10326653399E+03  0.00000000000E+00 0. -1.
         -2    1    1    2    0  503  0.26101227998E+02  0.43900205611E+02  0.62263257875E+00  0.51077292675E+02  0.00000000000E+00 0.  1.
<mgrwt>
<rscale>  2 0.13255512E+03</rscale>
<asrwt>0</asrwt>
<pdfrwt beam="1">  1       21 0.22008669E-01 0.13255512E+03</pdfrwt>
<pdfrwt beam="2">  1       21 0.18936053E-01 0.13255512E+03</pdfrwt>
<totfact> 0.49683859E+05</totfact>
</mgrwt>
</event>
<event>
 5    1  0.1281005E-004  0.1599508E+03  0.7546771E-02  0.1188752E+00
         21   -1    0    0  501  502  0.00000000000E+00  0.00000000000E+00  0.12744049395E+03  0.12744049395E+03  0.00000000000E+00 0.  1.
         21   -1    0    0  502  503 -0.00000000000E+00 -0.00000000000E+00 -0.20300316050E+03  0.20300316050E+03  0.00000000000E+00 0. -1.
         24    1    1    2    0    0  0.39158038480E+02 -0.18925319829E+02 -0.37032642436E+02  0.98641534195E+02  0.80419002446E+02 0. -1.
          1    1    1    2  501    0 -0.11568600166E+03 -0.49487576905E+02 -0.17774337579E+02  0.12707556148E+03  0.00000000000E+00 0. -1.
         -2    1    1    2    0  503  0.76527963183E+02  0.68412896734E+02 -0.20755686537E+02  0.10472655877E+03  0.00000000000E+00 0.  1.
<mgrwt>
<rscale>  2 0.15995083E+03</rscale>
<asrwt>0</asrwt>
<pdfrwt beam="1">  1       21 0.19606230E-01 0.15995083E+03</pdfrwt>
<pdfrwt beam="2">  1       21 0.31231255E-01 0.15995083E+03</pdfrwt>
<totfact> 0.23809000E+05</totfact>
</mgrwt>
</event>
<event>
 5    1  0.1281005E-004  0.2219523E+03  0.7546771E-02  0.1132436E+00
         21   -1    0    0  503  502  0.00000000000E+00  0.00000000000E+00  0.52572975350E+03  0.52572975350E+03  0.00000000000E+00 0.  1.
         21   -1    0    0  501  503 -0.00000000000E+00 -0.00000000000E+00 -0.95384889449E+02  0.95384889449E+02  0.00000000000E+00 0.  1.
         24    1    1    2    0    0  0.75526256850E+02 -0.10743929907E+03  0.11201685345E+03  0.19042691477E+03  0.80419002446E+02 0.  1.
          1    1    1    2  501    0  0.49515528413E+02 -0.61987473479E+02  0.80203342948E+02  0.11281316697E+03  0.00000000000E+00 0. -1.
         -2    1    1    2    0  502 -0.12504178526E+03  0.16942677255E+03  0.23812466765E+03  0.31787456120E+03  0.00000000000E+00 0.  1.
<mgrwt>
<rscale>  2 0.22195226E+03</rscale>
<asrwt>0</asrwt>
<pdfrwt beam="1">  1       21 0.80881499E-01 0.22195226E+03</pdfrwt>
<pdfrwt beam="2">  1       21 0.14674599E-01 0.22195226E+03</pdfrwt>
<totfact> 0.54016834E+04</totfact>
</mgrwt>
</event>
<event>
 5    1  0.1281005E-004  0.2441212E+03  0.7546771E-02  0.1117077E+00
         21   -1    0    0  503  502  0.00000000000E+00  0.00000000000E+00  0.20232659242E+04  0.20232659242E+04  0.00000000000E+00 0. -1.
         21   -1    0    0  501  503 -0.00000000000E+00 -0.00000000000E+00 -0.29769989718E+02  0.29769989718E+02  0.00000000000E+00 0. -1.
         24    1    1    2    0    0 -0.10670827285E+02 -0.19782846608E+03  0.80362330126E+03  0.83158138197E+03  0.80419002446E+02 0. -1.
          1    1    1    2  501    0  0.24200858432E+02  0.23428954475E+03  0.97140688596E+03  0.99955420584E+03  0.00000000000E+00 0. -1.
         -2    1    1    2    0  502 -0.13530031147E+02 -0.36461078676E+02  0.21846574722E+03  0.22190032607E+03  0.00000000000E+00 0.  1.
<mgrwt>
<rscale>  2 0.24412121E+03</rscale>
<asrwt>0</asrwt>
<pdfrwt beam="1">  1       21 0.31127157E+00 0.24412121E+03</pdfrwt>
<pdfrwt beam="2">  1       21 0.45800000E-02 0.24412121E+03</pdfrwt>
<totfact> 0.87100573E+03</totfact>
</mgrwt>
</event>
<event>
 5    1  0.1281005E-004  0.2017705E+03  0.7546771E-02  0.1148254E+00
         21   -1    0    0  503  502  0.00000000000E+00  0.00000000000E+00  0.20991046529E+02  0.20991046529E+02  0.00000000000E+00 0. -1.
         21   -1    0    0  501  503 -0.00000000000E+00 -0.00000000000E+00 -0.20136660889E+04  0.20136660889E+04  0.00000000000E+00 0. -1.
         24    1    1    2    0    0  0.15403313527E+03  0.41909820702E+02 -0.10787628885E+04  0.10934711818E+04  0.80419002446E+02 0. -1.
          1    1    1    2  501    0 -0.17985821273E+03 -0.63904541847E+02 -0.78745238572E+03  0.81025553188E+03  0.00000000000E+00 0. -1.
         -2    1    1    2    0  502  0.25825077465E+02  0.21994721145E+02 -0.12645976815E+03  0.13093042177E+03  0.00000000000E+00 0.  1.
<mgrwt>
<rscale>  2 0.20177046E+03</rscale>
<asrwt>0</asrwt>
<pdfrwt beam="1">  1       21 0.32293911E-02 0.20177046E+03</pdfrwt>
<pdfrwt beam="2">  1       21 0.30979485E+00 0.20177046E+03</pdfrwt>
<totfact> 0.16630559E+04</totfact>
</mgrwt>
</event>
<event>
 5    1  0.1281005E-004  0.1721242E+03  0.7546771E-02  0.1175651E+00
         21   -1    0    0  501  502  0.00000000000E+00  0.00000000000E+00  0.12447304242E+04  0.12447304242E+04  0.00000000000E+00 0.  1.
         21   -1    0    0  502  503 -0.00000000000E+00 -0.00000000000E+00 -0.24857027592E+02  0.24857027592E+02  0.00000000000E+00 0. -1.
         24    1    1    2    0    0  0.28103642799E+02  0.51475534149E+02  0.38465293746E+03  0.39732183883E+03  0.80419002446E+02 0.  0.
          1    1    1    2  501    0  0.66747693409E+02  0.65905269087E+02  0.22732420773E+03  0.24591676333E+03  0.00000000000E+00 0. -1.
         -2    1    1    2    0  503 -0.94851336208E+02 -0.11738080324E+03  0.60789625140E+03  0.62634884961E+03  0.00000000000E+00 0.  1.
<mgrwt>
<rscale>  2 0.17212420E+03</rscale>
<asrwt>0</asrwt>
<pdfrwt beam="1">  1       21 0.19149694E+00 0.17212420E+03</pdfrwt>
<pdfrwt beam="2">  1       21 0.38241591E-02 0.17212420E+03</pdfrwt>
<totfact> 0.65243217E+04</totfact>
</mgrwt>
</event>
<event>
 5    1  0.1281005E-004  0.3069565E+03  0.7546771E-02  0.1081814E+00
         21   -1    0    0  503  502  0.00000000000E+00  0.00000000000E+00  0.11325255223E+04  0.11325255223E+04  0.00000000000E+00 0.  1.
         21   -1    0    0  501  503 -0.00000000000E+00 -0.00000000000E+00 -0.85641592937E+02  0.85641592937E+02  0.00000000000E+00 0. -1.
         24    1    1    2    0    0 -0.11569777299E+03  0.13487640177E+03  0.39490017811E+03  0.44044407711E+03  0.80419002446E+02 0.  0.
          1    1    1    2  501    0 -0.68067934223E+02  0.99796465298E+02  0.13656079534E+03  0.18232232167E+03  0.00000000000E+00 0. -1.
         -2    1    1    2    0  502  0.18376570721E+03 -0.23467286707E+03  0.51542295592E+03  0.59540071647E+03  0.00000000000E+00 0.  1.
<mgrwt>
<rscale>  2 0.30695649E+03</rscale>
<asrwt>0</asrwt>
<pdfrwt beam="1">  1       21 0.17423469E+00 0.30695649E+03</pdfrwt>
<pdfrwt beam="2">  1       21 0.13175630E-01 0.30695649E+03</pdfrwt>
<totfact> 0.91873527E+03</totfact>
</mgrwt>
</event>
<event>
 5    1  0.1281005E-004  0.5905679E+03  0.7546771E-02  0.9925170E-01
         21   -1    0    0  501  502  0.00000000000E+00  0.00000000000E+00  0.20626372984E+04  0.20626372984E+04  0.00000000000E+00 0. -1.
         21   -1    0    0  502  503 -0.00000000000E+00 -0.00000000000E+00 -0.23321126973E+03  0.23321126973E+03  0.00000000000E+00 0.  1.
         24    1    1    2    0    0 -0.10157741246E+03  0.97797599940E+02  0.28752656011E+03  0.33018340358E+03  0.80419002446E+02 0.  1.
          1    1    1    2  501    0 -0.21899404179E+03  0.38285467132E+03  0.12351412765E+04  0.13115296651E+04  0.00000000000E+00 0. -1.
         -2    1    1    2    0  503  0.32057145425E+03 -0.48065227126E+03  0.30675819207E+03  0.65413549938E+03  0.00000000000E+00 0.  1.
<mgrwt>
<rscale>  2 0.59056792E+03</rscale>
<asrwt>0</asrwt>
<pdfrwt beam="1">  1       21 0.31732880E+00 0.59056792E+03</pdfrwt>
<pdfrwt beam="2">  1       21 0.35878658E-01 0.59056792E+03</pdfrwt>
<totfact> 0.14586326E+02</totfact>
</mgrwt>
</event>
<event>
 5    1  0.1281005E-004  0.3854524E+03  0.7546771E-02  0.1048937E+00
         21   -1    0    0  501  502  0.00000000000E+00  0.00000000000E+00  0.97205712482E+03  0.97205712482E+03  0.00000000000E+00 0. -1.
         21   -1    0    0  502  503 -0.00000000000E+00 -0.00000000000E+00 -0.15397841381E+03  0.15397841381E+03  0.00000000000E+00 0.  1.
         24    1    1    2    0    0  0.37461544519E+02  0.25118429006E+03  0.24648741150E+03  0.36293274152E+03  0.80419002446E+02 0. -1.
          1    1    1    2  501    0 -0.22101173855E+00  0.12574712816E+03  0.16449061532E+03  0.20704963563E+03  0.00000000000E+00 0. -1.
         -2    1    1    2    0  503 -0.37240532780E+02 -0.37693141821E+03  0.40710068419E+03  0.55605316148E+03  0.00000000000E+00 0.  1.
<mgrwt>
<rscale>  2 0.38545244E+03</rscale>
<asrwt>0</asrwt>
<pdfrwt beam="1">  1       21 0.14954725E+00 0.38545244E+03</pdfrwt>
<pdfrwt beam="2">  1       21 0.23688987E-01 0.38545244E+03</pdfrwt>
<totfact> 0.45067645E+03</totfact>
</mgrwt>
</event>
<event>
 5    1  0.1281005E-004  0.1894659E+03  0.7546771E-02  0.1158944E+00
         21   -1    0    0  501  502  0.00000000000E+00  0.00000000000E+00  0.76339786689E+03  0.76339786689E+03  0.00000000000E+00 0.  1.
         21   -1    0    0  502  503 -0.00000000000E+00 -0.00000000000E+00 -0.54792376189E+02  0.54792376189E+02  0.00000000000E+00 0. -1.
         24    1    1    2    0    0  0.38654857387E+02 -0.81801774415E+02  0.38720975900E+03  0.40568995763E+03  0.80419002446E+02 0.  1.
          1    1    1    2  501    0 -0.95667524328E+02  0.14439806500E+03  0.20140045768E+03  0.26564115032E+03  0.00000000000E+00 0. -1.
         -2    1    1    2    0  503  0.57012666941E+02 -0.62596290585E+02  0.11999527401E+03  0.14685913513E+03  0.00000000000E+00 0.  1.
<mgrwt>
<rscale>  2 0.18946586E+03</rscale>
<asrwt>0</asrwt>
<pdfrwt beam="1">  1       21 0.11744582E+00 0.18946586E+03</pdfrwt>
<pdfrwt beam="2">  1       21 0.84295969E-02 0.18946586E+03</pdfrwt>
<totfact> 0.61098080E+04</totfact>
</mgrwt>
</event>
<event>
 5    1  0.1281005E-004  0.8596089E+02  0.7546771E-02  0.1312939E+00
         21   -1    0    0  503  502  0.00000000000E+00  0.00000000000E+00  0.31496693412E+02  0.31496693412E+02  0.00000000000E+00 0.  1.
         21   -1    0    0  501  503 -0.00000000000E+00 -0.00000000000E+00 -0.26705691218E+03  0.26705691218E+03  0.00000000000E+00 0.  1.
         24    1    1    2    0    0  0.56041542340E+01  0.58812403023E+01 -0.70018478278E+02  0.10693829430E+03  0.80419002446E+02 0.  0.
          1    1    1    2  501    0  0.42644842104E+02 -0.20987319477E+01 -0.10972004608E+03  0.11773476864E+03  0.00000000000E+00 0. -1.
         -2    1    1    2    0  502 -0.48248996338E+02 -0.37825083546E+01 -0.55821694410E+02  0.73880542661E+02  0.00000000000E+00 0.  1.
<mgrwt>
<rscale>  2 0.85960887E+02</rscale>
<asrwt>0</asrwt>
<pdfrwt beam="1">  1       21 0.48456451E-02 0.85960887E+02</pdfrwt>
<pdfrwt beam="2">  1       21 0.41085679E-01 0.85960887E+02</pdfrwt>
<totfact> 0.15975955E+06</totfact>
</mgrwt>
</event>
<event>
 5    1  0.1281005E-004  0.1353761E+03  0.7546771E-02  0.1219690E+00
         21   -1    0    0  503  502  0.00000000000E+00  0.00000000000E+00  0.21826554291E+03  0.21826554291E+03  0.00000000000E+00 0.  1.
         21   -1    0    0  501  503 -0.00000000000E+00 -0.00000000000E+00 -0.85992169998E+02  0.85992169998E+02  0.00000000000E+00 0.  1.
         24    1    1    2    0    0 -0.32652939585E+02  0.49139367040E+02  0.65879234535E+02  0.11953318097E+03  0.80419002446E+02 0.  1.
          1    1    1    2  501    0 -0.23662530479E+02  0.50944692894E+02  0.32909518265E+02  0.65102330797E+02  0.00000000000E+00 0. -1.
         -2    1    1    2    0  502  0.56315470064E+02 -0.10008405993E+03  0.33484620114E+02  0.11962220114E+03  0.00000000000E+00 0.  1.
<mgrwt>
<rscale>  2 0.13537608E+03</rscale>
<asrwt>0</asrwt>
<pdfrwt beam="1">  1       21 0.33579314E-01 0.13537608E+03</pdfrwt>
<pdfrwt beam="2">  1       21 0.13229565E-01 0.13537608E+03</pdfrwt>
<totfact> 0.42457231E+05</totfact>
</mgrwt>
</event>
<event>
 5    1  0.1281005E-004  0.1238351E+03  0.7546771E-02  0.1236901E+00
         21   -1    0    0  503  502  0.00000000000E+00  0.00000000000E+00  0.17766470670E+03  0.17766470670E+03  0.00000000000E+00 0.  1.
         21   -1    0    0  501  503 -0.00000000000E+00 -0.00000000000E+00 -0.88150710113E+02  0.88150710113E+02  0.00000000000E+00 0.  1.
         24    1    1    2    0    0  0.37489470646E+02 -0.59804171285E+01  0.50722168132E+02  0.10237763473E+03  0.80419002446E+02 0.  1.
          1    1    1    2  501    0  0.55764392308E+02  0.28761379092E+02  0.13868155628E+02  0.64258930253E+02  0.00000000000E+00 0. -1.
         -2    1    1    2    0  502 -0.93253862954E+02 -0.22780961963E+02  0.24923672831E+02  0.99178851834E+02  0.00000000000E+00 0.  1.
<mgrwt>
<rscale>  2 0.12383507E+03</rscale>
<asrwt>0</asrwt>
<pdfrwt beam="1">  1       21 0.27333032E-01 0.12383507E+03</pdfrwt>
<pdfrwt beam="2">  1       21 0.13561648E-01 0.12383507E+03</pdfrwt>
<totfact> 0.60492577E+05</totfact>
</mgrwt>
</event>
<event>
 5    1  0.1281005E-004  0.2478457E+03  0.7546771E-02  0.1114674E+00
         21   -1    0    0  501  502  0.00000000000E+00  0.00000000000E+00  0.63265601613E+02  0.63265601613E+02  0.00000000000E+00 0.  1.
         21   -1    0    0  502  503 -0.00000000000E+00 -0.00000000000E+00 -0.10062951569E+04  0.10062951569E+04  0.00000000000E+00 0. -1.
         24    1    1    2    0    0 -0.89902250774E+02  0.31187979791E+02 -0.18917717226E+03  0.22651782101E+03  0.80419002446E+02 0.  1.
          1    1    1    2  501    0 -0.11915115103E+03  0.70693904207E+02 -0.21035271692E+03  0.25187872161E+03  0.00000000000E+00 0. -1.
         -2    1    1    2    0  503  0.20905340180E+03 -0.10188188400E+03 -0.54349966612E+03  0.59116421591E+03  0.00000000000E+00 0.  1.
<mgrwt>
<rscale>  2 0.24784566E+03</rscale>
<asrwt>0</asrwt>
<pdfrwt beam="1">  1       21 0.97331706E-02 0.24784566E+03</pdfrwt>
<pdfrwt beam="2">  1       21 0.15481462E+00 0.24784566E+03</pdfrwt>
<totfact> 0.22629939E+04</totfact>
</mgrwt>
</event>
<event>
 5    1  0.1281005E-004  0.3136693E+03  0.7546771E-02  0.1078600E+00
         21   -1    0    0  503  502  0.00000000000E+00  0.00000000000E+00  0.12261735159E+03  0.12261735159E+03  0.00000000000E+00 0.  1.
         21   -1    0    0  501  503 -0.00000000000E+00 -0.00000000000E+00 -0.88625394368E+03  0.88625394368E+03  0.00000000000E+00 0. -1.
         24    1    1    2    0    0 -0.19985358573E+02  0.10656972895E+02 -0.21707941658E+02  0.86321702451E+02  0.80419002446E+02 0.  0.
          1    1    1    2  501    0  0.28116266397E+03  0.13588060173E+02 -0.44287955784E+03  0.52476602571E+03  0.00000000000E+00 0. -1.
         -2    1    1    2    0  502 -0.26117730539E+03 -0.24245033068E+02 -0.29904909260E+03  0.39778356711E+03  0.00000000000E+00 0.  1.
<mgrwt>
<rscale>  2 0.31366932E+03</rscale>
<asrwt>0</asrwt>
<pdfrwt beam="1">  1       21 0.18864208E-01 0.31366932E+03</pdfrwt>
<pdfrwt beam="2">  1       21 0.13634676E+00 0.31366932E+03</pdfrwt>
<totfact> 0.91730563E+03</totfact>
</mgrwt>
</event>
<event>
 5    1  0.1281005E-004  0.1189088E+03  0.7546771E-02  0.1244908E+00
         21   -1    0    0  501  502  0.00000000000E+00  0.00000000000E+00  0.69039300168E+03  0.69039300168E+03  0.00000000000E+00 0.  1.
         21   -1    0    0  502  503 -0.00000000000E+00 -0.00000000000E+00 -0.21183652522E+02  0.21183652522E+02  0.00000000000E+00 0.  1.
         24    1    1    2    0    0 -0.12727811449E+02  0.35736064927E+02  0.19921918417E+03  0.21816178129E+03  0.80419002446E+02 0.  1.
          1    1    1    2  501    0  0.30278952227E+02  0.51594775543E+02  0.15757636763E+03  0.16855013333E+03  0.00000000000E+00 0. -1.
         -2    1    1    2    0  503 -0.17551140778E+02 -0.87330840470E+02  0.31241379736E+03  0.32486473958E+03  0.00000000000E+00 0.  1.
<mgrwt>
<rscale>  2 0.11890883E+03</rscale>
<asrwt>0</asrwt>
<pdfrwt beam="1">  1       21 0.10621429E+00 0.11890883E+03</pdfrwt>
<pdfrwt beam="2">  1       21 0.32590240E-02 0.11890883E+03</pdfrwt>
<totfact> 0.39853986E+05</totfact>
</mgrwt>
</event>
<event>
 5    1  0.1281005E-004  0.1105998E+03  0.7546771E-02  0.1259463E+00
         21   -1    0    0  503  502  0.00000000000E+00  0.00000000000E+00  0.17417453292E+02  0.17417453292E+02  0.00000000000E+00 0. -1.
         21   -1    0    0  501  503 -0.00000000000E+00 -0.00000000000E+00 -0.74679447298E+03  0.74679447298E+03  0.00000000000E+00 0.  1.
         24    1    1    2    0    0  0.60607417004E+01 -0.53395985550E+02 -0.25877128754E+03  0.27625650956E+03  0.80419002446E+02 0. -1.
          1    1    1    2  501    0  0.24974136065E+02 -0.27908747502E+02 -0.20685578596E+03  0.21021874761E+03  0.00000000000E+00 0. -1.
         -2    1    1    2    0  502 -0.31034877765E+02  0.81304733051E+02 -0.26374994618E+03  0.27773666911E+03  0.00000000000E+00 0.  1.
<mgrwt>
<rscale>  2 0.11059980E+03</rscale>
<asrwt>0</asrwt>
<pdfrwt beam="1">  1       21 0.26796086E-02 0.11059980E+03</pdfrwt>
<pdfrwt beam="2">  1       21 0.11489144E+00 0.11059980E+03</pdfrwt>
<totfact> 0.45599813E+05</totfact>
</mgrwt>
</event>
<event>
 5    1  0.1281005E-004  0.2124280E+03  0.7546771E-02  0.1139658E+00
         21   -1    0    0  501  502  0.00000000000E+00  0.00000000000E+00  0.38608646101E+03  0.38608646101E+03  0.00000000000E+00 0.  1.
         21   -1    0    0  502  503 -0.00000000000E+00 -0.00000000000E+00 -0.14201002361E+03  0.14201002361E+03  0.00000000000E+00 0. -1.
         24    1    1    2    0    0  0.12312699807E+02 -0.49698367108E+02 -0.28852771667E+02  0.99605364599E+02  0.80419002446E+02 0. -1.
          1    1    1    2  501    0 -0.74818927252E+02  0.17454300057E+03  0.14242786388E+03  0.23737907939E+03  0.00000000000E+00 0. -1.
         -2    1    1    2    0  503  0.62506227445E+02 -0.12484463346E+03  0.13050134519E+03  0.19111204062E+03  0.00000000000E+00 0.  1.
<mgrwt>
<rscale>  2 0.21242798E+03</rscale>
<asrwt>0</asrwt>
<pdfrwt beam="1">  1       21 0.59397917E-01 0.21242798E+03</pdfrwt>
<pdfrwt beam="2">  1       21 0.21847696E-01 0.21242798E+03</pdfrwt>
<totfact> 0.51295487E+04</totfact>
</mgrwt>
</event>
<event>
 5    1  0.1281005E-004  0.2539035E+03  0.7546771E-02  0.1110862E+00
         21   -1    0    0  503  502  0.00000000000E+00  0.00000000000E+00  0.11968572063E+04  0.11968572063E+04  0.00000000000E+00 0. -1.
         21   -1    0    0  501  503 -0.00000000000E+00 -0.00000000000E+00 -0.54517594603E+02  0.54517594603E+02  0.00000000000E+00 0.  1.
         24    1    1    2    0    0 -0.27878167985E+02 -0.91524806776E+00  0.14831278553E+03  0.17100271412E+03  0.80419002446E+02 0.  1.
          1    1    1    2  501    0 -0.15058177383E+02 -0.20843597518E+03  0.51852069581E+03  0.55904920752E+03  0.00000000000E+00 0. -1.
         -2    1    1    2    0  502  0.42936345369E+02  0.20935122325E+03  0.47550613035E+03  0.52132287925E+03  0.00000000000E+00 0.  1.
<mgrwt>
<rscale>  2 0.25390352E+03</rscale>
<asrwt>0</asrwt>
<pdfrwt beam="1">  1       21 0.18413186E+00 0.25390352E+03</pdfrwt>
<pdfrwt beam="2">  1       21 0.83873232E-02 0.25390352E+03</pdfrwt>
<totfact> 0.18104279E+04</totfact>
</mgrwt>
</event>
<event>
 5    1  0.1281005E-004  0.1357314E+03  0.7546771E-02  0.1219191E+00
         21   -1    0    0  503  502  0.00000000000E+00  0.00000000000E+00  0.16076521535E+02  0.16076521535E+02  0.00000000000E+00 0.  1.
         21   -1    0    0  501  503 -0.00000000000E+00 -0.00000000000E+00 -0.11467485243E+04  0.11467485243E+04  0.00000000000E+00 0.  1.
         24    1    1    2    0    0  0.91548658577E+02  0.17405168986E+02 -0.50616901104E+03  0.52092070461E+03  0.80419002446E+02 0.  1.
          1    1    1    2  501    0  0.14512535517E+02 -0.37690917086E+02 -0.16092872073E+03  0.16591947466E+03  0.00000000000E+00 0. -1.
         -2    1    1    2    0  502 -0.10606119409E+03  0.20285748100E+02 -0.46357427101E+03  0.47598486658E+03  0.00000000000E+00 0.  1.
<mgrwt>
<rscale>  2 0.13573138E+03</rscale>
<asrwt>0</asrwt>
<pdfrwt beam="1">  1       21 0.24733111E-02 0.13573138E+03</pdfrwt>
<pdfrwt beam="2">  1       21 0.17642284E+00 0.13573138E+03</pdfrwt>
<totfact> 0.17205205E+05</totfact>
</mgrwt>
</event>
<event>
 5    1  0.1281005E-004  0.1464921E+03  0.7546771E-02  0.1204851E+00
         21   -1    0    0  501  502  0.00000000000E+00  0.00000000000E+00  0.51031173926E+02  0.51031173926E+02  0.00000000000E+00 0.  1.
         21   -1    0    0  502  503 -0.00000000000E+00 -0.00000000000E+00 -0.42771173823E+03  0.42771173823E+03  0.00000000000E+00 0.  1.
         24    1    1    2    0    0  0.38579663207E+02  0.59600853065E+02 -0.15025205287E+03  0.18461729996E+03  0.80419002446E+02 0.  1.
          1    1    1    2  501    0  0.63476261848E+02  0.69746152051E+01 -0.58182242288E+02  0.86388971479E+02  0.00000000000E+00 0. -1.
         -2    1    1    2    0  503 -0.10205592506E+03 -0.66575468270E+02 -0.16824626915E+03  0.20773664072E+03  0.00000000000E+00 0.  1.
<mgrwt>
<rscale>  2 0.14649209E+03</rscale>
<asrwt>0</asrwt>
<pdfrwt beam="1">  1       21 0.78509496E-02 0.14649209E+03</pdfrwt>
<pdfrwt beam="2">  1       21 0.65801808E-01 0.14649209E+03</pdfrwt>
<totfact> 0.26621081E+05</totfact>
</mgrwt>
</event>
<event>
 5    1  0.1281005E-004  0.1019191E+03  0.7546771E-02  0.1276311E+00
         21   -1    0    0  503  502  0.00000000000E+00  0.00000000000E+00  0.33280766283E+03  0.33280766283E+03  0.00000000000E+00 0.  1.
         21   -1    0    0  501  503 -0.00000000000E+00 -0.00000000000E+00 -0.34491830796E+02  0.34491830796E+02  0.00000000000E+00 0. -1.
         24    1    1    2    0    0 -0.26408973123E+02  0.25227024132E+02  0.11193918935E+03  0.14258833990E+03  0.80419002446E+02 0. -1.
          1    1    1    2  501    0  0.15023878533E+02  0.43411794377E+02  0.33842436687E+02  0.57057964722E+02  0.00000000000E+00 0. -1.
         -2    1    1    2    0  502  0.11385094590E+02 -0.68638818509E+02  0.15253420600E+03  0.16765318901E+03  0.00000000000E+00 0.  1.
<mgrwt>
<rscale>  2 0.10191911E+03</rscale>
<asrwt>0</asrwt>
<pdfrwt beam="1">  1       21 0.51201177E-01 0.10191911E+03</pdfrwt>
<pdfrwt beam="2">  1       21 0.53064357E-02 0.10191911E+03</pdfrwt>
<totfact> 0.88345387E+05</totfact>
</mgrwt>
</event>
<event>
 5    1  0.1281005E-004  0.1034553E+03  0.7546771E-02  0.1273193E+00
         21   -1    0    0  501  502  0.00000000000E+00  0.00000000000E+00  0.19189669771E+03  0.19189669771E+03  0.00000000000E+00 0. -1.
         21   -1    0    0  502  503 -0.00000000000E+00 -0.00000000000E+00 -0.56794407184E+02  0.56794407184E+02  0.00000000000E+00 0.  1.
         24    1    1    2    0    0 -0.43114860852E+02 -0.17671686266E+02  0.54806603055E+02  0.10789883880E+03  0.80419002446E+02 0.  1.
          1    1    1    2  501    0  0.73173550087E+02  0.32948647048E+02  0.67020753605E+02  0.10455507251E+03  0.00000000000E+00 0. -1.
         -2    1    1    2    0  503 -0.30058689235E+02 -0.15276960782E+02  0.13274933863E+02  0.36237193577E+02  0.00000000000E+00 0.  1.
<mgrwt>
<rscale>  2 0.10345528E+03</rscale>
<asrwt>0</asrwt>
<pdfrwt beam="1">  1       21 0.29522569E-01 0.10345528E+03</pdfrwt>
<pdfrwt beam="2">  1       21 0.87376012E-02 0.10345528E+03</pdfrwt>
<totfact> 0.11274954E+06</totfact>
</mgrwt>
</event>
<event>
 5    1  0.1281005E-004  0.1593099E+03  0.7546771E-02  0.1189478E+00
         21   -1    0    0  503  502  0.00000000000E+00  0.00000000000E+00  0.97184520142E+03  0.97184520142E+03  0.00000000000E+00 0.  1.
         21   -1    0    0  501  503 -0.00000000000E+00 -0.00000000000E+00 -0.34101866414E+02  0.34101866414E+02  0.00000000000E+00 0. -1.
         24    1    1    2    0    0 -0.14831849623E+02 -0.49247867528E+02  0.25553098965E+03  0.27277946925E+03  0.80419002446E+02 0.  1.
          1    1    1    2  501    0 -0.19378358219E+02 -0.83683170126E+02  0.86720554151E+02  0.12206083828E+03  0.00000000000E+00 0. -1.
         -2    1    1    2    0  502  0.34210207843E+02  0.13293103765E+03  0.59549179120E+03  0.61110676030E+03  0.00000000000E+00 0.  1.
<mgrwt>
<rscale>  2 0.15930989E+03</rscale>
<asrwt>0</asrwt>
<pdfrwt beam="1">  1       21 0.14951462E+00 0.15930989E+03</pdfrwt>
<pdfrwt beam="2">  1       21 0.52464417E-02 0.15930989E+03</pdfrwt>
<totfact> 0.76067254E+04</totfact>
</mgrwt>
</event>
<event>
 5    1  0.1281005E-004  0.2239679E+03  0.7546771E-02  0.1130959E+00
         21   -1    0    0  501  502  0.00000000000E+00  0.00000000000E+00  0.76070241241E+03  0.76070241241E+03  0.00000000000E+00 0.  1.
         21   -1    0    0  502  503 -0.00000000000E+00 -0.00000000000E+00 -0.71919898316E+02  0.71919898316E+02  0.00000000000E+00 0.  1.
         24    1    1    2    0    0 -0.97712758830E+02 -0.14122478311E+03  0.40823236200E+03  0.45012564906E+03  0.80419002446E+02 0.  1.
          1    1    1    2  501    0 -0.35726685368E+02 -0.26131535021E+02  0.32803200930E+02  0.55093585481E+02  0.00000000000E+00 0. -1.
         -2    1    1    2    0  503  0.13343944420E+03  0.16735631813E+03  0.24774695117E+03  0.32740307619E+03  0.00000000000E+00 0.  1.
<mgrwt>
<rscale>  2 0.22396788E+03</rscale>
<asrwt>0</asrwt>
<pdfrwt beam="1">  1       21 0.11703113E+00 0.22396788E+03</pdfrwt>
<pdfrwt beam="2">  1       21 0.11064600E-01 0.22396788E+03</pdfrwt>
<totfact> 0.37457891E+04</totfact>
</mgrwt>
</event>
<event>
 5    1  0.1281005E-004  0.1156724E+03  0.7546771E-02  0.1250412E+00
         21   -1    0    0  501  502  0.00000000000E+00  0.00000000000E+00  0.30537566184E+02  0.30537566184E+02  0.00000000000E+00 0.  1.
         21   -1    0    0  502  503 -0.00000000000E+00 -0.00000000000E+00 -0.46554769339E+03  0.46554769339E+03  0.00000000000E+00 0.  1.
         24    1    1    2    0    0  0.45074204600E+02  0.55228700982E+02 -0.26298047120E+03  0.28409124858E+03  0.80419002446E+02 0.  1.
          1    1    1    2  501    0 -0.20214122423E+01  0.29113126166E+02 -0.41426300478E+02  0.50673450582E+02  0.00000000000E+00 0. -1.
         -2    1    1    2    0  503 -0.43052792358E+02 -0.84341827148E+02 -0.13060335553E+03  0.16132056041E+03  0.00000000000E+00 0.  1.
<mgrwt>
<rscale>  2 0.11567235E+03</rscale>
<asrwt>0</asrwt>
<pdfrwt beam="1">  1       21 0.46980874E-02 0.11567235E+03</pdfrwt>
<pdfrwt beam="2">  1       21 0.71622718E-01 0.11567235E+03</pdfrwt>
<totfact> 0.53206836E+05</totfact>
</mgrwt>
</event>
<event>
 5    1  0.1281005E-004  0.2497701E+03  0.7546771E-02  0.1113450E+00
         21   -1    0    0  501  502  0.00000000000E+00  0.00000000000E+00  0.69456146987E+02  0.69456146987E+02  0.00000000000E+00 0.  1.
         21   -1    0    0  502  503 -0.00000000000E+00 -0.00000000000E+00 -0.94098113865E+03  0.94098113865E+03  0.00000000000E+00 0. -1.
         24    1    1    2    0    0 -0.80838991945E+02 -0.69131447411E+02 -0.23325015226E+03  0.26867629059E+03  0.80419002446E+02 0.  1.
          1    1    1    2  501    0 -0.98873710304E+02 -0.84269580422E+02 -0.32001972754E+03  0.34538384269E+03  0.00000000000E+00 0. -1.
         -2    1    1    2    0  503  0.17971270225E+03  0.15340102783E+03 -0.31825511186E+03  0.39637715236E+03  0.00000000000E+00 0.  1.
<mgrwt>
<rscale>  2 0.24977008E+03</rscale>
<asrwt>0</asrwt>
<pdfrwt beam="1">  1       21 0.10685561E-01 0.24977008E+03</pdfrwt>
<pdfrwt beam="2">  1       21 0.14476633E+00 0.24977008E+03</pdfrwt>
<totfact> 0.22884462E+04</totfact>
</mgrwt>
</event>
<event>
 5    1  0.1281005E-004  0.1519100E+03  0.7546771E-02  0.1198146E+00
         21   -1    0    0  503  502  0.00000000000E+00  0.00000000000E+00  0.80958576722E+03  0.80958576722E+03  0.00000000000E+00 0.  1.
         21   -1    0    0  501  503 -0.00000000000E+00 -0.00000000000E+00 -0.38462799094E+02  0.38462799094E+02  0.00000000000E+00 0. -1.
         24    1    1    2    0    0 -0.71967858089E+02  0.52135493215E+02  0.53595420213E+03  0.54919177432E+03  0.80419002446E+02 0.  1.
          1    1    1    2  501    0  0.12389375615E+03 -0.29713782977E+02  0.17231594977E+03  0.21430202579E+03  0.00000000000E+00 0. -1.
         -2    1    1    2    0  502 -0.51925898062E+02 -0.22421710239E+02  0.62852816224E+02  0.84554766199E+02  0.00000000000E+00 0.  1.
<mgrwt>
<rscale>  2 0.15190996E+03</rscale>
<asrwt>0</asrwt>
<pdfrwt beam="1">  1       21 0.12455164E+00 0.15190996E+03</pdfrwt>
<pdfrwt beam="2">  1       21 0.59173543E-02 0.15190996E+03</pdfrwt>
<totfact> 0.99000183E+04</totfact>
</mgrwt>
</event>
<event>
 5    1  0.1281005E-004  0.1009420E+03  0.7546771E-02  0.1278327E+00
         21   -1    0    0  501  502  0.00000000000E+00  0.00000000000E+00  0.95968465576E+01  0.95968465576E+01  0.00000000000E+00 0. -1.
         21   -1    0    0  502  503 -0.00000000000E+00 -0.00000000000E+00 -0.10878286815E+04  0.10878286815E+04  0.00000000000E+00 0.  1.
         24    1    1    2    0    0  0.12264559970E+02  0.14726517248E+02 -0.50150762416E+03  0.50827591207E+03  0.80419002446E+02 0. -1.
          1    1    1    2  501    0  0.50868476994E+02  0.92082756940E+01 -0.21060179601E+03  0.21685366213E+03  0.00000000000E+00 0. -1.
         -2    1    1    2    0  503 -0.63133036964E+02 -0.23934792942E+02 -0.36612241480E+03  0.37229595390E+03  0.00000000000E+00 0.  1.
<mgrwt>
<rscale>  2 0.10094204E+03</rscale>
<asrwt>0</asrwt>
<pdfrwt beam="1">  1       21 0.14764371E-02 0.10094204E+03</pdfrwt>
<pdfrwt beam="2">  1       21 0.16735835E+00 0.10094204E+03</pdfrwt>
<totfact> 0.46179877E+05</totfact>
</mgrwt>
</event>
<event>
 5    1  0.1281005E-004  0.1588826E+03  0.7546771E-02  0.1189964E+00
         21   -1    0    0  503  502  0.00000000000E+00  0.00000000000E+00  0.43636388684E+02  0.43636388684E+02  0.00000000000E+00 0. -1.
         21   -1    0    0  501  503 -0.00000000000E+00 -0.00000000000E+00 -0.58554267285E+03  0.58554267285E+03  0.00000000000E+00 0. -1.
         24    1    1    2    0    0  0.71563416603E+02 -0.95148110318E+02 -0.26879542596E+03  0.30478300882E+03  0.80419002446E+02 0. -1.
          1    1    1    2  501    0 -0.36612375190E+02  0.12367341411E+03 -0.18673470704E+03  0.22694807817E+03  0.00000000000E+00 0. -1.
         -2    1    1    2    0  502 -0.34951041412E+02 -0.28525303787E+02 -0.86376151170E+02  0.97447974545E+02  0.00000000000E+00 0.  1.
<mgrwt>
<rscale>  2 0.15888257E+03</rscale>
<asrwt>0</asrwt>
<pdfrwt beam="1">  1       21 0.67132911E-02 0.15888257E+03</pdfrwt>
<pdfrwt beam="2">  1       21 0.90083481E-01 0.15888257E+03</pdfrwt>
<totfact> 0.17244532E+05</totfact>
</mgrwt>
</event>
<event>
 5    1  0.1281005E-004  0.2215754E+03  0.7546771E-02  0.1132714E+00
         21   -1    0    0  503  502  0.00000000000E+00  0.00000000000E+00  0.22519184031E+03  0.22519184031E+03  0.00000000000E+00 0. -1.
         21   -1    0    0  501  503 -0.00000000000E+00 -0.00000000000E+00 -0.22142363731E+03  0.22142363731E+03  0.00000000000E+00 0. -1.
         24    1    1    2    0    0  0.51944845174E+02 -0.14539992035E+03 -0.13651355462E+01  0.17409331787E+03  0.80419002446E+02 0. -1.
          1    1    1    2  501    0 -0.44064052084E+02  0.20462504874E+03  0.21923435400E+02  0.21046065731E+03  0.00000000000E+00 0. -1.
         -2    1    1    2    0  502 -0.78807930902E+01 -0.59225128388E+02 -0.16790096850E+02  0.62061502435E+02  0.00000000000E+00 0.  1.
<mgrwt>
<rscale>  2 0.22157540E+03</rscale>
<asrwt>0</asrwt>
<pdfrwt beam="1">  1       21 0.34644898E-01 0.22157540E+03</pdfrwt>
<pdfrwt beam="2">  1       21 0.34065175E-01 0.22157540E+03</pdfrwt>
<totfact> 0.65833902E+04</totfact>
</mgrwt>
</event>
<event>
 5    1  0.1281005E-004  0.2699005E+03  0.7546771E-02  0.1101337E+00
         21   -1    0    0  503  502  0.00000000000E+00  0.00000000000E+00  0.57654026734E+02  0.57654026734E+02  0.00000000000E+00 0.  1.
         21   -1    0    0  501  503 -0.00000000000E+00 -0.00000000000E+00 -0.13173501939E+04  0.13173501939E+04  0.00000000000E+00 0. -1.
         24    1    1    2    0    0  0.96331027311E+02 -0.18765176476E+02 -0.28394131581E+03  0.31100110201E+03  0.80419002446E+02 0.  0.
          1    1    1    2  501    0 -0.25292185862E+03  0.35644451940E+02 -0.47853347305E+03  0.54243366263E+03  0.00000000000E+00 0. -1.
         -2    1    1    2    0  502  0.15659083131E+03 -0.16879275464E+02 -0.49722137829E+03  0.52156945598E+03  0.00000000000E+00 0.  1.
<mgrwt>
<rscale>  2 0.26990052E+03</rscale>
<asrwt>0</asrwt>
<pdfrwt beam="1">  1       21 0.88698511E-02 0.26990052E+03</pdfrwt>
<pdfrwt beam="2">  1       21 0.20266924E+00 0.26990052E+03</pdfrwt>
<totfact> 0.12245812E+04</totfact>
</mgrwt>
</event>
<event>
 5    1  0.1281005E-004  0.1328484E+03  0.7546771E-02  0.1223289E+00
         21   -1    0    0  503  502  0.00000000000E+00  0.00000000000E+00  0.11681310006E+03  0.11681310006E+03  0.00000000000E+00 0. -1.
         21   -1    0    0  501  503 -0.00000000000E+00 -0.00000000000E+00 -0.19871333105E+03  0.19871333105E+03  0.00000000000E+00 0. -1.
         24    1    1    2    0    0 -0.47226586912E+02  0.60716059319E+02  0.16341814325E+02  0.11247693639E+03  0.80419002446E+02 0. -1.
          1    1    1    2  501    0  0.93292586468E+02 -0.54185319657E+02 -0.11101367941E+03  0.15480178479E+03  0.00000000000E+00 0. -1.
         -2    1    1    2    0  502 -0.46065999556E+02 -0.65307396619E+01  0.12771634098E+02  0.48247709927E+02  0.00000000000E+00 0.  1.
<mgrwt>
<rscale>  2 0.13284842E+03</rscale>
<asrwt>0</asrwt>
<pdfrwt beam="1">  1       21 0.17971246E-01 0.13284842E+03</pdfrwt>
<pdfrwt beam="2">  1       21 0.30571281E-01 0.13284842E+03</pdfrwt>
<totfact> 0.29294910E+05</totfact>
</mgrwt>
</event>
<event>
 5    1  0.1281005E-004  0.2733485E+03  0.7546771E-02  0.1099378E+00
         21   -1    0    0  501  502  0.00000000000E+00  0.00000000000E+00  0.64366157976E+03  0.64366157976E+03  0.00000000000E+00 0. -1.
         21   -1    0    0  502  503 -0.00000000000E+00 -0.00000000000E+00 -0.11647341319E+03  0.11647341319E+03  0.00000000000E+00 0.  1.
         24    1    1    2    0    0  0.11454994882E+03 -0.53754635839E+02  0.16071544361E+03  0.21979063087E+03  0.80419002446E+02 0. -1.
          1    1    1    2  501    0 -0.22683569100E+03  0.12961837764E+03  0.25130468106E+03  0.36250434102E+03  0.00000000000E+00 0. -1.
         -2    1    1    2    0  503  0.11228574218E+03 -0.75863741797E+02  0.11516804190E+03  0.17784002106E+03  0.00000000000E+00 0.  1.
<mgrwt>
<rscale>  2 0.27334854E+03</rscale>
<asrwt>0</asrwt>
<pdfrwt beam="1">  1       21 0.99024857E-01 0.27334854E+03</pdfrwt>
<pdfrwt beam="2">  1       21 0.17918987E-01 0.27334854E+03</pdfrwt>
<totfact> 0.22803269E+04</totfact>
</mgrwt>
</event>
<event>
 5    1  0.1281005E-004  0.9979099E+02  0.7546771E-02  0.1280736E+00
         21   -1    0    0  503  502  0.00000000000E+00  0.00000000000E+00  0.20154981060E+02  0.20154981060E+02  0.00000000000E+00 0. -1.
         21   -1    0    0  501  503 -0.00000000000E+00 -0.00000000000E+00 -0.51980660616E+03  0.51980660616E+03  0.00000000000E+00 0.  1.
         24    1    1    2    0    0 -0.25483526710E+02  0.24097989059E+02 -0.27440734654E+03  0.28809153233E+03  0.80419002446E+02 0.  0.
          1    1    1    2  501    0  0.23823849164E+02 -0.65868250121E+02 -0.15567887185E+03  0.17071061274E+03  0.00000000000E+00 0. -1.
         -2    1    1    2    0  502  0.16596775466E+01  0.41770261062E+02 -0.69565406710E+02  0.81159442146E+02  0.00000000000E+00 0.  1.
<mgrwt>
<rscale>  2 0.99790994E+02</rscale>
<asrwt>0</asrwt>
<pdfrwt beam="1">  1       21 0.31007663E-02 0.99790994E+02</pdfrwt>
<pdfrwt beam="2">  1       21 0.79970247E-01 0.99790994E+02</pdfrwt>
<totfact> 0.82928760E+05</totfact>
</mgrwt>
</event>
<event>
 5    1  0.1281005E-004  0.1695921E+03  0.7546771E-02  0.1178274E+00
         21   -1    0    0  503  502  0.00000000000E+00  0.00000000000E+00  0.46676837809E+03  0.46676837809E+03  0.00000000000E+00 0.  1.
         21   -1    0    0  501  503 -0.00000000000E+00 -0.00000000000E+00 -0.68809710219E+02  0.68809710219E+02  0.00000000000E+00 0. -1.
         24    1    1    2    0    0  0.79695658657E+01  0.28474193198E+02  0.54298119134E+02  0.10143862851E+03  0.80419002446E+02 0. -1.
          1    1    1    2  501    0  0.22154819116E+01 -0.14074862017E+03  0.12556997061E+03  0.18863430218E+03  0.00000000000E+00 0. -1.
         -2    1    1    2    0  502 -0.10185047777E+02  0.11227442697E+03  0.21809057812E+03  0.24550515762E+03  0.00000000000E+00 0.  1.
<mgrwt>
<rscale>  2 0.16959206E+03</rscale>
<asrwt>0</asrwt>
<pdfrwt beam="1">  1       21 0.71810518E-01 0.16959206E+03</pdfrwt>
<pdfrwt beam="2">  1       21 0.10586110E-01 0.16959206E+03</pdfrwt>
<totfact> 0.12955839E+05</totfact>
</mgrwt>
</event>
<event>
 5    1  0.1281005E-004  0.1417786E+03  0.7546771E-02  0.1210956E+00
         21   -1    0    0  503  502  0.00000000000E+00  0.00000000000E+00  0.78074487156E+02  0.78074487156E+02  0.00000000000E+00 0.  1.
         21   -1    0    0  501  503 -0.00000000000E+00 -0.00000000000E+00 -0.27338634157E+03  0.27338634157E+03  0.00000000000E+00 0. -1.
         24    1    1    2    0    0  0.79968176286E+02 -0.16934034795E+02 -0.40602375761E+02  0.12164472707E+03  0.80419002446E+02 0.  1.
          1    1    1    2  501    0 -0.12396736799E+03  0.10336884928E+02 -0.10222508768E+03  0.16101157744E+03  0.00000000000E+00 0. -1.
         -2    1    1    2    0  502  0.43999191705E+02  0.65971498667E+01 -0.52484390968E+02  0.68804524214E+02  0.00000000000E+00 0.  1.
<mgrwt>
<rscale>  2 0.14177860E+03</rscale>
<asrwt>0</asrwt>
<pdfrwt beam="1">  1       21 0.12011460E-01 0.14177860E+03</pdfrwt>
<pdfrwt beam="2">  1       21 0.42059436E-01 0.14177860E+03</pdfrwt>
<totfact> 0.32210755E+05</totfact>
</mgrwt>
</event>
<event>
 5    1  0.1281005E-004  0.2520023E+03  0.7546771E-02  0.1112046E+00
         21   -1    0    0  501  502  0.00000000000E+00  0.00000000000E+00  0.29882158352E+03  0.29882158352E+03  0.00000000000E+00 0.  1.
         21   -1    0    0  502  503 -0.00000000000E+00 -0.00000000000E+00 -0.22371035101E+03  0.22371035101E+03  0.00000000000E+00 0. -1.
         24    1    1    2    0    0  0.11642919267E+03  0.16401224939E+03  0.70636433709E+02  0.22784314029E+03  0.80419002446E+02 0. -1.
          1    1    1    2  501    0  0.47458989987E+02  0.98363698371E+01  0.25642860637E+02  0.54833075820E+02  0.00000000000E+00 0. -1.
         -2    1    1    2    0  503 -0.16388818266E+03 -0.17384861922E+03 -0.21168061837E+02  0.23985571843E+03  0.00000000000E+00 0.  1.
<mgrwt>
<rscale>  2 0.25200229E+03</rscale>
<asrwt>0</asrwt>
<pdfrwt beam="1">  1       21 0.45972551E-01 0.25200229E+03</pdfrwt>
<pdfrwt beam="2">  1       21 0.34416977E-01 0.25200229E+03</pdfrwt>
<totfact> 0.35861765E+04</totfact>
</mgrwt>
</event>
<event>
 5    1  0.1281005E-004  0.2369278E+03  0.7546771E-02  0.1121856E+00
         21   -1    0    0  503  502  0.00000000000E+00  0.00000000000E+00  0.52474876156E+03  0.52474876156E+03  0.00000000000E+00 0. -1.
         21   -1    0    0  501  503 -0.00000000000E+00 -0.00000000000E+00 -0.11662031102E+03  0.11662031102E+03  0.00000000000E+00 0. -1.
         24    1    1    2    0    0 -0.10881712545E+03  0.14058286334E+03  0.83427435707E+02  0.21220758997E+03  0.80419002446E+02 0. -1.
          1    1    1    2  501    0  0.13872019703E+03 -0.18125910773E+03  0.24528094805E+03  0.33505357881E+03  0.00000000000E+00 0. -1.
         -2    1    1    2    0  502 -0.29903071578E+02  0.40676244393E+02  0.79420066787E+02  0.94107903792E+02  0.00000000000E+00 0.  1.
<mgrwt>
<rscale>  2 0.23692782E+03</rscale>
<asrwt>0</asrwt>
<pdfrwt beam="1">  1       21 0.80730578E-01 0.23692782E+03</pdfrwt>
<pdfrwt beam="2">  1       21 0.17941587E-01 0.23692782E+03</pdfrwt>
<totfact> 0.37221294E+04</totfact>
</mgrwt>
</event>
<event>
 5    1  0.1281005E-004  0.2280041E+03  0.7546771E-02  0.1128052E+00
         21   -1    0    0  501  502  0.00000000000E+00  0.00000000000E+00  0.13009521713E+03  0.13009521713E+03  0.00000000000E+00 0. -1.
         21   -1    0    0  502  503 -0.00000000000E+00 -0.00000000000E+00 -0.44008105379E+03  0.44008105379E+03  0.00000000000E+00 0.  1.
         24    1    1    2    0    0  0.10609091280E+02  0.36422104135E+02 -0.23115675322E+02  0.91873134742E+02  0.80419002446E+02 0.  1.
          1    1    1    2  501    0 -0.15626255611E+02 -0.20141564494E+03 -0.89375584558E+02  0.22090820946E+03  0.00000000000E+00 0. -1.
         -2    1    1    2    0  503  0.50171643311E+01  0.16499354080E+03 -0.19749457679E+03  0.25739492673E+03  0.00000000000E+00 0.  1.
<mgrwt>
<rscale>  2 0.22800415E+03</rscale>
<asrwt>0</asrwt>
<pdfrwt beam="1">  1       21 0.20014649E-01 0.22800415E+03</pdfrwt>
<pdfrwt beam="2">  1       21 0.67704777E-01 0.22800415E+03</pdfrwt>
<totfact> 0.45181850E+04</totfact>
</mgrwt>
</event>
<event>
 5    1  0.1281005E-004  0.1900801E+03  0.7546771E-02  0.1158389E+00
         21   -1    0    0  503  502  0.00000000000E+00  0.00000000000E+00  0.30403152980E+02  0.30403152980E+02  0.00000000000E+00 0. -1.
         21   -1    0    0  501  503 -0.00000000000E+00 -0.00000000000E+00 -0.13615510510E+04  0.13615510510E+04  0.00000000000E+00 0.  1.
         24    1    1    2    0    0 -0.12635329140E+03 -0.74829405907E+02 -0.82660193185E+03  0.84338755262E+03  0.80419002446E+02 0. -1.
          1    1    1    2  501    0 -0.23226035941E+02 -0.24043361628E+02 -0.11452597747E+03  0.11930520315E+03  0.00000000000E+00 0. -1.
         -2    1    1    2    0  502  0.14957932734E+03  0.98872767535E+02 -0.39001998875E+03  0.42926144825E+03  0.00000000000E+00 0.  1.
<mgrwt>
<rscale>  2 0.19008009E+03</rscale>
<asrwt>0</asrwt>
<pdfrwt beam="1">  1       21 0.46774084E-02 0.19008009E+03</pdfrwt>
<pdfrwt beam="2">  1       21 0.20946938E+00 0.19008009E+03</pdfrwt>
<totfact> 0.35277288E+04</totfact>
</mgrwt>
</event>
<event>
 5    1  0.1281005E-004  0.1563232E+03  0.7546771E-02  0.1192912E+00
         21   -1    0    0  501  502  0.00000000000E+00  0.00000000000E+00  0.14772965842E+03  0.14772965842E+03  0.00000000000E+00 0.  1.
         21   -1    0    0  502  503 -0.00000000000E+00 -0.00000000000E+00 -0.21883744656E+03  0.21883744656E+03  0.00000000000E+00 0. -1.
         24    1    1    2    0    0  0.66325182577E+02  0.23514111875E-01 -0.11196765055E+03  0.15298039456E+03  0.80419002446E+02 0. -1.
          1    1    1    2  501    0  0.63255333845E+02 -0.37472563952E+02  0.25561759687E+02  0.77838511466E+02  0.00000000000E+00 0. -1.
         -2    1    1    2    0  503 -0.12958051642E+03  0.37449049840E+02  0.15298102723E+02  0.13574819895E+03  0.00000000000E+00 0.  1.
<mgrwt>
<rscale>  2 0.15632318E+03</rscale>
<asrwt>0</asrwt>
<pdfrwt beam="1">  1       21 0.22727640E-01 0.15632318E+03</pdfrwt>
<pdfrwt beam="2">  1       21 0.33667299E-01 0.15632318E+03</pdfrwt>
<totfact> 0.15610047E+05</totfact>
</mgrwt>
</event>
<event>
 5    1  0.1281005E-004  0.1313594E+03  0.7546771E-02  0.1225452E+00
         21   -1    0    0  501  502  0.00000000000E+00  0.00000000000E+00  0.66448497223E+02  0.66448497223E+02  0.00000000000E+00 0. -1.
         21   -1    0    0  502  503 -0.00000000000E+00 -0.00000000000E+00 -0.32164042730E+03  0.32164042730E+03  0.00000000000E+00 0.  1.
         24    1    1    2    0    0 -0.35708151981E+02  0.34192180326E+02 -0.14795747266E+03  0.17550728470E+03  0.80419002446E+02 0.  1.
          1    1    1    2  501    0  0.88802468160E+02 -0.62075673991E+02 -0.25677390544E+02  0.11134898310E+03  0.00000000000E+00 0. -1.
         -2    1    1    2    0  503 -0.53094316179E+02  0.27883493664E+02 -0.81557066870E+02  0.10123265672E+03  0.00000000000E+00 0.  1.
<mgrwt>
<rscale>  2 0.13135943E+03</rscale>
<asrwt>0</asrwt>
<pdfrwt beam="1">  1       21 0.10222846E-01 0.13135943E+03</pdfrwt>
<pdfrwt beam="2">  1       21 0.49483143E-01 0.13135943E+03</pdfrwt>
<totfact> 0.30789199E+05</totfact>
</mgrwt>
</event>
<event>
 5    1  0.1281005E-004  0.2059145E+03  0.7546771E-02  0.1144843E+00
         21   -1    0    0  503  502  0.00000000000E+00  0.00000000000E+00  0.28239383687E+03  0.28239383687E+03  0.00000000000E+00 0. -1.
         21   -1    0    0  501  503 -0.00000000000E+00 -0.00000000000E+00 -0.15341718366E+03  0.15341718366E+03  0.00000000000E+00 0.  1.
         24    1    1    2    0    0 -0.72661913342E+02  0.52903943905E+02  0.66415925214E+02  0.13768395697E+03  0.80419002446E+02 0.  0.
          1    1    1    2  501    0 -0.10636803807E+03 -0.31402631227E+02  0.30022113931E+02  0.11489826846E+03  0.00000000000E+00 0. -1.
         -2    1    1    2    0  502  0.17902995141E+03 -0.21501312678E+02  0.32538614067E+02  0.18322879510E+03  0.00000000000E+00 0.  1.
<mgrwt>
<rscale>  2 0.20591454E+03</rscale>
<asrwt>0</asrwt>
<pdfrwt beam="1">  1       21 0.43445206E-01 0.20591454E+03</pdfrwt>
<pdfrwt beam="2">  1       21 0.23602644E-01 0.20591454E+03</pdfrwt>
<totfact> 0.85581233E+04</totfact>
</mgrwt>
</event>
<event>
 5    1  0.1281005E-004  0.1334199E+03  0.7546771E-02  0.1222468E+00
         21   -1    0    0  501  502  0.00000000000E+00  0.00000000000E+00  0.19859731095E+03  0.19859731095E+03  0.00000000000E+00 0.  1.
         21   -1    0    0  502  503 -0.00000000000E+00 -0.00000000000E+00 -0.94855456532E+02  0.94855456532E+02  0.00000000000E+00 0. -1.
         24    1    1    2    0    0  0.31550458199E+02  0.39819763504E+02  0.65265963149E+02  0.11535990152E+03  0.80419002446E+02 0.  0.
          1    1    1    2  501    0 -0.83612069034E+02 -0.72146440225E+02  0.38058780083E+02  0.11680992110E+03  0.00000000000E+00 0. -1.
         -2    1    1    2    0  503  0.52061610835E+02  0.32326676721E+02  0.41711119078E+00  0.61282944873E+02  0.00000000000E+00 0.  1.
<mgrwt>
<rscale>  2 0.13341988E+03</rscale>
<asrwt>0</asrwt>
<pdfrwt beam="1">  1       21 0.30553432E-01 0.13341988E+03</pdfrwt>
<pdfrwt beam="2">  1       21 0.14593147E-01 0.13341988E+03</pdfrwt>
<totfact> 0.42798891E+05</totfact>
</mgrwt>
</event>
<event>
 5    1  0.1281005E-004  0.1293807E+03  0.7546771E-02  0.1228378E+00
         21   -1    0    0  503  502  0.00000000000E+00  0.00000000000E+00  0.17120916390E+03  0.17120916390E+03  0.00000000000E+00 0.  1.
         21   -1    0    0  501  503 -0.00000000000E+00 -0.00000000000E+00 -0.10216320635E+03  0.10216320635E+03  0.00000000000E+00 0. -1.
         24    1    1    2    0    0  0.71707792078E+01  0.21042835400E+02  0.16188291792E+02  0.84991162727E+02  0.80419002446E+02 0.  0.
          1    1    1    2  501    0  0.15140478852E+02  0.75108971626E+02  0.44232869951E+00  0.76621063509E+02  0.00000000000E+00 0. -1.
         -2    1    1    2    0  502 -0.22311258060E+02 -0.96151807026E+02  0.52415337054E+02  0.11176014401E+03  0.00000000000E+00 0.  1.
<mgrwt>
<rscale>  2 0.12938073E+03</rscale>
<asrwt>0</asrwt>
<pdfrwt beam="1">  1       21 0.26339871E-01 0.12938073E+03</pdfrwt>
<pdfrwt beam="2">  1       21 0.15717416E-01 0.12938073E+03</pdfrwt>
<totfact> 0.49771974E+05</totfact>
</mgrwt>
</event>
<event>
 5    1  0.1281005E-004  0.4067206E+03  0.7546771E-02  0.1041477E+00
         21   -1    0    0  501  502  0.00000000000E+00  0.00000000000E+00  0.10633082020E+03  0.10633082020E+03  0.00000000000E+00 0. -1.
         21   -1    0    0  502  503 -0.00000000000E+00 -0.00000000000E+00 -0.15565821692E+04  0.15565821692E+04  0.00000000000E+00 0.  1.
         24    1    1    2    0    0  0.12150409482E+03  0.12195411041E+03 -0.35067180068E+03  0.39884079261E+03  0.80419002446E+02 0.  0.
          1    1    1    2  501    0  0.14872594637E+03  0.16982303855E+03 -0.38688185533E+03  0.44792504008E+03  0.00000000000E+00 0. -1.
         -2    1    1    2    0  503 -0.27023004119E+03 -0.29177714896E+03 -0.71269769297E+03  0.81614715670E+03  0.00000000000E+00 0.  1.
<mgrwt>
<rscale>  2 0.40672063E+03</rscale>
<asrwt>0</asrwt>
<pdfrwt beam="1">  1       21 0.16358589E-01 0.40672063E+03</pdfrwt>
<pdfrwt beam="2">  1       21 0.23947416E+00 0.40672063E+03</pdfrwt>
<totfact> 0.21929511E+03</totfact>
</mgrwt>
</event>
<event>
 5    1  0.1281005E-004  0.1282113E+03  0.7546771E-02  0.1230134E+00
         21   -1    0    0  503  502  0.00000000000E+00  0.00000000000E+00  0.40685144276E+03  0.40685144276E+03  0.00000000000E+00 0.  1.
         21   -1    0    0  501  503 -0.00000000000E+00 -0.00000000000E+00 -0.41906108166E+02  0.41906108166E+02  0.00000000000E+00 0. -1.
         24    1    1    2    0    0 -0.39167482949E+01 -0.14348059058E+02  0.85958311459E+02  0.11864760840E+03  0.80419002446E+02 0. -1.
          1    1    1    2  501    0  0.63318036393E+02  0.69192855735E+02  0.12602466811E+03  0.15709564599E+03  0.00000000000E+00 0. -1.
         -2    1    1    2    0  502 -0.59401288098E+02 -0.54844796676E+02  0.15296235502E+03  0.17301429653E+03  0.00000000000E+00 0.  1.
<mgrwt>
<rscale>  2 0.12821129E+03</rscale>
<asrwt>0</asrwt>
<pdfrwt beam="1">  1       21 0.62592527E-01 0.12821129E+03</pdfrwt>
<pdfrwt beam="2">  1       21 0.64470939E-02 0.12821129E+03</pdfrwt>
<totfact> 0.41696626E+05</totfact>
</mgrwt>
</event>
<event>
 5    1  0.1281005E-004  0.1870561E+03  0.7546771E-02  0.1161144E+00
         21   -1    0    0  501  502  0.00000000000E+00  0.00000000000E+00  0.19134148932E+03  0.19134148932E+03  0.00000000000E+00 0. -1.
         21   -1    0    0  502  503 -0.00000000000E+00 -0.00000000000E+00 -0.18398566073E+03  0.18398566073E+03  0.00000000000E+00 0.  1.
         24    1    1    2    0    0 -0.14502092745E+02 -0.80596591070E+02 -0.12926167594E+01  0.11478243767E+03  0.80419002446E+02 0. -1.
          1    1    1    2  501    0  0.97681614211E+02  0.12998721693E+03 -0.59695413429E+01  0.16270835794E+03  0.00000000000E+00 0. -1.
         -2    1    1    2    0  503 -0.83179521466E+02 -0.49390625861E+02  0.14617986692E+02  0.97836354435E+02  0.00000000000E+00 0.  1.
<mgrwt>
<rscale>  2 0.18705605E+03</rscale>
<asrwt>0</asrwt>
<pdfrwt beam="1">  1       21 0.29437152E-01 0.18705605E+03</pdfrwt>
<pdfrwt beam="2">  1       21 0.28305486E-01 0.18705605E+03</pdfrwt>
<totfact> 0.13215707E+05</totfact>
</mgrwt>
</event>
<event>
 5    1  0.1281005E-004  0.1161115E+03  0.7546771E-02  0.1249653E+00
         21   -1    0    0  503  502  0.00000000000E+00  0.00000000000E+00  0.25117666614E+03  0.25117666614E+03  0.00000000000E+00 0. -1.
         21   -1    0    0  501  503 -0.00000000000E+00 -0.00000000000E+00 -0.57994938778E+02  0.57994938778E+02  0.00000000000E+00 0. -1.
         24    1    1    2    0    0  0.14748956427E+02 -0.19457701501E+02  0.93677904043E+02  0.12585268978E+03  0.80419002446E+02 0. -1.
          1    1    1    2  501    0 -0.79845724936E+02  0.22675037040E+02  0.80017015010E+02  0.11529188951E+03  0.00000000000E+00 0. -1.
         -2    1    1    2    0  502  0.65096768509E+02 -0.32173355391E+01  0.19486808305E+02  0.68027025631E+02  0.00000000000E+00 0.  1.
<mgrwt>
<rscale>  2 0.11611148E+03</rscale>
<asrwt>0</asrwt>
<pdfrwt beam="1">  1       21 0.38642563E-01 0.11611148E+03</pdfrwt>
<pdfrwt beam="2">  1       21 0.89222984E-02 0.11611148E+03</pdfrwt>
<totfact> 0.64437277E+05</totfact>
</mgrwt>
</event>
<event>
 5    1  0.1281005E-004  0.1316084E+03  0.7546771E-02  0.1225089E+00
         21   -1    0    0  503  502  0.00000000000E+00  0.00000000000E+00  0.12609672037E+03  0.12609672037E+03  0.00000000000E+00 0.  1.
         21   -1    0    0  501  503 -0.00000000000E+00 -0.00000000000E+00 -0.14119298995E+03  0.14119298995E+03  0.00000000000E+00 0.  1.
         24    1    1    2    0    0 -0.51980990600E+02  0.30450576935E+02 -0.17087124854E+02  0.10192373036E+03  0.80419002446E+02 0.  1.
          1    1    1    2  501    0 -0.10398358089E+02  0.55538331007E+02  0.14678420083E+02  0.58378832449E+02  0.00000000000E+00 0. -1.
         -2    1    1    2    0  502  0.62379348689E+02 -0.85988907942E+02 -0.12687564810E+02  0.10698714751E+03  0.00000000000E+00 0.  1.
<mgrwt>
<rscale>  2 0.13160839E+03</rscale>
<asrwt>0</asrwt>
<pdfrwt beam="1">  1       21 0.19399495E-01 0.13160839E+03</pdfrwt>
<pdfrwt beam="2">  1       21 0.21721999E-01 0.13160839E+03</pdfrwt>
<totfact> 0.48698206E+05</totfact>
</mgrwt>
</event>
<event>
 5    1  0.1281005E-004  0.1371903E+03  0.7546771E-02  0.1217160E+00
         21   -1    0    0  503  502  0.00000000000E+00  0.00000000000E+00  0.48529853744E+02  0.48529853744E+02  0.00000000000E+00 0.  1.
         21   -1    0    0  501  503 -0.00000000000E+00 -0.00000000000E+00 -0.42440153635E+03  0.42440153635E+03  0.00000000000E+00 0.  1.
         24    1    1    2    0    0 -0.88522807339E+01 -0.51624101572E+02 -0.70794623775E+02  0.11925814625E+03  0.80419002446E+02 0.  1.
          1    1    1    2  501    0  0.70542754850E+01 -0.63188909312E+02 -0.12178945589E+03  0.13738730883E+03  0.00000000000E+00 0. -1.
         -2    1    1    2    0  502  0.17980052488E+01  0.11481301088E+03 -0.18328760295E+03  0.21628593501E+03  0.00000000000E+00 0.  1.
<mgrwt>
<rscale>  2 0.13719028E+03</rscale>
<asrwt>0</asrwt>
<pdfrwt beam="1">  1       21 0.74661316E-02 0.13719028E+03</pdfrwt>
<pdfrwt beam="2">  1       21 0.65292542E-01 0.13719028E+03</pdfrwt>
<totfact> 0.29579574E+05</totfact>
</mgrwt>
</event>
<event>
 5    1  0.1281005E-004  0.2392277E+03  0.7546771E-02  0.1120308E+00
         21   -1    0    0  503  502  0.00000000000E+00  0.00000000000E+00  0.44642291018E+02  0.44642291018E+02  0.00000000000E+00 0. -1.
         21   -1    0    0  501  503 -0.00000000000E+00 -0.00000000000E+00 -0.13658506032E+04  0.13658506032E+04  0.00000000000E+00 0. -1.
         24    1    1    2    0    0 -0.14671533611E+03  0.78395728127E+02 -0.68647631094E+03  0.71090661938E+03  0.80419002446E+02 0. -1.
          1    1    1    2  501    0  0.21470132192E+03 -0.65694905720E+02 -0.46772822877E+03  0.51882769226E+03  0.00000000000E+00 0. -1.
         -2    1    1    2    0  502 -0.67985985807E+02 -0.12700822407E+02 -0.16700377251E+03  0.18075858261E+03  0.00000000000E+00 0.  1.
<mgrwt>
<rscale>  2 0.23922773E+03</rscale>
<asrwt>0</asrwt>
<pdfrwt beam="1">  1       21 0.68680445E-02 0.23922773E+03</pdfrwt>
<pdfrwt beam="2">  1       21 0.21013087E+00 0.23922773E+03</pdfrwt>
<totfact> 0.17494820E+04</totfact>
</mgrwt>
</event>
<event>
 5    1  0.1281005E-004  0.2158422E+03  0.7546771E-02  0.1137021E+00
         21   -1    0    0  503  502  0.00000000000E+00  0.00000000000E+00  0.62136870685E+02  0.62136870685E+02  0.00000000000E+00 0. -1.
         21   -1    0    0  501  503 -0.00000000000E+00 -0.00000000000E+00 -0.76411147345E+03  0.76411147345E+03  0.00000000000E+00 0. -1.
         24    1    1    2    0    0 -0.67686235603E+01  0.95490991306E+02 -0.25028517148E+03  0.27977531468E+03  0.80419002446E+02 0. -1.
          1    1    1    2  501    0 -0.72292278414E+02 -0.17816060490E+03 -0.30337552369E+03  0.35917138392E+03  0.00000000000E+00 0. -1.
         -2    1    1    2    0  502  0.79060901975E+02  0.82669613595E+02 -0.14831390760E+03  0.18730164553E+03  0.00000000000E+00 0.  1.
<mgrwt>
<rscale>  2 0.21584223E+03</rscale>
<asrwt>0</asrwt>
<pdfrwt beam="1">  1       21 0.95595187E-02 0.21584223E+03</pdfrwt>
<pdfrwt beam="2">  1       21 0.11755561E+00 0.21584223E+03</pdfrwt>
<totfact> 0.48226649E+04</totfact>
</mgrwt>
</event>
<event>
 5    1  0.1281005E-004  0.2186338E+03  0.7546771E-02  0.1134906E+00
         21   -1    0    0  503  502  0.00000000000E+00  0.00000000000E+00  0.89217153348E+03  0.89217153348E+03  0.00000000000E+00 0. -1.
         21   -1    0    0  501  503 -0.00000000000E+00 -0.00000000000E+00 -0.58361192704E+02  0.58361192704E+02  0.00000000000E+00 0.  1.
         24    1    1    2    0    0 -0.72970044098E+02 -0.11132585267E+03  0.42301074417E+03  0.45069211048E+03  0.80419002446E+02 0. -1.
          1    1    1    2  501    0  0.10888170417E+02 -0.79931925923E+02  0.15225700197E+03  0.17230745685E+03  0.00000000000E+00 0. -1.
         -2    1    1    2    0  502  0.62081873681E+02  0.19125777859E+03  0.25854259464E+03  0.32753315886E+03  0.00000000000E+00 0.  1.
<mgrwt>
<rscale>  2 0.21863381E+03</rscale>
<asrwt>0</asrwt>
<pdfrwt beam="1">  1       21 0.13725715E+00 0.21863381E+03</pdfrwt>
<pdfrwt beam="2">  1       21 0.89786456E-02 0.21863381E+03</pdfrwt>
<totfact> 0.36391737E+04</totfact>
</mgrwt>
</event>
<event>
 5    1  0.1281005E-004  0.5049301E+03  0.7546771E-02  0.1012500E+00
         21   -1    0    0  503  502  0.00000000000E+00  0.00000000000E+00  0.82635392768E+03  0.82635392768E+03  0.00000000000E+00 0. -1.
         21   -1    0    0  501  503 -0.00000000000E+00 -0.00000000000E+00 -0.31811391989E+03  0.31811391989E+03  0.00000000000E+00 0.  1.
         24    1    1    2    0    0  0.15398228301E+03  0.92328634092E+02  0.13856991610E+03  0.24063241211E+03  0.80419002446E+02 0.  0.
          1    1    1    2  501    0 -0.41217899880E+03 -0.27619224911E+03  0.15054610907E+03  0.51849572465E+03  0.00000000000E+00 0. -1.
         -2    1    1    2    0  502  0.25819671579E+03  0.18386361502E+03  0.21912398262E+03  0.38533971082E+03  0.00000000000E+00 0.  1.
<mgrwt>
<rscale>  2 0.50493011E+03</rscale>
<asrwt>0</asrwt>
<pdfrwt beam="1">  1       21 0.12713137E+00 0.50493011E+03</pdfrwt>
<pdfrwt beam="2">  1       21 0.48940603E-01 0.50493011E+03</pdfrwt>
<totfact> 0.15265378E+03</totfact>
</mgrwt>
</event>
<event>
 5    1  0.1281005E-004  0.1271943E+03  0.7546771E-02  0.1231679E+00
         21   -1    0    0  503  502  0.00000000000E+00  0.00000000000E+00  0.66560785733E+03  0.66560785733E+03  0.00000000000E+00 0. -1.
         21   -1    0    0  501  503 -0.00000000000E+00 -0.00000000000E+00 -0.24408695496E+02  0.24408695496E+02  0.00000000000E+00 0.  1.
         24    1    1    2    0    0  0.51062333613E+02  0.62081103499E+02  0.27150749226E+03  0.29435515901E+03  0.80419002446E+02 0. -1.
          1    1    1    2  501    0  0.22965852554E+02  0.19783752098E+02  0.69518238701E+02  0.75839387805E+02  0.00000000000E+00 0. -1.
         -2    1    1    2    0  502 -0.74028186168E+02 -0.81864855597E+02  0.30017343087E+03  0.31982200601E+03  0.00000000000E+00 0.  1.
<mgrwt>
<rscale>  2 0.12719428E+03</rscale>
<asrwt>0</asrwt>
<pdfrwt beam="1">  1       21 0.10240120E+00 0.12719428E+03</pdfrwt>
<pdfrwt beam="2">  1       21 0.37551844E-02 0.12719428E+03</pdfrwt>
<totfact> 0.34334385E+05</totfact>
</mgrwt>
</event>
<event>
 5    1  0.1281005E-004  0.1350208E+03  0.7546771E-02  0.1220190E+00
         21   -1    0    0  501  502  0.00000000000E+00  0.00000000000E+00  0.19998095004E+03  0.19998095004E+03  0.00000000000E+00 0.  1.
         21   -1    0    0  502  503 -0.00000000000E+00 -0.00000000000E+00 -0.95806289904E+02  0.95806289904E+02  0.00000000000E+00 0. -1.
         24    1    1    2    0    0 -0.37720946978E+02 -0.67305529863E+02  0.67879539561E+02  0.13049042891E+03  0.80419002446E+02 0.  1.
          1    1    1    2  501    0 -0.30984709204E+02 -0.27557124284E+02 -0.34448790228E+01  0.41609067458E+02  0.00000000000E+00 0. -1.
         -2    1    1    2    0  503  0.68705656182E+02  0.94862654146E+02  0.39739999596E+02  0.12368774358E+03  0.00000000000E+00 0.  1.
<mgrwt>
<rscale>  2 0.13502081E+03</rscale>
<asrwt>0</asrwt>
<pdfrwt beam="1">  1       21 0.30766300E-01 0.13502081E+03</pdfrwt>
<pdfrwt beam="2">  1       21 0.14739429E-01 0.13502081E+03</pdfrwt>
<totfact> 0.41467235E+05</totfact>
</mgrwt>
</event>
<event>
 5    1  0.1281005E-004  0.3209928E+03  0.7546771E-02  0.1075193E+00
         21   -1    0    0  501  502  0.00000000000E+00  0.00000000000E+00  0.86159624516E+02  0.86159624516E+02  0.00000000000E+00 0.  1.
         21   -1    0    0  502  503 -0.00000000000E+00 -0.00000000000E+00 -0.16381100876E+04  0.16381100876E+04  0.00000000000E+00 0. -1.
         24    1    1    2    0    0  0.13957084979E+03  0.12647934304E+03 -0.48591390682E+03  0.52731071213E+03  0.80419002446E+02 0. -1.
          1    1    1    2  501    0 -0.23227119742E+03 -0.20946012792E+03 -0.10156681221E+04  0.10627347687E+04  0.00000000000E+00 0. -1.
         -2    1    1    2    0  503  0.92700347630E+02  0.82980784885E+02 -0.50368434181E+02  0.13422423132E+03  0.00000000000E+00 0.  1.
<mgrwt>
<rscale>  2 0.32099284E+03</rscale>
<asrwt>0</asrwt>
<pdfrwt beam="1">  1       21 0.13255328E-01 0.32099284E+03</pdfrwt>
<pdfrwt beam="2">  1       21 0.25201691E+00 0.32099284E+03</pdfrwt>
<totfact> 0.28471551E+03</totfact>
</mgrwt>
</event>
<event>
 5    1  0.1281005E-004  0.1252023E+03  0.7546771E-02  0.1234753E+00
         21   -1    0    0  503  502  0.00000000000E+00  0.00000000000E+00  0.15435036543E+03  0.15435036543E+03  0.00000000000E+00 0.  1.
         21   -1    0    0  501  503 -0.00000000000E+00 -0.00000000000E+00 -0.10971534603E+03  0.10971534603E+03  0.00000000000E+00 0.  1.
         24    1    1    2    0    0  0.26910638973E+02  0.24650451226E+02  0.36034671816E+02  0.95381029366E+02  0.80419002446E+02 0.  1.
          1    1    1    2  501    0  0.65059959355E+02  0.55347980516E+01  0.26099967208E+02  0.70318138407E+02  0.00000000000E+00 0. -1.
         -2    1    1    2    0  502 -0.91970598328E+02 -0.30185249277E+02 -0.17499619625E+02  0.98366543691E+02  0.00000000000E+00 0.  1.
<mgrwt>
<rscale>  2 0.12520229E+03</rscale>
<asrwt>0</asrwt>
<pdfrwt beam="1">  1       21 0.23746210E-01 0.12520229E+03</pdfrwt>
<pdfrwt beam="2">  1       21 0.16879284E-01 0.12520229E+03</pdfrwt>
<totfact> 0.53204160E+05</totfact>
</mgrwt>
</event>
<event>
 5    1  0.1281005E-004  0.1454704E+03  0.7546771E-02  0.1206152E+00
         21   -1    0    0  501  502  0.00000000000E+00  0.00000000000E+00  0.16866586625E+03  0.16866586625E+03  0.00000000000E+00 0.  1.
         21   -1    0    0  502  503 -0.00000000000E+00 -0.00000000000E+00 -0.12841293403E+03  0.12841293403E+03  0.00000000000E+00 0. -1.
         24    1    1    2    0    0  0.44274273608E+01 -0.73938238264E+02  0.35667796453E+02  0.11500379493E+03  0.80419002446E+02 0.  1.
          1    1    1    2  501    0  0.34218098921E+02  0.11808090386E+03  0.88092726807E+01  0.12325413354E+03  0.00000000000E+00 0. -1.
         -2    1    1    2    0  503 -0.38645526282E+02 -0.44142665591E+02 -0.42241369194E+01  0.58820871804E+02  0.00000000000E+00 0.  1.
<mgrwt>
<rscale>  2 0.14547041E+03</rscale>
<asrwt>0</asrwt>
<pdfrwt beam="1">  1       21 0.25948595E-01 0.14547041E+03</pdfrwt>
<pdfrwt beam="2">  1       21 0.19755836E-01 0.14547041E+03</pdfrwt>
<totfact> 0.33629155E+05</totfact>
</mgrwt>
</event>
<event>
 5    1  0.1281005E-004  0.1108785E+03  0.7546771E-02  0.1258952E+00
         21   -1    0    0  503  502  0.00000000000E+00  0.00000000000E+00  0.50746481354E+03  0.50746481354E+03  0.00000000000E+00 0.  1.
         21   -1    0    0  501  503 -0.00000000000E+00 -0.00000000000E+00 -0.25870753960E+02  0.25870753960E+02  0.00000000000E+00 0. -1.
         24    1    1    2    0    0  0.15630495740E+01 -0.33576325815E+02  0.12684683830E+03  0.15390629980E+03  0.80419002446E+02 0. -1.
          1    1    1    2  501    0  0.53769055498E+02  0.53438106701E+02  0.19671459980E+03  0.21081597746E+03  0.00000000000E+00 0. -1.
         -2    1    1    2    0  502 -0.55332105072E+02 -0.19861780886E+02  0.15803262149E+03  0.16861329024E+03  0.00000000000E+00 0.  1.
<mgrwt>
<rscale>  2 0.11087854E+03</rscale>
<asrwt>0</asrwt>
<pdfrwt beam="1">  1       21 0.78071502E-01 0.11087854E+03</pdfrwt>
<pdfrwt beam="2">  1       21 0.39801164E-02 0.11087854E+03</pdfrwt>
<totfact> 0.58020338E+05</totfact>
</mgrwt>
</event>
<event>
 5    1  0.1281005E-004  0.1163937E+03  0.7546771E-02  0.1249168E+00
         21   -1    0    0  501  502  0.00000000000E+00  0.00000000000E+00  0.43299110618E+02  0.43299110618E+02  0.00000000000E+00 0.  1.
         21   -1    0    0  502  503 -0.00000000000E+00 -0.00000000000E+00 -0.32628662477E+03  0.32628662477E+03  0.00000000000E+00 0.  1.
         24    1    1    2    0    0 -0.60323888780E+02 -0.92332401567E+01 -0.15822571269E+03  0.18768808272E+03  0.80419002446E+02 0.  1.
          1    1    1    2  501    0  0.37223046089E+02 -0.53390948972E+02 -0.53446605711E+02  0.84218099327E+02  0.00000000000E+00 0. -1.
         -2    1    1    2    0  503  0.23100842691E+02  0.62624189129E+02 -0.71315195746E+02  0.97679553343E+02  0.00000000000E+00 0.  1.
<mgrwt>
<rscale>  2 0.11639372E+03</rscale>
<asrwt>0</asrwt>
<pdfrwt beam="1">  1       21 0.66614015E-02 0.11639372E+03</pdfrwt>
<pdfrwt beam="2">  1       21 0.50197943E-01 0.11639372E+03</pdfrwt>
<totfact> 0.62711114E+05</totfact>
</mgrwt>
</event>
<event>
 5    1  0.1281005E-004  0.1101396E+03  0.7546771E-02  0.1260312E+00
         21   -1    0    0  501  502  0.00000000000E+00  0.00000000000E+00  0.11122085257E+03  0.11122085257E+03  0.00000000000E+00 0. -1.
         21   -1    0    0  502  503 -0.00000000000E+00 -0.00000000000E+00 -0.11065462701E+03  0.11065462701E+03  0.00000000000E+00 0.  1.
         24    1    1    2    0    0 -0.64800279052E+02 -0.28811903807E+01 -0.39228148085E+01  0.10339236845E+03  0.80419002446E+02 0.  1.
          1    1    1    2  501    0 -0.19572386936E+02 -0.21560949381E+02  0.91343344872E+01  0.30518665356E+02  0.00000000000E+00 0. -1.
         -2    1    1    2    0  503  0.84372665989E+02  0.24442139761E+02 -0.46452941208E+01  0.87964445770E+02  0.00000000000E+00 0.  1.
<mgrwt>
<rscale>  2 0.11013963E+03</rscale>
<asrwt>0</asrwt>
<pdfrwt beam="1">  1       21 0.17110900E-01 0.11013963E+03</pdfrwt>
<pdfrwt beam="2">  1       21 0.17023789E-01 0.11013963E+03</pdfrwt>
<totfact> 0.95903465E+05</totfact>
</mgrwt>
</event>
<event>
 5    1  0.1281005E-004  0.1378547E+03  0.7546771E-02  0.1216245E+00
         21   -1    0    0  503  502  0.00000000000E+00  0.00000000000E+00  0.71954841922E+02  0.71954841922E+02  0.00000000000E+00 0.  1.
         21   -1    0    0  501  503 -0.00000000000E+00 -0.00000000000E+00 -0.26943420265E+03  0.26943420265E+03  0.00000000000E+00 0. -1.
         24    1    1    2    0    0 -0.15032004605E+02  0.54521680772E+02 -0.48035658352E+02  0.10942218817E+03  0.80419002446E+02 0.  0.
          1    1    1    2  501    0 -0.65961818115E+01  0.60246439117E+02 -0.52619771312E+02  0.80261967168E+02  0.00000000000E+00 0. -1.
         -2    1    1    2    0  502  0.21628186417E+02 -0.11476811989E+03 -0.96823931068E+02  0.15170488924E+03  0.00000000000E+00 0.  1.
<mgrwt>
<rscale>  2 0.13785474E+03</rscale>
<asrwt>0</asrwt>
<pdfrwt beam="1">  1       21 0.11069976E-01 0.13785474E+03</pdfrwt>
<pdfrwt beam="2">  1       21 0.41451416E-01 0.13785474E+03</pdfrwt>
<totfact> 0.38349974E+05</totfact>
</mgrwt>
</event>
<event>
 5    1  0.1281005E-004  0.1364689E+03  0.7546771E-02  0.1218161E+00
         21   -1    0    0  503  502  0.00000000000E+00  0.00000000000E+00  0.88191751266E+03  0.88191751266E+03  0.00000000000E+00 0. -1.
         21   -1    0    0  501  503 -0.00000000000E+00 -0.00000000000E+00 -0.22139052377E+02  0.22139052377E+02  0.00000000000E+00 0.  1.
         24    1    1    2    0    0 -0.36681570634E+02  0.57138833760E+02  0.24445723956E+03  0.26615210290E+03  0.80419002446E+02 0.  0.
          1    1    1    2  501    0  0.92367736018E+02 -0.67939872381E+01  0.31415473669E+03  0.32752275570E+03  0.00000000000E+00 0. -1.
         -2    1    1    2    0  502 -0.55686165384E+02 -0.50344846522E+02  0.30116648403E+03  0.31038170643E+03  0.00000000000E+00 0.  1.
<mgrwt>
<rscale>  2 0.13646888E+03</rscale>
<asrwt>0</asrwt>
<pdfrwt beam="1">  1       21 0.13567959E+00 0.13646888E+03</pdfrwt>
<pdfrwt beam="2">  1       21 0.34060087E-02 0.13646888E+03</pdfrwt>
<totfact> 0.20296324E+05</totfact>
</mgrwt>
</event>
<event>
 5    1  0.1281005E-004  0.1142893E+03  0.7546771E-02  0.1252827E+00
         21   -1    0    0  503  502  0.00000000000E+00  0.00000000000E+00  0.12597122520E+03  0.12597122520E+03  0.00000000000E+00 0. -1.
         21   -1    0    0  501  503 -0.00000000000E+00 -0.00000000000E+00 -0.12436306937E+03  0.12436306937E+03  0.00000000000E+00 0.  1.
         24    1    1    2    0    0 -0.62446419747E+02 -0.76851677721E+01 -0.42155651509E+02  0.11046688215E+03  0.80419002446E+02 0.  1.
          1    1    1    2  501    0  0.92990875250E+02 -0.56080594944E+01  0.12161432211E+02  0.93950272190E+02  0.00000000000E+00 0. -1.
         -2    1    1    2    0  502 -0.30544455503E+02  0.13293227267E+02  0.31602375128E+02  0.45917140230E+02  0.00000000000E+00 0.  1.
<mgrwt>
<rscale>  2 0.11428928E+03</rscale>
<asrwt>0</asrwt>
<pdfrwt beam="1">  1       21 0.19380188E-01 0.11428928E+03</pdfrwt>
<pdfrwt beam="2">  1       21 0.19132780E-01 0.11428928E+03</pdfrwt>
<totfact> 0.61746671E+05</totfact>
</mgrwt>
</event>
<event>
 5    1  0.1281005E-004  0.2118344E+03  0.7546771E-02  0.1140121E+00
         21   -1    0    0  501  502  0.00000000000E+00  0.00000000000E+00  0.27490497838E+03  0.27490497838E+03  0.00000000000E+00 0.  1.
         21   -1    0    0  502  503 -0.00000000000E+00 -0.00000000000E+00 -0.16522425880E+03  0.16522425880E+03  0.00000000000E+00 0. -1.
         24    1    1    2    0    0 -0.18341859836E+01 -0.12638218736E+03  0.37318161044E+02  0.15438809092E+03  0.80419002446E+02 0.  1.
          1    1    1    2  501    0 -0.81570857546E+02  0.16338384459E+03  0.29693532708E+02  0.18501294917E+03  0.00000000000E+00 0. -1.
         -2    1    1    2    0  503  0.83405043529E+02 -0.37001657233E+02  0.42669025833E+02  0.10072819709E+03  0.00000000000E+00 0.  1.
<mgrwt>
<rscale>  2 0.21183445E+03</rscale>
<asrwt>0</asrwt>
<pdfrwt beam="1">  1       21 0.42293073E-01 0.21183445E+03</pdfrwt>
<pdfrwt beam="2">  1       21 0.25419117E-01 0.21183445E+03</pdfrwt>
<totfact> 0.78290061E+04</totfact>
</mgrwt>
</event>
<event>
 5    1  0.1281005E-004  0.2026750E+03  0.7546771E-02  0.1147502E+00
         21   -1    0    0  501  502  0.00000000000E+00  0.00000000000E+00  0.49047208502E+02  0.49047208502E+02  0.00000000000E+00 0. -1.
         21   -1    0    0  502  503 -0.00000000000E+00 -0.00000000000E+00 -0.10685513720E+04  0.10685513720E+04  0.00000000000E+00 0. -1.
         24    1    1    2    0    0  0.61890518091E+02 -0.11028397804E+03 -0.61358786276E+03  0.63162510504E+03  0.80419002446E+02 0. -1.
          1    1    1    2  501    0 -0.11750494416E+03  0.14748624675E+03 -0.22791693717E+03  0.29581368314E+03  0.00000000000E+00 0. -1.
         -2    1    1    2    0  503  0.55614426068E+02 -0.37202268705E+02 -0.17799936353E+03  0.19015979228E+03  0.00000000000E+00 0.  1.
<mgrwt>
<rscale>  2 0.20267502E+03</rscale>
<asrwt>0</asrwt>
<pdfrwt beam="1">  1       21 0.75457236E-02 0.20267502E+03</pdfrwt>
<pdfrwt beam="2">  1       21 0.16439254E+00 0.20267502E+03</pdfrwt>
<totfact> 0.30868083E+04</totfact>
</mgrwt>
</event>
<event>
 5    1  0.1281005E-004  0.9966942E+02  0.7546771E-02  0.1280993E+00
         21   -1    0    0  501  502  0.00000000000E+00  0.00000000000E+00  0.14904894856E+03  0.14904894856E+03  0.00000000000E+00 0.  1.
         21   -1    0    0  502  503 -0.00000000000E+00 -0.00000000000E+00 -0.69019824166E+02  0.69019824166E+02  0.00000000000E+00 0. -1.
         24    1    1    2    0    0 -0.10203592504E+02  0.45273762082E+02  0.25267835076E+02  0.96226328397E+02  0.80419002446E+02 0.  0.
          1    1    1    2  501    0 -0.10945042801E+02 -0.71763191978E+02  0.48682165839E+02  0.87405394316E+02  0.00000000000E+00 0. -1.
         -2    1    1    2    0  503  0.21148635305E+02  0.26489429896E+02  0.60791234830E+01  0.34437050016E+02  0.00000000000E+00 0.  1.
<mgrwt>
<rscale>  2 0.99669423E+02</rscale>
<asrwt>0</asrwt>
<pdfrwt beam="1">  1       21 0.22930607E-01 0.99669423E+02</pdfrwt>
<pdfrwt beam="2">  1       21 0.10618435E-01 0.99669423E+02</pdfrwt>
<totfact> 0.12939349E+06</totfact>
</mgrwt>
</event>
<event>
 5    1  0.1281005E-004  0.5028441E+03  0.7546771E-02  0.1013039E+00
         21   -1    0    0  501  502  0.00000000000E+00  0.00000000000E+00  0.20123783497E+03  0.20123783497E+03  0.00000000000E+00 0.  1.
         21   -1    0    0  502  503 -0.00000000000E+00 -0.00000000000E+00 -0.12613709005E+04  0.12613709005E+04  0.00000000000E+00 0. -1.
         24    1    1    2    0    0  0.16750108984E+03 -0.19888865903E+03 -0.27334646563E+03  0.38574450095E+03  0.80419002446E+02 0.  1.
          1    1    1    2  501    0 -0.23699634263E+03  0.43064945637E+03 -0.56150989445E+03  0.74627044847E+03  0.00000000000E+00 0. -1.
         -2    1    1    2    0  503  0.69495252789E+02 -0.23176079735E+03 -0.22527670543E+03  0.33059378602E+03  0.00000000000E+00 0.  1.
<mgrwt>
<rscale>  2 0.50284409E+03</rscale>
<asrwt>0</asrwt>
<pdfrwt beam="1">  1       21 0.30959667E-01 0.50284409E+03</pdfrwt>
<pdfrwt beam="2">  1       21 0.19405706E+00 0.50284409E+03</pdfrwt>
<totfact> 0.12065544E+03</totfact>
</mgrwt>
</event>
<event>
 5    1  0.1281005E-004  0.1211858E+03  0.7546771E-02  0.1241154E+00
         21   -1    0    0  501  502  0.00000000000E+00  0.00000000000E+00  0.19884302677E+03  0.19884302677E+03  0.00000000000E+00 0. -1.
         21   -1    0    0  502  503 -0.00000000000E+00 -0.00000000000E+00 -0.74277305608E+02  0.74277305608E+02  0.00000000000E+00 0.  1.
         24    1    1    2    0    0  0.14448486786E+02  0.31253944694E+02  0.36569171536E+02  0.94816075064E+02  0.80419002446E+02 0.  0.
          1    1    1    2  501    0 -0.73145350689E+02  0.21217368097E+02  0.38904965225E+02  0.85522016788E+02  0.00000000000E+00 0. -1.
         -2    1    1    2    0  503  0.58696863903E+02 -0.52471312791E+02  0.49091584402E+02  0.92782240527E+02  0.00000000000E+00 0.  1.
<mgrwt>
<rscale>  2 0.12118581E+03</rscale>
<asrwt>0</asrwt>
<pdfrwt beam="1">  1       21 0.30591235E-01 0.12118581E+03</pdfrwt>
<pdfrwt beam="2">  1       21 0.11427278E-01 0.12118581E+03</pdfrwt>
<totfact> 0.66045827E+05</totfact>
</mgrwt>
</event>
<event>
 5    1  0.1281005E-004  0.1206978E+03  0.7546771E-02  0.1241950E+00
         21   -1    0    0  501  502  0.00000000000E+00  0.00000000000E+00  0.93652179107E+01  0.93652179107E+01  0.00000000000E+00 0. -1.
         21   -1    0    0  502  503 -0.00000000000E+00 -0.00000000000E+00 -0.15765519614E+04  0.15765519614E+04  0.00000000000E+00 0.  1.
         24    1    1    2    0    0 -0.19507918792E+02 -0.30151461449E+02 -0.59389867882E+03  0.60039364269E+03  0.80419002446E+02 0.  1.
          1    1    1    2  501    0  0.33714360056E+02  0.87746847542E+02 -0.66108088769E+03  0.66773056497E+03  0.00000000000E+00 0. -1.
         -2    1    1    2    0  503 -0.14206441264E+02 -0.57595386093E+02 -0.31220717694E+03  0.31779297161E+03  0.00000000000E+00 0.  1.
<mgrwt>
<rscale>  2 0.12069783E+03</rscale>
<asrwt>0</asrwt>
<pdfrwt beam="1">  1       21 0.14408038E-02 0.12069783E+03</pdfrwt>
<pdfrwt beam="2">  1       21 0.24254627E+00 0.12069783E+03</pdfrwt>
<totfact> 0.16186414E+05</totfact>
</mgrwt>
</event>
<event>
 5    1  0.1281005E-004  0.1095742E+03  0.7546771E-02  0.1261360E+00
         21   -1    0    0  501  502  0.00000000000E+00  0.00000000000E+00  0.31654702111E+02  0.31654702111E+02  0.00000000000E+00 0. -1.
         21   -1    0    0  502  503 -0.00000000000E+00 -0.00000000000E+00 -0.39765106665E+03  0.39765106665E+03  0.00000000000E+00 0.  1.
         24    1    1    2    0    0 -0.32323813491E+02  0.30774282810E+02 -0.12068366421E+03  0.15173545453E+03  0.80419002446E+02 0. -1.
          1    1    1    2  501    0  0.75739635320E+02 -0.35227961146E+02 -0.13276472709E+03  0.15685654071E+03  0.00000000000E+00 0. -1.
         -2    1    1    2    0  503 -0.43415821830E+02  0.44536783367E+01 -0.11254797323E+03  0.12071377351E+03  0.00000000000E+00 0.  1.
<mgrwt>
<rscale>  2 0.10957424E+03</rscale>
<asrwt>0</asrwt>
<pdfrwt beam="1">  1       21 0.48699540E-02 0.10957424E+03</pdfrwt>
<pdfrwt beam="2">  1       21 0.61177089E-01 0.10957424E+03</pdfrwt>
<totfact> 0.70357328E+05</totfact>
</mgrwt>
</event>
<event>
 5    1  0.1281005E-004  0.1434279E+03  0.7546771E-02  0.1208790E+00
         21   -1    0    0  503  502  0.00000000000E+00  0.00000000000E+00  0.35354672689E+03  0.35354672689E+03  0.00000000000E+00 0. -1.
         21   -1    0    0  501  503 -0.00000000000E+00 -0.00000000000E+00 -0.60605082253E+02  0.60605082253E+02  0.00000000000E+00 0.  1.
         24    1    1    2    0    0 -0.16078580900E+02  0.40744589237E+00  0.10532034938E+03  0.13348512547E+03  0.80419002446E+02 0. -1.
          1    1    1    2  501    0 -0.60699218790E+02  0.75502185683E+02  0.61973704972E+02  0.11500311001E+03  0.00000000000E+00 0. -1.
         -2    1    1    2    0  502  0.76777799690E+02 -0.75909631575E+02  0.12564759029E+03  0.16566357366E+03  0.00000000000E+00 0.  1.
<mgrwt>
<rscale>  2 0.14342787E+03</rscale>
<asrwt>0</asrwt>
<pdfrwt beam="1">  1       21 0.54391803E-01 0.14342787E+03</pdfrwt>
<pdfrwt beam="2">  1       21 0.93238590E-02 0.14342787E+03</pdfrwt>
<totfact> 0.29646158E+05</totfact>
</mgrwt>
</event>
<event>
 5    1  0.1281005E-004  0.2041823E+03  0.7546771E-02  0.1146258E+00
         21   -1    0    0  501  502  0.00000000000E+00  0.00000000000E+00  0.25081200601E+03  0.25081200601E+03  0.00000000000E+00 0. -1.
         21   -1    0    0  502  503 -0.00000000000E+00 -0.00000000000E+00 -0.16654587401E+03  0.16654587401E+03  0.00000000000E+00 0.  1.
         24    1    1    2    0    0  0.43456535927E+02  0.13182417152E+03  0.41399983367E+02  0.16567213793E+03  0.80419002446E+02 0.  1.
          1    1    1    2  501    0  0.56177820471E+02  0.25527198445E+02  0.13063453416E+02  0.63073284270E+02  0.00000000000E+00 0. -1.
         -2    1    1    2    0  503 -0.99634356398E+02 -0.15735136996E+03  0.29802695217E+02  0.18861245782E+03  0.00000000000E+00 0.  1.
<mgrwt>
<rscale>  2 0.20418233E+03</rscale>
<asrwt>0</asrwt>
<pdfrwt beam="1">  1       21 0.38586463E-01 0.20418233E+03</pdfrwt>
<pdfrwt beam="2">  1       21 0.25622442E-01 0.20418233E+03</pdfrwt>
<totfact> 0.93148719E+04</totfact>
</mgrwt>
</event>
<event>
 5    1  0.1281005E-004  0.2749933E+03  0.7546771E-02  0.1098455E+00
         21   -1    0    0  501  502  0.00000000000E+00  0.00000000000E+00  0.11596388514E+03  0.11596388514E+03  0.00000000000E+00 0.  1.
         21   -1    0    0  502  503 -0.00000000000E+00 -0.00000000000E+00 -0.76259765845E+03  0.76259765845E+03  0.00000000000E+00 0. -1.
         24    1    1    2    0    0  0.71082814764E+02  0.11035498365E+03 -0.56990911586E+02  0.16415288280E+03  0.80419002446E+02 0.  1.
          1    1    1    2  501    0 -0.14282881835E+03  0.99627787387E+02 -0.19329190529E+03  0.26016826867E+03  0.00000000000E+00 0. -1.
         -2    1    1    2    0  503  0.71746003588E+02 -0.20998277104E+03 -0.39635095644E+03  0.45424039212E+03  0.00000000000E+00 0.  1.
<mgrwt>
<rscale>  2 0.27499331E+03</rscale>
<asrwt>0</asrwt>
<pdfrwt beam="1">  1       21 0.17840598E-01 0.27499331E+03</pdfrwt>
<pdfrwt beam="2">  1       21 0.11732271E+00 0.27499331E+03</pdfrwt>
<totfact> 0.15197594E+04</totfact>
</mgrwt>
</event>
<event>
 5    1  0.1281005E-004  0.1555248E+03  0.7546771E-02  0.1193844E+00
         21   -1    0    0  503  502  0.00000000000E+00  0.00000000000E+00  0.24248401539E+03  0.24248401539E+03  0.00000000000E+00 0.  1.
         21   -1    0    0  501  503 -0.00000000000E+00 -0.00000000000E+00 -0.10752012727E+03  0.10752012727E+03  0.00000000000E+00 0.  1.
         24    1    1    2    0    0 -0.28483756395E+02 -0.60024623128E+02  0.82370292666E+01  0.10463911489E+03  0.80419002446E+02 0.  1.
          1    1    1    2  501    0  0.11145614389E+02 -0.72363339639E+02  0.24504165197E+02  0.77208365841E+02  0.00000000000E+00 0. -1.
         -2    1    1    2    0  502  0.17338142006E+02  0.13238796277E+03  0.10222269365E+03  0.16815666193E+03  0.00000000000E+00 0.  1.
<mgrwt>
<rscale>  2 0.15552477E+03</rscale>
<asrwt>0</asrwt>
<pdfrwt beam="1">  1       21 0.37305233E-01 0.15552477E+03</pdfrwt>
<pdfrwt beam="2">  1       21 0.16541558E-01 0.15552477E+03</pdfrwt>
<totfact> 0.22962262E+05</totfact>
</mgrwt>
</event>
<event>
 5    1  0.1281005E-004  0.1638043E+03  0.7546771E-02  0.1184467E+00
         21   -1    0    0  503  502  0.00000000000E+00  0.00000000000E+00  0.17897965618E+03  0.17897965618E+03  0.00000000000E+00 0. -1.
         21   -1    0    0  501  503 -0.00000000000E+00 -0.00000000000E+00 -0.17106345354E+03  0.17106345354E+03  0.00000000000E+00 0.  1.
         24    1    1    2    0    0 -0.40505216531E+02 -0.15876618118E+02  0.40595376604E+02  0.10003969275E+03  0.80419002446E+02 0. -1.
          1    1    1    2  501    0 -0.95981909557E+02  0.25616758304E+02 -0.51472577838E+02  0.11188463495E+03  0.00000000000E+00 0. -1.
         -2    1    1    2    0  502  0.13648712609E+03 -0.97401401857E+01  0.18793403874E+02  0.13811878202E+03  0.00000000000E+00 0.  1.
<mgrwt>
<rscale>  2 0.16380429E+03</rscale>
<asrwt>0</asrwt>
<pdfrwt beam="1">  1       21 0.27535332E-01 0.16380429E+03</pdfrwt>
<pdfrwt beam="2">  1       21 0.26317454E-01 0.16380429E+03</pdfrwt>
<totfact> 0.17431821E+05</totfact>
</mgrwt>
</event>
<event>
 5    1  0.1281005E-004  0.2404124E+03  0.7546771E-02  0.1119518E+00
         21   -1    0    0  503  502  0.00000000000E+00  0.00000000000E+00  0.10701480958E+04  0.10701480958E+04  0.00000000000E+00 0. -1.
         21   -1    0    0  501  503 -0.00000000000E+00 -0.00000000000E+00 -0.88370147184E+02  0.88370147184E+02  0.00000000000E+00 0.  1.
         24    1    1    2    0    0 -0.22195541580E+02 -0.78523380793E+02  0.10953870155E+03  0.15850711810E+03  0.80419002446E+02 0.  1.
          1    1    1    2  501    0 -0.96094353235E+02  0.18412203118E+03  0.79862569462E+03  0.82518970376E+03  0.00000000000E+00 0. -1.
         -2    1    1    2    0  502  0.11828989482E+03 -0.10559865039E+03  0.73613552456E+02  0.17482142113E+03  0.00000000000E+00 0.  1.
<mgrwt>
<rscale>  2 0.24041242E+03</rscale>
<asrwt>0</asrwt>
<pdfrwt beam="1">  1       21 0.16463816E+00 0.24041242E+03</pdfrwt>
<pdfrwt beam="2">  1       21 0.13595408E-01 0.24041242E+03</pdfrwt>
<totfact> 0.10556360E+04</totfact>
</mgrwt>
</event>
<event>
 5    1  0.1281005E-004  0.1244397E+03  0.7546771E-02  0.1235948E+00
         21   -1    0    0  501  502  0.00000000000E+00  0.00000000000E+00  0.94677633685E+02  0.94677633685E+02  0.00000000000E+00 0.  1.
         21   -1    0    0  502  503 -0.00000000000E+00 -0.00000000000E+00 -0.16360127486E+03  0.16360127486E+03  0.00000000000E+00 0. -1.
         24    1    1    2    0    0 -0.16297492688E+01 -0.25207897951E+02 -0.25338750701E+02  0.88019102718E+02  0.80419002446E+02 0. -1.
          1    1    1    2  501    0 -0.39691615819E+02  0.83895596625E+02 -0.24444909796E+02  0.95976294543E+02  0.00000000000E+00 0. -1.
         -2    1    1    2    0  503  0.41321365088E+02 -0.58687698674E+02 -0.19139980679E+02  0.74283511285E+02  0.00000000000E+00 0.  1.
<mgrwt>
<rscale>  2 0.12443971E+03</rscale>
<asrwt>0</asrwt>
<pdfrwt beam="1">  1       21 0.14565790E-01 0.12443971E+03</pdfrwt>
<pdfrwt beam="2">  1       21 0.25169427E-01 0.12443971E+03</pdfrwt>
<totfact> 0.62239668E+05</totfact>
</mgrwt>
</event>
<event>
 5    1  0.1281005E-004  0.1496961E+03  0.7546771E-02  0.1200847E+00
         21   -1    0    0  501  502  0.00000000000E+00  0.00000000000E+00  0.16727954130E+03  0.16727954130E+03  0.00000000000E+00 0.  1.
         21   -1    0    0  502  503 -0.00000000000E+00 -0.00000000000E+00 -0.13998540246E+03  0.13998540246E+03  0.00000000000E+00 0. -1.
         24    1    1    2    0    0 -0.33353704730E+02 -0.64349745425E+01 -0.14224717173E+02  0.88450195305E+02  0.80419002446E+02 0.  0.
          1    1    1    2  501    0 -0.84128259503E+02 -0.29640751884E+02  0.32309762989E+00  0.89197772457E+02  0.00000000000E+00 0. -1.
         -2    1    1    2    0  503  0.11748196423E+03  0.36075726427E+02  0.41195758389E+02  0.12961697600E+03  0.00000000000E+00 0.  1.
<mgrwt>
<rscale>  2 0.14969612E+03</rscale>
<asrwt>0</asrwt>
<pdfrwt beam="1">  1       21 0.25735314E-01 0.14969612E+03</pdfrwt>
<pdfrwt beam="2">  1       21 0.21536216E-01 0.14969612E+03</pdfrwt>
<totfact> 0.29073683E+05</totfact>
</mgrwt>
</event>
<event>
 5    1  0.1281005E-004  0.2992628E+03  0.7546771E-02  0.1085610E+00
         21   -1    0    0  501  502  0.00000000000E+00  0.00000000000E+00  0.15851331123E+04  0.15851331123E+04  0.00000000000E+00 0. -1.
         21   -1    0    0  502  503 -0.00000000000E+00 -0.00000000000E+00 -0.65084074604E+02  0.65084074604E+02  0.00000000000E+00 0.  1.
         24    1    1    2    0    0  0.52670433656E+02 -0.19942194483E+03  0.31457479346E+03  0.38466583328E+03  0.80419002446E+02 0. -1.
          1    1    1    2  501    0 -0.11778214775E+03  0.26173650409E+03  0.10155238724E+04  0.10553043956E+04  0.00000000000E+00 0. -1.
         -2    1    1    2    0  503  0.65111714098E+02 -0.62314559265E+02  0.18995037187E+03  0.21024695808E+03  0.00000000000E+00 0.  1.
<mgrwt>
<rscale>  2 0.29926281E+03</rscale>
<asrwt>0</asrwt>
<pdfrwt beam="1">  1       21 0.24386660E+00 0.29926281E+03</pdfrwt>
<pdfrwt beam="2">  1       21 0.10012936E-01 0.29926281E+03</pdfrwt>
<totfact> 0.53646225E+03</totfact>
</mgrwt>
</event>
<event>
 5    1  0.1281005E-004  0.9174536E+02  0.7546771E-02  0.1298679E+00
         21   -1    0    0  503  502  0.00000000000E+00  0.00000000000E+00  0.12259577522E+03  0.12259577522E+03  0.00000000000E+00 0. -1.
         21   -1    0    0  501  503 -0.00000000000E+00 -0.00000000000E+00 -0.79481787204E+02  0.79481787204E+02  0.00000000000E+00 0.  1.
         24    1    1    2    0    0  0.18235419824E+02 -0.21655313315E+02  0.56957026692E+02  0.10253195587E+03  0.80419002446E+02 0. -1.
          1    1    1    2  501    0  0.38645606668E+02  0.12527021136E+02 -0.98275261876E+01  0.41797002814E+02  0.00000000000E+00 0. -1.
         -2    1    1    2    0  502 -0.56881026492E+02  0.91282921788E+01 -0.40155124913E+01  0.57748603736E+02  0.00000000000E+00 0.  1.
<mgrwt>
<rscale>  2 0.91745360E+02</rscale>
<asrwt>0</asrwt>
<pdfrwt beam="1">  1       21 0.18860888E-01 0.91745360E+02</pdfrwt>
<pdfrwt beam="2">  1       21 0.12227967E-01 0.91745360E+02</pdfrwt>
<totfact> 0.14450638E+06</totfact>
</mgrwt>
</event>
<event>
 5    1  0.1281005E-004  0.1302714E+03  0.7546771E-02  0.1227054E+00
         21   -1    0    0  501  502  0.00000000000E+00  0.00000000000E+00  0.20913610599E+03  0.20913610599E+03  0.00000000000E+00 0.  1.
         21   -1    0    0  502  503 -0.00000000000E+00 -0.00000000000E+00 -0.96166200311E+02  0.96166200311E+02  0.00000000000E+00 0.  1.
         24    1    1    2    0    0 -0.84615681421E+02 -0.36457668942E+02 -0.66242258299E+01  0.12247477899E+03  0.80419002446E+02 0.  1.
          1    1    1    2  501    0 -0.12785730931E+02 -0.21421142186E+02  0.19926622731E+02  0.31928209180E+02  0.00000000000E+00 0. -1.
         -2    1    1    2    0  503  0.97401412352E+02  0.57878811128E+02  0.99667508779E+02  0.15089931813E+03  0.00000000000E+00 0.  1.
<mgrwt>
<rscale>  2 0.13027135E+03</rscale>
<asrwt>0</asrwt>
<pdfrwt beam="1">  1       21 0.32174785E-01 0.13027135E+03</pdfrwt>
<pdfrwt beam="2">  1       21 0.14794800E-01 0.13027135E+03</pdfrwt>
<totfact> 0.37782920E+05</totfact>
</mgrwt>
</event>
<event>
 5    1  0.1281005E-004  0.1724871E+03  0.7546771E-02  0.1175279E+00
         21   -1    0    0  501  502  0.00000000000E+00  0.00000000000E+00  0.18824711213E+03  0.18824711213E+03  0.00000000000E+00 0. -1.
         21   -1    0    0  502  503 -0.00000000000E+00 -0.00000000000E+00 -0.16316943678E+03  0.16316943678E+03  0.00000000000E+00 0. -1.
         24    1    1    2    0    0 -0.14428711121E+03 -0.38351947190E+02  0.35106788575E+02  0.17317431932E+03  0.80419002446E+02 0. -1.
          1    1    1    2  501    0  0.12850086261E+03  0.65317935126E+02 -0.19802002390E+02  0.14550265853E+03  0.00000000000E+00 0. -1.
         -2    1    1    2    0  503  0.15786248600E+02 -0.26965987936E+02  0.97728891706E+01  0.32739571057E+02  0.00000000000E+00 0.  1.
<mgrwt>
<rscale>  2 0.17248715E+03</rscale>
<asrwt>0</asrwt>
<pdfrwt beam="1">  1       21 0.28961094E-01 0.17248715E+03</pdfrwt>
<pdfrwt beam="2">  1       21 0.25102990E-01 0.17248715E+03</pdfrwt>
<totfact> 0.17257025E+05</totfact>
</mgrwt>
</event>
<event>
 5    1  0.1281005E-004  0.1363725E+03  0.7546771E-02  0.1218295E+00
         21   -1    0    0  501  502  0.00000000000E+00  0.00000000000E+00  0.18732716635E+02  0.18732716635E+02  0.00000000000E+00 0. -1.
         21   -1    0    0  502  503 -0.00000000000E+00 -0.00000000000E+00 -0.13490162123E+04  0.13490162123E+04  0.00000000000E+00 0. -1.
         24    1    1    2    0    0  0.94492406818E+01  0.56977893866E+02 -0.20809451928E+03  0.23044807104E+03  0.80419002446E+02 0. -1.
          1    1    1    2  501    0  0.26587104281E+02 -0.10802544487E+03 -0.88713154099E+03  0.89407982970E+03  0.00000000000E+00 0. -1.
         -2    1    1    2    0  503 -0.36036344963E+02  0.51047550999E+02 -0.23505743538E+03  0.24322102818E+03  0.00000000000E+00 0.  1.
<mgrwt>
<rscale>  2 0.13637246E+03</rscale>
<asrwt>0</asrwt>
<pdfrwt beam="1">  1       21 0.28819559E-02 0.13637246E+03</pdfrwt>
<pdfrwt beam="2">  1       21 0.20754099E+00 0.13637246E+03</pdfrwt>
<totfact> 0.84346960E+04</totfact>
</mgrwt>
</event>
<event>
 5    1  0.1281005E-004  0.8036809E+02  0.7546771E-02  0.1328010E+00
         21   -1    0    0  503  502  0.00000000000E+00  0.00000000000E+00  0.35356286898E+03  0.35356286898E+03  0.00000000000E+00 0. -1.
         21   -1    0    0  501  503 -0.00000000000E+00 -0.00000000000E+00 -0.18870383202E+02  0.18870383202E+02  0.00000000000E+00 0.  1.
         24    1    1    2    0    0  0.97281327883E+01  0.21602867938E+02  0.14216594348E+03  0.16504451494E+03  0.80419002446E+02 0. -1.
          1    1    1    2  501    0  0.73417873562E+01  0.25638541744E+02  0.59898850208E+02  0.65567590474E+02  0.00000000000E+00 0. -1.
         -2    1    1    2    0  502 -0.17069920144E+02 -0.47241409682E+02  0.13262769208E+03  0.14182114676E+03  0.00000000000E+00 0.  1.
<mgrwt>
<rscale>  2 0.80368092E+02</rscale>
<asrwt>0</asrwt>
<pdfrwt beam="1">  1       21 0.54394283E-01 0.80368092E+02</pdfrwt>
<pdfrwt beam="2">  1       21 0.29031361E-02 0.80368092E+02</pdfrwt>
<totfact> 0.20923981E+06</totfact>
</mgrwt>
</event>
<event>
 5    1  0.1281005E-004  0.1364578E+03  0.7546771E-02  0.1218176E+00
         21   -1    0    0  503  502  0.00000000000E+00  0.00000000000E+00  0.64813210882E+03  0.64813210882E+03  0.00000000000E+00 0.  1.
         21   -1    0    0  501  503 -0.00000000000E+00 -0.00000000000E+00 -0.30088583611E+02  0.30088583611E+02  0.00000000000E+00 0. -1.
         24    1    1    2    0    0 -0.66086625205E+02  0.20249069292E+02  0.27153718339E+03  0.29150836139E+03  0.80419002446E+02 0.  0.
          1    1    1    2  501    0 -0.17506523416E+02 -0.68264040424E+02  0.19280588176E+03  0.20528167385E+03  0.00000000000E+00 0. -1.
         -2    1    1    2    0  502  0.83593148621E+02  0.48014971132E+02  0.15370046005E+03  0.18143065719E+03  0.00000000000E+00 0.  1.
<mgrwt>
<rscale>  2 0.13645778E+03</rscale>
<asrwt>0</asrwt>
<pdfrwt beam="1">  1       21 0.99712622E-01 0.13645778E+03</pdfrwt>
<pdfrwt beam="2">  1       21 0.46290133E-02 0.13645778E+03</pdfrwt>
<totfact> 0.25740926E+05</totfact>
</mgrwt>
</event>
<event>
 5    1  0.1281005E-004  0.2052667E+03  0.7546771E-02  0.1145370E+00
         21   -1    0    0  501  502  0.00000000000E+00  0.00000000000E+00  0.37383547802E+02  0.37383547802E+02  0.00000000000E+00 0. -1.
         21   -1    0    0  502  503 -0.00000000000E+00 -0.00000000000E+00 -0.12087851490E+04  0.12087851490E+04  0.00000000000E+00 0.  1.
         24    1    1    2    0    0 -0.30240088541E+02  0.24745896292E+02 -0.14660634887E+03  0.17171913062E+03  0.80419002446E+02 0.  0.
          1    1    1    2  501    0  0.15083807121E+03 -0.98134403081E+02 -0.62879395486E+03  0.65403694273E+03  0.00000000000E+00 0. -1.
         -2    1    1    2    0  503 -0.12059798267E+03  0.73388506789E+02 -0.39600129744E+03  0.42041262341E+03  0.00000000000E+00 0.  1.
<mgrwt>
<rscale>  2 0.20526674E+03</rscale>
<asrwt>0</asrwt>
<pdfrwt beam="1">  1       21 0.57513147E-02 0.20526674E+03</pdfrwt>
<pdfrwt beam="2">  1       21 0.18596696E+00 0.20526674E+03</pdfrwt>
<totfact> 0.34867456E+04</totfact>
</mgrwt>
</event>
<event>
 5    1  0.1281005E-004  0.1157305E+03  0.7546771E-02  0.1250311E+00
         21   -1    0    0  501  502  0.00000000000E+00  0.00000000000E+00  0.61076930220E+03  0.61076930220E+03  0.00000000000E+00 0.  1.
         21   -1    0    0  502  503 -0.00000000000E+00 -0.00000000000E+00 -0.25609927638E+02  0.25609927638E+02  0.00000000000E+00 0. -1.
         24    1    1    2    0    0 -0.48797795940E+02 -0.35920295178E+02  0.37708237659E+03  0.39029453901E+03  0.80419002446E+02 0.  1.
          1    1    1    2  501    0  0.50618740513E+02  0.75636630156E+02  0.15537227553E+03  0.18006582329E+03  0.00000000000E+00 0. -1.
         -2    1    1    2    0  503 -0.18209445725E+01 -0.39716334978E+02  0.52704722437E+02  0.66018867533E+02  0.00000000000E+00 0.  1.
<mgrwt>
<rscale>  2 0.11573053E+03</rscale>
<asrwt>0</asrwt>
<pdfrwt beam="1">  1       21 0.93964497E-01 0.11573053E+03</pdfrwt>
<pdfrwt beam="2">  1       21 0.39399893E-02 0.11573053E+03</pdfrwt>
<totfact> 0.38822844E+05</totfact>
</mgrwt>
</event>
<event>
 5    1  0.1281005E-004  0.2247675E+03  0.7546771E-02  0.1130378E+00
         21   -1    0    0  503  502  0.00000000000E+00  0.00000000000E+00  0.85060242008E+03  0.85060242008E+03  0.00000000000E+00 0.  1.
         21   -1    0    0  501  503 -0.00000000000E+00 -0.00000000000E+00 -0.66405303922E+02  0.66405303922E+02  0.00000000000E+00 0. -1.
         24    1    1    2    0    0 -0.31674831280E+02 -0.52849400886E+02  0.31807180765E+03  0.33381618428E+03  0.80419002446E+02 0.  0.
          1    1    1    2  501    0 -0.92178539264E+02 -0.11007256086E+03  0.16015813971E+03  0.21508947318E+03  0.00000000000E+00 0. -1.
         -2    1    1    2    0  502  0.12385337054E+03  0.16292196175E+03  0.30596716879E+03  0.36810206654E+03  0.00000000000E+00 0.  1.
<mgrwt>
<rscale>  2 0.22476748E+03</rscale>
<asrwt>0</asrwt>
<pdfrwt beam="1">  1       21 0.13086190E+00 0.22476748E+03</pdfrwt>
<pdfrwt beam="2">  1       21 0.10216201E-01 0.22476748E+03</pdfrwt>
<totfact> 0.32612570E+04</totfact>
</mgrwt>
</event>
<event>
 5    1  0.1281005E-004  0.2237196E+03  0.7546771E-02  0.1131140E+00
         21   -1    0    0  503  502  0.00000000000E+00  0.00000000000E+00  0.82075745632E+03  0.82075745632E+03  0.00000000000E+00 0.  1.
         21   -1    0    0  501  503 -0.00000000000E+00 -0.00000000000E+00 -0.63259409948E+02  0.63259409948E+02  0.00000000000E+00 0. -1.
         24    1    1    2    0    0  0.26063719377E+02  0.25203406228E+02  0.15810742181E+03  0.18105165545E+03  0.80419002446E+02 0. -1.
          1    1    1    2  501    0  0.97720775634E+02 -0.15284833300E+03  0.22939203347E+03  0.29245968595E+03  0.00000000000E+00 0. -1.
         -2    1    1    2    0  502 -0.12378449501E+03  0.12764492677E+03  0.36999859110E+03  0.41050552487E+03  0.00000000000E+00 0.  1.
<mgrwt>
<rscale>  2 0.22371957E+03</rscale>
<asrwt>0</asrwt>
<pdfrwt beam="1">  1       21 0.12627037E+00 0.22371957E+03</pdfrwt>
<pdfrwt beam="2">  1       21 0.97322175E-02 0.22371957E+03</pdfrwt>
<totfact> 0.38925568E+04</totfact>
</mgrwt>
</event>
<event>
 5    1  0.1281005E-004  0.1787020E+03  0.7546771E-02  0.1169065E+00
         21   -1    0    0  501  502  0.00000000000E+00  0.00000000000E+00  0.41421938577E+03  0.41421938577E+03  0.00000000000E+00 0.  1.
         21   -1    0    0  502  503 -0.00000000000E+00 -0.00000000000E+00 -0.79776075129E+02  0.79776075129E+02  0.00000000000E+00 0. -1.
         24    1    1    2    0    0 -0.99309763952E+02 -0.40906803532E+02  0.14248767880E+03  0.19571854883E+03  0.80419002446E+02 0. -1.
          1    1    1    2  501    0  0.14876741859E+03  0.71516785497E+02  0.16754842596E+03  0.23519963964E+03  0.00000000000E+00 0. -1.
         -2    1    1    2    0  503 -0.49457654641E+02 -0.30609981965E+02  0.24407205870E+02  0.63077272427E+02  0.00000000000E+00 0.  1.
<mgrwt>
<rscale>  2 0.17870197E+03</rscale>
<asrwt>0</asrwt>
<pdfrwt beam="1">  1       21 0.63726058E-01 0.17870197E+03</pdfrwt>
<pdfrwt beam="2">  1       21 0.12273243E-01 0.17870197E+03</pdfrwt>
<totfact> 0.12887403E+05</totfact>
</mgrwt>
</event>
<event>
 5    1  0.1281005E-004  0.2398429E+03  0.7546771E-02  0.1119897E+00
         21   -1    0    0  503  502  0.00000000000E+00  0.00000000000E+00  0.60008773104E+02  0.60008773104E+02  0.00000000000E+00 0.  1.
         21   -1    0    0  501  503 -0.00000000000E+00 -0.00000000000E+00 -0.11380438691E+04  0.11380438691E+04  0.00000000000E+00 0. -1.
         24    1    1    2    0    0  0.14770294345E+03 -0.10639932951E+03 -0.69635072212E+03  0.72422960515E+03  0.80419002446E+02 0.  0.
          1    1    1    2  501    0 -0.20270233990E+03  0.97612556070E+02 -0.30134987338E+03  0.37606940302E+03  0.00000000000E+00 0. -1.
         -2    1    1    2    0  502  0.54999396447E+02  0.87867734383E+01 -0.80334500492E+02  0.97753634032E+02  0.00000000000E+00 0.  1.
<mgrwt>
<rscale>  2 0.23984294E+03</rscale>
<asrwt>0</asrwt>
<pdfrwt beam="1">  1       21 0.92321203E-02 0.23984294E+03</pdfrwt>
<pdfrwt beam="2">  1       21 0.17508365E+00 0.23984294E+03</pdfrwt>
<totfact> 0.17795748E+04</totfact>
</mgrwt>
</event>
<event>
 5    1  0.1281005E-004  0.2567802E+03  0.7546771E-02  0.1109093E+00
         21   -1    0    0  503  502  0.00000000000E+00  0.00000000000E+00  0.40940382746E+03  0.40940382746E+03  0.00000000000E+00 0. -1.
         21   -1    0    0  501  503 -0.00000000000E+00 -0.00000000000E+00 -0.17015063881E+03  0.17015063881E+03  0.00000000000E+00 0. -1.
         24    1    1    2    0    0 -0.65300441339E+02  0.11660711344E+03  0.25393323273E+02  0.15802975468E+03  0.80419002446E+02 0. -1.
          1    1    1    2  501    0  0.63456905932E+02 -0.23284222223E+03  0.10838011958E+03  0.26455345336E+03  0.00000000000E+00 0. -1.
         -2    1    1    2    0  502  0.18435354066E+01  0.11623510879E+03  0.10547974580E+03  0.15697125824E+03  0.00000000000E+00 0.  1.
<mgrwt>
<rscale>  2 0.25678016E+03</rscale>
<asrwt>0</asrwt>
<pdfrwt beam="1">  1       21 0.62985204E-01 0.25678016E+03</pdfrwt>
<pdfrwt beam="2">  1       21 0.26177022E-01 0.25678016E+03</pdfrwt>
<totfact> 0.31364880E+04</totfact>
</mgrwt>
</event>
<event>
 5    1  0.1281005E-004  0.1657986E+03  0.7546771E-02  0.1182301E+00
         21   -1    0    0  503  502  0.00000000000E+00  0.00000000000E+00  0.68461375096E+03  0.68461375096E+03  0.00000000000E+00 0.  1.
         21   -1    0    0  501  503 -0.00000000000E+00 -0.00000000000E+00 -0.49869064024E+02  0.49869064024E+02  0.00000000000E+00 0.  1.
         24    1    1    2    0    0  0.55101215170E+02 -0.38614719860E+02  0.34228830100E+03  0.35798845995E+03  0.80419002446E+02 0.  1.
          1    1    1    2  501    0 -0.11215142870E+02 -0.90077700321E+02  0.17359789440E+03  0.19589793379E+03  0.00000000000E+00 0. -1.
         -2    1    1    2    0  502 -0.43886072300E+02  0.12869242018E+03  0.11885849154E+03  0.18059642124E+03  0.00000000000E+00 0.  1.
<mgrwt>
<rscale>  2 0.16579861E+03</rscale>
<asrwt>0</asrwt>
<pdfrwt beam="1">  1       21 0.10532519E+00 0.16579861E+03</pdfrwt>
<pdfrwt beam="2">  1       21 0.76721642E-02 0.16579861E+03</pdfrwt>
<totfact> 0.94697431E+04</totfact>
</mgrwt>
</event>
<event>
 5    1  0.1281005E-004  0.1207605E+03  0.7546771E-02  0.1241848E+00
         21   -1    0    0  503  502  0.00000000000E+00  0.00000000000E+00  0.89318635665E+03  0.89318635665E+03  0.00000000000E+00 0.  1.
         21   -1    0    0  501  503 -0.00000000000E+00 -0.00000000000E+00 -0.17259197356E+02  0.17259197356E+02  0.00000000000E+00 0. -1.
         24    1    1    2    0    0 -0.51790325053E+02 -0.31541672357E+02  0.26873762218E+03  0.28699170788E+03  0.80419002446E+02 0. -1.
          1    1    1    2  501    0 -0.41821683056E+02 -0.59903655692E+00  0.15372929533E+03  0.15931763324E+03  0.00000000000E+00 0. -1.
         -2    1    1    2    0  502  0.93612008109E+02  0.32140708914E+02  0.45346024178E+03  0.46413621289E+03  0.00000000000E+00 0.  1.
<mgrwt>
<rscale>  2 0.12076048E+03</rscale>
<asrwt>0</asrwt>
<pdfrwt beam="1">  1       21 0.13741325E+00 0.12076048E+03</pdfrwt>
<pdfrwt beam="2">  1       21 0.26552618E-02 0.12076048E+03</pdfrwt>
<totfact> 0.29735582E+05</totfact>
</mgrwt>
</event>
