<event>
 5    1  0.2051810E+000  0.9923609E+02  0.7546771E-02  0.1281911E+00
         21   -1    0    0  501  502  0.00000000000E+00  0.00000000000E+00  0.16267988966E+02  0.16267988966E+02  0.00000000000E+00 0. -1.
         21   -1    0    0  502  503 -0.00000000000E+00 -0.00000000000E+00 -0.73290915912E+03  0.73290915912E+03  0.00000000000E+00 0. -1.
         24    1    1    2    0    0 -0.74467257318E+02  0.35711599603E+02 -0.43635518426E+03  0.45132444377E+03  0.80419002446E+02 0. -1.
          1    1    1    2  501    0  0.31632296422E+02 -0.20729586631E+02 -0.47662593226E+02  0.60844397703E+02  0.00000000000E+00 0. -1.
         -2    1    1    2    0  503  0.42834960896E+02 -0.14982012972E+02 -0.23262339267E+03  0.23700830662E+03  0.00000000000E+00 0.  1.
<mgrwt>
<rscale>  2 0.99236089E+02</rscale>
<asrwt>0</asrwt>
<pdfrwt beam="1">  1       21 0.25027684E-02 0.99236089E+02</pdfrwt>
<pdfrwt beam="2">  1       21 0.11275522E+00 0.99236089E+02</pdfrwt>
<totfact> 0.53371339E+05</totfact>
</mgrwt>
</event>
<event>
 5    1  0.2051810E+000  0.6586886E+02  0.7546771E-02  0.1374733E+00
         21   -1    0    0  503  502  0.00000000000E+00  0.00000000000E+00  0.23139169118E+03  0.23139169118E+03  0.00000000000E+00 0.  1.
         21   -1    0    0  501  503 -0.00000000000E+00 -0.00000000000E+00 -0.45812332198E+02  0.45812332198E+02  0.00000000000E+00 0.  1.
         24    1    1    2    0    0  0.19530899079E+01 -0.42541733470E+01  0.36665867914E+02  0.88507143075E+02  0.80419002446E+02 0.  1.
          1    1    1    2  501    0  0.16832838786E+02  0.20374355890E+02 -0.97083412797E+01  0.28155119072E+02  0.00000000000E+00 0. -1.
         -2    1    1    2    0  502 -0.18785928693E+02 -0.16120182543E+02  0.15862183234E+03  0.16054176123E+03  0.00000000000E+00 0.  1.
<mgrwt>
<rscale>  2 0.65868859E+02</rscale>
<asrwt>0</asrwt>
<pdfrwt beam="1">  1       21 0.35598721E-01 0.65868859E+02</pdfrwt>
<pdfrwt beam="2">  1       21 0.70480513E-02 0.65868859E+02</pdfrwt>
<totfact> 0.11215609E+06</totfact>
</mgrwt>
</event>
<event>
 5    1  0.2051810E+000  0.1064632E+03  0.7546771E-02  0.1267263E+00
         21   -1    0    0  503  502  0.00000000000E+00  0.00000000000E+00  0.54021146202E+01  0.54021146202E+01  0.00000000000E+00 0. -1.
         21   -1    0    0  501  503 -0.00000000000E+00 -0.00000000000E+00 -0.21004593017E+04  0.21004593017E+04  0.00000000000E+00 0.  1.
         24    1    1    2    0    0 -0.47879000129E+02  0.11610012474E+02 -0.94626839412E+03  0.95095650831E+03  0.80419002446E+02 0.  0.
          1    1    1    2  501    0 -0.30606460832E+02 -0.24340368323E+02 -0.39937505935E+03  0.40128499475E+03  0.00000000000E+00 0. -1.
         -2    1    1    2    0  502  0.78485460960E+02  0.12730355848E+02 -0.74941373363E+03  0.75361991328E+03  0.00000000000E+00 0.  1.
<mgrwt>
<rscale>  2 0.10646323E+03</rscale>
<asrwt>0</asrwt>
<pdfrwt beam="1">  1       21 0.83109332E-03 0.10646323E+03</pdfrwt>
<pdfrwt beam="2">  1       21 0.32314806E+00 0.10646323E+03</pdfrwt>
<totfact> 0.13816230E+05</totfact>
</mgrwt>
</event>
<event>
 5    1  0.2051810E+000  0.6908225E+02  0.7546771E-02  0.1363242E+00
         21   -1    0    0  503  502  0.00000000000E+00  0.00000000000E+00  0.32944591230E+01  0.32944591230E+01  0.00000000000E+00 0. -1.
         21   -1    0    0  501  503 -0.00000000000E+00 -0.00000000000E+00 -0.16294322237E+04  0.16294322237E+04  0.00000000000E+00 0.  1.
         24    1    1    2    0    0  0.63406537690E+01 -0.11057190173E+02 -0.12025423866E+04  0.12052957616E+04  0.80419002446E+02 0.  1.
          1    1    1    2  501    0 -0.27627740984E+01  0.33702437061E+02 -0.27639495818E+03  0.27845584945E+03  0.00000000000E+00 0. -1.
         -2    1    1    2    0  502 -0.35778796706E+01 -0.22645246888E+02 -0.14720041978E+03  0.14897507179E+03  0.00000000000E+00 0.  1.
<mgrwt>
<rscale>  2 0.69082247E+02</rscale>
<asrwt>0</asrwt>
<pdfrwt beam="1">  1       21 0.50683856E-03 0.69082247E+02</pdfrwt>
<pdfrwt beam="2">  1       21 0.25068253E+00 0.69082247E+02</pdfrwt>
<totfact> 0.77407477E+05</totfact>
</mgrwt>
</event>
<event>
 5    1  0.2051810E+000  0.1085466E+03  0.7546771E-02  0.1263285E+00
         21   -1    0    0  503  502  0.00000000000E+00  0.00000000000E+00  0.30702417398E+02  0.30702417398E+02  0.00000000000E+00 0.  1.
         21   -1    0    0  501  503 -0.00000000000E+00 -0.00000000000E+00 -0.49057908754E+03  0.49057908754E+03  0.00000000000E+00 0.  1.
         24    1    1    2    0    0  0.12200307796E+02 -0.78757236584E+02 -0.12907892239E+03  0.17169779842E+03  0.80419002446E+02 0.  1.
          1    1    1    2  501    0  0.22375638279E+02  0.57657866182E+01 -0.14724905094E+03  0.14905098620E+03  0.00000000000E+00 0. -1.
         -2    1    1    2    0  502 -0.34575946074E+02  0.72991449966E+02 -0.18354869681E+03  0.20053272032E+03  0.00000000000E+00 0.  1.
<mgrwt>
<rscale>  2 0.10854659E+03</rscale>
<asrwt>0</asrwt>
<pdfrwt beam="1">  1       21 0.47234492E-02 0.10854659E+03</pdfrwt>
<pdfrwt beam="2">  1       21 0.75473701E-01 0.10854659E+03</pdfrwt>
<totfact> 0.47051496E+05</totfact>
</mgrwt>
</event>
<event>
 5    1  0.2051810E+000  0.8092647E+02  0.7546771E-02  0.1326443E+00
         21   -1    0    0  503  502  0.00000000000E+00  0.00000000000E+00  0.46244382288E+03  0.46244382288E+03  0.00000000000E+00 0.  1.
         21   -1    0    0  501  503 -0.00000000000E+00 -0.00000000000E+00 -0.42383640783E+02  0.42383640783E+02  0.00000000000E+00 0. -1.
         24    1    1    2    0    0  0.30673659610E+02  0.92715868689E+01  0.30304109731E+03  0.31516338355E+03  0.80419002446E+02 0.  0.
          1    1    1    2  501    0 -0.27106475074E+02  0.27339984773E+02 -0.23031649873E+02  0.44863043301E+02  0.00000000000E+00 0. -1.
         -2    1    1    2    0  502 -0.35671845364E+01 -0.36611571642E+02  0.14005073465E+03  0.14480103681E+03  0.00000000000E+00 0.  1.
<mgrwt>
<rscale>  2 0.80926474E+02</rscale>
<asrwt>0</asrwt>
<pdfrwt beam="1">  1       21 0.71145200E-01 0.80926474E+02</pdfrwt>
<pdfrwt beam="2">  1       21 0.65205604E-02 0.80926474E+02</pdfrwt>
<totfact> 0.31302966E+05</totfact>
</mgrwt>
</event>
<event>
 5    1  0.2051810E+000  0.7653585E+02  0.7546771E-02  0.1339180E+00
         21   -1    0    0  503  502  0.00000000000E+00  0.00000000000E+00  0.51329076562E+02  0.51329076562E+02  0.00000000000E+00 0. -1.
         21   -1    0    0  501  503 -0.00000000000E+00 -0.00000000000E+00 -0.21834882796E+03  0.21834882796E+03  0.00000000000E+00 0.  1.
         24    1    1    2    0    0  0.87749005188E+01  0.16373721199E+01 -0.14107820258E+03  0.16263442152E+03  0.80419002446E+02 0.  1.
          1    1    1    2  501    0 -0.19607671333E+02 -0.33327896778E+02 -0.51864144498E+02  0.64692340839E+02  0.00000000000E+00 0. -1.
         -2    1    1    2    0  502  0.10832770814E+02  0.31690524658E+02  0.25922595672E+02  0.42351142168E+02  0.00000000000E+00 0.  1.
<mgrwt>
<rscale>  2 0.76535849E+02</rscale>
<asrwt>0</asrwt>
<pdfrwt beam="1">  1       21 0.78967810E-02 0.76535849E+02</pdfrwt>
<pdfrwt beam="2">  1       21 0.33592127E-01 0.76535849E+02</pdfrwt>
<totfact> 0.10396846E+06</totfact>
</mgrwt>
</event>
<event>
 5    1  0.2051810E+000  0.9255762E+02  0.7546771E-02  0.1296774E+00
         21   -1    0    0  501  502  0.00000000000E+00  0.00000000000E+00  0.24062777932E+02  0.24062777932E+02  0.00000000000E+00 0. -1.
         21   -1    0    0  502  503 -0.00000000000E+00 -0.00000000000E+00 -0.42963345903E+03  0.42963345903E+03  0.00000000000E+00 0.  1.
         24    1    1    2    0    0 -0.25006709313E+02  0.39625353007E+01 -0.27336400674E+03  0.28607015456E+03  0.80419002446E+02 0.  1.
          1    1    1    2  501    0  0.51065193195E+02 -0.33763321441E+02 -0.62652588743E+02  0.87595449123E+02  0.00000000000E+00 0. -1.
         -2    1    1    2    0  503 -0.26058483882E+02  0.29800786141E+02 -0.69554085624E+02  0.80030633284E+02  0.00000000000E+00 0.  1.
<mgrwt>
<rscale>  2 0.92557621E+02</rscale>
<asrwt>0</asrwt>
<pdfrwt beam="1">  1       21 0.37019662E-02 0.92557621E+02</pdfrwt>
<pdfrwt beam="2">  1       21 0.66097449E-01 0.92557621E+02</pdfrwt>
<totfact> 0.93878191E+05</totfact>
</mgrwt>
</event>
<event>
 5    1  0.2051810E+000  0.7247857E+02  0.7546771E-02  0.1351862E+00
         21   -1    0    0  503  502  0.00000000000E+00  0.00000000000E+00  0.75222051325E+02  0.75222051325E+02  0.00000000000E+00 0.  1.
         21   -1    0    0  501  503 -0.00000000000E+00 -0.00000000000E+00 -0.26442252066E+03  0.26442252066E+03  0.00000000000E+00 0.  1.
         24    1    1    2    0    0  0.12649964090E+02  0.34277173810E+02 -0.12758217920E+03  0.15517530293E+03  0.80419002446E+02 0.  1.
          1    1    1    2  501    0 -0.27532533522E+02 -0.12467923334E+02 -0.11821456803E+03  0.12201710376E+03  0.00000000000E+00 0. -1.
         -2    1    1    2    0  502  0.14882569432E+02 -0.21809250477E+02  0.56596277894E+02  0.62452165300E+02  0.00000000000E+00 0.  1.
<mgrwt>
<rscale>  2 0.72478569E+02</rscale>
<asrwt>0</asrwt>
<pdfrwt beam="1">  1       21 0.11572623E-01 0.72478569E+02</pdfrwt>
<pdfrwt beam="2">  1       21 0.40680388E-01 0.72478569E+02</pdfrwt>
<totfact> 0.37111229E+05</totfact>
</mgrwt>
</event>
<event>
 5    1  0.2051810E+000  0.8930298E+02  0.7546771E-02  0.1304548E+00
         21   -1    0    0  503  502  0.00000000000E+00  0.00000000000E+00  0.23865062227E+03  0.23865062227E+03  0.00000000000E+00 0.  1.
         21   -1    0    0  501  503 -0.00000000000E+00 -0.00000000000E+00 -0.78665993529E+02  0.78665993529E+02  0.00000000000E+00 0. -1.
         24    1    1    2    0    0 -0.50736950304E+02  0.23739445871E+02  0.33579113334E+02  0.10359812847E+03  0.80419002446E+02 0.  1.
          1    1    1    2  501    0  0.48321173805E+02  0.78192686294E+01 -0.27803476618E+02  0.56294849780E+02  0.00000000000E+00 0. -1.
         -2    1    1    2    0  502  0.24157764998E+01 -0.31558714500E+02  0.15420899203E+03  0.15742363755E+03  0.00000000000E+00 0.  1.
<mgrwt>
<rscale>  2 0.89302980E+02</rscale>
<asrwt>0</asrwt>
<pdfrwt beam="1">  1       21 0.36715480E-01 0.89302980E+02</pdfrwt>
<pdfrwt beam="2">  1       21 0.12102461E-01 0.89302980E+02</pdfrwt>
<totfact> 0.41930942E+05</totfact>
</mgrwt>
</event>
<event>
 5    1  0.2051810E+000  0.8977374E+02  0.7546771E-02  0.1303401E+00
         21   -1    0    0  501  502  0.00000000000E+00  0.00000000000E+00  0.49648478709E+03  0.49648478709E+03  0.00000000000E+00 0. -1.
         21   -1    0    0  502  503 -0.00000000000E+00 -0.00000000000E+00 -0.23132743436E+02  0.23132743436E+02  0.00000000000E+00 0.  1.
         24    1    1    2    0    0 -0.25627433278E+02 -0.75058420783E+01  0.13745476529E+03  0.16147486324E+03  0.80419002446E+02 0.  0.
          1    1    1    2  501    0  0.43129947569E+02  0.39408173966E+02  0.30458336684E+03  0.31013581527E+03  0.00000000000E+00 0. -1.
         -2    1    1    2    0  503 -0.17502514291E+02 -0.31902331888E+02  0.31313911517E+02  0.48006852020E+02  0.00000000000E+00 0.  1.
<mgrwt>
<rscale>  2 0.89773736E+02</rscale>
<asrwt>0</asrwt>
<pdfrwt beam="1">  1       21 0.76382267E-01 0.89773736E+02</pdfrwt>
<pdfrwt beam="2">  1       21 0.35588840E-02 0.89773736E+02</pdfrwt>
<totfact> 0.73221885E+05</totfact>
</mgrwt>
</event>
<event>
 5    1  0.2051810E+000  0.6931936E+02  0.7546771E-02  0.1362423E+00
         21   -1    0    0  503  502  0.00000000000E+00  0.00000000000E+00  0.10337559139E+02  0.10337559139E+02  0.00000000000E+00 0. -1.
         21   -1    0    0  501  503 -0.00000000000E+00 -0.00000000000E+00 -0.69261208282E+03  0.69261208282E+03  0.00000000000E+00 0.  1.
         24    1    1    2    0    0 -0.20695697166E+02 -0.24288736191E+02 -0.33649539953E+03  0.34744010196E+03  0.80419002446E+02 0.  1.
          1    1    1    2  501    0 -0.40827207378E+01  0.26896726452E+02 -0.31376707214E+03  0.31494424596E+03  0.00000000000E+00 0. -1.
         -2    1    1    2    0  502  0.24778417904E+02 -0.26079902607E+01 -0.32012052006E+02  0.40565294041E+02  0.00000000000E+00 0.  1.
<mgrwt>
<rscale>  2 0.69319364E+02</rscale>
<asrwt>0</asrwt>
<pdfrwt beam="1">  1       21 0.15903933E-02 0.69319364E+02</pdfrwt>
<pdfrwt beam="2">  1       21 0.10655573E+00 0.69319364E+02</pdfrwt>
<totfact> 0.12556418E+06</totfact>
</mgrwt>
</event>
<event>
 5    1  0.2051810E+000  0.7472390E+02  0.7546771E-02  0.1344728E+00
         21   -1    0    0  501  502  0.00000000000E+00  0.00000000000E+00  0.25343527061E+03  0.25343527061E+03  0.00000000000E+00 0.  1.
         21   -1    0    0  502  503 -0.00000000000E+00 -0.00000000000E+00 -0.31393830300E+02  0.31393830300E+02  0.00000000000E+00 0.  1.
         24    1    1    2    0    0 -0.14529377793E+02 -0.44206727359E+02  0.76110723468E+02  0.12010576899E+03  0.80419002446E+02 0.  1.
          1    1    1    2  501    0  0.19024641014E+02  0.90041801412E+01  0.11716575827E+03  0.11904128333E+03  0.00000000000E+00 0. -1.
         -2    1    1    2    0  503 -0.44952632209E+01  0.35202547217E+02  0.28764958570E+02  0.45682048592E+02  0.00000000000E+00 0.  1.
<mgrwt>
<rscale>  2 0.74723897E+02</rscale>
<asrwt>0</asrwt>
<pdfrwt beam="1">  1       21 0.38990040E-01 0.74723897E+02</pdfrwt>
<pdfrwt beam="2">  1       21 0.48298202E-02 0.74723897E+02</pdfrwt>
<totfact> 0.17721490E+06</totfact>
</mgrwt>
</event>
<event>
 5    1  0.2051810E+000  0.6579618E+02  0.7546771E-02  0.1375001E+00
         21   -1    0    0  503  502  0.00000000000E+00  0.00000000000E+00  0.76074087688E+01  0.76074087688E+01  0.00000000000E+00 0. -1.
         21   -1    0    0  501  503 -0.00000000000E+00 -0.00000000000E+00 -0.12506767708E+04  0.12506767708E+04  0.00000000000E+00 0.  1.
         24    1    1    2    0    0 -0.58393922141E+01  0.24372138323E+02 -0.10957046630E+04  0.10989376798E+04  0.80419002446E+02 0.  1.
          1    1    1    2  501    0  0.22590751238E+02 -0.80831256809E+01 -0.12401238454E+03  0.12631211534E+03  0.00000000000E+00 0. -1.
         -2    1    1    2    0  502 -0.16751359024E+02 -0.16289012642E+02 -0.23352314494E+02  0.33034384424E+02  0.00000000000E+00 0.  1.
<mgrwt>
<rscale>  2 0.65796183E+02</rscale>
<asrwt>0</asrwt>
<pdfrwt beam="1">  1       21 0.11703713E-02 0.65796183E+02</pdfrwt>
<pdfrwt beam="2">  1       21 0.19241169E+00 0.65796183E+02</pdfrwt>
<totfact> 0.46372992E+05</totfact>
</mgrwt>
</event>
<event>
 5    1  0.2051810E+000  0.1044173E+03  0.7546771E-02  0.1271272E+00
         21   -1    0    0  503  502  0.00000000000E+00  0.00000000000E+00  0.16016755298E+03  0.16016755298E+03  0.00000000000E+00 0. -1.
         21   -1    0    0  501  503 -0.00000000000E+00 -0.00000000000E+00 -0.69486284640E+02  0.69486284640E+02  0.00000000000E+00 0. -1.
         24    1    1    2    0    0  0.29801995955E+02 -0.76110192279E+02  0.41477923977E+02  0.12193668219E+03  0.80419002446E+02 0. -1.
          1    1    1    2  501    0  0.38120251915E+01  0.53551946270E+02  0.18066211343E+02  0.56645657182E+02  0.00000000000E+00 0. -1.
         -2    1    1    2    0  502 -0.33614021146E+02  0.22558246010E+02  0.31137133024E+02  0.51071498251E+02  0.00000000000E+00 0.  1.
<mgrwt>
<rscale>  2 0.10441729E+03</rscale>
<asrwt>0</asrwt>
<pdfrwt beam="1">  1       21 0.24641162E-01 0.10441729E+03</pdfrwt>
<pdfrwt beam="2">  1       21 0.10690198E-01 0.10441729E+03</pdfrwt>
<totfact> 0.11190763E+06</totfact>
</mgrwt>
</event>
<event>
 5    1  0.2051810E+000  0.6591335E+02  0.7546771E-02  0.1374568E+00
         21   -1    0    0  501  502  0.00000000000E+00  0.00000000000E+00  0.75515062831E+03  0.75515062831E+03  0.00000000000E+00 0.  1.
         21   -1    0    0  502  503 -0.00000000000E+00 -0.00000000000E+00 -0.58394819245E+01  0.58394819245E+01  0.00000000000E+00 0. -1.
         24    1    1    2    0    0 -0.33035350845E+02 -0.23313939649E+02  0.50228311777E+03  0.51028464658E+03  0.80419002446E+02 0. -1.
          1    1    1    2  501    0  0.12708800828E+02  0.15486261760E+02  0.14507156123E+03  0.14644827004E+03  0.00000000000E+00 0. -1.
         -2    1    1    2    0  503  0.20326550017E+02  0.78276778886E+01  0.10195646739E+03  0.10425719361E+03  0.00000000000E+00 0.  1.
<mgrwt>
<rscale>  2 0.65913351E+02</rscale>
<asrwt>0</asrwt>
<pdfrwt beam="1">  1       21 0.11617694E+00 0.65913351E+02</pdfrwt>
<pdfrwt beam="2">  1       21 0.89838243E-03 0.65913351E+02</pdfrwt>
<totfact> 0.24975274E+06</totfact>
</mgrwt>
</event>
<event>
 5    1  0.2051810E+000  0.8584334E+02  0.7546771E-02  0.1313242E+00
         21   -1    0    0  501  502  0.00000000000E+00  0.00000000000E+00  0.32698338754E+03  0.32698338754E+03  0.00000000000E+00 0.  1.
         21   -1    0    0  502  503 -0.00000000000E+00 -0.00000000000E+00 -0.25684006768E+02  0.25684006768E+02  0.00000000000E+00 0. -1.
         24    1    1    2    0    0  0.18307943405E+02  0.46882990916E+02  0.14340385342E+03  0.17194498178E+03  0.80419002446E+02 0. -1.
          1    1    1    2  501    0  0.20150486298E+02 -0.67995006451E+01  0.92524683602E+02  0.94937307644E+02  0.00000000000E+00 0. -1.
         -2    1    1    2    0  503 -0.38458429702E+02 -0.40083490271E+02  0.65370843743E+02  0.85785104879E+02  0.00000000000E+00 0.  1.
<mgrwt>
<rscale>  2 0.85843337E+02</rscale>
<asrwt>0</asrwt>
<pdfrwt beam="1">  1       21 0.50305133E-01 0.85843337E+02</pdfrwt>
<pdfrwt beam="2">  1       21 0.39513859E-02 0.85843337E+02</pdfrwt>
<totfact> 0.14890402E+06</totfact>
</mgrwt>
</event>
<event>
 5    1  0.2051810E+000  0.7350297E+02  0.7546771E-02  0.1348571E+00
         21   -1    0    0  501  502  0.00000000000E+00  0.00000000000E+00  0.25637234630E+01  0.25637234630E+01  0.00000000000E+00 0. -1.
         21   -1    0    0  502  503 -0.00000000000E+00 -0.00000000000E+00 -0.22186702287E+04  0.22186702287E+04  0.00000000000E+00 0.  1.
         24    1    1    2    0    0 -0.24625710401E+01  0.27038040589E+02 -0.10671641758E+04  0.10705343123E+04  0.80419002446E+02 0.  0.
          1    1    1    2  501    0  0.22020929129E+02 -0.34720175438E+02 -0.63637612743E+03  0.63770289906E+03  0.00000000000E+00 0. -1.
         -2    1    1    2    0  503 -0.19558358089E+02  0.76821348498E+01 -0.51256620208E+03  0.51299674081E+03  0.00000000000E+00 0.  1.
<mgrwt>
<rscale>  2 0.73502970E+02</rscale>
<asrwt>0</asrwt>
<pdfrwt beam="1">  1       21 0.39441716E-03 0.73502970E+02</pdfrwt>
<pdfrwt beam="2">  1       21 0.34133547E+00 0.73502970E+02</pdfrwt>
<totfact> 0.36314547E+05</totfact>
</mgrwt>
</event>
<event>
 5    1  0.2051810E+000  0.8084921E+02  0.7546771E-02  0.1326659E+00
         21   -1    0    0  501  502  0.00000000000E+00  0.00000000000E+00  0.37293859674E+02  0.37293859674E+02  0.00000000000E+00 0. -1.
         21   -1    0    0  502  503 -0.00000000000E+00 -0.00000000000E+00 -0.19811440125E+03  0.19811440125E+03  0.00000000000E+00 0.  1.
         24    1    1    2    0    0  0.33657502507E+01  0.40182966324E+02 -0.97739234637E+02  0.13283889867E+03  0.80419002446E+02 0.  0.
          1    1    1    2  501    0  0.19879253719E+02 -0.43904278131E+02 -0.17510992865E+02  0.51277726526E+02  0.00000000000E+00 0. -1.
         -2    1    1    2    0  503 -0.23245003969E+02  0.37213118065E+01 -0.45570314069E+02  0.51291635726E+02  0.00000000000E+00 0.  1.
<mgrwt>
<rscale>  2 0.80849210E+02</rscale>
<asrwt>0</asrwt>
<pdfrwt beam="1">  1       21 0.57375169E-02 0.80849210E+02</pdfrwt>
<pdfrwt beam="2">  1       21 0.30479138E-01 0.80849210E+02</pdfrwt>
<totfact> 0.21494056E+06</totfact>
</mgrwt>
</event>
<event>
 5    1  0.2051810E+000  0.7209594E+02  0.7546771E-02  0.1353107E+00
         21   -1    0    0  503  502  0.00000000000E+00  0.00000000000E+00  0.58042793840E+02  0.58042793840E+02  0.00000000000E+00 0. -1.
         21   -1    0    0  501  503 -0.00000000000E+00 -0.00000000000E+00 -0.26265479779E+03  0.26265479779E+03  0.00000000000E+00 0.  1.
         24    1    1    2    0    0 -0.83877552709E+01  0.48205993194E+02 -0.24069326872E+03  0.25844658594E+03  0.80419002446E+02 0.  1.
          1    1    1    2  501    0 -0.82982005510E+00 -0.26008104388E+02  0.13695344409E+02  0.29405315058E+02  0.00000000000E+00 0. -1.
         -2    1    1    2    0  502  0.92175753260E+01 -0.22197888806E+02  0.22385920369E+02  0.32845690632E+02  0.00000000000E+00 0.  1.
<mgrwt>
<rscale>  2 0.72095942E+02</rscale>
<asrwt>0</asrwt>
<pdfrwt beam="1">  1       21 0.89296606E-02 0.72095942E+02</pdfrwt>
<pdfrwt beam="2">  1       21 0.40408430E-01 0.72095942E+02</pdfrwt>
<totfact> 0.58793152E+05</totfact>
</mgrwt>
</event>
<event>
 5    1  0.2051810E+000  0.8396912E+02  0.7546771E-02  0.1318151E+00
         21   -1    0    0  501  502  0.00000000000E+00  0.00000000000E+00  0.12597655523E+03  0.12597655523E+03  0.00000000000E+00 0. -1.
         21   -1    0    0  502  503 -0.00000000000E+00 -0.00000000000E+00 -0.26215535990E+03  0.26215535990E+03  0.00000000000E+00 0.  1.
         24    1    1    2    0    0  0.23135860576E+02  0.15101960399E+02 -0.12690016543E+02  0.85974355053E+02  0.80419002446E+02 0.  0.
          1    1    1    2  501    0 -0.52047660552E+02 -0.50322174060E+01  0.80440791610E+02  0.95942707569E+02  0.00000000000E+00 0. -1.
         -2    1    1    2    0  503  0.28911799975E+02 -0.10069742993E+02 -0.20392957974E+03  0.20621485251E+03  0.00000000000E+00 0.  1.
<mgrwt>
<rscale>  2 0.83969124E+02</rscale>
<asrwt>0</asrwt>
<pdfrwt beam="1">  1       21 0.19381009E-01 0.83969124E+02</pdfrwt>
<pdfrwt beam="2">  1       21 0.40331593E-01 0.83969124E+02</pdfrwt>
<totfact> 0.15046220E+05</totfact>
</mgrwt>
</event>
<event>
 5    1  0.2051810E+000  0.2089635E+03  0.7546771E-02  0.1142389E+00
         21   -1    0    0  501  502  0.00000000000E+00  0.00000000000E+00  0.94961735728E+02  0.94961735728E+02  0.00000000000E+00 0. -1.
         21   -1    0    0  502  503 -0.00000000000E+00 -0.00000000000E+00 -0.75477153281E+03  0.75477153281E+03  0.00000000000E+00 0. -1.
         24    1    1    2    0    0 -0.10748842492E+03  0.14637476148E+03 -0.41185311695E+03  0.45724122538E+03  0.80419002446E+02 0. -1.
          1    1    1    2  501    0 -0.71439599458E+01 -0.92287528400E+02  0.21220544136E+02  0.94964917497E+02  0.00000000000E+00 0. -1.
         -2    1    1    2    0  503  0.11463238486E+03 -0.54087233078E+02 -0.26917722427E+03  0.29752712566E+03  0.00000000000E+00 0.  1.
<mgrwt>
<rscale>  2 0.20896347E+03</rscale>
<asrwt>0</asrwt>
<pdfrwt beam="1">  1       21 0.14609498E-01 0.20896347E+03</pdfrwt>
<pdfrwt beam="2">  1       21 0.11611869E+00 0.20896347E+03</pdfrwt>
<totfact> 0.23331472E+04</totfact>
</mgrwt>
</event>
<event>
 5    1  0.2051810E+000  0.8616575E+02  0.7546771E-02  0.1312412E+00
         21   -1    0    0  501  502  0.00000000000E+00  0.00000000000E+00  0.16843494867E+04  0.16843494867E+04  0.00000000000E+00 0.  1.
         21   -1    0    0  502  503 -0.00000000000E+00 -0.00000000000E+00 -0.10267425853E+02  0.10267425853E+02  0.00000000000E+00 0. -1.
         24    1    1    2    0    0  0.30406758708E+02  0.14001471004E+02  0.40546532998E+03  0.41471672493E+03  0.80419002446E+02 0. -1.
          1    1    1    2  501    0  0.25659337577E+02  0.47686954712E+01  0.11148910087E+04  0.11151964416E+04  0.00000000000E+00 0. -1.
         -2    1    1    2    0  503 -0.56066096285E+02 -0.18770166475E+02  0.15372572221E+03  0.16470374607E+03  0.00000000000E+00 0.  1.
<mgrwt>
<rscale>  2 0.86165753E+02</rscale>
<asrwt>0</asrwt>
<pdfrwt beam="1">  1       21 0.25913047E+00 0.86165753E+02</pdfrwt>
<pdfrwt beam="2">  1       21 0.15796053E-02 0.86165753E+02</pdfrwt>
<totfact> 0.11683930E+05</totfact>
</mgrwt>
</event>
<event>
 5    1  0.2051810E+000  0.7566639E+02  0.7546771E-02  0.1341820E+00
         21   -1    0    0  503  502  0.00000000000E+00  0.00000000000E+00  0.39149322839E+04  0.39149322839E+04  0.00000000000E+00 0. -1.
         21   -1    0    0  501  503 -0.00000000000E+00 -0.00000000000E+00 -0.17530706051E+01  0.17530706051E+01  0.00000000000E+00 0.  1.
         24    1    1    2    0    0 -0.15555935487E+02 -0.43582349863E+02  0.20761492556E+04  0.20782214405E+04  0.80419002446E+02 0.  0.
          1    1    1    2  501    0 -0.51042776524E+01  0.36280084805E+02  0.53657195469E+03  0.53782130932E+03  0.00000000000E+00 0. -1.
         -2    1    1    2    0  502  0.20660213139E+02  0.73022650585E+01  0.13004580030E+04  0.13006426046E+04  0.00000000000E+00 0.  1.
<mgrwt>
<rscale>  2 0.75666392E+02</rscale>
<asrwt>0</asrwt>
<pdfrwt beam="1">  1       21 0.60229028E+00 0.75666392E+02</pdfrwt>
<pdfrwt beam="2">  1       21 0.26970630E-03 0.75666392E+02</pdfrwt>
<totfact> 0.11946607E+04</totfact>
</mgrwt>
</event>
<event>
 5    1  0.2051810E+000  0.8817798E+02  0.7546771E-02  0.1307325E+00
         21   -1    0    0  501  502  0.00000000000E+00  0.00000000000E+00  0.11670885122E+03  0.11670885122E+03  0.00000000000E+00 0. -1.
         21   -1    0    0  502  503 -0.00000000000E+00 -0.00000000000E+00 -0.11372743126E+03  0.11372743126E+03  0.00000000000E+00 0.  1.
         24    1    1    2    0    0  0.11101103792E+02  0.18986797349E+02 -0.61986593666E+01  0.83602465940E+02  0.80419002446E+02 0.  0.
          1    1    1    2  501    0 -0.30586786660E+02 -0.48665764744E+02  0.61130801424E+02  0.83909969962E+02  0.00000000000E+00 0. -1.
         -2    1    1    2    0  503  0.19485682868E+02  0.29678967395E+02 -0.51950722098E+02  0.62923846585E+02  0.00000000000E+00 0.  1.
<mgrwt>
<rscale>  2 0.88177984E+02</rscale>
<asrwt>0</asrwt>
<pdfrwt beam="1">  1       21 0.17955208E-01 0.88177984E+02</pdfrwt>
<pdfrwt beam="2">  1       21 0.17496528E-01 0.88177984E+02</pdfrwt>
<totfact> 0.83375896E+05</totfact>
</mgrwt>
</event>
<event>
 5    1  0.2051810E+000  0.9981288E+02  0.7546771E-02  0.1280690E+00
         21   -1    0    0  501  502  0.00000000000E+00  0.00000000000E+00  0.12843552221E+03  0.12843552221E+03  0.00000000000E+00 0. -1.
         21   -1    0    0  502  503 -0.00000000000E+00 -0.00000000000E+00 -0.41050877989E+03  0.41050877989E+03  0.00000000000E+00 0. -1.
         24    1    1    2    0    0  0.42125654096E+02  0.48369231415E+02 -0.32389092545E+03  0.33983334272E+03  0.80419002446E+02 0. -1.
          1    1    1    2  501    0 -0.32856619600E+02  0.12526027185E+02  0.10508428600E+03  0.11081139821E+03  0.00000000000E+00 0. -1.
         -2    1    1    2    0  503 -0.92690344966E+01 -0.60895258600E+02 -0.63266618230E+02  0.88299561169E+02  0.00000000000E+00 0.  1.
<mgrwt>
<rscale>  2 0.99812875E+02</rscale>
<asrwt>0</asrwt>
<pdfrwt beam="1">  1       21 0.19759311E-01 0.99812875E+02</pdfrwt>
<pdfrwt beam="2">  1       21 0.63155197E-01 0.99812875E+02</pdfrwt>
<totfact> 0.57483569E+04</totfact>
</mgrwt>
</event>
<event>
 5    1  0.2051810E+000  0.8558593E+02  0.7546771E-02  0.1313907E+00
         21   -1    0    0  501  502  0.00000000000E+00  0.00000000000E+00  0.19753292176E+02  0.19753292176E+02  0.00000000000E+00 0.  1.
         21   -1    0    0  502  503 -0.00000000000E+00 -0.00000000000E+00 -0.13002515054E+04  0.13002515054E+04  0.00000000000E+00 0.  1.
         24    1    1    2    0    0 -0.13611498287E+01  0.47949826802E+02 -0.10472045836E+03  0.14047999492E+03  0.80419002446E+02 0.  1.
          1    1    1    2  501    0 -0.25828419866E+02 -0.44121358183E+01 -0.13721995479E+03  0.13969928492E+03  0.00000000000E+00 0. -1.
         -2    1    1    2    0  503  0.27189569695E+02 -0.43537690984E+02 -0.10385578001E+04  0.10398255177E+04  0.00000000000E+00 0.  1.
<mgrwt>
<rscale>  2 0.85585927E+02</rscale>
<asrwt>0</asrwt>
<pdfrwt beam="1">  1       21 0.30389688E-02 0.85585927E+02</pdfrwt>
<pdfrwt beam="2">  1       21 0.20003865E+00 0.85585927E+02</pdfrwt>
<totfact> 0.89854354E+04</totfact>
</mgrwt>
</event>
<event>
 5    1  0.2051810E+000  0.8057853E+02  0.7546771E-02  0.1327418E+00
         21   -1    0    0  503  502  0.00000000000E+00  0.00000000000E+00  0.41770779281E+03  0.41770779281E+03  0.00000000000E+00 0.  1.
         21   -1    0    0  501  503 -0.00000000000E+00 -0.00000000000E+00 -0.36022920525E+02  0.36022920525E+02  0.00000000000E+00 0.  1.
         24    1    1    2    0    0 -0.36597912308E+02 -0.31286306588E+00  0.11274067987E+03  0.14323819994E+03  0.80419002446E+02 0.  1.
          1    1    1    2  501    0 -0.83146246234E+01 -0.21368678998E+02 -0.11497780749E+02  0.25650582584E+02  0.00000000000E+00 0. -1.
         -2    1    1    2    0  502  0.44912536932E+02  0.21681542064E+02  0.28044197316E+03  0.28484193081E+03  0.00000000000E+00 0.  1.
<mgrwt>
<rscale>  2 0.80578527E+02</rscale>
<asrwt>0</asrwt>
<pdfrwt beam="1">  1       21 0.64262734E-01 0.80578527E+02</pdfrwt>
<pdfrwt beam="2">  1       21 0.55419881E-02 0.80578527E+02</pdfrwt>
<totfact> 0.51087250E+05</totfact>
</mgrwt>
</event>
<event>
 5    1  0.2051810E+000  0.6830526E+02  0.7546771E-02  0.1365953E+00
         21   -1    0    0  501  502  0.00000000000E+00  0.00000000000E+00  0.90407660720E+02  0.90407660720E+02  0.00000000000E+00 0. -1.
         21   -1    0    0  502  503 -0.00000000000E+00 -0.00000000000E+00 -0.95393359835E+02  0.95393359835E+02  0.00000000000E+00 0. -1.
         24    1    1    2    0    0  0.67899121260E+01 -0.42914565525E+01 -0.62064537743E+02  0.10190064919E+03  0.80419002446E+02 0. -1.
          1    1    1    2  501    0 -0.20176704262E+02  0.24383002186E+02  0.49208067889E+02  0.58506958012E+02  0.00000000000E+00 0. -1.
         -2    1    1    2    0  503  0.13386792136E+02 -0.20091545634E+02  0.78707707383E+01  0.25393413352E+02  0.00000000000E+00 0.  1.
<mgrwt>
<rscale>  2 0.68305264E+02</rscale>
<asrwt>0</asrwt>
<pdfrwt beam="1">  1       21 0.13908871E-01 0.68305264E+02</pdfrwt>
<pdfrwt beam="2">  1       21 0.14675901E-01 0.68305264E+02</pdfrwt>
<totfact> 0.17863867E+06</totfact>
</mgrwt>
</event>
<event>
 5    1  0.2051810E+000  0.6575269E+02  0.7546771E-02  0.1375162E+00
         21   -1    0    0  503  502  0.00000000000E+00  0.00000000000E+00  0.30742745036E+03  0.30742745036E+03  0.00000000000E+00 0. -1.
         21   -1    0    0  501  503 -0.00000000000E+00 -0.00000000000E+00 -0.74009545992E+02  0.74009545992E+02  0.00000000000E+00 0. -1.
         24    1    1    2    0    0 -0.40245047510E+01 -0.35242667470E+02  0.21793022696E+03  0.23498732311E+03  0.80419002446E+02 0. -1.
          1    1    1    2  501    0 -0.10339083128E+02  0.20872992685E+02 -0.62058507007E+02  0.66286022323E+02  0.00000000000E+00 0. -1.
         -2    1    1    2    0  502  0.14363587879E+02  0.14369674785E+02  0.77546184421E+02  0.80163650917E+02  0.00000000000E+00 0.  1.
<mgrwt>
<rscale>  2 0.65752692E+02</rscale>
<asrwt>0</asrwt>
<pdfrwt beam="1">  1       21 0.47296530E-01 0.65752692E+02</pdfrwt>
<pdfrwt beam="2">  1       21 0.11386084E-01 0.65752692E+02</pdfrwt>
<totfact> 0.28309456E+05</totfact>
</mgrwt>
</event>
<event>
 5    1  0.2051810E+000  0.6537702E+02  0.7546771E-02  0.1376559E+00
         21   -1    0    0  503  502  0.00000000000E+00  0.00000000000E+00  0.20685808862E+03  0.20685808862E+03  0.00000000000E+00 0.  1.
         21   -1    0    0  501  503 -0.00000000000E+00 -0.00000000000E+00 -0.21653889344E+02  0.21653889344E+02  0.00000000000E+00 0.  1.
         24    1    1    2    0    0  0.19601268759E+02 -0.20937442522E+02  0.10773339975E+03  0.13746376836E+03  0.80419002446E+02 0.  1.
          1    1    1    2  501    0  0.55780727296E+01  0.19357144271E+02  0.20500840923E+02  0.28741927706E+02  0.00000000000E+00 0. -1.
         -2    1    1    2    0  502 -0.25179341489E+02  0.15802982514E+01  0.56969958606E+02  0.62306281898E+02  0.00000000000E+00 0.  1.
<mgrwt>
<rscale>  2 0.65377023E+02</rscale>
<asrwt>0</asrwt>
<pdfrwt beam="1">  1       21 0.31824320E-01 0.65377023E+02</pdfrwt>
<pdfrwt beam="2">  1       21 0.33313677E-02 0.65377023E+02</pdfrwt>
<totfact> 0.47777041E+06</totfact>
</mgrwt>
</event>
<event>
 5    1  0.2530436E+000  0.1036372E+03  0.7546771E-02  0.1272828E+00
         21   -1    0    0  503  502  0.00000000000E+00  0.00000000000E+00  0.11363850582E+03  0.11363850582E+03  0.00000000000E+00 0.  1.
         21   -1    0    0  501  503 -0.00000000000E+00 -0.00000000000E+00 -0.35251808182E+03  0.35251808182E+03  0.00000000000E+00 0. -1.
         24    1    1    2    0    0 -0.31928609199E+02 -0.33455219744E+02 -0.99299704020E+01  0.93297953247E+02  0.80419002446E+02 0.  1.
          1    1    1    2  501    0  0.26399643268E+02  0.71419060386E+02 -0.29050987392E+03  0.30032251031E+03  0.00000000000E+00 0. -1.
         -2    1    1    2    0  502  0.55289659306E+01 -0.37963840642E+02  0.61560268326E+02  0.72536124083E+02  0.00000000000E+00 0.  1.
<mgrwt>
<rscale>  2 0.10363724E+03</rscale>
<asrwt>0</asrwt>
<pdfrwt beam="1">  1       21 0.17482847E-01 0.10363724E+03</pdfrwt>
<pdfrwt beam="2">  1       21 0.54233551E-01 0.10363724E+03</pdfrwt>
<totfact> 0.98742536E+04</totfact>
</mgrwt>
</event>
<event>
 5    1  0.2051810E+000  0.7449070E+02  0.7546771E-02  0.1345455E+00
         21   -1    0    0  503  502  0.00000000000E+00  0.00000000000E+00  0.29805748216E+03  0.29805748216E+03  0.00000000000E+00 0. -1.
         21   -1    0    0  501  503 -0.00000000000E+00 -0.00000000000E+00 -0.36330713780E+02  0.36330713780E+02  0.00000000000E+00 0. -1.
         24    1    1    2    0    0  0.17951649808E+02  0.60554585613E+01  0.19584263357E+03  0.21255701209E+03  0.80419002446E+02 0. -1.
          1    1    1    2  501    0 -0.83833216787E+01 -0.34940594237E+02 -0.12264393705E+02  0.37967625169E+02  0.00000000000E+00 0. -1.
         -2    1    1    2    0  502 -0.95683281293E+01  0.28885135676E+02  0.78148528516E+02  0.83863558686E+02  0.00000000000E+00 0.  1.
<mgrwt>
<rscale>  2 0.74490698E+02</rscale>
<asrwt>0</asrwt>
<pdfrwt beam="1">  1       21 0.45854996E-01 0.74490698E+02</pdfrwt>
<pdfrwt beam="2">  1       21 0.55893408E-02 0.74490698E+02</pdfrwt>
<totfact> 0.10083037E+06</totfact>
</mgrwt>
</event>
<event>
 5    1  0.2051810E+000  0.7470168E+02  0.7546771E-02  0.1344797E+00
         21   -1    0    0  503  502  0.00000000000E+00  0.00000000000E+00  0.56241801768E+02  0.56241801768E+02  0.00000000000E+00 0. -1.
         21   -1    0    0  501  503 -0.00000000000E+00 -0.00000000000E+00 -0.12399754527E+03  0.12399754527E+03  0.00000000000E+00 0.  1.
         24    1    1    2    0    0  0.20848287726E+02 -0.44402876384E+02 -0.15863158270E+02  0.95525505897E+02  0.80419002446E+02 0.  0.
          1    1    1    2  501    0 -0.36540805079E+00  0.30377322549E+02 -0.51610119363E+02  0.59887558549E+02  0.00000000000E+00 0. -1.
         -2    1    1    2    0  502 -0.20482879675E+02  0.14025553835E+02 -0.28246586475E+00  0.24826282588E+02  0.00000000000E+00 0.  1.
<mgrwt>
<rscale>  2 0.74701680E+02</rscale>
<asrwt>0</asrwt>
<pdfrwt beam="1">  1       21 0.86525850E-02 0.74701680E+02</pdfrwt>
<pdfrwt beam="2">  1       21 0.19076545E-01 0.74701680E+02</pdfrwt>
<totfact> 0.25549541E+06</totfact>
</mgrwt>
</event>
<event>
 5    1  0.2051810E+000  0.8643319E+02  0.7546771E-02  0.1311727E+00
         21   -1    0    0  501  502  0.00000000000E+00  0.00000000000E+00  0.14358718869E+02  0.14358718869E+02  0.00000000000E+00 0. -1.
         21   -1    0    0  502  503 -0.00000000000E+00 -0.00000000000E+00 -0.90974919839E+03  0.90974919839E+03  0.00000000000E+00 0.  1.
         24    1    1    2    0    0  0.25401124943E+02 -0.21551090446E+01 -0.16349429116E+03  0.18397679430E+03  0.80419002446E+02 0. -1.
          1    1    1    2  501    0 -0.56907291774E+02  0.29974927252E+01 -0.21983740386E+03  0.22710330018E+03  0.00000000000E+00 0. -1.
         -2    1    1    2    0  503  0.31506166831E+02 -0.84238368057E+00 -0.51205878450E+03  0.51302782278E+03  0.00000000000E+00 0.  1.
<mgrwt>
<rscale>  2 0.86433190E+02</rscale>
<asrwt>0</asrwt>
<pdfrwt beam="1">  1       21 0.22090335E-02 0.86433190E+02</pdfrwt>
<pdfrwt beam="2">  1       21 0.13996143E+00 0.86433190E+02</pdfrwt>
<totfact> 0.38653346E+05</totfact>
</mgrwt>
</event>
<event>
 5    1  0.2051810E+000  0.1042174E+03  0.7546771E-02  0.1271669E+00
         21   -1    0    0  503  502  0.00000000000E+00  0.00000000000E+00  0.60222788414E+02  0.60222788414E+02  0.00000000000E+00 0. -1.
         21   -1    0    0  501  503 -0.00000000000E+00 -0.00000000000E+00 -0.21336877367E+03  0.21336877367E+03  0.00000000000E+00 0. -1.
         24    1    1    2    0    0  0.47689851525E+02 -0.35740034245E+02 -0.79691296263E+02  0.12794370106E+03  0.80419002446E+02 0. -1.
          1    1    1    2  501    0 -0.46460080549E+02  0.64534966091E+02 -0.83328558742E+02  0.11518224531E+03  0.00000000000E+00 0. -1.
         -2    1    1    2    0  502 -0.12297709764E+01 -0.28794931846E+02  0.98738697534E+01  0.30465615709E+02  0.00000000000E+00 0.  1.
<mgrwt>
<rscale>  2 0.10421738E+03</rscale>
<asrwt>0</asrwt>
<pdfrwt beam="1">  1       21 0.92650445E-02 0.10421738E+03</pdfrwt>
<pdfrwt beam="2">  1       21 0.32825965E-01 0.10421738E+03</pdfrwt>
<totfact> 0.83078937E+05</totfact>
</mgrwt>
</event>
<event>
 5    1  0.2051810E+000  0.8654312E+02  0.7546771E-02  0.1311446E+00
         21   -1    0    0  501  502  0.00000000000E+00  0.00000000000E+00  0.18203953352E+03  0.18203953352E+03  0.00000000000E+00 0. -1.
         21   -1    0    0  502  503 -0.00000000000E+00 -0.00000000000E+00 -0.47860874042E+02  0.47860874042E+02  0.00000000000E+00 0.  1.
         24    1    1    2    0    0  0.20575131552E+02  0.10818448854E+02  0.86268732810E+02  0.12020767483E+03  0.80419002446E+02 0.  0.
          1    1    1    2  501    0 -0.30926931467E+02  0.32484280076E+02  0.47273830553E+02  0.65165317441E+02  0.00000000000E+00 0. -1.
         -2    1    1    2    0  503  0.10351799915E+02 -0.43302728929E+02  0.63609611834E+00  0.44527415291E+02  0.00000000000E+00 0.  1.
<mgrwt>
<rscale>  2 0.86543122E+02</rscale>
<asrwt>0</asrwt>
<pdfrwt beam="1">  1       21 0.28006082E-01 0.86543122E+02</pdfrwt>
<pdfrwt beam="2">  1       21 0.73632115E-02 0.86543122E+02</pdfrwt>
<totfact> 0.16627504E+06</totfact>
</mgrwt>
</event>
<event>
 5    1  0.2051810E+000  0.9071350E+02  0.7546771E-02  0.1301133E+00
         21   -1    0    0  501  502  0.00000000000E+00  0.00000000000E+00  0.22153033565E+03  0.22153033565E+03  0.00000000000E+00 0. -1.
         21   -1    0    0  502  503 -0.00000000000E+00 -0.00000000000E+00 -0.15563968363E+03  0.15563968363E+03  0.00000000000E+00 0.  1.
         24    1    1    2    0    0 -0.12097445090E+02  0.33891040442E+02  0.11803213695E+02  0.88890284103E+02  0.80419002446E+02 0. -1.
          1    1    1    2  501    0  0.27930952942E+02 -0.58060707353E+02  0.16317284572E+03  0.17543249828E+03  0.00000000000E+00 0. -1.
         -2    1    1    2    0  503 -0.15833507851E+02  0.24169666911E+02 -0.10908540740E+03  0.11284723690E+03  0.00000000000E+00 0.  1.
<mgrwt>
<rscale>  2 0.90713503E+02</rscale>
<asrwt>0</asrwt>
<pdfrwt beam="1">  1       21 0.34081590E-01 0.90713503E+02</pdfrwt>
<pdfrwt beam="2">  1       21 0.23944567E-01 0.90713503E+02</pdfrwt>
<totfact> 0.14132585E+05</totfact>
</mgrwt>
</event>
<event>
 5    1  0.2051810E+000  0.1365581E+03  0.7546771E-02  0.1218037E+00
         21   -1    0    0  503  502  0.00000000000E+00  0.00000000000E+00  0.85818589574E+03  0.85818589574E+03  0.00000000000E+00 0.  1.
         21   -1    0    0  501  503 -0.00000000000E+00 -0.00000000000E+00 -0.26751494418E+02  0.26751494418E+02  0.00000000000E+00 0.  1.
         24    1    1    2    0    0  0.44186490896E+02 -0.11344820744E+03  0.31951151967E+03  0.35125171730E+03  0.80419002446E+02 0.  1.
          1    1    1    2  501    0  0.59925458017E+01  0.23020168441E+02  0.20205324202E+02  0.31210477188E+02  0.00000000000E+00 0. -1.
         -2    1    1    2    0  502 -0.50179036698E+02  0.90428038998E+02  0.49171755745E+03  0.50247519567E+03  0.00000000000E+00 0.  1.
<mgrwt>
<rscale>  2 0.13655814E+03</rscale>
<asrwt>0</asrwt>
<pdfrwt beam="1">  1       21 0.13202858E+00 0.13655814E+03</pdfrwt>
<pdfrwt beam="2">  1       21 0.41156152E-02 0.13655814E+03</pdfrwt>
<totfact> 0.15878443E+05</totfact>
</mgrwt>
</event>
<event>
 5    1  0.2051810E+000  0.8751626E+02  0.7546771E-02  0.1308980E+00
         21   -1    0    0  501  502  0.00000000000E+00  0.00000000000E+00  0.11040477208E+03  0.11040477208E+03  0.00000000000E+00 0.  1.
         21   -1    0    0  502  503 -0.00000000000E+00 -0.00000000000E+00 -0.70197696350E+02  0.70197696350E+02  0.00000000000E+00 0.  1.
         24    1    1    2    0    0 -0.52964938035E+02  0.37833230174E+02  0.25360207920E+02  0.10652227028E+03  0.80419002446E+02 0.  1.
          1    1    1    2  501    0  0.35776579899E+02 -0.72694517599E+01  0.13707682011E+02  0.38996270903E+02  0.00000000000E+00 0. -1.
         -2    1    1    2    0  503  0.17188358136E+02 -0.30563778414E+02  0.11391857959E+01  0.35083927241E+02  0.00000000000E+00 0.  1.
<mgrwt>
<rscale>  2 0.87516255E+02</rscale>
<asrwt>0</asrwt>
<pdfrwt beam="1">  1       21 0.16985350E-01 0.87516255E+02</pdfrwt>
<pdfrwt beam="2">  1       21 0.10799646E-01 0.87516255E+02</pdfrwt>
<totfact> 0.21669816E+06</totfact>
</mgrwt>
</event>
<event>
 5    1  0.2051810E+000  0.6608362E+02  0.7546771E-02  0.1373941E+00
         21   -1    0    0  501  502  0.00000000000E+00  0.00000000000E+00  0.15526440163E+03  0.15526440163E+03  0.00000000000E+00 0.  1.
         21   -1    0    0  502  503 -0.00000000000E+00 -0.00000000000E+00 -0.45966640220E+02  0.45966640220E+02  0.00000000000E+00 0. -1.
         24    1    1    2    0    0  0.11506419931E+02 -0.59238218376E+01  0.22513320986E+02  0.84507721192E+02  0.80419002446E+02 0.  0.
          1    1    1    2  501    0 -0.29811315531E+02 -0.36879095703E+01  0.90819537314E+02  0.95658264508E+02  0.00000000000E+00 0. -1.
         -2    1    1    2    0  503  0.18304895600E+02  0.96117314078E+01 -0.40350968939E+01  0.21065056148E+02  0.00000000000E+00 0.  1.
<mgrwt>
<rscale>  2 0.66083619E+02</rscale>
<asrwt>0</asrwt>
<pdfrwt beam="1">  1       21 0.23886831E-01 0.66083619E+02</pdfrwt>
<pdfrwt beam="2">  1       21 0.70717909E-02 0.66083619E+02</pdfrwt>
<totfact> 0.23670898E+06</totfact>
</mgrwt>
</event>
<event>
 5    1  0.2051810E+000  0.7195809E+02  0.7546771E-02  0.1353558E+00
         21   -1    0    0  503  502  0.00000000000E+00  0.00000000000E+00  0.19383014080E+03  0.19383014080E+03  0.00000000000E+00 0. -1.
         21   -1    0    0  501  503 -0.00000000000E+00 -0.00000000000E+00 -0.29074242828E+02  0.29074242828E+02  0.00000000000E+00 0.  1.
         24    1    1    2    0    0 -0.13037714736E+02  0.10326578551E+01  0.69580735915E+02  0.10714356328E+03  0.80419002446E+02 0.  0.
          1    1    1    2  501    0 -0.24696929578E+02 -0.28397933538E+00  0.20531669642E+02  0.32118039061E+02  0.00000000000E+00 0. -1.
         -2    1    1    2    0  502  0.37734644314E+02 -0.74867851977E+00  0.74643492411E+02  0.83642781281E+02  0.00000000000E+00 0.  1.
<mgrwt>
<rscale>  2 0.71958089E+02</rscale>
<asrwt>0</asrwt>
<pdfrwt beam="1">  1       21 0.29820021E-01 0.71958089E+02</pdfrwt>
<pdfrwt beam="2">  1       21 0.44729606E-02 0.71958089E+02</pdfrwt>
<totfact> 0.33648476E+06</totfact>
</mgrwt>
</event>
<event>
 5    1  0.2051810E+000  0.6969335E+02  0.7546771E-02  0.1361139E+00
         21   -1    0    0  501  502  0.00000000000E+00  0.00000000000E+00  0.12021609262E+03  0.12021609262E+03  0.00000000000E+00 0.  1.
         21   -1    0    0  502  503 -0.00000000000E+00 -0.00000000000E+00 -0.63236177250E+02  0.63236177250E+02  0.00000000000E+00 0.  1.
         24    1    1    2    0    0 -0.85823557361E+01  0.82861946544E+01  0.83914587149E+02  0.11683831453E+03  0.80419002446E+02 0.  1.
          1    1    1    2  501    0 -0.88641801356E+01  0.21674721494E+02 -0.12214735752E+01  0.23449077572E+02  0.00000000000E+00 0. -1.
         -2    1    1    2    0  503  0.17446535872E+02 -0.29960916148E+02 -0.25713198206E+02  0.43164877763E+02  0.00000000000E+00 0.  1.
<mgrwt>
<rscale>  2 0.69693352E+02</rscale>
<asrwt>0</asrwt>
<pdfrwt beam="1">  1       21 0.18494783E-01 0.69693352E+02</pdfrwt>
<pdfrwt beam="2">  1       21 0.97286427E-02 0.69693352E+02</pdfrwt>
<totfact> 0.22023072E+06</totfact>
</mgrwt>
</event>
<event>
 5    1  0.2051810E+000  0.1177498E+03  0.7546771E-02  0.1246856E+00
         21   -1    0    0  501  502  0.00000000000E+00  0.00000000000E+00  0.13795888591E+04  0.13795888591E+04  0.00000000000E+00 0. -1.
         21   -1    0    0  502  503 -0.00000000000E+00 -0.00000000000E+00 -0.13170839097E+02  0.13170839097E+02  0.00000000000E+00 0. -1.
         24    1    1    2    0    0 -0.31126364773E+02  0.95525919943E+02  0.46673958870E+03  0.48415608184E+03  0.80419002446E+02 0. -1.
          1    1    1    2  501    0  0.30233987160E+02 -0.34892552160E+02  0.65112884647E+03  0.65276363171E+03  0.00000000000E+00 0. -1.
         -2    1    1    2    0  503  0.89237761313E+00 -0.60633367782E+02  0.24854958485E+03  0.25583998467E+03  0.00000000000E+00 0.  1.
<mgrwt>
<rscale>  2 0.11774980E+03</rscale>
<asrwt>0</asrwt>
<pdfrwt beam="1">  1       21 0.21224433E+00 0.11774980E+03</pdfrwt>
<pdfrwt beam="2">  1       21 0.20262840E-02 0.11774980E+03</pdfrwt>
<totfact> 0.14182048E+05</totfact>
</mgrwt>
</event>
<event>
 5    1  0.2051810E+000  0.1000009E+03  0.7546771E-02  0.1280294E+00
         21   -1    0    0  501  502  0.00000000000E+00  0.00000000000E+00  0.53141195899E+02  0.53141195899E+02  0.00000000000E+00 0.  1.
         21   -1    0    0  502  503 -0.00000000000E+00 -0.00000000000E+00 -0.63685291150E+03  0.63685291150E+03  0.00000000000E+00 0. -1.
         24    1    1    2    0    0 -0.54380087825E+02  0.21001678684E+01 -0.25134254513E+02  0.10030229988E+03  0.80419002446E+02 0.  1.
          1    1    1    2  501    0  0.20616826087E+02  0.42337486982E+02 -0.25212988773E+02  0.53415457732E+02  0.00000000000E+00 0. -1.
         -2    1    1    2    0  503  0.33763261738E+02 -0.44437654851E+02 -0.53336447232E+03  0.53627634979E+03  0.00000000000E+00 0.  1.
<mgrwt>
<rscale>  2 0.10000090E+03</rscale>
<asrwt>0</asrwt>
<pdfrwt beam="1">  1       21 0.81755684E-02 0.10000090E+03</pdfrwt>
<pdfrwt beam="2">  1       21 0.97977374E-01 0.10000090E+03</pdfrwt>
<totfact> 0.10371253E+05</totfact>
</mgrwt>
</event>
<event>
 5    1  0.2051810E+000  0.7897141E+02  0.7546771E-02  0.1331996E+00
         21   -1    0    0  501  502  0.00000000000E+00  0.00000000000E+00  0.11900105005E+03  0.11900105005E+03  0.00000000000E+00 0. -1.
         21   -1    0    0  502  503 -0.00000000000E+00 -0.00000000000E+00 -0.62849161056E+02  0.62849161056E+02  0.00000000000E+00 0.  1.
         24    1    1    2    0    0 -0.88902557949E+01  0.26792206222E+02  0.63058261253E-01  0.85229565839E+02  0.80419002446E+02 0. -1.
          1    1    1    2  501    0  0.38178499763E+02 -0.17393577373E+02  0.49990854668E+02  0.65262699366E+02  0.00000000000E+00 0. -1.
         -2    1    1    2    0  503 -0.29288243968E+02 -0.93986288494E+01  0.60979760616E+01  0.31357945900E+02  0.00000000000E+00 0.  1.
<mgrwt>
<rscale>  2 0.78971406E+02</rscale>
<asrwt>0</asrwt>
<pdfrwt beam="1">  1       21 0.18307854E-01 0.78971406E+02</pdfrwt>
<pdfrwt beam="2">  1       21 0.96691017E-02 0.78971406E+02</pdfrwt>
<totfact> 0.22813388E+06</totfact>
</mgrwt>
</event>
<event>
 5    1  0.2051810E+000  0.7165825E+02  0.7546771E-02  0.1354543E+00
         21   -1    0    0  501  502  0.00000000000E+00  0.00000000000E+00  0.62404292822E+02  0.62404292822E+02  0.00000000000E+00 0. -1.
         21   -1    0    0  502  503 -0.00000000000E+00 -0.00000000000E+00 -0.11858870636E+03  0.11858870636E+03  0.00000000000E+00 0. -1.
         24    1    1    2    0    0  0.15675897498E+02 -0.10550307012E+02 -0.79399738449E+02  0.11458000332E+03  0.80419002446E+02 0. -1.
          1    1    1    2  501    0 -0.34098287335E+02 -0.75028665658E+01  0.20473919361E+02  0.40474282945E+02  0.00000000000E+00 0. -1.
         -2    1    1    2    0  503  0.18422389838E+02  0.18053173577E+02  0.27414055488E+01  0.25938712920E+02  0.00000000000E+00 0.  1.
<mgrwt>
<rscale>  2 0.71658247E+02</rscale>
<asrwt>0</asrwt>
<pdfrwt beam="1">  1       21 0.96006606E-02 0.71658247E+02</pdfrwt>
<pdfrwt beam="2">  1       21 0.18244416E-01 0.71658247E+02</pdfrwt>
<totfact> 0.23124638E+06</totfact>
</mgrwt>
</event>
<event>
 5    1  0.2051810E+000  0.8856966E+02  0.7546771E-02  0.1306353E+00
         21   -1    0    0  501  502  0.00000000000E+00  0.00000000000E+00  0.94964152072E+03  0.94964152072E+03  0.00000000000E+00 0. -1.
         21   -1    0    0  502  503 -0.00000000000E+00 -0.00000000000E+00 -0.15113130717E+02  0.15113130717E+02  0.00000000000E+00 0.  1.
         24    1    1    2    0    0 -0.21572292544E+02 -0.22896563727E+02  0.59295933802E+03  0.59921415949E+03  0.80419002446E+02 0.  1.
          1    1    1    2  501    0 -0.77947024690E+01  0.50131802489E+02  0.31111679861E+03  0.31522629552E+03  0.00000000000E+00 0. -1.
         -2    1    1    2    0  503  0.29366995013E+02 -0.27235238762E+02  0.30452253364E+02  0.50314196421E+02  0.00000000000E+00 0.  1.
<mgrwt>
<rscale>  2 0.88569656E+02</rscale>
<asrwt>0</asrwt>
<pdfrwt beam="1">  1       21 0.14609865E+00 0.88569656E+02</pdfrwt>
<pdfrwt beam="2">  1       21 0.23250978E-02 0.88569656E+02</pdfrwt>
<totfact> 0.31934735E+05</totfact>
</mgrwt>
</event>
<event>
 5    1  0.2051810E+000  0.6983249E+02  0.7546771E-02  0.1360664E+00
         21   -1    0    0  503  502  0.00000000000E+00  0.00000000000E+00  0.18758385313E+04  0.18758385313E+04  0.00000000000E+00 0.  1.
         21   -1    0    0  501  503 -0.00000000000E+00 -0.00000000000E+00 -0.27166398724E+02  0.27166398724E+02  0.00000000000E+00 0.  1.
         24    1    1    2    0    0 -0.24216127458E+02 -0.19337581078E+02  0.68419623549E+02  0.11004010047E+03  0.80419002446E+02 0.  1.
          1    1    1    2  501    0  0.21805668797E+02 -0.10039468932E+02  0.16881029581E+02  0.29347014973E+02  0.00000000000E+00 0. -1.
         -2    1    1    2    0  502  0.24104586615E+01  0.29377050011E+02  0.17633714795E+04  0.17636178146E+04  0.00000000000E+00 0.  1.
<mgrwt>
<rscale>  2 0.69832486E+02</rscale>
<asrwt>0</asrwt>
<pdfrwt beam="1">  1       21 0.28859044E+00 0.69832486E+02</pdfrwt>
<pdfrwt beam="2">  1       21 0.41794474E-02 0.69832486E+02</pdfrwt>
<totfact> 0.17394217E+04</totfact>
</mgrwt>
</event>
<event>
 5    1  0.2051810E+000  0.8588384E+02  0.7546771E-02  0.1313137E+00
         21   -1    0    0  503  502  0.00000000000E+00  0.00000000000E+00  0.21035551929E+04  0.21035551929E+04  0.00000000000E+00 0.  1.
         21   -1    0    0  501  503 -0.00000000000E+00 -0.00000000000E+00 -0.73126316291E+01  0.73126316291E+01  0.00000000000E+00 0. -1.
         24    1    1    2    0    0  0.23470276739E+02  0.41429970246E+02  0.53186749461E+03  0.54001624429E+03  0.80419002446E+02 0. -1.
          1    1    1    2  501    0 -0.44903605045E+02 -0.25864004560E+02  0.21285610442E+03  0.21907305098E+03  0.00000000000E+00 0. -1.
         -2    1    1    2    0  502  0.21433328306E+02 -0.15565965686E+02  0.13515189622E+04  0.13517785293E+04  0.00000000000E+00 0.  1.
<mgrwt>
<rscale>  2 0.85883839E+02</rscale>
<asrwt>0</asrwt>
<pdfrwt beam="1">  1       21 0.32362339E+00 0.85883839E+02</pdfrwt>
<pdfrwt beam="2">  1       21 0.11250219E-02 0.85883839E+02</pdfrwt>
<totfact> 0.88428070E+04</totfact>
</mgrwt>
</event>
<event>
 5    1  0.2051810E+000  0.6681742E+02  0.7546771E-02  0.1371263E+00
         21   -1    0    0  501  502  0.00000000000E+00  0.00000000000E+00  0.19405447058E+02  0.19405447058E+02  0.00000000000E+00 0.  1.
         21   -1    0    0  502  503 -0.00000000000E+00 -0.00000000000E+00 -0.37603872057E+03  0.37603872057E+03  0.00000000000E+00 0. -1.
         24    1    1    2    0    0  0.61891714210E+01  0.76980917603E+01 -0.81368465430E+02  0.11482860959E+03  0.80419002446E+02 0.  1.
          1    1    1    2  501    0 -0.25709325220E+02  0.86753055077E+01 -0.10471875438E+03  0.10817692845E+03  0.00000000000E+00 0. -1.
         -2    1    1    2    0  503  0.19520153799E+02 -0.16373397268E+02 -0.17054605370E+03  0.17243862959E+03  0.00000000000E+00 0.  1.
<mgrwt>
<rscale>  2 0.66817416E+02</rscale>
<asrwt>0</asrwt>
<pdfrwt beam="1">  1       21 0.29854534E-02 0.66817416E+02</pdfrwt>
<pdfrwt beam="2">  1       21 0.57852110E-01 0.66817416E+02</pdfrwt>
<totfact> 0.17478231E+06</totfact>
</mgrwt>
</event>
<event>
 5    1  0.2051810E+000  0.7886495E+02  0.7546771E-02  0.1332304E+00
         21   -1    0    0  503  502  0.00000000000E+00  0.00000000000E+00  0.78090425541E+02  0.78090425541E+02  0.00000000000E+00 0. -1.
         21   -1    0    0  501  503 -0.00000000000E+00 -0.00000000000E+00 -0.11752254385E+03  0.11752254385E+03  0.00000000000E+00 0.  1.
         24    1    1    2    0    0 -0.29681770777E+02 -0.42885857692E+02 -0.34875902192E+02  0.10199876869E+03  0.80419002446E+02 0.  1.
          1    1    1    2  501    0 -0.48842622428E+01  0.19603975982E+02 -0.36085152107E+02  0.41355895524E+02  0.00000000000E+00 0. -1.
         -2    1    1    2    0  502  0.34566033019E+02  0.23281881710E+02  0.31528935993E+02  0.52258305173E+02  0.00000000000E+00 0.  1.
<mgrwt>
<rscale>  2 0.78864954E+02</rscale>
<asrwt>0</asrwt>
<pdfrwt beam="1">  1       21 0.12013912E-01 0.78864954E+02</pdfrwt>
<pdfrwt beam="2">  1       21 0.18080391E-01 0.78864954E+02</pdfrwt>
<totfact> 0.16009310E+06</totfact>
</mgrwt>
</event>
<event>
 5    1  0.2051810E+000  0.9052175E+02  0.7546771E-02  0.1301593E+00
         21   -1    0    0  503  502  0.00000000000E+00  0.00000000000E+00  0.17181368607E+03  0.17181368607E+03  0.00000000000E+00 0.  1.
         21   -1    0    0  501  503 -0.00000000000E+00 -0.00000000000E+00 -0.61650464025E+02  0.61650464025E+02  0.00000000000E+00 0. -1.
         24    1    1    2    0    0  0.16432969653E+01 -0.13552059650E+02  0.89912089516E+01  0.82063490899E+02  0.80419002446E+02 0. -1.
          1    1    1    2  501    0  0.44222469788E+02  0.26829996090E+02  0.16676718621E+02  0.54346926945E+02  0.00000000000E+00 0. -1.
         -2    1    1    2    0  502 -0.45865766754E+02 -0.13277936440E+02  0.84495294473E+02  0.97053732252E+02  0.00000000000E+00 0.  1.
<mgrwt>
<rscale>  2 0.90521750E+02</rscale>
<asrwt>0</asrwt>
<pdfrwt beam="1">  1       21 0.26432875E-01 0.90521750E+02</pdfrwt>
<pdfrwt beam="2">  1       21 0.94846868E-02 0.90521750E+02</pdfrwt>
<totfact> 0.12039323E+06</totfact>
</mgrwt>
</event>
<event>
 5    1  0.2051810E+000  0.8241616E+02  0.7546771E-02  0.1322331E+00
         21   -1    0    0  501  502  0.00000000000E+00  0.00000000000E+00  0.56851285504E+02  0.56851285504E+02  0.00000000000E+00 0. -1.
         21   -1    0    0  502  503 -0.00000000000E+00 -0.00000000000E+00 -0.54387132053E+03  0.54387132053E+03  0.00000000000E+00 0.  1.
         24    1    1    2    0    0 -0.54493249097E+02 -0.28018709115E+02 -0.50704421380E+02  0.11310489185E+03  0.80419002446E+02 0.  1.
          1    1    1    2  501    0  0.13849566408E+02  0.16383960177E+02  0.20010717011E+02  0.29337236340E+02  0.00000000000E+00 0. -1.
         -2    1    1    2    0  503  0.40643682689E+02  0.11634748938E+02 -0.45632633066E+03  0.45828047785E+03  0.00000000000E+00 0.  1.
<mgrwt>
<rscale>  2 0.82416157E+02</rscale>
<asrwt>0</asrwt>
<pdfrwt beam="1">  1       21 0.87463516E-02 0.82416157E+02</pdfrwt>
<pdfrwt beam="2">  1       21 0.83672511E-01 0.82416157E+02</pdfrwt>
<totfact> 0.13327006E+05</totfact>
</mgrwt>
</event>
<event>
 5    1  0.2051810E+000  0.7224248E+02  0.7546771E-02  0.1352629E+00
         21   -1    0    0  503  502  0.00000000000E+00  0.00000000000E+00  0.86302933473E+02  0.86302933473E+02  0.00000000000E+00 0.  1.
         21   -1    0    0  501  503 -0.00000000000E+00 -0.00000000000E+00 -0.11175439956E+03  0.11175439956E+03  0.00000000000E+00 0.  1.
         24    1    1    2    0    0 -0.49272698044E+02  0.63938735040E+01  0.48938550206E+02  0.10644659713E+03  0.80419002446E+02 0.  1.
          1    1    1    2  501    0  0.21680888111E+02 -0.54103783755E+01 -0.50020219019E+02  0.54784627535E+02  0.00000000000E+00 0. -1.
         -2    1    1    2    0  502  0.27591809933E+02 -0.98349512855E+00 -0.24369797273E+02  0.36826108363E+02  0.00000000000E+00 0.  1.
<mgrwt>
<rscale>  2 0.72242483E+02</rscale>
<asrwt>0</asrwt>
<pdfrwt beam="1">  1       21 0.13277374E-01 0.72242483E+02</pdfrwt>
<pdfrwt beam="2">  1       21 0.17192985E-01 0.72242483E+02</pdfrwt>
<totfact> 0.14660293E+06</totfact>
</mgrwt>
</event>
<event>
 5    1  0.2051810E+000  0.2377690E+03  0.7546771E-02  0.1121288E+00
         21   -1    0    0  501  502  0.00000000000E+00  0.00000000000E+00  0.14227311182E+03  0.14227311182E+03  0.00000000000E+00 0.  1.
         21   -1    0    0  502  503 -0.00000000000E+00 -0.00000000000E+00 -0.60609759561E+03  0.60609759561E+03  0.00000000000E+00 0.  1.
         24    1    1    2    0    0  0.26147270007E+02  0.20153137069E+03 -0.15585819800E+03  0.26843540553E+03  0.80419002446E+02 0.  1.
          1    1    1    2  501    0  0.57282250312E+02 -0.26559904491E+02  0.44799745268E+02  0.77419002212E+02  0.00000000000E+00 0. -1.
         -2    1    1    2    0  503 -0.83429520320E+02 -0.17497146620E+03 -0.35276603106E+03  0.40251629969E+03  0.00000000000E+00 0.  1.
<mgrwt>
<rscale>  2 0.23776903E+03</rscale>
<asrwt>0</asrwt>
<pdfrwt beam="1">  1       21 0.21888171E-01 0.23776903E+03</pdfrwt>
<pdfrwt beam="2">  1       21 0.93245784E-01 0.23776903E+03</pdfrwt>
<totfact> 0.18366574E+04</totfact>
</mgrwt>
</event>
<event>
 5    1  0.2051810E+000  0.7877171E+02  0.7546771E-02  0.1332574E+00
         21   -1    0    0  501  502  0.00000000000E+00  0.00000000000E+00  0.10556937157E+03  0.10556937157E+03  0.00000000000E+00 0. -1.
         21   -1    0    0  502  503 -0.00000000000E+00 -0.00000000000E+00 -0.11720176113E+03  0.11720176113E+03  0.00000000000E+00 0. -1.
         24    1    1    2    0    0 -0.15451245163E+02 -0.48604950740E+02 -0.14462540959E+00  0.95228247303E+02  0.80419002446E+02 0. -1.
          1    1    1    2  501    0 -0.61187640209E+01  0.37610326768E+02  0.49184757858E+02  0.62218296009E+02  0.00000000000E+00 0. -1.
         -2    1    1    2    0  503  0.21570009183E+02  0.10994623972E+02 -0.60672522007E+02  0.65324589392E+02  0.00000000000E+00 0.  1.
<mgrwt>
<rscale>  2 0.78771707E+02</rscale>
<asrwt>0</asrwt>
<pdfrwt beam="1">  1       21 0.16241442E-01 0.78771707E+02</pdfrwt>
<pdfrwt beam="2">  1       21 0.18031040E-01 0.78771707E+02</pdfrwt>
<totfact> 0.94391890E+05</totfact>
</mgrwt>
</event>
<event>
 5    1  0.2051810E+000  0.7535042E+02  0.7546771E-02  0.1342789E+00
         21   -1    0    0  501  502  0.00000000000E+00  0.00000000000E+00  0.24962427149E+03  0.24962427149E+03  0.00000000000E+00 0.  1.
         21   -1    0    0  502  503 -0.00000000000E+00 -0.00000000000E+00 -0.34371437500E+02  0.34371437500E+02  0.00000000000E+00 0. -1.
         24    1    1    2    0    0 -0.15663065278E+02  0.43088299677E+02  0.14851708942E+03  0.17500421420E+03  0.80419002446E+02 0.  1.
          1    1    1    2  501    0  0.27002106422E+02 -0.25094127091E+02  0.77004965061E+02  0.85373260507E+02  0.00000000000E+00 0. -1.
         -2    1    1    2    0  503 -0.11339041144E+02 -0.17994172585E+02 -0.10269220493E+02  0.23618234283E+02  0.00000000000E+00 0.  1.
<mgrwt>
<rscale>  2 0.75350424E+02</rscale>
<asrwt>0</asrwt>
<pdfrwt beam="1">  1       21 0.38403733E-01 0.75350424E+02</pdfrwt>
<pdfrwt beam="2">  1       21 0.52879136E-02 0.75350424E+02</pdfrwt>
<totfact> 0.15715878E+06</totfact>
</mgrwt>
</event>
<event>
 5    1  0.2051810E+000  0.9856997E+02  0.7546771E-02  0.1283332E+00
         21   -1    0    0  501  502  0.00000000000E+00  0.00000000000E+00  0.46858514082E+03  0.46858514082E+03  0.00000000000E+00 0. -1.
         21   -1    0    0  502  503 -0.00000000000E+00 -0.00000000000E+00 -0.72111677966E+02  0.72111677966E+02  0.00000000000E+00 0.  1.
         24    1    1    2    0    0 -0.48365895855E+02 -0.51297770716E+02  0.21232804962E+03  0.23774174596E+03  0.80419002446E+02 0. -1.
          1    1    1    2  501    0  0.29868598478E+02  0.62001307351E+02  0.23655134654E+03  0.24635915822E+03  0.00000000000E+00 0. -1.
         -2    1    1    2    0  503  0.18497297377E+02 -0.10703536635E+02 -0.52405933296E+02  0.56595914617E+02  0.00000000000E+00 0.  1.
<mgrwt>
<rscale>  2 0.98569974E+02</rscale>
<asrwt>0</asrwt>
<pdfrwt beam="1">  1       21 0.72090020E-01 0.98569974E+02</pdfrwt>
<pdfrwt beam="2">  1       21 0.11094105E-01 0.98569974E+02</pdfrwt>
<totfact> 0.12156464E+05</totfact>
</mgrwt>
</event>
<event>
 5    1  0.2051810E+000  0.8017869E+02  0.7546771E-02  0.1328545E+00
         21   -1    0    0  501  502  0.00000000000E+00  0.00000000000E+00  0.20283341747E+03  0.20283341747E+03  0.00000000000E+00 0. -1.
         21   -1    0    0  502  503 -0.00000000000E+00 -0.00000000000E+00 -0.11279905223E+03  0.11279905223E+03  0.00000000000E+00 0. -1.
         24    1    1    2    0    0 -0.39941568876E+02  0.53921792245E+00  0.13448382060E+02  0.90794793984E+02  0.80419002446E+02 0. -1.
          1    1    1    2  501    0  0.43977299245E+02  0.20940597981E+02  0.14502892929E+03  0.15298987490E+03  0.00000000000E+00 0. -1.
         -2    1    1    2    0  503 -0.40357303688E+01 -0.21479815903E+02 -0.68442946106E+02  0.71847800819E+02  0.00000000000E+00 0.  1.
<mgrwt>
<rscale>  2 0.80178691E+02</rscale>
<asrwt>0</asrwt>
<pdfrwt beam="1">  1       21 0.31205141E-01 0.80178691E+02</pdfrwt>
<pdfrwt beam="2">  1       21 0.17353700E-01 0.80178691E+02</pdfrwt>
<totfact> 0.30287447E+05</totfact>
</mgrwt>
</event>
<event>
 5    1  0.2051810E+000  0.8010009E+02  0.7546771E-02  0.1328768E+00
         21   -1    0    0  501  502  0.00000000000E+00  0.00000000000E+00  0.12439480561E+03  0.12439480561E+03  0.00000000000E+00 0. -1.
         21   -1    0    0  502  503 -0.00000000000E+00 -0.00000000000E+00 -0.48784431156E+03  0.48784431156E+03  0.00000000000E+00 0. -1.
         24    1    1    2    0    0  0.38990580383E+01  0.39923930676E+02 -0.38009897957E+03  0.39057851083E+03  0.80419002446E+02 0. -1.
          1    1    1    2  501    0  0.21873250183E+02  0.10812346325E+01  0.11231707738E+03  0.11443222454E+03  0.00000000000E+00 0. -1.
         -2    1    1    2    0  503 -0.25772308221E+02 -0.41005165308E+02 -0.95667603762E+02  0.10722838180E+03  0.00000000000E+00 0.  1.
<mgrwt>
<rscale>  2 0.80100086E+02</rscale>
<asrwt>0</asrwt>
<pdfrwt beam="1">  1       21 0.19137663E-01 0.80100086E+02</pdfrwt>
<pdfrwt beam="2">  1       21 0.75052969E-01 0.80100086E+02</pdfrwt>
<totfact> 0.42687888E+04</totfact>
</mgrwt>
</event>
<event>
 5    1  0.2051810E+000  0.6152966E+02  0.7546771E-02  0.1391522E+00
         21   -1    0    0  503  502  0.00000000000E+00  0.00000000000E+00  0.63864959617E+02  0.63864959617E+02  0.00000000000E+00 0.  1.
         21   -1    0    0  501  503 -0.00000000000E+00 -0.00000000000E+00 -0.97085686751E+02  0.97085686751E+02  0.00000000000E+00 0.  1.
         24    1    1    2    0    0  0.42023718689E+01 -0.12276682074E+02  0.14752228979E+02  0.82784183672E+02  0.80419002446E+02 0.  1.
          1    1    1    2  501    0 -0.21153964791E+02  0.87720754978E+00 -0.53048404083E+02  0.57117360716E+02  0.00000000000E+00 0. -1.
         -2    1    1    2    0  502  0.16951592922E+02  0.11399474524E+02  0.50754479695E+01  0.21049101979E+02  0.00000000000E+00 0.  1.
<mgrwt>
<rscale>  2 0.61529663E+02</rscale>
<asrwt>0</asrwt>
<pdfrwt beam="1">  1       21 0.98253784E-02 0.61529663E+02</pdfrwt>
<pdfrwt beam="2">  1       21 0.14936259E-01 0.61529663E+02</pdfrwt>
<totfact> 0.31459969E+06</totfact>
</mgrwt>
</event>
<event>
 5    1  0.2051810E+000  0.7775066E+02  0.7546771E-02  0.1335559E+00
         21   -1    0    0  501  502  0.00000000000E+00  0.00000000000E+00  0.52709607323E+03  0.52709607323E+03  0.00000000000E+00 0. -1.
         21   -1    0    0  502  503 -0.00000000000E+00 -0.00000000000E+00 -0.53369978222E+02  0.53369978222E+02  0.00000000000E+00 0.  1.
         24    1    1    2    0    0 -0.15248119742E+02 -0.28883183185E+02  0.66549708001E+02  0.10937469093E+03  0.80419002446E+02 0. -1.
          1    1    1    2  501    0  0.33735183068E+02 -0.78716570745E+00  0.42870797043E+03  0.43003395926E+03  0.00000000000E+00 0. -1.
         -2    1    1    2    0  503 -0.18487063325E+02  0.29670348892E+02 -0.21531583422E+02  0.41057401263E+02  0.00000000000E+00 0.  1.
<mgrwt>
<rscale>  2 0.77750656E+02</rscale>
<asrwt>0</asrwt>
<pdfrwt beam="1">  1       21 0.81091700E-01 0.77750656E+02</pdfrwt>
<pdfrwt beam="2">  1       21 0.82107663E-02 0.77750656E+02</pdfrwt>
<totfact> 0.15947125E+05</totfact>
</mgrwt>
</event>
<event>
 5    1  0.2051810E+000  0.1224769E+03  0.7546771E-02  0.1239066E+00
         21   -1    0    0  503  502  0.00000000000E+00  0.00000000000E+00  0.82904468897E+03  0.82904468897E+03  0.00000000000E+00 0. -1.
         21   -1    0    0  501  503 -0.00000000000E+00 -0.00000000000E+00 -0.48566114627E+02  0.48566114627E+02  0.00000000000E+00 0. -1.
         24    1    1    2    0    0  0.75299060641E+02 -0.78699894317E+02  0.45928295988E+03  0.47882321904E+03  0.80419002446E+02 0. -1.
          1    1    1    2  501    0 -0.51737747761E+02  0.61628904007E+02  0.43239844679E+01  0.80582958460E+02  0.00000000000E+00 0. -1.
         -2    1    1    2    0  502 -0.23561312880E+02  0.17070990310E+02  0.31687163000E+03  0.31820462610E+03  0.00000000000E+00 0.  1.
<mgrwt>
<rscale>  2 0.12247695E+03</rscale>
<asrwt>0</asrwt>
<pdfrwt beam="1">  1       21 0.12754533E+00 0.12247695E+03</pdfrwt>
<pdfrwt beam="2">  1       21 0.74717105E-02 0.12247695E+03</pdfrwt>
<totfact> 0.63633450E+04</totfact>
</mgrwt>
</event>
<event>
 5    1  0.2051810E+000  0.1247967E+03  0.7546771E-02  0.1235387E+00
         21   -1    0    0  501  502  0.00000000000E+00  0.00000000000E+00  0.88262156583E+03  0.88262156583E+03  0.00000000000E+00 0. -1.
         21   -1    0    0  502  503 -0.00000000000E+00 -0.00000000000E+00 -0.29301219711E+02  0.29301219711E+02  0.00000000000E+00 0. -1.
         24    1    1    2    0    0 -0.51166344357E+01 -0.10251043523E+03  0.15644652793E+03  0.20365976857E+03  0.80419002446E+02 0. -1.
          1    1    1    2  501    0  0.27081382080E+02  0.89866852396E+02  0.62593469128E+03  0.63293261108E+03  0.00000000000E+00 0. -1.
         -2    1    1    2    0  503 -0.21964747644E+02  0.12643582830E+02  0.70939126900E+02  0.75330405888E+02  0.00000000000E+00 0.  1.
<mgrwt>
<rscale>  2 0.12479671E+03</rscale>
<asrwt>0</asrwt>
<pdfrwt beam="1">  1       21 0.13578791E+00 0.12479671E+03</pdfrwt>
<pdfrwt beam="2">  1       21 0.45078806E-02 0.12479671E+03</pdfrwt>
<totfact> 0.12782338E+05</totfact>
</mgrwt>
</event>
<event>
 5    1  0.2051810E+000  0.9683346E+02  0.7546771E-02  0.1287099E+00
         21   -1    0    0  503  502  0.00000000000E+00  0.00000000000E+00  0.37978264785E+02  0.37978264785E+02  0.00000000000E+00 0.  1.
         21   -1    0    0  501  503 -0.00000000000E+00 -0.00000000000E+00 -0.56875884138E+03  0.56875884138E+03  0.00000000000E+00 0. -1.
         24    1    1    2    0    0 -0.97896864020E+00 -0.38149778461E+02 -0.24759714864E+03  0.26311200647E+03  0.80419002446E+02 0. -1.
          1    1    1    2  501    0  0.36020274287E+02  0.55019553704E+02 -0.29557952718E+03  0.30280665174E+03  0.00000000000E+00 0. -1.
         -2    1    1    2    0  502 -0.35041305647E+02 -0.16869775242E+02  0.12396099224E+02  0.40818447963E+02  0.00000000000E+00 0.  1.
<mgrwt>
<rscale>  2 0.96833459E+02</rscale>
<asrwt>0</asrwt>
<pdfrwt beam="1">  1       21 0.58428097E-02 0.96833459E+02</pdfrwt>
<pdfrwt beam="2">  1       21 0.87501365E-01 0.96833459E+02</pdfrwt>
<totfact> 0.23771496E+05</totfact>
</mgrwt>
</event>
<event>
 5    1  0.2051810E+000  0.6313975E+02  0.7546771E-02  0.1385109E+00
         21   -1    0    0  503  502  0.00000000000E+00  0.00000000000E+00  0.22499572766E+03  0.22499572766E+03  0.00000000000E+00 0. -1.
         21   -1    0    0  501  503 -0.00000000000E+00 -0.00000000000E+00 -0.53517977947E+02  0.53517977947E+02  0.00000000000E+00 0. -1.
         24    1    1    2    0    0  0.21816771940E+02  0.83652693282E+01  0.13145956967E+03  0.15586784043E+03  0.80419002446E+02 0. -1.
          1    1    1    2  501    0 -0.16777328530E+02  0.12593989558E+02 -0.37073349493E+02  0.42597189675E+02  0.00000000000E+00 0. -1.
         -2    1    1    2    0  502 -0.50394434106E+01 -0.20959258886E+02  0.77091529536E+02  0.80048675499E+02  0.00000000000E+00 0.  1.
<mgrwt>
<rscale>  2 0.63139745E+02</rscale>
<asrwt>0</asrwt>
<pdfrwt beam="1">  1       21 0.34614727E-01 0.63139745E+02</pdfrwt>
<pdfrwt beam="2">  1       21 0.82335352E-02 0.63139745E+02</pdfrwt>
<totfact> 0.90959212E+05</totfact>
</mgrwt>
</event>
<event>
 5    1  0.2051810E+000  0.7708145E+02  0.7546771E-02  0.1337544E+00
         21   -1    0    0  501  502  0.00000000000E+00  0.00000000000E+00  0.22336838083E+04  0.22336838083E+04  0.00000000000E+00 0. -1.
         21   -1    0    0  502  503 -0.00000000000E+00 -0.00000000000E+00 -0.10903893934E+02  0.10903893934E+02  0.00000000000E+00 0. -1.
         24    1    1    2    0    0  0.37919693974E+02 -0.17478550450E+02  0.21668436936E+03  0.23486748348E+03  0.80419002446E+02 0. -1.
          1    1    1    2  501    0 -0.42619228740E+02 -0.28224512071E+01  0.19388423805E+04  0.19393128013E+04  0.00000000000E+00 0. -1.
         -2    1    1    2    0  503  0.46995347658E+01  0.20301001657E+02  0.67253164474E+02  0.70407417415E+02  0.00000000000E+00 0.  1.
<mgrwt>
<rscale>  2 0.77081454E+02</rscale>
<asrwt>0</asrwt>
<pdfrwt beam="1">  1       21 0.34364330E+00 0.77081454E+02</pdfrwt>
<pdfrwt beam="2">  1       21 0.16775239E-02 0.77081454E+02</pdfrwt>
<totfact> 0.37240337E+04</totfact>
</mgrwt>
</event>
<event>
 5    1  0.2051810E+000  0.6328952E+02  0.7546771E-02  0.1384524E+00
         21   -1    0    0  501  502  0.00000000000E+00  0.00000000000E+00  0.18915726258E+03  0.18915726258E+03  0.00000000000E+00 0.  1.
         21   -1    0    0  502  503 -0.00000000000E+00 -0.00000000000E+00 -0.65463530155E+02  0.65463530155E+02  0.00000000000E+00 0.  1.
         24    1    1    2    0    0 -0.53242437524E+01  0.83950716497E+01  0.70683646133E+02  0.10752775728E+03  0.80419002446E+02 0.  1.
          1    1    1    2  501    0 -0.17562377975E+02 -0.13436264121E+02  0.95792949096E+02  0.98312051195E+02  0.00000000000E+00 0. -1.
         -2    1    1    2    0  503  0.22886621727E+02  0.50411924716E+01 -0.42782862807E+02  0.48780984263E+02  0.00000000000E+00 0.  1.
<mgrwt>
<rscale>  2 0.63289518E+02</rscale>
<asrwt>0</asrwt>
<pdfrwt beam="1">  1       21 0.29101117E-01 0.63289518E+02</pdfrwt>
<pdfrwt beam="2">  1       21 0.10071312E-01 0.63289518E+02</pdfrwt>
<totfact> 0.89743649E+05</totfact>
</mgrwt>
</event>
<event>
 5    1  0.2051810E+000  0.8062445E+02  0.7546771E-02  0.1327289E+00
         21   -1    0    0  501  502  0.00000000000E+00  0.00000000000E+00  0.11635825144E+04  0.11635825144E+04  0.00000000000E+00 0. -1.
         21   -1    0    0  502  503 -0.00000000000E+00 -0.00000000000E+00 -0.11233643975E+02  0.11233643975E+02  0.00000000000E+00 0.  1.
         24    1    1    2    0    0 -0.18530559601E+02  0.14613545645E+02  0.27190237741E+03  0.28452602017E+03  0.80419002446E+02 0.  0.
          1    1    1    2  501    0  0.44680212785E+02  0.47046108842E+01  0.82343769369E+03  0.82466240982E+03  0.00000000000E+00 0. -1.
         -2    1    1    2    0  503 -0.26149653184E+02 -0.19318156530E+02  0.57008799326E+02  0.65627728392E+02  0.00000000000E+00 0.  1.
<mgrwt>
<rscale>  2 0.80624453E+02</rscale>
<asrwt>0</asrwt>
<pdfrwt beam="1">  1       21 0.17901260E+00 0.80624453E+02</pdfrwt>
<pdfrwt beam="2">  1       21 0.17282538E-02 0.80624453E+02</pdfrwt>
<totfact> 0.30315170E+05</totfact>
</mgrwt>
</event>
<event>
 5    1  0.2051810E+000  0.1129213E+03  0.7546771E-02  0.1255254E+00
         21   -1    0    0  501  502  0.00000000000E+00  0.00000000000E+00  0.48595078642E+02  0.48595078642E+02  0.00000000000E+00 0.  1.
         21   -1    0    0  502  503 -0.00000000000E+00 -0.00000000000E+00 -0.53504791498E+03  0.53504791498E+03  0.00000000000E+00 0.  1.
         24    1    1    2    0    0 -0.76860290336E+02 -0.36862969629E+02 -0.27518395022E+03  0.29909832025E+03  0.80419002446E+02 0.  1.
          1    1    1    2  501    0  0.50613473565E+02 -0.13041242214E+02  0.12533687218E+02  0.53748404814E+02  0.00000000000E+00 0. -1.
         -2    1    1    2    0  503  0.26246816771E+02  0.49904211843E+02 -0.22380257333E+03  0.23079626856E+03  0.00000000000E+00 0.  1.
<mgrwt>
<rscale>  2 0.11292128E+03</rscale>
<asrwt>0</asrwt>
<pdfrwt beam="1">  1       21 0.74761656E-02 0.11292128E+03</pdfrwt>
<pdfrwt beam="2">  1       21 0.82315068E-01 0.11292128E+03</pdfrwt>
<totfact> 0.17856287E+05</totfact>
</mgrwt>
</event>
<event>
 5    1  0.2051810E+000  0.9304943E+02  0.7546771E-02  0.1295631E+00
         21   -1    0    0  503  502  0.00000000000E+00  0.00000000000E+00  0.13959612614E+03  0.13959612614E+03  0.00000000000E+00 0.  1.
         21   -1    0    0  501  503 -0.00000000000E+00 -0.00000000000E+00 -0.10644217950E+03  0.10644217950E+03  0.00000000000E+00 0. -1.
         24    1    1    2    0    0 -0.95753551783E+01  0.60633408652E+02 -0.41498772506E+02  0.10935017945E+03  0.80419002446E+02 0. -1.
          1    1    1    2  501    0 -0.18716551612E+02 -0.52128195489E+02 -0.10802354853E+01  0.55396976252E+02  0.00000000000E+00 0. -1.
         -2    1    1    2    0  502  0.28291906791E+02 -0.85052131625E+01  0.75732954638E+02  0.81291149942E+02  0.00000000000E+00 0.  1.
<mgrwt>
<rscale>  2 0.93049431E+02</rscale>
<asrwt>0</asrwt>
<pdfrwt beam="1">  1       21 0.21476327E-01 0.93049431E+02</pdfrwt>
<pdfrwt beam="2">  1       21 0.16375720E-01 0.93049431E+02</pdfrwt>
<totfact> 0.67765496E+05</totfact>
</mgrwt>
</event>
<event>
 5    1  0.2051810E+000  0.9597412E+02  0.7546771E-02  0.1288997E+00
         21   -1    0    0  501  502  0.00000000000E+00  0.00000000000E+00  0.18372632622E+03  0.18372632622E+03  0.00000000000E+00 0.  1.
         21   -1    0    0  502  503 -0.00000000000E+00 -0.00000000000E+00 -0.35715781641E+03  0.35715781641E+03  0.00000000000E+00 0.  1.
         24    1    1    2    0    0 -0.68205742199E+02 -0.30793071439E+02  0.71056462266E+02  0.13082994039E+03  0.80419002446E+02 0.  1.
          1    1    1    2  501    0  0.53255934160E+02  0.66089404984E+01  0.73384411847E+02  0.90912840237E+02  0.00000000000E+00 0. -1.
         -2    1    1    2    0  503  0.14949808039E+02  0.24184130940E+02 -0.31787236431E+03  0.31914136200E+03  0.00000000000E+00 0.  1.
<mgrwt>
<rscale>  2 0.95974116E+02</rscale>
<asrwt>0</asrwt>
<pdfrwt beam="1">  1       21 0.28265589E-01 0.95974116E+02</pdfrwt>
<pdfrwt beam="2">  1       21 0.54947357E-01 0.95974116E+02</pdfrwt>
<totfact> 0.39599031E+04</totfact>
</mgrwt>
</event>
<event>
 5    1  0.2051810E+000  0.8162899E+02  0.7546771E-02  0.1324491E+00
         21   -1    0    0  503  502  0.00000000000E+00  0.00000000000E+00  0.14080011419E+03  0.14080011419E+03  0.00000000000E+00 0.  1.
         21   -1    0    0  501  503 -0.00000000000E+00 -0.00000000000E+00 -0.47901612084E+02  0.47901612084E+02  0.00000000000E+00 0. -1.
         24    1    1    2    0    0  0.48325898999E+02  0.45268925423E+01  0.63571778478E+02  0.11342165685E+03  0.80419002446E+02 0.  0.
          1    1    1    2  501    0 -0.41280112175E+01 -0.21566364234E+02  0.88232058767E+01  0.23664266412E+02  0.00000000000E+00 0. -1.
         -2    1    1    2    0  502 -0.44197887782E+02  0.17039471692E+02  0.20503517750E+02  0.51615803007E+02  0.00000000000E+00 0.  1.
<mgrwt>
<rscale>  2 0.81628989E+02</rscale>
<asrwt>0</asrwt>
<pdfrwt beam="1">  1       21 0.21661556E-01 0.81628989E+02</pdfrwt>
<pdfrwt beam="2">  1       21 0.73694788E-02 0.81628989E+02</pdfrwt>
<totfact> 0.26738760E+06</totfact>
</mgrwt>
</event>
<event>
 5    1  0.2051810E+000  0.4770723E+03  0.7546771E-02  0.1019943E+00
         21   -1    0    0  501  502  0.00000000000E+00  0.00000000000E+00  0.32692734060E+03  0.32692734060E+03  0.00000000000E+00 0. -1.
         21   -1    0    0  502  503 -0.00000000000E+00 -0.00000000000E+00 -0.69822968892E+03  0.69822968892E+03  0.00000000000E+00 0. -1.
         24    1    1    2    0    0  0.23435816652E+03  0.40865959052E+03 -0.16112004190E+03  0.50433450705E+03  0.80419002446E+02 0. -1.
          1    1    1    2  501    0 -0.21296055932E+03 -0.39999523482E+03 -0.19596966868E+03  0.49371297203E+03  0.00000000000E+00 0. -1.
         -2    1    1    2    0  503 -0.21397607199E+02 -0.86643557008E+01 -0.14212637744E+02  0.27109550443E+02  0.00000000000E+00 0.  1.
<mgrwt>
<rscale>  2 0.47707226E+03</rscale>
<asrwt>0</asrwt>
<pdfrwt beam="1">  1       21 0.50296515E-01 0.47707226E+03</pdfrwt>
<pdfrwt beam="2">  1       21 0.10741995E+00 0.47707226E+03</pdfrwt>
<totfact> 0.22266532E+03</totfact>
</mgrwt>
</event>
<event>
 5    1  0.2051810E+000  0.1172680E+03  0.7546771E-02  0.1247673E+00
         21   -1    0    0  501  502  0.00000000000E+00  0.00000000000E+00  0.40780415144E+03  0.40780415144E+03  0.00000000000E+00 0.  1.
         21   -1    0    0  502  503 -0.00000000000E+00 -0.00000000000E+00 -0.34989790328E+02  0.34989790328E+02  0.00000000000E+00 0. -1.
         24    1    1    2    0    0 -0.47677353152E+02 -0.33380340048E+02  0.17029432753E+03  0.19711608521E+03  0.80419002446E+02 0.  1.
          1    1    1    2  501    0  0.20567863668E+02  0.79309298020E+02  0.14947209153E+03  0.17045500261E+03  0.00000000000E+00 0. -1.
         -2    1    1    2    0  503  0.27109489484E+02 -0.45928957972E+02  0.53047942056E+02  0.75222853953E+02  0.00000000000E+00 0.  1.
<mgrwt>
<rscale>  2 0.11726803E+03</rscale>
<asrwt>0</asrwt>
<pdfrwt beam="1">  1       21 0.62739097E-01 0.11726803E+03</pdfrwt>
<pdfrwt beam="2">  1       21 0.53830450E-02 0.11726803E+03</pdfrwt>
<totfact> 0.56357069E+05</totfact>
</mgrwt>
</event>
<event>
 5    1  0.2051810E+000  0.6325276E+02  0.7546771E-02  0.1384667E+00
         21   -1    0    0  503  502  0.00000000000E+00  0.00000000000E+00  0.85679647943E+01  0.85679647943E+01  0.00000000000E+00 0.  1.
         21   -1    0    0  501  503 -0.00000000000E+00 -0.00000000000E+00 -0.10897751075E+04  0.10897751075E+04  0.00000000000E+00 0.  1.
         24    1    1    2    0    0 -0.18414278735E+01 -0.21087979172E+01 -0.60942594590E+03  0.61471541169E+03  0.80419002446E+02 0.  1.
          1    1    1    2  501    0  0.18615696237E+02  0.15775410902E+02 -0.45646908796E+03  0.45712081117E+03  0.00000000000E+00 0. -1.
         -2    1    1    2    0  502 -0.16774268364E+02 -0.13666612985E+02 -0.15312108842E+02  0.26506849431E+02  0.00000000000E+00 0.  1.
<mgrwt>
<rscale>  2 0.63252763E+02</rscale>
<asrwt>0</asrwt>
<pdfrwt beam="1">  1       21 0.13181488E-02 0.63252763E+02</pdfrwt>
<pdfrwt beam="2">  1       21 0.16765766E+00 0.63252763E+02</pdfrwt>
<totfact> 0.55645794E+05</totfact>
</mgrwt>
</event>
<event>
 5    1  0.2051810E+000  0.7288707E+02  0.7546771E-02  0.1350542E+00
         21   -1    0    0  501  502  0.00000000000E+00  0.00000000000E+00  0.17185015144E+03  0.17185015144E+03  0.00000000000E+00 0. -1.
         21   -1    0    0  502  503 -0.00000000000E+00 -0.00000000000E+00 -0.16903179141E+03  0.16903179141E+03  0.00000000000E+00 0. -1.
         24    1    1    2    0    0 -0.25450587950E+02  0.92490180947E+00 -0.40318824222E+02  0.93495515461E+02  0.80419002446E+02 0. -1.
          1    1    1    2  501    0 -0.70837152907E+01 -0.21693513519E+02  0.14066202409E+03  0.14250120200E+03  0.00000000000E+00 0. -1.
         -2    1    1    2    0  503  0.32534303241E+02  0.20768611709E+02 -0.97524839836E+02  0.10488522539E+03  0.00000000000E+00 0.  1.
<mgrwt>
<rscale>  2 0.72887065E+02</rscale>
<asrwt>0</asrwt>
<pdfrwt beam="1">  1       21 0.26438485E-01 0.72887065E+02</pdfrwt>
<pdfrwt beam="2">  1       21 0.26004891E-01 0.72887065E+02</pdfrwt>
<totfact> 0.19777286E+05</totfact>
</mgrwt>
</event>
<event>
 5    1  0.2051810E+000  0.7873156E+02  0.7546771E-02  0.1332690E+00
         21   -1    0    0  501  502  0.00000000000E+00  0.00000000000E+00  0.29268128576E+02  0.29268128576E+02  0.00000000000E+00 0.  1.
         21   -1    0    0  502  503 -0.00000000000E+00 -0.00000000000E+00 -0.21445500104E+03  0.21445500104E+03  0.00000000000E+00 0.  1.
         24    1    1    2    0    0 -0.54735935810E+02  0.13166130722E+02 -0.10596254633E+03  0.14444599976E+03  0.80419002446E+02 0.  1.
          1    1    1    2  501    0  0.29161662131E+02 -0.16500535492E+02 -0.38128220693E+02  0.50758560095E+02  0.00000000000E+00 0. -1.
         -2    1    1    2    0  503  0.25574273680E+02  0.33344047700E+01 -0.41096105449E+02  0.48518569769E+02  0.00000000000E+00 0.  1.
<mgrwt>
<rscale>  2 0.78731557E+02</rscale>
<asrwt>0</asrwt>
<pdfrwt beam="1">  1       21 0.45027889E-02 0.78731557E+02</pdfrwt>
<pdfrwt beam="2">  1       21 0.32993078E-01 0.78731557E+02</pdfrwt>
<totfact> 0.27579858E+06</totfact>
</mgrwt>
</event>
<event>
 5    1  0.2051810E+000  0.7354449E+02  0.7546771E-02  0.1348438E+00
         21   -1    0    0  501  502  0.00000000000E+00  0.00000000000E+00  0.66479238530E+02  0.66479238530E+02  0.00000000000E+00 0.  1.
         21   -1    0    0  502  503 -0.00000000000E+00 -0.00000000000E+00 -0.98846642718E+02  0.98846642718E+02  0.00000000000E+00 0. -1.
         24    1    1    2    0    0 -0.25099088383E+02 -0.44914334075E+02  0.95283820854E+01  0.95944086126E+02  0.80419002446E+02 0.  0.
          1    1    1    2  501    0  0.13614139828E+02  0.28513750871E+02 -0.12864316486E+02  0.34115530637E+02  0.00000000000E+00 0. -1.
         -2    1    1    2    0  503  0.11484948555E+02  0.16400583204E+02 -0.29031469787E+02  0.35266264485E+02  0.00000000000E+00 0.  1.
<mgrwt>
<rscale>  2 0.73544487E+02</rscale>
<asrwt>0</asrwt>
<pdfrwt beam="1">  1       21 0.10227575E-01 0.73544487E+02</pdfrwt>
<pdfrwt beam="2">  1       21 0.15207176E-01 0.73544487E+02</pdfrwt>
<totfact> 0.28770523E+06</totfact>
</mgrwt>
</event>
<event>
 5    1  0.2051810E+000  0.1336590E+03  0.7546771E-02  0.1222125E+00
         21   -1    0    0  503  502  0.00000000000E+00  0.00000000000E+00  0.73038921242E+02  0.73038921242E+02  0.00000000000E+00 0. -1.
         21   -1    0    0  501  503 -0.00000000000E+00 -0.00000000000E+00 -0.30247930884E+03  0.30247930884E+03  0.00000000000E+00 0.  1.
         24    1    1    2    0    0 -0.37230583268E+02 -0.49480759836E+02 -0.66247388145E+02  0.12120393688E+03  0.80419002446E+02 0. -1.
          1    1    1    2  501    0  0.60296897382E+01 -0.55743289275E+02 -0.12687042680E+03  0.13870752198E+03  0.00000000000E+00 0. -1.
         -2    1    1    2    0  502  0.31200893530E+02  0.10522404911E+03 -0.36322572653E+02  0.11560677122E+03  0.00000000000E+00 0.  1.
<mgrwt>
<rscale>  2 0.13365903E+03</rscale>
<asrwt>0</asrwt>
<pdfrwt beam="1">  1       21 0.11236757E-01 0.13365903E+03</pdfrwt>
<pdfrwt beam="2">  1       21 0.46535279E-01 0.13365903E+03</pdfrwt>
<totfact> 0.29561333E+05</totfact>
</mgrwt>
</event>
<event>
 5    1  0.2051810E+000  0.7715267E+02  0.7546771E-02  0.1337332E+00
         21   -1    0    0  501  502  0.00000000000E+00  0.00000000000E+00  0.77659194752E+02  0.77659194752E+02  0.00000000000E+00 0. -1.
         21   -1    0    0  502  503 -0.00000000000E+00 -0.00000000000E+00 -0.21956281415E+03  0.21956281415E+03  0.00000000000E+00 0.  1.
         24    1    1    2    0    0 -0.35387006763E+02 -0.22417132848E+01  0.77126875616E+01  0.88226793152E+02  0.80419002446E+02 0.  0.
          1    1    1    2  501    0  0.25385724297E+02 -0.26071270889E+02  0.16665778202E+02  0.40023672082E+02  0.00000000000E+00 0. -1.
         -2    1    1    2    0  503  0.10001282466E+02  0.28312984174E+02 -0.16628208516E+03  0.16897154367E+03  0.00000000000E+00 0.  1.
<mgrwt>
<rscale>  2 0.77152674E+02</rscale>
<asrwt>0</asrwt>
<pdfrwt beam="1">  1       21 0.11947569E-01 0.77152674E+02</pdfrwt>
<pdfrwt beam="2">  1       21 0.33778894E-01 0.77152674E+02</pdfrwt>
<totfact> 0.50428306E+05</totfact>
</mgrwt>
</event>
<event>
 5    1  0.2051810E+000  0.7106540E+02  0.7546771E-02  0.1356507E+00
         21   -1    0    0  501  502  0.00000000000E+00  0.00000000000E+00  0.23238467390E+04  0.23238467390E+04  0.00000000000E+00 0. -1.
         21   -1    0    0  502  503 -0.00000000000E+00 -0.00000000000E+00 -0.10342935338E+02  0.10342935338E+02  0.00000000000E+00 0.  1.
         24    1    1    2    0    0 -0.18798268327E+00 -0.64202584129E+01  0.34418313104E+03  0.35351166700E+03  0.80419002446E+02 0.  1.
          1    1    1    2  501    0 -0.29985564506E+02  0.86259976354E+01  0.19336642301E+04  0.19339159487E+04  0.00000000000E+00 0. -1.
         -2    1    1    2    0  503  0.30173547189E+02 -0.22057392225E+01  0.35656442588E+02  0.46762058697E+02  0.00000000000E+00 0.  1.
<mgrwt>
<rscale>  2 0.71065395E+02</rscale>
<asrwt>0</asrwt>
<pdfrwt beam="1">  1       21 0.35751447E+00 0.71065395E+02</pdfrwt>
<pdfrwt beam="2">  1       21 0.15912227E-02 0.71065395E+02</pdfrwt>
<totfact> 0.34451576E+04</totfact>
</mgrwt>
</event>
<event>
 5    1  0.2051810E+000  0.1229564E+03  0.7546771E-02  0.1238298E+00
         21   -1    0    0  503  502  0.00000000000E+00  0.00000000000E+00  0.26761333792E+03  0.26761333792E+03  0.00000000000E+00 0.  1.
         21   -1    0    0  501  503 -0.00000000000E+00 -0.00000000000E+00 -0.71027487090E+02  0.71027487090E+02  0.00000000000E+00 0.  1.
         24    1    1    2    0    0 -0.42483722288E+02  0.72643052972E+02  0.47412176822E+02  0.12568615783E+03  0.80419002446E+02 0.  1.
          1    1    1    2  501    0 -0.30545467794E+02 -0.70454813148E+01 -0.33982552328E+01  0.31531136173E+02  0.00000000000E+00 0. -1.
         -2    1    1    2    0  502  0.73029190082E+02 -0.65597571657E+02  0.15257192924E+03  0.18142353101E+03  0.00000000000E+00 0.  1.
<mgrwt>
<rscale>  2 0.12295637E+03</rscale>
<asrwt>0</asrwt>
<pdfrwt beam="1">  1       21 0.41171282E-01 0.12295637E+03</pdfrwt>
<pdfrwt beam="2">  1       21 0.10927306E-01 0.12295637E+03</pdfrwt>
<totfact> 0.39851421E+05</totfact>
</mgrwt>
</event>
<event>
 5    1  0.2051810E+000  0.1250137E+03  0.7546771E-02  0.1235048E+00
         21   -1    0    0  503  502  0.00000000000E+00  0.00000000000E+00  0.41890509879E+02  0.41890509879E+02  0.00000000000E+00 0. -1.
         21   -1    0    0  501  503 -0.00000000000E+00 -0.00000000000E+00 -0.42090916193E+03  0.42090916193E+03  0.00000000000E+00 0.  1.
         24    1    1    2    0    0  0.29806075605E+02 -0.41733334459E+02 -0.89472215423E+02  0.13077678171E+03  0.80419002446E+02 0. -1.
          1    1    1    2  501    0  0.27780065147E+02 -0.43601946680E+02 -0.14965776775E+03  0.15833606419E+03  0.00000000000E+00 0. -1.
         -2    1    1    2    0  502 -0.57586140752E+02  0.85335281139E+02 -0.13988866887E+03  0.17368682590E+03  0.00000000000E+00 0.  1.
<mgrwt>
<rscale>  2 0.12501368E+03</rscale>
<asrwt>0</asrwt>
<pdfrwt beam="1">  1       21 0.64446937E-02 0.12501368E+03</pdfrwt>
<pdfrwt beam="2">  1       21 0.64755257E-01 0.12501368E+03</pdfrwt>
<totfact> 0.38809814E+05</totfact>
</mgrwt>
</event>
<event>
 5    1  0.2051810E+000  0.1475162E+03  0.7546771E-02  0.1203559E+00
         21   -1    0    0  503  502  0.00000000000E+00  0.00000000000E+00  0.44935229748E+03  0.44935229748E+03  0.00000000000E+00 0.  1.
         21   -1    0    0  501  503 -0.00000000000E+00 -0.00000000000E+00 -0.63976641055E+02  0.63976641055E+02  0.00000000000E+00 0. -1.
         24    1    1    2    0    0 -0.54400852049E+02  0.11425265870E+03  0.28336450881E+03  0.32058662407E+03  0.80419002446E+02 0.  1.
          1    1    1    2  501    0  0.19297517902E+02  0.56940784385E+01 -0.12123623926E+02  0.23490401945E+02  0.00000000000E+00 0. -1.
         -2    1    1    2    0  502  0.35103334146E+02 -0.11994673714E+03  0.11413477154E+03  0.16925191252E+03  0.00000000000E+00 0.  1.
<mgrwt>
<rscale>  2 0.14751618E+03</rscale>
<asrwt>0</asrwt>
<pdfrwt beam="1">  1       21 0.69131121E-01 0.14751618E+03</pdfrwt>
<pdfrwt beam="2">  1       21 0.98425605E-02 0.14751618E+03</pdfrwt>
<totfact> 0.16130352E+05</totfact>
</mgrwt>
</event>
<event>
 5    1  0.2051810E+000  0.6773654E+02  0.7546771E-02  0.1367964E+00
         21   -1    0    0  503  502  0.00000000000E+00  0.00000000000E+00  0.12634176653E+03  0.12634176653E+03  0.00000000000E+00 0.  1.
         21   -1    0    0  501  503 -0.00000000000E+00 -0.00000000000E+00 -0.73503354719E+02  0.73503354719E+02  0.00000000000E+00 0.  1.
         24    1    1    2    0    0  0.11368476202E+02  0.35404921080E+02 -0.33592846991E+02  0.94754662213E+02  0.80419002446E+02 0.  1.
          1    1    1    2  501    0 -0.19981506120E+02 -0.15847424495E+02  0.13024466680E+02  0.28636308810E+02  0.00000000000E+00 0. -1.
         -2    1    1    2    0  502  0.86130299182E+01 -0.19557496585E+02  0.73406792118E+02  0.76454150221E+02  0.00000000000E+00 0.  1.
<mgrwt>
<rscale>  2 0.67736539E+02</rscale>
<asrwt>0</asrwt>
<pdfrwt beam="1">  1       21 0.19437195E-01 0.67736539E+02</pdfrwt>
<pdfrwt beam="2">  1       21 0.11308208E-01 0.67736539E+02</pdfrwt>
<totfact> 0.15509165E+06</totfact>
</mgrwt>
</event>
<event>
 5    1  0.2051810E+000  0.1068156E+03  0.7546771E-02  0.1266583E+00
         21   -1    0    0  503  502  0.00000000000E+00  0.00000000000E+00  0.50900052900E+02  0.50900052900E+02  0.00000000000E+00 0.  1.
         21   -1    0    0  501  503 -0.00000000000E+00 -0.00000000000E+00 -0.29228370321E+03  0.29228370321E+03  0.00000000000E+00 0. -1.
         24    1    1    2    0    0  0.57639349912E+02  0.11515446956E+02 -0.18926765145E+03  0.21387931180E+03  0.80419002446E+02 0. -1.
          1    1    1    2  501    0 -0.51694349081E+02 -0.51870072173E+02 -0.49578324382E+02  0.88435402202E+02  0.00000000000E+00 0. -1.
         -2    1    1    2    0  502 -0.59450008314E+01  0.40354625217E+02 -0.25376744832E+01  0.40869042111E+02  0.00000000000E+00 0.  1.
<mgrwt>
<rscale>  2 0.10681560E+03</rscale>
<asrwt>0</asrwt>
<pdfrwt beam="1">  1       21 0.78307775E-02 0.10681560E+03</pdfrwt>
<pdfrwt beam="2">  1       21 0.44966723E-01 0.10681560E+03</pdfrwt>
<totfact> 0.59566694E+05</totfact>
</mgrwt>
</event>
<event>
 5    1  0.2051810E+000  0.8767799E+02  0.7546771E-02  0.1308574E+00
         21   -1    0    0  503  502  0.00000000000E+00  0.00000000000E+00  0.42211843374E+02  0.42211843374E+02  0.00000000000E+00 0. -1.
         21   -1    0    0  501  503 -0.00000000000E+00 -0.00000000000E+00 -0.19787760187E+03  0.19787760187E+03  0.00000000000E+00 0. -1.
         24    1    1    2    0    0 -0.33112986708E+02  0.50573568694E+02 -0.68192359475E+02  0.12153834615E+03  0.80419002446E+02 0. -1.
          1    1    1    2  501    0  0.33561457389E+01 -0.44189791878E+02 -0.71653786428E+02  0.84251210851E+02  0.00000000000E+00 0. -1.
         -2    1    1    2    0  502  0.29756840970E+02 -0.63837768160E+01 -0.15819612590E+02  0.34299888242E+02  0.00000000000E+00 0.  1.
<mgrwt>
<rscale>  2 0.87677991E+02</rscale>
<asrwt>0</asrwt>
<pdfrwt beam="1">  1       21 0.64941297E-02 0.87677991E+02</pdfrwt>
<pdfrwt beam="2">  1       21 0.30442708E-01 0.87677991E+02</pdfrwt>
<totfact> 0.17555768E+06</totfact>
</mgrwt>
</event>
<event>
 5    1  0.2051810E+000  0.1101748E+03  0.7546771E-02  0.1260247E+00
         21   -1    0    0  501  502  0.00000000000E+00  0.00000000000E+00  0.17296899708E+03  0.17296899708E+03  0.00000000000E+00 0.  1.
         21   -1    0    0  502  503 -0.00000000000E+00 -0.00000000000E+00 -0.77562356010E+02  0.77562356010E+02  0.00000000000E+00 0.  1.
         24    1    1    2    0    0 -0.84072396001E+00  0.87189438915E+02  0.78779773083E+02  0.14239442993E+03  0.80419002446E+02 0.  1.
          1    1    1    2  501    0 -0.22305419503E+02 -0.17654086589E+02  0.19998902657E+02  0.34772900656E+02  0.00000000000E+00 0. -1.
         -2    1    1    2    0  503  0.23146143463E+02 -0.69535352325E+02 -0.33720346662E+01  0.73364022504E+02  0.00000000000E+00 0.  1.
<mgrwt>
<rscale>  2 0.11017480E+03</rscale>
<asrwt>0</asrwt>
<pdfrwt beam="1">  1       21 0.26610615E-01 0.11017480E+03</pdfrwt>
<pdfrwt beam="2">  1       21 0.11932670E-01 0.11017480E+03</pdfrwt>
<totfact> 0.79875120E+05</totfact>
</mgrwt>
</event>
<event>
 5    1  0.2051810E+000  0.8589405E+02  0.7546771E-02  0.1313111E+00
         21   -1    0    0  503  502  0.00000000000E+00  0.00000000000E+00  0.11443931145E+02  0.11443931145E+02  0.00000000000E+00 0.  1.
         21   -1    0    0  501  503 -0.00000000000E+00 -0.00000000000E+00 -0.65617924748E+03  0.65617924748E+03  0.00000000000E+00 0. -1.
         24    1    1    2    0    0 -0.24200082101E+02  0.46779235502E+01 -0.34366663012E+03  0.35380997097E+03  0.80419002446E+02 0.  0.
          1    1    1    2  501    0 -0.31169836098E+02  0.46871766964E+01 -0.88247008999E+02  0.93707325781E+02  0.00000000000E+00 0. -1.
         -2    1    1    2    0  502  0.55369918198E+02 -0.93651002465E+01 -0.21282167721E+03  0.22010588188E+03  0.00000000000E+00 0.  1.
<mgrwt>
<rscale>  2 0.85894050E+02</rscale>
<asrwt>0</asrwt>
<pdfrwt beam="1">  1       21 0.17606052E-02 0.85894050E+02</pdfrwt>
<pdfrwt beam="2">  1       21 0.10095063E+00 0.85894050E+02</pdfrwt>
<totfact> 0.12164436E+06</totfact>
</mgrwt>
</event>
<event>
 5    1  0.2051810E+000  0.7409792E+02  0.7546771E-02  0.1346687E+00
         21   -1    0    0  503  502  0.00000000000E+00  0.00000000000E+00  0.19782244116E+03  0.19782244116E+03  0.00000000000E+00 0. -1.
         21   -1    0    0  501  503 -0.00000000000E+00 -0.00000000000E+00 -0.30777427822E+02  0.30777427822E+02  0.00000000000E+00 0.  1.
         24    1    1    2    0    0 -0.34765350322E+02 -0.15320950448E+02  0.12598391421E+03  0.15421583479E+03  0.80419002446E+02 0. -1.
          1    1    1    2  501    0  0.24583280438E+02 -0.13948299355E+02  0.86897447711E+01  0.29570329659E+02  0.00000000000E+00 0. -1.
         -2    1    1    2    0  502  0.10182069884E+02  0.29269249803E+02  0.32371354361E+02  0.44813704536E+02  0.00000000000E+00 0.  1.
<mgrwt>
<rscale>  2 0.74097924E+02</rscale>
<asrwt>0</asrwt>
<pdfrwt beam="1">  1       21 0.30434221E-01 0.74097924E+02</pdfrwt>
<pdfrwt beam="2">  1       21 0.47349890E-02 0.74097924E+02</pdfrwt>
<totfact> 0.29525350E+06</totfact>
</mgrwt>
</event>
<event>
 5    1  0.2051810E+000  0.7436776E+02  0.7546771E-02  0.1345840E+00
         21   -1    0    0  503  502  0.00000000000E+00  0.00000000000E+00  0.53335055211E+02  0.53335055211E+02  0.00000000000E+00 0.  1.
         21   -1    0    0  501  503 -0.00000000000E+00 -0.00000000000E+00 -0.17056963178E+03  0.17056963178E+03  0.00000000000E+00 0.  1.
         24    1    1    2    0    0 -0.24409428421E+02 -0.10639657818E+02  0.55175129990E+01  0.84892175248E+02  0.80419002446E+02 0.  0.
          1    1    1    2  501    0  0.42203118617E+01  0.33361510006E+02 -0.77712817950E+02  0.84676345315E+02  0.00000000000E+00 0. -1.
         -2    1    1    2    0  502  0.20189116559E+02 -0.22721852188E+02 -0.45039271616E+02  0.54336166427E+02  0.00000000000E+00 0.  1.
<mgrwt>
<rscale>  2 0.74367758E+02</rscale>
<asrwt>0</asrwt>
<pdfrwt beam="1">  1       21 0.82053933E-02 0.74367758E+02</pdfrwt>
<pdfrwt beam="2">  1       21 0.26241481E-01 0.74367758E+02</pdfrwt>
<totfact> 0.15548457E+06</totfact>
</mgrwt>
</event>
<event>
 5    1  0.2051810E+000  0.7542543E+02  0.7546771E-02  0.1342559E+00
         21   -1    0    0  501  502  0.00000000000E+00  0.00000000000E+00  0.14283883656E+03  0.14283883656E+03  0.00000000000E+00 0. -1.
         21   -1    0    0  502  503 -0.00000000000E+00 -0.00000000000E+00 -0.50905943072E+02  0.50905943072E+02  0.00000000000E+00 0.  1.
         24    1    1    2    0    0 -0.29383357296E+02 -0.89828034607E+00  0.68662355092E+02  0.10975392273E+03  0.80419002446E+02 0. -1.
          1    1    1    2  501    0  0.81120269804E+01 -0.28109224166E+02  0.35496258823E+02  0.45999107115E+02  0.00000000000E+00 0. -1.
         -2    1    1    2    0  503  0.21271330315E+02  0.29007504512E+02 -0.12225720431E+02  0.37991749782E+02  0.00000000000E+00 0.  1.
<mgrwt>
<rscale>  2 0.75425425E+02</rscale>
<asrwt>0</asrwt>
<pdfrwt beam="1">  1       21 0.21975205E-01 0.75425425E+02</pdfrwt>
<pdfrwt beam="2">  1       21 0.78316836E-02 0.75425425E+02</pdfrwt>
<totfact> 0.23398471E+06</totfact>
</mgrwt>
</event>
<event>
 5    1  0.2051810E+000  0.7336539E+02  0.7546771E-02  0.1349009E+00
         21   -1    0    0  503  502  0.00000000000E+00  0.00000000000E+00  0.31618277912E+03  0.31618277912E+03  0.00000000000E+00 0. -1.
         21   -1    0    0  501  503 -0.00000000000E+00 -0.00000000000E+00 -0.23317374011E+02  0.23317374011E+02  0.00000000000E+00 0.  1.
         24    1    1    2    0    0 -0.19289430469E+02  0.45714842754E+02  0.91928461086E+02  0.13183317825E+03  0.80419002446E+02 0.  1.
          1    1    1    2  501    0  0.14987175260E+01 -0.24515786216E+02  0.85414446687E+02  0.88875742645E+02  0.00000000000E+00 0. -1.
         -2    1    1    2    0  502  0.17790712943E+02 -0.21199056538E+02  0.11552249734E+03  0.11879123224E+03  0.00000000000E+00 0.  1.
<mgrwt>
<rscale>  2 0.73365388E+02</rscale>
<asrwt>0</asrwt>
<pdfrwt beam="1">  1       21 0.48643501E-01 0.73365388E+02</pdfrwt>
<pdfrwt beam="2">  1       21 0.35872885E-02 0.73365388E+02</pdfrwt>
<totfact> 0.18572203E+06</totfact>
</mgrwt>
</event>
<event>
 5    1  0.2051810E+000  0.8284350E+02  0.7546771E-02  0.1321170E+00
         21   -1    0    0  501  502  0.00000000000E+00  0.00000000000E+00  0.90838865417E+01  0.90838865417E+01  0.00000000000E+00 0. -1.
         21   -1    0    0  502  503 -0.00000000000E+00 -0.00000000000E+00 -0.84709577888E+03  0.84709577888E+03  0.00000000000E+00 0.  1.
         24    1    1    2    0    0  0.96286014772E+01 -0.27570097951E+02 -0.52135123273E+03  0.52832484713E+03  0.80419002446E+02 0.  0.
          1    1    1    2  501    0  0.22996802283E+02 -0.14276565848E+02 -0.60847936528E+02  0.66596881514E+02  0.00000000000E+00 0. -1.
         -2    1    1    2    0  503 -0.32625403760E+02  0.41846663800E+02 -0.25581272308E+03  0.26125793678E+03  0.00000000000E+00 0.  1.
<mgrwt>
<rscale>  2 0.82843500E+02</rscale>
<asrwt>0</asrwt>
<pdfrwt beam="1">  1       21 0.13975207E-02 0.82843500E+02</pdfrwt>
<pdfrwt beam="2">  1       21 0.13032246E+00 0.82843500E+02</pdfrwt>
<totfact> 0.95513596E+05</totfact>
</mgrwt>
</event>
<event>
 5    1  0.2051810E+000  0.6565446E+02  0.7546771E-02  0.1375526E+00
         21   -1    0    0  503  502  0.00000000000E+00  0.00000000000E+00  0.28611494167E+02  0.28611494167E+02  0.00000000000E+00 0. -1.
         21   -1    0    0  501  503 -0.00000000000E+00 -0.00000000000E+00 -0.36921842417E+03  0.36921842417E+03  0.00000000000E+00 0.  1.
         24    1    1    2    0    0  0.11628350878E+02 -0.13381928899E+02 -0.19032474130E+03  0.20737651186E+03  0.80419002446E+02 0.  1.
          1    1    1    2  501    0  0.10730037665E+02  0.22410252615E+02 -0.16182444216E+03  0.16372080873E+03  0.00000000000E+00 0. -1.
         -2    1    1    2    0  502 -0.22358388543E+02 -0.90283237164E+01  0.11542253460E+02  0.26732597747E+02  0.00000000000E+00 0.  1.
<mgrwt>
<rscale>  2 0.65654463E+02</rscale>
<asrwt>0</asrwt>
<pdfrwt beam="1">  1       21 0.44017689E-02 0.65654463E+02</pdfrwt>
<pdfrwt beam="2">  1       21 0.56802828E-01 0.65654463E+02</pdfrwt>
<totfact> 0.96515100E+05</totfact>
</mgrwt>
</event>
<event>
 5    1  0.2051810E+000  0.8819589E+02  0.7546771E-02  0.1307280E+00
         21   -1    0    0  501  502  0.00000000000E+00  0.00000000000E+00  0.88714348388E+03  0.88714348388E+03  0.00000000000E+00 0. -1.
         21   -1    0    0  502  503 -0.00000000000E+00 -0.00000000000E+00 -0.26213267072E+02  0.26213267072E+02  0.00000000000E+00 0. -1.
         24    1    1    2    0    0 -0.32549998342E+02  0.50826595815E+02  0.13113747945E+03  0.16524859971E+03  0.80419002446E+02 0. -1.
          1    1    1    2  501    0  0.11749761901E+02 -0.53587311705E+02  0.72435881394E+03  0.72643330610E+03  0.00000000000E+00 0. -1.
         -2    1    1    2    0  503  0.20800236441E+02  0.27607158902E+01  0.54339234156E+01  0.21674845142E+02  0.00000000000E+00 0.  1.
<mgrwt>
<rscale>  2 0.88195892E+02</rscale>
<asrwt>0</asrwt>
<pdfrwt beam="1">  1       21 0.13648359E+00 0.88195892E+02</pdfrwt>
<pdfrwt beam="2">  1       21 0.40328110E-02 0.88195892E+02</pdfrwt>
<totfact> 0.15471995E+05</totfact>
</mgrwt>
</event>
<event>
 5    1  0.2051810E+000  0.1021360E+03  0.7546771E-02  0.1275867E+00
         21   -1    0    0  501  502  0.00000000000E+00  0.00000000000E+00  0.27359181789E+02  0.27359181789E+02  0.00000000000E+00 0. -1.
         21   -1    0    0  502  503 -0.00000000000E+00 -0.00000000000E+00 -0.95281289595E+03  0.95281289595E+03  0.00000000000E+00 0.  1.
         24    1    1    2    0    0 -0.32761465974E+02 -0.62280241382E+02 -0.71577795872E+03  0.72371088444E+03  0.80419002446E+02 0.  1.
          1    1    1    2  501    0 -0.19780838210E+02  0.29377621659E+02  0.24120371334E+01  0.35498508952E+02  0.00000000000E+00 0. -1.
         -2    1    1    2    0  503  0.52542304183E+02  0.32902619723E+02 -0.21208779258E+03  0.22096268435E+03  0.00000000000E+00 0.  1.
<mgrwt>
<rscale>  2 0.10213601E+03</rscale>
<asrwt>0</asrwt>
<pdfrwt beam="1">  1       21 0.42091055E-02 0.10213601E+03</pdfrwt>
<pdfrwt beam="2">  1       21 0.14658658E+00 0.10213601E+03</pdfrwt>
<totfact> 0.11946544E+05</totfact>
</mgrwt>
</event>
<event>
 5    1  0.2051810E+000  0.1415772E+03  0.7546771E-02  0.1211222E+00
         21   -1    0    0  501  502  0.00000000000E+00  0.00000000000E+00  0.56738802065E+03  0.56738802065E+03  0.00000000000E+00 0.  1.
         21   -1    0    0  502  503 -0.00000000000E+00 -0.00000000000E+00 -0.40971499937E+02  0.40971499937E+02  0.00000000000E+00 0.  1.
         24    1    1    2    0    0 -0.11804093278E+02 -0.12817180855E+03  0.28651606332E+03  0.32423142911E+03  0.80419002446E+02 0.  1.
          1    1    1    2  501    0 -0.81703065504E+01  0.25187158940E+02  0.12813736037E+03  0.13084467894E+03  0.00000000000E+00 0. -1.
         -2    1    1    2    0  503  0.19974399828E+02  0.10298464961E+03  0.11176309702E+03  0.15328341254E+03  0.00000000000E+00 0.  1.
<mgrwt>
<rscale>  2 0.14157722E+03</rscale>
<asrwt>0</asrwt>
<pdfrwt beam="1">  1       21 0.87290459E-01 0.14157722E+03</pdfrwt>
<pdfrwt beam="2">  1       21 0.63033081E-02 0.14157722E+03</pdfrwt>
<totfact> 0.20745913E+05</totfact>
</mgrwt>
</event>
<event>
 5    1  0.2051810E+000  0.8669081E+02  0.7546771E-02  0.1311069E+00
         21   -1    0    0  503  502  0.00000000000E+00  0.00000000000E+00  0.93589410593E+03  0.93589410593E+03  0.00000000000E+00 0. -1.
         21   -1    0    0  501  503 -0.00000000000E+00 -0.00000000000E+00 -0.80557902384E+01  0.80557902384E+01  0.00000000000E+00 0. -1.
         24    1    1    2    0    0  0.57429453827E+02 -0.27078848195E+01  0.55167704204E+03  0.56046431597E+03  0.80419002446E+02 0. -1.
          1    1    1    2  501    0 -0.35055376037E+02  0.24909863433E+02  0.20899727898E+03  0.21337582644E+03  0.00000000000E+00 0. -1.
         -2    1    1    2    0  502 -0.22374077791E+02 -0.22201978613E+02  0.16716399467E+03  0.17010975376E+03  0.00000000000E+00 0.  1.
<mgrwt>
<rscale>  2 0.86690807E+02</rscale>
<asrwt>0</asrwt>
<pdfrwt beam="1">  1       21 0.14398362E+00 0.86690807E+02</pdfrwt>
<pdfrwt beam="2">  1       21 0.12393531E-02 0.86690807E+02</pdfrwt>
<totfact> 0.90101931E+05</totfact>
</mgrwt>
</event>
<event>
 5    1  0.2051810E+000  0.9382316E+02  0.7546771E-02  0.1293849E+00
         21   -1    0    0  503  502  0.00000000000E+00  0.00000000000E+00  0.12316185820E+04  0.12316185820E+04  0.00000000000E+00 0.  1.
         21   -1    0    0  501  503 -0.00000000000E+00 -0.00000000000E+00 -0.28342448556E+02  0.28342448556E+02  0.00000000000E+00 0. -1.
         24    1    1    2    0    0 -0.33874053857E+02  0.27587640195E+02  0.14924743923E+03  0.17507296618E+03  0.80419002446E+02 0. -1.
          1    1    1    2  501    0  0.11396152790E+02 -0.57551737667E+02  0.41968229677E+02  0.72134645692E+02  0.00000000000E+00 0. -1.
         -2    1    1    2    0  502  0.22477901067E+02  0.29964097472E+02  0.10120604646E+04  0.10127534187E+04  0.00000000000E+00 0.  1.
<mgrwt>
<rscale>  2 0.93823158E+02</rscale>
<asrwt>0</asrwt>
<pdfrwt beam="1">  1       21 0.18947974E+00 0.93823158E+02</pdfrwt>
<pdfrwt beam="2">  1       21 0.43603777E-02 0.93823158E+02</pdfrwt>
<totfact> 0.57393716E+04</totfact>
</mgrwt>
</event>
<event>
 5    1  0.2051810E+000  0.9214124E+02  0.7546771E-02  0.1297748E+00
         21   -1    0    0  503  502  0.00000000000E+00  0.00000000000E+00  0.10611321752E+04  0.10611321752E+04  0.00000000000E+00 0.  1.
         21   -1    0    0  501  503 -0.00000000000E+00 -0.00000000000E+00 -0.15711900385E+02  0.15711900385E+02  0.00000000000E+00 0. -1.
         24    1    1    2    0    0 -0.14583626596E+02  0.62716380181E+00  0.56633877743E+03  0.57220617113E+03  0.80419002446E+02 0.  1.
          1    1    1    2  501    0 -0.37489762567E+02  0.24444175993E+02  0.35010918129E+02  0.56822217711E+02  0.00000000000E+00 0. -1.
         -2    1    1    2    0  502  0.52073389163E+02 -0.25071339795E+02  0.44407057927E+03  0.44781568677E+03  0.00000000000E+00 0.  1.
<mgrwt>
<rscale>  2 0.92141244E+02</rscale>
<asrwt>0</asrwt>
<pdfrwt beam="1">  1       21 0.16325105E+00 0.92141244E+02</pdfrwt>
<pdfrwt beam="2">  1       21 0.24172163E-02 0.92141244E+02</pdfrwt>
<totfact> 0.22502640E+05</totfact>
</mgrwt>
</event>
<event>
 5    1  0.2051810E+000  0.8498394E+02  0.7546771E-02  0.1315475E+00
         21   -1    0    0  503  502  0.00000000000E+00  0.00000000000E+00  0.60755706462E+03  0.60755706462E+03  0.00000000000E+00 0.  1.
         21   -1    0    0  501  503 -0.00000000000E+00 -0.00000000000E+00 -0.12326914338E+03  0.12326914338E+03  0.00000000000E+00 0. -1.
         24    1    1    2    0    0  0.36120088174E+02 -0.47604309601E+02  0.22289469743E+03  0.24437694891E+03  0.80419002446E+02 0. -1.
          1    1    1    2  501    0 -0.10641831405E+02  0.42475705919E+02 -0.10779392891E+03  0.11634846488E+03  0.00000000000E+00 0. -1.
         -2    1    1    2    0  502 -0.25478256769E+02  0.51286036818E+01  0.36918715272E+03  0.37010079421E+03  0.00000000000E+00 0.  1.
<mgrwt>
<rscale>  2 0.84983940E+02</rscale>
<asrwt>0</asrwt>
<pdfrwt beam="1">  1       21 0.93470316E-01 0.84983940E+02</pdfrwt>
<pdfrwt beam="2">  1       21 0.18964484E-01 0.84983940E+02</pdfrwt>
<totfact> 0.26519906E+04</totfact>
</mgrwt>
</event>
<event>
 5    1  0.2051810E+000  0.6719248E+02  0.7546771E-02  0.1369909E+00
         21   -1    0    0  501  502  0.00000000000E+00  0.00000000000E+00  0.14385920244E+03  0.14385920244E+03  0.00000000000E+00 0.  1.
         21   -1    0    0  502  503 -0.00000000000E+00 -0.00000000000E+00 -0.47865916050E+02  0.47865916050E+02  0.00000000000E+00 0. -1.
         24    1    1    2    0    0 -0.19403195974E+01  0.32755531927E+01  0.15455094936E+02  0.81979082714E+02  0.80419002446E+02 0. -1.
          1    1    1    2  501    0 -0.13086945412E+02  0.21341563080E+02  0.76661171029E+02  0.80645307355E+02  0.00000000000E+00 0. -1.
         -2    1    1    2    0  503  0.15027265009E+02 -0.24617116273E+02  0.38770204263E+01  0.29100728421E+02  0.00000000000E+00 0.  1.
<mgrwt>
<rscale>  2 0.67192481E+02</rscale>
<asrwt>0</asrwt>
<pdfrwt beam="1">  1       21 0.22132185E-01 0.67192481E+02</pdfrwt>
<pdfrwt beam="2">  1       21 0.73639871E-02 0.67192481E+02</pdfrwt>
<totfact> 0.25464883E+06</totfact>
</mgrwt>
</event>
<event>
 5    1  0.2051810E+000  0.7524061E+02  0.7546771E-02  0.1343128E+00
         21   -1    0    0  503  502  0.00000000000E+00  0.00000000000E+00  0.27776020614E+02  0.27776020614E+02  0.00000000000E+00 0. -1.
         21   -1    0    0  501  503 -0.00000000000E+00 -0.00000000000E+00 -0.25739538586E+03  0.25739538586E+03  0.00000000000E+00 0. -1.
         24    1    1    2    0    0 -0.17249192451E+02 -0.22754911950E+02 -0.89300045619E+02  0.12351936998E+03  0.80419002446E+02 0. -1.
          1    1    1    2  501    0 -0.11275324888E+02  0.32970221944E+02 -0.12052435537E+03  0.12546030737E+03  0.00000000000E+00 0. -1.
         -2    1    1    2    0  502  0.28524517338E+02 -0.10215309994E+02 -0.19794964259E+02  0.36191729133E+02  0.00000000000E+00 0.  1.
<mgrwt>
<rscale>  2 0.75240613E+02</rscale>
<asrwt>0</asrwt>
<pdfrwt beam="1">  1       21 0.42732341E-02 0.75240613E+02</pdfrwt>
<pdfrwt beam="2">  1       21 0.39599289E-01 0.75240613E+02</pdfrwt>
<totfact> 0.21040933E+06</totfact>
</mgrwt>
</event>
<event>
 5    1  0.2051810E+000  0.8937810E+02  0.7546771E-02  0.1304365E+00
         21   -1    0    0  501  502  0.00000000000E+00  0.00000000000E+00  0.21629296277E+03  0.21629296277E+03  0.00000000000E+00 0.  1.
         21   -1    0    0  502  503 -0.00000000000E+00 -0.00000000000E+00 -0.39965868845E+02  0.39965868845E+02  0.00000000000E+00 0.  1.
         24    1    1    2    0    0  0.21763773587E+02 -0.67871598242E+02  0.92234592099E+02  0.14161444708E+03  0.80419002446E+02 0.  1.
          1    1    1    2  501    0 -0.74275543153E+01  0.20514881816E+02  0.50011698455E+02  0.54563714329E+02  0.00000000000E+00 0. -1.
         -2    1    1    2    0  503 -0.14336219271E+02  0.47356716426E+02  0.34080803370E+02  0.60080670202E+02  0.00000000000E+00 0.  1.
<mgrwt>
<rscale>  2 0.89378104E+02</rscale>
<asrwt>0</asrwt>
<pdfrwt beam="1">  1       21 0.33275840E-01 0.89378104E+02</pdfrwt>
<pdfrwt beam="2">  1       21 0.61485953E-02 0.89378104E+02</pdfrwt>
<totfact> 0.16234808E+06</totfact>
</mgrwt>
</event>
<event>
 5    1  0.2051810E+000  0.7751998E+02  0.7546771E-02  0.1336240E+00
         21   -1    0    0  503  502  0.00000000000E+00  0.00000000000E+00  0.19507130466E+02  0.19507130466E+02  0.00000000000E+00 0.  1.
         21   -1    0    0  501  503 -0.00000000000E+00 -0.00000000000E+00 -0.32219923220E+03  0.32219923220E+03  0.00000000000E+00 0. -1.
         24    1    1    2    0    0 -0.27838864525E+02  0.12786341163E+02 -0.14301291702E+03  0.16690836794E+03  0.80419002446E+02 0.  0.
          1    1    1    2  501    0  0.77014812134E+01 -0.36826755168E+02 -0.10780117198E+03  0.11417799871E+03  0.00000000000E+00 0. -1.
         -2    1    1    2    0  502  0.20137383312E+02  0.24040414004E+02 -0.51878012737E+02  0.60619996022E+02  0.00000000000E+00 0.  1.
<mgrwt>
<rscale>  2 0.77519979E+02</rscale>
<asrwt>0</asrwt>
<pdfrwt beam="1">  1       21 0.30010971E-02 0.77519979E+02</pdfrwt>
<pdfrwt beam="2">  1       21 0.49569111E-01 0.77519979E+02</pdfrwt>
<totfact> 0.23942439E+06</totfact>
</mgrwt>
</event>
<event>
 5    1  0.2051810E+000  0.1011086E+03  0.7546771E-02  0.1277982E+00
         21   -1    0    0  501  502  0.00000000000E+00  0.00000000000E+00  0.20981802851E+02  0.20981802851E+02  0.00000000000E+00 0. -1.
         21   -1    0    0  502  503 -0.00000000000E+00 -0.00000000000E+00 -0.58937443824E+03  0.58937443824E+03  0.00000000000E+00 0.  1.
         24    1    1    2    0    0  0.52263237185E+01  0.88295781151E+01 -0.32101208981E+03  0.33109100511E+03  0.80419002446E+02 0.  1.
          1    1    1    2  501    0  0.43746632731E+02  0.34533515858E+02 -0.65631444019E+02  0.86103530920E+02  0.00000000000E+00 0. -1.
         -2    1    1    2    0  503 -0.48972956449E+02 -0.43363093973E+02 -0.18174910156E+03  0.19316170505E+03  0.00000000000E+00 0.  1.
<mgrwt>
<rscale>  2 0.10110861E+03</rscale>
<asrwt>0</asrwt>
<pdfrwt beam="1">  1       21 0.32279698E-02 0.10110861E+03</pdfrwt>
<pdfrwt beam="2">  1       21 0.90672988E-01 0.10110861E+03</pdfrwt>
<totfact> 0.58583060E+05</totfact>
</mgrwt>
</event>
<event>
 5    1  0.2051810E+000  0.1392347E+03  0.7546771E-02  0.1214363E+00
         21   -1    0    0  501  502  0.00000000000E+00  0.00000000000E+00  0.25965864174E+02  0.25965864174E+02  0.00000000000E+00 0. -1.
         21   -1    0    0  502  503 -0.00000000000E+00 -0.00000000000E+00 -0.21983004452E+04  0.21983004452E+04  0.00000000000E+00 0. -1.
         24    1    1    2    0    0  0.10802970619E+03 -0.67786552702E+02 -0.13319449425E+04  0.13404514090E+04  0.80419002446E+02 0. -1.
          1    1    1    2  501    0 -0.92231104409E+02  0.55122418654E+02 -0.11222550336E+03  0.15536930605E+03  0.00000000000E+00 0. -1.
         -2    1    1    2    0  503 -0.15798601778E+02  0.12664134048E+02 -0.72816413518E+03  0.72844559431E+03  0.00000000000E+00 0.  1.
<mgrwt>
<rscale>  2 0.13923465E+03</rscale>
<asrwt>0</asrwt>
<pdfrwt beam="1">  1       21 0.39947486E-02 0.13923465E+03</pdfrwt>
<pdfrwt beam="2">  1       21 0.33820005E+00 0.13923465E+03</pdfrwt>
<totfact> 0.86600345E+03</totfact>
</mgrwt>
</event>
<event>
 5    1  0.2051810E+000  0.1061644E+03  0.7546771E-02  0.1267842E+00
         21   -1    0    0  503  502  0.00000000000E+00  0.00000000000E+00  0.69697992049E+02  0.69697992049E+02  0.00000000000E+00 0.  1.
         21   -1    0    0  501  503 -0.00000000000E+00 -0.00000000000E+00 -0.16325849458E+03  0.16325849458E+03  0.00000000000E+00 0. -1.
         24    1    1    2    0    0  0.44205585719E+01  0.92737045419E+01 -0.41911770839E+02  0.91265302406E+02  0.80419002446E+02 0. -1.
          1    1    1    2  501    0 -0.59825697984E+02  0.26366204840E+02 -0.32942852618E+02  0.73208759282E+02  0.00000000000E+00 0. -1.
         -2    1    1    2    0  502  0.55405139412E+02 -0.35639909382E+02 -0.18705879075E+02  0.68482424943E+02  0.00000000000E+00 0.  1.
<mgrwt>
<rscale>  2 0.10616439E+03</rscale>
<asrwt>0</asrwt>
<pdfrwt beam="1">  1       21 0.10722768E-01 0.10616439E+03</pdfrwt>
<pdfrwt beam="2">  1       21 0.25116691E-01 0.10616439E+03</pdfrwt>
<totfact> 0.10742097E+06</totfact>
</mgrwt>
</event>
<event>
 5    1  0.2051810E+000  0.9677726E+02  0.7546771E-02  0.1287223E+00
         21   -1    0    0  501  502  0.00000000000E+00  0.00000000000E+00  0.23196134906E+03  0.23196134906E+03  0.00000000000E+00 0.  1.
         21   -1    0    0  502  503 -0.00000000000E+00 -0.00000000000E+00 -0.44473467252E+02  0.44473467252E+02  0.00000000000E+00 0. -1.
         24    1    1    2    0    0  0.66649323056E+02  0.94783902745E+01  0.14062789250E+03  0.17542916591E+03  0.80419002446E+02 0.  1.
          1    1    1    2  501    0 -0.61423788652E+02 -0.29389036315E+02  0.41469880906E+02  0.79726710018E+02  0.00000000000E+00 0. -1.
         -2    1    1    2    0  503 -0.52255344042E+01  0.19910646040E+02  0.53901084000E+01  0.21278940390E+02  0.00000000000E+00 0.  1.
<mgrwt>
<rscale>  2 0.96777262E+02</rscale>
<asrwt>0</asrwt>
<pdfrwt beam="1">  1       21 0.35686361E-01 0.96777262E+02</pdfrwt>
<pdfrwt beam="2">  1       21 0.68420720E-02 0.96777262E+02</pdfrwt>
<totfact> 0.11855603E+06</totfact>
</mgrwt>
</event>
<event>
 5    1  0.2051810E+000  0.9674977E+02  0.7546771E-02  0.1287283E+00
         21   -1    0    0  501  502  0.00000000000E+00  0.00000000000E+00  0.42450534502E+02  0.42450534502E+02  0.00000000000E+00 0. -1.
         21   -1    0    0  502  503 -0.00000000000E+00 -0.00000000000E+00 -0.43250417950E+03  0.43250417950E+03  0.00000000000E+00 0.  1.
         24    1    1    2    0    0  0.15273359636E+02 -0.34817285797E+02 -0.33903950907E+02  0.95195655081E+02  0.80419002446E+02 0.  0.
          1    1    1    2  501    0  0.40430034501E+02  0.33490326700E+01 -0.39187279315E+02  0.56404313396E+02  0.00000000000E+00 0. -1.
         -2    1    1    2    0  503 -0.55703394138E+02  0.31468253127E+02 -0.31696241478E+03  0.32335474553E+03  0.00000000000E+00 0.  1.
<mgrwt>
<rscale>  2 0.96749775E+02</rscale>
<asrwt>0</asrwt>
<pdfrwt beam="1">  1       21 0.65308513E-02 0.96749775E+02</pdfrwt>
<pdfrwt beam="2">  1       21 0.66539106E-01 0.96749775E+02</pdfrwt>
<totfact> 0.35953289E+05</totfact>
</mgrwt>
</event>
<event>
 5    1  0.2051810E+000  0.1021574E+03  0.7546771E-02  0.1275824E+00
         21   -1    0    0  503  502  0.00000000000E+00  0.00000000000E+00  0.94853403091E+03  0.94853403091E+03  0.00000000000E+00 0.  1.
         21   -1    0    0  501  503 -0.00000000000E+00 -0.00000000000E+00 -0.27422466336E+02  0.27422466336E+02  0.00000000000E+00 0. -1.
         24    1    1    2    0    0 -0.68949395549E+01  0.12775934627E+02  0.19483054617E+03  0.21127451898E+03  0.80419002446E+02 0.  0.
          1    1    1    2  501    0 -0.51204465822E+02  0.21055126746E+02  0.25972743547E+02  0.61153896767E+02  0.00000000000E+00 0. -1.
         -2    1    1    2    0  502  0.58099405377E+02 -0.33831061373E+02  0.70030827486E+03  0.70352808150E+03  0.00000000000E+00 0.  1.
<mgrwt>
<rscale>  2 0.10215743E+03</rscale>
<asrwt>0</asrwt>
<pdfrwt beam="1">  1       21 0.14592829E+00 0.10215743E+03</pdfrwt>
<pdfrwt beam="2">  1       21 0.42188417E-02 0.10215743E+03</pdfrwt>
<totfact> 0.12037983E+05</totfact>
</mgrwt>
</event>
<event>
 5    1  0.2051810E+000  0.8650355E+02  0.7546771E-02  0.1311547E+00
         21   -1    0    0  501  502  0.00000000000E+00  0.00000000000E+00  0.22219652876E+03  0.22219652876E+03  0.00000000000E+00 0.  1.
         21   -1    0    0  502  503 -0.00000000000E+00 -0.00000000000E+00 -0.98375366123E+02  0.98375366123E+02  0.00000000000E+00 0.  1.
         24    1    1    2    0    0  0.56620838546E+02 -0.14109449169E+01  0.68403660729E+02  0.11980895993E+03  0.80419002446E+02 0.  1.
          1    1    1    2  501    0 -0.39706673601E+02 -0.22283983566E+02  0.12085174589E+03  0.12914464889E+03  0.00000000000E+00 0. -1.
         -2    1    1    2    0  503 -0.16914164945E+02  0.23694928483E+02 -0.65434243991E+02  0.71618286060E+02  0.00000000000E+00 0.  1.
<mgrwt>
<rscale>  2 0.86503548E+02</rscale>
<asrwt>0</asrwt>
<pdfrwt beam="1">  1       21 0.34184081E-01 0.86503548E+02</pdfrwt>
<pdfrwt beam="2">  1       21 0.15134672E-01 0.86503548E+02</pdfrwt>
<totfact> 0.32447829E+05</totfact>
</mgrwt>
</event>
<event>
 5    1  0.2051810E+000  0.8298919E+02  0.7546771E-02  0.1320776E+00
         21   -1    0    0  503  502  0.00000000000E+00  0.00000000000E+00  0.70308261452E+01  0.70308261452E+01  0.00000000000E+00 0. -1.
         21   -1    0    0  501  503 -0.00000000000E+00 -0.00000000000E+00 -0.13815005733E+04  0.13815005733E+04  0.00000000000E+00 0. -1.
         24    1    1    2    0    0  0.23748315534E+02 -0.32259105007E+02 -0.68086989142E+03  0.68677191071E+03  0.80419002446E+02 0. -1.
          1    1    1    2  501    0 -0.45474873364E+02  0.29567998385E+02 -0.65608847706E+03  0.65832690996E+03  0.00000000000E+00 0. -1.
         -2    1    1    2    0  502  0.21726557830E+02  0.26911066228E+01 -0.37511378717E+02  0.43432578823E+02  0.00000000000E+00 0.  1.
<mgrwt>
<rscale>  2 0.82989193E+02</rscale>
<asrwt>0</asrwt>
<pdfrwt beam="1">  1       21 0.10816658E-02 0.82989193E+02</pdfrwt>
<pdfrwt beam="2">  1       21 0.21253850E+00 0.82989193E+02</pdfrwt>
<totfact> 0.39206115E+05</totfact>
</mgrwt>
</event>
<event>
 5    1  0.2051810E+000  0.1009734E+03  0.7546771E-02  0.1278262E+00
         21   -1    0    0  501  502  0.00000000000E+00  0.00000000000E+00  0.76243861337E+03  0.76243861337E+03  0.00000000000E+00 0. -1.
         21   -1    0    0  502  503 -0.00000000000E+00 -0.00000000000E+00 -0.64311478918E+02  0.64311478918E+02  0.00000000000E+00 0.  1.
         24    1    1    2    0    0 -0.28243741330E+02 -0.44045396683E+02  0.16066674663E+03  0.18713290817E+03  0.80419002446E+02 0. -1.
          1    1    1    2  501    0  0.38860669339E+02  0.68829461604E+02  0.58211344190E+03  0.58745527970E+03  0.00000000000E+00 0. -1.
         -2    1    1    2    0  503 -0.10616928009E+02 -0.24784064920E+02 -0.44653054076E+02  0.52161904419E+02  0.00000000000E+00 0.  1.
<mgrwt>
<rscale>  2 0.10097335E+03</rscale>
<asrwt>0</asrwt>
<pdfrwt beam="1">  1       21 0.11729824E+00 0.10097335E+03</pdfrwt>
<pdfrwt beam="2">  1       21 0.98940742E-02 0.10097335E+03</pdfrwt>
<totfact> 0.48799145E+04</totfact>
</mgrwt>
</event>
<event>
 5    1  0.2799960E+000  0.8645547E+02  0.7546771E-02  0.1311670E+00
         21   -1    0    0  503  502  0.00000000000E+00  0.00000000000E+00  0.48451091170E+03  0.48451091170E+03  0.00000000000E+00 0. -1.
         21   -1    0    0  501  503 -0.00000000000E+00 -0.00000000000E+00 -0.21035370615E+03  0.21035370615E+03  0.00000000000E+00 0. -1.
         24    1    1    2    0    0  0.86242227189E+01 -0.65301634350E+02  0.32106725466E+03  0.33747604157E+03  0.80419002446E+02 0. -1.
          1    1    1    2  501    0 -0.15385770884E+02  0.44231483749E+02 -0.19862356325E+03  0.20406975762E+03  0.00000000000E+00 0. -1.
         -2    1    1    2    0  502  0.67615481648E+01  0.21070150601E+02  0.15171351414E+03  0.15331881865E+03  0.00000000000E+00 0.  1.
<mgrwt>
<rscale>  2 0.86455468E+02</rscale>
<asrwt>0</asrwt>
<pdfrwt beam="1">  1       21 0.74540140E-01 0.86455468E+02</pdfrwt>
<pdfrwt beam="2">  1       21 0.32362109E-01 0.86455468E+02</pdfrwt>
<totfact> 0.16136896E+04</totfact>
</mgrwt>
</event>
<event>
 5    1  0.2051810E+000  0.8555199E+02  0.7546771E-02  0.1313995E+00
         21   -1    0    0  503  502  0.00000000000E+00  0.00000000000E+00  0.77369427260E+03  0.77369427260E+03  0.00000000000E+00 0. -1.
         21   -1    0    0  501  503 -0.00000000000E+00 -0.00000000000E+00 -0.12067174362E+02  0.12067174362E+02  0.00000000000E+00 0. -1.
         24    1    1    2    0    0  0.37149543792E+02  0.55005095530E+02  0.42125832740E+03  0.43397170817E+03  0.80419002446E+02 0.  0.
          1    1    1    2  501    0 -0.17498356303E+02 -0.19126777801E+02  0.34274373930E+02  0.42973931757E+02  0.00000000000E+00 0. -1.
         -2    1    1    2    0  502 -0.19651187489E+02 -0.35878317729E+02  0.30609439691E+03  0.30881580703E+03  0.00000000000E+00 0.  1.
<mgrwt>
<rscale>  2 0.85551995E+02</rscale>
<asrwt>0</asrwt>
<pdfrwt beam="1">  1       21 0.11902985E+00 0.85551995E+02</pdfrwt>
<pdfrwt beam="2">  1       21 0.18564890E-02 0.85551995E+02</pdfrwt>
<totfact> 0.75867514E+05</totfact>
</mgrwt>
</event>
<event>
 5    1  0.2051810E+000  0.9492262E+02  0.7546771E-02  0.1291350E+00
         21   -1    0    0  503  502  0.00000000000E+00  0.00000000000E+00  0.21612988534E+03  0.21612988534E+03  0.00000000000E+00 0. -1.
         21   -1    0    0  501  503 -0.00000000000E+00 -0.00000000000E+00 -0.10749034555E+03  0.10749034555E+03  0.00000000000E+00 0. -1.
         24    1    1    2    0    0 -0.45966271300E+02  0.41172821800E+02 -0.58714939632E+02  0.11714418228E+03  0.80419002446E+02 0. -1.
          1    1    1    2  501    0 -0.12963733807E+02 -0.23697225939E+02 -0.12261462495E+01  0.27039237157E+02  0.00000000000E+00 0. -1.
         -2    1    1    2    0  502  0.58930005107E+02 -0.17475595861E+02  0.16858062567E+03  0.17943681146E+03  0.00000000000E+00 0.  1.
<mgrwt>
<rscale>  2 0.94922622E+02</rscale>
<asrwt>0</asrwt>
<pdfrwt beam="1">  1       21 0.33250752E-01 0.94922622E+02</pdfrwt>
<pdfrwt beam="2">  1       21 0.16536976E-01 0.94922622E+02</pdfrwt>
<totfact> 0.29165095E+05</totfact>
</mgrwt>
</event>
<event>
 5    1  0.2051810E+000  0.8312647E+02  0.7546771E-02  0.1320406E+00
         21   -1    0    0  501  502  0.00000000000E+00  0.00000000000E+00  0.45327927094E+02  0.45327927094E+02  0.00000000000E+00 0. -1.
         21   -1    0    0  502  503 -0.00000000000E+00 -0.00000000000E+00 -0.16913184721E+03  0.16913184721E+03  0.00000000000E+00 0.  1.
         24    1    1    2    0    0  0.10775124028E+02  0.89188484559E+00 -0.77913474183E+02  0.11249277386E+03  0.80419002446E+02 0.  1.
          1    1    1    2  501    0  0.33540951958E+02 -0.17441702898E+02 -0.26844060672E+01  0.37900059289E+02  0.00000000000E+00 0. -1.
         -2    1    1    2    0  503 -0.44316075986E+02  0.16549818052E+02 -0.43206039864E+02  0.64066941156E+02  0.00000000000E+00 0.  1.
<mgrwt>
<rscale>  2 0.83126470E+02</rscale>
<asrwt>0</asrwt>
<pdfrwt beam="1">  1       21 0.69735273E-02 0.83126470E+02</pdfrwt>
<pdfrwt beam="2">  1       21 0.26020284E-01 0.83126470E+02</pdfrwt>
<totfact> 0.20907266E+06</totfact>
</mgrwt>
</event>
<event>
 5    1  0.2051810E+000  0.8338464E+02  0.7546771E-02  0.1319712E+00
         21   -1    0    0  503  502  0.00000000000E+00  0.00000000000E+00  0.59946902675E+03  0.59946902675E+03  0.00000000000E+00 0.  1.
         21   -1    0    0  501  503 -0.00000000000E+00 -0.00000000000E+00 -0.18985017265E+02  0.18985017265E+02  0.00000000000E+00 0.  1.
         24    1    1    2    0    0 -0.11169300962E+02 -0.61746783922E+02  0.15001890213E+03  0.18141197744E+03  0.80419002446E+02 0.  1.
          1    1    1    2  501    0 -0.20634060167E+00  0.41823505459E+02  0.15248387123E+03  0.15811571450E+03  0.00000000000E+00 0. -1.
         -2    1    1    2    0  502  0.11375641563E+02  0.19923278463E+02  0.27798123612E+03  0.27892635207E+03  0.00000000000E+00 0.  1.
<mgrwt>
<rscale>  2 0.83384637E+02</rscale>
<asrwt>0</asrwt>
<pdfrwt beam="1">  1       21 0.92225989E-01 0.83384637E+02</pdfrwt>
<pdfrwt beam="2">  1       21 0.29207723E-02 0.83384637E+02</pdfrwt>
<totfact> 0.66377562E+05</totfact>
</mgrwt>
</event>
<event>
 5    1  0.2051810E+000  0.7250729E+02  0.7546771E-02  0.1351769E+00
         21   -1    0    0  503  502  0.00000000000E+00  0.00000000000E+00  0.97549550571E+02  0.97549550571E+02  0.00000000000E+00 0.  1.
         21   -1    0    0  501  503 -0.00000000000E+00 -0.00000000000E+00 -0.88919164774E+02  0.88919164774E+02  0.00000000000E+00 0.  1.
         24    1    1    2    0    0  0.40896097790E+02  0.14909600796E+02  0.54110580694E+02  0.10625421360E+03  0.80419002446E+02 0.  1.
          1    1    1    2  501    0 -0.33259642725E+02  0.36906272159E+01 -0.49460623867E+02  0.59717483844E+02  0.00000000000E+00 0. -1.
         -2    1    1    2    0  502 -0.76364550655E+01 -0.18600228012E+02  0.39804289693E+01  0.20497017901E+02  0.00000000000E+00 0.  1.
<mgrwt>
<rscale>  2 0.72507290E+02</rscale>
<asrwt>0</asrwt>
<pdfrwt beam="1">  1       21 0.15007623E-01 0.72507290E+02</pdfrwt>
<pdfrwt beam="2">  1       21 0.13679872E-01 0.72507290E+02</pdfrwt>
<totfact> 0.17729788E+06</totfact>
</mgrwt>
</event>
<event>
 5    1  0.2051810E+000  0.7714004E+02  0.7546771E-02  0.1337369E+00
         21   -1    0    0  503  502  0.00000000000E+00  0.00000000000E+00  0.12623670399E+04  0.12623670399E+04  0.00000000000E+00 0. -1.
         21   -1    0    0  501  503 -0.00000000000E+00 -0.00000000000E+00 -0.49891910464E+01  0.49891910464E+01  0.00000000000E+00 0.  1.
         24    1    1    2    0    0 -0.50280636139E+02  0.64845107773E+01  0.77924776478E+03  0.78502514999E+03  0.80419002446E+02 0.  0.
          1    1    1    2  501    0  0.31501341160E+02 -0.18868366086E+02  0.20390774302E+03  0.20718763813E+03  0.00000000000E+00 0. -1.
         -2    1    1    2    0  502  0.18779294979E+02  0.12383855309E+02  0.27422234111E+03  0.27514344287E+03  0.00000000000E+00 0.  1.
<mgrwt>
<rscale>  2 0.77140044E+02</rscale>
<asrwt>0</asrwt>
<pdfrwt beam="1">  1       21 0.19421006E+00 0.77140044E+02</pdfrwt>
<pdfrwt beam="2">  1       21 0.76756886E-03 0.77140044E+02</pdfrwt>
<totfact> 0.86545036E+05</totfact>
</mgrwt>
</event>
<event>
 5    1  0.2051810E+000  0.7273603E+02  0.7546771E-02  0.1351029E+00
         21   -1    0    0  503  502  0.00000000000E+00  0.00000000000E+00  0.22615729896E+04  0.22615729896E+04  0.00000000000E+00 0.  1.
         21   -1    0    0  501  503 -0.00000000000E+00 -0.00000000000E+00 -0.60684867412E+02  0.60684867412E+02  0.00000000000E+00 0. -1.
         24    1    1    2    0    0  0.34016472231E+02  0.33269718524E+02  0.21608848085E+03  0.23542608620E+03  0.80419002446E+02 0.  1.
          1    1    1    2  501    0 -0.62195609453E+01 -0.20534494738E+02 -0.48640143343E+02  0.53162128973E+02  0.00000000000E+00 0. -1.
         -2    1    1    2    0  502 -0.27796911285E+02 -0.12735223786E+02  0.20334397847E+04  0.20336696418E+04  0.00000000000E+00 0.  1.
<mgrwt>
<rscale>  2 0.72736032E+02</rscale>
<asrwt>0</asrwt>
<pdfrwt beam="1">  1       21 0.34793424E+00 0.72736032E+02</pdfrwt>
<pdfrwt beam="2">  1       21 0.93361352E-02 0.72736032E+02</pdfrwt>
<totfact> 0.21369784E+03</totfact>
</mgrwt>
</event>
<event>
 5    1  0.2051810E+000  0.6227750E+02  0.7546771E-02  0.1388515E+00
         21   -1    0    0  501  502  0.00000000000E+00  0.00000000000E+00  0.17869873399E+03  0.17869873399E+03  0.00000000000E+00 0. -1.
         21   -1    0    0  502  503 -0.00000000000E+00 -0.00000000000E+00 -0.81279299213E+02  0.81279299213E+02  0.00000000000E+00 0. -1.
         24    1    1    2    0    0 -0.10788078916E+02  0.40967099906E+01  0.34280380287E+02  0.88178943668E+02  0.80419002446E+02 0.  0.
          1    1    1    2  501    0 -0.18628948094E+01 -0.21619652903E+02  0.11425735325E+03  0.11629970997E+03  0.00000000000E+00 0. -1.
         -2    1    1    2    0  503  0.12650973725E+02  0.17522942912E+02 -0.51118298754E+02  0.55499379564E+02  0.00000000000E+00 0.  1.
<mgrwt>
<rscale>  2 0.62277504E+02</rscale>
<asrwt>0</asrwt>
<pdfrwt beam="1">  1       21 0.27492113E-01 0.62277504E+02</pdfrwt>
<pdfrwt beam="2">  1       21 0.12504508E-01 0.62277504E+02</pdfrwt>
<totfact> 0.68673365E+05</totfact>
</mgrwt>
</event>
<event>
 5    1  0.2051810E+000  0.9186471E+02  0.7546771E-02  0.1298398E+00
         21   -1    0    0  503  502  0.00000000000E+00  0.00000000000E+00  0.50171455880E+03  0.50171455880E+03  0.00000000000E+00 0.  1.
         21   -1    0    0  501  503 -0.00000000000E+00 -0.00000000000E+00 -0.17233189829E+03  0.17233189829E+03  0.00000000000E+00 0. -1.
         24    1    1    2    0    0 -0.54811049304E+02 -0.12108864566E+02 -0.28576476044E+02  0.10215041196E+03  0.80419002446E+02 0.  0.
          1    1    1    2  501    0  0.65092749936E+02 -0.54387766604E+01 -0.96748176204E+02  0.11673412519E+03  0.00000000000E+00 0. -1.
         -2    1    1    2    0  502 -0.10281700632E+02  0.17547641227E+02  0.45470731276E+03  0.45516191994E+03  0.00000000000E+00 0.  1.
<mgrwt>
<rscale>  2 0.91864706E+02</rscale>
<asrwt>0</asrwt>
<pdfrwt beam="1">  1       21 0.77186855E-01 0.91864706E+02</pdfrwt>
<pdfrwt beam="2">  1       21 0.26512600E-01 0.91864706E+02</pdfrwt>
<totfact> 0.21724283E+04</totfact>
</mgrwt>
</event>
<event>
 5    1  0.2051810E+000  0.1150949E+03  0.7546771E-02  0.1251415E+00
         21   -1    0    0  501  502  0.00000000000E+00  0.00000000000E+00  0.50391027338E+03  0.50391027338E+03  0.00000000000E+00 0.  1.
         21   -1    0    0  502  503 -0.00000000000E+00 -0.00000000000E+00 -0.34453216455E+02  0.34453216455E+02  0.00000000000E+00 0. -1.
         24    1    1    2    0    0  0.64772803099E+02  0.24583742914E+02  0.32706508324E+03  0.34385848988E+03  0.80419002446E+02 0.  1.
          1    1    1    2  501    0 -0.56610163752E+02 -0.63041610809E+02  0.12615987960E+03  0.15197128200E+03  0.00000000000E+00 0. -1.
         -2    1    1    2    0  503 -0.81626393468E+01  0.38457867895E+02  0.16232094091E+02  0.42533717950E+02  0.00000000000E+00 0.  1.
<mgrwt>
<rscale>  2 0.11509493E+03</rscale>
<asrwt>0</asrwt>
<pdfrwt beam="1">  1       21 0.77524652E-01 0.11509493E+03</pdfrwt>
<pdfrwt beam="2">  1       21 0.53004952E-02 0.11509493E+03</pdfrwt>
<totfact> 0.36532425E+05</totfact>
</mgrwt>
</event>
<event>
 5    1  0.2051810E+000  0.7835866E+02  0.7546771E-02  0.1333775E+00
         21   -1    0    0  503  502  0.00000000000E+00  0.00000000000E+00  0.11618891457E+03  0.11618891457E+03  0.00000000000E+00 0. -1.
         21   -1    0    0  501  503 -0.00000000000E+00 -0.00000000000E+00 -0.60141234789E+02  0.60141234789E+02  0.00000000000E+00 0.  1.
         24    1    1    2    0    0  0.11268398484E+01 -0.25373898116E+02  0.18547567082E+02  0.86350058904E+02  0.80419002446E+02 0.  1.
          1    1    1    2  501    0  0.27063835704E+02  0.33479130999E+02  0.87794294471E+00  0.43058961892E+02  0.00000000000E+00 0. -1.
         -2    1    1    2    0  502 -0.28190675552E+02 -0.81052328827E+01  0.36622169759E+02  0.46921128567E+02  0.00000000000E+00 0.  1.
<mgrwt>
<rscale>  2 0.78358657E+02</rscale>
<asrwt>0</asrwt>
<pdfrwt beam="1">  1       21 0.17875218E-01 0.78358657E+02</pdfrwt>
<pdfrwt beam="2">  1       21 0.92524977E-02 0.78358657E+02</pdfrwt>
<totfact> 0.25685071E+06</totfact>
</mgrwt>
</event>
<event>
 5    1  0.2051810E+000  0.8206135E+02  0.7546771E-02  0.1323301E+00
         21   -1    0    0  503  502  0.00000000000E+00  0.00000000000E+00  0.83914891706E+02  0.83914891706E+02  0.00000000000E+00 0.  1.
         21   -1    0    0  501  503 -0.00000000000E+00 -0.00000000000E+00 -0.88444041489E+02  0.88444041489E+02  0.00000000000E+00 0. -1.
         24    1    1    2    0    0 -0.90215702344E+01 -0.21637082076E+02 -0.13224992768E+02  0.84803705334E+02  0.80419002446E+02 0. -1.
          1    1    1    2  501    0 -0.33993635362E+02  0.13512507796E+02 -0.12840070438E+02  0.38768834402E+02  0.00000000000E+00 0. -1.
         -2    1    1    2    0  502  0.43015205597E+02  0.81245742795E+01  0.21535913423E+02  0.48786393459E+02  0.00000000000E+00 0.  1.
<mgrwt>
<rscale>  2 0.82061354E+02</rscale>
<asrwt>0</asrwt>
<pdfrwt beam="1">  1       21 0.12909983E-01 0.82061354E+02</pdfrwt>
<pdfrwt beam="2">  1       21 0.13606776E-01 0.82061354E+02</pdfrwt>
<totfact> 0.23485446E+06</totfact>
</mgrwt>
</event>
<event>
 5    1  0.2051810E+000  0.9015868E+02  0.7546771E-02  0.1302468E+00
         21   -1    0    0  503  502  0.00000000000E+00  0.00000000000E+00  0.39285058192E+02  0.39285058192E+02  0.00000000000E+00 0.  1.
         21   -1    0    0  501  503 -0.00000000000E+00 -0.00000000000E+00 -0.33089150992E+03  0.33089150992E+03  0.00000000000E+00 0. -1.
         24    1    1    2    0    0  0.24034434614E+02  0.18722125035E+02 -0.20624133312E+03  0.22345217711E+03  0.80419002446E+02 0.  0.
          1    1    1    2  501    0  0.24861429387E+02  0.20033528408E+02 -0.77523640783E+02  0.83841205931E+02  0.00000000000E+00 0. -1.
         -2    1    1    2    0  502 -0.48895864000E+02 -0.38755653443E+02 -0.78414778228E+01  0.62883185071E+02  0.00000000000E+00 0.  1.
<mgrwt>
<rscale>  2 0.90158679E+02</rscale>
<asrwt>0</asrwt>
<pdfrwt beam="1">  1       21 0.60438551E-02 0.90158679E+02</pdfrwt>
<pdfrwt beam="2">  1       21 0.50906386E-01 0.90158679E+02</pdfrwt>
<totfact> 0.71801667E+05</totfact>
</mgrwt>
</event>
<event>
 5    1  0.2051810E+000  0.1561148E+03  0.7546771E-02  0.1193154E+00
         21   -1    0    0  503  502  0.00000000000E+00  0.00000000000E+00  0.14662953650E+03  0.14662953650E+03  0.00000000000E+00 0.  1.
         21   -1    0    0  501  503 -0.00000000000E+00 -0.00000000000E+00 -0.31869290429E+03  0.31869290429E+03  0.00000000000E+00 0.  1.
         24    1    1    2    0    0 -0.50038017635E+02  0.37924574226E+02 -0.11106546571E+03  0.15081389249E+03  0.80419002446E+02 0.  1.
          1    1    1    2  501    0  0.59589735304E+02  0.75609160011E+02 -0.14423232152E+03  0.17340889309E+03  0.00000000000E+00 0. -1.
         -2    1    1    2    0  502 -0.95517176687E+01 -0.11353373424E+03  0.83234419443E+02  0.14109965521E+03  0.00000000000E+00 0.  1.
<mgrwt>
<rscale>  2 0.15611478E+03</rscale>
<asrwt>0</asrwt>
<pdfrwt beam="1">  1       21 0.22558390E-01 0.15611478E+03</pdfrwt>
<pdfrwt beam="2">  1       21 0.49029678E-01 0.15611478E+03</pdfrwt>
<totfact> 0.74247445E+04</totfact>
</mgrwt>
</event>
<event>
 5    1  0.2051810E+000  0.7228723E+02  0.7546771E-02  0.1352484E+00
         21   -1    0    0  503  502  0.00000000000E+00  0.00000000000E+00  0.92420209973E+03  0.92420209973E+03  0.00000000000E+00 0. -1.
         21   -1    0    0  501  503 -0.00000000000E+00 -0.00000000000E+00 -0.11047581799E+02  0.11047581799E+02  0.00000000000E+00 0.  1.
         24    1    1    2    0    0 -0.41386781938E+01  0.10922323517E+02  0.39354809022E+03  0.40185039639E+03  0.80419002446E+02 0. -1.
          1    1    1    2  501    0  0.23942758997E+02  0.16795197258E+02  0.27594092095E+02  0.40209057162E+02  0.00000000000E+00 0. -1.
         -2    1    1    2    0  502 -0.19804080803E+02 -0.27717520775E+02  0.49201233562E+03  0.49319022798E+03  0.00000000000E+00 0.  1.
<mgrwt>
<rscale>  2 0.72287229E+02</rscale>
<asrwt>0</asrwt>
<pdfrwt beam="1">  1       21 0.14218488E+00 0.72287229E+02</pdfrwt>
<pdfrwt beam="2">  1       21 0.16996287E-02 0.72287229E+02</pdfrwt>
<totfact> 0.56607236E+05</totfact>
</mgrwt>
</event>
<event>
 5    1  0.2051810E+000  0.6896693E+02  0.7546771E-02  0.1363642E+00
         21   -1    0    0  501  502  0.00000000000E+00  0.00000000000E+00  0.76397046964E+01  0.76397046964E+01  0.00000000000E+00 0.  1.
         21   -1    0    0  502  503 -0.00000000000E+00 -0.00000000000E+00 -0.69041556663E+03  0.69041556663E+03  0.00000000000E+00 0.  1.
         24    1    1    2    0    0  0.11154597282E+02 -0.22586902767E+02 -0.38714921779E+03  0.39621499972E+03  0.80419002446E+02 0.  1.
          1    1    1    2  501    0  0.17701113267E+02  0.16441237916E+02 -0.65187111849E+02  0.69519804849E+02  0.00000000000E+00 0. -1.
         -2    1    1    2    0  503 -0.28855710549E+02  0.61456648507E+01 -0.23043953230E+03  0.23232046676E+03  0.00000000000E+00 0.  1.
<mgrwt>
<rscale>  2 0.68966927E+02</rscale>
<asrwt>0</asrwt>
<pdfrwt beam="1">  1       21 0.11753386E-02 0.68966927E+02</pdfrwt>
<pdfrwt beam="2">  1       21 0.10621784E+00 0.68966927E+02</pdfrwt>
<totfact> 0.20320977E+06</totfact>
</mgrwt>
</event>
<event>
 5    1  0.2051810E+000  0.9858866E+02  0.7546771E-02  0.1283292E+00
         21   -1    0    0  503  502  0.00000000000E+00  0.00000000000E+00  0.37838603651E+02  0.37838603651E+02  0.00000000000E+00 0. -1.
         21   -1    0    0  501  503 -0.00000000000E+00 -0.00000000000E+00 -0.71362578268E+03  0.71362578268E+03  0.00000000000E+00 0. -1.
         24    1    1    2    0    0 -0.20383674033E+02  0.73101279982E+02 -0.53934222462E+02  0.12302604443E+03  0.80419002446E+02 0. -1.
          1    1    1    2  501    0  0.31917235431E+02 -0.37835215578E+02 -0.44436709206E+03  0.44711556220E+03  0.00000000000E+00 0. -1.
         -2    1    1    2    0  502 -0.11533561398E+02 -0.35266064404E+02 -0.17748586451E+03  0.18132277970E+03  0.00000000000E+00 0.  1.
<mgrwt>
<rscale>  2 0.98588662E+02</rscale>
<asrwt>0</asrwt>
<pdfrwt beam="1">  1       21 0.58213235E-02 0.98588662E+02</pdfrwt>
<pdfrwt beam="2">  1       21 0.10978859E+00 0.98588662E+02</pdfrwt>
<totfact> 0.14152749E+05</totfact>
</mgrwt>
</event>
<event>
 5    1  0.2051810E+000  0.1110391E+03  0.7546771E-02  0.1258658E+00
         21   -1    0    0  503  502  0.00000000000E+00  0.00000000000E+00  0.27875366740E+03  0.27875366740E+03  0.00000000000E+00 0. -1.
         21   -1    0    0  501  503 -0.00000000000E+00 -0.00000000000E+00 -0.66163070363E+02  0.66163070363E+02  0.00000000000E+00 0. -1.
         24    1    1    2    0    0  0.88727492865E+02 -0.34727620542E+02  0.17404985538E+03  0.21410077938E+03  0.80419002446E+02 0. -1.
          1    1    1    2  501    0 -0.45539091773E+02  0.70038626854E+01 -0.22327532401E+02  0.51199430418E+02  0.00000000000E+00 0. -1.
         -2    1    1    2    0  502 -0.43188401092E+02  0.27723757856E+02  0.60868274065E+02  0.79616527971E+02  0.00000000000E+00 0.  1.
<mgrwt>
<rscale>  2 0.11103915E+03</rscale>
<asrwt>0</asrwt>
<pdfrwt beam="1">  1       21 0.42885179E-01 0.11103915E+03</pdfrwt>
<pdfrwt beam="2">  1       21 0.10178934E-01 0.11103915E+03</pdfrwt>
<totfact> 0.41637576E+05</totfact>
</mgrwt>
</event>
<event>
 5    1  0.2051810E+000  0.7149418E+02  0.7546771E-02  0.1355084E+00
         21   -1    0    0  501  502  0.00000000000E+00  0.00000000000E+00  0.92361261710E+02  0.92361261710E+02  0.00000000000E+00 0. -1.
         21   -1    0    0  502  503 -0.00000000000E+00 -0.00000000000E+00 -0.16440104473E+03  0.16440104473E+03  0.00000000000E+00 0.  1.
         24    1    1    2    0    0 -0.46440492531E+01  0.10986508630E+02 -0.11125464544E+02  0.82056459106E+02  0.80419002446E+02 0. -1.
          1    1    1    2  501    0  0.76005534441E+01 -0.35852087767E+02  0.49442175679E+02  0.61544043951E+02  0.00000000000E+00 0. -1.
         -2    1    1    2    0  503 -0.29565041910E+01  0.24865579136E+02 -0.11035649416E+03  0.11316180339E+03  0.00000000000E+00 0.  1.
<mgrwt>
<rscale>  2 0.71494179E+02</rscale>
<asrwt>0</asrwt>
<pdfrwt beam="1">  1       21 0.14209425E-01 0.71494179E+02</pdfrwt>
<pdfrwt beam="2">  1       21 0.25292468E-01 0.71494179E+02</pdfrwt>
<totfact> 0.64271065E+05</totfact>
</mgrwt>
</event>
<event>
 5    1  0.2051810E+000  0.8593241E+02  0.7546771E-02  0.1313012E+00
         21   -1    0    0  503  502  0.00000000000E+00  0.00000000000E+00  0.46978627520E+03  0.46978627520E+03  0.00000000000E+00 0.  1.
         21   -1    0    0  501  503 -0.00000000000E+00 -0.00000000000E+00 -0.25032332523E+02  0.25032332523E+02  0.00000000000E+00 0. -1.
         24    1    1    2    0    0 -0.25626450934E+02 -0.61968036504E+02  0.14104567355E+03  0.17566402738E+03  0.80419002446E+02 0.  0.
          1    1    1    2  501    0  0.88154061429E+01  0.25982268030E+02  0.23441324122E+02  0.36087190443E+02  0.00000000000E+00 0. -1.
         -2    1    1    2    0  502  0.16811044792E+02  0.35985768474E+02  0.28026694501E+03  0.28306738990E+03  0.00000000000E+00 0.  1.
<mgrwt>
<rscale>  2 0.85932415E+02</rscale>
<asrwt>0</asrwt>
<pdfrwt beam="1">  1       21 0.72274805E-01 0.85932415E+02</pdfrwt>
<pdfrwt beam="2">  1       21 0.38511284E-02 0.85932415E+02</pdfrwt>
<totfact> 0.72547238E+05</totfact>
</mgrwt>
</event>
<event>
 5    1  0.2051810E+000  0.8991586E+02  0.7546771E-02  0.1303056E+00
         21   -1    0    0  503  502  0.00000000000E+00  0.00000000000E+00  0.89107748870E+02  0.89107748870E+02  0.00000000000E+00 0. -1.
         21   -1    0    0  501  503 -0.00000000000E+00 -0.00000000000E+00 -0.28792977730E+03  0.28792977730E+03  0.00000000000E+00 0. -1.
         24    1    1    2    0    0  0.28490940103E+02 -0.22599360082E+02  0.32808823410E+02  0.94159968097E+02  0.80419002446E+02 0. -1.
          1    1    1    2  501    0 -0.25180147236E+01 -0.31479437270E+02 -0.21938706064E+03  0.22164831997E+03  0.00000000000E+00 0. -1.
         -2    1    1    2    0  502 -0.25972925380E+02  0.54078797351E+02 -0.12243791199E+02  0.61229238103E+02  0.00000000000E+00 0.  1.
<mgrwt>
<rscale>  2 0.89915864E+02</rscale>
<asrwt>0</asrwt>
<pdfrwt beam="1">  1       21 0.13708885E-01 0.89915864E+02</pdfrwt>
<pdfrwt beam="2">  1       21 0.44296888E-01 0.89915864E+02</pdfrwt>
<totfact> 0.23203220E+05</totfact>
</mgrwt>
</event>
<event>
 5    1  0.2051810E+000  0.9258645E+02  0.7546771E-02  0.1296706E+00
         21   -1    0    0  503  502  0.00000000000E+00  0.00000000000E+00  0.20623080760E+03  0.20623080760E+03  0.00000000000E+00 0.  1.
         21   -1    0    0  501  503 -0.00000000000E+00 -0.00000000000E+00 -0.12364866158E+03  0.12364866158E+03  0.00000000000E+00 0. -1.
         24    1    1    2    0    0 -0.30904770115E+02  0.17917139861E+02  0.44191992533E+02  0.98469674901E+02  0.80419002446E+02 0. -1.
          1    1    1    2  501    0  0.31065533000E+02 -0.53354160633E+02 -0.83855104901E+02  0.10413170706E+03  0.00000000000E+00 0. -1.
         -2    1    1    2    0  502 -0.16076288486E+00  0.35437020773E+02  0.12224525839E+03  0.12727808722E+03  0.00000000000E+00 0.  1.
<mgrwt>
<rscale>  2 0.92586451E+02</rscale>
<asrwt>0</asrwt>
<pdfrwt beam="1">  1       21 0.31727816E-01 0.92586451E+02</pdfrwt>
<pdfrwt beam="2">  1       21 0.19022871E-01 0.92586451E+02</pdfrwt>
<totfact> 0.24782608E+05</totfact>
</mgrwt>
</event>
<event>
 5    1  0.2051810E+000  0.9802083E+02  0.7546771E-02  0.1284514E+00
         21   -1    0    0  501  502  0.00000000000E+00  0.00000000000E+00  0.31358663854E+03  0.31358663854E+03  0.00000000000E+00 0.  1.
         21   -1    0    0  502  503 -0.00000000000E+00 -0.00000000000E+00 -0.54583573294E+02  0.54583573294E+02  0.00000000000E+00 0.  1.
         24    1    1    2    0    0  0.29238089610E+02  0.75655014187E+02  0.12901375638E+03  0.17230877037E+03  0.80419002446E+02 0.  1.
          1    1    1    2  501    0 -0.12094603132E+02 -0.18094951895E+02  0.13391720354E+03  0.13567433108E+03  0.00000000000E+00 0. -1.
         -2    1    1    2    0  503 -0.17143486478E+02 -0.57560062292E+02 -0.39278946814E+01  0.60187110383E+02  0.00000000000E+00 0.  1.
<mgrwt>
<rscale>  2 0.98020829E+02</rscale>
<asrwt>0</asrwt>
<pdfrwt beam="1">  1       21 0.48244097E-01 0.98020829E+02</pdfrwt>
<pdfrwt beam="2">  1       21 0.83974730E-02 0.98020829E+02</pdfrwt>
<totfact> 0.45827662E+05</totfact>
</mgrwt>
</event>
<event>
 5    1  0.2051810E+000  0.8587321E+02  0.7546771E-02  0.1313165E+00
         21   -1    0    0  503  502  0.00000000000E+00  0.00000000000E+00  0.44397320910E+03  0.44397320910E+03  0.00000000000E+00 0.  1.
         21   -1    0    0  501  503 -0.00000000000E+00 -0.00000000000E+00 -0.50791261844E+02  0.50791261844E+02  0.00000000000E+00 0.  1.
         24    1    1    2    0    0 -0.51714793509E+02  0.62571171837E+01  0.19111159852E+02  0.97703755140E+02  0.80419002446E+02 0.  1.
          1    1    1    2  501    0  0.39874231081E+01  0.20723970552E+02  0.22546826067E+01  0.21224186490E+02  0.00000000000E+00 0. -1.
         -2    1    1    2    0  502  0.47727370401E+02 -0.26981087736E+02  0.37181610480E+03  0.37583652932E+03  0.00000000000E+00 0.  1.
<mgrwt>
<rscale>  2 0.85873214E+02</rscale>
<asrwt>0</asrwt>
<pdfrwt beam="1">  1       21 0.68303568E-01 0.85873214E+02</pdfrwt>
<pdfrwt beam="2">  1       21 0.78140406E-02 0.85873214E+02</pdfrwt>
<totfact> 0.25125508E+05</totfact>
</mgrwt>
</event>
<event>
 5    1  0.2370113E+000  0.7092880E+02  0.7546771E-02  0.1356963E+00
         21   -1    0    0  503  502  0.00000000000E+00  0.00000000000E+00  0.20470587596E+03  0.20470587596E+03  0.00000000000E+00 0. -1.
         21   -1    0    0  501  503 -0.00000000000E+00 -0.00000000000E+00 -0.15082260885E+03  0.15082260885E+03  0.00000000000E+00 0. -1.
         24    1    1    2    0    0 -0.30611194545E+02 -0.22935980702E+02  0.93886897990E+02  0.12940274344E+03  0.80419002446E+02 0. -1.
          1    1    1    2  501    0 -0.11619169468E+01  0.20937109455E+02 -0.12947349127E+03  0.13116057923E+03  0.00000000000E+00 0. -1.
         -2    1    1    2    0  502  0.31773111492E+02  0.19988712468E+01  0.89469860394E+02  0.94965162133E+02  0.00000000000E+00 0.  1.
<mgrwt>
<rscale>  2 0.70928798E+02</rscale>
<asrwt>0</asrwt>
<pdfrwt beam="1">  1       21 0.31493211E-01 0.70928798E+02</pdfrwt>
<pdfrwt beam="2">  1       21 0.23203478E-01 0.70928798E+02</pdfrwt>
<totfact> 0.17570764E+05</totfact>
</mgrwt>
</event>
<event>
 5    1  0.2051810E+000  0.7370833E+02  0.7546771E-02  0.1347918E+00
         21   -1    0    0  503  502  0.00000000000E+00  0.00000000000E+00  0.84197003993E+01  0.84197003993E+01  0.00000000000E+00 0. -1.
         21   -1    0    0  501  503 -0.00000000000E+00 -0.00000000000E+00 -0.69013902660E+03  0.69013902660E+03  0.00000000000E+00 0.  1.
         24    1    1    2    0    0  0.21025531533E+02 -0.39578833116E+02 -0.40466199751E+03  0.41500253637E+03  0.80419002446E+02 0.  0.
          1    1    1    2  501    0 -0.11418410547E+01  0.34909412520E+02 -0.22393719010E+03  0.22664473520E+03  0.00000000000E+00 0. -1.
         -2    1    1    2    0  502 -0.19883690479E+02  0.46694205966E+01 -0.53120138589E+02  0.56911455433E+02  0.00000000000E+00 0.  1.
<mgrwt>
<rscale>  2 0.73708326E+02</rscale>
<asrwt>0</asrwt>
<pdfrwt beam="1">  1       21 0.12953385E-02 0.73708326E+02</pdfrwt>
<pdfrwt beam="2">  1       21 0.10617524E+00 0.73708326E+02</pdfrwt>
<totfact> 0.17507745E+06</totfact>
</mgrwt>
</event>
<event>
 5    1  0.2051810E+000  0.6351359E+02  0.7546771E-02  0.1383652E+00
         21   -1    0    0  503  502  0.00000000000E+00  0.00000000000E+00  0.51574681329E+01  0.51574681329E+01  0.00000000000E+00 0. -1.
         21   -1    0    0  501  503 -0.00000000000E+00 -0.00000000000E+00 -0.84748046286E+03  0.84748046286E+03  0.00000000000E+00 0.  1.
         24    1    1    2    0    0 -0.29043125463E+02  0.82638176138E+01 -0.44683821356E+03  0.45502021809E+03  0.80419002446E+02 0.  1.
          1    1    1    2  501    0  0.10978010880E+02 -0.17636604690E+02 -0.20234743009E+03  0.20341103464E+03  0.00000000000E+00 0. -1.
         -2    1    1    2    0  502  0.18065114583E+02  0.93727870757E+01 -0.19313735107E+03  0.19420667826E+03  0.00000000000E+00 0.  1.
<mgrwt>
<rscale>  2 0.63513593E+02</rscale>
<asrwt>0</asrwt>
<pdfrwt beam="1">  1       21 0.79345659E-03 0.63513593E+02</pdfrwt>
<pdfrwt beam="2">  1       21 0.13038162E+00 0.63513593E+02</pdfrwt>
<totfact> 0.22927880E+06</totfact>
</mgrwt>
</event>
<event>
 5    1  0.2051810E+000  0.8685143E+02  0.7546771E-02  0.1310661E+00
         21   -1    0    0  501  502  0.00000000000E+00  0.00000000000E+00  0.17273339240E+03  0.17273339240E+03  0.00000000000E+00 0.  1.
         21   -1    0    0  502  503 -0.00000000000E+00 -0.00000000000E+00 -0.50514840998E+02  0.50514840998E+02  0.00000000000E+00 0. -1.
         24    1    1    2    0    0  0.20080907982E+02 -0.28446954497E+02  0.22210874924E+02  0.90404706763E+02  0.80419002446E+02 0.  0.
          1    1    1    2  501    0 -0.50222908900E+02  0.23778678733E+02  0.75340177775E+02  0.93615749358E+02  0.00000000000E+00 0. -1.
         -2    1    1    2    0  503  0.30142000918E+02  0.46682757646E+01  0.24667498704E+02  0.39227777279E+02  0.00000000000E+00 0.  1.
<mgrwt>
<rscale>  2 0.86851431E+02</rscale>
<asrwt>0</asrwt>
<pdfrwt beam="1">  1       21 0.26574368E-01 0.86851431E+02</pdfrwt>
<pdfrwt beam="2">  1       21 0.77715141E-02 0.86851431E+02</pdfrwt>
<totfact> 0.16750451E+06</totfact>
</mgrwt>
</event>
<event>
 5    1  0.2051810E+000  0.7186367E+02  0.7546771E-02  0.1353868E+00
         21   -1    0    0  503  502  0.00000000000E+00  0.00000000000E+00  0.22334313811E+02  0.22334313811E+02  0.00000000000E+00 0. -1.
         21   -1    0    0  501  503 -0.00000000000E+00 -0.00000000000E+00 -0.24333945647E+03  0.24333945647E+03  0.00000000000E+00 0.  1.
         24    1    1    2    0    0  0.10655781574E+02 -0.41783304387E+02 -0.12839958396E+03  0.15752161541E+03  0.80419002446E+02 0. -1.
          1    1    1    2  501    0 -0.17781636197E+02  0.11065347458E+02 -0.56271365920E+02  0.60042444343E+02  0.00000000000E+00 0. -1.
         -2    1    1    2    0  502  0.71258546235E+01  0.30717956929E+02 -0.36334192782E+02  0.48109710529E+02  0.00000000000E+00 0.  1.
<mgrwt>
<rscale>  2 0.71863671E+02</rscale>
<asrwt>0</asrwt>
<pdfrwt beam="1">  1       21 0.34360482E-02 0.71863671E+02</pdfrwt>
<pdfrwt beam="2">  1       21 0.37436841E-01 0.71863671E+02</pdfrwt>
<totfact> 0.33450948E+06</totfact>
</mgrwt>
</event>
<event>
 5    1  0.2051810E+000  0.6604151E+02  0.7546771E-02  0.1374096E+00
         21   -1    0    0  501  502  0.00000000000E+00  0.00000000000E+00  0.40772033648E+03  0.40772033648E+03  0.00000000000E+00 0. -1.
         21   -1    0    0  502  503 -0.00000000000E+00 -0.00000000000E+00 -0.16005043979E+02  0.16005043979E+02  0.00000000000E+00 0. -1.
         24    1    1    2    0    0 -0.13285388878E+02 -0.23545933224E+02  0.16102250997E+03  0.18200653065E+03  0.80419002446E+02 0. -1.
          1    1    1    2  501    0 -0.94202271922E+01  0.22635390570E+02  0.20856515916E+03  0.21000125524E+03  0.00000000000E+00 0. -1.
         -2    1    1    2    0  503  0.22705616070E+02  0.91054265385E+00  0.22127623373E+02  0.31717594568E+02  0.00000000000E+00 0.  1.
<mgrwt>
<rscale>  2 0.66041512E+02</rscale>
<asrwt>0</asrwt>
<pdfrwt beam="1">  1       21 0.62726198E-01 0.66041512E+02</pdfrwt>
<pdfrwt beam="2">  1       21 0.24623148E-02 0.66041512E+02</pdfrwt>
<totfact> 0.20111371E+06</totfact>
</mgrwt>
</event>
<event>
 5    1  0.2051810E+000  0.8474516E+02  0.7546771E-02  0.1316100E+00
         21   -1    0    0  501  502  0.00000000000E+00  0.00000000000E+00  0.64245460532E+03  0.64245460532E+03  0.00000000000E+00 0. -1.
         21   -1    0    0  502  503 -0.00000000000E+00 -0.00000000000E+00 -0.37707189428E+02  0.37707189428E+02  0.00000000000E+00 0.  1.
         24    1    1    2    0    0  0.41876254250E+01  0.64865352074E+02  0.51256785195E+02  0.11541024257E+03  0.80419002446E+02 0.  1.
          1    1    1    2  501    0  0.31776569446E+01 -0.40704877626E+02  0.52536486348E+03  0.52694897698E+03  0.00000000000E+00 0. -1.
         -2    1    1    2    0  503 -0.73652823696E+01 -0.24160474448E+02  0.28125767220E+02  0.37802575199E+02  0.00000000000E+00 0.  1.
<mgrwt>
<rscale>  2 0.84745161E+02</rscale>
<asrwt>0</asrwt>
<pdfrwt beam="1">  1       21 0.98839162E-01 0.84745161E+02</pdfrwt>
<pdfrwt beam="2">  1       21 0.58011065E-02 0.84745161E+02</pdfrwt>
<totfact> 0.18311492E+05</totfact>
</mgrwt>
</event>
<event>
 5    1  0.2051810E+000  0.7954243E+02  0.7546771E-02  0.1330355E+00
         21   -1    0    0  501  502  0.00000000000E+00  0.00000000000E+00  0.14361166525E+02  0.14361166525E+02  0.00000000000E+00 0.  1.
         21   -1    0    0  502  503 -0.00000000000E+00 -0.00000000000E+00 -0.76325459044E+03  0.76325459044E+03  0.00000000000E+00 0. -1.
         24    1    1    2    0    0  0.27119978576E+01  0.23788649930E+02 -0.39888103060E+03  0.40761077920E+03  0.80419002446E+02 0. -1.
          1    1    1    2  501    0  0.33505768576E+01  0.25398209084E+02 -0.11842726474E+02  0.28223138739E+02  0.00000000000E+00 0. -1.
         -2    1    1    2    0  503 -0.60625747152E+01 -0.49186859014E+02 -0.33816966684E+03  0.34178183902E+03  0.00000000000E+00 0.  1.
<mgrwt>
<rscale>  2 0.79542425E+02</rscale>
<asrwt>0</asrwt>
<pdfrwt beam="1">  1       21 0.22094099E-02 0.79542425E+02</pdfrwt>
<pdfrwt beam="2">  1       21 0.11742380E+00 0.79542425E+02</pdfrwt>
<totfact> 0.59371181E+05</totfact>
</mgrwt>
</event>
<event>
 5    1  0.2051810E+000  0.6702761E+02  0.7546771E-02  0.1370503E+00
         21   -1    0    0  503  502  0.00000000000E+00  0.00000000000E+00  0.24875844267E+03  0.24875844267E+03  0.00000000000E+00 0.  1.
         21   -1    0    0  501  503 -0.00000000000E+00 -0.00000000000E+00 -0.13571212992E+03  0.13571212992E+03  0.00000000000E+00 0. -1.
         24    1    1    2    0    0 -0.11340231311E+02 -0.36243133549E+02 -0.11537365854E+03  0.14567244975E+03  0.80419002446E+02 0. -1.
          1    1    1    2  501    0  0.16711403380E+02  0.12746273194E+02  0.20077984370E+02  0.29066543304E+02  0.00000000000E+00 0. -1.
         -2    1    1    2    0  502 -0.53711720698E+01  0.23496860354E+02  0.20834198693E+03  0.20973157954E+03  0.00000000000E+00 0.  1.
<mgrwt>
<rscale>  2 0.67027612E+02</rscale>
<asrwt>0</asrwt>
<pdfrwt beam="1">  1       21 0.38270530E-01 0.67027612E+02</pdfrwt>
<pdfrwt beam="2">  1       21 0.20878789E-01 0.67027612E+02</pdfrwt>
<totfact> 0.14667610E+05</totfact>
</mgrwt>
</event>
<event>
 5    1  0.2051810E+000  0.8192639E+02  0.7546771E-02  0.1323672E+00
         21   -1    0    0  501  502  0.00000000000E+00  0.00000000000E+00  0.34355152842E+02  0.34355152842E+02  0.00000000000E+00 0. -1.
         21   -1    0    0  502  503 -0.00000000000E+00 -0.00000000000E+00 -0.51859714597E+03  0.51859714597E+03  0.00000000000E+00 0.  1.
         24    1    1    2    0    0 -0.50731474543E+02  0.23850575031E+02 -0.47668941933E+03  0.48666472123E+03  0.80419002446E+02 0.  1.
          1    1    1    2  501    0  0.22672229167E+02  0.73763679308E+01 -0.17364619424E+01  0.23905147549E+02  0.00000000000E+00 0. -1.
         -2    1    1    2    0  503  0.28059245376E+02 -0.31226942962E+02 -0.58161118528E+01  0.42382430026E+02  0.00000000000E+00 0.  1.
<mgrwt>
<rscale>  2 0.81926392E+02</rscale>
<asrwt>0</asrwt>
<pdfrwt beam="1">  1       21 0.52854083E-02 0.81926392E+02</pdfrwt>
<pdfrwt beam="2">  1       21 0.79784174E-01 0.81926392E+02</pdfrwt>
<totfact> 0.34652081E+05</totfact>
</mgrwt>
</event>
<event>
 5    1  0.2051810E+000  0.6825038E+02  0.7546771E-02  0.1366146E+00
         21   -1    0    0  503  502  0.00000000000E+00  0.00000000000E+00  0.36768897053E+03  0.36768897053E+03  0.00000000000E+00 0.  1.
         21   -1    0    0  501  503 -0.00000000000E+00 -0.00000000000E+00 -0.37077749505E+02  0.37077749505E+02  0.00000000000E+00 0.  1.
         24    1    1    2    0    0 -0.14222996336E+01 -0.41121150495E+02  0.22833461598E+02  0.93174861831E+02  0.80419002446E+02 0.  1.
          1    1    1    2  501    0  0.11182130117E+02  0.23454303034E+02  0.12296792741E+03  0.12568315534E+03  0.00000000000E+00 0. -1.
         -2    1    1    2    0  502 -0.97598304837E+01  0.17666847460E+02  0.18480983201E+03  0.18590870286E+03  0.00000000000E+00 0.  1.
<mgrwt>
<rscale>  2 0.68250376E+02</rscale>
<asrwt>0</asrwt>
<pdfrwt beam="1">  1       21 0.56567531E-01 0.68250376E+02</pdfrwt>
<pdfrwt beam="2">  1       21 0.57042694E-02 0.68250376E+02</pdfrwt>
<totfact> 0.63502255E+05</totfact>
</mgrwt>
</event>
<event>
 5    1  0.2051810E+000  0.8242848E+02  0.7546771E-02  0.1322298E+00
         21   -1    0    0  503  502  0.00000000000E+00  0.00000000000E+00  0.11286272778E+03  0.11286272778E+03  0.00000000000E+00 0.  1.
         21   -1    0    0  501  503 -0.00000000000E+00 -0.00000000000E+00 -0.81969292154E+03  0.81969292154E+03  0.00000000000E+00 0.  1.
         24    1    1    2    0    0 -0.20683797746E+02  0.58748757352E+02 -0.72646852553E+03  0.73355502215E+03  0.80419002446E+02 0.  1.
          1    1    1    2  501    0  0.16828013840E+02 -0.32394282006E+02 -0.84214893448E+02  0.91786272584E+02  0.00000000000E+00 0. -1.
         -2    1    1    2    0  502  0.38557839063E+01 -0.26354475347E+02  0.10385322522E+03  0.10721435459E+03  0.00000000000E+00 0.  1.
<mgrwt>
<rscale>  2 0.82428478E+02</rscale>
<asrwt>0</asrwt>
<pdfrwt beam="1">  1       21 0.17363497E-01 0.82428478E+02</pdfrwt>
<pdfrwt beam="2">  1       21 0.12610660E+00 0.82428478E+02</pdfrwt>
<totfact> 0.15445473E+04</totfact>
</mgrwt>
</event>
<event>
 5    1  0.2051810E+000  0.1203111E+03  0.7546771E-02  0.1242585E+00
         21   -1    0    0  503  502  0.00000000000E+00  0.00000000000E+00  0.69564058410E+02  0.69564058410E+02  0.00000000000E+00 0.  1.
         21   -1    0    0  501  503 -0.00000000000E+00 -0.00000000000E+00 -0.37250868393E+03  0.37250868393E+03  0.00000000000E+00 0.  1.
         24    1    1    2    0    0  0.84051692018E+02  0.40493026338E+02 -0.28550182477E+03  0.31093870781E+03  0.80419002446E+02 0.  1.
          1    1    1    2  501    0  0.30033157882E+01 -0.29557990579E+02 -0.30325887761E+02  0.42454142098E+02  0.00000000000E+00 0. -1.
         -2    1    1    2    0  502 -0.87055007806E+02 -0.10935035759E+02  0.12883087009E+02  0.88679892433E+02  0.00000000000E+00 0.  1.
<mgrwt>
<rscale>  2 0.12031114E+03</rscale>
<asrwt>0</asrwt>
<pdfrwt beam="1">  1       21 0.10702163E-01 0.12031114E+03</pdfrwt>
<pdfrwt beam="2">  1       21 0.57309028E-01 0.12031114E+03</pdfrwt>
<totfact> 0.20982395E+05</totfact>
</mgrwt>
</event>
<event>
 5    1  0.2051810E+000  0.8672780E+02  0.7546771E-02  0.1310975E+00
         21   -1    0    0  503  502  0.00000000000E+00  0.00000000000E+00  0.27685515764E+03  0.27685515764E+03  0.00000000000E+00 0.  1.
         21   -1    0    0  501  503 -0.00000000000E+00 -0.00000000000E+00 -0.96062749737E+02  0.96062749737E+02  0.00000000000E+00 0.  1.
         24    1    1    2    0    0 -0.22065970681E+02 -0.63210002160E+02 -0.27102583949E+02  0.10809337374E+03  0.80419002446E+02 0.  1.
          1    1    1    2  501    0  0.82878630313E+01  0.46139646983E+02 -0.82248832674E+01  0.47594163529E+02  0.00000000000E+00 0. -1.
         -2    1    1    2    0  502  0.13778107649E+02  0.17070355177E+02  0.21611987512E+03  0.21723037011E+03  0.00000000000E+00 0.  1.
<mgrwt>
<rscale>  2 0.86727796E+02</rscale>
<asrwt>0</asrwt>
<pdfrwt beam="1">  1       21 0.42593101E-01 0.86727796E+02</pdfrwt>
<pdfrwt beam="2">  1       21 0.14778885E-01 0.86727796E+02</pdfrwt>
<totfact> 0.21977101E+05</totfact>
</mgrwt>
</event>
<event>
 5    1  0.2051810E+000  0.7900419E+02  0.7546771E-02  0.1331901E+00
         21   -1    0    0  501  502  0.00000000000E+00  0.00000000000E+00  0.44257840503E+03  0.44257840503E+03  0.00000000000E+00 0.  1.
         21   -1    0    0  502  503 -0.00000000000E+00 -0.00000000000E+00 -0.15752866648E+02  0.15752866648E+02  0.00000000000E+00 0.  1.
         24    1    1    2    0    0  0.64194860697E+01 -0.34965167669E+02  0.27364109566E+03  0.28742031581E+03  0.80419002446E+02 0.  1.
          1    1    1    2  501    0 -0.26577937981E+02 -0.33496019177E+01  0.92939531295E+02  0.96723125971E+02  0.00000000000E+00 0. -1.
         -2    1    1    2    0  503  0.20158451911E+02  0.38314769586E+02  0.60244911422E+02  0.74187829892E+02  0.00000000000E+00 0.  1.
<mgrwt>
<rscale>  2 0.79004194E+02</rscale>
<asrwt>0</asrwt>
<pdfrwt beam="1">  1       21 0.68088976E-01 0.79004194E+02</pdfrwt>
<pdfrwt beam="2">  1       21 0.24235183E-02 0.79004194E+02</pdfrwt>
<totfact> 0.17463802E+06</totfact>
</mgrwt>
</event>
<event>
 5    1  0.2051810E+000  0.9714458E+02  0.7546771E-02  0.1286418E+00
         21   -1    0    0  501  502  0.00000000000E+00  0.00000000000E+00  0.35682097782E+03  0.35682097782E+03  0.00000000000E+00 0.  1.
         21   -1    0    0  502  503 -0.00000000000E+00 -0.00000000000E+00 -0.42625869543E+02  0.42625869543E+02  0.00000000000E+00 0.  1.
         24    1    1    2    0    0  0.49613056759E+02  0.48149151682E+02  0.92425613953E+02  0.14067518003E+03  0.80419002446E+02 0.  0.
          1    1    1    2  501    0 -0.17190317987E+02 -0.52758548283E+02  0.21898389061E+03  0.22590466086E+03  0.00000000000E+00 0. -1.
         -2    1    1    2    0  503 -0.32422738772E+02  0.46093966008E+01  0.27856037146E+01  0.32867006474E+02  0.00000000000E+00 0.  1.
<mgrwt>
<rscale>  2 0.97144580E+02</rscale>
<asrwt>0</asrwt>
<pdfrwt beam="1">  1       21 0.54895533E-01 0.97144580E+02</pdfrwt>
<pdfrwt beam="2">  1       21 0.65578263E-02 0.97144580E+02</pdfrwt>
<totfact> 0.53562106E+05</totfact>
</mgrwt>
</event>
<event>
 5    1  0.2051810E+000  0.8820675E+02  0.7546771E-02  0.1307253E+00
         21   -1    0    0  503  502  0.00000000000E+00  0.00000000000E+00  0.18643610617E+03  0.18643610617E+03  0.00000000000E+00 0. -1.
         21   -1    0    0  501  503 -0.00000000000E+00 -0.00000000000E+00 -0.10845539239E+03  0.10845539239E+03  0.00000000000E+00 0. -1.
         24    1    1    2    0    0  0.35234974725E+02  0.11273908519E+01 -0.68283939972E+01  0.88071660442E+02  0.80419002446E+02 0. -1.
          1    1    1    2  501    0 -0.13089489670E+02 -0.40977255481E+02 -0.49149649783E+02  0.65315834836E+02  0.00000000000E+00 0. -1.
         -2    1    1    2    0  502 -0.22145485055E+02  0.39849864629E+02  0.13395875756E+03  0.14150400328E+03  0.00000000000E+00 0.  1.
<mgrwt>
<rscale>  2 0.88206745E+02</rscale>
<asrwt>0</asrwt>
<pdfrwt beam="1">  1       21 0.28682478E-01 0.88206745E+02</pdfrwt>
<pdfrwt beam="2">  1       21 0.16685445E-01 0.88206745E+02</pdfrwt>
<totfact> 0.38134255E+05</totfact>
</mgrwt>
</event>
<event>
 5    1  0.2051810E+000  0.8254827E+02  0.7546771E-02  0.1321971E+00
         21   -1    0    0  501  502  0.00000000000E+00  0.00000000000E+00  0.65384640283E+01  0.65384640283E+01  0.00000000000E+00 0.  1.
         21   -1    0    0  502  503 -0.00000000000E+00 -0.00000000000E+00 -0.11370343010E+04  0.11370343010E+04  0.00000000000E+00 0. -1.
         24    1    1    2    0    0  0.26765057186E+02 -0.12804441164E+02 -0.48557531593E+03  0.49308308163E+03  0.80419002446E+02 0. -1.
          1    1    1    2  501    0  0.25782330898E+02  0.36340826516E+01 -0.11600034103E+03  0.11888656048E+03  0.00000000000E+00 0. -1.
         -2    1    1    2    0  503 -0.52547388084E+02  0.91703585129E+01 -0.52892018004E+03  0.53160312294E+03  0.00000000000E+00 0.  1.
<mgrwt>
<rscale>  2 0.82548271E+02</rscale>
<asrwt>0</asrwt>
<pdfrwt beam="1">  1       21 0.10059191E-02 0.82548271E+02</pdfrwt>
<pdfrwt beam="2">  1       21 0.17492808E+00 0.82548271E+02</pdfrwt>
<totfact> 0.75499245E+05</totfact>
</mgrwt>
</event>
<event>
 5    1  0.2051810E+000  0.8725241E+02  0.7546771E-02  0.1309645E+00
         21   -1    0    0  501  502  0.00000000000E+00  0.00000000000E+00  0.53774009639E+03  0.53774009639E+03  0.00000000000E+00 0.  1.
         21   -1    0    0  502  503 -0.00000000000E+00 -0.00000000000E+00 -0.21413607485E+02  0.21413607485E+02  0.00000000000E+00 0. -1.
         24    1    1    2    0    0  0.10293079359E+02 -0.43959815746E+02  0.13119112292E+03  0.16036439621E+03  0.80419002446E+02 0. -1.
          1    1    1    2  501    0  0.22185492180E+02 -0.57323886395E+01  0.25174067048E+03  0.25278137099E+03  0.00000000000E+00 0. -1.
         -2    1    1    2    0  503 -0.32478571539E+02  0.49692204385E+02  0.13339469550E+03  0.14600793668E+03  0.00000000000E+00 0.  1.
<mgrwt>
<rscale>  2 0.87252409E+02</rscale>
<asrwt>0</asrwt>
<pdfrwt beam="1">  1       21 0.82729235E-01 0.87252409E+02</pdfrwt>
<pdfrwt beam="2">  1       21 0.32944016E-02 0.87252409E+02</pdfrwt>
<totfact> 0.69650606E+05</totfact>
</mgrwt>
</event>
<event>
 5    1  0.2051810E+000  0.9369611E+02  0.7546771E-02  0.1294140E+00
         21   -1    0    0  503  502  0.00000000000E+00  0.00000000000E+00  0.25444468014E+03  0.25444468014E+03  0.00000000000E+00 0.  1.
         21   -1    0    0  501  503 -0.00000000000E+00 -0.00000000000E+00 -0.11056778205E+03  0.11056778205E+03  0.00000000000E+00 0. -1.
         24    1    1    2    0    0 -0.33743976821E+01 -0.26697981657E+02  0.20325211104E+03  0.22023352465E+03  0.80419002446E+02 0.  1.
          1    1    1    2  501    0 -0.59224101699E+01 -0.37377488050E+02 -0.69606747346E+02  0.79229103436E+02  0.00000000000E+00 0. -1.
         -2    1    1    2    0  502  0.92968078520E+01  0.64075469707E+02  0.10231534393E+02  0.65549834099E+02  0.00000000000E+00 0.  1.
<mgrwt>
<rscale>  2 0.93696106E+02</rscale>
<asrwt>0</asrwt>
<pdfrwt beam="1">  1       21 0.39145335E-01 0.93696106E+02</pdfrwt>
<pdfrwt beam="2">  1       21 0.17010428E-01 0.93696106E+02</pdfrwt>
<totfact> 0.20153113E+05</totfact>
</mgrwt>
</event>
<event>
 5    1  0.2051810E+000  0.1027143E+03  0.7546771E-02  0.1274690E+00
         21   -1    0    0  503  502  0.00000000000E+00  0.00000000000E+00  0.13389135809E+03  0.13389135809E+03  0.00000000000E+00 0.  1.
         21   -1    0    0  501  503 -0.00000000000E+00 -0.00000000000E+00 -0.14288127603E+03  0.14288127603E+03  0.00000000000E+00 0.  1.
         24    1    1    2    0    0 -0.14316085470E+02  0.46985675050E+02 -0.41568166360E+02  0.10299384628E+03  0.80419002446E+02 0.  1.
          1    1    1    2  501    0 -0.30673655793E+02  0.15366231872E+02 -0.50198291469E+02  0.60801831453E+02  0.00000000000E+00 0. -1.
         -2    1    1    2    0  502  0.44989741263E+02 -0.62351906922E+02  0.82776539890E+02  0.11297695638E+03  0.00000000000E+00 0.  1.
<mgrwt>
<rscale>  2 0.10271431E+03</rscale>
<asrwt>0</asrwt>
<pdfrwt beam="1">  1       21 0.20598671E-01 0.10271431E+03</pdfrwt>
<pdfrwt beam="2">  1       21 0.21981735E-01 0.10271431E+03</pdfrwt>
<totfact> 0.42744427E+05</totfact>
</mgrwt>
</event>
<event>
 5    1  0.2051810E+000  0.7682826E+02  0.7546771E-02  0.1338301E+00
         21   -1    0    0  503  502  0.00000000000E+00  0.00000000000E+00  0.12431314371E+04  0.12431314371E+04  0.00000000000E+00 0. -1.
         21   -1    0    0  501  503 -0.00000000000E+00 -0.00000000000E+00 -0.10116677400E+02  0.10116677400E+02  0.00000000000E+00 0. -1.
         24    1    1    2    0    0 -0.39327953977E+02  0.61313205682E+01  0.11141622135E+04  0.11177696252E+04  0.80419002446E+02 0. -1.
          1    1    1    2  501    0  0.35381028427E+02 -0.25848922905E+02  0.69171141550E+02  0.81881810014E+02  0.00000000000E+00 0. -1.
         -2    1    1    2    0  502  0.39469255506E+01  0.19717602337E+02  0.49681404649E+02  0.53596679292E+02  0.00000000000E+00 0.  1.
<mgrwt>
<rscale>  2 0.76828256E+02</rscale>
<asrwt>0</asrwt>
<pdfrwt beam="1">  1       21 0.19125087E+00 0.76828256E+02</pdfrwt>
<pdfrwt beam="2">  1       21 0.15564129E-02 0.76828256E+02</pdfrwt>
<totfact> 0.29951895E+05</totfact>
</mgrwt>
</event>
<event>
 5    1  0.2051810E+000  0.8028902E+02  0.7546771E-02  0.1328233E+00
         21   -1    0    0  503  502  0.00000000000E+00  0.00000000000E+00  0.28081862343E+03  0.28081862343E+03  0.00000000000E+00 0.  1.
         21   -1    0    0  501  503 -0.00000000000E+00 -0.00000000000E+00 -0.73483459217E+02  0.73483459217E+02  0.00000000000E+00 0. -1.
         24    1    1    2    0    0 -0.22598559992E+02  0.53895557324E+02  0.82599168011E+02  0.12924884728E+03  0.80419002446E+02 0.  1.
          1    1    1    2  501    0 -0.60795018444E+00 -0.20446894745E+02 -0.45569119680E+02  0.49949872638E+02  0.00000000000E+00 0. -1.
         -2    1    1    2    0  502  0.23206510177E+02 -0.33448662579E+02  0.17030511588E+03  0.17510336273E+03  0.00000000000E+00 0.  1.
<mgrwt>
<rscale>  2 0.80289018E+02</rscale>
<asrwt>0</asrwt>
<pdfrwt beam="1">  1       21 0.43202865E-01 0.80289018E+02</pdfrwt>
<pdfrwt beam="2">  1       21 0.11305148E-01 0.80289018E+02</pdfrwt>
<totfact> 0.34285562E+05</totfact>
</mgrwt>
</event>
<event>
 5    1  0.2051810E+000  0.8571944E+02  0.7546771E-02  0.1313562E+00
         21   -1    0    0  503  502  0.00000000000E+00  0.00000000000E+00  0.21438542412E+02  0.21438542412E+02  0.00000000000E+00 0.  1.
         21   -1    0    0  501  503 -0.00000000000E+00 -0.00000000000E+00 -0.77446226207E+03  0.77446226207E+03  0.00000000000E+00 0. -1.
         24    1    1    2    0    0  0.90742345018E+01  0.43857215027E+02 -0.12760610292E+03  0.15734144559E+03  0.80419002446E+02 0.  0.
          1    1    1    2  501    0 -0.37010965195E+02 -0.32421197517E+02 -0.58989237307E+03  0.59194083945E+03  0.00000000000E+00 0. -1.
         -2    1    1    2    0  502  0.27936730694E+02 -0.11436017510E+02 -0.35525243657E+02  0.46618519445E+02  0.00000000000E+00 0.  1.
<mgrwt>
<rscale>  2 0.85719442E+02</rscale>
<asrwt>0</asrwt>
<pdfrwt beam="1">  1       21 0.32982374E-02 0.85719442E+02</pdfrwt>
<pdfrwt beam="2">  1       21 0.11914804E+00 0.85719442E+02</pdfrwt>
<totfact> 0.29986900E+05</totfact>
</mgrwt>
</event>
<event>
 5    1  0.2051810E+000  0.7334418E+02  0.7546771E-02  0.1349077E+00
         21   -1    0    0  503  502  0.00000000000E+00  0.00000000000E+00  0.12419270185E+03  0.12419270185E+03  0.00000000000E+00 0.  1.
         21   -1    0    0  501  503 -0.00000000000E+00 -0.00000000000E+00 -0.81207015564E+02  0.81207015564E+02  0.00000000000E+00 0.  1.
         24    1    1    2    0    0 -0.49951741211E+01  0.34144003442E+02 -0.23411896652E+02  0.90587513459E+02  0.80419002446E+02 0.  1.
          1    1    1    2  501    0 -0.21628096554E+02 -0.17042097705E+02 -0.12175123411E+02  0.30107163348E+02  0.00000000000E+00 0. -1.
         -2    1    1    2    0  502  0.26623270675E+02 -0.17101905736E+02  0.78572706347E+02  0.84705040605E+02  0.00000000000E+00 0.  1.
<mgrwt>
<rscale>  2 0.73344185E+02</rscale>
<asrwt>0</asrwt>
<pdfrwt beam="1">  1       21 0.19106569E-01 0.73344185E+02</pdfrwt>
<pdfrwt beam="2">  1       21 0.12493387E-01 0.73344185E+02</pdfrwt>
<totfact> 0.13493763E+06</totfact>
</mgrwt>
</event>
<event>
 5    1  0.2051810E+000  0.7435381E+02  0.7546771E-02  0.1345884E+00
         21   -1    0    0  503  502  0.00000000000E+00  0.00000000000E+00  0.72044564319E+03  0.72044564319E+03  0.00000000000E+00 0. -1.
         21   -1    0    0  501  503 -0.00000000000E+00 -0.00000000000E+00 -0.96266453741E+01  0.96266453741E+01  0.00000000000E+00 0.  1.
         24    1    1    2    0    0  0.47542954487E+01 -0.16187924386E+02  0.35187794210E+03  0.36134464755E+03  0.80419002446E+02 0.  0.
          1    1    1    2  501    0  0.29022722331E+02 -0.13614335532E+00  0.52409859925E+02  0.59909351223E+02  0.00000000000E+00 0. -1.
         -2    1    1    2    0  502 -0.33777017780E+02  0.16324067741E+02  0.30653119578E+03  0.30881828979E+03  0.00000000000E+00 0.  1.
<mgrwt>
<rscale>  2 0.74353810E+02</rscale>
<asrwt>0</asrwt>
<pdfrwt beam="1">  1       21 0.11083775E+00 0.74353810E+02</pdfrwt>
<pdfrwt beam="2">  1       21 0.14810229E-02 0.74353810E+02</pdfrwt>
<totfact> 0.12832072E+06</totfact>
</mgrwt>
</event>
<event>
 5    1  0.2640696E+000  0.8396822E+02  0.7546771E-02  0.1318153E+00
         21   -1    0    0  503  502  0.00000000000E+00  0.00000000000E+00  0.13171999759E+03  0.13171999759E+03  0.00000000000E+00 0.  1.
         21   -1    0    0  501  503 -0.00000000000E+00 -0.00000000000E+00 -0.13901699780E+04  0.13901699780E+04  0.00000000000E+00 0. -1.
         24    1    1    2    0    0  0.35136238135E+02  0.10971643405E-01  0.14697428797E+02  0.88981940405E+02  0.80419002446E+02 0.  0.
          1    1    1    2  501    0 -0.56392730541E+02 -0.89840546183E+01 -0.13507456840E+04  0.13519522019E+04  0.00000000000E+00 0. -1.
         -2    1    1    2    0  502  0.21256492406E+02  0.89730829749E+01  0.77598274818E+02  0.80955833281E+02  0.00000000000E+00 0.  1.
<mgrwt>
<rscale>  2 0.83968215E+02</rscale>
<asrwt>0</asrwt>
<pdfrwt beam="1">  1       21 0.20264615E-01 0.83968215E+02</pdfrwt>
<pdfrwt beam="2">  1       21 0.21387231E+00 0.83968215E+02</pdfrwt>
<totfact> 0.28947437E+03</totfact>
</mgrwt>
</event>
<event>
 5    1  0.2051810E+000  0.1128714E+03  0.7546771E-02  0.1255343E+00
         21   -1    0    0  501  502  0.00000000000E+00  0.00000000000E+00  0.18306285757E+02  0.18306285757E+02  0.00000000000E+00 0.  1.
         21   -1    0    0  502  503 -0.00000000000E+00 -0.00000000000E+00 -0.81592387881E+03  0.81592387881E+03  0.00000000000E+00 0.  1.
         24    1    1    2    0    0 -0.27285309976E+01  0.89084321671E+02 -0.50918837815E+03  0.52314766715E+03  0.80419002446E+02 0.  1.
          1    1    1    2  501    0  0.25011425721E+02 -0.16983265604E+02 -0.33074609800E+02  0.44809960283E+02  0.00000000000E+00 0. -1.
         -2    1    1    2    0  503 -0.22282894723E+02 -0.72101056067E+02 -0.25535460511E+03  0.26627253714E+03  0.00000000000E+00 0.  1.
<mgrwt>
<rscale>  2 0.11287139E+03</rscale>
<asrwt>0</asrwt>
<pdfrwt beam="1">  1       21 0.28163513E-02 0.11287139E+03</pdfrwt>
<pdfrwt beam="2">  1       21 0.12552676E+00 0.11287139E+03</pdfrwt>
<totfact> 0.33901207E+05</totfact>
</mgrwt>
</event>
<event>
 5    1  0.2051810E+000  0.1352010E+03  0.7546771E-02  0.1219936E+00
         21   -1    0    0  501  502  0.00000000000E+00  0.00000000000E+00  0.13611329527E+03  0.13611329527E+03  0.00000000000E+00 0. -1.
         21   -1    0    0  502  503 -0.00000000000E+00 -0.00000000000E+00 -0.18897302657E+03  0.18897302657E+03  0.00000000000E+00 0. -1.
         24    1    1    2    0    0  0.96069170474E+02 -0.24598704408E+02 -0.88847619514E+02  0.15554901871E+03  0.80419002446E+02 0. -1.
          1    1    1    2  501    0 -0.75187964857E+02  0.63603553590E+02  0.63741784868E+02  0.11731009005E+03  0.00000000000E+00 0. -1.
         -2    1    1    2    0  503 -0.20881205617E+02 -0.39004849182E+02 -0.27753896654E+02  0.52227213090E+02  0.00000000000E+00 0.  1.
<mgrwt>
<rscale>  2 0.13520097E+03</rscale>
<asrwt>0</asrwt>
<pdfrwt beam="1">  1       21 0.20940507E-01 0.13520097E+03</pdfrwt>
<pdfrwt beam="2">  1       21 0.29072773E-01 0.13520097E+03</pdfrwt>
<totfact> 0.24329653E+05</totfact>
</mgrwt>
</event>
<event>
 5    1  0.2051810E+000  0.8778823E+02  0.7546771E-02  0.1308298E+00
         21   -1    0    0  503  502  0.00000000000E+00  0.00000000000E+00  0.57247708437E+03  0.57247708437E+03  0.00000000000E+00 0.  1.
         21   -1    0    0  501  503 -0.00000000000E+00 -0.00000000000E+00 -0.64681419308E+02  0.64681419308E+02  0.00000000000E+00 0. -1.
         24    1    1    2    0    0  0.31218290765E+02 -0.24621846553E+01  0.20325051102E+03  0.22081356439E+03  0.80419002446E+02 0.  0.
          1    1    1    2  501    0  0.24935083295E+02  0.18301858649E+02 -0.49039340546E+02  0.57979076657E+02  0.00000000000E+00 0. -1.
         -2    1    1    2    0  502 -0.56153374059E+02 -0.15839673994E+02  0.35358449458E+03  0.35836586263E+03  0.00000000000E+00 0.  1.
<mgrwt>
<rscale>  2 0.87788227E+02</rscale>
<asrwt>0</asrwt>
<pdfrwt beam="1">  1       21 0.88073394E-01 0.87788227E+02</pdfrwt>
<pdfrwt beam="2">  1       21 0.99509880E-02 0.87788227E+02</pdfrwt>
<totfact> 0.94887211E+04</totfact>
</mgrwt>
</event>
<event>
 5    1  0.2051810E+000  0.8759266E+02  0.7546771E-02  0.1308788E+00
         21   -1    0    0  503  502  0.00000000000E+00  0.00000000000E+00  0.16325929740E+03  0.16325929740E+03  0.00000000000E+00 0.  1.
         21   -1    0    0  501  503 -0.00000000000E+00 -0.00000000000E+00 -0.32430332260E+03  0.32430332260E+03  0.00000000000E+00 0. -1.
         24    1    1    2    0    0 -0.90272234454E+01 -0.39033374662E+02  0.14359747905E+03  0.16938874533E+03  0.80419002446E+02 0.  1.
          1    1    1    2  501    0  0.22655650820E+02 -0.16583790574E+02 -0.16291068892E+03  0.16531241087E+03  0.00000000000E+00 0. -1.
         -2    1    1    2    0  502 -0.13628427375E+02  0.55617165236E+02 -0.14173081533E+03  0.15286146381E+03  0.00000000000E+00 0.  1.
<mgrwt>
<rscale>  2 0.87592656E+02</rscale>
<asrwt>0</asrwt>
<pdfrwt beam="1">  1       21 0.25116815E-01 0.87592656E+02</pdfrwt>
<pdfrwt beam="2">  1       21 0.49892819E-01 0.87592656E+02</pdfrwt>
<totfact> 0.60715426E+04</totfact>
</mgrwt>
</event>
<event>
 5    1  0.2051810E+000  0.9156838E+02  0.7546771E-02  0.1299097E+00
         21   -1    0    0  503  502  0.00000000000E+00  0.00000000000E+00  0.16617985716E+03  0.16617985716E+03  0.00000000000E+00 0. -1.
         21   -1    0    0  501  503 -0.00000000000E+00 -0.00000000000E+00 -0.53037230616E+02  0.53037230616E+02  0.00000000000E+00 0. -1.
         24    1    1    2    0    0 -0.31229411760E+02 -0.23573730769E+02  0.72097617469E+02  0.11487505970E+03  0.80419002446E+02 0. -1.
          1    1    1    2  501    0  0.53310403901E+02  0.39609365469E+02  0.18496363557E+02  0.68942124001E+02  0.00000000000E+00 0. -1.
         -2    1    1    2    0  502 -0.22080992140E+02 -0.16035634700E+02  0.22548645522E+02  0.35399904082E+02  0.00000000000E+00 0.  1.
<mgrwt>
<rscale>  2 0.91568375E+02</rscale>
<asrwt>0</asrwt>
<pdfrwt beam="1">  1       21 0.25566132E-01 0.91568375E+02</pdfrwt>
<pdfrwt beam="2">  1       21 0.81595740E-02 0.91568375E+02</pdfrwt>
<totfact> 0.16606413E+06</totfact>
</mgrwt>
</event>
<event>
 5    1  0.2051810E+000  0.9538768E+02  0.7546771E-02  0.1290305E+00
         21   -1    0    0  501  502  0.00000000000E+00  0.00000000000E+00  0.57027544723E+02  0.57027544723E+02  0.00000000000E+00 0. -1.
         21   -1    0    0  502  503 -0.00000000000E+00 -0.00000000000E+00 -0.21286636837E+03  0.21286636837E+03  0.00000000000E+00 0.  1.
         24    1    1    2    0    0 -0.12521431333E+02  0.31405685165E+02 -0.79505316544E+02  0.11803141368E+03  0.80419002446E+02 0. -1.
          1    1    1    2  501    0  0.20059794257E+02  0.33040193703E+02  0.13591097147E+02  0.40972767385E+02  0.00000000000E+00 0. -1.
         -2    1    1    2    0  503 -0.75383629242E+01 -0.64445878868E+02 -0.89924604253E+02  0.11088973203E+03  0.00000000000E+00 0.  1.
<mgrwt>
<rscale>  2 0.95387677E+02</rscale>
<asrwt>0</asrwt>
<pdfrwt beam="1">  1       21 0.87734684E-02 0.95387677E+02</pdfrwt>
<pdfrwt beam="2">  1       21 0.32748672E-01 0.95387677E+02</pdfrwt>
<totfact> 0.91599487E+05</totfact>
</mgrwt>
</event>
<event>
 5    1  0.2051810E+000  0.8286703E+02  0.7546771E-02  0.1321107E+00
         21   -1    0    0  503  502  0.00000000000E+00  0.00000000000E+00  0.20776779697E+03  0.20776779697E+03  0.00000000000E+00 0. -1.
         21   -1    0    0  501  503 -0.00000000000E+00 -0.00000000000E+00 -0.96319404961E+02  0.96319404961E+02  0.00000000000E+00 0. -1.
         24    1    1    2    0    0  0.16009556937E+02  0.54507116175E+02  0.13000872480E+03  0.16308530315E+03  0.80419002446E+02 0. -1.
          1    1    1    2  501    0  0.10917036094E+02 -0.25261721156E+02 -0.70450258476E+02  0.75634483883E+02  0.00000000000E+00 0. -1.
         -2    1    1    2    0  502 -0.26926593031E+02 -0.29245395019E+02  0.51889925691E+02  0.65367414897E+02  0.00000000000E+00 0.  1.
<mgrwt>
<rscale>  2 0.82867029E+02</rscale>
<asrwt>0</asrwt>
<pdfrwt beam="1">  1       21 0.31964276E-01 0.82867029E+02</pdfrwt>
<pdfrwt beam="2">  1       21 0.14818370E-01 0.82867029E+02</pdfrwt>
<totfact> 0.38361616E+05</totfact>
</mgrwt>
</event>
<event>
 5    1  0.2051810E+000  0.1008479E+03  0.7546771E-02  0.1278523E+00
         21   -1    0    0  503  502  0.00000000000E+00  0.00000000000E+00  0.98867043588E+01  0.98867043588E+01  0.00000000000E+00 0.  1.
         21   -1    0    0  501  503 -0.00000000000E+00 -0.00000000000E+00 -0.14684314123E+04  0.14684314123E+04  0.00000000000E+00 0. -1.
         24    1    1    2    0    0 -0.24541626590E+02  0.48541954953E+02 -0.58278144608E+03  0.59081303530E+03  0.80419002446E+02 0. -1.
          1    1    1    2  501    0  0.26150187241E+01 -0.72260752586E+02 -0.81907141250E+03  0.82225691452E+03  0.00000000000E+00 0. -1.
         -2    1    1    2    0  502  0.21926607866E+02  0.23718797633E+02 -0.56691849374E+02  0.65248166864E+02  0.00000000000E+00 0.  1.
<mgrwt>
<rscale>  2 0.10084790E+03</rscale>
<asrwt>0</asrwt>
<pdfrwt beam="1">  1       21 0.15210316E-02 0.10084790E+03</pdfrwt>
<pdfrwt beam="2">  1       21 0.22591250E+00 0.10084790E+03</pdfrwt>
<totfact> 0.18852609E+05</totfact>
</mgrwt>
</event>
<event>
 5    1  0.2051810E+000  0.7888294E+02  0.7546771E-02  0.1332252E+00
         21   -1    0    0  501  502  0.00000000000E+00  0.00000000000E+00  0.80566152050E+02  0.80566152050E+02  0.00000000000E+00 0. -1.
         21   -1    0    0  502  503 -0.00000000000E+00 -0.00000000000E+00 -0.96496397238E+02  0.96496397238E+02  0.00000000000E+00 0. -1.
         24    1    1    2    0    0  0.38665242696E+02  0.20774857674E+02  0.55770040723E+01  0.91787333728E+02  0.80419002446E+02 0.  0.
          1    1    1    2  501    0 -0.42636879845E+02  0.23337621411E+01  0.12021984224E+02  0.44360771785E+02  0.00000000000E+00 0. -1.
         -2    1    1    2    0  503  0.39716371492E+01 -0.23108619815E+02 -0.33529233485E+02  0.40914443776E+02  0.00000000000E+00 0.  1.
<mgrwt>
<rscale>  2 0.78882942E+02</rscale>
<asrwt>0</asrwt>
<pdfrwt beam="1">  1       21 0.12394793E-01 0.78882942E+02</pdfrwt>
<pdfrwt beam="2">  1       21 0.14845600E-01 0.78882942E+02</pdfrwt>
<totfact> 0.21577656E+06</totfact>
</mgrwt>
</event>
<event>
 5    1  0.2051810E+000  0.8852206E+02  0.7546771E-02  0.1306471E+00
         21   -1    0    0  503  502  0.00000000000E+00  0.00000000000E+00  0.97068434404E+02  0.97068434404E+02  0.00000000000E+00 0. -1.
         21   -1    0    0  501  503 -0.00000000000E+00 -0.00000000000E+00 -0.97246271849E+02  0.97246271849E+02  0.00000000000E+00 0.  1.
         24    1    1    2    0    0  0.90079727231E+01  0.60003612143E+02 -0.11989523124E+02  0.10145216440E+03  0.80419002446E+02 0.  1.
          1    1    1    2  501    0 -0.27793657660E+02 -0.41400516598E+02 -0.18002169471E+02  0.53014793090E+02  0.00000000000E+00 0. -1.
         -2    1    1    2    0  502  0.18785684937E+02 -0.18603095545E+02  0.29813855150E+02  0.39847748761E+02  0.00000000000E+00 0.  1.
<mgrwt>
<rscale>  2 0.88522056E+02</rscale>
<asrwt>0</asrwt>
<pdfrwt beam="1">  1       21 0.14933605E-01 0.88522056E+02</pdfrwt>
<pdfrwt beam="2">  1       21 0.14960965E-01 0.88522056E+02</pdfrwt>
<totfact> 0.15380114E+06</totfact>
</mgrwt>
</event>
<event>
 5    1  0.2051810E+000  0.1083298E+03  0.7546771E-02  0.1263695E+00
         21   -1    0    0  503  502  0.00000000000E+00  0.00000000000E+00  0.14455435999E+03  0.14455435999E+03  0.00000000000E+00 0. -1.
         21   -1    0    0  501  503 -0.00000000000E+00 -0.00000000000E+00 -0.33769939708E+03  0.33769939708E+03  0.00000000000E+00 0. -1.
         24    1    1    2    0    0 -0.82590325473E+01  0.92569116959E+02  0.99663640219E+02  0.15823182414E+03  0.80419002446E+02 0. -1.
          1    1    1    2  501    0  0.67784331260E+01 -0.18959347038E+02 -0.21846639934E+03  0.21939227798E+03  0.00000000000E+00 0. -1.
         -2    1    1    2    0  502  0.14805994213E+01 -0.73609769921E+02 -0.74342277973E+02  0.10462965496E+03  0.00000000000E+00 0.  1.
<mgrwt>
<rscale>  2 0.10832977E+03</rscale>
<asrwt>0</asrwt>
<pdfrwt beam="1">  1       21 0.22239132E-01 0.10832977E+03</pdfrwt>
<pdfrwt beam="2">  1       21 0.51953753E-01 0.10832977E+03</pdfrwt>
<totfact> 0.69200403E+04</totfact>
</mgrwt>
</event>
<event>
 5    1  0.2051810E+000  0.8560352E+02  0.7546771E-02  0.1313862E+00
         21   -1    0    0  503  502  0.00000000000E+00  0.00000000000E+00  0.31765555117E+03  0.31765555117E+03  0.00000000000E+00 0.  1.
         21   -1    0    0  501  503 -0.00000000000E+00 -0.00000000000E+00 -0.64697602784E+02  0.64697602784E+02  0.00000000000E+00 0. -1.
         24    1    1    2    0    0  0.91071254889E+01 -0.32405944681E+02  0.25539018903E+03  0.26986005557E+03  0.80419002446E+02 0.  0.
          1    1    1    2  501    0  0.31615178944E+02  0.29435463639E+02 -0.38612796538E+02  0.57938882590E+02  0.00000000000E+00 0. -1.
         -2    1    1    2    0  502 -0.40722304432E+02  0.29704810424E+01  0.36180555894E+02  0.54554215792E+02  0.00000000000E+00 0.  1.
<mgrwt>
<rscale>  2 0.85603518E+02</rscale>
<asrwt>0</asrwt>
<pdfrwt beam="1">  1       21 0.48870084E-01 0.85603518E+02</pdfrwt>
<pdfrwt beam="2">  1       21 0.99534775E-02 0.85603518E+02</pdfrwt>
<totfact> 0.33348845E+05</totfact>
</mgrwt>
</event>
<event>
 5    1  0.2051810E+000  0.8984252E+02  0.7546771E-02  0.1303234E+00
         21   -1    0    0  503  502  0.00000000000E+00  0.00000000000E+00  0.93125608237E+02  0.93125608237E+02  0.00000000000E+00 0. -1.
         21   -1    0    0  501  503 -0.00000000000E+00 -0.00000000000E+00 -0.12643604993E+03  0.12643604993E+03  0.00000000000E+00 0.  1.
         24    1    1    2    0    0  0.48319774572E+02 -0.22171988181E+02 -0.26014357747E+02  0.99851692214E+02  0.80419002446E+02 0.  1.
          1    1    1    2  501    0 -0.36725284655E+02  0.44756061533E+02 -0.45641567974E+02  0.73722481673E+02  0.00000000000E+00 0. -1.
         -2    1    1    2    0  502 -0.11594489917E+02 -0.22584073352E+02  0.38345484024E+02  0.45987484283E+02  0.00000000000E+00 0.  1.
<mgrwt>
<rscale>  2 0.89842516E+02</rscale>
<asrwt>0</asrwt>
<pdfrwt beam="1">  1       21 0.14327017E-01 0.89842516E+02</pdfrwt>
<pdfrwt beam="2">  1       21 0.19451700E-01 0.89842516E+02</pdfrwt>
<totfact> 0.10317351E+06</totfact>
</mgrwt>
</event>
<event>
 5    1  0.2051810E+000  0.1175866E+03  0.7546771E-02  0.1247132E+00
         21   -1    0    0  503  502  0.00000000000E+00  0.00000000000E+00  0.15872644124E+03  0.15872644124E+03  0.00000000000E+00 0.  1.
         21   -1    0    0  501  503 -0.00000000000E+00 -0.00000000000E+00 -0.94119528279E+02  0.94119528279E+02  0.00000000000E+00 0. -1.
         24    1    1    2    0    0 -0.83386882583E+01 -0.60100902932E+02  0.41626336106E+02  0.10900284431E+03  0.80419002446E+02 0. -1.
          1    1    1    2  501    0  0.60657046505E+02  0.54974684661E+02 -0.89279671000E+01  0.82348053048E+02  0.00000000000E+00 0. -1.
         -2    1    1    2    0  502 -0.52318358246E+02  0.51262182716E+01  0.31908543959E+02  0.61495072168E+02  0.00000000000E+00 0.  1.
<mgrwt>
<rscale>  2 0.11758657E+03</rscale>
<asrwt>0</asrwt>
<pdfrwt beam="1">  1       21 0.24419453E-01 0.11758657E+03</pdfrwt>
<pdfrwt beam="2">  1       21 0.14479927E-01 0.11758657E+03</pdfrwt>
<totfact> 0.66599609E+05</totfact>
</mgrwt>
</event>
<event>
 5    1  0.2051810E+000  0.2538385E+03  0.7546771E-02  0.1110903E+00
         21   -1    0    0  501  502  0.00000000000E+00  0.00000000000E+00  0.24596455158E+03  0.24596455158E+03  0.00000000000E+00 0.  1.
         21   -1    0    0  502  503 -0.00000000000E+00 -0.00000000000E+00 -0.28519619523E+03  0.28519619523E+03  0.00000000000E+00 0.  1.
         24    1    1    2    0    0  0.58769329335E+01 -0.23610164868E+03  0.40163221095E+02  0.25270304140E+03  0.80419002446E+02 0.  1.
          1    1    1    2  501    0 -0.41192251707E+02  0.21068839192E+03 -0.37252629737E+02  0.21788565467E+03  0.00000000000E+00 0. -1.
         -2    1    1    2    0  503  0.35315318773E+02  0.25413256762E+02 -0.42142235010E+02  0.60572050741E+02  0.00000000000E+00 0.  1.
<mgrwt>
<rscale>  2 0.25383854E+03</rscale>
<asrwt>0</asrwt>
<pdfrwt beam="1">  1       21 0.37840700E-01 0.25383854E+03</pdfrwt>
<pdfrwt beam="2">  1       21 0.43876338E-01 0.25383854E+03</pdfrwt>
<totfact> 0.32627417E+04</totfact>
</mgrwt>
</event>
<event>
 5    1  0.2051810E+000  0.8325572E+02  0.7546771E-02  0.1320058E+00
         21   -1    0    0  503  502  0.00000000000E+00  0.00000000000E+00  0.53935244553E+02  0.53935244553E+02  0.00000000000E+00 0.  1.
         21   -1    0    0  501  503 -0.00000000000E+00 -0.00000000000E+00 -0.35240813430E+03  0.35240813430E+03  0.00000000000E+00 0. -1.
         24    1    1    2    0    0  0.31862807397E+02 -0.10902547697E+02 -0.93901116497E+02  0.12813563000E+03  0.80419002446E+02 0. -1.
          1    1    1    2  501    0 -0.49946370781E+02 -0.10775517439E+02 -0.23276683212E+03  0.23830893787E+03  0.00000000000E+00 0. -1.
         -2    1    1    2    0  502  0.18083563384E+02  0.21678065136E+02  0.28195058878E+02  0.39898810983E+02  0.00000000000E+00 0.  1.
<mgrwt>
<rscale>  2 0.83255717E+02</rscale>
<asrwt>0</asrwt>
<pdfrwt beam="1">  1       21 0.82977303E-02 0.83255717E+02</pdfrwt>
<pdfrwt beam="2">  1       21 0.54216633E-01 0.83255717E+02</pdfrwt>
<totfact> 0.36874632E+05</totfact>
</mgrwt>
</event>
<event>
 5    1  0.2051810E+000  0.8435701E+02  0.7546771E-02  0.1317123E+00
         21   -1    0    0  501  502  0.00000000000E+00  0.00000000000E+00  0.86097554831E+01  0.86097554831E+01  0.00000000000E+00 0.  1.
         21   -1    0    0  502  503 -0.00000000000E+00 -0.00000000000E+00 -0.14720228269E+04  0.14720228269E+04  0.00000000000E+00 0. -1.
         24    1    1    2    0    0 -0.19857828263E+02 -0.71846361421E+01 -0.36242884853E+03  0.37184383622E+03  0.80419002446E+02 0.  1.
          1    1    1    2  501    0 -0.32236330346E+02  0.89127141192E+01 -0.83201258169E+02  0.89671995785E+02  0.00000000000E+00 0. -1.
         -2    1    1    2    0  503  0.52094158609E+02 -0.17280779771E+01 -0.10177829648E+04  0.10191167504E+04  0.00000000000E+00 0.  1.
<mgrwt>
<rscale>  2 0.84357008E+02</rscale>
<asrwt>0</asrwt>
<pdfrwt beam="1">  1       21 0.13245771E-02 0.84357008E+02</pdfrwt>
<pdfrwt beam="2">  1       21 0.22646517E+00 0.84357008E+02</pdfrwt>
<totfact> 0.23626572E+05</totfact>
</mgrwt>
</event>
<event>
 5    1  0.2051810E+000  0.6521943E+02  0.7546771E-02  0.1377148E+00
         21   -1    0    0  503  502  0.00000000000E+00  0.00000000000E+00  0.19728910565E+02  0.19728910565E+02  0.00000000000E+00 0. -1.
         21   -1    0    0  501  503 -0.00000000000E+00 -0.00000000000E+00 -0.22361879041E+03  0.22361879041E+03  0.00000000000E+00 0. -1.
         24    1    1    2    0    0 -0.20603167780E+02 -0.84893525100E+01 -0.10904775430E+03  0.13731419555E+03  0.80419002446E+02 0. -1.
          1    1    1    2  501    0  0.92116434208E+01  0.25163014899E+02 -0.60973044777E+02  0.66601380486E+02  0.00000000000E+00 0. -1.
         -2    1    1    2    0  502  0.11391524359E+02 -0.16673662389E+02 -0.33869080773E+02  0.39432124937E+02  0.00000000000E+00 0.  1.
<mgrwt>
<rscale>  2 0.65219431E+02</rscale>
<asrwt>0</asrwt>
<pdfrwt beam="1">  1       21 0.30352172E-02 0.65219431E+02</pdfrwt>
<pdfrwt beam="2">  1       21 0.34402888E-01 0.65219431E+02</pdfrwt>
<totfact> 0.47835398E+06</totfact>
</mgrwt>
</event>
<event>
 5    1  0.2051810E+000  0.9897759E+02  0.7546771E-02  0.1282461E+00
         21   -1    0    0  503  502  0.00000000000E+00  0.00000000000E+00  0.13147131869E+02  0.13147131869E+02  0.00000000000E+00 0.  1.
         21   -1    0    0  501  503 -0.00000000000E+00 -0.00000000000E+00 -0.87306597344E+03  0.87306597344E+03  0.00000000000E+00 0. -1.
         24    1    1    2    0    0 -0.84041845058E+01 -0.43199507181E+02 -0.53036766339E+03  0.53823220088E+03  0.80419002446E+02 0. -1.
          1    1    1    2  501    0 -0.39268936580E+02  0.43506212420E+02 -0.23358564919E+03  0.24082586117E+03  0.00000000000E+00 0. -1.
         -2    1    1    2    0  502  0.47673121086E+02 -0.30670523898E+00 -0.95965528985E+02  0.10715504326E+03  0.00000000000E+00 0.  1.
<mgrwt>
<rscale>  2 0.98977593E+02</rscale>
<asrwt>0</asrwt>
<pdfrwt beam="1">  1       21 0.20226349E-02 0.98977593E+02</pdfrwt>
<pdfrwt beam="2">  1       21 0.13431789E+00 0.98977593E+02</pdfrwt>
<totfact> 0.49169996E+05</totfact>
</mgrwt>
</event>
<event>
 5    1  0.2051810E+000  0.1514225E+03  0.7546771E-02  0.1198736E+00
         21   -1    0    0  503  502  0.00000000000E+00  0.00000000000E+00  0.83371013073E+02  0.83371013073E+02  0.00000000000E+00 0.  1.
         21   -1    0    0  501  503 -0.00000000000E+00 -0.00000000000E+00 -0.53697253060E+03  0.53697253060E+03  0.00000000000E+00 0. -1.
         24    1    1    2    0    0  0.12269632879E+03  0.44839279550E+02 -0.86781792171E+02  0.17624768224E+03  0.80419002446E+02 0.  1.
          1    1    1    2  501    0 -0.26272942470E+02 -0.46043567996E+02 -0.33985665376E+03  0.34396631050E+03  0.00000000000E+00 0. -1.
         -2    1    1    2    0  502 -0.96423386316E+02  0.12042884459E+01 -0.26963071602E+02  0.10012955093E+03  0.00000000000E+00 0.  1.
<mgrwt>
<rscale>  2 0.15142247E+03</rscale>
<asrwt>0</asrwt>
<pdfrwt beam="1">  1       21 0.12826310E-01 0.15142247E+03</pdfrwt>
<pdfrwt beam="2">  1       21 0.82611159E-01 0.15142247E+03</pdfrwt>
<totfact> 0.67871950E+04</totfact>
</mgrwt>
</event>
<event>
 5    1  0.2051810E+000  0.1431547E+03  0.7546771E-02  0.1209146E+00
         21   -1    0    0  501  502  0.00000000000E+00  0.00000000000E+00  0.49960228339E+03  0.49960228339E+03  0.00000000000E+00 0. -1.
         21   -1    0    0  502  503 -0.00000000000E+00 -0.00000000000E+00 -0.93694359751E+02  0.93694359751E+02  0.00000000000E+00 0.  1.
         24    1    1    2    0    0 -0.58385427544E+02  0.23205307714E-01  0.62582476453E+02  0.11744207509E+03  0.80419002446E+02 0.  1.
          1    1    1    2  501    0 -0.61214189521E+02 -0.22536351467E+02  0.34800384099E+03  0.35406459506E+03  0.00000000000E+00 0. -1.
         -2    1    1    2    0  503  0.11959961706E+03  0.22513146159E+02 -0.46783938010E+01  0.12178997299E+03  0.00000000000E+00 0.  1.
<mgrwt>
<rscale>  2 0.14315469E+03</rscale>
<asrwt>0</asrwt>
<pdfrwt beam="1">  1       21 0.76861888E-01 0.14315469E+03</pdfrwt>
<pdfrwt beam="2">  1       21 0.14414517E-01 0.14315469E+03</pdfrwt>
<totfact> 0.64945432E+04</totfact>
</mgrwt>
</event>
<event>
 5    1  0.2051810E+000  0.1436201E+03  0.7546771E-02  0.1208539E+00
         21   -1    0    0  503  502  0.00000000000E+00  0.00000000000E+00  0.21881466151E+02  0.21881466151E+02  0.00000000000E+00 0. -1.
         21   -1    0    0  501  503 -0.00000000000E+00 -0.00000000000E+00 -0.10261074757E+04  0.10261074757E+04  0.00000000000E+00 0. -1.
         24    1    1    2    0    0 -0.33014188973E+02 -0.12561276394E+03 -0.44611829686E+03  0.47154772175E+03  0.80419002446E+02 0. -1.
          1    1    1    2  501    0  0.10415204089E+02  0.99086187945E+02 -0.48897560203E+03  0.49902273345E+03  0.00000000000E+00 0. -1.
         -2    1    1    2    0  502  0.22598984884E+02  0.26526576000E+02 -0.69132110689E+02  0.77418486684E+02  0.00000000000E+00 0.  1.
<mgrwt>
<rscale>  2 0.14362013E+03</rscale>
<asrwt>0</asrwt>
<pdfrwt beam="1">  1       21 0.33663793E-02 0.14362013E+03</pdfrwt>
<pdfrwt beam="2">  1       21 0.15786269E+00 0.14362013E+03</pdfrwt>
<totfact> 0.13952138E+05</totfact>
</mgrwt>
</event>
<event>
 5    1  0.2051810E+000  0.1191984E+03  0.7546771E-02  0.1244425E+00
         21   -1    0    0  503  502  0.00000000000E+00  0.00000000000E+00  0.20311792656E+03  0.20311792656E+03  0.00000000000E+00 0.  1.
         21   -1    0    0  501  503 -0.00000000000E+00 -0.00000000000E+00 -0.75990316740E+02  0.75990316740E+02  0.00000000000E+00 0. -1.
         24    1    1    2    0    0  0.18560768596E+01  0.98433237467E+02  0.68511615707E+02  0.14440777230E+03  0.80419002446E+02 0. -1.
          1    1    1    2  501    0 -0.20745558687E+02 -0.14668189097E+02 -0.73158458733E+01  0.26439659178E+02  0.00000000000E+00 0. -1.
         -2    1    1    2    0  502  0.18889481828E+02 -0.83765048371E+02  0.65931839987E+02  0.10826081182E+03  0.00000000000E+00 0.  1.
<mgrwt>
<rscale>  2 0.11919845E+03</rscale>
<asrwt>0</asrwt>
<pdfrwt beam="1">  1       21 0.31248911E-01 0.11919845E+03</pdfrwt>
<pdfrwt beam="2">  1       21 0.11690818E-01 0.11919845E+03</pdfrwt>
<totfact> 0.60890851E+05</totfact>
</mgrwt>
</event>
<event>
 5    1  0.2051810E+000  0.1202665E+03  0.7546771E-02  0.1242658E+00
         21   -1    0    0  503  502  0.00000000000E+00  0.00000000000E+00  0.49070074581E+02  0.49070074581E+02  0.00000000000E+00 0.  1.
         21   -1    0    0  501  503 -0.00000000000E+00 -0.00000000000E+00 -0.52799189187E+03  0.52799189187E+03  0.00000000000E+00 0. -1.
         24    1    1    2    0    0  0.65818261468E+02  0.70952283444E+02 -0.72877412033E+02  0.14541183998E+03  0.80419002446E+02 0. -1.
          1    1    1    2  501    0 -0.74871725090E+02 -0.45324567034E+02 -0.39081320960E+03  0.40049351604E+03  0.00000000000E+00 0. -1.
         -2    1    1    2    0  502  0.90534636217E+01 -0.25627716410E+02 -0.15231195653E+02  0.31156610422E+02  0.00000000000E+00 0.  1.
<mgrwt>
<rscale>  2 0.12026650E+03</rscale>
<asrwt>0</asrwt>
<pdfrwt beam="1">  1       21 0.75492419E-02 0.12026650E+03</pdfrwt>
<pdfrwt beam="2">  1       21 0.81229525E-01 0.12026650E+03</pdfrwt>
<totfact> 0.18045163E+05</totfact>
</mgrwt>
</event>
<event>
 5    1  0.2051810E+000  0.9097993E+02  0.7546771E-02  0.1300496E+00
         21   -1    0    0  501  502  0.00000000000E+00  0.00000000000E+00  0.43256194081E+02  0.43256194081E+02  0.00000000000E+00 0.  1.
         21   -1    0    0  502  503 -0.00000000000E+00 -0.00000000000E+00 -0.19660965567E+03  0.19660965567E+03  0.00000000000E+00 0. -1.
         24    1    1    2    0    0 -0.42201873047E+01 -0.57196945624E+02 -0.92562018468E+02  0.13536707054E+03  0.80419002446E+02 0.  0.
          1    1    1    2  501    0  0.30675136600E+02  0.17020989880E+02 -0.36441404356E+02  0.50583140011E+02  0.00000000000E+00 0. -1.
         -2    1    1    2    0  503 -0.26454949295E+02  0.40175955744E+02 -0.24350038761E+02  0.53915639195E+02  0.00000000000E+00 0.  1.
<mgrwt>
<rscale>  2 0.90979931E+02</rscale>
<asrwt>0</asrwt>
<pdfrwt beam="1">  1       21 0.66547992E-02 0.90979931E+02</pdfrwt>
<pdfrwt beam="2">  1       21 0.30247639E-01 0.90979931E+02</pdfrwt>
<totfact> 0.17077479E+06</totfact>
</mgrwt>
</event>
<event>
 5    1  0.2051810E+000  0.8141583E+02  0.7546771E-02  0.1325081E+00
         21   -1    0    0  503  502  0.00000000000E+00  0.00000000000E+00  0.10823374236E+03  0.10823374236E+03  0.00000000000E+00 0.  1.
         21   -1    0    0  501  503 -0.00000000000E+00 -0.00000000000E+00 -0.63893723734E+02  0.63893723734E+02  0.00000000000E+00 0.  1.
         24    1    1    2    0    0  0.29505980178E+02 -0.21583493176E+02  0.14349209476E+02  0.89496177633E+02  0.80419002446E+02 0.  1.
          1    1    1    2  501    0  0.78267005847E+00 -0.21672821541E+02 -0.42614546899E+00  0.21691135653E+02  0.00000000000E+00 0. -1.
         -2    1    1    2    0  502 -0.30288650236E+02  0.43256314716E+02  0.30416954617E+02  0.60940152807E+02  0.00000000000E+00 0.  1.
<mgrwt>
<rscale>  2 0.81415832E+02</rscale>
<asrwt>0</asrwt>
<pdfrwt beam="1">  1       21 0.16651345E-01 0.81415832E+02</pdfrwt>
<pdfrwt beam="2">  1       21 0.98298036E-02 0.81415832E+02</pdfrwt>
<totfact> 0.26344679E+06</totfact>
</mgrwt>
</event>
<event>
 5    1  0.2051810E+000  0.8790763E+02  0.7546771E-02  0.1307999E+00
         21   -1    0    0  503  502  0.00000000000E+00  0.00000000000E+00  0.28475323813E+03  0.28475323813E+03  0.00000000000E+00 0.  1.
         21   -1    0    0  501  503 -0.00000000000E+00 -0.00000000000E+00 -0.32669823343E+02  0.32669823343E+02  0.00000000000E+00 0. -1.
         24    1    1    2    0    0  0.13868737017E+02 -0.25892141007E+02  0.94108380124E+02  0.12722557917E+03  0.80419002446E+02 0.  1.
          1    1    1    2  501    0 -0.47998615095E+02  0.28750860574E+02  0.43974998909E+02  0.71163751754E+02  0.00000000000E+00 0. -1.
         -2    1    1    2    0  502  0.34129878077E+02 -0.28587195667E+01  0.11400003575E+03  0.11903373054E+03  0.00000000000E+00 0.  1.
<mgrwt>
<rscale>  2 0.87907633E+02</rscale>
<asrwt>0</asrwt>
<pdfrwt beam="1">  1       21 0.43808189E-01 0.87907633E+02</pdfrwt>
<pdfrwt beam="2">  1       21 0.50261269E-02 0.87907633E+02</pdfrwt>
<totfact> 0.13238644E+06</totfact>
</mgrwt>
</event>
<event>
 5    1  0.2051810E+000  0.7476497E+02  0.7546771E-02  0.1344600E+00
         21   -1    0    0  501  502  0.00000000000E+00  0.00000000000E+00  0.38313562539E+02  0.38313562539E+02  0.00000000000E+00 0. -1.
         21   -1    0    0  502  503 -0.00000000000E+00 -0.00000000000E+00 -0.28406178957E+03  0.28406178957E+03  0.00000000000E+00 0.  1.
         24    1    1    2    0    0  0.41320437206E+02 -0.15178388108E+02 -0.71084025352E+02  0.11600826096E+03  0.80419002446E+02 0.  1.
          1    1    1    2  501    0 -0.20479533232E+02  0.27002164622E+02 -0.41103596921E+01  0.34138295687E+02  0.00000000000E+00 0. -1.
         -2    1    1    2    0  503 -0.20840903975E+02 -0.11823776513E+02 -0.17055384199E+03  0.17222879546E+03  0.00000000000E+00 0.  1.
<mgrwt>
<rscale>  2 0.74764966E+02</rscale>
<asrwt>0</asrwt>
<pdfrwt beam="1">  1       21 0.58943943E-02 0.74764966E+02</pdfrwt>
<pdfrwt beam="2">  1       21 0.43701813E-01 0.74764966E+02</pdfrwt>
<totfact> 0.10159997E+06</totfact>
</mgrwt>
</event>
<event>
 5    1  0.2598677E+000  0.9943938E+02  0.7546771E-02  0.1281479E+00
         21   -1    0    0  501  502  0.00000000000E+00  0.00000000000E+00  0.19546798882E+03  0.19546798882E+03  0.00000000000E+00 0. -1.
         21   -1    0    0  502  503 -0.00000000000E+00 -0.00000000000E+00 -0.18129134140E+03  0.18129134140E+03  0.00000000000E+00 0.  1.
         24    1    1    2    0    0  0.25750733585E+02 -0.83142137958E+01  0.65220703762E+02  0.10701954300E+03  0.80419002446E+02 0. -1.
          1    1    1    2  501    0 -0.47993071361E+02  0.48415966460E+02  0.94850693154E+02  0.11680793936E+03  0.00000000000E+00 0. -1.
         -2    1    1    2    0  503  0.22242337776E+02 -0.40101752664E+02 -0.14589474950E+03  0.15293184785E+03  0.00000000000E+00 0.  1.
<mgrwt>
<rscale>  2 0.99439376E+02</rscale>
<asrwt>0</asrwt>
<pdfrwt beam="1">  1       21 0.30071998E-01 0.99439376E+02</pdfrwt>
<pdfrwt beam="2">  1       21 0.27890976E-01 0.99439376E+02</pdfrwt>
<totfact> 0.13451951E+05</totfact>
</mgrwt>
</event>
<event>
 5    1  0.2051810E+000  0.1175493E+03  0.7546771E-02  0.1247196E+00
         21   -1    0    0  501  502  0.00000000000E+00  0.00000000000E+00  0.13655811247E+02  0.13655811247E+02  0.00000000000E+00 0.  1.
         21   -1    0    0  502  503 -0.00000000000E+00 -0.00000000000E+00 -0.10859923733E+04  0.10859923733E+04  0.00000000000E+00 0. -1.
         24    1    1    2    0    0  0.92347119021E+02  0.44440279091E+02 -0.54361685298E+03  0.55900753805E+03  0.80419002446E+02 0.  0.
          1    1    1    2  501    0 -0.41566563887E+02 -0.80069134907E+01 -0.12172831029E+03  0.12887851420E+03  0.00000000000E+00 0. -1.
         -2    1    1    2    0  503 -0.50780555133E+02 -0.36433365600E+02 -0.40699139879E+03  0.41176213230E+03  0.00000000000E+00 0.  1.
<mgrwt>
<rscale>  2 0.11754933E+03</rscale>
<asrwt>0</asrwt>
<pdfrwt beam="1">  1       21 0.21008940E-02 0.11754933E+03</pdfrwt>
<pdfrwt beam="2">  1       21 0.16707575E+00 0.11754933E+03</pdfrwt>
<totfact> 0.26207578E+05</totfact>
</mgrwt>
</event>
<event>
 5    1  0.2051810E+000  0.8423508E+02  0.7546771E-02  0.1317445E+00
         21   -1    0    0  503  502  0.00000000000E+00  0.00000000000E+00  0.80967736084E+02  0.80967736084E+02  0.00000000000E+00 0.  1.
         21   -1    0    0  501  503 -0.00000000000E+00 -0.00000000000E+00 -0.11839882378E+03  0.11839882378E+03  0.00000000000E+00 0.  1.
         24    1    1    2    0    0 -0.95942239205E+01  0.32881875856E+02 -0.10131920382E+02  0.87995105872E+02  0.80419002446E+02 0.  1.
          1    1    1    2  501    0  0.26254402909E+02  0.15087071025E+02 -0.47820926753E+02  0.56601717463E+02  0.00000000000E+00 0. -1.
         -2    1    1    2    0  502 -0.16660178988E+02 -0.47968946880E+02  0.20521759440E+02  0.54769736527E+02  0.00000000000E+00 0.  1.
<mgrwt>
<rscale>  2 0.84235084E+02</rscale>
<asrwt>0</asrwt>
<pdfrwt beam="1">  1       21 0.12456575E-01 0.84235084E+02</pdfrwt>
<pdfrwt beam="2">  1       21 0.18215204E-01 0.84235084E+02</pdfrwt>
<totfact> 0.14859729E+06</totfact>
</mgrwt>
</event>
<event>
 5    1  0.2051810E+000  0.6716584E+02  0.7546771E-02  0.1370005E+00
         21   -1    0    0  501  502  0.00000000000E+00  0.00000000000E+00  0.25201031971E+02  0.25201031971E+02  0.00000000000E+00 0. -1.
         21   -1    0    0  502  503 -0.00000000000E+00 -0.00000000000E+00 -0.74531138508E+03  0.74531138508E+03  0.00000000000E+00 0.  1.
         24    1    1    2    0    0 -0.44063237609E+01 -0.46470317628E+01 -0.18772352918E+03  0.20432412965E+03  0.80419002446E+02 0.  1.
          1    1    1    2  501    0  0.28917380738E+02  0.33812460659E+01  0.38696634609E+01  0.29370427797E+02  0.00000000000E+00 0. -1.
         -2    1    1    2    0  503 -0.24511056977E+02  0.12657856969E+01 -0.53625648739E+03  0.53681785961E+03  0.00000000000E+00 0.  1.
<mgrwt>
<rscale>  2 0.67165845E+02</rscale>
<asrwt>0</asrwt>
<pdfrwt beam="1">  1       21 0.38770827E-02 0.67165845E+02</pdfrwt>
<pdfrwt beam="2">  1       21 0.11466327E+00 0.67165845E+02</pdfrwt>
<totfact> 0.25384296E+05</totfact>
</mgrwt>
</event>
<event>
 5    1  0.2051810E+000  0.7948491E+02  0.7546771E-02  0.1330520E+00
         21   -1    0    0  503  502  0.00000000000E+00  0.00000000000E+00  0.10362206693E+03  0.10362206693E+03  0.00000000000E+00 0.  1.
         21   -1    0    0  501  503 -0.00000000000E+00 -0.00000000000E+00 -0.10061442961E+03  0.10061442961E+03  0.00000000000E+00 0. -1.
         24    1    1    2    0    0 -0.32223529837E+02  0.49383434148E+02 -0.20642648086E+02  0.10183523122E+03  0.80419002446E+02 0. -1.
          1    1    1    2  501    0  0.17171796134E+02 -0.21052187045E+02 -0.29635311408E+02  0.40203443187E+02  0.00000000000E+00 0. -1.
         -2    1    1    2    0  502  0.15051733703E+02 -0.28331247103E+02  0.53285596811E+02  0.62197822128E+02  0.00000000000E+00 0.  1.
<mgrwt>
<rscale>  2 0.79484906E+02</rscale>
<asrwt>0</asrwt>
<pdfrwt beam="1">  1       21 0.15941856E-01 0.79484906E+02</pdfrwt>
<pdfrwt beam="2">  1       21 0.15479143E-01 0.79484906E+02</pdfrwt>
<totfact> 0.12835367E+06</totfact>
</mgrwt>
</event>
<event>
 5    1  0.2051810E+000  0.9360555E+02  0.7546771E-02  0.1294348E+00
         21   -1    0    0  503  502  0.00000000000E+00  0.00000000000E+00  0.36027223199E+03  0.36027223199E+03  0.00000000000E+00 0.  1.
         21   -1    0    0  501  503 -0.00000000000E+00 -0.00000000000E+00 -0.51982313430E+02  0.51982313430E+02  0.00000000000E+00 0. -1.
         24    1    1    2    0    0 -0.29443234475E+02  0.41087294198E+02  0.12905952273E+03  0.16024558079E+03  0.80419002446E+02 0. -1.
          1    1    1    2  501    0  0.22330699564E+02 -0.64236968876E+02 -0.30989811909E+01  0.68078278458E+02  0.00000000000E+00 0. -1.
         -2    1    1    2    0  502  0.71125349114E+01  0.23149674678E+02  0.18232937702E+03  0.18393068617E+03  0.00000000000E+00 0.  1.
<mgrwt>
<rscale>  2 0.93605546E+02</rscale>
<asrwt>0</asrwt>
<pdfrwt beam="1">  1       21 0.55426496E-01 0.93605546E+02</pdfrwt>
<pdfrwt beam="2">  1       21 0.79972792E-02 0.93605546E+02</pdfrwt>
<totfact> 0.37475849E+05</totfact>
</mgrwt>
</event>
<event>
 5    1  0.2051810E+000  0.7540497E+02  0.7546771E-02  0.1342622E+00
         21   -1    0    0  503  502  0.00000000000E+00  0.00000000000E+00  0.38026344999E+02  0.38026344999E+02  0.00000000000E+00 0.  1.
         21   -1    0    0  501  503 -0.00000000000E+00 -0.00000000000E+00 -0.30683461853E+03  0.30683461853E+03  0.00000000000E+00 0. -1.
         24    1    1    2    0    0  0.66674232885E+01 -0.24081630231E+02 -0.45610956250E+02  0.95770322816E+02  0.80419002446E+02 0.  1.
          1    1    1    2  501    0 -0.48579275699E+01 -0.20962416810E+02 -0.19442223303E+03  0.19560937369E+03  0.00000000000E+00 0. -1.
         -2    1    1    2    0  502 -0.18094957186E+01  0.45044047042E+02 -0.28775084249E+02  0.53481267022E+02  0.00000000000E+00 0.  1.
<mgrwt>
<rscale>  2 0.75404972E+02</rscale>
<asrwt>0</asrwt>
<pdfrwt beam="1">  1       21 0.58502069E-02 0.75404972E+02</pdfrwt>
<pdfrwt beam="2">  1       21 0.47205326E-01 0.75404972E+02</pdfrwt>
<totfact> 0.88179561E+05</totfact>
</mgrwt>
</event>
<event>
 5    1  0.2051810E+000  0.7802869E+02  0.7546771E-02  0.1334741E+00
         21   -1    0    0  501  502  0.00000000000E+00  0.00000000000E+00  0.12277099552E+04  0.12277099552E+04  0.00000000000E+00 0.  1.
         21   -1    0    0  502  503 -0.00000000000E+00 -0.00000000000E+00 -0.28248117842E+02  0.28248117842E+02  0.00000000000E+00 0.  1.
         24    1    1    2    0    0  0.19679706316E+02 -0.12216775256E+02  0.44916435334E+03  0.45689426863E+03  0.80419002446E+02 0.  1.
          1    1    1    2  501    0 -0.44446516534E+02  0.16154132814E+02  0.76730615519E+03  0.76876211186E+03  0.00000000000E+00 0. -1.
         -2    1    1    2    0  503  0.24766810219E+02 -0.39373575587E+01 -0.17008671211E+02  0.30301692516E+02  0.00000000000E+00 0.  1.
<mgrwt>
<rscale>  2 0.78028694E+02</rscale>
<asrwt>0</asrwt>
<pdfrwt beam="1">  1       21 0.18887841E+00 0.78028694E+02</pdfrwt>
<pdfrwt beam="2">  1       21 0.43458652E-02 0.78028694E+02</pdfrwt>
<totfact> 0.59239478E+04</totfact>
</mgrwt>
</event>
<event>
 5    1  0.2051810E+000  0.8248000E+02  0.7546771E-02  0.1322157E+00
         21   -1    0    0  501  502  0.00000000000E+00  0.00000000000E+00  0.38658013171E+03  0.38658013171E+03  0.00000000000E+00 0. -1.
         21   -1    0    0  502  503 -0.00000000000E+00 -0.00000000000E+00 -0.55096877157E+02  0.55096877157E+02  0.00000000000E+00 0. -1.
         24    1    1    2    0    0 -0.43925649020E+02  0.42983430984E+02  0.35815061554E+03  0.37217753472E+03  0.80419002446E+02 0. -1.
          1    1    1    2  501    0  0.11554168953E+02 -0.22902732457E+02 -0.68104424336E+01  0.26540838350E+02  0.00000000000E+00 0. -1.
         -2    1    1    2    0  503  0.32371480067E+02 -0.20080698527E+02 -0.19856918557E+02  0.42958635798E+02  0.00000000000E+00 0.  1.
<mgrwt>
<rscale>  2 0.82480000E+02</rscale>
<asrwt>0</asrwt>
<pdfrwt beam="1">  1       21 0.59473865E-01 0.82480000E+02</pdfrwt>
<pdfrwt beam="2">  1       21 0.84764429E-02 0.82480000E+02</pdfrwt>
<totfact> 0.29341654E+05</totfact>
</mgrwt>
</event>
<event>
 5    1  0.2051810E+000  0.6586462E+02  0.7546771E-02  0.1374748E+00
         21   -1    0    0  501  502  0.00000000000E+00  0.00000000000E+00  0.52610718703E+03  0.52610718703E+03  0.00000000000E+00 0.  1.
         21   -1    0    0  502  503 -0.00000000000E+00 -0.00000000000E+00 -0.12479561405E+02  0.12479561405E+02  0.00000000000E+00 0.  1.
         24    1    1    2    0    0  0.11691010872E+02 -0.14390176776E+02  0.38146380256E+03  0.39028913070E+03  0.80419002446E+02 0.  1.
          1    1    1    2  501    0 -0.14094639034E+02 -0.14493655786E+02  0.10991576573E+03  0.11175956542E+03  0.00000000000E+00 0. -1.
         -2    1    1    2    0  503  0.24036281620E+01  0.28883832563E+02  0.22248057340E+02  0.36538052319E+02  0.00000000000E+00 0.  1.
<mgrwt>
<rscale>  2 0.65864618E+02</rscale>
<asrwt>0</asrwt>
<pdfrwt beam="1">  1       21 0.80939550E-01 0.65864618E+02</pdfrwt>
<pdfrwt beam="2">  1       21 0.19199329E-02 0.65864618E+02</pdfrwt>
<totfact> 0.17306312E+06</totfact>
</mgrwt>
</event>
<event>
 5    1  0.2051810E+000  0.6891995E+02  0.7546771E-02  0.1363805E+00
         21   -1    0    0  501  502  0.00000000000E+00  0.00000000000E+00  0.16119347352E+03  0.16119347352E+03  0.00000000000E+00 0.  1.
         21   -1    0    0  502  503 -0.00000000000E+00 -0.00000000000E+00 -0.36903682278E+02  0.36903682278E+02  0.00000000000E+00 0.  1.
         24    1    1    2    0    0  0.13214694852E+02 -0.27172621531E+02  0.92013957988E+02  0.12588393043E+03  0.80419002446E+02 0.  0.
          1    1    1    2  501    0  0.12444870746E+02  0.22696932720E+02  0.37579646646E+02  0.45631736816E+02  0.00000000000E+00 0. -1.
         -2    1    1    2    0  503 -0.25659565598E+02  0.44756888105E+01 -0.53038133965E+01  0.26581488551E+02  0.00000000000E+00 0.  1.
<mgrwt>
<rscale>  2 0.68919947E+02</rscale>
<asrwt>0</asrwt>
<pdfrwt beam="1">  1       21 0.24798995E-01 0.68919947E+02</pdfrwt>
<pdfrwt beam="2">  1       21 0.56774897E-02 0.68919947E+02</pdfrwt>
<totfact> 0.31960645E+06</totfact>
</mgrwt>
</event>
<event>
 5    1  0.2051810E+000  0.1105885E+03  0.7546771E-02  0.1259484E+00
         21   -1    0    0  501  502  0.00000000000E+00  0.00000000000E+00  0.12145375318E+03  0.12145375318E+03  0.00000000000E+00 0. -1.
         21   -1    0    0  502  503 -0.00000000000E+00 -0.00000000000E+00 -0.17696731849E+03  0.17696731849E+03  0.00000000000E+00 0. -1.
         24    1    1    2    0    0  0.95263281690E+02 -0.21797051711E+01 -0.45005677883E+02  0.13256157418E+03  0.80419002446E+02 0. -1.
          1    1    1    2  501    0 -0.75611989836E+02 -0.44681874421E+01  0.57282826459E+02  0.94965572251E+02  0.00000000000E+00 0. -1.
         -2    1    1    2    0  503 -0.19651291854E+02  0.66478926132E+01 -0.67790713885E+02  0.70893925245E+02  0.00000000000E+00 0.  1.
<mgrwt>
<rscale>  2 0.11058853E+03</rscale>
<asrwt>0</asrwt>
<pdfrwt beam="1">  1       21 0.18685193E-01 0.11058853E+03</pdfrwt>
<pdfrwt beam="2">  1       21 0.27225741E-01 0.11058853E+03</pdfrwt>
<totfact> 0.34194475E+05</totfact>
</mgrwt>
</event>
<event>
 5    1  0.2051810E+000  0.7621503E+02  0.7546771E-02  0.1340149E+00
         21   -1    0    0  501  502  0.00000000000E+00  0.00000000000E+00  0.83066282570E+01  0.83066282570E+01  0.00000000000E+00 0. -1.
         21   -1    0    0  502  503 -0.00000000000E+00 -0.00000000000E+00 -0.82324695581E+03  0.82324695581E+03  0.00000000000E+00 0. -1.
         24    1    1    2    0    0  0.29491404104E+01  0.49429088183E+02 -0.60700347482E+03  0.61430641099E+03  0.80419002446E+02 0. -1.
          1    1    1    2  501    0  0.12897590662E+02 -0.31624919536E+02 -0.78110521243E+02  0.85251022923E+02  0.00000000000E+00 0. -1.
         -2    1    1    2    0  503 -0.15846731072E+02 -0.17804168647E+02 -0.12982633149E+03  0.13199615015E+03  0.00000000000E+00 0.  1.
<mgrwt>
<rscale>  2 0.76215031E+02</rscale>
<asrwt>0</asrwt>
<pdfrwt beam="1">  1       21 0.12779428E-02 0.76215031E+02</pdfrwt>
<pdfrwt beam="2">  1       21 0.12665338E+00 0.76215031E+02</pdfrwt>
<totfact> 0.11779307E+06</totfact>
</mgrwt>
</event>
<event>
 5    1  0.2051810E+000  0.7044338E+02  0.7546771E-02  0.1358592E+00
         21   -1    0    0  503  502  0.00000000000E+00  0.00000000000E+00  0.24817005035E+03  0.24817005035E+03  0.00000000000E+00 0.  1.
         21   -1    0    0  501  503 -0.00000000000E+00 -0.00000000000E+00 -0.42653029002E+02  0.42653029002E+02  0.00000000000E+00 0. -1.
         24    1    1    2    0    0 -0.19007435134E+02 -0.42970269169E+02  0.10421224238E+03  0.13976814386E+03  0.80419002446E+02 0.  1.
          1    1    1    2  501    0  0.12117205336E+02  0.16985729064E+02 -0.18735035344E+02  0.28041811753E+02  0.00000000000E+00 0. -1.
         -2    1    1    2    0  502  0.68902297974E+01  0.25984540105E+02  0.12003981431E+03  0.12301312373E+03  0.00000000000E+00 0.  1.
<mgrwt>
<rscale>  2 0.70443383E+02</rscale>
<asrwt>0</asrwt>
<pdfrwt beam="1">  1       21 0.38180007E-01 0.70443383E+02</pdfrwt>
<pdfrwt beam="2">  1       21 0.65620046E-02 0.70443383E+02</pdfrwt>
<totfact> 0.11061870E+06</totfact>
</mgrwt>
</event>
<event>
 5    1  0.2051810E+000  0.1053753E+03  0.7546771E-02  0.1269382E+00
         21   -1    0    0  503  502  0.00000000000E+00  0.00000000000E+00  0.24394224742E+03  0.24394224742E+03  0.00000000000E+00 0.  1.
         21   -1    0    0  501  503 -0.00000000000E+00 -0.00000000000E+00 -0.15939729179E+03  0.15939729179E+03  0.00000000000E+00 0.  1.
         24    1    1    2    0    0 -0.74024024163E+02 -0.47563440738E+02 -0.40319990240E+02  0.12583622140E+03  0.80419002446E+02 0.  0.
          1    1    1    2  501    0  0.35705051709E+02  0.82415951164E+01 -0.67853690450E+02  0.77116132652E+02  0.00000000000E+00 0. -1.
         -2    1    1    2    0  502  0.38318972454E+02  0.39321845621E+02  0.19271863632E+03  0.20038718516E+03  0.00000000000E+00 0.  1.
<mgrwt>
<rscale>  2 0.10537528E+03</rscale>
<asrwt>0</asrwt>
<pdfrwt beam="1">  1       21 0.37529576E-01 0.10537528E+03</pdfrwt>
<pdfrwt beam="2">  1       21 0.24522660E-01 0.10537528E+03</pdfrwt>
<totfact> 0.11124816E+05</totfact>
</mgrwt>
</event>
<event>
 5    1  0.2051810E+000  0.8241814E+02  0.7546771E-02  0.1322326E+00
         21   -1    0    0  503  502  0.00000000000E+00  0.00000000000E+00  0.15756543229E+03  0.15756543229E+03  0.00000000000E+00 0.  1.
         21   -1    0    0  501  503 -0.00000000000E+00 -0.00000000000E+00 -0.10597507826E+03  0.10597507826E+03  0.00000000000E+00 0.  1.
         24    1    1    2    0    0  0.13036511330E+02  0.15779322474E+02 -0.56074851274E+02  0.10015259630E+03  0.80419002446E+02 0.  1.
          1    1    1    2  501    0  0.33256351932E+02 -0.12195863434E+02 -0.10071825812E+02  0.36826155160E+02  0.00000000000E+00 0. -1.
         -2    1    1    2    0  502 -0.46292863262E+02 -0.35834590409E+01  0.11773703112E+03  0.12656175909E+03  0.00000000000E+00 0.  1.
<mgrwt>
<rscale>  2 0.82418143E+02</rscale>
<asrwt>0</asrwt>
<pdfrwt beam="1">  1       21 0.24240836E-01 0.82418143E+02</pdfrwt>
<pdfrwt beam="2">  1       21 0.16303858E-01 0.82418143E+02</pdfrwt>
<totfact> 0.54534509E+05</totfact>
</mgrwt>
</event>
<event>
 5    1  0.2051810E+000  0.7505800E+02  0.7546771E-02  0.1343692E+00
         21   -1    0    0  501  502  0.00000000000E+00  0.00000000000E+00  0.33324451676E+03  0.33324451676E+03  0.00000000000E+00 0. -1.
         21   -1    0    0  502  503 -0.00000000000E+00 -0.00000000000E+00 -0.23245537910E+02  0.23245537910E+02  0.00000000000E+00 0. -1.
         24    1    1    2    0    0  0.30626423492E+01 -0.92163399539E+01  0.75195912871E+02  0.11052584298E+03  0.80419002446E+02 0. -1.
          1    1    1    2  501    0 -0.34657215892E+02 -0.39558140091E+01  0.15914299393E+03  0.16292103485E+03  0.00000000000E+00 0. -1.
         -2    1    1    2    0  503  0.31594573543E+02  0.13172153963E+02  0.75660072044E+02  0.83043176836E+02  0.00000000000E+00 0.  1.
<mgrwt>
<rscale>  2 0.75057997E+02</rscale>
<asrwt>0</asrwt>
<pdfrwt beam="1">  1       21 0.51268384E-01 0.75057997E+02</pdfrwt>
<pdfrwt beam="2">  1       21 0.35762368E-02 0.75057997E+02</pdfrwt>
<totfact> 0.16793412E+06</totfact>
</mgrwt>
</event>
<event>
 5    1  0.2051810E+000  0.8132243E+02  0.7546771E-02  0.1325340E+00
         21   -1    0    0  503  502  0.00000000000E+00  0.00000000000E+00  0.47304146637E+02  0.47304146637E+02  0.00000000000E+00 0.  1.
         21   -1    0    0  501  503 -0.00000000000E+00 -0.00000000000E+00 -0.70026393945E+03  0.70026393945E+03  0.00000000000E+00 0. -1.
         24    1    1    2    0    0 -0.46925419170E+02 -0.17988307623E+02 -0.25892673468E+03  0.27574597742E+03  0.80419002446E+02 0. -1.
          1    1    1    2  501    0  0.41622459933E+02 -0.70548290108E+01 -0.42756046753E+03  0.42963956193E+03  0.00000000000E+00 0. -1.
         -2    1    1    2    0  502  0.53029592364E+01  0.25043136634E+02  0.33527409392E+02  0.42182546742E+02  0.00000000000E+00 0.  1.
<mgrwt>
<rscale>  2 0.81322435E+02</rscale>
<asrwt>0</asrwt>
<pdfrwt beam="1">  1       21 0.72775608E-02 0.81322435E+02</pdfrwt>
<pdfrwt beam="2">  1       21 0.10773292E+00 0.81322435E+02</pdfrwt>
<totfact> 0.10249335E+05</totfact>
</mgrwt>
</event>
<event>
 5    1  0.2051810E+000  0.7455205E+02  0.7546771E-02  0.1345264E+00
         21   -1    0    0  503  502  0.00000000000E+00  0.00000000000E+00  0.12174656639E+02  0.12174656639E+02  0.00000000000E+00 0. -1.
         21   -1    0    0  501  503 -0.00000000000E+00 -0.00000000000E+00 -0.11587353932E+04  0.11587353932E+04  0.00000000000E+00 0. -1.
         24    1    1    2    0    0  0.28607984643E+02 -0.86326254001E+01 -0.27259844638E+03  0.28577975423E+03  0.80419002446E+02 0. -1.
          1    1    1    2  501    0 -0.23742466938E+00  0.28612089170E+02 -0.82287824287E+03  0.82337555866E+03  0.00000000000E+00 0. -1.
         -2    1    1    2    0  502 -0.28370559973E+02 -0.19979463770E+02 -0.51084047344E+02  0.61754736974E+02  0.00000000000E+00 0.  1.
<mgrwt>
<rscale>  2 0.74552049E+02</rscale>
<asrwt>0</asrwt>
<pdfrwt beam="1">  1       21 0.18730237E-02 0.74552049E+02</pdfrwt>
<pdfrwt beam="2">  1       21 0.17826702E+00 0.74552049E+02</pdfrwt>
<totfact> 0.27078027E+05</totfact>
</mgrwt>
</event>
<event>
 5    1  0.2051810E+000  0.7190240E+02  0.7546771E-02  0.1353741E+00
         21   -1    0    0  503  502  0.00000000000E+00  0.00000000000E+00  0.44281340005E+02  0.44281340005E+02  0.00000000000E+00 0. -1.
         21   -1    0    0  501  503 -0.00000000000E+00 -0.00000000000E+00 -0.16138082952E+03  0.16138082952E+03  0.00000000000E+00 0.  1.
         24    1    1    2    0    0  0.14805036224E+02 -0.23480006422E+02 -0.59162257635E+02  0.10362378338E+03  0.80419002446E+02 0. -1.
          1    1    1    2  501    0 -0.24952938506E+02 -0.75602238271E+01 -0.63743103997E+02  0.68869364972E+02  0.00000000000E+00 0. -1.
         -2    1    1    2    0  502  0.10147902283E+02  0.31040230249E+02  0.58058721166E+01  0.33169021175E+02  0.00000000000E+00 0.  1.
<mgrwt>
<rscale>  2 0.71902399E+02</rscale>
<asrwt>0</asrwt>
<pdfrwt beam="1">  1       21 0.68125139E-02 0.71902399E+02</pdfrwt>
<pdfrwt beam="2">  1       21 0.24827820E-01 0.71902399E+02</pdfrwt>
<totfact> 0.23573958E+06</totfact>
</mgrwt>
</event>
<event>
 5    1  0.2051810E+000  0.9137912E+02  0.7546771E-02  0.1299546E+00
         21   -1    0    0  501  502  0.00000000000E+00  0.00000000000E+00  0.15395938028E+03  0.15395938028E+03  0.00000000000E+00 0.  1.
         21   -1    0    0  502  503 -0.00000000000E+00 -0.00000000000E+00 -0.59899189809E+02  0.59899189809E+02  0.00000000000E+00 0. -1.
         24    1    1    2    0    0  0.87322337905E+01 -0.44384246300E+02  0.71747618076E+02  0.11688092180E+03  0.80419002446E+02 0. -1.
          1    1    1    2  501    0 -0.14896587617E+02 -0.20484896581E+02  0.19125516443E+02  0.31738378815E+02  0.00000000000E+00 0. -1.
         -2    1    1    2    0  503  0.61643538263E+01  0.64869142881E+02  0.31870559521E+01  0.65239269476E+02  0.00000000000E+00 0.  1.
<mgrwt>
<rscale>  2 0.91379124E+02</rscale>
<asrwt>0</asrwt>
<pdfrwt beam="1">  1       21 0.23686058E-01 0.91379124E+02</pdfrwt>
<pdfrwt beam="2">  1       21 0.92152600E-02 0.91379124E+02</pdfrwt>
<totfact> 0.15541908E+06</totfact>
</mgrwt>
</event>
<event>
 5    1  0.2051810E+000  0.6968072E+02  0.7546771E-02  0.1361182E+00
         21   -1    0    0  501  502  0.00000000000E+00  0.00000000000E+00  0.27833111825E+02  0.27833111825E+02  0.00000000000E+00 0.  1.
         21   -1    0    0  502  503 -0.00000000000E+00 -0.00000000000E+00 -0.19024030883E+03  0.19024030883E+03  0.00000000000E+00 0.  1.
         24    1    1    2    0    0  0.24953624101E+02 -0.22051652357E+02 -0.90998178065E+02  0.12592395758E+03  0.80419002446E+02 0.  1.
          1    1    1    2  501    0 -0.22445421716E+02 -0.67275172712E+01 -0.12544904636E+02  0.26578771171E+02  0.00000000000E+00 0. -1.
         -2    1    1    2    0  503 -0.25082023851E+01  0.28779169628E+02 -0.58864114308E+02  0.65570691906E+02  0.00000000000E+00 0.  1.
<mgrwt>
<rscale>  2 0.69680720E+02</rscale>
<asrwt>0</asrwt>
<pdfrwt beam="1">  1       21 0.42820171E-02 0.69680720E+02</pdfrwt>
<pdfrwt beam="2">  1       21 0.29267741E-01 0.69680720E+02</pdfrwt>
<totfact> 0.37371436E+06</totfact>
</mgrwt>
</event>
<event>
 5    1  0.2051810E+000  0.6522931E+02  0.7546771E-02  0.1377111E+00
         21   -1    0    0  503  502  0.00000000000E+00  0.00000000000E+00  0.76269347369E+03  0.76269347369E+03  0.00000000000E+00 0. -1.
         21   -1    0    0  501  503 -0.00000000000E+00 -0.00000000000E+00 -0.96223209495E+01  0.96223209495E+01  0.00000000000E+00 0.  1.
         24    1    1    2    0    0  0.13433069159E+02 -0.12424495995E+02  0.20578944116E+03  0.22170098217E+03  0.80419002446E+02 0.  1.
          1    1    1    2  501    0 -0.27398868882E+02 -0.25385983307E+01  0.13242815129E+03  0.13525663662E+03  0.00000000000E+00 0. -1.
         -2    1    1    2    0  502  0.13965799723E+02  0.14963094326E+02  0.41485356029E+03  0.41535817584E+03  0.00000000000E+00 0.  1.
<mgrwt>
<rscale>  2 0.65229310E+02</rscale>
<asrwt>0</asrwt>
<pdfrwt beam="1">  1       21 0.11733741E+00 0.65229310E+02</pdfrwt>
<pdfrwt beam="2">  1       21 0.14803577E-02 0.65229310E+02</pdfrwt>
<totfact> 0.11205561E+06</totfact>
</mgrwt>
</event>
<event>
 5    1  0.2051810E+000  0.9668227E+02  0.7546771E-02  0.1287432E+00
         21   -1    0    0  501  502  0.00000000000E+00  0.00000000000E+00  0.88476335191E+03  0.88476335191E+03  0.00000000000E+00 0. -1.
         21   -1    0    0  502  503 -0.00000000000E+00 -0.00000000000E+00 -0.11328166430E+02  0.11328166430E+02  0.00000000000E+00 0.  1.
         24    1    1    2    0    0  0.37334003046E+00 -0.63417646748E+02  0.49239121760E+03  0.50292968139E+03  0.80419002446E+02 0. -1.
          1    1    1    2  501    0  0.32266390910E+02  0.27288854573E+02  0.24611962621E+03  0.24972118847E+03  0.00000000000E+00 0. -1.
         -2    1    1    2    0  503 -0.32639730941E+02  0.36128792175E+02  0.13492434167E+03  0.14344064847E+03  0.00000000000E+00 0.  1.
<mgrwt>
<rscale>  2 0.96682274E+02</rscale>
<asrwt>0</asrwt>
<pdfrwt beam="1">  1       21 0.13611738E+00 0.96682274E+02</pdfrwt>
<pdfrwt beam="2">  1       21 0.17427955E-02 0.96682274E+02</pdfrwt>
<totfact> 0.60392215E+05</totfact>
</mgrwt>
</event>
<event>
 5    1  0.2051810E+000  0.1969045E+03  0.7546771E-02  0.1152377E+00
         21   -1    0    0  503  502  0.00000000000E+00  0.00000000000E+00  0.10133736447E+03  0.10133736447E+03  0.00000000000E+00 0.  1.
         21   -1    0    0  501  503 -0.00000000000E+00 -0.00000000000E+00 -0.47788387890E+03  0.47788387890E+03  0.00000000000E+00 0. -1.
         24    1    1    2    0    0 -0.14791837542E+03 -0.56296330960E+02 -0.16805120012E+03  0.24445356304E+03  0.80419002446E+02 0. -1.
          1    1    1    2  501    0  0.20699218826E+02  0.83633970911E+02 -0.18286358204E+03  0.20214397935E+03  0.00000000000E+00 0. -1.
         -2    1    1    2    0  502  0.12721915659E+03 -0.27337639951E+02 -0.25631732268E+02  0.13262370098E+03  0.00000000000E+00 0.  1.
<mgrwt>
<rscale>  2 0.19690454E+03</rscale>
<asrwt>0</asrwt>
<pdfrwt beam="1">  1       21 0.15590364E-01 0.19690454E+03</pdfrwt>
<pdfrwt beam="2">  1       21 0.73520595E-01 0.19690454E+03</pdfrwt>
<totfact> 0.60648083E+04</totfact>
</mgrwt>
</event>
<event>
 5    1  0.2051810E+000  0.6397126E+02  0.7546771E-02  0.1381884E+00
         21   -1    0    0  503  502  0.00000000000E+00  0.00000000000E+00  0.11204752267E+03  0.11204752267E+03  0.00000000000E+00 0.  1.
         21   -1    0    0  501  503 -0.00000000000E+00 -0.00000000000E+00 -0.10583604712E+03  0.10583604712E+03  0.00000000000E+00 0. -1.
         24    1    1    2    0    0 -0.24257385194E+02 -0.12954206585E+02 -0.21468088477E+02  0.87660293075E+02  0.80419002446E+02 0.  1.
          1    1    1    2  501    0  0.52658243778E+01  0.21493106455E+02 -0.47399269067E+02  0.52310354994E+02  0.00000000000E+00 0. -1.
         -2    1    1    2    0  502  0.18991560816E+02 -0.85388998701E+01  0.75078833090E+02  0.77912921723E+02  0.00000000000E+00 0.  1.
<mgrwt>
<rscale>  2 0.63971260E+02</rscale>
<asrwt>0</asrwt>
<pdfrwt beam="1">  1       21 0.17238080E-01 0.63971260E+02</pdfrwt>
<pdfrwt beam="2">  1       21 0.16282469E-01 0.63971260E+02</pdfrwt>
<totfact> 0.10129509E+06</totfact>
</mgrwt>
</event>
<event>
 5    1  0.2051810E+000  0.1087696E+03  0.7546771E-02  0.1262866E+00
         21   -1    0    0  501  502  0.00000000000E+00  0.00000000000E+00  0.12520245880E+03  0.12520245880E+03  0.00000000000E+00 0.  1.
         21   -1    0    0  502  503 -0.00000000000E+00 -0.00000000000E+00 -0.17870656694E+03  0.17870656694E+03  0.00000000000E+00 0.  1.
         24    1    1    2    0    0 -0.53742681133E+02 -0.41171304288E+02 -0.12873771690E+03  0.16620459614E+03  0.80419002446E+02 0.  1.
          1    1    1    2  501    0 -0.61730804247E+01  0.51284063661E+02  0.50064330398E+02  0.71934687639E+02  0.00000000000E+00 0. -1.
         -2    1    1    2    0  503  0.59915761558E+02 -0.10112759373E+02  0.25169278352E+02  0.65769741963E+02  0.00000000000E+00 0.  1.
<mgrwt>
<rscale>  2 0.10876957E+03</rscale>
<asrwt>0</asrwt>
<pdfrwt beam="1">  1       21 0.19261917E-01 0.10876957E+03</pdfrwt>
<pdfrwt beam="2">  1       21 0.27493318E-01 0.10876957E+03</pdfrwt>
<totfact> 0.31755435E+05</totfact>
</mgrwt>
</event>
<event>
 5    1  0.2051810E+000  0.8389953E+02  0.7546771E-02  0.1318336E+00
         21   -1    0    0  501  502  0.00000000000E+00  0.00000000000E+00  0.15178607587E+03  0.15178607587E+03  0.00000000000E+00 0. -1.
         21   -1    0    0  502  503 -0.00000000000E+00 -0.00000000000E+00 -0.31292419368E+03  0.31292419368E+03  0.00000000000E+00 0. -1.
         24    1    1    2    0    0 -0.35632354253E+02  0.53876142740E+01 -0.20782912666E+03  0.22574067622E+03  0.80419002446E+02 0. -1.
          1    1    1    2  501    0  0.45399327146E+02  0.22107791491E+02  0.13596980702E+03  0.14504358576E+03  0.00000000000E+00 0. -1.
         -2    1    1    2    0  503 -0.97669728931E+01 -0.27495405765E+02 -0.89278798162E+02  0.93926007575E+02  0.00000000000E+00 0.  1.
<mgrwt>
<rscale>  2 0.83899532E+02</rscale>
<asrwt>0</asrwt>
<pdfrwt beam="1">  1       21 0.23351704E-01 0.83899532E+02</pdfrwt>
<pdfrwt beam="2">  1       21 0.48142184E-01 0.83899532E+02</pdfrwt>
<totfact> 0.74962591E+04</totfact>
</mgrwt>
</event>
<event>
 5    1  0.2051810E+000  0.7659014E+02  0.7546771E-02  0.1339016E+00
         21   -1    0    0  501  502  0.00000000000E+00  0.00000000000E+00  0.67147549849E+03  0.67147549849E+03  0.00000000000E+00 0.  1.
         21   -1    0    0  502  503 -0.00000000000E+00 -0.00000000000E+00 -0.12460909742E+02  0.12460909742E+02  0.00000000000E+00 0. -1.
         24    1    1    2    0    0  0.21557884479E+02 -0.36963216613E+02  0.55444744465E+03  0.56188095412E+03  0.80419002446E+02 0.  0.
          1    1    1    2  501    0  0.11901591298E+02  0.22865432818E+02  0.53619400661E+02  0.59493831786E+02  0.00000000000E+00 0. -1.
         -2    1    1    2    0  503 -0.33459475777E+02  0.14097783795E+02  0.50947743440E+02  0.62561622332E+02  0.00000000000E+00 0.  1.
<mgrwt>
<rscale>  2 0.76590137E+02</rscale>
<asrwt>0</asrwt>
<pdfrwt beam="1">  1       21 0.10330389E+00 0.76590137E+02</pdfrwt>
<pdfrwt beam="2">  1       21 0.19170636E-02 0.76590137E+02</pdfrwt>
<totfact> 0.10056100E+06</totfact>
</mgrwt>
</event>
<event>
 5    1  0.2051810E+000  0.8608543E+02  0.7546771E-02  0.1312618E+00
         21   -1    0    0  503  502  0.00000000000E+00  0.00000000000E+00  0.36731007563E+03  0.36731007563E+03  0.00000000000E+00 0. -1.
         21   -1    0    0  501  503 -0.00000000000E+00 -0.00000000000E+00 -0.40869530586E+02  0.40869530586E+02  0.00000000000E+00 0.  1.
         24    1    1    2    0    0 -0.16498700217E+02 -0.46355932598E+02  0.28832343788E+02  0.98588029692E+02  0.80419002446E+02 0.  1.
          1    1    1    2  501    0 -0.11312105631E+02  0.48687851386E+02  0.12302302880E+03  0.13278981972E+03  0.00000000000E+00 0. -1.
         -2    1    1    2    0  502  0.27810805848E+02 -0.23319187874E+01  0.17458517245E+03  0.17680175680E+03  0.00000000000E+00 0.  1.
<mgrwt>
<rscale>  2 0.86085430E+02</rscale>
<asrwt>0</asrwt>
<pdfrwt beam="1">  1       21 0.56509240E-01 0.86085430E+02</pdfrwt>
<pdfrwt beam="2">  1       21 0.62876204E-02 0.86085430E+02</pdfrwt>
<totfact> 0.54155742E+05</totfact>
</mgrwt>
</event>
<event>
 5    1  0.2051810E+000  0.7349123E+02  0.7546771E-02  0.1348608E+00
         21   -1    0    0  503  502  0.00000000000E+00  0.00000000000E+00  0.45129321215E+02  0.45129321215E+02  0.00000000000E+00 0. -1.
         21   -1    0    0  501  503 -0.00000000000E+00 -0.00000000000E+00 -0.20975222044E+03  0.20975222044E+03  0.00000000000E+00 0. -1.
         24    1    1    2    0    0  0.33235081328E+02  0.21530708980E+02 -0.22323125018E+02  0.92377919034E+02  0.80419002446E+02 0. -1.
          1    1    1    2  501    0  0.34735968621E+00 -0.23688095928E+02 -0.11957105511E+03  0.12189538042E+03  0.00000000000E+00 0. -1.
         -2    1    1    2    0  502 -0.33582441014E+02  0.21573869486E+01 -0.22728719099E+02  0.40608242203E+02  0.00000000000E+00 0.  1.
<mgrwt>
<rscale>  2 0.73491234E+02</rscale>
<asrwt>0</asrwt>
<pdfrwt beam="1">  1       21 0.69429725E-02 0.73491234E+02</pdfrwt>
<pdfrwt beam="2">  1       21 0.32269572E-01 0.73491234E+02</pdfrwt>
<totfact> 0.13944482E+06</totfact>
</mgrwt>
</event>
<event>
 5    1  0.2051810E+000  0.7719881E+02  0.7546771E-02  0.1337194E+00
         21   -1    0    0  503  502  0.00000000000E+00  0.00000000000E+00  0.57461890775E+02  0.57461890775E+02  0.00000000000E+00 0.  1.
         21   -1    0    0  501  503 -0.00000000000E+00 -0.00000000000E+00 -0.21455740123E+03  0.21455740123E+03  0.00000000000E+00 0. -1.
         24    1    1    2    0    0  0.29464832755E+01  0.30122914235E+02 -0.71549541593E+02  0.11181513575E+03  0.80419002446E+02 0.  0.
          1    1    1    2  501    0 -0.24303296174E+02  0.73064356194E+01 -0.10846535655E+03  0.11139464878E+03  0.00000000000E+00 0. -1.
         -2    1    1    2    0  502  0.21356812898E+02 -0.37429349855E+02  0.22919387687E+02  0.48809507472E+02  0.00000000000E+00 0.  1.
<mgrwt>
<rscale>  2 0.77198810E+02</rscale>
<asrwt>0</asrwt>
<pdfrwt beam="1">  1       21 0.88402908E-02 0.77198810E+02</pdfrwt>
<pdfrwt beam="2">  1       21 0.33008831E-01 0.77198810E+02</pdfrwt>
<totfact> 0.88726064E+05</totfact>
</mgrwt>
</event>
<event>
 5    1  0.2051810E+000  0.9739046E+02  0.7546771E-02  0.1285881E+00
         21   -1    0    0  501  502  0.00000000000E+00  0.00000000000E+00  0.24719786917E+03  0.24719786917E+03  0.00000000000E+00 0.  1.
         21   -1    0    0  502  503 -0.00000000000E+00 -0.00000000000E+00 -0.56740471986E+02  0.56740471986E+02  0.00000000000E+00 0. -1.
         24    1    1    2    0    0  0.60924541695E+02  0.87695503438E+01  0.14861258968E+03  0.17983776733E+03  0.80419002446E+02 0. -1.
          1    1    1    2  501    0  0.78251749245E+01 -0.22130667589E+02  0.48366390106E+02  0.53761580171E+02  0.00000000000E+00 0. -1.
         -2    1    1    2    0  503 -0.68749716620E+02  0.13361117245E+02 -0.65215825940E+01  0.70338993658E+02  0.00000000000E+00 0.  1.
<mgrwt>
<rscale>  2 0.97390459E+02</rscale>
<asrwt>0</asrwt>
<pdfrwt beam="1">  1       21 0.38030441E-01 0.97390459E+02</pdfrwt>
<pdfrwt beam="2">  1       21 0.87293036E-02 0.97390459E+02</pdfrwt>
<totfact> 0.69036859E+05</totfact>
</mgrwt>
</event>
<event>
 5    1  0.2051810E+000  0.1359619E+03  0.7546771E-02  0.1218868E+00
         21   -1    0    0  503  502  0.00000000000E+00  0.00000000000E+00  0.56911721681E+02  0.56911721681E+02  0.00000000000E+00 0.  1.
         21   -1    0    0  501  503 -0.00000000000E+00 -0.00000000000E+00 -0.12974033558E+04  0.12974033558E+04  0.00000000000E+00 0. -1.
         24    1    1    2    0    0 -0.25875687382E+02  0.11933853033E+03 -0.23595276616E+03  0.27758270810E+03  0.80419002446E+02 0.  1.
          1    1    1    2  501    0  0.51649597443E+01 -0.87969033457E+02 -0.10284264152E+04  0.10321948067E+04  0.00000000000E+00 0. -1.
         -2    1    1    2    0  502  0.20710727637E+02 -0.31369496872E+02  0.23887547219E+02  0.44537562634E+02  0.00000000000E+00 0.  1.
<mgrwt>
<rscale>  2 0.13596193E+03</rscale>
<asrwt>0</asrwt>
<pdfrwt beam="1">  1       21 0.87556498E-02 0.13596193E+03</pdfrwt>
<pdfrwt beam="2">  1       21 0.19960051E+00 0.13596193E+03</pdfrwt>
<totfact> 0.14558326E+04</totfact>
</mgrwt>
</event>
<event>
 5    1  0.2051810E+000  0.6899451E+02  0.7546771E-02  0.1363546E+00
         21   -1    0    0  503  502  0.00000000000E+00  0.00000000000E+00  0.15798839706E+03  0.15798839706E+03  0.00000000000E+00 0.  1.
         21   -1    0    0  501  503 -0.00000000000E+00 -0.00000000000E+00 -0.95024343399E+02  0.95024343399E+02  0.00000000000E+00 0. -1.
         24    1    1    2    0    0 -0.59858992987E+01 -0.75567973022E+01  0.21346484114E+02  0.83760518828E+02  0.80419002446E+02 0.  1.
          1    1    1    2  501    0  0.98262352399E+01 -0.23619695120E+02 -0.58753093552E+02  0.64080971422E+02  0.00000000000E+00 0. -1.
         -2    1    1    2    0  502 -0.38403359412E+01  0.31176492422E+02  0.10037066310E+03  0.10517125021E+03  0.00000000000E+00 0.  1.
<mgrwt>
<rscale>  2 0.68994508E+02</rscale>
<asrwt>0</asrwt>
<pdfrwt beam="1">  1       21 0.24305907E-01 0.68994508E+02</pdfrwt>
<pdfrwt beam="2">  1       21 0.14619130E-01 0.68994508E+02</pdfrwt>
<totfact> 0.65768493E+05</totfact>
</mgrwt>
</event>
<event>
 5    1  0.2051810E+000  0.1003858E+03  0.7546771E-02  0.1279487E+00
         21   -1    0    0  501  502  0.00000000000E+00  0.00000000000E+00  0.17737175477E+03  0.17737175477E+03  0.00000000000E+00 0.  1.
         21   -1    0    0  502  503 -0.00000000000E+00 -0.00000000000E+00 -0.13344070440E+03  0.13344070440E+03  0.00000000000E+00 0.  1.
         24    1    1    2    0    0 -0.77930380402E+02 -0.13096574312E+02  0.12896821963E+03  0.17130289570E+03  0.80419002446E+02 0.  1.
          1    1    1    2  501    0  0.54127328988E+02 -0.97878983915E+01 -0.78579357964E+01  0.55563637869E+02  0.00000000000E+00 0. -1.
         -2    1    1    2    0  503  0.23803051414E+02  0.22884472704E+02 -0.77179233455E+02  0.83945925596E+02  0.00000000000E+00 0.  1.
<mgrwt>
<rscale>  2 0.10038581E+03</rscale>
<asrwt>0</asrwt>
<pdfrwt beam="1">  1       21 0.27287962E-01 0.10038581E+03</pdfrwt>
<pdfrwt beam="2">  1       21 0.20529339E-01 0.10038581E+03</pdfrwt>
<totfact> 0.28691660E+05</totfact>
</mgrwt>
</event>
<event>
 5    1  0.2051810E+000  0.9136441E+02  0.7546771E-02  0.1299581E+00
         21   -1    0    0  503  502  0.00000000000E+00  0.00000000000E+00  0.47915841390E+02  0.47915841390E+02  0.00000000000E+00 0.  1.
         21   -1    0    0  501  503 -0.00000000000E+00 -0.00000000000E+00 -0.19536575512E+03  0.19536575512E+03  0.00000000000E+00 0.  1.
         24    1    1    2    0    0 -0.55164707176E+02  0.29206938553E+02 -0.50416126501E+02  0.11360102087E+03  0.80419002446E+02 0.  1.
          1    1    1    2  501    0  0.93663580260E+01 -0.33636235839E+02 -0.64447933844E+02  0.73298439280E+02  0.00000000000E+00 0. -1.
         -2    1    1    2    0  502  0.45798349150E+02  0.44292972859E+01 -0.32585853385E+02  0.56382136357E+02  0.00000000000E+00 0.  1.
<mgrwt>
<rscale>  2 0.91364411E+02</rscale>
<asrwt>0</asrwt>
<pdfrwt beam="1">  1       21 0.73716680E-02 0.91364411E+02</pdfrwt>
<pdfrwt beam="2">  1       21 0.30056269E-01 0.91364411E+02</pdfrwt>
<totfact> 0.14535137E+06</totfact>
</mgrwt>
</event>
<event>
 5    1  0.2051810E+000  0.7541502E+02  0.7546771E-02  0.1342591E+00
         21   -1    0    0  503  502  0.00000000000E+00  0.00000000000E+00  0.27385677244E+03  0.27385677244E+03  0.00000000000E+00 0. -1.
         21   -1    0    0  501  503 -0.00000000000E+00 -0.00000000000E+00 -0.38960898007E+02  0.38960898007E+02  0.00000000000E+00 0.  1.
         24    1    1    2    0    0 -0.47438636998E+02 -0.24476583559E+02  0.34863100556E+02  0.10262640575E+03  0.80419002446E+02 0.  1.
          1    1    1    2  501    0  0.25394708928E+02  0.18645354180E+02  0.55059347618E+02  0.63435575461E+02  0.00000000000E+00 0. -1.
         -2    1    1    2    0  502  0.22043928070E+02  0.58312293792E+01  0.14497342626E+03  0.14675568923E+03  0.00000000000E+00 0.  1.
<mgrwt>
<rscale>  2 0.75415019E+02</rscale>
<asrwt>0</asrwt>
<pdfrwt beam="1">  1       21 0.42131810E-01 0.75415019E+02</pdfrwt>
<pdfrwt beam="2">  1       21 0.59939845E-02 0.75415019E+02</pdfrwt>
<totfact> 0.10627060E+06</totfact>
</mgrwt>
</event>
<event>
 5    1  0.2051810E+000  0.1024767E+03  0.7546771E-02  0.1275172E+00
         21   -1    0    0  501  502  0.00000000000E+00  0.00000000000E+00  0.10310632214E+04  0.10310632214E+04  0.00000000000E+00 0. -1.
         21   -1    0    0  502  503 -0.00000000000E+00 -0.00000000000E+00 -0.43568342600E+02  0.43568342600E+02  0.00000000000E+00 0.  1.
         24    1    1    2    0    0  0.32723908294E+02  0.31141470539E+02  0.52298839502E+03  0.53105999910E+03  0.80419002446E+02 0.  0.
          1    1    1    2  501    0 -0.46155373981E+02  0.26708919453E+02  0.47938919551E+03  0.48234602278E+03  0.00000000000E+00 0. -1.
         -2    1    1    2    0  503  0.13431465688E+02 -0.57850389991E+02 -0.14882711772E+02  0.61225542075E+02  0.00000000000E+00 0.  1.
<mgrwt>
<rscale>  2 0.10247672E+03</rscale>
<asrwt>0</asrwt>
<pdfrwt beam="1">  1       21 0.15862509E+00 0.10247672E+03</pdfrwt>
<pdfrwt beam="2">  1       21 0.67028227E-02 0.10247672E+03</pdfrwt>
<totfact> 0.44693099E+04</totfact>
</mgrwt>
</event>
<event>
 5    1  0.2051810E+000  0.7204053E+02  0.7546771E-02  0.1353288E+00
         21   -1    0    0  501  502  0.00000000000E+00  0.00000000000E+00  0.46024762337E+02  0.46024762337E+02  0.00000000000E+00 0.  1.
         21   -1    0    0  502  503 -0.00000000000E+00 -0.00000000000E+00 -0.11846702524E+03  0.11846702524E+03  0.00000000000E+00 0.  1.
         24    1    1    2    0    0  0.39703626952E+02  0.11243478514E+02 -0.61980509025E+02  0.10959741446E+03  0.80419002446E+02 0.  1.
          1    1    1    2  501    0 -0.15747822612E+02  0.12392920400E+02 -0.16552043372E+01  0.20107662580E+02  0.00000000000E+00 0. -1.
         -2    1    1    2    0  503 -0.23955804340E+02 -0.23636398914E+02 -0.88065495388E+01  0.34786710537E+02  0.00000000000E+00 0.  1.
<mgrwt>
<rscale>  2 0.72040527E+02</rscale>
<asrwt>0</asrwt>
<pdfrwt beam="1">  1       21 0.70807327E-02 0.72040527E+02</pdfrwt>
<pdfrwt beam="2">  1       21 0.18225696E-01 0.72040527E+02</pdfrwt>
<totfact> 0.38891562E+06</totfact>
</mgrwt>
</event>
<event>
 5    1  0.2051810E+000  0.6967911E+02  0.7546771E-02  0.1361188E+00
         21   -1    0    0  501  502  0.00000000000E+00  0.00000000000E+00  0.96585741011E+02  0.96585741011E+02  0.00000000000E+00 0. -1.
         21   -1    0    0  502  503 -0.00000000000E+00 -0.00000000000E+00 -0.53335080865E+02  0.53335080865E+02  0.00000000000E+00 0.  1.
         24    1    1    2    0    0 -0.22379449769E+02 -0.34853332384E+02  0.44727414222E+02  0.10091259628E+03  0.80419002446E+02 0. -1.
          1    1    1    2  501    0 -0.99404787217E+00  0.22387177438E+02  0.77467309283E+00  0.22422621685E+02  0.00000000000E+00 0. -1.
         -2    1    1    2    0  503  0.23373497641E+02  0.12466154946E+02 -0.22514271690E+01  0.26585603913E+02  0.00000000000E+00 0.  1.
<mgrwt>
<rscale>  2 0.69679112E+02</rscale>
<asrwt>0</asrwt>
<pdfrwt beam="1">  1       21 0.14859345E-01 0.69679112E+02</pdfrwt>
<pdfrwt beam="2">  1       21 0.82053971E-02 0.69679112E+02</pdfrwt>
<totfact> 0.43543534E+06</totfact>
</mgrwt>
</event>
<event>
 5    1  0.2051810E+000  0.6241385E+02  0.7546771E-02  0.1387972E+00
         21   -1    0    0  503  502  0.00000000000E+00  0.00000000000E+00  0.44649989059E+02  0.44649989059E+02  0.00000000000E+00 0.  1.
         21   -1    0    0  501  503 -0.00000000000E+00 -0.00000000000E+00 -0.65836104462E+03  0.65836104462E+03  0.00000000000E+00 0.  1.
         24    1    1    2    0    0 -0.67486233927E+01  0.96429068848E+01 -0.61354679532E+03  0.61890662912E+03  0.80419002446E+02 0.  1.
          1    1    1    2  501    0  0.21588319882E+02  0.55747881918E+01 -0.36054787877E+02  0.42391998627E+02  0.00000000000E+00 0. -1.
         -2    1    1    2    0  502 -0.14839696489E+02 -0.15217695077E+02  0.35890527630E+02  0.41712405935E+02  0.00000000000E+00 0.  1.
<mgrwt>
<rscale>  2 0.62413851E+02</rscale>
<asrwt>0</asrwt>
<pdfrwt beam="1">  1       21 0.68692294E-02 0.62413851E+02</pdfrwt>
<pdfrwt beam="2">  1       21 0.10128631E+00 0.62413851E+02</pdfrwt>
<totfact> 0.13190187E+05</totfact>
</mgrwt>
</event>
<event>
 5    1  0.2051810E+000  0.1199387E+03  0.7546771E-02  0.1243198E+00
         21   -1    0    0  503  502  0.00000000000E+00  0.00000000000E+00  0.14944314425E+04  0.14944314425E+04  0.00000000000E+00 0.  1.
         21   -1    0    0  501  503 -0.00000000000E+00 -0.00000000000E+00 -0.22101302117E+02  0.22101302117E+02  0.00000000000E+00 0. -1.
         24    1    1    2    0    0  0.50282392235E+02  0.93558528914E+02  0.10491886097E+04  0.10576131013E+04  0.80419002446E+02 0.  1.
          1    1    1    2  501    0 -0.62885348251E+01 -0.19758659304E+02 -0.57413932456E+01  0.21515433627E+02  0.00000000000E+00 0. -1.
         -2    1    1    2    0  502 -0.43993857410E+02 -0.73799869610E+02  0.42888292398E+03  0.43740420977E+03  0.00000000000E+00 0.  1.
<mgrwt>
<rscale>  2 0.11993874E+03</rscale>
<asrwt>0</asrwt>
<pdfrwt beam="1">  1       21 0.22991245E+00 0.11993874E+03</pdfrwt>
<pdfrwt beam="2">  1       21 0.34002015E-02 0.11993874E+03</pdfrwt>
<totfact> 0.47820152E+04</totfact>
</mgrwt>
</event>
<event>
 5    1  0.2051810E+000  0.7126860E+02  0.7546771E-02  0.1355831E+00
         21   -1    0    0  501  502  0.00000000000E+00  0.00000000000E+00  0.49265073994E+03  0.49265073994E+03  0.00000000000E+00 0. -1.
         21   -1    0    0  502  503 -0.00000000000E+00 -0.00000000000E+00 -0.11668905721E+02  0.11668905721E+02  0.00000000000E+00 0. -1.
         24    1    1    2    0    0 -0.20468303303E+02 -0.45516612363E+01  0.32047607477E+03  0.33107672753E+03  0.80419002446E+02 0.  0.
          1    1    1    2  501    0  0.89373910517E+01  0.30100387939E+02  0.11961254256E+03  0.12366515536E+03  0.00000000000E+00 0. -1.
         -2    1    1    2    0  503  0.11530912251E+02 -0.25548726703E+02  0.40893216891E+02  0.49577762769E+02  0.00000000000E+00 0.  1.
<mgrwt>
<rscale>  2 0.71268605E+02</rscale>
<asrwt>0</asrwt>
<pdfrwt beam="1">  1       21 0.75792405E-01 0.71268605E+02</pdfrwt>
<pdfrwt beam="2">  1       21 0.17952166E-02 0.71268605E+02</pdfrwt>
<totfact> 0.22284998E+06</totfact>
</mgrwt>
</event>
<event>
 5    1  0.2051810E+000  0.1049723E+03  0.7546771E-02  0.1270174E+00
         21   -1    0    0  501  502  0.00000000000E+00  0.00000000000E+00  0.62494906294E+03  0.62494906294E+03  0.00000000000E+00 0.  1.
         21   -1    0    0  502  503 -0.00000000000E+00 -0.00000000000E+00 -0.17980571713E+02  0.17980571713E+02  0.00000000000E+00 0. -1.
         24    1    1    2    0    0 -0.60245419020E+02 -0.33611254426E+02  0.31348916042E+03  0.33091070789E+03  0.80419002446E+02 0.  0.
          1    1    1    2  501    0  0.61983793341E+01 -0.24122275837E+02  0.98773892370E+02  0.10186552857E+03  0.00000000000E+00 0. -1.
         -2    1    1    2    0  503  0.54047039686E+02  0.57733530263E+02  0.19470543843E+03  0.21015339819E+03  0.00000000000E+00 0.  1.
<mgrwt>
<rscale>  2 0.10497229E+03</rscale>
<asrwt>0</asrwt>
<pdfrwt beam="1">  1       21 0.96145993E-01 0.10497229E+03</pdfrwt>
<pdfrwt beam="2">  1       21 0.27662423E-02 0.10497229E+03</pdfrwt>
<totfact> 0.65883028E+05</totfact>
</mgrwt>
</event>
<event>
 5    1  0.2051810E+000  0.8048791E+02  0.7546771E-02  0.1327672E+00
         21   -1    0    0  501  502  0.00000000000E+00  0.00000000000E+00  0.13907301720E+03  0.13907301720E+03  0.00000000000E+00 0. -1.
         21   -1    0    0  502  503 -0.00000000000E+00 -0.00000000000E+00 -0.53574239128E+02  0.53574239128E+02  0.00000000000E+00 0.  1.
         24    1    1    2    0    0 -0.18452743649E+02 -0.43613477708E+02  0.14295484839E+02  0.94415126050E+02  0.80419002446E+02 0.  0.
          1    1    1    2  501    0 -0.62118820473E+01  0.42508370688E+02  0.46465009420E+02  0.63281483528E+02  0.00000000000E+00 0. -1.
         -2    1    1    2    0  503  0.24664625696E+02  0.11051070205E+01  0.24738283816E+02  0.34950646753E+02  0.00000000000E+00 0.  1.
<mgrwt>
<rscale>  2 0.80487915E+02</rscale>
<asrwt>0</asrwt>
<pdfrwt beam="1">  1       21 0.21395849E-01 0.80487915E+02</pdfrwt>
<pdfrwt beam="2">  1       21 0.82421907E-02 0.80487915E+02</pdfrwt>
<totfact> 0.22597303E+06</totfact>
</mgrwt>
</event>
<event>
 5    1  0.2051810E+000  0.8612178E+02  0.7546771E-02  0.1312525E+00
         21   -1    0    0  503  502  0.00000000000E+00  0.00000000000E+00  0.56245435147E+03  0.56245435147E+03  0.00000000000E+00 0.  1.
         21   -1    0    0  501  503 -0.00000000000E+00 -0.00000000000E+00 -0.10855840756E+03  0.10855840756E+03  0.00000000000E+00 0.  1.
         24    1    1    2    0    0  0.69302096162E+01 -0.33762040783E+02 -0.58352334338E+02  0.10516707698E+03  0.80419002446E+02 0.  1.
          1    1    1    2  501    0 -0.31294535896E+02  0.47422369181E+02  0.41377627809E+01  0.56967974833E+02  0.00000000000E+00 0. -1.
         -2    1    1    2    0  502  0.24364326280E+02 -0.13660328398E+02  0.50811051547E+03  0.50887770721E+03  0.00000000000E+00 0.  1.
<mgrwt>
<rscale>  2 0.86121776E+02</rscale>
<asrwt>0</asrwt>
<pdfrwt beam="1">  1       21 0.86531437E-01 0.86121776E+02</pdfrwt>
<pdfrwt beam="2">  1       21 0.16701294E-01 0.86121776E+02</pdfrwt>
<totfact> 0.39669195E+04</totfact>
</mgrwt>
</event>
<event>
 5    1  0.2051810E+000  0.7495101E+02  0.7546771E-02  0.1344023E+00
         21   -1    0    0  501  502  0.00000000000E+00  0.00000000000E+00  0.37775726070E+03  0.37775726070E+03  0.00000000000E+00 0. -1.
         21   -1    0    0  502  503 -0.00000000000E+00 -0.00000000000E+00 -0.37523639536E+02  0.37523639536E+02  0.00000000000E+00 0.  1.
         24    1    1    2    0    0 -0.25474014066E+02 -0.45795094681E+02  0.10311039498E+03  0.14087258640E+03  0.80419002446E+02 0. -1.
          1    1    1    2  501    0  0.18419333059E+02  0.20070218999E+02  0.24506663837E+03  0.24657603850E+03  0.00000000000E+00 0. -1.
         -2    1    1    2    0  503  0.70546810067E+01  0.25724875682E+02 -0.79434121957E+01  0.27832275334E+02  0.00000000000E+00 0.  1.
<mgrwt>
<rscale>  2 0.74951008E+02</rscale>
<asrwt>0</asrwt>
<pdfrwt beam="1">  1       21 0.58116499E-01 0.74951008E+02</pdfrwt>
<pdfrwt beam="2">  1       21 0.57728679E-02 0.74951008E+02</pdfrwt>
<totfact> 0.58923513E+05</totfact>
</mgrwt>
</event>
<event>
 5    1  0.2051810E+000  0.6896174E+02  0.7546771E-02  0.1363660E+00
         21   -1    0    0  501  502  0.00000000000E+00  0.00000000000E+00  0.71224097522E+02  0.71224097522E+02  0.00000000000E+00 0.  1.
         21   -1    0    0  502  503 -0.00000000000E+00 -0.00000000000E+00 -0.18036523665E+03  0.18036523665E+03  0.00000000000E+00 0.  1.
         24    1    1    2    0    0 -0.39708921470E+02 -0.21882979422E+02  0.11018494084E+02  0.92974654605E+02  0.80419002446E+02 0.  1.
          1    1    1    2  501    0  0.19981668280E+02  0.13806141013E+02  0.10331791938E+02  0.26393607589E+02  0.00000000000E+00 0. -1.
         -2    1    1    2    0  503  0.19727253190E+02  0.80768384085E+01 -0.13049142515E+03  0.13222107198E+03  0.00000000000E+00 0.  1.
<mgrwt>
<rscale>  2 0.68961736E+02</rscale>
<asrwt>0</asrwt>
<pdfrwt beam="1">  1       21 0.10957553E-01 0.68961736E+02</pdfrwt>
<pdfrwt beam="2">  1       21 0.27748498E-01 0.68961736E+02</pdfrwt>
<totfact> 0.85053810E+05</totfact>
</mgrwt>
</event>
<event>
 5    1  0.2051810E+000  0.1222440E+03  0.7546771E-02  0.1239440E+00
         21   -1    0    0  503  502  0.00000000000E+00  0.00000000000E+00  0.46894559573E+03  0.46894559573E+03  0.00000000000E+00 0.  1.
         21   -1    0    0  501  503 -0.00000000000E+00 -0.00000000000E+00 -0.16417379883E+03  0.16417379883E+03  0.00000000000E+00 0. -1.
         24    1    1    2    0    0  0.41434527009E+02 -0.30314763350E+02  0.18726552625E+03  0.21016992692E+03  0.80419002446E+02 0.  1.
          1    1    1    2  501    0  0.51168236120E+02 -0.14223045003E+01 -0.13914593495E+03  0.14826261347E+03  0.00000000000E+00 0. -1.
         -2    1    1    2    0  502 -0.92602763129E+02  0.31737067850E+02  0.25665220561E+03  0.27468685418E+03  0.00000000000E+00 0.  1.
<mgrwt>
<rscale>  2 0.12224403E+03</rscale>
<asrwt>0</asrwt>
<pdfrwt beam="1">  1       21 0.72145476E-01 0.12224403E+03</pdfrwt>
<pdfrwt beam="2">  1       21 0.25257508E-01 0.12224403E+03</pdfrwt>
<totfact> 0.26893167E+04</totfact>
</mgrwt>
</event>
<event>
 5    1  0.2051810E+000  0.1011097E+03  0.7546771E-02  0.1277980E+00
         21   -1    0    0  501  502  0.00000000000E+00  0.00000000000E+00  0.25814241510E+03  0.25814241510E+03  0.00000000000E+00 0.  1.
         21   -1    0    0  502  503 -0.00000000000E+00 -0.00000000000E+00 -0.48358735886E+02  0.48358735886E+02  0.00000000000E+00 0.  1.
         24    1    1    2    0    0 -0.65700398687E+02 -0.13406426294E+00  0.83086049760E+02  0.13299273657E+03  0.80419002446E+02 0.  1.
          1    1    1    2  501    0  0.11414096705E+02  0.32997442791E+02  0.97674662131E+02  0.10372778054E+03  0.00000000000E+00 0. -1.
         -2    1    1    2    0  503  0.54286301982E+02 -0.32863378528E+02  0.29022967320E+02  0.69780633869E+02  0.00000000000E+00 0.  1.
<mgrwt>
<rscale>  2 0.10110972E+03</rscale>
<asrwt>0</asrwt>
<pdfrwt beam="1">  1       21 0.39714217E-01 0.10110972E+03</pdfrwt>
<pdfrwt beam="2">  1       21 0.74398057E-02 0.10110972E+03</pdfrwt>
<totfact> 0.83356213E+05</totfact>
</mgrwt>
</event>
<event>
 5    1  0.2051810E+000  0.1334683E+03  0.7546771E-02  0.1222398E+00
         21   -1    0    0  503  502  0.00000000000E+00  0.00000000000E+00  0.20568884481E+02  0.20568884481E+02  0.00000000000E+00 0.  1.
         21   -1    0    0  501  503 -0.00000000000E+00 -0.00000000000E+00 -0.13424682983E+04  0.13424682983E+04  0.00000000000E+00 0. -1.
         24    1    1    2    0    0 -0.52535532759E+02 -0.89579043980E+02 -0.58681454158E+03  0.60133427433E+03  0.80419002446E+02 0.  1.
          1    1    1    2  501    0  0.70184639623E+02  0.35393902855E+02 -0.67242914558E+03  0.67700780485E+03  0.00000000000E+00 0. -1.
         -2    1    1    2    0  502 -0.17649106864E+02  0.54185141124E+02 -0.62655726680E+02  0.84695103622E+02  0.00000000000E+00 0.  1.
<mgrwt>
<rscale>  2 0.13346826E+03</rscale>
<asrwt>0</asrwt>
<pdfrwt beam="1">  1       21 0.31644436E-02 0.13346826E+03</pdfrwt>
<pdfrwt beam="2">  1       21 0.20653360E+00 0.13346826E+03</pdfrwt>
<totfact> 0.73538089E+04</totfact>
</mgrwt>
</event>
<event>
 5    1  0.2489233E+000  0.1132049E+03  0.7546771E-02  0.1254747E+00
         21   -1    0    0  501  502  0.00000000000E+00  0.00000000000E+00  0.64276356187E+02  0.64276356187E+02  0.00000000000E+00 0.  1.
         21   -1    0    0  502  503 -0.00000000000E+00 -0.00000000000E+00 -0.94941134344E+03  0.94941134344E+03  0.00000000000E+00 0.  1.
         24    1    1    2    0    0 -0.35655131180E+01 -0.98812728542E+02 -0.18871966848E+02  0.12884112423E+03  0.80419002446E+02 0.  1.
          1    1    1    2  501    0  0.29323245058E+01  0.30058892526E+02 -0.20984239596E+02  0.36775995681E+02  0.00000000000E+00 0. -1.
         -2    1    1    2    0  503  0.63318861225E+00  0.68753836016E+02 -0.84527878081E+03  0.84807057972E+03  0.00000000000E+00 0.  1.
<mgrwt>
<rscale>  2 0.11320492E+03</rscale>
<asrwt>0</asrwt>
<pdfrwt beam="1">  1       21 0.98886711E-02 0.11320492E+03</pdfrwt>
<pdfrwt beam="2">  1       21 0.14606327E+00 0.11320492E+03</pdfrwt>
<totfact> 0.28081016E+04</totfact>
</mgrwt>
</event>
<event>
 5    1  0.2051810E+000  0.9315080E+02  0.7546771E-02  0.1295396E+00
         21   -1    0    0  503  502  0.00000000000E+00  0.00000000000E+00  0.57025392185E+03  0.57025392185E+03  0.00000000000E+00 0. -1.
         21   -1    0    0  501  503 -0.00000000000E+00 -0.00000000000E+00 -0.16456013662E+02  0.16456013662E+02  0.00000000000E+00 0. -1.
         24    1    1    2    0    0 -0.70278932277E+02 -0.23909008298E+02  0.38049969395E+03  0.39592676349E+03  0.80419002446E+02 0. -1.
          1    1    1    2  501    0  0.22009525041E+02  0.17592871991E+02  0.40448762071E+02  0.49295341468E+02  0.00000000000E+00 0. -1.
         -2    1    1    2    0  502  0.48269407236E+02  0.63161363069E+01  0.13284945217E+03  0.14148783055E+03  0.00000000000E+00 0.  1.
<mgrwt>
<rscale>  2 0.93150803E+02</rscale>
<asrwt>0</asrwt>
<pdfrwt beam="1">  1       21 0.87731357E-01 0.93150803E+02</pdfrwt>
<pdfrwt beam="2">  1       21 0.25316948E-02 0.93150803E+02</pdfrwt>
<totfact> 0.93687638E+05</totfact>
</mgrwt>
</event>
<event>
 5    1  0.2051810E+000  0.9286612E+02  0.7546771E-02  0.1296056E+00
         21   -1    0    0  503  502  0.00000000000E+00  0.00000000000E+00  0.24461207422E+02  0.24461207422E+02  0.00000000000E+00 0. -1.
         21   -1    0    0  501  503 -0.00000000000E+00 -0.00000000000E+00 -0.45506512354E+03  0.45506512354E+03  0.00000000000E+00 0. -1.
         24    1    1    2    0    0  0.17392976863E+02  0.73390540096E+02 -0.22957532496E+03  0.25467770378E+03  0.80419002446E+02 0. -1.
          1    1    1    2  501    0 -0.79138101902E+01 -0.39626362709E+02 -0.17884174903E+03  0.18335007011E+03  0.00000000000E+00 0. -1.
         -2    1    1    2    0  502 -0.94791666731E+01 -0.33764177387E+02 -0.22186842139E+02  0.41498557078E+02  0.00000000000E+00 0.  1.
<mgrwt>
<rscale>  2 0.92866124E+02</rscale>
<asrwt>0</asrwt>
<pdfrwt beam="1">  1       21 0.37632629E-02 0.92866124E+02</pdfrwt>
<pdfrwt beam="2">  1       21 0.70010015E-01 0.92866124E+02</pdfrwt>
<totfact> 0.80763052E+05</totfact>
</mgrwt>
</event>
<event>
 5    1  0.2051810E+000  0.7121028E+02  0.7546771E-02  0.1356025E+00
         21   -1    0    0  503  502  0.00000000000E+00  0.00000000000E+00  0.13735185064E+04  0.13735185064E+04  0.00000000000E+00 0.  1.
         21   -1    0    0  501  503 -0.00000000000E+00 -0.00000000000E+00 -0.11425343544E+02  0.11425343544E+02  0.00000000000E+00 0. -1.
         24    1    1    2    0    0 -0.20498168806E+02 -0.32284836399E+02  0.44484432103E+03  0.45366967222E+03  0.80419002446E+02 0.  1.
          1    1    1    2  501    0  0.20250509754E+02 -0.81886164404E+00  0.85896952211E+01  0.22012190797E+02  0.00000000000E+00 0. -1.
         -2    1    1    2    0  502  0.24765905216E+00  0.33103698043E+02  0.90865914657E+03  0.90926198689E+03  0.00000000000E+00 0.  1.
<mgrwt>
<rscale>  2 0.71210278E+02</rscale>
<asrwt>0</asrwt>
<pdfrwt beam="1">  1       21 0.21131041E+00 0.71210278E+02</pdfrwt>
<pdfrwt beam="2">  1       21 0.17577462E-02 0.71210278E+02</pdfrwt>
<totfact> 0.18757765E+05</totfact>
</mgrwt>
</event>
<event>
 5    1  0.2051810E+000  0.9875523E+02  0.7546771E-02  0.1282935E+00
         21   -1    0    0  503  502  0.00000000000E+00  0.00000000000E+00  0.21870951389E+03  0.21870951389E+03  0.00000000000E+00 0. -1.
         21   -1    0    0  501  503 -0.00000000000E+00 -0.00000000000E+00 -0.95440091651E+02  0.95440091651E+02  0.00000000000E+00 0. -1.
         24    1    1    2    0    0 -0.68190108082E+02 -0.39351876626E+02 -0.89151215712E+01  0.11289444796E+03  0.80419002446E+02 0. -1.
          1    1    1    2  501    0  0.23253454556E+02 -0.27186504889E+01 -0.23908766817E+02  0.33462566249E+02  0.00000000000E+00 0. -1.
         -2    1    1    2    0  502  0.44936653526E+02  0.42070527115E+02  0.15609331063E+03  0.16779259133E+03  0.00000000000E+00 0.  1.
<mgrwt>
<rscale>  2 0.98755234E+02</rscale>
<asrwt>0</asrwt>
<pdfrwt beam="1">  1       21 0.33647617E-01 0.98755234E+02</pdfrwt>
<pdfrwt beam="2">  1       21 0.14683091E-01 0.98755234E+02</pdfrwt>
<totfact> 0.35258054E+05</totfact>
</mgrwt>
</event>
<event>
 5    1  0.2051810E+000  0.8906127E+02  0.7546771E-02  0.1305141E+00
         21   -1    0    0  501  502  0.00000000000E+00  0.00000000000E+00  0.96690748821E+02  0.96690748821E+02  0.00000000000E+00 0. -1.
         21   -1    0    0  502  503 -0.00000000000E+00 -0.00000000000E+00 -0.66299948400E+03  0.66299948400E+03  0.00000000000E+00 0.  1.
         24    1    1    2    0    0 -0.22524851761E+02 -0.23432918757E+02 -0.73376337837E+02  0.11361238285E+03  0.80419002446E+02 0. -1.
          1    1    1    2  501    0  0.28854054246E+02  0.53431351067E+02  0.64045394635E+02  0.88256888101E+02  0.00000000000E+00 0. -1.
         -2    1    1    2    0  503 -0.63292024857E+01 -0.29998432311E+02 -0.55697779198E+03  0.55782096187E+03  0.00000000000E+00 0.  1.
<mgrwt>
<rscale>  2 0.89061269E+02</rscale>
<asrwt>0</asrwt>
<pdfrwt beam="1">  1       21 0.14875499E-01 0.89061269E+02</pdfrwt>
<pdfrwt beam="2">  1       21 0.10199992E+00 0.89061269E+02</pdfrwt>
<totfact> 0.33461407E+04</totfact>
</mgrwt>
</event>
<event>
 5    1  0.2051810E+000  0.8395127E+02  0.7546771E-02  0.1318198E+00
         21   -1    0    0  501  502  0.00000000000E+00  0.00000000000E+00  0.13296536314E+02  0.13296536314E+02  0.00000000000E+00 0. -1.
         21   -1    0    0  502  503 -0.00000000000E+00 -0.00000000000E+00 -0.26795221820E+04  0.26795221820E+04  0.00000000000E+00 0.  1.
         24    1    1    2    0    0 -0.83903868209E+01 -0.46428777957E+01 -0.15046474240E+03  0.17087659162E+03  0.80419002446E+02 0.  0.
          1    1    1    2  501    0 -0.27242496764E+02 -0.27656575940E+02 -0.12942595735E+03  0.13512260454E+03  0.00000000000E+00 0. -1.
         -2    1    1    2    0  503  0.35632883585E+02  0.32299453735E+02 -0.23863349459E+04  0.23868195221E+04  0.00000000000E+00 0.  1.
<mgrwt>
<rscale>  2 0.83951266E+02</rscale>
<asrwt>0</asrwt>
<pdfrwt beam="1">  1       21 0.20456193E-02 0.83951266E+02</pdfrwt>
<pdfrwt beam="2">  1       21 0.41223452E+00 0.83951266E+02</pdfrwt>
<totfact> 0.10673669E+04</totfact>
</mgrwt>
</event>
<event>
 5    1  0.2051810E+000  0.9292882E+02  0.7546771E-02  0.1295910E+00
         21   -1    0    0  501  502  0.00000000000E+00  0.00000000000E+00  0.15136024515E+03  0.15136024515E+03  0.00000000000E+00 0. -1.
         21   -1    0    0  502  503 -0.00000000000E+00 -0.00000000000E+00 -0.21466930179E+03  0.21466930179E+03  0.00000000000E+00 0.  1.
         24    1    1    2    0    0  0.20434071415E+02  0.19805810582E+02  0.45491241706E+01  0.85426763327E+02  0.80419002446E+02 0. -1.
          1    1    1    2  501    0 -0.56424623250E+02  0.52957647576E+01  0.95721425071E+02  0.11124016564E+03  0.00000000000E+00 0. -1.
         -2    1    1    2    0  503  0.35990551836E+02 -0.25101575339E+02 -0.16357960588E+03  0.16936261797E+03  0.00000000000E+00 0.  1.
<mgrwt>
<rscale>  2 0.92928816E+02</rscale>
<asrwt>0</asrwt>
<pdfrwt beam="1">  1       21 0.23286191E-01 0.92928816E+02</pdfrwt>
<pdfrwt beam="2">  1       21 0.33026047E-01 0.92928816E+02</pdfrwt>
<totfact> 0.15805892E+05</totfact>
</mgrwt>
</event>
<event>
 5    1  0.2051810E+000  0.7605198E+02  0.7546771E-02  0.1340644E+00
         21   -1    0    0  501  502  0.00000000000E+00  0.00000000000E+00  0.53710291700E+02  0.53710291700E+02  0.00000000000E+00 0.  1.
         21   -1    0    0  502  503 -0.00000000000E+00 -0.00000000000E+00 -0.23924954585E+03  0.23924954585E+03  0.00000000000E+00 0. -1.
         24    1    1    2    0    0 -0.28436969077E+02 -0.98564959847E+01 -0.20180767818E+03  0.21931567807E+03  0.80419002446E+02 0.  0.
          1    1    1    2  501    0  0.37345872352E+02 -0.14684848368E+02  0.23563240524E+02  0.46535849163E+02  0.00000000000E+00 0. -1.
         -2    1    1    2    0  503 -0.89089032752E+01  0.24541344353E+02 -0.72948164932E+01  0.27108310310E+02  0.00000000000E+00 0.  1.
<mgrwt>
<rscale>  2 0.76051984E+02</rscale>
<asrwt>0</asrwt>
<pdfrwt beam="1">  1       21 0.82631220E-02 0.76051984E+02</pdfrwt>
<pdfrwt beam="2">  1       21 0.36807622E-01 0.76051984E+02</pdfrwt>
<totfact> 0.80628716E+05</totfact>
</mgrwt>
</event>
<event>
 5    1  0.2051810E+000  0.1598393E+03  0.7546771E-02  0.1188878E+00
         21   -1    0    0  501  502  0.00000000000E+00  0.00000000000E+00  0.73595577615E+03  0.73595577615E+03  0.00000000000E+00 0.  1.
         21   -1    0    0  502  503 -0.00000000000E+00 -0.00000000000E+00 -0.75946541704E+02  0.75946541704E+02  0.00000000000E+00 0.  1.
         24    1    1    2    0    0  0.62504935476E+02  0.11149782615E+03  0.36134898423E+02  0.15527903604E+03  0.80419002446E+02 0.  1.
          1    1    1    2  501    0 -0.19194691541E+02  0.21481655637E+02  0.32905882773E+03  0.33031743796E+03  0.00000000000E+00 0. -1.
         -2    1    1    2    0  503 -0.43310243935E+02 -0.13297948179E+03  0.29481550829E+03  0.32630584386E+03  0.00000000000E+00 0.  1.
<mgrwt>
<rscale>  2 0.15983932E+03</rscale>
<asrwt>0</asrwt>
<pdfrwt beam="1">  1       21 0.11322396E+00 0.15983932E+03</pdfrwt>
<pdfrwt beam="2">  1       21 0.11684084E-01 0.15983932E+03</pdfrwt>
<totfact> 0.38189525E+04</totfact>
</mgrwt>
</event>
<event>
 5    1  0.2051810E+000  0.7093350E+02  0.7546771E-02  0.1356947E+00
         21   -1    0    0  501  502  0.00000000000E+00  0.00000000000E+00  0.20742472609E+04  0.20742472609E+04  0.00000000000E+00 0.  1.
         21   -1    0    0  502  503 -0.00000000000E+00 -0.00000000000E+00 -0.29581047002E+01  0.29581047002E+01  0.00000000000E+00 0. -1.
         24    1    1    2    0    0 -0.19326714010E+02  0.72614755000E+00  0.13055507721E+04  0.13081682169E+04  0.80419002446E+02 0.  1.
          1    1    1    2  501    0  0.38510714457E+02  0.56851531183E+01  0.67270079691E+03  0.67382620775E+03  0.00000000000E+00 0. -1.
         -2    1    1    2    0  503 -0.19184000447E+02 -0.64113006683E+01  0.93037587102E+02  0.95210940880E+02  0.00000000000E+00 0.  1.
<mgrwt>
<rscale>  2 0.70933504E+02</rscale>
<asrwt>0</asrwt>
<pdfrwt beam="1">  1       21 0.31911380E+00 0.70933504E+02</pdfrwt>
<pdfrwt beam="2">  1       21 0.45509469E-03 0.70933504E+02</pdfrwt>
<totfact> 0.38831273E+05</totfact>
</mgrwt>
</event>
<event>
 5    1  0.2051810E+000  0.6871617E+02  0.7546771E-02  0.1364514E+00
         21   -1    0    0  501  502  0.00000000000E+00  0.00000000000E+00  0.11721917188E+03  0.11721917188E+03  0.00000000000E+00 0. -1.
         21   -1    0    0  502  503 -0.00000000000E+00 -0.00000000000E+00 -0.15436345921E+03  0.15436345921E+03  0.00000000000E+00 0. -1.
         24    1    1    2    0    0  0.63389698171E+01 -0.24197462246E+02 -0.35607522100E+02  0.91437472088E+02  0.80419002446E+02 0. -1.
          1    1    1    2  501    0 -0.26796996239E+02  0.11701907260E+02  0.85241148516E+02  0.90116963117E+02  0.00000000000E+00 0. -1.
         -2    1    1    2    0  503  0.20458026422E+02  0.12495554986E+02 -0.86777913751E+02  0.90028195886E+02  0.00000000000E+00 0.  1.
<mgrwt>
<rscale>  2 0.68716168E+02</rscale>
<asrwt>0</asrwt>
<pdfrwt beam="1">  1       21 0.18033719E-01 0.68716168E+02</pdfrwt>
<pdfrwt beam="2">  1       21 0.23748224E-01 0.68716168E+02</pdfrwt>
<totfact> 0.47219446E+05</totfact>
</mgrwt>
</event>
<event>
 5    1  0.2051810E+000  0.7394761E+02  0.7546771E-02  0.1347161E+00
         21   -1    0    0  501  502  0.00000000000E+00  0.00000000000E+00  0.18297762885E+03  0.18297762885E+03  0.00000000000E+00 0. -1.
         21   -1    0    0  502  503 -0.00000000000E+00 -0.00000000000E+00 -0.17680310088E+03  0.17680310088E+03  0.00000000000E+00 0.  1.
         24    1    1    2    0    0  0.10340528644E+02  0.17026638795E+02 -0.31389360230E+01  0.82908997310E+02  0.80419002446E+02 0.  1.
          1    1    1    2  501    0 -0.26724261352E+02  0.13843686019E+02  0.13917374728E+03  0.14239089057E+03  0.00000000000E+00 0. -1.
         -2    1    1    2    0  503  0.16383732709E+02 -0.30870324814E+02 -0.12986028328E+03  0.13448084185E+03  0.00000000000E+00 0.  1.
<mgrwt>
<rscale>  2 0.73947607E+02</rscale>
<asrwt>0</asrwt>
<pdfrwt beam="1">  1       21 0.28150404E-01 0.73947607E+02</pdfrwt>
<pdfrwt beam="2">  1       21 0.27200477E-01 0.73947607E+02</pdfrwt>
<totfact> 0.16155638E+05</totfact>
</mgrwt>
</event>
<event>
 5    1  0.2051810E+000  0.1184681E+03  0.7546771E-02  0.1245646E+00
         21   -1    0    0  503  502  0.00000000000E+00  0.00000000000E+00  0.20797320809E+02  0.20797320809E+02  0.00000000000E+00 0.  1.
         21   -1    0    0  501  503 -0.00000000000E+00 -0.00000000000E+00 -0.10673616904E+04  0.10673616904E+04  0.00000000000E+00 0. -1.
         24    1    1    2    0    0  0.84781623050E+02  0.43345084114E+02 -0.77063700351E+03  0.78065057936E+03  0.80419002446E+02 0. -1.
          1    1    1    2  501    0 -0.75667457249E+02 -0.83362144829E+01 -0.25409910310E+03  0.26525725392E+03  0.00000000000E+00 0. -1.
         -2    1    1    2    0  502 -0.91141658018E+01 -0.35008869631E+02 -0.21828262962E+02  0.42251177913E+02  0.00000000000E+00 0.  1.
<mgrwt>
<rscale>  2 0.11846814E+03</rscale>
<asrwt>0</asrwt>
<pdfrwt beam="1">  1       21 0.31995878E-02 0.11846814E+03</pdfrwt>
<pdfrwt beam="2">  1       21 0.16420949E+00 0.11846814E+03</pdfrwt>
<totfact> 0.13838380E+05</totfact>
</mgrwt>
</event>
<event>
 5    1  0.2051810E+000  0.1163798E+03  0.7546771E-02  0.1249192E+00
         21   -1    0    0  503  502  0.00000000000E+00  0.00000000000E+00  0.20501060352E+02  0.20501060352E+02  0.00000000000E+00 0.  1.
         21   -1    0    0  501  503 -0.00000000000E+00 -0.00000000000E+00 -0.74902682982E+03  0.74902682982E+03  0.00000000000E+00 0. -1.
         24    1    1    2    0    0 -0.94088748689E-01 -0.82951018716E+02 -0.46587649263E+03  0.47998854434E+03  0.80419002446E+02 0.  0.
          1    1    1    2  501    0 -0.35110979525E+02  0.72414532942E+02 -0.21355096669E+03  0.22821187707E+03  0.00000000000E+00 0. -1.
         -2    1    1    2    0  502  0.35205068273E+02  0.10536485774E+02 -0.49098310148E+02  0.61327468756E+02  0.00000000000E+00 0.  1.
<mgrwt>
<rscale>  2 0.11637978E+03</rscale>
<asrwt>0</asrwt>
<pdfrwt beam="1">  1       21 0.31540093E-02 0.11637978E+03</pdfrwt>
<pdfrwt beam="2">  1       21 0.11523490E+00 0.11637978E+03</pdfrwt>
<totfact> 0.34650304E+05</totfact>
</mgrwt>
</event>
<event>
 5    1  0.2051810E+000  0.7512609E+02  0.7546771E-02  0.1343481E+00
         21   -1    0    0  503  502  0.00000000000E+00  0.00000000000E+00  0.92167965007E+02  0.92167965007E+02  0.00000000000E+00 0. -1.
         21   -1    0    0  501  503 -0.00000000000E+00 -0.00000000000E+00 -0.65651561467E+02  0.65651561467E+02  0.00000000000E+00 0. -1.
         24    1    1    2    0    0 -0.60930261126E+01  0.52958912617E+02 -0.12629730317E+01  0.96491359448E+02  0.80419002446E+02 0. -1.
          1    1    1    2  501    0  0.59085607807E+01 -0.21155114097E+02  0.16902227678E+02  0.27715252902E+02  0.00000000000E+00 0. -1.
         -2    1    1    2    0  502  0.18446533188E+00 -0.31803798521E+02  0.10877148894E+02  0.33612914123E+02  0.00000000000E+00 0.  1.
<mgrwt>
<rscale>  2 0.75126085E+02</rscale>
<asrwt>0</asrwt>
<pdfrwt beam="1">  1       21 0.14179687E-01 0.75126085E+02</pdfrwt>
<pdfrwt beam="2">  1       21 0.10100240E-01 0.75126085E+02</pdfrwt>
<totfact> 0.33324695E+06</totfact>
</mgrwt>
</event>
<event>
 5    1  0.2051810E+000  0.7905901E+02  0.7546771E-02  0.1331743E+00
         21   -1    0    0  503  502  0.00000000000E+00  0.00000000000E+00  0.37692237316E+03  0.37692237316E+03  0.00000000000E+00 0. -1.
         21   -1    0    0  501  503 -0.00000000000E+00 -0.00000000000E+00 -0.22264355725E+02  0.22264355725E+02  0.00000000000E+00 0. -1.
         24    1    1    2    0    0 -0.33497016972E+02  0.85531336750E+01  0.26683023808E+03  0.28082164830E+03  0.80419002446E+02 0. -1.
          1    1    1    2  501    0  0.38374565582E+01  0.25291579634E+02  0.81338048446E+01  0.26843041081E+02  0.00000000000E+00 0. -1.
         -2    1    1    2    0  502  0.29659560413E+02 -0.33844713309E+02  0.79693974504E+02  0.91522039505E+02  0.00000000000E+00 0.  1.
<mgrwt>
<rscale>  2 0.79059012E+02</rscale>
<asrwt>0</asrwt>
<pdfrwt beam="1">  1       21 0.57988053E-01 0.79059012E+02</pdfrwt>
<pdfrwt beam="2">  1       21 0.34252858E-02 0.79059012E+02</pdfrwt>
<totfact> 0.14003584E+06</totfact>
</mgrwt>
</event>
<event>
 5    1  0.2051810E+000  0.1367017E+03  0.7546771E-02  0.1217837E+00
         21   -1    0    0  501  502  0.00000000000E+00  0.00000000000E+00  0.15228919544E+02  0.15228919544E+02  0.00000000000E+00 0.  1.
         21   -1    0    0  502  503 -0.00000000000E+00 -0.00000000000E+00 -0.14126469799E+04  0.14126469799E+04  0.00000000000E+00 0.  1.
         24    1    1    2    0    0  0.62802682481E+02  0.74450420331E+02 -0.58747964357E+03  0.60090480908E+03  0.80419002446E+02 0.  1.
          1    1    1    2  501    0 -0.42504999239E+02  0.22463956543E+02 -0.10977668630E+03  0.11984250147E+03  0.00000000000E+00 0. -1.
         -2    1    1    2    0  503 -0.20297683242E+02 -0.96914376874E+02 -0.70016173045E+03  0.70712858885E+03  0.00000000000E+00 0.  1.
<mgrwt>
<rscale>  2 0.13670166E+03</rscale>
<asrwt>0</asrwt>
<pdfrwt beam="1">  1       21 0.23429109E-02 0.13670166E+03</pdfrwt>
<pdfrwt beam="2">  1       21 0.21733029E+00 0.13670166E+03</pdfrwt>
<totfact> 0.10300521E+05</totfact>
</mgrwt>
</event>
<event>
 5    1  0.2051810E+000  0.1950899E+03  0.7546771E-02  0.1153949E+00
         21   -1    0    0  503  502  0.00000000000E+00  0.00000000000E+00  0.27808059959E+02  0.27808059959E+02  0.00000000000E+00 0. -1.
         21   -1    0    0  501  503 -0.00000000000E+00 -0.00000000000E+00 -0.15359747122E+04  0.15359747122E+04  0.00000000000E+00 0. -1.
         24    1    1    2    0    0 -0.96018740860E+02  0.12285895054E+03 -0.81601664937E+03  0.83466418896E+03  0.80419002446E+02 0. -1.
          1    1    1    2  501    0  0.10375998027E+03 -0.12963732443E+02 -0.46566210041E+03  0.47725819388E+03  0.00000000000E+00 0. -1.
         -2    1    1    2    0  502 -0.77412394083E+01 -0.10989521810E+03 -0.22648790244E+03  0.25186038931E+03  0.00000000000E+00 0.  1.
<mgrwt>
<rscale>  2 0.19508988E+03</rscale>
<asrwt>0</asrwt>
<pdfrwt beam="1">  1       21 0.42781637E-02 0.19508988E+03</pdfrwt>
<pdfrwt beam="2">  1       21 0.23630377E+00 0.19508988E+03</pdfrwt>
<totfact> 0.28000360E+04</totfact>
</mgrwt>
</event>
<event>
 5    1  0.2051810E+000  0.9286595E+02  0.7546771E-02  0.1296056E+00
         21   -1    0    0  503  502  0.00000000000E+00  0.00000000000E+00  0.73509344731E+03  0.73509344731E+03  0.00000000000E+00 0.  1.
         21   -1    0    0  501  503 -0.00000000000E+00 -0.00000000000E+00 -0.51100827494E+02  0.51100827494E+02  0.00000000000E+00 0. -1.
         24    1    1    2    0    0  0.24364796582E+02  0.20619523716E+02  0.28221552256E+03  0.29518066535E+03  0.80419002446E+02 0.  1.
          1    1    1    2  501    0  0.54309824598E+01 -0.54111079683E+02 -0.26430874305E+02  0.60465656628E+02  0.00000000000E+00 0. -1.
         -2    1    1    2    0  502 -0.29795779042E+02  0.33491555967E+02  0.42820797157E+03  0.43054795283E+03  0.00000000000E+00 0.  1.
<mgrwt>
<rscale>  2 0.92865949E+02</rscale>
<asrwt>0</asrwt>
<pdfrwt beam="1">  1       21 0.11309129E+00 0.92865949E+02</pdfrwt>
<pdfrwt beam="2">  1       21 0.78616663E-02 0.92865949E+02</pdfrwt>
<totfact> 0.79560960E+04</totfact>
</mgrwt>
</event>
<event>
 5    1  0.2051810E+000  0.1023150E+03  0.7546771E-02  0.1275502E+00
         21   -1    0    0  501  502  0.00000000000E+00  0.00000000000E+00  0.66610192804E+03  0.66610192804E+03  0.00000000000E+00 0.  1.
         21   -1    0    0  502  503 -0.00000000000E+00 -0.00000000000E+00 -0.19034011253E+02  0.19034011253E+02  0.00000000000E+00 0.  1.
         24    1    1    2    0    0  0.12871192716E+02 -0.70037706162E+02  0.43545015503E+03  0.44850306728E+03  0.80419002446E+02 0.  1.
          1    1    1    2  501    0 -0.35461517173E+02  0.16513610454E+02  0.13454781444E+03  0.14011899550E+03  0.00000000000E+00 0. -1.
         -2    1    1    2    0  503  0.22590324456E+02  0.53524095708E+02  0.77069947324E+02  0.96513876520E+02  0.00000000000E+00 0.  1.
<mgrwt>
<rscale>  2 0.10231495E+03</rscale>
<asrwt>0</asrwt>
<pdfrwt beam="1">  1       21 0.10247720E+00 0.10231495E+03</pdfrwt>
<pdfrwt beam="2">  1       21 0.29283099E-02 0.10231495E+03</pdfrwt>
<totfact> 0.51803617E+05</totfact>
</mgrwt>
</event>
<event>
 5    1  0.2051810E+000  0.7764082E+02  0.7546771E-02  0.1335883E+00
         21   -1    0    0  501  502  0.00000000000E+00  0.00000000000E+00  0.14275520827E+02  0.14275520827E+02  0.00000000000E+00 0. -1.
         21   -1    0    0  502  503 -0.00000000000E+00 -0.00000000000E+00 -0.46198409335E+03  0.46198409335E+03  0.00000000000E+00 0. -1.
         24    1    1    2    0    0 -0.15430563963E+02 -0.30100454420E+02 -0.22304959853E+03  0.23950465344E+03  0.80419002446E+02 0. -1.
          1    1    1    2  501    0  0.18061199314E+01  0.46603331525E+02 -0.10087327650E+03  0.11113303060E+03  0.00000000000E+00 0. -1.
         -2    1    1    2    0  503  0.13624444032E+02 -0.16502877104E+02 -0.12378569750E+03  0.12562193014E+03  0.00000000000E+00 0.  1.
<mgrwt>
<rscale>  2 0.77640822E+02</rscale>
<asrwt>0</asrwt>
<pdfrwt beam="1">  1       21 0.21962338E-02 0.77640822E+02</pdfrwt>
<pdfrwt beam="2">  1       21 0.71074480E-01 0.77640822E+02</pdfrwt>
<totfact> 0.18640394E+06</totfact>
</mgrwt>
</event>
<event>
 5    1  0.2051810E+000  0.2322692E+03  0.7546771E-02  0.1125053E+00
         21   -1    0    0  501  502  0.00000000000E+00  0.00000000000E+00  0.57237503370E+03  0.57237503370E+03  0.00000000000E+00 0.  1.
         21   -1    0    0  502  503 -0.00000000000E+00 -0.00000000000E+00 -0.18469652128E+03  0.18469652128E+03  0.00000000000E+00 0. -1.
         24    1    1    2    0    0  0.26987902079E+02 -0.76515656364E+02 -0.26596640973E+02  0.11729275252E+03  0.80419002446E+02 0.  0.
          1    1    1    2  501    0  0.35560213429E+02  0.20464934699E+03  0.44751399156E+03  0.49337070914E+03  0.00000000000E+00 0. -1.
         -2    1    1    2    0  503 -0.62548115508E+02 -0.12813369062E+03 -0.33238838161E+02  0.14640809332E+03  0.00000000000E+00 0.  1.
<mgrwt>
<rscale>  2 0.23226924E+03</rscale>
<asrwt>0</asrwt>
<pdfrwt beam="1">  1       21 0.88057697E-01 0.23226924E+03</pdfrwt>
<pdfrwt beam="2">  1       21 0.28414850E-01 0.23226924E+03</pdfrwt>
<totfact> 0.12760739E+04</totfact>
</mgrwt>
</event>
<event>
 5    1  0.3661413E+000  0.7458252E+02  0.7546771E-02  0.1345169E+00
         21   -1    0    0  503  502  0.00000000000E+00  0.00000000000E+00  0.32603519324E+03  0.32603519324E+03  0.00000000000E+00 0. -1.
         21   -1    0    0  501  503 -0.00000000000E+00 -0.00000000000E+00 -0.21466664834E+03  0.21466664834E+03  0.00000000000E+00 0. -1.
         24    1    1    2    0    0 -0.21138072164E+02  0.24262309565E+02  0.25116124533E+03  0.26567774629E+03  0.80419002446E+02 0. -1.
          1    1    1    2  501    0 -0.91507025967E+01 -0.30309236551E+02 -0.20258635280E+03  0.20504539868E+03  0.00000000000E+00 0. -1.
         -2    1    1    2    0  502  0.30288774760E+02  0.60469269860E+01  0.62793652372E+02  0.69978696620E+02  0.00000000000E+00 0.  1.
<mgrwt>
<rscale>  2 0.74582524E+02</rscale>
<asrwt>0</asrwt>
<pdfrwt beam="1">  1       21 0.50159260E-01 0.74582524E+02</pdfrwt>
<pdfrwt beam="2">  1       21 0.33025638E-01 0.74582524E+02</pdfrwt>
<totfact> 0.36151254E+04</totfact>
</mgrwt>
</event>
<event>
 5    1  0.2051810E+000  0.7978331E+02  0.7546771E-02  0.1329667E+00
         21   -1    0    0  503  502  0.00000000000E+00  0.00000000000E+00  0.14624743320E+03  0.14624743320E+03  0.00000000000E+00 0.  1.
         21   -1    0    0  501  503 -0.00000000000E+00 -0.00000000000E+00 -0.54606961935E+02  0.54606961935E+02  0.00000000000E+00 0. -1.
         24    1    1    2    0    0 -0.24397457611E+02 -0.79144892869E+01  0.57028722107E+02  0.10186935839E+03  0.80419002446E+02 0.  1.
          1    1    1    2  501    0 -0.17035888353E+02 -0.19177787549E+02 -0.14320598001E+02  0.29378368817E+02  0.00000000000E+00 0. -1.
         -2    1    1    2    0  502  0.41433345964E+02  0.27092276836E+02  0.48932347156E+02  0.69606667928E+02  0.00000000000E+00 0.  1.
<mgrwt>
<rscale>  2 0.79783312E+02</rscale>
<asrwt>0</asrwt>
<pdfrwt beam="1">  1       21 0.22499605E-01 0.79783312E+02</pdfrwt>
<pdfrwt beam="2">  1       21 0.84010711E-02 0.79783312E+02</pdfrwt>
<totfact> 0.19931261E+06</totfact>
</mgrwt>
</event>
<event>
 5    1  0.2051810E+000  0.1068335E+03  0.7546771E-02  0.1266549E+00
         21   -1    0    0  501  502  0.00000000000E+00  0.00000000000E+00  0.32066566098E+03  0.32066566098E+03  0.00000000000E+00 0. -1.
         21   -1    0    0  502  503 -0.00000000000E+00 -0.00000000000E+00 -0.18505763204E+03  0.18505763204E+03  0.00000000000E+00 0.  1.
         24    1    1    2    0    0  0.50299405009E+02  0.48371355614E+02 -0.15645929534E+03  0.18925259639E+03  0.80419002446E+02 0.  1.
          1    1    1    2  501    0  0.15721102092E+01 -0.54889455586E+02  0.22406224819E+03  0.23069290177E+03  0.00000000000E+00 0. -1.
         -2    1    1    2    0  503 -0.51871515218E+02  0.65180999719E+01  0.68005076086E+02  0.85777794864E+02  0.00000000000E+00 0.  1.
<mgrwt>
<rscale>  2 0.10683346E+03</rscale>
<asrwt>0</asrwt>
<pdfrwt beam="1">  1       21 0.49333178E-01 0.10683346E+03</pdfrwt>
<pdfrwt beam="2">  1       21 0.28470405E-01 0.10683346E+03</pdfrwt>
<totfact> 0.48395374E+04</totfact>
</mgrwt>
</event>
<event>
 5    1  0.2051810E+000  0.6562684E+02  0.7546771E-02  0.1375629E+00
         21   -1    0    0  501  502  0.00000000000E+00  0.00000000000E+00  0.57313850460E+03  0.57313850460E+03  0.00000000000E+00 0. -1.
         21   -1    0    0  502  503 -0.00000000000E+00 -0.00000000000E+00 -0.24768807083E+02  0.24768807083E+02  0.00000000000E+00 0.  1.
         24    1    1    2    0    0  0.30823343210E+01 -0.98292261026E+01  0.11937428158E+03  0.14430367122E+03  0.80419002446E+02 0.  0.
          1    1    1    2  501    0  0.54141445292E+01  0.28845665538E+02  0.43161465426E+03  0.43261136734E+03  0.00000000000E+00 0. -1.
         -2    1    1    2    0  503 -0.84964788502E+01 -0.19016439435E+02 -0.26192383169E+01  0.20992273126E+02  0.00000000000E+00 0.  1.
<mgrwt>
<rscale>  2 0.65626837E+02</rscale>
<asrwt>0</asrwt>
<pdfrwt beam="1">  1       21 0.88175145E-01 0.65626837E+02</pdfrwt>
<pdfrwt beam="2">  1       21 0.38105861E-02 0.65626837E+02</pdfrwt>
<totfact> 0.47656108E+05</totfact>
</mgrwt>
</event>
<event>
 5    1  0.2051810E+000  0.8096762E+02  0.7546771E-02  0.1326328E+00
         21   -1    0    0  503  502  0.00000000000E+00  0.00000000000E+00  0.14182559883E+03  0.14182559883E+03  0.00000000000E+00 0. -1.
         21   -1    0    0  501  503 -0.00000000000E+00 -0.00000000000E+00 -0.73059567572E+02  0.73059567572E+02  0.00000000000E+00 0.  1.
         24    1    1    2    0    0 -0.18758620479E+02 -0.20651726385E+02  0.51332415706E+02  0.99401270120E+02  0.80419002446E+02 0. -1.
          1    1    1    2  501    0 -0.43459432203E+01 -0.25145813920E+02 -0.34220042996E+02  0.42687357880E+02  0.00000000000E+00 0. -1.
         -2    1    1    2    0  502  0.23104563699E+02  0.45797540305E+02  0.51653658547E+02  0.72796538400E+02  0.00000000000E+00 0.  1.
<mgrwt>
<rscale>  2 0.80967620E+02</rscale>
<asrwt>0</asrwt>
<pdfrwt beam="1">  1       21 0.21819323E-01 0.80967620E+02</pdfrwt>
<pdfrwt beam="2">  1       21 0.11239934E-01 0.80967620E+02</pdfrwt>
<totfact> 0.12775399E+06</totfact>
</mgrwt>
</event>
<event>
 5    1  0.2051810E+000  0.7156693E+02  0.7546771E-02  0.1354844E+00
         21   -1    0    0  501  502  0.00000000000E+00  0.00000000000E+00  0.12999174227E+03  0.12999174227E+03  0.00000000000E+00 0. -1.
         21   -1    0    0  502  503 -0.00000000000E+00 -0.00000000000E+00 -0.23570479385E+03  0.23570479385E+03  0.00000000000E+00 0.  1.
         24    1    1    2    0    0 -0.14922717911E+02 -0.36556331639E+02  0.12997465776E+02  0.90527360305E+02  0.80419002446E+02 0.  1.
          1    1    1    2  501    0  0.26427389599E+02  0.18976979435E+02  0.74251527719E+02  0.81066775180E+02  0.00000000000E+00 0. -1.
         -2    1    1    2    0  503 -0.11504671688E+02  0.17579352203E+02 -0.19296204507E+03  0.19410240063E+03  0.00000000000E+00 0.  1.
<mgrwt>
<rscale>  2 0.71566927E+02</rscale>
<asrwt>0</asrwt>
<pdfrwt beam="1">  1       21 0.19998730E-01 0.71566927E+02</pdfrwt>
<pdfrwt beam="2">  1       21 0.36262276E-01 0.71566927E+02</pdfrwt>
<totfact> 0.17584567E+05</totfact>
</mgrwt>
</event>
<event>
 5    1  0.2051810E+000  0.7124724E+02  0.7546771E-02  0.1355902E+00
         21   -1    0    0  501  502  0.00000000000E+00  0.00000000000E+00  0.44019607000E+03  0.44019607000E+03  0.00000000000E+00 0. -1.
         21   -1    0    0  502  503 -0.00000000000E+00 -0.00000000000E+00 -0.12320102433E+02  0.12320102433E+02  0.00000000000E+00 0.  1.
         24    1    1    2    0    0 -0.41110532161E+01 -0.52854706370E+01  0.18547036286E+03  0.20226544048E+03  0.80419002446E+02 0.  1.
          1    1    1    2  501    0  0.90235889160E+01  0.32712210327E+02  0.14656165017E+03  0.15043879540E+03  0.00000000000E+00 0. -1.
         -2    1    1    2    0  503 -0.49125356999E+01 -0.27426739690E+02  0.95843954533E+02  0.99811936548E+02  0.00000000000E+00 0.  1.
<mgrwt>
<rscale>  2 0.71247238E+02</rscale>
<asrwt>0</asrwt>
<pdfrwt beam="1">  1       21 0.67722460E-01 0.71247238E+02</pdfrwt>
<pdfrwt beam="2">  1       21 0.18954007E-02 0.71247238E+02</pdfrwt>
<totfact> 0.26044209E+06</totfact>
</mgrwt>
</event>
<event>
 5    1  0.2051810E+000  0.1214478E+03  0.7546771E-02  0.1240727E+00
         21   -1    0    0  503  502  0.00000000000E+00  0.00000000000E+00  0.10302867897E+03  0.10302867897E+03  0.00000000000E+00 0.  1.
         21   -1    0    0  501  503 -0.00000000000E+00 -0.00000000000E+00 -0.28539784295E+03  0.28539784295E+03  0.00000000000E+00 0. -1.
         24    1    1    2    0    0  0.12835129150E+02 -0.25706777844E+02 -0.11134395416E+03  0.14032202625E+03  0.80419002446E+02 0.  1.
          1    1    1    2  501    0  0.70602253567E+02  0.22108644833E+02 -0.12741371593E+03  0.14733541798E+03  0.00000000000E+00 0. -1.
         -2    1    1    2    0  502 -0.83437382716E+02  0.35981330106E+01  0.56388506118E+02  0.10076907769E+03  0.00000000000E+00 0.  1.
<mgrwt>
<rscale>  2 0.12144785E+03</rscale>
<asrwt>0</asrwt>
<pdfrwt beam="1">  1       21 0.15850566E-01 0.12144785E+03</pdfrwt>
<pdfrwt beam="2">  1       21 0.43907360E-01 0.12144785E+03</pdfrwt>
<totfact> 0.18050236E+05</totfact>
</mgrwt>
</event>
<event>
 5    1  0.2051810E+000  0.7114395E+02  0.7546771E-02  0.1356246E+00
         21   -1    0    0  501  502  0.00000000000E+00  0.00000000000E+00  0.84684183180E+03  0.84684183180E+03  0.00000000000E+00 0.  1.
         21   -1    0    0  502  503 -0.00000000000E+00 -0.00000000000E+00 -0.64277165108E+01  0.64277165108E+01  0.00000000000E+00 0.  1.
         24    1    1    2    0    0  0.52430078779E+01 -0.32775337027E+02  0.56394247083E+03  0.57061373819E+03  0.80419002446E+02 0.  1.
          1    1    1    2  501    0 -0.23276136831E+02  0.79330730486E+01  0.17260303251E+03  0.17434597508E+03  0.00000000000E+00 0. -1.
         -2    1    1    2    0  503  0.18033128953E+02  0.24842263979E+02  0.10386861194E+03  0.10830983504E+03  0.00000000000E+00 0.  1.
<mgrwt>
<rscale>  2 0.71143953E+02</rscale>
<asrwt>0</asrwt>
<pdfrwt beam="1">  1       21 0.13028327E+00 0.71143953E+02</pdfrwt>
<pdfrwt beam="2">  1       21 0.98888013E-03 0.71143953E+02</pdfrwt>
<totfact> 0.16394225E+06</totfact>
</mgrwt>
</event>
<event>
 5    1  0.2051810E+000  0.8180315E+02  0.7546771E-02  0.1324011E+00
         21   -1    0    0  503  502  0.00000000000E+00  0.00000000000E+00  0.12068776175E+03  0.12068776175E+03  0.00000000000E+00 0.  1.
         21   -1    0    0  501  503 -0.00000000000E+00 -0.00000000000E+00 -0.79961987970E+02  0.79961987970E+02  0.00000000000E+00 0.  1.
         24    1    1    2    0    0 -0.27246337698E+01 -0.34743298766E+01  0.41253755062E+01  0.80645702147E+02  0.80419002446E+02 0.  1.
          1    1    1    2  501    0 -0.36074782779E+02  0.19592673399E+02 -0.23021102619E+02  0.47066272099E+02  0.00000000000E+00 0. -1.
         -2    1    1    2    0  502  0.38799416549E+02 -0.16118343523E+02  0.59621500895E+02  0.72937775476E+02  0.00000000000E+00 0.  1.
<mgrwt>
<rscale>  2 0.81803151E+02</rscale>
<asrwt>0</asrwt>
<pdfrwt beam="1">  1       21 0.18567348E-01 0.81803151E+02</pdfrwt>
<pdfrwt beam="2">  1       21 0.12301844E-01 0.81803151E+02</pdfrwt>
<totfact> 0.14656839E+06</totfact>
</mgrwt>
</event>
<event>
 5    1  0.2051810E+000  0.7457152E+02  0.7546771E-02  0.1345203E+00
         21   -1    0    0  503  502  0.00000000000E+00  0.00000000000E+00  0.18858541918E+03  0.18858541918E+03  0.00000000000E+00 0. -1.
         21   -1    0    0  501  503 -0.00000000000E+00 -0.00000000000E+00 -0.37188548399E+02  0.37188548399E+02  0.00000000000E+00 0.  1.
         24    1    1    2    0    0  0.19893078366E+02 -0.18996401166E+02  0.43961961627E+02  0.95689434362E+02  0.80419002446E+02 0.  1.
          1    1    1    2  501    0 -0.25422166187E+02 -0.15126512268E+02  0.19062956250E+02  0.35192246419E+02  0.00000000000E+00 0. -1.
         -2    1    1    2    0  502  0.55290878216E+01  0.34122913434E+02  0.88371952905E+02  0.94892286797E+02  0.00000000000E+00 0.  1.
<mgrwt>
<rscale>  2 0.74571519E+02</rscale>
<asrwt>0</asrwt>
<pdfrwt beam="1">  1       21 0.29013141E-01 0.74571519E+02</pdfrwt>
<pdfrwt beam="2">  1       21 0.57213152E-02 0.74571519E+02</pdfrwt>
<totfact> 0.23627702E+06</totfact>
</mgrwt>
</event>
<event>
 5    1  0.2051810E+000  0.1251841E+03  0.7546771E-02  0.1234782E+00
         21   -1    0    0  501  502  0.00000000000E+00  0.00000000000E+00  0.14649535172E+03  0.14649535172E+03  0.00000000000E+00 0. -1.
         21   -1    0    0  502  503 -0.00000000000E+00 -0.00000000000E+00 -0.23256815008E+03  0.23256815008E+03  0.00000000000E+00 0.  1.
         24    1    1    2    0    0 -0.34396422340E+02  0.31905751035E+02 -0.48027329079E+02  0.10476130541E+03  0.80419002446E+02 0.  1.
          1    1    1    2  501    0 -0.20713000832E+02 -0.80909527781E+02  0.92339453870E+02  0.12450684652E+03  0.00000000000E+00 0. -1.
         -2    1    1    2    0  503  0.55109423172E+02  0.49003776747E+02 -0.13038492315E+03  0.14979534987E+03  0.00000000000E+00 0.  1.
<mgrwt>
<rscale>  2 0.12518406E+03</rscale>
<asrwt>0</asrwt>
<pdfrwt beam="1">  1       21 0.22537746E-01 0.12518406E+03</pdfrwt>
<pdfrwt beam="2">  1       21 0.35779715E-01 0.12518406E+03</pdfrwt>
<totfact> 0.14203821E+05</totfact>
</mgrwt>
</event>
<event>
 5    1  0.2051810E+000  0.7101576E+02  0.7546771E-02  0.1356673E+00
         21   -1    0    0  503  502  0.00000000000E+00  0.00000000000E+00  0.23398193500E+02  0.23398193500E+02  0.00000000000E+00 0. -1.
         21   -1    0    0  501  503 -0.00000000000E+00 -0.00000000000E+00 -0.21779225037E+03  0.21779225037E+03  0.00000000000E+00 0.  1.
         24    1    1    2    0    0 -0.17462447844E+02  0.23364577294E+02 -0.10587001378E+03  0.13611214615E+03  0.80419002446E+02 0.  0.
          1    1    1    2  501    0 -0.12858564676E+02 -0.22780780012E+02 -0.37512693875E+02  0.45733016795E+02  0.00000000000E+00 0. -1.
         -2    1    1    2    0  502  0.30321012520E+02 -0.58379728258E+00 -0.51011349216E+02  0.59345280927E+02  0.00000000000E+00 0.  1.
<mgrwt>
<rscale>  2 0.71015764E+02</rscale>
<asrwt>0</asrwt>
<pdfrwt beam="1">  1       21 0.35997221E-02 0.71015764E+02</pdfrwt>
<pdfrwt beam="2">  1       21 0.33506500E-01 0.71015764E+02</pdfrwt>
<totfact> 0.38402360E+06</totfact>
</mgrwt>
</event>
<event>
 5    1  0.2051810E+000  0.8066199E+02  0.7546771E-02  0.1327183E+00
         21   -1    0    0  501  502  0.00000000000E+00  0.00000000000E+00  0.41207656766E+02  0.41207656766E+02  0.00000000000E+00 0.  1.
         21   -1    0    0  502  503 -0.00000000000E+00 -0.00000000000E+00 -0.26491612059E+03  0.26491612059E+03  0.00000000000E+00 0. -1.
         24    1    1    2    0    0 -0.16524100117E+02  0.35555723123E+02 -0.26358002861E+02  0.93269585614E+02  0.80419002446E+02 0.  1.
          1    1    1    2  501    0  0.37814479931E+02 -0.33407371471E+02 -0.88086873899E+02  0.10151494823E+03  0.00000000000E+00 0. -1.
         -2    1    1    2    0  503 -0.21290379814E+02 -0.21483516517E+01 -0.10926358706E+03  0.11133924351E+03  0.00000000000E+00 0.  1.
<mgrwt>
<rscale>  2 0.80661993E+02</rscale>
<asrwt>0</asrwt>
<pdfrwt beam="1">  1       21 0.63396395E-02 0.80661993E+02</pdfrwt>
<pdfrwt beam="2">  1       21 0.40756326E-01 0.80661993E+02</pdfrwt>
<totfact> 0.10346387E+06</totfact>
</mgrwt>
</event>
<event>
 5    1  0.2051810E+000  0.1210305E+03  0.7546771E-02  0.1241407E+00
         21   -1    0    0  503  502  0.00000000000E+00  0.00000000000E+00  0.77245419035E+03  0.77245419035E+03  0.00000000000E+00 0.  1.
         21   -1    0    0  501  503 -0.00000000000E+00 -0.00000000000E+00 -0.47453759354E+02  0.47453759354E+02  0.00000000000E+00 0.  1.
         24    1    1    2    0    0 -0.75834709622E+02  0.60201173602E+02  0.99417344300E+02  0.16039360582E+03  0.80419002446E+02 0.  1.
          1    1    1    2  501    0  0.31922077698E+02  0.99466604869E+01  0.54424132418E+01  0.33875875802E+02  0.00000000000E+00 0. -1.
         -2    1    1    2    0  502  0.43912631924E+02 -0.70147834089E+02  0.62014067345E+03  0.62563846808E+03  0.00000000000E+00 0.  1.
<mgrwt>
<rscale>  2 0.12103048E+03</rscale>
<asrwt>0</asrwt>
<pdfrwt beam="1">  1       21 0.11883910E+00 0.12103048E+03</pdfrwt>
<pdfrwt beam="2">  1       21 0.73005789E-02 0.12103048E+03</pdfrwt>
<totfact> 0.78821003E+04</totfact>
</mgrwt>
</event>
<event>
 5    1  0.2051810E+000  0.2510079E+03  0.7546771E-02  0.1112669E+00
         21   -1    0    0  503  502  0.00000000000E+00  0.00000000000E+00  0.91039594878E+03  0.91039594878E+03  0.00000000000E+00 0. -1.
         21   -1    0    0  501  503 -0.00000000000E+00 -0.00000000000E+00 -0.12104244309E+03  0.12104244309E+03  0.00000000000E+00 0. -1.
         24    1    1    2    0    0 -0.13732771704E+03 -0.19016814816E+03  0.39855585627E+03  0.46940048250E+03  0.80419002446E+02 0. -1.
          1    1    1    2  501    0  0.11256742144E+03  0.19826609442E+03  0.67616419908E+02  0.23780842879E+03  0.00000000000E+00 0. -1.
         -2    1    1    2    0  502  0.24760295606E+02 -0.80979462547E+01  0.32318122950E+03  0.32422948058E+03  0.00000000000E+00 0.  1.
<mgrwt>
<rscale>  2 0.25100794E+03</rscale>
<asrwt>0</asrwt>
<pdfrwt beam="1">  1       21 0.14006091E+00 0.25100794E+03</pdfrwt>
<pdfrwt beam="2">  1       21 0.18621915E-01 0.25100794E+03</pdfrwt>
<totfact> 0.90562787E+03</totfact>
</mgrwt>
</event>
<event>
 5    1  0.2051810E+000  0.9087564E+02  0.7546771E-02  0.1300745E+00
         21   -1    0    0  501  502  0.00000000000E+00  0.00000000000E+00  0.75204006283E+02  0.75204006283E+02  0.00000000000E+00 0. -1.
         21   -1    0    0  502  503 -0.00000000000E+00 -0.00000000000E+00 -0.25937473606E+03  0.25937473606E+03  0.00000000000E+00 0. -1.
         24    1    1    2    0    0  0.75966095012E+01  0.53232555344E+02 -0.21804044123E+03  0.23853776093E+03  0.80419002446E+02 0. -1.
          1    1    1    2  501    0 -0.36315753261E+02 -0.37759750642E+02  0.35653240741E+02  0.63370231804E+02  0.00000000000E+00 0. -1.
         -2    1    1    2    0  503  0.28719143760E+02 -0.15472804702E+02 -0.17835292957E+01  0.32670749614E+02  0.00000000000E+00 0.  1.
<mgrwt>
<rscale>  2 0.90875641E+02</rscale>
<asrwt>0</asrwt>
<pdfrwt beam="1">  1       21 0.11569847E-01 0.90875641E+02</pdfrwt>
<pdfrwt beam="2">  1       21 0.39903805E-01 0.90875641E+02</pdfrwt>
<totfact> 0.38514645E+05</totfact>
</mgrwt>
</event>
<event>
 5    1  0.2051810E+000  0.7224711E+02  0.7546771E-02  0.1352614E+00
         21   -1    0    0  503  502  0.00000000000E+00  0.00000000000E+00  0.91983352251E+02  0.91983352251E+02  0.00000000000E+00 0.  1.
         21   -1    0    0  501  503 -0.00000000000E+00 -0.00000000000E+00 -0.87610560335E+02  0.87610560335E+02  0.00000000000E+00 0. -1.
         24    1    1    2    0    0  0.97005995439E+01  0.14671420096E+02 -0.28819111806E+02  0.87218744309E+02  0.80419002446E+02 0. -1.
          1    1    1    2  501    0  0.26797842270E+01 -0.36757449627E+02 -0.13508554739E+02  0.39252673765E+02  0.00000000000E+00 0. -1.
         -2    1    1    2    0  502 -0.12380383771E+02  0.22086029531E+02  0.46700458461E+02  0.53122494512E+02  0.00000000000E+00 0.  1.
<mgrwt>
<rscale>  2 0.72247105E+02</rscale>
<asrwt>0</asrwt>
<pdfrwt beam="1">  1       21 0.14151285E-01 0.72247105E+02</pdfrwt>
<pdfrwt beam="2">  1       21 0.13478548E-01 0.72247105E+02</pdfrwt>
<totfact> 0.20189147E+06</totfact>
</mgrwt>
</event>
<event>
 5    1  0.2051810E+000  0.8544479E+02  0.7546771E-02  0.1314273E+00
         21   -1    0    0  501  502  0.00000000000E+00  0.00000000000E+00  0.42412819321E+02  0.42412819321E+02  0.00000000000E+00 0.  1.
         21   -1    0    0  502  503 -0.00000000000E+00 -0.00000000000E+00 -0.27000620747E+03  0.27000620747E+03  0.00000000000E+00 0. -1.
         24    1    1    2    0    0 -0.38592701483E+02 -0.59442957902E+01 -0.18207691089E+03  0.20283971183E+03  0.80419002446E+02 0.  0.
          1    1    1    2  501    0  0.59914762441E+02  0.32866939831E+01 -0.84722336600E+00  0.60010823217E+02  0.00000000000E+00 0. -1.
         -2    1    1    2    0  503 -0.21322060958E+02  0.26576018071E+01 -0.44669253887E+02  0.49568491744E+02  0.00000000000E+00 0.  1.
<mgrwt>
<rscale>  2 0.85444790E+02</rscale>
<asrwt>0</asrwt>
<pdfrwt beam="1">  1       21 0.65250492E-02 0.85444790E+02</pdfrwt>
<pdfrwt beam="2">  1       21 0.41539416E-01 0.85444790E+02</pdfrwt>
<totfact> 0.95026065E+05</totfact>
</mgrwt>
</event>
<event>
 5    1  0.2621724E+000  0.1200783E+03  0.7546771E-02  0.1242968E+00
         21   -1    0    0  503  502  0.00000000000E+00  0.00000000000E+00  0.67785419795E+03  0.67785419795E+03  0.00000000000E+00 0.  1.
         21   -1    0    0  501  503 -0.00000000000E+00 -0.00000000000E+00 -0.53457197143E+02  0.53457197143E+02  0.00000000000E+00 0. -1.
         24    1    1    2    0    0  0.16323493128E+02  0.27083003580E+02  0.16157409496E+03  0.18323031853E+03  0.80419002446E+02 0. -1.
          1    1    1    2  501    0 -0.30271959405E+02 -0.87056540909E+02  0.11854873875E+02  0.92928848459E+02  0.00000000000E+00 0. -1.
         -2    1    1    2    0  502  0.13948466277E+02  0.59973537329E+02  0.45096803197E+03  0.45515222810E+03  0.00000000000E+00 0.  1.
<mgrwt>
<rscale>  2 0.12007827E+03</rscale>
<asrwt>0</asrwt>
<pdfrwt beam="1">  1       21 0.10428526E+00 0.12007827E+03</pdfrwt>
<pdfrwt beam="2">  1       21 0.82241847E-02 0.12007827E+03</pdfrwt>
<totfact> 0.87798741E+04</totfact>
</mgrwt>
</event>
<event>
 5    1  0.2051810E+000  0.6291381E+02  0.7546771E-02  0.1385995E+00
         21   -1    0    0  503  502  0.00000000000E+00  0.00000000000E+00  0.15408932548E+03  0.15408932548E+03  0.00000000000E+00 0.  1.
         21   -1    0    0  501  503 -0.00000000000E+00 -0.00000000000E+00 -0.70542106733E+02  0.70542106733E+02  0.00000000000E+00 0. -1.
         24    1    1    2    0    0 -0.25171409760E+01  0.95456146278E+01  0.53116265923E+02  0.96881414200E+02  0.80419002446E+02 0.  0.
          1    1    1    2  501    0 -0.15277083803E+02 -0.19219148359E+02 -0.44123175546E+02  0.50493757767E+02  0.00000000000E+00 0. -1.
         -2    1    1    2    0  502  0.17794224780E+02  0.96735337314E+01  0.74554128368E+02  0.77256260245E+02  0.00000000000E+00 0.  1.
<mgrwt>
<rscale>  2 0.62913805E+02</rscale>
<asrwt>0</asrwt>
<pdfrwt beam="1">  1       21 0.23706050E-01 0.62913805E+02</pdfrwt>
<pdfrwt beam="2">  1       21 0.10852632E-01 0.62913805E+02</pdfrwt>
<totfact> 0.11556831E+06</totfact>
</mgrwt>
</event>
<event>
 5    1  0.2051810E+000  0.9037362E+02  0.7546771E-02  0.1301949E+00
         21   -1    0    0  503  502  0.00000000000E+00  0.00000000000E+00  0.69554308709E+02  0.69554308709E+02  0.00000000000E+00 0.  1.
         21   -1    0    0  501  503 -0.00000000000E+00 -0.00000000000E+00 -0.12369313888E+03  0.12369313888E+03  0.00000000000E+00 0. -1.
         24    1    1    2    0    0 -0.41006637398E+01  0.70995141892E+00 -0.64709176383E+01  0.80786188198E+02  0.80419002446E+02 0.  1.
          1    1    1    2  501    0 -0.40688424356E+02 -0.26480781253E+02 -0.33154737870E+02  0.58787892423E+02  0.00000000000E+00 0. -1.
         -2    1    1    2    0  502  0.44789088096E+02  0.25770829834E+02 -0.14513174661E+02  0.53673366967E+02  0.00000000000E+00 0.  1.
<mgrwt>
<rscale>  2 0.90373624E+02</rscale>
<asrwt>0</asrwt>
<pdfrwt beam="1">  1       21 0.10700663E-01 0.90373624E+02</pdfrwt>
<pdfrwt beam="2">  1       21 0.19029714E-01 0.90373624E+02</pdfrwt>
<totfact> 0.17946225E+06</totfact>
</mgrwt>
</event>
<event>
 5    1  0.2051810E+000  0.8581302E+02  0.7546771E-02  0.1313320E+00
         21   -1    0    0  503  502  0.00000000000E+00  0.00000000000E+00  0.48763027703E+02  0.48763027703E+02  0.00000000000E+00 0. -1.
         21   -1    0    0  501  503 -0.00000000000E+00 -0.00000000000E+00 -0.45257601696E+03  0.45257601696E+03  0.00000000000E+00 0. -1.
         24    1    1    2    0    0 -0.55612974658E+02  0.22564786516E+02 -0.37962086728E+02  0.10728610592E+03  0.80419002446E+02 0. -1.
          1    1    1    2  501    0  0.28671269161E+02 -0.31784294017E+02 -0.36291028207E+03  0.36542599230E+03  0.00000000000E+00 0. -1.
         -2    1    1    2    0  502  0.26941705498E+02  0.92195075012E+01 -0.29406204646E+01  0.28626946439E+02  0.00000000000E+00 0.  1.
<mgrwt>
<rscale>  2 0.85813017E+02</rscale>
<asrwt>0</asrwt>
<pdfrwt beam="1">  1       21 0.75020040E-02 0.85813017E+02</pdfrwt>
<pdfrwt beam="2">  1       21 0.69627082E-01 0.85813017E+02</pdfrwt>
<totfact> 0.25842034E+05</totfact>
</mgrwt>
</event>
<event>
 5    1  0.2051810E+000  0.7052144E+02  0.7546771E-02  0.1358329E+00
         21   -1    0    0  503  502  0.00000000000E+00  0.00000000000E+00  0.89599386131E+03  0.89599386131E+03  0.00000000000E+00 0.  1.
         21   -1    0    0  501  503 -0.00000000000E+00 -0.00000000000E+00 -0.21999487443E+02  0.21999487443E+02  0.00000000000E+00 0.  1.
         24    1    1    2    0    0 -0.82844139306E+01 -0.71949354218E+01  0.16873698745E+03  0.18724258463E+03  0.80419002446E+02 0.  1.
          1    1    1    2  501    0  0.24795812964E+02 -0.17374168542E+02  0.59983278689E+01  0.30865417708E+02  0.00000000000E+00 0. -1.
         -2    1    1    2    0  502 -0.16511399034E+02  0.24569103964E+02  0.69925905855E+03  0.69988534642E+03  0.00000000000E+00 0.  1.
<mgrwt>
<rscale>  2 0.70521444E+02</rscale>
<asrwt>0</asrwt>
<pdfrwt beam="1">  1       21 0.13784518E+00 0.70521444E+02</pdfrwt>
<pdfrwt beam="2">  1       21 0.33845372E-02 0.70521444E+02</pdfrwt>
<totfact> 0.20298948E+05</totfact>
</mgrwt>
</event>
<event>
 5    1  0.2051810E+000  0.7439927E+02  0.7546771E-02  0.1345741E+00
         21   -1    0    0  501  502  0.00000000000E+00  0.00000000000E+00  0.50042742414E+02  0.50042742414E+02  0.00000000000E+00 0. -1.
         21   -1    0    0  502  503 -0.00000000000E+00 -0.00000000000E+00 -0.28783209393E+03  0.28783209393E+03  0.00000000000E+00 0. -1.
         24    1    1    2    0    0 -0.16237875706E+02  0.36932345150E+02 -0.15529486200E+03  0.17947528199E+03  0.80419002446E+02 0. -1.
          1    1    1    2  501    0 -0.11350610878E+02 -0.27366657314E+02  0.30008085863E+02  0.42169367046E+02  0.00000000000E+00 0. -1.
         -2    1    1    2    0  503  0.27588486585E+02 -0.95656878359E+01 -0.11250257538E+03  0.11623018731E+03  0.00000000000E+00 0.  1.
<mgrwt>
<rscale>  2 0.74399266E+02</rscale>
<asrwt>0</asrwt>
<pdfrwt beam="1">  1       21 0.76988837E-02 0.74399266E+02</pdfrwt>
<pdfrwt beam="2">  1       21 0.44281859E-01 0.74399266E+02</pdfrwt>
<totfact> 0.63142165E+05</totfact>
</mgrwt>
</event>
<event>
 5    1  0.2978453E+000  0.1497905E+03  0.7546771E-02  0.1200731E+00
         21   -1    0    0  503  502  0.00000000000E+00  0.00000000000E+00  0.50225527775E+03  0.50225527775E+03  0.00000000000E+00 0.  1.
         21   -1    0    0  501  503 -0.00000000000E+00 -0.00000000000E+00 -0.96846272256E+02  0.96846272256E+02  0.00000000000E+00 0. -1.
         24    1    1    2    0    0 -0.90985210761E+01 -0.37841331865E+02  0.94860216318E+02  0.13030896392E+03  0.80419002446E+02 0.  1.
          1    1    1    2  501    0  0.47328733998E+02 -0.76343709022E+02 -0.39860149021E+02  0.98271066185E+02  0.00000000000E+00 0. -1.
         -2    1    1    2    0  502 -0.38230212922E+02  0.11418504089E+03  0.35040893819E+03  0.37052151990E+03  0.00000000000E+00 0.  1.
<mgrwt>
<rscale>  2 0.14979048E+03</rscale>
<asrwt>0</asrwt>
<pdfrwt beam="1">  1       21 0.77270042E-01 0.14979048E+03</pdfrwt>
<pdfrwt beam="2">  1       21 0.14899427E-01 0.14979048E+03</pdfrwt>
<totfact> 0.60274550E+04</totfact>
</mgrwt>
</event>
<event>
 5    1  0.2051810E+000  0.9545805E+02  0.7546771E-02  0.1290148E+00
         21   -1    0    0  503  502  0.00000000000E+00  0.00000000000E+00  0.98582650013E+01  0.98582650013E+01  0.00000000000E+00 0.  1.
         21   -1    0    0  501  503 -0.00000000000E+00 -0.00000000000E+00 -0.11521139693E+04  0.11521139693E+04  0.00000000000E+00 0.  1.
         24    1    1    2    0    0 -0.22117386211E+02 -0.22681205233E+02 -0.63822151283E+03  0.64404777093E+03  0.80419002446E+02 0.  1.
          1    1    1    2  501    0 -0.29147876235E+02 -0.21967993881E+02 -0.31365017098E+03  0.31576671959E+03  0.00000000000E+00 0. -1.
         -2    1    1    2    0  502  0.51265262446E+02  0.44649199115E+02 -0.19038402052E+03  0.20215774381E+03  0.00000000000E+00 0.  1.
<mgrwt>
<rscale>  2 0.95458048E+02</rscale>
<asrwt>0</asrwt>
<pdfrwt beam="1">  1       21 0.15166564E-02 0.95458048E+02</pdfrwt>
<pdfrwt beam="2">  1       21 0.17724827E+00 0.95458048E+02</pdfrwt>
<totfact> 0.38020610E+05</totfact>
</mgrwt>
</event>
<event>
 5    1  0.2051810E+000  0.1109747E+03  0.7546771E-02  0.1258776E+00
         21   -1    0    0  503  502  0.00000000000E+00  0.00000000000E+00  0.29036884074E+03  0.29036884074E+03  0.00000000000E+00 0.  1.
         21   -1    0    0  501  503 -0.00000000000E+00 -0.00000000000E+00 -0.73700525134E+02  0.73700525134E+02  0.00000000000E+00 0.  1.
         24    1    1    2    0    0  0.14082115944E+02  0.11039906625E+02  0.31655266654E+02  0.88257902700E+02  0.80419002446E+02 0.  1.
          1    1    1    2  501    0 -0.60573749268E+02  0.38382516006E+02 -0.71064240237E+01  0.72061764464E+02  0.00000000000E+00 0. -1.
         -2    1    1    2    0  502  0.46491633323E+02 -0.49422422631E+02  0.19211947297E+03  0.20374969871E+03  0.00000000000E+00 0.  1.
<mgrwt>
<rscale>  2 0.11097466E+03</rscale>
<asrwt>0</asrwt>
<pdfrwt beam="1">  1       21 0.44672129E-01 0.11097466E+03</pdfrwt>
<pdfrwt beam="2">  1       21 0.11338542E-01 0.11097466E+03</pdfrwt>
<totfact> 0.31747535E+05</totfact>
</mgrwt>
</event>
<event>
 5    1  0.2051810E+000  0.7568787E+02  0.7546771E-02  0.1341754E+00
         21   -1    0    0  501  502  0.00000000000E+00  0.00000000000E+00  0.15340571501E+02  0.15340571501E+02  0.00000000000E+00 0. -1.
         21   -1    0    0  502  503 -0.00000000000E+00 -0.00000000000E+00 -0.83075307035E+03  0.83075307035E+03  0.00000000000E+00 0. -1.
         24    1    1    2    0    0 -0.28643542931E+02  0.91577128115E+01 -0.35126684980E+03  0.36160742799E+03  0.80419002446E+02 0.  0.
          1    1    1    2  501    0  0.15809411704E+02  0.24690615791E+02 -0.13307543219E+02  0.32197122745E+02  0.00000000000E+00 0. -1.
         -2    1    1    2    0  503  0.12834131227E+02 -0.33848328602E+02 -0.45083810584E+03  0.45228909112E+03  0.00000000000E+00 0.  1.
<mgrwt>
<rscale>  2 0.75687866E+02</rscale>
<asrwt>0</asrwt>
<pdfrwt beam="1">  1       21 0.23600891E-02 0.75687866E+02</pdfrwt>
<pdfrwt beam="2">  1       21 0.12780810E+00 0.75687866E+02</pdfrwt>
<totfact> 0.43584973E+05</totfact>
</mgrwt>
</event>
<event>
 5    1  0.2051810E+000  0.8432730E+02  0.7546771E-02  0.1317201E+00
         21   -1    0    0  503  502  0.00000000000E+00  0.00000000000E+00  0.12403992364E+03  0.12403992364E+03  0.00000000000E+00 0. -1.
         21   -1    0    0  501  503 -0.00000000000E+00 -0.00000000000E+00 -0.69325835775E+02  0.69325835775E+02  0.00000000000E+00 0.  1.
         24    1    1    2    0    0 -0.45991266776E+02 -0.11949114550E+02  0.13449580082E+02  0.94372056865E+02  0.80419002446E+02 0.  1.
          1    1    1    2  501    0  0.19654071413E+02  0.35068702799E+02 -0.54784075650E+01  0.40572273643E+02  0.00000000000E+00 0. -1.
         -2    1    1    2    0  502  0.26337195362E+02 -0.23119588249E+02  0.46742915344E+02  0.58421428904E+02  0.00000000000E+00 0.  1.
<mgrwt>
<rscale>  2 0.84327304E+02</rscale>
<asrwt>0</asrwt>
<pdfrwt beam="1">  1       21 0.19083065E-01 0.84327304E+02</pdfrwt>
<pdfrwt beam="2">  1       21 0.10665513E-01 0.84327304E+02</pdfrwt>
<totfact> 0.17908818E+06</totfact>
</mgrwt>
</event>
<event>
 5    1  0.2051810E+000  0.6618295E+02  0.7546771E-02  0.1373576E+00
         21   -1    0    0  501  502  0.00000000000E+00  0.00000000000E+00  0.15601989773E+03  0.15601989773E+03  0.00000000000E+00 0.  1.
         21   -1    0    0  502  503 -0.00000000000E+00 -0.00000000000E+00 -0.31657031987E+02  0.31657031987E+02  0.00000000000E+00 0.  1.
         24    1    1    2    0    0 -0.37423795054E+02 -0.17949195297E+02  0.54004364016E+02  0.10538691254E+03  0.80419002446E+02 0.  1.
          1    1    1    2  501    0  0.17075799868E+02  0.11235790526E+02  0.42354825014E+02  0.47029322043E+02  0.00000000000E+00 0. -1.
         -2    1    1    2    0  503  0.20347995187E+02  0.67134047705E+01  0.28003676717E+02  0.35260695135E+02  0.00000000000E+00 0.  1.
<mgrwt>
<rscale>  2 0.66182946E+02</rscale>
<asrwt>0</asrwt>
<pdfrwt beam="1">  1       21 0.24003061E-01 0.66182946E+02</pdfrwt>
<pdfrwt beam="2">  1       21 0.48703127E-02 0.66182946E+02</pdfrwt>
<totfact> 0.43637238E+06</totfact>
</mgrwt>
</event>
<event>
 5    1  0.2051810E+000  0.9370943E+02  0.7546771E-02  0.1294110E+00
         21   -1    0    0  503  502  0.00000000000E+00  0.00000000000E+00  0.78590971010E+02  0.78590971010E+02  0.00000000000E+00 0.  1.
         21   -1    0    0  501  503 -0.00000000000E+00 -0.00000000000E+00 -0.16447788082E+03  0.16447788082E+03  0.00000000000E+00 0. -1.
         24    1    1    2    0    0  0.38034182953E+02 -0.11899019967E+02 -0.33903544431E+01  0.89815901747E+02  0.80419002446E+02 0.  1.
          1    1    1    2  501    0 -0.19432553246E+02  0.50885687666E+02 -0.93918849322E+02  0.10857130188E+03  0.00000000000E+00 0. -1.
         -2    1    1    2    0  502 -0.18601629707E+02 -0.38986667699E+02  0.11422293959E+02  0.44681648194E+02  0.00000000000E+00 0.  1.
<mgrwt>
<rscale>  2 0.93709429E+02</rscale>
<asrwt>0</asrwt>
<pdfrwt beam="1">  1       21 0.12090919E-01 0.93709429E+02</pdfrwt>
<pdfrwt beam="2">  1       21 0.25304289E-01 0.93709429E+02</pdfrwt>
<totfact> 0.85665806E+05</totfact>
</mgrwt>
</event>
<event>
 5    1  0.2051810E+000  0.1194152E+03  0.7546771E-02  0.1244065E+00
         21   -1    0    0  503  502  0.00000000000E+00  0.00000000000E+00  0.10384735197E+03  0.10384735197E+03  0.00000000000E+00 0.  1.
         21   -1    0    0  501  503 -0.00000000000E+00 -0.00000000000E+00 -0.19430360952E+03  0.19430360952E+03  0.00000000000E+00 0. -1.
         24    1    1    2    0    0 -0.19074819639E+02  0.28746165627E+01 -0.57621704008E+02  0.10079478603E+03  0.80419002446E+02 0.  0.
          1    1    1    2  501    0 -0.68497245448E+02  0.36389952065E+00 -0.73741215123E+02  0.10064676778E+03  0.00000000000E+00 0. -1.
         -2    1    1    2    0  502  0.87572065087E+02 -0.32385160834E+01  0.40906661588E+02  0.96709407672E+02  0.00000000000E+00 0.  1.
<mgrwt>
<rscale>  2 0.11941518E+03</rscale>
<asrwt>0</asrwt>
<pdfrwt beam="1">  1       21 0.15976516E-01 0.11941518E+03</pdfrwt>
<pdfrwt beam="2">  1       21 0.29892863E-01 0.11941518E+03</pdfrwt>
<totfact> 0.37972252E+05</totfact>
</mgrwt>
</event>
<event>
 5    1  0.2051810E+000  0.8889132E+02  0.7546771E-02  0.1305559E+00
         21   -1    0    0  503  502  0.00000000000E+00  0.00000000000E+00  0.49892660947E+03  0.49892660947E+03  0.00000000000E+00 0. -1.
         21   -1    0    0  501  503 -0.00000000000E+00 -0.00000000000E+00 -0.12448245956E+03  0.12448245956E+03  0.00000000000E+00 0. -1.
         24    1    1    2    0    0  0.28351933023E+02 -0.57341438761E+02  0.10460413699E+03  0.14663258211E+03  0.80419002446E+02 0. -1.
          1    1    1    2  501    0 -0.37841031644E+02  0.38805464762E+02 -0.96053498007E+02  0.11029089831E+03  0.00000000000E+00 0. -1.
         -2    1    1    2    0  502  0.94890986203E+01  0.18535973999E+02  0.36589351092E+03  0.36648558861E+03  0.00000000000E+00 0.  1.
<mgrwt>
<rscale>  2 0.88891323E+02</rscale>
<asrwt>0</asrwt>
<pdfrwt beam="1">  1       21 0.76757938E-01 0.88891323E+02</pdfrwt>
<pdfrwt beam="2">  1       21 0.19151148E-01 0.88891323E+02</pdfrwt>
<totfact> 0.40281291E+04</totfact>
</mgrwt>
</event>
<event>
 5    1  0.2051810E+000  0.9759088E+02  0.7546771E-02  0.1285445E+00
         21   -1    0    0  501  502  0.00000000000E+00  0.00000000000E+00  0.32215172645E+03  0.32215172645E+03  0.00000000000E+00 0.  1.
         21   -1    0    0  502  503 -0.00000000000E+00 -0.00000000000E+00 -0.40955479001E+02  0.40955479001E+02  0.00000000000E+00 0.  1.
         24    1    1    2    0    0 -0.78122100538E+01  0.39805845707E+02  0.62500388679E+02  0.10963143034E+03  0.80419002446E+02 0.  0.
          1    1    1    2  501    0  0.17220102420E+02  0.30044691195E+02  0.15385980763E+03  0.15770876894E+03  0.00000000000E+00 0. -1.
         -2    1    1    2    0  503 -0.94078923661E+01 -0.69850536903E+02  0.64836051140E+02  0.95767006175E+02  0.00000000000E+00 0.  1.
<mgrwt>
<rscale>  2 0.97590876E+02</rscale>
<asrwt>0</asrwt>
<pdfrwt beam="1">  1       21 0.49561802E-01 0.97590876E+02</pdfrwt>
<pdfrwt beam="2">  1       21 0.63008431E-02 0.97590876E+02</pdfrwt>
<totfact> 0.70732886E+05</totfact>
</mgrwt>
</event>
<event>
 5    1  0.2051810E+000  0.8051514E+02  0.7546771E-02  0.1327596E+00
         21   -1    0    0  501  502  0.00000000000E+00  0.00000000000E+00  0.12595440790E+04  0.12595440790E+04  0.00000000000E+00 0.  1.
         21   -1    0    0  502  503 -0.00000000000E+00 -0.00000000000E+00 -0.15773995186E+02  0.15773995186E+02  0.00000000000E+00 0.  1.
         24    1    1    2    0    0 -0.39311833848E+02  0.41884572334E+02  0.95329820742E+03  0.95840723385E+03  0.80419002446E+02 0.  1.
          1    1    1    2  501    0  0.58647341307E+01 -0.23117704891E+02  0.27422324958E+03  0.27525844946E+03  0.00000000000E+00 0. -1.
         -2    1    1    2    0  503  0.33447099718E+02 -0.18766867444E+02  0.16248626829E+02  0.41652390892E+02  0.00000000000E+00 0.  1.
<mgrwt>
<rscale>  2 0.80515141E+02</rscale>
<asrwt>0</asrwt>
<pdfrwt beam="1">  1       21 0.19377593E+00 0.80515141E+02</pdfrwt>
<pdfrwt beam="2">  1       21 0.24267695E-02 0.80515141E+02</pdfrwt>
<totfact> 0.14197576E+05</totfact>
</mgrwt>
</event>
<event>
 5    1  0.2051810E+000  0.1309975E+03  0.7546771E-02  0.1225983E+00
         21   -1    0    0  501  502  0.00000000000E+00  0.00000000000E+00  0.20687015656E+03  0.20687015656E+03  0.00000000000E+00 0. -1.
         21   -1    0    0  502  503 -0.00000000000E+00 -0.00000000000E+00 -0.15991704795E+03  0.15991704795E+03  0.00000000000E+00 0.  1.
         24    1    1    2    0    0 -0.17943150417E+02 -0.39462859372E+02 -0.26858071361E+02  0.95225237560E+02  0.80419002446E+02 0.  1.
          1    1    1    2  501    0  0.64239178905E+02 -0.42131246795E+02  0.13796434510E+03  0.15791097043E+03  0.00000000000E+00 0. -1.
         -2    1    1    2    0  503 -0.46296028488E+02  0.81594106167E+02 -0.64153165128E+02  0.11365099652E+03  0.00000000000E+00 0.  1.
<mgrwt>
<rscale>  2 0.13099748E+03</rscale>
<asrwt>0</asrwt>
<pdfrwt beam="1">  1       21 0.31826178E-01 0.13099748E+03</pdfrwt>
<pdfrwt beam="2">  1       21 0.24602623E-01 0.13099748E+03</pdfrwt>
<totfact> 0.15119290E+05</totfact>
</mgrwt>
</event>
<event>
 5    1  0.2051810E+000  0.1205780E+03  0.7546771E-02  0.1242147E+00
         21   -1    0    0  501  502  0.00000000000E+00  0.00000000000E+00  0.39725473810E+03  0.39725473810E+03  0.00000000000E+00 0. -1.
         21   -1    0    0  502  503 -0.00000000000E+00 -0.00000000000E+00 -0.43143067514E+02  0.43143067514E+02  0.00000000000E+00 0. -1.
         24    1    1    2    0    0  0.80667024742E+02 -0.16708446811E+02  0.93315248707E+02  0.14819342992E+03  0.80419002446E+02 0. -1.
          1    1    1    2  501    0 -0.90671003877E+02 -0.15783687030E+02  0.22366333412E+03  0.24185872477E+03  0.00000000000E+00 0. -1.
         -2    1    1    2    0  503  0.10003979135E+02  0.32492133840E+02  0.37133087763E+02  0.50345650923E+02  0.00000000000E+00 0.  1.
<mgrwt>
<rscale>  2 0.12057798E+03</rscale>
<asrwt>0</asrwt>
<pdfrwt beam="1">  1       21 0.61116111E-01 0.12057798E+03</pdfrwt>
<pdfrwt beam="2">  1       21 0.66373953E-02 0.12057798E+03</pdfrwt>
<totfact> 0.41795377E+05</totfact>
</mgrwt>
</event>
<event>
 5    1  0.2051810E+000  0.6597609E+02  0.7546771E-02  0.1374337E+00
         21   -1    0    0  503  502  0.00000000000E+00  0.00000000000E+00  0.32290035222E+03  0.32290035222E+03  0.00000000000E+00 0. -1.
         21   -1    0    0  501  503 -0.00000000000E+00 -0.00000000000E+00 -0.22179615354E+02  0.22179615354E+02  0.00000000000E+00 0. -1.
         24    1    1    2    0    0  0.10254086985E+02 -0.23689053158E+02  0.19935937767E+03  0.21651257460E+03  0.80419002446E+02 0.  0.
          1    1    1    2  501    0 -0.20919478079E+02 -0.63843757938E+00 -0.27607047669E+01  0.21110510568E+02  0.00000000000E+00 0. -1.
         -2    1    1    2    0  502  0.10665391094E+02  0.24327490737E+02  0.10412206396E+03  0.10745688240E+03  0.00000000000E+00 0.  1.
<mgrwt>
<rscale>  2 0.65976086E+02</rscale>
<asrwt>0</asrwt>
<pdfrwt beam="1">  1       21 0.49676974E-01 0.65976086E+02</pdfrwt>
<pdfrwt beam="2">  1       21 0.34122487E-02 0.65976086E+02</pdfrwt>
<totfact> 0.19216784E+06</totfact>
</mgrwt>
</event>
<event>
 5    1  0.2051810E+000  0.7996435E+02  0.7546771E-02  0.1329153E+00
         21   -1    0    0  503  502  0.00000000000E+00  0.00000000000E+00  0.45851630294E+02  0.45851630294E+02  0.00000000000E+00 0.  1.
         21   -1    0    0  501  503 -0.00000000000E+00 -0.00000000000E+00 -0.10448654720E+04  0.10448654720E+04  0.00000000000E+00 0. -1.
         24    1    1    2    0    0  0.13230429182E+02 -0.57798635270E+01 -0.22509426881E+03  0.23946418706E+03  0.80419002446E+02 0.  1.
          1    1    1    2  501    0  0.51979540892E+01 -0.33993567598E+02 -0.79967313707E+03  0.80041221099E+03  0.00000000000E+00 0. -1.
         -2    1    1    2    0  502 -0.18428383271E+02  0.39773431126E+02  0.25753564213E+02  0.50840704196E+02  0.00000000000E+00 0.  1.
<mgrwt>
<rscale>  2 0.79964354E+02</rscale>
<asrwt>0</asrwt>
<pdfrwt beam="1">  1       21 0.70540970E-02 0.79964354E+02</pdfrwt>
<pdfrwt beam="2">  1       21 0.16074853E+00 0.79964354E+02</pdfrwt>
<totfact> 0.40507104E+04</totfact>
</mgrwt>
</event>
<event>
 5    1  0.2051810E+000  0.7698452E+02  0.7546771E-02  0.1337833E+00
         21   -1    0    0  501  502  0.00000000000E+00  0.00000000000E+00  0.82400407894E+02  0.82400407894E+02  0.00000000000E+00 0.  1.
         21   -1    0    0  502  503 -0.00000000000E+00 -0.00000000000E+00 -0.10204585756E+03  0.10204585756E+03  0.00000000000E+00 0. -1.
         24    1    1    2    0    0  0.48045319415E+02 -0.68540473102E+01  0.24775569836E+02  0.97141008319E+02  0.80419002446E+02 0.  1.
          1    1    1    2  501    0 -0.22160903211E+02 -0.14501360665E+02  0.56015498690E+01  0.27069770099E+02  0.00000000000E+00 0. -1.
         -2    1    1    2    0  503 -0.25884416203E+02  0.21355407975E+02 -0.50022569368E+02  0.60235487034E+02  0.00000000000E+00 0.  1.
<mgrwt>
<rscale>  2 0.76984521E+02</rscale>
<asrwt>0</asrwt>
<pdfrwt beam="1">  1       21 0.12676986E-01 0.76984521E+02</pdfrwt>
<pdfrwt beam="2">  1       21 0.15699363E-01 0.76984521E+02</pdfrwt>
<totfact> 0.18757853E+06</totfact>
</mgrwt>
</event>
<event>
 5    1  0.2051810E+000  0.8355798E+02  0.7546771E-02  0.1319247E+00
         21   -1    0    0  503  502  0.00000000000E+00  0.00000000000E+00  0.35070168129E+03  0.35070168129E+03  0.00000000000E+00 0. -1.
         21   -1    0    0  501  503 -0.00000000000E+00 -0.00000000000E+00 -0.10212410140E+03  0.10212410140E+03  0.00000000000E+00 0. -1.
         24    1    1    2    0    0 -0.42381061680E+02 -0.18232365354E+02  0.25988421712E+03  0.27592679428E+03  0.80419002446E+02 0. -1.
          1    1    1    2  501    0  0.12542061990E+02  0.37056851246E+02 -0.85896546303E+02  0.94386069999E+02  0.00000000000E+00 0. -1.
         -2    1    1    2    0  502  0.29838999689E+02 -0.18824485891E+02  0.74589909062E+02  0.82512918415E+02  0.00000000000E+00 0.  1.
<mgrwt>
<rscale>  2 0.83557975E+02</rscale>
<asrwt>0</asrwt>
<pdfrwt beam="1">  1       21 0.53954104E-01 0.83557975E+02</pdfrwt>
<pdfrwt beam="2">  1       21 0.15711400E-01 0.83557975E+02</pdfrwt>
<totfact> 0.12218020E+05</totfact>
</mgrwt>
</event>
<event>
 5    1  0.2051810E+000  0.1254074E+03  0.7546771E-02  0.1234434E+00
         21   -1    0    0  501  502  0.00000000000E+00  0.00000000000E+00  0.28338451203E+02  0.28338451203E+02  0.00000000000E+00 0. -1.
         21   -1    0    0  502  503 -0.00000000000E+00 -0.00000000000E+00 -0.24750992872E+04  0.24750992872E+04  0.00000000000E+00 0.  1.
         24    1    1    2    0    0 -0.66683269812E+02  0.17349250542E+02 -0.11452985747E+03  0.15598704809E+03  0.80419002446E+02 0. -1.
          1    1    1    2  501    0  0.10346206657E+03 -0.26927768136E+02 -0.37739896201E+03  0.39224925805E+03  0.00000000000E+00 0. -1.
         -2    1    1    2    0  503 -0.36778796760E+02  0.95785175944E+01 -0.19548320165E+04  0.19552014323E+04  0.00000000000E+00 0.  1.
<mgrwt>
<rscale>  2 0.12540739E+03</rscale>
<asrwt>0</asrwt>
<pdfrwt beam="1">  1       21 0.43597606E-02 0.12540739E+03</pdfrwt>
<pdfrwt beam="2">  1       21 0.38078460E+00 0.12540739E+03</pdfrwt>
<totfact> 0.43294854E+03</totfact>
</mgrwt>
</event>
<event>
 5    1  0.2051810E+000  0.9220977E+02  0.7546771E-02  0.1297587E+00
         21   -1    0    0  503  502  0.00000000000E+00  0.00000000000E+00  0.24337977090E+03  0.24337977090E+03  0.00000000000E+00 0. -1.
         21   -1    0    0  501  503 -0.00000000000E+00 -0.00000000000E+00 -0.40370383393E+02  0.40370383393E+02  0.00000000000E+00 0.  1.
         24    1    1    2    0    0 -0.25025024479E+02 -0.37951319251E+01  0.44824539195E+02  0.95483559553E+02  0.80419002446E+02 0.  1.
          1    1    1    2  501    0  0.46432858889E+02  0.37837429515E+02  0.75960586973E+02  0.96735165427E+02  0.00000000000E+00 0. -1.
         -2    1    1    2    0  502 -0.21407834410E+02 -0.34042297590E+02  0.82224261334E+02  0.91531429309E+02  0.00000000000E+00 0.  1.
<mgrwt>
<rscale>  2 0.92209771E+02</rscale>
<asrwt>0</asrwt>
<pdfrwt beam="1">  1       21 0.37443041E-01 0.92209771E+02</pdfrwt>
<pdfrwt beam="2">  1       21 0.62108284E-02 0.92209771E+02</pdfrwt>
<totfact> 0.12696727E+06</totfact>
</mgrwt>
</event>
<event>
 5    1  0.2051810E+000  0.1003750E+03  0.7546771E-02  0.1279509E+00
         21   -1    0    0  503  502  0.00000000000E+00  0.00000000000E+00  0.13344526086E+04  0.13344526086E+04  0.00000000000E+00 0.  1.
         21   -1    0    0  501  503 -0.00000000000E+00 -0.00000000000E+00 -0.11195474636E+02  0.11195474636E+02  0.00000000000E+00 0. -1.
         24    1    1    2    0    0 -0.50030647520E+02 -0.46986700969E+02  0.92639261967E+03  0.93240619769E+03  0.80419002446E+02 0.  1.
          1    1    1    2  501    0 -0.72546490736E+00  0.44184431202E+02  0.72408816558E+02  0.84828220394E+02  0.00000000000E+00 0. -1.
         -2    1    1    2    0  502  0.50756112427E+02  0.28022697677E+01  0.32445569777E+03  0.32841366518E+03  0.00000000000E+00 0.  1.
<mgrwt>
<rscale>  2 0.10037500E+03</rscale>
<asrwt>0</asrwt>
<pdfrwt beam="1">  1       21 0.20530028E+00 0.10037500E+03</pdfrwt>
<pdfrwt beam="2">  1       21 0.17223818E-02 0.10037500E+03</pdfrwt>
<totfact> 0.20541096E+05</totfact>
</mgrwt>
</event>
<event>
 5    1  0.2051810E+000  0.8161162E+02  0.7546771E-02  0.1324539E+00
         21   -1    0    0  503  502  0.00000000000E+00  0.00000000000E+00  0.19655784260E+03  0.19655784260E+03  0.00000000000E+00 0.  1.
         21   -1    0    0  501  503 -0.00000000000E+00 -0.00000000000E+00 -0.92911313195E+02  0.92911313195E+02  0.00000000000E+00 0. -1.
         24    1    1    2    0    0  0.15633922619E+02  0.26597276533E+01  0.71747022913E+02  0.10893275421E+03  0.80419002446E+02 0.  0.
          1    1    1    2  501    0  0.14632628012E+02  0.32032398053E+02 -0.64623318541E+02  0.73595934853E+02  0.00000000000E+00 0. -1.
         -2    1    1    2    0  502 -0.30266550631E+02 -0.34692125706E+02  0.96522825030E+02  0.10694046673E+03  0.00000000000E+00 0.  1.
<mgrwt>
<rscale>  2 0.81611620E+02</rscale>
<asrwt>0</asrwt>
<pdfrwt beam="1">  1       21 0.30239668E-01 0.81611620E+02</pdfrwt>
<pdfrwt beam="2">  1       21 0.14294048E-01 0.81611620E+02</pdfrwt>
<totfact> 0.45474778E+05</totfact>
</mgrwt>
</event>
<event>
 5    1  0.2051810E+000  0.6902904E+02  0.7546771E-02  0.1363426E+00
         21   -1    0    0  503  502  0.00000000000E+00  0.00000000000E+00  0.77745147420E+03  0.77745147420E+03  0.00000000000E+00 0.  1.
         21   -1    0    0  501  503 -0.00000000000E+00 -0.00000000000E+00 -0.28849230433E+02  0.28849230433E+02  0.00000000000E+00 0. -1.
         24    1    1    2    0    0 -0.54557170206E+01  0.56390253290E+01  0.13266668633E+03  0.15533585894E+03  0.80419002446E+02 0.  0.
          1    1    1    2  501    0  0.30210500560E+02 -0.10588745831E+02 -0.24110755958E+01  0.32103102154E+02  0.00000000000E+00 0. -1.
         -2    1    1    2    0  502 -0.24754783540E+02  0.49497205017E+01  0.61834663303E+03  0.61886174355E+03  0.00000000000E+00 0.  1.
<mgrwt>
<rscale>  2 0.69029039E+02</rscale>
<asrwt>0</asrwt>
<pdfrwt beam="1">  1       21 0.11960790E+00 0.69029039E+02</pdfrwt>
<pdfrwt beam="2">  1       21 0.44383437E-02 0.69029039E+02</pdfrwt>
<totfact> 0.18400645E+05</totfact>
</mgrwt>
</event>
<event>
 5    1  0.2051810E+000  0.7009428E+02  0.7546771E-02  0.1359773E+00
         21   -1    0    0  501  502  0.00000000000E+00  0.00000000000E+00  0.83506488806E+02  0.83506488806E+02  0.00000000000E+00 0. -1.
         21   -1    0    0  502  503 -0.00000000000E+00 -0.00000000000E+00 -0.59858013162E+03  0.59858013162E+03  0.00000000000E+00 0.  1.
         24    1    1    2    0    0  0.62571222972E-01  0.23352963230E+02 -0.97699667737E+02  0.12867713797E+03  0.80419002446E+02 0.  1.
          1    1    1    2  501    0  0.22181638388E+02  0.25228486017E+01  0.65567564134E+02  0.69263953923E+02  0.00000000000E+00 0. -1.
         -2    1    1    2    0  503 -0.22244209611E+02 -0.25875811832E+02 -0.48294153921E+03  0.48414552853E+03  0.00000000000E+00 0.  1.
<mgrwt>
<rscale>  2 0.70094278E+02</rscale>
<asrwt>0</asrwt>
<pdfrwt beam="1">  1       21 0.12847152E-01 0.70094278E+02</pdfrwt>
<pdfrwt beam="2">  1       21 0.92089251E-01 0.70094278E+02</pdfrwt>
<totfact> 0.55751737E+04</totfact>
</mgrwt>
</event>
<event>
 5    1  0.2051810E+000  0.7144131E+02  0.7546771E-02  0.1355259E+00
         21   -1    0    0  503  502  0.00000000000E+00  0.00000000000E+00  0.25746126216E+02  0.25746126216E+02  0.00000000000E+00 0. -1.
         21   -1    0    0  501  503 -0.00000000000E+00 -0.00000000000E+00 -0.48922317924E+03  0.48922317924E+03  0.00000000000E+00 0. -1.
         24    1    1    2    0    0  0.84516241133E+01  0.43258465243E+01 -0.54531559529E+02  0.97627095815E+02  0.80419002446E+02 0. -1.
          1    1    1    2  501    0 -0.28906820220E+02  0.16024348842E+02 -0.35156837248E+03  0.35311854177E+03  0.00000000000E+00 0. -1.
         -2    1    1    2    0  502  0.20455196106E+02 -0.20350195366E+02 -0.57377121014E+02  0.64223667873E+02  0.00000000000E+00 0.  1.
<mgrwt>
<rscale>  2 0.71441309E+02</rscale>
<asrwt>0</asrwt>
<pdfrwt beam="1">  1       21 0.39609427E-02 0.71441309E+02</pdfrwt>
<pdfrwt beam="2">  1       21 0.75265102E-01 0.71441309E+02</pdfrwt>
<totfact> 0.63371915E+05</totfact>
</mgrwt>
</event>
<event>
 5    1  0.2051810E+000  0.1081565E+03  0.7546771E-02  0.1264022E+00
         21   -1    0    0  501  502  0.00000000000E+00  0.00000000000E+00  0.47315184987E+03  0.47315184987E+03  0.00000000000E+00 0. -1.
         21   -1    0    0  502  503 -0.00000000000E+00 -0.00000000000E+00 -0.25842336613E+02  0.25842336613E+02  0.00000000000E+00 0. -1.
         24    1    1    2    0    0  0.67109196520E+02  0.49689748743E+02  0.27353503542E+03  0.29708811310E+03  0.80419002446E+02 0. -1.
          1    1    1    2  501    0 -0.30559116850E+02 -0.55515806034E+02  0.12969209630E+03  0.14434647271E+03  0.00000000000E+00 0. -1.
         -2    1    1    2    0  503 -0.36550079670E+02  0.58260572911E+01  0.44082381543E+02  0.57559600676E+02  0.00000000000E+00 0.  1.
<mgrwt>
<rscale>  2 0.10815653E+03</rscale>
<asrwt>0</asrwt>
<pdfrwt beam="1">  1       21 0.72792586E-01 0.10815653E+03</pdfrwt>
<pdfrwt beam="2">  1       21 0.39757445E-02 0.10815653E+03</pdfrwt>
<totfact> 0.67807648E+05</totfact>
</mgrwt>
</event>
<event>
 5    1  0.2051810E+000  0.8447263E+02  0.7546771E-02  0.1316817E+00
         21   -1    0    0  503  502  0.00000000000E+00  0.00000000000E+00  0.34696710101E+03  0.34696710101E+03  0.00000000000E+00 0. -1.
         21   -1    0    0  501  503 -0.00000000000E+00 -0.00000000000E+00 -0.10271202487E+03  0.10271202487E+03  0.00000000000E+00 0. -1.
         24    1    1    2    0    0  0.39102982793E+02 -0.25097067531E+01  0.96794310109E+02  0.13180173108E+03  0.80419002446E+02 0. -1.
          1    1    1    2  501    0  0.15952503708E+02  0.16221197563E+02 -0.80142345192E+02  0.83309093848E+02  0.00000000000E+00 0. -1.
         -2    1    1    2    0  502 -0.55055486501E+02 -0.13711490810E+02  0.22760311123E+03  0.23456830096E+03  0.00000000000E+00 0.  1.
<mgrwt>
<rscale>  2 0.84472634E+02</rscale>
<asrwt>0</asrwt>
<pdfrwt beam="1">  1       21 0.53379553E-01 0.84472634E+02</pdfrwt>
<pdfrwt beam="2">  1       21 0.15801850E-01 0.84472634E+02</pdfrwt>
<totfact> 0.12357316E+05</totfact>
</mgrwt>
</event>
<event>
 5    1  0.2051810E+000  0.1018935E+03  0.7546771E-02  0.1276364E+00
         21   -1    0    0  503  502  0.00000000000E+00  0.00000000000E+00  0.12263284646E+03  0.12263284646E+03  0.00000000000E+00 0.  1.
         21   -1    0    0  501  503 -0.00000000000E+00 -0.00000000000E+00 -0.94799437061E+02  0.94799437061E+02  0.00000000000E+00 0. -1.
         24    1    1    2    0    0 -0.82927086454E+02 -0.12584469501E+02  0.41594496027E+02  0.12342037350E+03  0.80419002446E+02 0.  1.
          1    1    1    2  501    0  0.62175050011E+02  0.20363109983E+02 -0.23883305795E+02  0.69647723493E+02  0.00000000000E+00 0. -1.
         -2    1    1    2    0  502  0.20752036443E+02 -0.77786404819E+01  0.10122219163E+02  0.24364186526E+02  0.00000000000E+00 0.  1.
<mgrwt>
<rscale>  2 0.10189346E+03</rscale>
<asrwt>0</asrwt>
<pdfrwt beam="1">  1       21 0.18866592E-01 0.10189346E+03</pdfrwt>
<pdfrwt beam="2">  1       21 0.14584529E-01 0.10189346E+03</pdfrwt>
<totfact> 0.10592254E+06</totfact>
</mgrwt>
</event>
<event>
 5    1  0.2051810E+000  0.1103293E+03  0.7546771E-02  0.1259961E+00
         21   -1    0    0  501  502  0.00000000000E+00  0.00000000000E+00  0.21985556356E+03  0.21985556356E+03  0.00000000000E+00 0. -1.
         21   -1    0    0  502  503 -0.00000000000E+00 -0.00000000000E+00 -0.72960484755E+02  0.72960484755E+02  0.00000000000E+00 0.  1.
         24    1    1    2    0    0  0.44314193379E+02  0.17746039468E+02  0.12926903225E+03  0.15955051960E+03  0.80419002446E+02 0. -1.
          1    1    1    2  501    0 -0.53950377529E+02  0.40903409695E+02  0.27388540496E+02  0.73033309597E+02  0.00000000000E+00 0. -1.
         -2    1    1    2    0  503  0.96361841501E+01 -0.58649449163E+02 -0.97624939395E+01  0.60232219119E+02  0.00000000000E+00 0.  1.
<mgrwt>
<rscale>  2 0.11032925E+03</rscale>
<asrwt>0</asrwt>
<pdfrwt beam="1">  1       21 0.33823933E-01 0.11032925E+03</pdfrwt>
<pdfrwt beam="2">  1       21 0.11224690E-01 0.11032925E+03</pdfrwt>
<totfact> 0.56112741E+05</totfact>
</mgrwt>
</event>
<event>
 5    1  0.2051810E+000  0.1809333E+03  0.7546771E-02  0.1166903E+00
         21   -1    0    0  503  502  0.00000000000E+00  0.00000000000E+00  0.14176189720E+04  0.14176189720E+04  0.00000000000E+00 0.  1.
         21   -1    0    0  501  503 -0.00000000000E+00 -0.00000000000E+00 -0.23449996187E+02  0.23449996187E+02  0.00000000000E+00 0.  1.
         24    1    1    2    0    0  0.53058944838E+02  0.15901250981E+03  0.63142609956E+03  0.65822972059E+03  0.80419002446E+02 0.  1.
          1    1    1    2  501    0  0.10489393613E+02 -0.35843208646E+02  0.14405496563E+03  0.14881732462E+03  0.00000000000E+00 0. -1.
         -2    1    1    2    0  502 -0.63548338452E+02 -0.12316930116E+03  0.61868791058E+03  0.63402192294E+03  0.00000000000E+00 0.  1.
<mgrwt>
<rscale>  2 0.18093327E+03</rscale>
<asrwt>0</asrwt>
<pdfrwt beam="1">  1       21 0.21809516E+00 0.18093327E+03</pdfrwt>
<pdfrwt beam="2">  1       21 0.36076928E-02 0.18093327E+03</pdfrwt>
<totfact> 0.48527642E+04</totfact>
</mgrwt>
</event>
<event>
 5    1  0.2051810E+000  0.9666677E+02  0.7546771E-02  0.1287466E+00
         21   -1    0    0  501  502  0.00000000000E+00  0.00000000000E+00  0.34683357883E+03  0.34683357883E+03  0.00000000000E+00 0. -1.
         21   -1    0    0  502  503 -0.00000000000E+00 -0.00000000000E+00 -0.78649751563E+02  0.78649751563E+02  0.00000000000E+00 0.  1.
         24    1    1    2    0    0  0.29075975575E+02 -0.55536976068E+01 -0.19901439409E+02  0.87974650654E+02  0.80419002446E+02 0.  0.
          1    1    1    2  501    0 -0.64815228192E+02  0.21796938531E+02  0.29024530497E+03  0.29819198076E+03  0.00000000000E+00 0. -1.
         -2    1    1    2    0  503  0.35739252617E+02 -0.16243240924E+02 -0.21600382882E+01  0.39316698981E+02  0.00000000000E+00 0.  1.
<mgrwt>
<rscale>  2 0.96666771E+02</rscale>
<asrwt>0</asrwt>
<pdfrwt beam="1">  1       21 0.53359011E-01 0.96666771E+02</pdfrwt>
<pdfrwt beam="2">  1       21 0.12099962E-01 0.96666771E+02</pdfrwt>
<totfact> 0.19763192E+05</totfact>
</mgrwt>
</event>
<event>
 5    1  0.2051810E+000  0.1217328E+03  0.7546771E-02  0.1240266E+00
         21   -1    0    0  503  502  0.00000000000E+00  0.00000000000E+00  0.25764641825E+04  0.25764641825E+04  0.00000000000E+00 0.  1.
         21   -1    0    0  501  503 -0.00000000000E+00 -0.00000000000E+00 -0.75411185624E+01  0.75411185624E+01  0.00000000000E+00 0. -1.
         24    1    1    2    0    0  0.21957288702E+02 -0.10529800773E+03  0.10567227850E+04  0.10652230064E+04  0.80419002446E+02 0.  1.
          1    1    1    2  501    0 -0.33521061766E+01  0.61325343881E+02  0.33303750107E+03  0.33865323199E+03  0.00000000000E+00 0. -1.
         -2    1    1    2    0  502 -0.18605182526E+02  0.43972663847E+02  0.11791627779E+04  0.11801290627E+04  0.00000000000E+00 0.  1.
<mgrwt>
<rscale>  2 0.12173276E+03</rscale>
<asrwt>0</asrwt>
<pdfrwt beam="1">  1       21 0.39637840E+00 0.12173276E+03</pdfrwt>
<pdfrwt beam="2">  1       21 0.11601741E-02 0.12173276E+03</pdfrwt>
<totfact> 0.30038429E+04</totfact>
</mgrwt>
</event>
<event>
 5    1  0.2051810E+000  0.7704405E+02  0.7546771E-02  0.1337656E+00
         21   -1    0    0  501  502  0.00000000000E+00  0.00000000000E+00  0.69725948699E+03  0.69725948699E+03  0.00000000000E+00 0.  1.
         21   -1    0    0  502  503 -0.00000000000E+00 -0.00000000000E+00 -0.11025482867E+02  0.11025482867E+02  0.00000000000E+00 0. -1.
         24    1    1    2    0    0 -0.31341546651E+02  0.45100361016E+02  0.31947450294E+03  0.33398728882E+03  0.80419002446E+02 0.  1.
          1    1    1    2  501    0  0.12028396235E+02 -0.29566295307E+02  0.31802354930E+03  0.31962137920E+03  0.00000000000E+00 0. -1.
         -2    1    1    2    0  503  0.19313150416E+02 -0.15534065709E+02  0.48735951882E+02  0.54676301835E+02  0.00000000000E+00 0.  1.
<mgrwt>
<rscale>  2 0.77044051E+02</rscale>
<asrwt>0</asrwt>
<pdfrwt beam="1">  1       21 0.10727066E+00 0.77044051E+02</pdfrwt>
<pdfrwt beam="2">  1       21 0.16962287E-02 0.77044051E+02</pdfrwt>
<totfact> 0.11187178E+06</totfact>
</mgrwt>
</event>
<event>
 5    1  0.2051810E+000  0.1161155E+03  0.7546771E-02  0.1249646E+00
         21   -1    0    0  503  502  0.00000000000E+00  0.00000000000E+00  0.46228517702E+03  0.46228517702E+03  0.00000000000E+00 0. -1.
         21   -1    0    0  501  503 -0.00000000000E+00 -0.00000000000E+00 -0.48756800582E+02  0.48756800582E+02  0.00000000000E+00 0. -1.
         24    1    1    2    0    0  0.24886011175E+02  0.65749124001E+02  0.18333592882E+03  0.21218279763E+03  0.80419002446E+02 0. -1.
          1    1    1    2  501    0  0.11971468301E+02 -0.83607270487E+02  0.22830414217E+02  0.87491254106E+02  0.00000000000E+00 0. -1.
         -2    1    1    2    0  502 -0.36857479477E+02  0.17858146486E+02  0.20736203341E+03  0.21136792587E+03  0.00000000000E+00 0.  1.
<mgrwt>
<rscale>  2 0.11611554E+03</rscale>
<asrwt>0</asrwt>
<pdfrwt beam="1">  1       21 0.71120793E-01 0.11611554E+03</pdfrwt>
<pdfrwt beam="2">  1       21 0.75010466E-02 0.11611554E+03</pdfrwt>
<totfact> 0.24494158E+05</totfact>
</mgrwt>
</event>
<event>
 5    1  0.2051810E+000  0.1601056E+03  0.7546771E-02  0.1188578E+00
         21   -1    0    0  503  502  0.00000000000E+00  0.00000000000E+00  0.64164416556E+02  0.64164416556E+02  0.00000000000E+00 0. -1.
         21   -1    0    0  501  503 -0.00000000000E+00 -0.00000000000E+00 -0.39983995928E+03  0.39983995928E+03  0.00000000000E+00 0. -1.
         24    1    1    2    0    0  0.40259835957E+02  0.11623361906E+03 -0.15982238932E+03  0.21712098165E+03  0.80419002446E+02 0. -1.
          1    1    1    2  501    0  0.15341826288E+02 -0.11663981694E+03 -0.12173797459E+03  0.16929368856E+03  0.00000000000E+00 0. -1.
         -2    1    1    2    0  502 -0.55601662246E+02  0.40619788130E+00 -0.54115178810E+02  0.77589705624E+02  0.00000000000E+00 0.  1.
<mgrwt>
<rscale>  2 0.16010564E+03</rscale>
<asrwt>0</asrwt>
<pdfrwt beam="1">  1       21 0.98714484E-02 0.16010564E+03</pdfrwt>
<pdfrwt beam="2">  1       21 0.61513842E-01 0.16010564E+03</pdfrwt>
<totfact> 0.20591553E+05</totfact>
</mgrwt>
</event>
<event>
 5    1  0.2051810E+000  0.8272309E+02  0.7546771E-02  0.1321497E+00
         21   -1    0    0  503  502  0.00000000000E+00  0.00000000000E+00  0.19585216877E+03  0.19585216877E+03  0.00000000000E+00 0.  1.
         21   -1    0    0  501  503 -0.00000000000E+00 -0.00000000000E+00 -0.11032985801E+03  0.11032985801E+03  0.00000000000E+00 0. -1.
         24    1    1    2    0    0  0.58628856892E+02 -0.15867146521E+02  0.46246135551E+02  0.11088295724E+03  0.80419002446E+02 0.  0.
          1    1    1    2  501    0 -0.16631056201E+02  0.15401634524E+02 -0.72463803277E+02  0.75926314027E+02  0.00000000000E+00 0. -1.
         -2    1    1    2    0  502 -0.41997800691E+02  0.46551199726E+00  0.11173997849E+03  0.11937275551E+03  0.00000000000E+00 0.  1.
<mgrwt>
<rscale>  2 0.82723092E+02</rscale>
<asrwt>0</asrwt>
<pdfrwt beam="1">  1       21 0.30131103E-01 0.82723092E+02</pdfrwt>
<pdfrwt beam="2">  1       21 0.16973824E-01 0.82723092E+02</pdfrwt>
<totfact> 0.33685360E+05</totfact>
</mgrwt>
</event>
<event>
 5    1  0.2051810E+000  0.8859022E+02  0.7546771E-02  0.1306302E+00
         21   -1    0    0  501  502  0.00000000000E+00  0.00000000000E+00  0.61153877257E+03  0.61153877257E+03  0.00000000000E+00 0. -1.
         21   -1    0    0  502  503 -0.00000000000E+00 -0.00000000000E+00 -0.18808710148E+02  0.18808710148E+02  0.00000000000E+00 0. -1.
         24    1    1    2    0    0  0.80589487671E+01  0.98375189591E+01  0.15498073439E+03  0.17506560890E+03  0.80419002446E+02 0.  0.
          1    1    1    2  501    0  0.42202227094E+02  0.69517626218E+01  0.35122692430E+03  0.35382157556E+03  0.00000000000E+00 0. -1.
         -2    1    1    2    0  503 -0.50261175861E+02 -0.16789281581E+02  0.86522403733E+02  0.10146029826E+03  0.00000000000E+00 0.  1.
<mgrwt>
<rscale>  2 0.88590222E+02</rscale>
<asrwt>0</asrwt>
<pdfrwt beam="1">  1       21 0.94082873E-01 0.88590222E+02</pdfrwt>
<pdfrwt beam="2">  1       21 0.28936482E-02 0.88590222E+02</pdfrwt>
<totfact> 0.64405466E+05</totfact>
</mgrwt>
</event>
<event>
 5    1  0.2051810E+000  0.8877089E+02  0.7546771E-02  0.1305856E+00
         21   -1    0    0  503  502  0.00000000000E+00  0.00000000000E+00  0.46907368273E+03  0.46907368273E+03  0.00000000000E+00 0. -1.
         21   -1    0    0  501  503 -0.00000000000E+00 -0.00000000000E+00 -0.31438997473E+02  0.31438997473E+02  0.00000000000E+00 0.  1.
         24    1    1    2    0    0  0.25276840502E+02  0.25806205048E+02  0.36722133947E+03  0.37765540775E+03  0.80419002446E+02 0. -1.
          1    1    1    2  501    0  0.84211501467E+01  0.26140173985E+02 -0.20534583640E+01  0.27539810403E+02  0.00000000000E+00 0. -1.
         -2    1    1    2    0  502 -0.33697990649E+02 -0.51946379033E+02  0.72466804157E+02  0.95317462057E+02  0.00000000000E+00 0.  1.
<mgrwt>
<rscale>  2 0.88770890E+02</rscale>
<asrwt>0</asrwt>
<pdfrwt beam="1">  1       21 0.72165177E-01 0.88770890E+02</pdfrwt>
<pdfrwt beam="2">  1       21 0.48367692E-02 0.88770890E+02</pdfrwt>
<totfact> 0.49967284E+05</totfact>
</mgrwt>
</event>
<event>
 5    1  0.2051810E+000  0.9809607E+02  0.7546771E-02  0.1284351E+00
         21   -1    0    0  501  502  0.00000000000E+00  0.00000000000E+00  0.24203900956E+03  0.24203900956E+03  0.00000000000E+00 0.  1.
         21   -1    0    0  502  503 -0.00000000000E+00 -0.00000000000E+00 -0.42595925544E+02  0.42595925544E+02  0.00000000000E+00 0. -1.
         24    1    1    2    0    0  0.21474388345E+02  0.49494090682E+02  0.13445913676E+03  0.16570241332E+03  0.80419002446E+02 0.  0.
          1    1    1    2  501    0  0.28437127575E+02 -0.39136501534E+02  0.35918304710E+02  0.60253303563E+02  0.00000000000E+00 0. -1.
         -2    1    1    2    0  503 -0.49911515920E+02 -0.10357589148E+02  0.29065642544E+02  0.58679218220E+02  0.00000000000E+00 0.  1.
<mgrwt>
<rscale>  2 0.98096068E+02</rscale>
<asrwt>0</asrwt>
<pdfrwt beam="1">  1       21 0.37236770E-01 0.98096068E+02</pdfrwt>
<pdfrwt beam="2">  1       21 0.65532194E-02 0.98096068E+02</pdfrwt>
<totfact> 0.11737937E+06</totfact>
</mgrwt>
</event>
<event>
 5    1  0.2051810E+000  0.9132308E+02  0.7546771E-02  0.1299679E+00
         21   -1    0    0  503  502  0.00000000000E+00  0.00000000000E+00  0.90351646158E+02  0.90351646158E+02  0.00000000000E+00 0. -1.
         21   -1    0    0  501  503 -0.00000000000E+00 -0.00000000000E+00 -0.10987941523E+03  0.10987941523E+03  0.00000000000E+00 0.  1.
         24    1    1    2    0    0  0.34068083747E+02 -0.25075050440E+02 -0.49745691776E+02  0.10359170956E+03  0.80419002446E+02 0.  0.
          1    1    1    2  501    0  0.27105114205E+02  0.70569253848E+01  0.99780228128E+01  0.29732950597E+02  0.00000000000E+00 0. -1.
         -2    1    1    2    0  502 -0.61173197952E+02  0.18018125055E+02  0.20239899891E+02  0.66906401232E+02  0.00000000000E+00 0.  1.
<mgrwt>
<rscale>  2 0.91323076E+02</rscale>
<asrwt>0</asrwt>
<pdfrwt beam="1">  1       21 0.13900253E-01 0.91323076E+02</pdfrwt>
<pdfrwt beam="2">  1       21 0.16904525E-01 0.91323076E+02</pdfrwt>
<totfact> 0.14050190E+06</totfact>
</mgrwt>
</event>
<event>
 5    1  0.2051810E+000  0.1101051E+03  0.7546771E-02  0.1260375E+00
         21   -1    0    0  501  502  0.00000000000E+00  0.00000000000E+00  0.89729059089E+02  0.89729059089E+02  0.00000000000E+00 0. -1.
         21   -1    0    0  502  503 -0.00000000000E+00 -0.00000000000E+00 -0.24644821265E+03  0.24644821265E+03  0.00000000000E+00 0.  1.
         24    1    1    2    0    0 -0.67601915095E+02  0.50362768389E+02 -0.51447423380E+02  0.12735965095E+03  0.80419002446E+02 0.  1.
          1    1    1    2  501    0  0.59556104143E+02 -0.74226435515E+01  0.29691469380E+02  0.66959753076E+02  0.00000000000E+00 0. -1.
         -2    1    1    2    0  503  0.80458109516E+01 -0.42940124838E+02 -0.13496319956E+03  0.14185786771E+03  0.00000000000E+00 0.  1.
<mgrwt>
<rscale>  2 0.11010513E+03</rscale>
<asrwt>0</asrwt>
<pdfrwt beam="1">  1       21 0.13804471E-01 0.11010513E+03</pdfrwt>
<pdfrwt beam="2">  1       21 0.37915110E-01 0.11010513E+03</pdfrwt>
<totfact> 0.31105741E+05</totfact>
</mgrwt>
</event>
<event>
 5    1  0.2051810E+000  0.8105832E+02  0.7546771E-02  0.1326075E+00
         21   -1    0    0  501  502  0.00000000000E+00  0.00000000000E+00  0.70868502457E+03  0.70868502457E+03  0.00000000000E+00 0. -1.
         21   -1    0    0  502  503 -0.00000000000E+00 -0.00000000000E+00 -0.19522616010E+02  0.19522616010E+02  0.00000000000E+00 0.  1.
         24    1    1    2    0    0 -0.31279078647E+01 -0.55239490874E+01  0.36096902656E+03  0.36987315652E+03  0.80419002446E+02 0.  0.
          1    1    1    2  501    0 -0.38602220128E+02 -0.34742096706E+01  0.30918449170E+03  0.31160431871E+03  0.00000000000E+00 0. -1.
         -2    1    1    2    0  503  0.41730127993E+02  0.89981587580E+01  0.19008890299E+02  0.46730165351E+02  0.00000000000E+00 0.  1.
<mgrwt>
<rscale>  2 0.81058319E+02</rscale>
<asrwt>0</asrwt>
<pdfrwt beam="1">  1       21 0.10902845E+00 0.81058319E+02</pdfrwt>
<pdfrwt beam="2">  1       21 0.30034799E-02 0.81058319E+02</pdfrwt>
<totfact> 0.43124666E+05</totfact>
</mgrwt>
</event>
<event>
 5    1  0.2051810E+000  0.9363418E+02  0.7546771E-02  0.1294282E+00
         21   -1    0    0  503  502  0.00000000000E+00  0.00000000000E+00  0.26245566954E+03  0.26245566954E+03  0.00000000000E+00 0. -1.
         21   -1    0    0  501  503 -0.00000000000E+00 -0.00000000000E+00 -0.39704384133E+02  0.39704384133E+02  0.00000000000E+00 0.  1.
         24    1    1    2    0    0 -0.56751245934E+02 -0.43590339493E+02  0.16501286917E+03  0.19702102568E+03  0.80419002446E+02 0.  0.
          1    1    1    2  501    0  0.21425538468E+02 -0.24767433900E+01 -0.22196662364E+01  0.21682132614E+02  0.00000000000E+00 0. -1.
         -2    1    1    2    0  502  0.35325707466E+02  0.46067082883E+02  0.59958082468E+02  0.83456895380E+02  0.00000000000E+00 0.  1.
<mgrwt>
<rscale>  2 0.93634185E+02</rscale>
<asrwt>0</asrwt>
<pdfrwt beam="1">  1       21 0.40377794E-01 0.93634185E+02</pdfrwt>
<pdfrwt beam="2">  1       21 0.61083670E-02 0.93634185E+02</pdfrwt>
<totfact> 0.11254773E+06</totfact>
</mgrwt>
</event>
<event>
 5    1  0.2051810E+000  0.8262965E+02  0.7546771E-02  0.1321750E+00
         21   -1    0    0  501  502  0.00000000000E+00  0.00000000000E+00  0.66932787074E+03  0.66932787074E+03  0.00000000000E+00 0. -1.
         21   -1    0    0  502  503 -0.00000000000E+00 -0.00000000000E+00 -0.14316274126E+02  0.14316274126E+02  0.00000000000E+00 0.  1.
         24    1    1    2    0    0  0.81355142784E+01 -0.90046382281E+00  0.28408274089E+03  0.29535947091E+03  0.80419002446E+02 0.  1.
          1    1    1    2  501    0  0.36072637204E+02  0.13403966084E+02  0.30786422938E+03  0.31026002835E+03  0.00000000000E+00 0. -1.
         -2    1    1    2    0  503 -0.44208151482E+02 -0.12503502261E+02  0.63064626342E+02  0.78024645606E+02  0.00000000000E+00 0.  1.
<mgrwt>
<rscale>  2 0.82629650E+02</rscale>
<asrwt>0</asrwt>
<pdfrwt beam="1">  1       21 0.10297349E+00 0.82629650E+02</pdfrwt>
<pdfrwt beam="2">  1       21 0.22025042E-02 0.82629650E+02</pdfrwt>
<totfact> 0.81227085E+05</totfact>
</mgrwt>
</event>
<event>
 5    1  0.2552911E+000  0.2219609E+03  0.7546771E-02  0.1132430E+00
         21   -1    0    0  503  502  0.00000000000E+00  0.00000000000E+00  0.15779500602E+03  0.15779500602E+03  0.00000000000E+00 0.  1.
         21   -1    0    0  501  503 -0.00000000000E+00 -0.00000000000E+00 -0.41765908654E+03  0.41765908654E+03  0.00000000000E+00 0. -1.
         24    1    1    2    0    0 -0.55624131745E+02  0.30788593572E+02 -0.51996607808E+02  0.11494713874E+03  0.80419002446E+02 0.  0.
          1    1    1    2  501    0  0.67259506198E+02 -0.17978651183E+03 -0.24032024163E+03  0.30757251104E+03  0.00000000000E+00 0. -1.
         -2    1    1    2    0  502 -0.11635374453E+02  0.14899791825E+03  0.32452768916E+02  0.15293444279E+03  0.00000000000E+00 0.  1.
<mgrwt>
<rscale>  2 0.22196086E+03</rscale>
<asrwt>0</asrwt>
<pdfrwt beam="1">  1       21 0.24276155E-01 0.22196086E+03</pdfrwt>
<pdfrwt beam="2">  1       21 0.64255243E-01 0.22196086E+03</pdfrwt>
<totfact> 0.35261876E+04</totfact>
</mgrwt>
</event>
<event>
 5    1  0.2051810E+000  0.1068985E+03  0.7546771E-02  0.1266424E+00
         21   -1    0    0  501  502  0.00000000000E+00  0.00000000000E+00  0.74579566141E+03  0.74579566141E+03  0.00000000000E+00 0. -1.
         21   -1    0    0  502  503 -0.00000000000E+00 -0.00000000000E+00 -0.22268800114E+02  0.22268800114E+02  0.00000000000E+00 0. -1.
         24    1    1    2    0    0 -0.76321160101E+02  0.48459254910E+02  0.22718580842E+03  0.25739818641E+03  0.80419002446E+02 0. -1.
          1    1    1    2  501    0  0.34512592089E+02 -0.98507351334E+01  0.37421178517E+03  0.37592900414E+03  0.00000000000E+00 0. -1.
         -2    1    1    2    0  503  0.41808568012E+02 -0.38608519776E+02  0.12212926770E+03  0.13473727097E+03  0.00000000000E+00 0.  1.
<mgrwt>
<rscale>  2 0.10689851E+03</rscale>
<asrwt>0</asrwt>
<pdfrwt beam="1">  1       21 0.11473778E+00 0.10689851E+03</pdfrwt>
<pdfrwt beam="2">  1       21 0.34259698E-02 0.10689851E+03</pdfrwt>
<totfact> 0.30645396E+05</totfact>
</mgrwt>
</event>
<event>
 5    1  0.2051810E+000  0.7344337E+02  0.7546771E-02  0.1348760E+00
         21   -1    0    0  503  502  0.00000000000E+00  0.00000000000E+00  0.17269372013E+04  0.17269372013E+04  0.00000000000E+00 0.  1.
         21   -1    0    0  501  503 -0.00000000000E+00 -0.00000000000E+00 -0.24083303266E+02  0.24083303266E+02  0.00000000000E+00 0. -1.
         24    1    1    2    0    0 -0.27891231135E+01 -0.19659936068E+02  0.21019688972E+03  0.22592972512E+03  0.80419002446E+02 0.  1.
          1    1    1    2  501    0 -0.28801715211E+02  0.13742303153E+02 -0.17512563307E+00  0.31912699103E+02  0.00000000000E+00 0. -1.
         -2    1    1    2    0  502  0.31590838325E+02  0.59176329151E+01  0.14928321339E+04  0.14931780803E+04  0.00000000000E+00 0.  1.
<mgrwt>
<rscale>  2 0.73443374E+02</rscale>
<asrwt>0</asrwt>
<pdfrwt beam="1">  1       21 0.26568255E+00 0.73443374E+02</pdfrwt>
<pdfrwt beam="2">  1       21 0.37051249E-02 0.73443374E+02</pdfrwt>
<totfact> 0.27922913E+04</totfact>
</mgrwt>
</event>
<event>
 5    1  0.2051810E+000  0.7236047E+02  0.7546771E-02  0.1352245E+00
         21   -1    0    0  501  502  0.00000000000E+00  0.00000000000E+00  0.12878895308E+03  0.12878895308E+03  0.00000000000E+00 0.  1.
         21   -1    0    0  502  503 -0.00000000000E+00 -0.00000000000E+00 -0.10235372357E+03  0.10235372357E+03  0.00000000000E+00 0.  1.
         24    1    1    2    0    0  0.70220802435E+01  0.20729016384E+02  0.64577255762E+02  0.10543452778E+03  0.80419002446E+02 0.  1.
          1    1    1    2  501    0  0.14539784121E+02  0.14203428968E+02  0.35781241272E+02  0.41151426995E+02  0.00000000000E+00 0. -1.
         -2    1    1    2    0  503 -0.21561864364E+02 -0.34932445351E+02 -0.73923267528E+02  0.84556721880E+02  0.00000000000E+00 0.  1.
<mgrwt>
<rscale>  2 0.72360474E+02</rscale>
<asrwt>0</asrwt>
<pdfrwt beam="1">  1       21 0.19813685E-01 0.72360474E+02</pdfrwt>
<pdfrwt beam="2">  1       21 0.15746727E-01 0.72360474E+02</pdfrwt>
<totfact> 0.83930485E+05</totfact>
</mgrwt>
</event>
<event>
 5    1  0.2051810E+000  0.7794258E+02  0.7546771E-02  0.1334994E+00
         21   -1    0    0  503  502  0.00000000000E+00  0.00000000000E+00  0.25509300246E+02  0.25509300246E+02  0.00000000000E+00 0. -1.
         21   -1    0    0  501  503 -0.00000000000E+00 -0.00000000000E+00 -0.42364860486E+03  0.42364860486E+03  0.00000000000E+00 0. -1.
         24    1    1    2    0    0  0.42713873944E+02  0.27609139516E+02 -0.12568932107E+03  0.15764441315E+03  0.80419002446E+02 0. -1.
          1    1    1    2  501    0 -0.93508080869E+01 -0.25662551530E+02 -0.24945742097E+03  0.25094821984E+03  0.00000000000E+00 0. -1.
         -2    1    1    2    0  502 -0.33363065857E+02 -0.19465879864E+01 -0.22992562570E+02  0.40565272115E+02  0.00000000000E+00 0.  1.
<mgrwt>
<rscale>  2 0.77942579E+02</rscale>
<asrwt>0</asrwt>
<pdfrwt beam="1">  1       21 0.39245078E-02 0.77942579E+02</pdfrwt>
<pdfrwt beam="2">  1       21 0.65176707E-01 0.77942579E+02</pdfrwt>
<totfact> 0.87689142E+05</totfact>
</mgrwt>
</event>
<event>
 5    1  0.2051810E+000  0.7213689E+02  0.7546771E-02  0.1352974E+00
         21   -1    0    0  503  502  0.00000000000E+00  0.00000000000E+00  0.30498703000E+03  0.30498703000E+03  0.00000000000E+00 0.  1.
         21   -1    0    0  501  503 -0.00000000000E+00 -0.00000000000E+00 -0.41457994992E+02  0.41457994992E+02  0.00000000000E+00 0. -1.
         24    1    1    2    0    0  0.18236783786E+02  0.21916960961E+02  0.17317447907E+03  0.19305323001E+03  0.80419002446E+02 0.  1.
          1    1    1    2  501    0 -0.27409311050E+02  0.72688299018E+01 -0.22666989843E+02  0.36302873838E+02  0.00000000000E+00 0. -1.
         -2    1    1    2    0  502  0.91725272637E+01 -0.29185790863E+02  0.11302154578E+03  0.11708892115E+03  0.00000000000E+00 0.  1.
<mgrwt>
<rscale>  2 0.72136894E+02</rscale>
<asrwt>0</asrwt>
<pdfrwt beam="1">  1       21 0.46921080E-01 0.72136894E+02</pdfrwt>
<pdfrwt beam="2">  1       21 0.63781533E-02 0.72136894E+02</pdfrwt>
<totfact> 0.77178240E+05</totfact>
</mgrwt>
</event>
<event>
 5    1  0.2051810E+000  0.7788943E+02  0.7546771E-02  0.1335150E+00
         21   -1    0    0  503  502  0.00000000000E+00  0.00000000000E+00  0.41051434625E+03  0.41051434625E+03  0.00000000000E+00 0.  1.
         21   -1    0    0  501  503 -0.00000000000E+00 -0.00000000000E+00 -0.12849531749E+04  0.12849531749E+04  0.00000000000E+00 0. -1.
         24    1    1    2    0    0  0.21758605044E+01 -0.36953227767E+02 -0.40147770381E+03  0.41112265569E+03  0.80419002446E+02 0.  1.
          1    1    1    2  501    0 -0.21286261891E+02 -0.43617470428E+01 -0.87724112858E+03  0.87751018652E+03  0.00000000000E+00 0. -1.
         -2    1    1    2    0  502  0.19110401387E+02  0.41314974810E+02  0.40428000373E+03  0.40683467895E+03  0.00000000000E+00 0.  1.
<mgrwt>
<rscale>  2 0.77889430E+02</rscale>
<asrwt>0</asrwt>
<pdfrwt beam="1">  1       21 0.63156055E-01 0.77889430E+02</pdfrwt>
<pdfrwt beam="2">  1       21 0.19768510E+00 0.77889430E+02</pdfrwt>
<totfact> 0.40033303E+02</totfact>
</mgrwt>
</event>
<event>
 5    1  0.2051810E+000  0.7107384E+02  0.7546771E-02  0.1356479E+00
         21   -1    0    0  501  502  0.00000000000E+00  0.00000000000E+00  0.12606810366E+02  0.12606810366E+02  0.00000000000E+00 0. -1.
         21   -1    0    0  502  503 -0.00000000000E+00 -0.00000000000E+00 -0.40940972248E+03  0.40940972248E+03  0.00000000000E+00 0.  1.
         24    1    1    2    0    0 -0.17408526455E+02 -0.40959662217E+01 -0.20098155127E+03  0.21721103480E+03  0.80419002446E+02 0.  0.
          1    1    1    2  501    0  0.32062226912E+02 -0.15242377912E+02 -0.12497868622E+03  0.12992300985E+03  0.00000000000E+00 0. -1.
         -2    1    1    2    0  503 -0.14653700457E+02  0.19338344134E+02 -0.70842674616E+02  0.74882488191E+02  0.00000000000E+00 0.  1.
<mgrwt>
<rscale>  2 0.71073840E+02</rscale>
<asrwt>0</asrwt>
<pdfrwt beam="1">  1       21 0.19395091E-02 0.71073840E+02</pdfrwt>
<pdfrwt beam="2">  1       21 0.62986116E-01 0.71073840E+02</pdfrwt>
<totfact> 0.29269019E+06</totfact>
</mgrwt>
</event>
<event>
 5    1  0.2051810E+000  0.1130259E+03  0.7546771E-02  0.1255067E+00
         21   -1    0    0  501  502  0.00000000000E+00  0.00000000000E+00  0.13030387417E+03  0.13030387417E+03  0.00000000000E+00 0.  1.
         21   -1    0    0  502  503 -0.00000000000E+00 -0.00000000000E+00 -0.15276306719E+03  0.15276306719E+03  0.00000000000E+00 0. -1.
         24    1    1    2    0    0 -0.43643836418E+02 -0.65388086414E+02 -0.65098287586E+02  0.12994379286E+03  0.80419002446E+02 0. -1.
          1    1    1    2  501    0 -0.23795860759E+02  0.82053799502E+01  0.58140528262E+02  0.63355286094E+02  0.00000000000E+00 0. -1.
         -2    1    1    2    0  503  0.67439697177E+02  0.57182706464E+02 -0.15501433700E+02  0.89767862404E+02  0.00000000000E+00 0.  1.
<mgrwt>
<rscale>  2 0.11302586E+03</rscale>
<asrwt>0</asrwt>
<pdfrwt beam="1">  1       21 0.20046750E-01 0.11302586E+03</pdfrwt>
<pdfrwt beam="2">  1       21 0.23502010E-01 0.11302586E+03</pdfrwt>
<totfact> 0.39637089E+05</totfact>
</mgrwt>
</event>
<event>
 5    1  0.2051810E+000  0.1074767E+03  0.7546771E-02  0.1265315E+00
         21   -1    0    0  501  502  0.00000000000E+00  0.00000000000E+00  0.82061237722E+02  0.82061237722E+02  0.00000000000E+00 0.  1.
         21   -1    0    0  502  503 -0.00000000000E+00 -0.00000000000E+00 -0.18352383945E+03  0.18352383945E+03  0.00000000000E+00 0.  1.
         24    1    1    2    0    0  0.17648539712E+02 -0.71537312518E+02 -0.10200254137E+03  0.14933449848E+03  0.80419002446E+02 0.  1.
          1    1    1    2  501    0  0.24238439260E+02  0.15109348415E+01  0.21023242634E+02  0.32121045947E+02  0.00000000000E+00 0. -1.
         -2    1    1    2    0  503 -0.41886978972E+02  0.70026377676E+02 -0.20483302989E+02  0.84129532741E+02  0.00000000000E+00 0.  1.
<mgrwt>
<rscale>  2 0.10747670E+03</rscale>
<asrwt>0</asrwt>
<pdfrwt beam="1">  1       21 0.12624806E-01 0.10747670E+03</pdfrwt>
<pdfrwt beam="2">  1       21 0.28234437E-01 0.10747670E+03</pdfrwt>
<totfact> 0.64596625E+05</totfact>
</mgrwt>
</event>
<event>
 5    1  0.2051810E+000  0.7918487E+02  0.7546771E-02  0.1331381E+00
         21   -1    0    0  501  502  0.00000000000E+00  0.00000000000E+00  0.15461672439E+02  0.15461672439E+02  0.00000000000E+00 0.  1.
         21   -1    0    0  502  503 -0.00000000000E+00 -0.00000000000E+00 -0.57357809365E+03  0.57357809365E+03  0.00000000000E+00 0.  1.
         24    1    1    2    0    0 -0.32319098495E+02  0.38092022670E+02 -0.17661565968E+03  0.20038920509E+03  0.80419002446E+02 0.  1.
          1    1    1    2  501    0  0.22035163042E+02  0.21714641351E+01 -0.51698885879E+02  0.56240896756E+02  0.00000000000E+00 0. -1.
         -2    1    1    2    0  503  0.10283935453E+02 -0.40263486805E+02 -0.32980187566E+03  0.33240966425E+03  0.00000000000E+00 0.  1.
<mgrwt>
<rscale>  2 0.79184869E+02</rscale>
<asrwt>0</asrwt>
<pdfrwt beam="1">  1       21 0.23787183E-02 0.79184869E+02</pdfrwt>
<pdfrwt beam="2">  1       21 0.88242803E-01 0.79184869E+02</pdfrwt>
<totfact> 0.10204753E+06</totfact>
</mgrwt>
</event>
<event>
 5    1  0.2051810E+000  0.9432013E+02  0.7546771E-02  0.1292715E+00
         21   -1    0    0  503  502  0.00000000000E+00  0.00000000000E+00  0.20896314016E+03  0.20896314016E+03  0.00000000000E+00 0.  1.
         21   -1    0    0  501  503 -0.00000000000E+00 -0.00000000000E+00 -0.60966779062E+02  0.60966779062E+02  0.00000000000E+00 0. -1.
         24    1    1    2    0    0  0.28869700438E+02  0.16790033866E+02  0.59122220482E+02  0.10525216268E+03  0.80419002446E+02 0.  1.
          1    1    1    2  501    0  0.29839636308E+02 -0.28985046747E+02 -0.15427611172E+02  0.44368322217E+02  0.00000000000E+00 0. -1.
         -2    1    1    2    0  502 -0.58709336746E+02  0.12195012881E+02  0.10430175178E+03  0.12030943432E+03  0.00000000000E+00 0.  1.
<mgrwt>
<rscale>  2 0.94320132E+02</rscale>
<asrwt>0</asrwt>
<pdfrwt beam="1">  1       21 0.32148175E-01 0.94320132E+02</pdfrwt>
<pdfrwt beam="2">  1       21 0.93795046E-02 0.94320132E+02</pdfrwt>
<totfact> 0.84592675E+05</totfact>
</mgrwt>
</event>
<event>
 5    1  0.2051810E+000  0.7447523E+02  0.7546771E-02  0.1345504E+00
         21   -1    0    0  501  502  0.00000000000E+00  0.00000000000E+00  0.83382548184E+02  0.83382548184E+02  0.00000000000E+00 0. -1.
         21   -1    0    0  502  503 -0.00000000000E+00 -0.00000000000E+00 -0.77836269933E+02  0.77836269933E+02  0.00000000000E+00 0.  1.
         24    1    1    2    0    0 -0.10355558711E+02  0.20475000620E+02  0.10643089582E+02  0.84302755334E+02  0.80419002446E+02 0. -1.
          1    1    1    2  501    0 -0.21958360427E+02  0.68519771209E+01  0.17535870451E+02  0.28924486781E+02  0.00000000000E+00 0. -1.
         -2    1    1    2    0  503  0.32313919137E+02 -0.27326977741E+02 -0.22632681782E+02  0.47991576002E+02  0.00000000000E+00 0.  1.
<mgrwt>
<rscale>  2 0.74475232E+02</rscale>
<asrwt>0</asrwt>
<pdfrwt beam="1">  1       21 0.12828084E-01 0.74475232E+02</pdfrwt>
<pdfrwt beam="2">  1       21 0.11974811E-01 0.74475232E+02</pdfrwt>
<totfact> 0.29572016E+06</totfact>
</mgrwt>
</event>
<event>
 5    1  0.2051810E+000  0.7436798E+02  0.7546771E-02  0.1345839E+00
         21   -1    0    0  503  502  0.00000000000E+00  0.00000000000E+00  0.17255945852E+02  0.17255945852E+02  0.00000000000E+00 0. -1.
         21   -1    0    0  501  503 -0.00000000000E+00 -0.00000000000E+00 -0.76485108551E+03  0.76485108551E+03  0.00000000000E+00 0. -1.
         24    1    1    2    0    0 -0.48140801572E+02 -0.33779302766E+01 -0.13788385393E+03  0.16675766944E+03  0.80419002446E+02 0. -1.
          1    1    1    2  501    0  0.29327355788E+02 -0.10944815298E+02 -0.55327700365E+03  0.55416182252E+03  0.00000000000E+00 0. -1.
         -2    1    1    2    0  502  0.18813445784E+02  0.14322745574E+02 -0.56434282083E+02  0.61187539395E+02  0.00000000000E+00 0.  1.
<mgrwt>
<rscale>  2 0.74367979E+02</rscale>
<asrwt>0</asrwt>
<pdfrwt beam="1">  1       21 0.26547614E-02 0.74367979E+02</pdfrwt>
<pdfrwt beam="2">  1       21 0.11766938E+00 0.74367979E+02</pdfrwt>
<totfact> 0.44026552E+05</totfact>
</mgrwt>
</event>
<event>
 5    1  0.2051810E+000  0.1442244E+03  0.7546771E-02  0.1207755E+00
         21   -1    0    0  503  502  0.00000000000E+00  0.00000000000E+00  0.28851068429E+03  0.28851068429E+03  0.00000000000E+00 0.  1.
         21   -1    0    0  501  503 -0.00000000000E+00 -0.00000000000E+00 -0.28512297206E+03  0.28512297206E+03  0.00000000000E+00 0.  1.
         24    1    1    2    0    0  0.45414237340E+02 -0.99303439012E+02 -0.91498820969E+02  0.16359363113E+03  0.80419002446E+02 0.  1.
          1    1    1    2  501    0 -0.76935796374E+02  0.42555139058E+02 -0.14056879054E+03  0.16580000452E+03  0.00000000000E+00 0. -1.
         -2    1    1    2    0  502  0.31521559033E+02  0.56748299954E+02  0.23545532374E+03  0.24424002070E+03  0.00000000000E+00 0.  1.
<mgrwt>
<rscale>  2 0.14422437E+03</rscale>
<asrwt>0</asrwt>
<pdfrwt beam="1">  1       21 0.44386259E-01 0.14422437E+03</pdfrwt>
<pdfrwt beam="2">  1       21 0.43865073E-01 0.14422437E+03</pdfrwt>
<totfact> 0.25051454E+04</totfact>
</mgrwt>
</event>
<event>
 5    1  0.2051810E+000  0.6678142E+02  0.7546771E-02  0.1371393E+00
         21   -1    0    0  501  502  0.00000000000E+00  0.00000000000E+00  0.24441960822E+02  0.24441960822E+02  0.00000000000E+00 0.  1.
         21   -1    0    0  502  503 -0.00000000000E+00 -0.00000000000E+00 -0.33241425222E+03  0.33241425222E+03  0.00000000000E+00 0. -1.
         24    1    1    2    0    0 -0.33671731933E+01 -0.31055831739E+02 -0.29331859079E+03  0.30574305258E+03  0.80419002446E+02 0. -1.
          1    1    1    2  501    0 -0.16140465618E+02  0.13375335997E+02  0.40839878265E-01  0.20962249672E+02  0.00000000000E+00 0. -1.
         -2    1    1    2    0  503  0.19507638812E+02  0.17680495742E+02 -0.14694540486E+02  0.30150910796E+02  0.00000000000E+00 0.  1.
<mgrwt>
<rscale>  2 0.66781421E+02</rscale>
<asrwt>0</asrwt>
<pdfrwt beam="1">  1       21 0.37603020E-02 0.66781421E+02</pdfrwt>
<pdfrwt beam="2">  1       21 0.51140650E-01 0.66781421E+02</pdfrwt>
<totfact> 0.15482647E+06</totfact>
</mgrwt>
</event>
<event>
 5    1  0.2051810E+000  0.1457513E+03  0.7546771E-02  0.1205793E+00
         21   -1    0    0  501  502  0.00000000000E+00  0.00000000000E+00  0.39476937110E+02  0.39476937110E+02  0.00000000000E+00 0. -1.
         21   -1    0    0  502  503 -0.00000000000E+00 -0.00000000000E+00 -0.12631252796E+04  0.12631252796E+04  0.00000000000E+00 0.  1.
         24    1    1    2    0    0 -0.10896603761E+03 -0.28646730850E+02 -0.34177758334E+03  0.36874566434E+03  0.80419002446E+02 0. -1.
          1    1    1    2  501    0  0.61886342332E+02  0.67834361006E+02 -0.59959086798E+02  0.10966545486E+03  0.00000000000E+00 0. -1.
         -2    1    1    2    0  503  0.47079695280E+02 -0.39187630156E+02 -0.82191167235E+03  0.82419109751E+03  0.00000000000E+00 0.  1.
<mgrwt>
<rscale>  2 0.14575130E+03</rscale>
<asrwt>0</asrwt>
<pdfrwt beam="1">  1       21 0.60733746E-02 0.14575130E+03</pdfrwt>
<pdfrwt beam="2">  1       21 0.19432698E+00 0.14575130E+03</pdfrwt>
<totfact> 0.29235619E+04</totfact>
</mgrwt>
</event>
<event>
 5    1  0.2051810E+000  0.1090233E+03  0.7546771E-02  0.1262389E+00
         21   -1    0    0  501  502  0.00000000000E+00  0.00000000000E+00  0.75202542092E+02  0.75202542092E+02  0.00000000000E+00 0.  1.
         21   -1    0    0  502  503 -0.00000000000E+00 -0.00000000000E+00 -0.19158747189E+03  0.19158747189E+03  0.00000000000E+00 0. -1.
         24    1    1    2    0    0  0.75596940007E+02 -0.12946332956E+00 -0.11408174485E+03  0.15873491916E+03  0.80419002446E+02 0. -1.
          1    1    1    2  501    0 -0.28723218391E+02  0.37845006455E+02  0.33391943483E+01  0.47627912060E+02  0.00000000000E+00 0. -1.
         -2    1    1    2    0  503 -0.46873721616E+02 -0.37715543125E+02 -0.56423792889E+01  0.60427182752E+02  0.00000000000E+00 0.  1.
<mgrwt>
<rscale>  2 0.10902329E+03</rscale>
<asrwt>0</asrwt>
<pdfrwt beam="1">  1       21 0.11569622E-01 0.10902329E+03</pdfrwt>
<pdfrwt beam="2">  1       21 0.29474995E-01 0.10902329E+03</pdfrwt>
<totfact> 0.69409992E+05</totfact>
</mgrwt>
</event>
<event>
 5    1  0.2051810E+000  0.6303192E+02  0.7546771E-02  0.1385531E+00
         21   -1    0    0  501  502  0.00000000000E+00  0.00000000000E+00  0.18014583189E+02  0.18014583189E+02  0.00000000000E+00 0.  1.
         21   -1    0    0  502  503 -0.00000000000E+00 -0.00000000000E+00 -0.26290429228E+03  0.26290429228E+03  0.00000000000E+00 0. -1.
         24    1    1    2    0    0 -0.54366294277E+01  0.16894554097E+01 -0.15063845539E+03  0.17085541079E+03  0.80419002446E+02 0.  0.
          1    1    1    2  501    0  0.15561657303E+02  0.17700971052E+02 -0.15208659552E+02  0.28049828512E+02  0.00000000000E+00 0. -1.
         -2    1    1    2    0  503 -0.10125027875E+02 -0.19390426461E+02 -0.79042594150E+02  0.82013636170E+02  0.00000000000E+00 0.  1.
<mgrwt>
<rscale>  2 0.63031922E+02</rscale>
<asrwt>0</asrwt>
<pdfrwt beam="1">  1       21 0.27714743E-02 0.63031922E+02</pdfrwt>
<pdfrwt beam="2">  1       21 0.40446815E-01 0.63031922E+02</pdfrwt>
<totfact> 0.40348753E+06</totfact>
</mgrwt>
</event>
<event>
 5    1  0.2051810E+000  0.6925214E+02  0.7546771E-02  0.1362655E+00
         21   -1    0    0  503  502  0.00000000000E+00  0.00000000000E+00  0.66977400207E+03  0.66977400207E+03  0.00000000000E+00 0.  1.
         21   -1    0    0  501  503 -0.00000000000E+00 -0.00000000000E+00 -0.23627428804E+02  0.23627428804E+02  0.00000000000E+00 0. -1.
         24    1    1    2    0    0 -0.10662805361E+02  0.15562430931E+02  0.38449763930E+03  0.39327030813E+03  0.80419002446E+02 0.  1.
          1    1    1    2  501    0  0.15851043192E+02  0.16816922032E+02 -0.10945855311E+02  0.25571002823E+02  0.00000000000E+00 0. -1.
         -2    1    1    2    0  502 -0.51882378308E+01 -0.32379352962E+02  0.27259478927E+03  0.27456011992E+03  0.00000000000E+00 0.  1.
<mgrwt>
<rscale>  2 0.69252139E+02</rscale>
<asrwt>0</asrwt>
<pdfrwt beam="1">  1       21 0.10304214E+00 0.69252139E+02</pdfrwt>
<pdfrwt beam="2">  1       21 0.36349896E-02 0.69252139E+02</pdfrwt>
<totfact> 0.36145401E+05</totfact>
</mgrwt>
</event>
<event>
 5    1  0.2051810E+000  0.1164968E+03  0.7546771E-02  0.1248991E+00
         21   -1    0    0  501  502  0.00000000000E+00  0.00000000000E+00  0.54104976106E+02  0.54104976106E+02  0.00000000000E+00 0. -1.
         21   -1    0    0  502  503 -0.00000000000E+00 -0.00000000000E+00 -0.35460268014E+03  0.35460268014E+03  0.00000000000E+00 0. -1.
         24    1    1    2    0    0  0.81378234555E+02  0.58645852361E+02 -0.15912681181E+03  0.20457348618E+03  0.80419002446E+02 0. -1.
          1    1    1    2  501    0 -0.11861591359E+02 -0.23968264467E+02  0.14175183161E+02  0.30267323449E+02  0.00000000000E+00 0. -1.
         -2    1    1    2    0  503 -0.69516643196E+02 -0.34677587894E+02 -0.15554607539E+03  0.17386684662E+03  0.00000000000E+00 0.  1.
<mgrwt>
<rscale>  2 0.11649685E+03</rscale>
<asrwt>0</asrwt>
<pdfrwt beam="1">  1       21 0.83238422E-02 0.11649685E+03</pdfrwt>
<pdfrwt beam="2">  1       21 0.54554260E-01 0.11649685E+03</pdfrwt>
<totfact> 0.36040753E+05</totfact>
</mgrwt>
</event>
<event>
 5    1  0.2051810E+000  0.9552805E+02  0.7546771E-02  0.1289991E+00
         21   -1    0    0  503  502  0.00000000000E+00  0.00000000000E+00  0.11749140631E+04  0.11749140631E+04  0.00000000000E+00 0.  1.
         21   -1    0    0  501  503 -0.00000000000E+00 -0.00000000000E+00 -0.95982311497E+01  0.95982311497E+01  0.00000000000E+00 0.  1.
         24    1    1    2    0    0 -0.30578703710E+02  0.71755209135E+02  0.74358675778E+03  0.75197895546E+03  0.80419002446E+02 0.  1.
          1    1    1    2  501    0  0.15151014337E+02 -0.20457581754E+02  0.42510457875E+02  0.49550024373E+02  0.00000000000E+00 0. -1.
         -2    1    1    2    0  502  0.15427689374E+02 -0.51297627380E+02  0.37921861629E+03  0.38298331440E+03  0.00000000000E+00 0.  1.
<mgrwt>
<rscale>  2 0.95528049E+02</rscale>
<asrwt>0</asrwt>
<pdfrwt beam="1">  1       21 0.18075590E+00 0.95528049E+02</pdfrwt>
<pdfrwt beam="2">  1       21 0.14766519E-02 0.95528049E+02</pdfrwt>
<totfact> 0.37607046E+05</totfact>
</mgrwt>
</event>
<event>
 5    1  0.2051810E+000  0.7298126E+02  0.7546771E-02  0.1350239E+00
         21   -1    0    0  503  502  0.00000000000E+00  0.00000000000E+00  0.21511740082E+02  0.21511740082E+02  0.00000000000E+00 0.  1.
         21   -1    0    0  501  503 -0.00000000000E+00 -0.00000000000E+00 -0.73181972978E+03  0.73181972978E+03  0.00000000000E+00 0.  1.
         24    1    1    2    0    0 -0.22410877368E+02  0.23480029037E+02 -0.50709046060E+03  0.51445263181E+03  0.80419002446E+02 0.  1.
          1    1    1    2  501    0  0.77079021825E+01 -0.37882294159E+02 -0.21272372822E+03  0.21620791964E+03  0.00000000000E+00 0. -1.
         -2    1    1    2    0  502  0.14702975185E+02  0.14402265122E+02  0.95061991230E+01  0.22670918414E+02  0.00000000000E+00 0.  1.
<mgrwt>
<rscale>  2 0.72981259E+02</rscale>
<asrwt>0</asrwt>
<pdfrwt beam="1">  1       21 0.33094987E-02 0.72981259E+02</pdfrwt>
<pdfrwt beam="2">  1       21 0.11258764E+00 0.72981259E+02</pdfrwt>
<totfact> 0.34222573E+05</totfact>
</mgrwt>
</event>
<event>
 5    1  0.2051810E+000  0.8901073E+02  0.7546771E-02  0.1305265E+00
         21   -1    0    0  501  502  0.00000000000E+00  0.00000000000E+00  0.23847155772E+02  0.23847155772E+02  0.00000000000E+00 0. -1.
         21   -1    0    0  502  503 -0.00000000000E+00 -0.00000000000E+00 -0.45231904954E+03  0.45231904954E+03  0.00000000000E+00 0. -1.
         24    1    1    2    0    0 -0.96747677270E+01  0.43421244822E+02 -0.32423427695E+03  0.33700754878E+03  0.80419002446E+02 0. -1.
          1    1    1    2  501    0  0.32507370365E+02 -0.52333483394E+02 -0.48968137282E+02  0.78698164407E+02  0.00000000000E+00 0. -1.
         -2    1    1    2    0  503 -0.22832602638E+02  0.89122385714E+01 -0.55269479537E+02  0.60460492124E+02  0.00000000000E+00 0.  1.
<mgrwt>
<rscale>  2 0.89010730E+02</rscale>
<asrwt>0</asrwt>
<pdfrwt beam="1">  1       21 0.36687933E-02 0.89010730E+02</pdfrwt>
<pdfrwt beam="2">  1       21 0.69587544E-01 0.89010730E+02</pdfrwt>
<totfact> 0.85279962E+05</totfact>
</mgrwt>
</event>
<event>
 5    1  0.2051810E+000  0.1438106E+03  0.7546771E-02  0.1208292E+00
         21   -1    0    0  501  502  0.00000000000E+00  0.00000000000E+00  0.65308722520E+03  0.65308722520E+03  0.00000000000E+00 0. -1.
         21   -1    0    0  502  503 -0.00000000000E+00 -0.00000000000E+00 -0.18684301677E+03  0.18684301677E+03  0.00000000000E+00 0.  1.
         24    1    1    2    0    0 -0.97174599939E+02 -0.55798655839E+02  0.14732895160E+03  0.20181533341E+03  0.80419002446E+02 0. -1.
          1    1    1    2  501    0  0.99608902395E+02  0.59494271908E+01  0.46923428302E+03  0.47972715316E+03  0.00000000000E+00 0. -1.
         -2    1    1    2    0  503 -0.24343024566E+01  0.49849228648E+02 -0.15031902618E+03  0.15838775539E+03  0.00000000000E+00 0.  1.
<mgrwt>
<rscale>  2 0.14381057E+03</rscale>
<asrwt>0</asrwt>
<pdfrwt beam="1">  1       21 0.10047496E+00 0.14381057E+03</pdfrwt>
<pdfrwt beam="2">  1       21 0.28745080E-01 0.14381057E+03</pdfrwt>
<totfact> 0.97582367E+03</totfact>
</mgrwt>
</event>
<event>
 5    1  0.2051810E+000  0.9330903E+02  0.7546771E-02  0.1295031E+00
         21   -1    0    0  503  502  0.00000000000E+00  0.00000000000E+00  0.11428843718E+04  0.11428843718E+04  0.00000000000E+00 0. -1.
         21   -1    0    0  501  503 -0.00000000000E+00 -0.00000000000E+00 -0.11164893225E+02  0.11164893225E+02  0.00000000000E+00 0. -1.
         24    1    1    2    0    0  0.54722052339E+02 -0.52467369102E+02  0.91620239525E+03  0.92284417582E+03  0.80419002446E+02 0. -1.
          1    1    1    2  501    0 -0.30929806551E+02  0.34129792536E+02  0.79217656948E+02  0.91634779664E+02  0.00000000000E+00 0. -1.
         -2    1    1    2    0  502 -0.23792245788E+02  0.18337576566E+02  0.13629942637E+03  0.13957030953E+03  0.00000000000E+00 0.  1.
<mgrwt>
<rscale>  2 0.93309030E+02</rscale>
<asrwt>0</asrwt>
<pdfrwt beam="1">  1       21 0.17582827E+00 0.93309030E+02</pdfrwt>
<pdfrwt beam="2">  1       21 0.17176768E-02 0.93309030E+02</pdfrwt>
<totfact> 0.31914988E+05</totfact>
</mgrwt>
</event>
<event>
 5    1  0.2051810E+000  0.6796827E+02  0.7546771E-02  0.1367142E+00
         21   -1    0    0  501  502  0.00000000000E+00  0.00000000000E+00  0.18260888285E+02  0.18260888285E+02  0.00000000000E+00 0. -1.
         21   -1    0    0  502  503 -0.00000000000E+00 -0.00000000000E+00 -0.70876233522E+03  0.70876233522E+03  0.00000000000E+00 0. -1.
         24    1    1    2    0    0  0.12733179938E+02  0.29569458865E+02 -0.62921088220E+03  0.63514568171E+03  0.80419002446E+02 0. -1.
          1    1    1    2  501    0 -0.21663296017E+02 -0.37409747079E+01  0.28401793499E+01  0.22166639457E+02  0.00000000000E+00 0. -1.
         -2    1    1    2    0  503  0.89301160793E+01 -0.25828484157E+02 -0.64130744094E+02  0.69710902340E+02  0.00000000000E+00 0.  1.
<mgrwt>
<rscale>  2 0.67968271E+02</rscale>
<asrwt>0</asrwt>
<pdfrwt beam="1">  1       21 0.28093676E-02 0.67968271E+02</pdfrwt>
<pdfrwt beam="2">  1       21 0.10904035E+00 0.67968271E+02</pdfrwt>
<totfact> 0.48100096E+05</totfact>
</mgrwt>
</event>
<event>
 5    1  0.2051810E+000  0.7538624E+02  0.7546771E-02  0.1342679E+00
         21   -1    0    0  503  502  0.00000000000E+00  0.00000000000E+00  0.25122795132E+03  0.25122795132E+03  0.00000000000E+00 0. -1.
         21   -1    0    0  501  503 -0.00000000000E+00 -0.00000000000E+00 -0.98041227130E+02  0.98041227130E+02  0.00000000000E+00 0. -1.
         24    1    1    2    0    0 -0.32063682215E+01 -0.32306034052E+02  0.14742918328E+03  0.17104543452E+03  0.80419002446E+02 0. -1.
          1    1    1    2  501    0  0.27594929131E+02  0.27942966633E+02 -0.79913616938E+02  0.89041988242E+02  0.00000000000E+00 0. -1.
         -2    1    1    2    0  502 -0.24388560910E+02  0.43630674190E+01  0.85671157839E+02  0.89181755679E+02  0.00000000000E+00 0.  1.
<mgrwt>
<rscale>  2 0.75386235E+02</rscale>
<asrwt>0</asrwt>
<pdfrwt beam="1">  1       21 0.38650454E-01 0.75386235E+02</pdfrwt>
<pdfrwt beam="2">  1       21 0.15083266E-01 0.75386235E+02</pdfrwt>
<totfact> 0.25752821E+05</totfact>
</mgrwt>
</event>
<event>
 5    1  0.2051810E+000  0.7369841E+02  0.7546771E-02  0.1347950E+00
         21   -1    0    0  503  502  0.00000000000E+00  0.00000000000E+00  0.35846367206E+02  0.35846367206E+02  0.00000000000E+00 0.  1.
         21   -1    0    0  501  503 -0.00000000000E+00 -0.00000000000E+00 -0.27969923624E+03  0.27969923624E+03  0.00000000000E+00 0.  1.
         24    1    1    2    0    0 -0.97674608434E+01  0.26725182502E+01 -0.21926746101E+03  0.23376907635E+03  0.80419002446E+02 0.  1.
          1    1    1    2  501    0 -0.25184733900E+02  0.12645618669E+02 -0.32276129874E+02  0.42847766019E+02  0.00000000000E+00 0. -1.
         -2    1    1    2    0  502  0.34952194744E+02 -0.15318136919E+02  0.76907218551E+01  0.38928761073E+02  0.00000000000E+00 0.  1.
<mgrwt>
<rscale>  2 0.73698412E+02</rscale>
<asrwt>0</asrwt>
<pdfrwt beam="1">  1       21 0.55148258E-02 0.73698412E+02</pdfrwt>
<pdfrwt beam="2">  1       21 0.43030651E-01 0.73698412E+02</pdfrwt>
<totfact> 0.11701808E+06</totfact>
</mgrwt>
</event>
<event>
 5    1  0.2051810E+000  0.1442727E+03  0.7546771E-02  0.1207693E+00
         21   -1    0    0  501  502  0.00000000000E+00  0.00000000000E+00  0.11487033834E+03  0.11487033834E+03  0.00000000000E+00 0.  1.
         21   -1    0    0  502  503 -0.00000000000E+00 -0.00000000000E+00 -0.25139355376E+03  0.25139355376E+03  0.00000000000E+00 0. -1.
         24    1    1    2    0    0  0.64796727273E+02 -0.57489994929E+02 -0.92686029569E+02  0.15020529756E+03  0.80419002446E+02 0.  1.
          1    1    1    2  501    0 -0.92986532778E+02  0.88548377576E+02  0.29340534500E+02  0.13171248010E+03  0.00000000000E+00 0. -1.
         -2    1    1    2    0  503  0.28189805505E+02 -0.31058382647E+02 -0.73177720346E+02  0.84346114446E+02  0.00000000000E+00 0.  1.
<mgrwt>
<rscale>  2 0.14427274E+03</rscale>
<asrwt>0</asrwt>
<pdfrwt beam="1">  1       21 0.17672360E-01 0.14427274E+03</pdfrwt>
<pdfrwt beam="2">  1       21 0.38675931E-01 0.14427274E+03</pdfrwt>
<totfact> 0.18984590E+05</totfact>
</mgrwt>
</event>
<event>
 5    1  0.2051810E+000  0.8386837E+02  0.7546771E-02  0.1318419E+00
         21   -1    0    0  503  502  0.00000000000E+00  0.00000000000E+00  0.86925904412E+02  0.86925904412E+02  0.00000000000E+00 0. -1.
         21   -1    0    0  501  503 -0.00000000000E+00 -0.00000000000E+00 -0.19465910385E+03  0.19465910385E+03  0.00000000000E+00 0. -1.
         24    1    1    2    0    0  0.62725708591E+01  0.43148657579E+02  0.22925618947E+02  0.94307750236E+02  0.80419002446E+02 0. -1.
          1    1    1    2  501    0 -0.34569609142E+02 -0.24402007423E+02 -0.14453893719E+03  0.15060551188E+03  0.00000000000E+00 0. -1.
         -2    1    1    2    0  502  0.28297038283E+02 -0.18746650156E+02  0.13880118807E+02  0.36671746151E+02  0.00000000000E+00 0.  1.
<mgrwt>
<rscale>  2 0.83868371E+02</rscale>
<asrwt>0</asrwt>
<pdfrwt beam="1">  1       21 0.13373216E-01 0.83868371E+02</pdfrwt>
<pdfrwt beam="2">  1       21 0.29947555E-01 0.83868371E+02</pdfrwt>
<totfact> 0.52118082E+05</totfact>
</mgrwt>
</event>
<event>
 5    1  0.2051810E+000  0.7066040E+02  0.7546771E-02  0.1357862E+00
         21   -1    0    0  501  502  0.00000000000E+00  0.00000000000E+00  0.29347824352E+02  0.29347824352E+02  0.00000000000E+00 0.  1.
         21   -1    0    0  502  503 -0.00000000000E+00 -0.00000000000E+00 -0.23517730878E+03  0.23517730878E+03  0.00000000000E+00 0. -1.
         24    1    1    2    0    0  0.25315717570E+00  0.23238059797E+02 -0.61492638004E+02  0.10386833971E+03  0.80419002446E+02 0.  0.
          1    1    1    2  501    0 -0.25258222337E+02 -0.29869118881E+01 -0.20381046756E+02  0.32592737000E+02  0.00000000000E+00 0. -1.
         -2    1    1    2    0  503  0.25005065162E+02 -0.20251147909E+02 -0.12395579967E+03  0.12806405642E+03  0.00000000000E+00 0.  1.
<mgrwt>
<rscale>  2 0.70660403E+02</rscale>
<asrwt>0</asrwt>
<pdfrwt beam="1">  1       21 0.45150498E-02 0.70660403E+02</pdfrwt>
<pdfrwt beam="2">  1       21 0.36181126E-01 0.70660403E+02</pdfrwt>
<totfact> 0.22850507E+06</totfact>
</mgrwt>
</event>
<event>
 5    1  0.2051810E+000  0.2396993E+03  0.7546771E-02  0.1119993E+00
         21   -1    0    0  501  502  0.00000000000E+00  0.00000000000E+00  0.17516317630E+04  0.17516317630E+04  0.00000000000E+00 0.  1.
         21   -1    0    0  502  503 -0.00000000000E+00 -0.00000000000E+00 -0.64858163428E+02  0.64858163428E+02  0.00000000000E+00 0.  1.
         24    1    1    2    0    0  0.17732313319E+02 -0.15069346361E+03  0.74841173128E+03  0.76786085353E+03  0.80419002446E+02 0.  1.
          1    1    1    2  501    0 -0.91363999313E+02 -0.42615663643E+02  0.78417748026E+03  0.79063126406E+03  0.00000000000E+00 0. -1.
         -2    1    1    2    0  503  0.73631685994E+02  0.19330912725E+03  0.15418438807E+03  0.25799780888E+03  0.00000000000E+00 0.  1.
<mgrwt>
<rscale>  2 0.23969932E+03</rscale>
<asrwt>0</asrwt>
<pdfrwt beam="1">  1       21 0.26948177E+00 0.23969932E+03</pdfrwt>
<pdfrwt beam="2">  1       21 0.99781804E-02 0.23969932E+03</pdfrwt>
<totfact> 0.39761371E+03</totfact>
</mgrwt>
</event>
<event>
 5    1  0.2051810E+000  0.8735038E+02  0.7546771E-02  0.1309398E+00
         21   -1    0    0  501  502  0.00000000000E+00  0.00000000000E+00  0.10027305672E+02  0.10027305672E+02  0.00000000000E+00 0.  1.
         21   -1    0    0  502  503 -0.00000000000E+00 -0.00000000000E+00 -0.11778191049E+04  0.11778191049E+04  0.00000000000E+00 0. -1.
         24    1    1    2    0    0 -0.24339190813E+01  0.52209332764E+02 -0.39623160763E+03  0.40767443044E+03  0.80419002446E+02 0. -1.
          1    1    1    2  501    0 -0.23760053419E+02 -0.42413317720E+01 -0.41046385623E+02  0.47616539210E+02  0.00000000000E+00 0. -1.
         -2    1    1    2    0  503  0.26193972500E+02 -0.47968000992E+02 -0.73051380599E+03  0.73255544095E+03  0.00000000000E+00 0.  1.
<mgrwt>
<rscale>  2 0.87350380E+02</rscale>
<asrwt>0</asrwt>
<pdfrwt beam="1">  1       21 0.15426625E-02 0.87350380E+02</pdfrwt>
<pdfrwt beam="2">  1       21 0.18120293E+00 0.87350380E+02</pdfrwt>
<totfact> 0.34994371E+05</totfact>
</mgrwt>
</event>
<event>
 5    1  0.2051810E+000  0.1223511E+03  0.7546771E-02  0.1239268E+00
         21   -1    0    0  501  502  0.00000000000E+00  0.00000000000E+00  0.19524669549E+03  0.19524669549E+03  0.00000000000E+00 0.  1.
         21   -1    0    0  502  503 -0.00000000000E+00 -0.00000000000E+00 -0.13154245885E+03  0.13154245885E+03  0.00000000000E+00 0.  1.
         24    1    1    2    0    0  0.87804833942E+02  0.24617807809E+02 -0.22838394271E+02  0.12371149313E+03  0.80419002446E+02 0.  1.
          1    1    1    2  501    0  0.90608603913E+01 -0.24638093595E+02  0.10169981417E+03  0.10503326640E+03  0.00000000000E+00 0. -1.
         -2    1    1    2    0  503 -0.96865694334E+02  0.20285786822E-01 -0.15157183270E+02  0.98044394816E+02  0.00000000000E+00 0.  1.
<mgrwt>
<rscale>  2 0.12235110E+03</rscale>
<asrwt>0</asrwt>
<pdfrwt beam="1">  1       21 0.30037953E-01 0.12235110E+03</pdfrwt>
<pdfrwt beam="2">  1       21 0.20237301E-01 0.12235110E+03</pdfrwt>
<totfact> 0.24408736E+05</totfact>
</mgrwt>
</event>
<event>
 5    1  0.2051810E+000  0.1330337E+03  0.7546771E-02  0.1223022E+00
         21   -1    0    0  503  502  0.00000000000E+00  0.00000000000E+00  0.36166056497E+03  0.36166056497E+03  0.00000000000E+00 0.  1.
         21   -1    0    0  501  503 -0.00000000000E+00 -0.00000000000E+00 -0.12202419634E+03  0.12202419634E+03  0.00000000000E+00 0. -1.
         24    1    1    2    0    0 -0.31426643590E+02  0.11483254481E+03  0.62023772500E+02  0.15648741670E+03  0.80419002446E+02 0. -1.
          1    1    1    2  501    0  0.33034652478E+02 -0.68638184762E+02 -0.52483783933E+02  0.92504249891E+02  0.00000000000E+00 0. -1.
         -2    1    1    2    0  502 -0.16080088883E+01 -0.46194360047E+02  0.23009638006E+03  0.23469309472E+03  0.00000000000E+00 0.  1.
<mgrwt>
<rscale>  2 0.13303372E+03</rscale>
<asrwt>0</asrwt>
<pdfrwt beam="1">  1       21 0.55640086E-01 0.13303372E+03</pdfrwt>
<pdfrwt beam="2">  1       21 0.18772953E-01 0.13303372E+03</pdfrwt>
<totfact> 0.81069440E+04</totfact>
</mgrwt>
</event>
<event>
 5    1  0.2051810E+000  0.1004292E+03  0.7546771E-02  0.1279396E+00
         21   -1    0    0  501  502  0.00000000000E+00  0.00000000000E+00  0.14092263386E+03  0.14092263386E+03  0.00000000000E+00 0. -1.
         21   -1    0    0  502  503 -0.00000000000E+00 -0.00000000000E+00 -0.36447557826E+03  0.36447557826E+03  0.00000000000E+00 0.  1.
         24    1    1    2    0    0  0.24714040648E+02 -0.80515340982E+02 -0.31628604304E+03  0.33704240225E+03  0.80419002446E+02 0.  1.
          1    1    1    2  501    0 -0.15506628789E+02  0.59028798451E+02  0.11866676800E+03  0.13344158426E+03  0.00000000000E+00 0. -1.
         -2    1    1    2    0  503 -0.92074118596E+01  0.21486542532E+02 -0.25933669362E+02  0.34914225606E+02  0.00000000000E+00 0.  1.
<mgrwt>
<rscale>  2 0.10042916E+03</rscale>
<asrwt>0</asrwt>
<pdfrwt beam="1">  1       21 0.21680405E-01 0.10042916E+03</pdfrwt>
<pdfrwt beam="2">  1       21 0.56073166E-01 0.10042916E+03</pdfrwt>
<totfact> 0.62214050E+04</totfact>
</mgrwt>
</event>
<event>
 5    1  0.2051810E+000  0.1058939E+03  0.7546771E-02  0.1268368E+00
         21   -1    0    0  503  502  0.00000000000E+00  0.00000000000E+00  0.59538155550E+02  0.59538155550E+02  0.00000000000E+00 0. -1.
         21   -1    0    0  501  503 -0.00000000000E+00 -0.00000000000E+00 -0.30194463237E+03  0.30194463237E+03  0.00000000000E+00 0. -1.
         24    1    1    2    0    0  0.82008835523E+02  0.26980205332E+02 -0.90887774155E+02  0.14893348861E+03  0.80419002446E+02 0. -1.
          1    1    1    2  501    0 -0.65468470997E+02 -0.41363619784E+01 -0.16767208767E+03  0.18004765805E+03  0.00000000000E+00 0. -1.
         -2    1    1    2    0  502 -0.16540364526E+02 -0.22843843353E+02  0.16153385004E+02  0.32501641264E+02  0.00000000000E+00 0.  1.
<mgrwt>
<rscale>  2 0.10589393E+03</rscale>
<asrwt>0</asrwt>
<pdfrwt beam="1">  1       21 0.91597162E-02 0.10589393E+03</pdfrwt>
<pdfrwt beam="2">  1       21 0.46453020E-01 0.10589393E+03</pdfrwt>
<totfact> 0.42580858E+05</totfact>
</mgrwt>
</event>
<event>
 5    1  0.2051810E+000  0.1294298E+03  0.7546771E-02  0.1228304E+00
         21   -1    0    0  501  502  0.00000000000E+00  0.00000000000E+00  0.60108923214E+02  0.60108923214E+02  0.00000000000E+00 0. -1.
         21   -1    0    0  502  503 -0.00000000000E+00 -0.00000000000E+00 -0.48177612359E+03  0.48177612359E+03  0.00000000000E+00 0.  1.
         24    1    1    2    0    0  0.54946878688E+02  0.87572316384E+01 -0.14949133924E+03  0.17863573284E+03  0.80419002446E+02 0.  0.
          1    1    1    2  501    0 -0.10788831957E+03 -0.56414916173E+01 -0.25590044574E+02  0.11102507063E+03  0.00000000000E+00 0. -1.
         -2    1    1    2    0  503  0.52941440881E+02 -0.31157400211E+01 -0.24658581656E+03  0.25222424334E+03  0.00000000000E+00 0.  1.
<mgrwt>
<rscale>  2 0.12942984E+03</rscale>
<asrwt>0</asrwt>
<pdfrwt beam="1">  1       21 0.92475269E-02 0.12942984E+03</pdfrwt>
<pdfrwt beam="2">  1       21 0.74119402E-01 0.12942984E+03</pdfrwt>
<totfact> 0.15527580E+05</totfact>
</mgrwt>
</event>
<event>
 5    1  0.2051810E+000  0.1269817E+03  0.7546771E-02  0.1232004E+00
         21   -1    0    0  501  502  0.00000000000E+00  0.00000000000E+00  0.32829814187E+03  0.32829814187E+03  0.00000000000E+00 0.  1.
         21   -1    0    0  502  503 -0.00000000000E+00 -0.00000000000E+00 -0.71028682384E+02  0.71028682384E+02  0.00000000000E+00 0.  1.
         24    1    1    2    0    0 -0.10420089894E+03  0.22019197134E+02  0.24307042862E+03  0.27729609014E+03  0.80419002446E+02 0.  1.
          1    1    1    2  501    0  0.14043462935E+02  0.17188358701E+02  0.77335603639E+01  0.23504605547E+02  0.00000000000E+00 0. -1.
         -2    1    1    2    0  503  0.90157436005E+02 -0.39207555835E+02  0.64654705003E+01  0.98526128566E+02  0.00000000000E+00 0.  1.
<mgrwt>
<rscale>  2 0.12698168E+03</rscale>
<asrwt>0</asrwt>
<pdfrwt beam="1">  1       21 0.50507405E-01 0.12698168E+03</pdfrwt>
<pdfrwt beam="2">  1       21 0.10927490E-01 0.12698168E+03</pdfrwt>
<totfact> 0.26276950E+05</totfact>
</mgrwt>
</event>
<event>
 5    1  0.2051810E+000  0.8828429E+02  0.7546771E-02  0.1307061E+00
         21   -1    0    0  503  502  0.00000000000E+00  0.00000000000E+00  0.11251225627E+03  0.11251225627E+03  0.00000000000E+00 0. -1.
         21   -1    0    0  501  503 -0.00000000000E+00 -0.00000000000E+00 -0.24135658128E+03  0.24135658128E+03  0.00000000000E+00 0. -1.
         24    1    1    2    0    0  0.26562923349E+02 -0.58449321321E+02  0.58372652097E+02  0.11830678141E+03  0.80419002446E+02 0. -1.
          1    1    1    2  501    0 -0.57198959393E+01  0.51318090081E+02 -0.20235092125E+03  0.20883524346E+03  0.00000000000E+00 0. -1.
         -2    1    1    2    0  502 -0.20843027410E+02  0.71312312390E+01  0.15133944154E+02  0.26726812684E+02  0.00000000000E+00 0.  1.
<mgrwt>
<rscale>  2 0.88284289E+02</rscale>
<asrwt>0</asrwt>
<pdfrwt beam="1">  1       21 0.17309578E-01 0.88284289E+02</pdfrwt>
<pdfrwt beam="2">  1       21 0.37131781E-01 0.88284289E+02</pdfrwt>
<totfact> 0.21698801E+05</totfact>
</mgrwt>
</event>
<event>
 5    1  0.2051810E+000  0.1273778E+03  0.7546771E-02  0.1231399E+00
         21   -1    0    0  503  502  0.00000000000E+00  0.00000000000E+00  0.35033361335E+02  0.35033361335E+02  0.00000000000E+00 0. -1.
         21   -1    0    0  501  503 -0.00000000000E+00 -0.00000000000E+00 -0.50650789988E+03  0.50650789988E+03  0.00000000000E+00 0.  1.
         24    1    1    2    0    0  0.61169305972E+02 -0.58097116873E+01 -0.18729194797E+03  0.21288712143E+03  0.80419002446E+02 0. -1.
          1    1    1    2  501    0  0.10538584360E+01  0.66571572597E+02 -0.18565960935E+03  0.19723685112E+03  0.00000000000E+00 0. -1.
         -2    1    1    2    0  502 -0.62223164408E+02 -0.60761860910E+02 -0.98522981229E+02  0.13141728867E+03  0.00000000000E+00 0.  1.
<mgrwt>
<rscale>  2 0.12737779E+03</rscale>
<asrwt>0</asrwt>
<pdfrwt beam="1">  1       21 0.53897486E-02 0.12737779E+03</pdfrwt>
<pdfrwt beam="2">  1       21 0.77924282E-01 0.12737779E+03</pdfrwt>
<totfact> 0.35039105E+05</totfact>
</mgrwt>
</event>
<event>
 5    1  0.2051810E+000  0.8894674E+02  0.7546771E-02  0.1305423E+00
         21   -1    0    0  501  502  0.00000000000E+00  0.00000000000E+00  0.92026987100E+03  0.92026987100E+03  0.00000000000E+00 0.  1.
         21   -1    0    0  502  503 -0.00000000000E+00 -0.00000000000E+00 -0.11936476727E+02  0.11936476727E+02  0.00000000000E+00 0.  1.
         24    1    1    2    0    0  0.68006028205E+02  0.85896984907E+01  0.67038384947E+03  0.67866068427E+03  0.80419002446E+02 0.  1.
          1    1    1    2  501    0 -0.39416880063E+02 -0.16237952932E+02  0.20444490964E+03  0.20884224340E+03  0.00000000000E+00 0. -1.
         -2    1    1    2    0  503 -0.28589148142E+02  0.76482544412E+01  0.33504635161E+02  0.44703420057E+02  0.00000000000E+00 0.  1.
<mgrwt>
<rscale>  2 0.88946737E+02</rscale>
<asrwt>0</asrwt>
<pdfrwt beam="1">  1       21 0.14157992E+00 0.88946737E+02</pdfrwt>
<pdfrwt beam="2">  1       21 0.18363818E-02 0.88946737E+02</pdfrwt>
<totfact> 0.50429148E+05</totfact>
</mgrwt>
</event>
<event>
 5    1  0.2051810E+000  0.8501994E+02  0.7546771E-02  0.1315380E+00
         21   -1    0    0  503  502  0.00000000000E+00  0.00000000000E+00  0.17704013668E+03  0.17704013668E+03  0.00000000000E+00 0. -1.
         21   -1    0    0  501  503 -0.00000000000E+00 -0.00000000000E+00 -0.57941869061E+02  0.57941869061E+02  0.00000000000E+00 0. -1.
         24    1    1    2    0    0  0.24684441075E+02 -0.60692004070E+02  0.87057833618E+02  0.13542201940E+03  0.80419002446E+02 0. -1.
          1    1    1    2  501    0 -0.16927715451E+02  0.28082553914E+02 -0.19447025925E+02  0.38123014074E+02  0.00000000000E+00 0. -1.
         -2    1    1    2    0  502 -0.77567256237E+01  0.32609450156E+02  0.51487459924E+02  0.61436972267E+02  0.00000000000E+00 0.  1.
<mgrwt>
<rscale>  2 0.85019943E+02</rscale>
<asrwt>0</asrwt>
<pdfrwt beam="1">  1       21 0.27236944E-01 0.85019943E+02</pdfrwt>
<pdfrwt beam="2">  1       21 0.89141338E-02 0.85019943E+02</pdfrwt>
<totfact> 0.12639580E+06</totfact>
</mgrwt>
</event>
<event>
 5    1  0.2051810E+000  0.7442450E+02  0.7546771E-02  0.1345662E+00
         21   -1    0    0  503  502  0.00000000000E+00  0.00000000000E+00  0.11932166495E+02  0.11932166495E+02  0.00000000000E+00 0.  1.
         21   -1    0    0  501  503 -0.00000000000E+00 -0.00000000000E+00 -0.11700535231E+04  0.11700535231E+04  0.00000000000E+00 0. -1.
         24    1    1    2    0    0  0.47244262365E+02  0.19544051570E+02 -0.95590020297E+03  0.96063853986E+03  0.80419002446E+02 0. -1.
          1    1    1    2  501    0 -0.14799040548E+02 -0.14500095071E+02 -0.18115378535E+03  0.18233474245E+03  0.00000000000E+00 0. -1.
         -2    1    1    2    0  502 -0.32445221817E+02 -0.50439564990E+01 -0.21067368300E+02  0.39012407295E+02  0.00000000000E+00 0.  1.
<mgrwt>
<rscale>  2 0.74424504E+02</rscale>
<asrwt>0</asrwt>
<pdfrwt beam="1">  1       21 0.18357178E-02 0.74424504E+02</pdfrwt>
<pdfrwt beam="2">  1       21 0.18000824E+00 0.74424504E+02</pdfrwt>
<totfact> 0.27239012E+05</totfact>
</mgrwt>
</event>
<event>
 5    1  0.2051810E+000  0.1956496E+03  0.7546771E-02  0.1153462E+00
         21   -1    0    0  501  502  0.00000000000E+00  0.00000000000E+00  0.60565571909E+02  0.60565571909E+02  0.00000000000E+00 0. -1.
         21   -1    0    0  502  503 -0.00000000000E+00 -0.00000000000E+00 -0.11152846936E+04  0.11152846936E+04  0.00000000000E+00 0.  1.
         24    1    1    2    0    0 -0.11920412888E+03 -0.12985423498E+03 -0.49564282324E+03  0.53216611210E+03  0.80419002446E+02 0.  1.
          1    1    1    2  501    0  0.28918501546E+02 -0.10413783826E+02  0.22863672268E+02  0.38307625022E+02  0.00000000000E+00 0. -1.
         -2    1    1    2    0  503  0.90285627330E+02  0.14026801880E+03 -0.58193997072E+03  0.60537652839E+03  0.00000000000E+00 0.  1.
<mgrwt>
<rscale>  2 0.19564963E+03</rscale>
<asrwt>0</asrwt>
<pdfrwt beam="1">  1       21 0.93177815E-02 0.19564963E+03</pdfrwt>
<pdfrwt beam="2">  1       21 0.17158224E+00 0.19564963E+03</pdfrwt>
<totfact> 0.19076069E+04</totfact>
</mgrwt>
</event>
<event>
 5    1  0.2051810E+000  0.7398554E+02  0.7546771E-02  0.1347042E+00
         21   -1    0    0  503  502  0.00000000000E+00  0.00000000000E+00  0.38701619364E+02  0.38701619364E+02  0.00000000000E+00 0.  1.
         21   -1    0    0  501  503 -0.00000000000E+00 -0.00000000000E+00 -0.14408713484E+03  0.14408713484E+03  0.00000000000E+00 0.  1.
         24    1    1    2    0    0  0.29924041127E+00 -0.39052878266E+02 -0.73448720359E+02  0.11570284060E+03  0.80419002446E+02 0.  1.
          1    1    1    2  501    0 -0.21927198629E+02  0.21598074267E+02 -0.20787192776E+02  0.37140089328E+02  0.00000000000E+00 0. -1.
         -2    1    1    2    0  502  0.21627958217E+02  0.17454803999E+02 -0.11149602338E+02  0.29945824277E+02  0.00000000000E+00 0.  1.
<mgrwt>
<rscale>  2 0.73985543E+02</rscale>
<asrwt>0</asrwt>
<pdfrwt beam="1">  1       21 0.59540953E-02 0.73985543E+02</pdfrwt>
<pdfrwt beam="2">  1       21 0.22167252E-01 0.73985543E+02</pdfrwt>
<totfact> 0.36487775E+06</totfact>
</mgrwt>
</event>
<event>
 5    1  0.2051810E+000  0.8836001E+02  0.7546771E-02  0.1306872E+00
         21   -1    0    0  501  502  0.00000000000E+00  0.00000000000E+00  0.66046440374E+03  0.66046440374E+03  0.00000000000E+00 0.  1.
         21   -1    0    0  502  503 -0.00000000000E+00 -0.00000000000E+00 -0.15116227949E+02  0.15116227949E+02  0.00000000000E+00 0. -1.
         24    1    1    2    0    0 -0.12646466309E+02 -0.43894469426E+02  0.37476665600E+03  0.38601025888E+03  0.80419002446E+02 0.  1.
          1    1    1    2  501    0 -0.19630536478E+01  0.61400329535E+02  0.25414057936E+03  0.26145991686E+03  0.00000000000E+00 0. -1.
         -2    1    1    2    0  503  0.14609519956E+02 -0.17505860109E+02  0.16440940432E+02  0.28110455951E+02  0.00000000000E+00 0.  1.
<mgrwt>
<rscale>  2 0.88360011E+02</rscale>
<asrwt>0</asrwt>
<pdfrwt beam="1">  1       21 0.10160989E+00 0.88360011E+02</pdfrwt>
<pdfrwt beam="2">  1       21 0.23255740E-02 0.88360011E+02</pdfrwt>
<totfact> 0.76798129E+05</totfact>
</mgrwt>
</event>
<event>
 5    1  0.2051810E+000  0.6990328E+02  0.7546771E-02  0.1360422E+00
         21   -1    0    0  503  502  0.00000000000E+00  0.00000000000E+00  0.18638618583E+03  0.18638618583E+03  0.00000000000E+00 0. -1.
         21   -1    0    0  501  503 -0.00000000000E+00 -0.00000000000E+00 -0.45700398525E+02  0.45700398525E+02  0.00000000000E+00 0. -1.
         24    1    1    2    0    0  0.30537087655E+02  0.35297289456E+02  0.14915216247E+03  0.17576118994E+03  0.80419002446E+02 0. -1.
          1    1    1    2  501    0 -0.11871603405E+02 -0.16571461328E+02 -0.18998127104E+02  0.27865339248E+02  0.00000000000E+00 0. -1.
         -2    1    1    2    0  502 -0.18665484251E+02 -0.18725828128E+02  0.10531751945E+02  0.28460055172E+02  0.00000000000E+00 0.  1.
<mgrwt>
<rscale>  2 0.69903279E+02</rscale>
<asrwt>0</asrwt>
<pdfrwt beam="1">  1       21 0.28674797E-01 0.69903279E+02</pdfrwt>
<pdfrwt beam="2">  1       21 0.70308307E-02 0.69903279E+02</pdfrwt>
<totfact> 0.17050667E+06</totfact>
</mgrwt>
</event>
<event>
 5    1  0.2051810E+000  0.1253199E+03  0.7546771E-02  0.1234570E+00
         21   -1    0    0  503  502  0.00000000000E+00  0.00000000000E+00  0.49507420744E+02  0.49507420744E+02  0.00000000000E+00 0. -1.
         21   -1    0    0  501  503 -0.00000000000E+00 -0.00000000000E+00 -0.36914270263E+03  0.36914270263E+03  0.00000000000E+00 0. -1.
         24    1    1    2    0    0  0.36382489149E+02 -0.23488597841E+01 -0.80803782999E+02  0.11968989080E+03  0.80419002446E+02 0. -1.
          1    1    1    2  501    0 -0.63794497470E+02  0.66760730800E+02 -0.19660008559E+03  0.21720572446E+03  0.00000000000E+00 0. -1.
         -2    1    1    2    0  502  0.27412008321E+02 -0.64411871016E+02 -0.42231413302E+02  0.81754508117E+02  0.00000000000E+00 0.  1.
<mgrwt>
<rscale>  2 0.12531992E+03</rscale>
<asrwt>0</asrwt>
<pdfrwt beam="1">  1       21 0.76165262E-02 0.12531992E+03</pdfrwt>
<pdfrwt beam="2">  1       21 0.56791186E-01 0.12531992E+03</pdfrwt>
<totfact> 0.38552367E+05</totfact>
</mgrwt>
</event>
<event>
 5    1  0.2051810E+000  0.7918543E+02  0.7546771E-02  0.1331379E+00
         21   -1    0    0  501  502  0.00000000000E+00  0.00000000000E+00  0.47539362476E+02  0.47539362476E+02  0.00000000000E+00 0.  1.
         21   -1    0    0  502  503 -0.00000000000E+00 -0.00000000000E+00 -0.37008914685E+03  0.37008914685E+03  0.00000000000E+00 0.  1.
         24    1    1    2    0    0  0.28876851094E+02 -0.43368627388E+02 -0.49010766702E+02  0.10762890679E+03  0.80419002446E+02 0.  1.
          1    1    1    2  501    0 -0.25127264423E+02  0.71339761648E+01  0.70505865887E+01  0.27055199214E+02  0.00000000000E+00 0. -1.
         -2    1    1    2    0  503 -0.37495866718E+01  0.36234651224E+02 -0.28058960427E+03  0.28294440332E+03  0.00000000000E+00 0.  1.
<mgrwt>
<rscale>  2 0.79185432E+02</rscale>
<asrwt>0</asrwt>
<pdfrwt beam="1">  1       21 0.73137481E-02 0.79185432E+02</pdfrwt>
<pdfrwt beam="2">  1       21 0.56936792E-01 0.79185432E+02</pdfrwt>
<totfact> 0.41317318E+05</totfact>
</mgrwt>
</event>
<event>
 5    1  0.2051810E+000  0.1492904E+03  0.7546771E-02  0.1201348E+00
         21   -1    0    0  501  502  0.00000000000E+00  0.00000000000E+00  0.34558491047E+03  0.34558491047E+03  0.00000000000E+00 0.  1.
         21   -1    0    0  502  503 -0.00000000000E+00 -0.00000000000E+00 -0.74257301990E+02  0.74257301990E+02  0.00000000000E+00 0.  1.
         24    1    1    2    0    0 -0.10195385074E+03  0.91736144773E+02  0.14342936945E+03  0.21412451498E+03  0.80419002446E+02 0.  1.
          1    1    1    2  501    0  0.15386843404E+02 -0.28500562507E+02  0.83722439208E+02  0.89769058367E+02  0.00000000000E+00 0. -1.
         -2    1    1    2    0  503  0.86567007332E+02 -0.63235582266E+02  0.44175799813E+02  0.11594863911E+03  0.00000000000E+00 0.  1.
<mgrwt>
<rscale>  2 0.14929038E+03</rscale>
<asrwt>0</asrwt>
<pdfrwt beam="1">  1       21 0.53166908E-01 0.14929038E+03</pdfrwt>
<pdfrwt beam="2">  1       21 0.11424201E-01 0.14929038E+03</pdfrwt>
<totfact> 0.21724709E+05</totfact>
</mgrwt>
</event>
<event>
 5    1  0.2051810E+000  0.7684125E+02  0.7546771E-02  0.1338262E+00
         21   -1    0    0  501  502  0.00000000000E+00  0.00000000000E+00  0.15529815577E+02  0.15529815577E+02  0.00000000000E+00 0.  1.
         21   -1    0    0  502  503 -0.00000000000E+00 -0.00000000000E+00 -0.11790007734E+04  0.11790007734E+04  0.00000000000E+00 0.  1.
         24    1    1    2    0    0  0.27195694338E+02 -0.28892968312E+02 -0.14828380314E+03  0.17329082964E+03  0.80419002446E+02 0.  1.
          1    1    1    2  501    0 -0.21870978686E+02 -0.10496714707E+02 -0.53632939606E+02  0.58864360517E+02  0.00000000000E+00 0. -1.
         -2    1    1    2    0  503 -0.53247156514E+01  0.39389683019E+02 -0.96155421510E+03  0.96237539884E+03  0.00000000000E+00 0.  1.
<mgrwt>
<rscale>  2 0.76841254E+02</rscale>
<asrwt>0</asrwt>
<pdfrwt beam="1">  1       21 0.23892014E-02 0.76841254E+02</pdfrwt>
<pdfrwt beam="2">  1       21 0.18138481E+00 0.76841254E+02</pdfrwt>
<totfact> 0.17497236E+05</totfact>
</mgrwt>
</event>
<event>
 5    1  0.2700667E+000  0.1247122E+03  0.7546771E-02  0.1235520E+00
         21   -1    0    0  503  502  0.00000000000E+00  0.00000000000E+00  0.25182321612E+03  0.25182321612E+03  0.00000000000E+00 0. -1.
         21   -1    0    0  501  503 -0.00000000000E+00 -0.00000000000E+00 -0.31779415304E+03  0.31779415304E+03  0.00000000000E+00 0. -1.
         24    1    1    2    0    0 -0.78026809248E+02 -0.68683404395E+02  0.16555339406E+03  0.21137818061E+03  0.80419002446E+02 0. -1.
          1    1    1    2  501    0  0.51127529742E+02  0.74616542958E+02 -0.28449837968E+03  0.29853137326E+03  0.00000000000E+00 0. -1.
         -2    1    1    2    0  502  0.26899279506E+02 -0.59331385627E+01  0.52974048697E+02  0.59707815289E+02  0.00000000000E+00 0.  1.
<mgrwt>
<rscale>  2 0.12471219E+03</rscale>
<asrwt>0</asrwt>
<pdfrwt beam="1">  1       21 0.38742033E-01 0.12471219E+03</pdfrwt>
<pdfrwt beam="2">  1       21 0.48891408E-01 0.12471219E+03</pdfrwt>
<totfact> 0.26732740E+04</totfact>
</mgrwt>
</event>
<event>
 5    1  0.2051810E+000  0.1043610E+03  0.7546771E-02  0.1271384E+00
         21   -1    0    0  503  502  0.00000000000E+00  0.00000000000E+00  0.31680881301E+04  0.31680881301E+04  0.00000000000E+00 0. -1.
         21   -1    0    0  501  503 -0.00000000000E+00 -0.00000000000E+00 -0.75325028092E+01  0.75325028092E+01  0.00000000000E+00 0. -1.
         24    1    1    2    0    0  0.51488659368E+02  0.25204072994E+02  0.16955035252E+04  0.16983773866E+04  0.80419002446E+02 0. -1.
          1    1    1    2  501    0 -0.79035028371E+02 -0.14207752058E+02  0.26676756060E+03  0.27859168565E+03  0.00000000000E+00 0. -1.
         -2    1    1    2    0  502  0.27546369003E+02 -0.10996320935E+02  0.11982845415E+04  0.11986515607E+04  0.00000000000E+00 0.  1.
<mgrwt>
<rscale>  2 0.10436102E+03</rscale>
<asrwt>0</asrwt>
<pdfrwt beam="1">  1       21 0.48739711E+00 0.10436102E+03</pdfrwt>
<pdfrwt beam="2">  1       21 0.11588491E-02 0.10436102E+03</pdfrwt>
<totfact> 0.81035388E+03</totfact>
</mgrwt>
</event>
<event>
 5    1  0.2051810E+000  0.8614729E+02  0.7546771E-02  0.1312459E+00
         21   -1    0    0  501  502  0.00000000000E+00  0.00000000000E+00  0.70694039230E+03  0.70694039230E+03  0.00000000000E+00 0.  1.
         21   -1    0    0  502  503 -0.00000000000E+00 -0.00000000000E+00 -0.21681009307E+02  0.21681009307E+02  0.00000000000E+00 0.  1.
         24    1    1    2    0    0 -0.15745334204E+02 -0.37699834844E+02  0.47007717993E+03  0.47865328176E+03  0.80419002446E+02 0.  1.
          1    1    1    2  501    0 -0.22045102901E+02  0.38419807476E+02  0.20648557618E+03  0.21118324114E+03  0.00000000000E+00 0. -1.
         -2    1    1    2    0  503  0.37790437105E+02 -0.71997263145E+00  0.86966268871E+01  0.38784878708E+02  0.00000000000E+00 0.  1.
<mgrwt>
<rscale>  2 0.86147290E+02</rscale>
<asrwt>0</asrwt>
<pdfrwt beam="1">  1       21 0.10876004E+00 0.86147290E+02</pdfrwt>
<pdfrwt beam="2">  1       21 0.33355404E-02 0.86147290E+02</pdfrwt>
<totfact> 0.36539301E+05</totfact>
</mgrwt>
</event>
<event>
 5    1  0.2051810E+000  0.1156036E+03  0.7546771E-02  0.1250531E+00
         21   -1    0    0  503  502  0.00000000000E+00  0.00000000000E+00  0.39319278847E+02  0.39319278847E+02  0.00000000000E+00 0.  1.
         21   -1    0    0  501  503 -0.00000000000E+00 -0.00000000000E+00 -0.41035365500E+03  0.41035365500E+03  0.00000000000E+00 0.  1.
         24    1    1    2    0    0  0.42020476695E+02 -0.75078038282E+02 -0.10583361881E+03  0.15833636070E+03  0.80419002446E+02 0.  1.
          1    1    1    2  501    0 -0.31368603361E+02 -0.57667759002E+01 -0.12633845986E+03  0.13030215432E+03  0.00000000000E+00 0. -1.
         -2    1    1    2    0  502 -0.10651873334E+02  0.80844814182E+02 -0.13886229748E+03  0.16103441883E+03  0.00000000000E+00 0.  1.
<mgrwt>
<rscale>  2 0.11560364E+03</rscale>
<asrwt>0</asrwt>
<pdfrwt beam="1">  1       21 0.60491198E-02 0.11560364E+03</pdfrwt>
<pdfrwt beam="2">  1       21 0.63131332E-01 0.11560364E+03</pdfrwt>
<totfact> 0.45686519E+05</totfact>
</mgrwt>
</event>
<event>
 5    1  0.2051810E+000  0.1406753E+03  0.7546771E-02  0.1212423E+00
         21   -1    0    0  503  502  0.00000000000E+00  0.00000000000E+00  0.43457789959E+02  0.43457789959E+02  0.00000000000E+00 0.  1.
         21   -1    0    0  501  503 -0.00000000000E+00 -0.00000000000E+00 -0.73805292349E+03  0.73805292349E+03  0.00000000000E+00 0. -1.
         24    1    1    2    0    0  0.40129974588E+02 -0.79425784132E+02 -0.38587805658E+03  0.40408905027E+03  0.80419002446E+02 0. -1.
          1    1    1    2  501    0 -0.85567595822E+02  0.78255664767E+02 -0.31099786727E+03  0.33191178944E+03  0.00000000000E+00 0. -1.
         -2    1    1    2    0  502  0.45437621234E+02  0.11701193649E+01  0.22807903224E+01  0.45509873733E+02  0.00000000000E+00 0.  1.
<mgrwt>
<rscale>  2 0.14067528E+03</rscale>
<asrwt>0</asrwt>
<pdfrwt beam="1">  1       21 0.66858139E-02 0.14067528E+03</pdfrwt>
<pdfrwt beam="2">  1       21 0.11354660E+00 0.14067528E+03</pdfrwt>
<totfact> 0.10127632E+05</totfact>
</mgrwt>
</event>
<event>
 5    1  0.2051810E+000  0.7856911E+02  0.7546771E-02  0.1333162E+00
         21   -1    0    0  501  502  0.00000000000E+00  0.00000000000E+00  0.15019124687E+03  0.15019124687E+03  0.00000000000E+00 0. -1.
         21   -1    0    0  502  503 -0.00000000000E+00 -0.00000000000E+00 -0.71302738554E+02  0.71302738554E+02  0.00000000000E+00 0.  1.
         24    1    1    2    0    0  0.19435129914E+02 -0.31508651425E+02 -0.25319464556E+02  0.92080457369E+02  0.80419002446E+02 0.  1.
          1    1    1    2  501    0  0.16286973387E+02  0.28414568910E+02  0.79181215763E+02  0.85687327874E+02  0.00000000000E+00 0. -1.
         -2    1    1    2    0  503 -0.35722103301E+02  0.30940825151E+01  0.25026757108E+02  0.43726200180E+02  0.00000000000E+00 0.  1.
<mgrwt>
<rscale>  2 0.78569110E+02</rscale>
<asrwt>0</asrwt>
<pdfrwt beam="1">  1       21 0.23106346E-01 0.78569110E+02</pdfrwt>
<pdfrwt beam="2">  1       21 0.10969652E-01 0.78569110E+02</pdfrwt>
<totfact> 0.11980632E+06</totfact>
</mgrwt>
</event>
<event>
 5    1  0.2051810E+000  0.8419501E+02  0.7546771E-02  0.1317551E+00
         21   -1    0    0  503  502  0.00000000000E+00  0.00000000000E+00  0.46143419479E+02  0.46143419479E+02  0.00000000000E+00 0.  1.
         21   -1    0    0  501  503 -0.00000000000E+00 -0.00000000000E+00 -0.32839474118E+03  0.32839474118E+03  0.00000000000E+00 0. -1.
         24    1    1    2    0    0 -0.10406621607E+02  0.43666115708E+02 -0.58376804411E+02  0.10904171074E+03  0.80419002446E+02 0.  1.
          1    1    1    2  501    0  0.15884216580E+02  0.12279865757E+02 -0.20532091944E+03  0.20630022637E+03  0.00000000000E+00 0. -1.
         -2    1    1    2    0  502 -0.54775949732E+01 -0.55945981466E+02 -0.18553597847E+02  0.59196223544E+02  0.00000000000E+00 0.  1.
<mgrwt>
<rscale>  2 0.84195013E+02</rscale>
<asrwt>0</asrwt>
<pdfrwt beam="1">  1       21 0.70989875E-02 0.84195013E+02</pdfrwt>
<pdfrwt beam="2">  1       21 0.50522268E-01 0.84195013E+02</pdfrwt>
<totfact> 0.55564115E+05</totfact>
</mgrwt>
</event>
<event>
 5    1  0.2051810E+000  0.8487178E+02  0.7546771E-02  0.1315768E+00
         21   -1    0    0  501  502  0.00000000000E+00  0.00000000000E+00  0.50174342518E+02  0.50174342518E+02  0.00000000000E+00 0. -1.
         21   -1    0    0  502  503 -0.00000000000E+00 -0.00000000000E+00 -0.60874160462E+03  0.60874160462E+03  0.00000000000E+00 0. -1.
         24    1    1    2    0    0 -0.18869311236E+02  0.34902453168E+02 -0.44500290245E+03  0.45394826940E+03  0.80419002446E+02 0. -1.
          1    1    1    2  501    0  0.36471248576E+02 -0.46420416368E+02  0.25511110333E+02  0.64310370695E+02  0.00000000000E+00 0. -1.
         -2    1    1    2    0  503 -0.17601937341E+02  0.11517963200E+02 -0.13907546999E+03  0.14065730705E+03  0.00000000000E+00 0.  1.
<mgrwt>
<rscale>  2 0.84871778E+02</rscale>
<asrwt>0</asrwt>
<pdfrwt beam="1">  1       21 0.77191295E-02 0.84871778E+02</pdfrwt>
<pdfrwt beam="2">  1       21 0.93652556E-01 0.84871778E+02</pdfrwt>
<totfact> 0.12789456E+05</totfact>
</mgrwt>
</event>
<event>
 5    1  0.2051810E+000  0.8906375E+02  0.7546771E-02  0.1305135E+00
         21   -1    0    0  501  502  0.00000000000E+00  0.00000000000E+00  0.93155313913E+02  0.93155313913E+02  0.00000000000E+00 0. -1.
         21   -1    0    0  502  503 -0.00000000000E+00 -0.00000000000E+00 -0.11719845453E+03  0.11719845453E+03  0.00000000000E+00 0.  1.
         24    1    1    2    0    0  0.35851388545E+02 -0.38426569040E+01 -0.42964030067E+01  0.88236971309E+02  0.80419002446E+02 0.  1.
          1    1    1    2  501    0 -0.80987697634E+01 -0.38514011235E+02  0.31246209813E+02  0.50251813507E+02  0.00000000000E+00 0. -1.
         -2    1    1    2    0  503 -0.27752618782E+02  0.42356668139E+02 -0.50992947426E+02  0.71864983631E+02  0.00000000000E+00 0.  1.
<mgrwt>
<rscale>  2 0.89063745E+02</rscale>
<asrwt>0</asrwt>
<pdfrwt beam="1">  1       21 0.14331587E-01 0.89063745E+02</pdfrwt>
<pdfrwt beam="2">  1       21 0.18030531E-01 0.89063745E+02</pdfrwt>
<totfact> 0.11834767E+06</totfact>
</mgrwt>
</event>
<event>
 5    1  0.2051810E+000  0.1045686E+03  0.7546771E-02  0.1270972E+00
         21   -1    0    0  501  502  0.00000000000E+00  0.00000000000E+00  0.13989108697E+04  0.13989108697E+04  0.00000000000E+00 0.  1.
         21   -1    0    0  502  503 -0.00000000000E+00 -0.00000000000E+00 -0.88822201589E+01  0.88822201589E+01  0.00000000000E+00 0. -1.
         24    1    1    2    0    0  0.84545769604E+02 -0.21642032002E+01  0.57442458691E+03  0.58615995508E+03  0.80419002446E+02 0. -1.
          1    1    1    2  501    0 -0.27516660373E+02 -0.16911420849E+02  0.44610601624E+03  0.44727367514E+03  0.00000000000E+00 0. -1.
         -2    1    1    2    0  503 -0.57029109231E+02  0.19075624049E+02  0.36949804636E+03  0.37435945961E+03  0.00000000000E+00 0.  1.
<mgrwt>
<rscale>  2 0.10456857E+03</rscale>
<asrwt>0</asrwt>
<pdfrwt beam="1">  1       21 0.21521688E+00 0.10456857E+03</pdfrwt>
<pdfrwt beam="2">  1       21 0.13664965E-02 0.10456857E+03</pdfrwt>
<totfact> 0.25773359E+05</totfact>
</mgrwt>
</event>
<event>
 5    1  0.2051810E+000  0.8171429E+02  0.7546771E-02  0.1324256E+00
         21   -1    0    0  501  502  0.00000000000E+00  0.00000000000E+00  0.16533413482E+04  0.16533413482E+04  0.00000000000E+00 0. -1.
         21   -1    0    0  502  503 -0.00000000000E+00 -0.00000000000E+00 -0.87311460241E+01  0.87311460241E+01  0.00000000000E+00 0.  1.
         24    1    1    2    0    0  0.20646837563E+01  0.44412684354E+02  0.14703545568E+04  0.14732231630E+04  0.80419002446E+02 0. -1.
          1    1    1    2  501    0  0.20327293479E+02  0.15748429239E+01  0.66780516287E+02  0.69823465582E+02  0.00000000000E+00 0. -1.
         -2    1    1    2    0  503 -0.22391977235E+02 -0.45987527278E+02  0.10747512906E+03  0.11902586558E+03  0.00000000000E+00 0.  1.
<mgrwt>
<rscale>  2 0.81714291E+02</rscale>
<asrwt>0</asrwt>
<pdfrwt beam="1">  1       21 0.25435996E+00 0.81714291E+02</pdfrwt>
<pdfrwt beam="2">  1       21 0.13432546E-02 0.81714291E+02</pdfrwt>
<totfact> 0.16130989E+05</totfact>
</mgrwt>
</event>
<event>
 5    1  0.2051810E+000  0.7993425E+02  0.7546771E-02  0.1329238E+00
         21   -1    0    0  501  502  0.00000000000E+00  0.00000000000E+00  0.38597995842E+02  0.38597995842E+02  0.00000000000E+00 0.  1.
         21   -1    0    0  502  503 -0.00000000000E+00 -0.00000000000E+00 -0.26405318346E+03  0.26405318346E+03  0.00000000000E+00 0.  1.
         24    1    1    2    0    0 -0.18931707435E+02 -0.49757942412E+02 -0.90968447108E+02  0.13257728577E+03  0.80419002446E+02 0.  1.
          1    1    1    2  501    0 -0.79795690505E+01  0.27082286354E+02  0.27782034223E+01  0.28369740405E+02  0.00000000000E+00 0. -1.
         -2    1    1    2    0  503  0.26911276486E+02  0.22675656057E+02 -0.13726494394E+03  0.14170415313E+03  0.00000000000E+00 0.  1.
<mgrwt>
<rscale>  2 0.79934246E+02</rscale>
<asrwt>0</asrwt>
<pdfrwt beam="1">  1       21 0.59381532E-02 0.79934246E+02</pdfrwt>
<pdfrwt beam="2">  1       21 0.40623566E-01 0.79934246E+02</pdfrwt>
<totfact> 0.11618283E+06</totfact>
</mgrwt>
</event>
<event>
 5    1  0.2051810E+000  0.1241124E+03  0.7546771E-02  0.1236463E+00
         21   -1    0    0  503  502  0.00000000000E+00  0.00000000000E+00  0.78030152644E+03  0.78030152644E+03  0.00000000000E+00 0.  1.
         21   -1    0    0  501  503 -0.00000000000E+00 -0.00000000000E+00 -0.15850093591E+03  0.15850093591E+03  0.00000000000E+00 0. -1.
         24    1    1    2    0    0 -0.64797620357E+02 -0.61482683430E+02 -0.87810715316E+02  0.14885156917E+03  0.80419002446E+02 0. -1.
          1    1    1    2  501    0  0.88540051642E+02  0.49511738957E+02  0.24547321569E+02  0.10437108812E+03  0.00000000000E+00 0. -1.
         -2    1    1    2    0  502 -0.23742431285E+02  0.11970944473E+02  0.68506398428E+03  0.68557980506E+03  0.00000000000E+00 0.  1.
<mgrwt>
<rscale>  2 0.12411237E+03</rscale>
<asrwt>0</asrwt>
<pdfrwt beam="1">  1       21 0.12004639E+00 0.12411237E+03</pdfrwt>
<pdfrwt beam="2">  1       21 0.24384760E-01 0.12411237E+03</pdfrwt>
<totfact> 0.88775658E+03</totfact>
</mgrwt>
</event>
<event>
 5    1  0.2051810E+000  0.1087453E+03  0.7546771E-02  0.1262911E+00
         21   -1    0    0  501  502  0.00000000000E+00  0.00000000000E+00  0.16172179422E+04  0.16172179422E+04  0.00000000000E+00 0. -1.
         21   -1    0    0  502  503 -0.00000000000E+00 -0.00000000000E+00 -0.52018957164E+02  0.52018957164E+02  0.00000000000E+00 0.  1.
         24    1    1    2    0    0  0.45359001300E+01  0.67382910832E+02  0.20026261097E+03  0.22612686786E+03  0.80419002446E+02 0.  1.
          1    1    1    2  501    0 -0.20911905704E+02  0.16731464860E+02  0.13567632002E+04  0.13570274983E+04  0.00000000000E+00 0. -1.
         -2    1    1    2    0  503  0.16376005574E+02 -0.84114375692E+02  0.81731738953E+01  0.86082533235E+02  0.00000000000E+00 0.  1.
<mgrwt>
<rscale>  2 0.10874531E+03</rscale>
<asrwt>0</asrwt>
<pdfrwt beam="1">  1       21 0.24880272E+00 0.10874531E+03</pdfrwt>
<pdfrwt beam="2">  1       21 0.80029177E-02 0.10874531E+03</pdfrwt>
<totfact> 0.89656503E+03</totfact>
</mgrwt>
</event>
<event>
 5    1  0.2051810E+000  0.1629990E+03  0.7546771E-02  0.1185352E+00
         21   -1    0    0  503  502  0.00000000000E+00  0.00000000000E+00  0.11121761105E+03  0.11121761105E+03  0.00000000000E+00 0.  1.
         21   -1    0    0  501  503 -0.00000000000E+00 -0.00000000000E+00 -0.38831340234E+03  0.38831340234E+03  0.00000000000E+00 0. -1.
         24    1    1    2    0    0  0.12349607596E+03 -0.36584190004E+02 -0.10103713801E+03  0.18238805594E+03  0.80419002446E+02 0. -1.
          1    1    1    2  501    0 -0.47585154269E+02  0.75195144054E+02 -0.20795922679E+03  0.22619835676E+03  0.00000000000E+00 0. -1.
         -2    1    1    2    0  502 -0.75910921694E+02 -0.38610954051E+02  0.31900573506E+02  0.90944600692E+02  0.00000000000E+00 0.  1.
<mgrwt>
<rscale>  2 0.16299899E+03</rscale>
<asrwt>0</asrwt>
<pdfrwt beam="1">  1       21 0.17110402E-01 0.16299899E+03</pdfrwt>
<pdfrwt beam="2">  1       21 0.59740523E-01 0.16299899E+03</pdfrwt>
<totfact> 0.81652612E+04</totfact>
</mgrwt>
</event>
<event>
 5    1  0.2051810E+000  0.8289843E+02  0.7546771E-02  0.1321022E+00
         21   -1    0    0  501  502  0.00000000000E+00  0.00000000000E+00  0.14864345265E+04  0.14864345265E+04  0.00000000000E+00 0. -1.
         21   -1    0    0  502  503 -0.00000000000E+00 -0.00000000000E+00 -0.97260809135E+01  0.97260809135E+01  0.00000000000E+00 0.  1.
         24    1    1    2    0    0  0.40520928226E+02 -0.31990632389E+02  0.32269996716E+03  0.33655286501E+03  0.80419002446E+02 0.  1.
          1    1    1    2  501    0 -0.11390334536E+02  0.38698094778E+02  0.10640154185E+04  0.10647798331E+04  0.00000000000E+00 0. -1.
         -2    1    1    2    0  503 -0.29130593690E+02 -0.67074623895E+01  0.89993059917E+02  0.94827909256E+02  0.00000000000E+00 0.  1.
<mgrwt>
<rscale>  2 0.82898430E+02</rscale>
<asrwt>0</asrwt>
<pdfrwt beam="1">  1       21 0.22868205E+00 0.82898430E+02</pdfrwt>
<pdfrwt beam="2">  1       21 0.14963213E-02 0.82898430E+02</pdfrwt>
<totfact> 0.18956312E+05</totfact>
</mgrwt>
</event>
<event>
 5    1  0.2051810E+000  0.7593343E+02  0.7546771E-02  0.1341005E+00
         21   -1    0    0  501  502  0.00000000000E+00  0.00000000000E+00  0.74869552301E+02  0.74869552301E+02  0.00000000000E+00 0.  1.
         21   -1    0    0  502  503 -0.00000000000E+00 -0.00000000000E+00 -0.92837090251E+02  0.92837090251E+02  0.00000000000E+00 0. -1.
         24    1    1    2    0    0 -0.18618259665E+02 -0.46269368155E+01 -0.43643326928E+02  0.93487988945E+02  0.80419002446E+02 0. -1.
          1    1    1    2  501    0 -0.24656272055E+02  0.76375300191E+01  0.13671781592E+02  0.29209266138E+02  0.00000000000E+00 0. -1.
         -2    1    1    2    0  503  0.43274531720E+02 -0.30105932037E+01  0.12004007387E+02  0.45009387469E+02  0.00000000000E+00 0.  1.
<mgrwt>
<rscale>  2 0.75933433E+02</rscale>
<asrwt>0</asrwt>
<pdfrwt beam="1">  1       21 0.11518393E-01 0.75933433E+02</pdfrwt>
<pdfrwt beam="2">  1       21 0.14282629E-01 0.75933433E+02</pdfrwt>
<totfact> 0.26218103E+06</totfact>
</mgrwt>
</event>
<event>
 5    1  0.2051810E+000  0.6700669E+02  0.7546771E-02  0.1370578E+00
         21   -1    0    0  503  502  0.00000000000E+00  0.00000000000E+00  0.34339377260E+03  0.34339377260E+03  0.00000000000E+00 0. -1.
         21   -1    0    0  501  503 -0.00000000000E+00 -0.00000000000E+00 -0.31336107902E+02  0.31336107902E+02  0.00000000000E+00 0. -1.
         24    1    1    2    0    0  0.69512196596E+01 -0.12577541722E+01  0.11108902908E+03  0.13732403190E+03  0.80419002446E+02 0.  1.
          1    1    1    2  501    0 -0.26454555089E+02  0.14056269804E+02 -0.47826316107E+01  0.30336377023E+02  0.00000000000E+00 0. -1.
         -2    1    1    2    0  502  0.19503335429E+02 -0.12798515631E+02  0.20575126722E+03  0.20706947158E+03  0.00000000000E+00 0.  1.
<mgrwt>
<rscale>  2 0.67006691E+02</rscale>
<asrwt>0</asrwt>
<pdfrwt beam="1">  1       21 0.52829809E-01 0.67006691E+02</pdfrwt>
<pdfrwt beam="2">  1       21 0.48209399E-02 0.67006691E+02</pdfrwt>
<totfact> 0.96483139E+05</totfact>
</mgrwt>
</event>
<event>
 5    1  0.2051810E+000  0.6507462E+02  0.7546771E-02  0.1377691E+00
         21   -1    0    0  503  502  0.00000000000E+00  0.00000000000E+00  0.41824624195E+02  0.41824624195E+02  0.00000000000E+00 0. -1.
         21   -1    0    0  501  503 -0.00000000000E+00 -0.00000000000E+00 -0.11258941825E+03  0.11258941825E+03  0.00000000000E+00 0.  1.
         24    1    1    2    0    0 -0.10361712652E+02 -0.16909075661E+02 -0.39519589909E+02  0.91773067235E+02  0.80419002446E+02 0.  0.
          1    1    1    2  501    0  0.21983691924E+02 -0.49775645136E+01 -0.30401234303E+02  0.37845659015E+02  0.00000000000E+00 0. -1.
         -2    1    1    2    0  502 -0.11621979272E+02  0.21886640175E+02 -0.84396984685E+00  0.24795316200E+02  0.00000000000E+00 0.  1.
<mgrwt>
<rscale>  2 0.65074616E+02</rscale>
<asrwt>0</asrwt>
<pdfrwt beam="1">  1       21 0.64345576E-02 0.65074616E+02</pdfrwt>
<pdfrwt beam="2">  1       21 0.17321449E-01 0.65074616E+02</pdfrwt>
<totfact> 0.49661674E+06</totfact>
</mgrwt>
</event>
<event>
 5    1  0.2051810E+000  0.6387417E+02  0.7546771E-02  0.1382257E+00
         21   -1    0    0  501  502  0.00000000000E+00  0.00000000000E+00  0.28559590481E+02  0.28559590481E+02  0.00000000000E+00 0. -1.
         21   -1    0    0  502  503 -0.00000000000E+00 -0.00000000000E+00 -0.17279111703E+03  0.17279111703E+03  0.00000000000E+00 0. -1.
         24    1    1    2    0    0 -0.56024582983E+00  0.82719256786E+00 -0.12300768588E+03  0.14696633922E+03  0.80419002446E+02 0. -1.
          1    1    1    2  501    0  0.74209382661E+01 -0.22971486876E+02 -0.19195759229E+01  0.24216612186E+02  0.00000000000E+00 0. -1.
         -2    1    1    2    0  503 -0.68606924363E+01  0.22144294308E+02 -0.19304264741E+02  0.30167756103E+02  0.00000000000E+00 0.  1.
<mgrwt>
<rscale>  2 0.63874174E+02</rscale>
<asrwt>0</asrwt>
<pdfrwt beam="1">  1       21 0.43937832E-02 0.63874174E+02</pdfrwt>
<pdfrwt beam="2">  1       21 0.26583248E-01 0.63874174E+02</pdfrwt>
<totfact> 0.42655610E+06</totfact>
</mgrwt>
</event>
<event>
 5    1  0.2051810E+000  0.1263346E+03  0.7546771E-02  0.1232998E+00
         21   -1    0    0  501  502  0.00000000000E+00  0.00000000000E+00  0.17973125984E+03  0.17973125984E+03  0.00000000000E+00 0. -1.
         21   -1    0    0  502  503 -0.00000000000E+00 -0.00000000000E+00 -0.29282949639E+03  0.29282949639E+03  0.00000000000E+00 0.  1.
         24    1    1    2    0    0 -0.45685676518E+02 -0.78682285294E+02  0.11281154902E+03  0.16574602440E+03  0.80419002446E+02 0. -1.
          1    1    1    2  501    0  0.34775510228E+02  0.10077100532E+03 -0.31937267282E+02  0.11128396411E+03  0.00000000000E+00 0. -1.
         -2    1    1    2    0  503  0.10910166289E+02 -0.22088720030E+02 -0.19397251828E+03  0.19553076773E+03  0.00000000000E+00 0.  1.
<mgrwt>
<rscale>  2 0.12633456E+03</rscale>
<asrwt>0</asrwt>
<pdfrwt beam="1">  1       21 0.27650963E-01 0.12633456E+03</pdfrwt>
<pdfrwt beam="2">  1       21 0.45050692E-01 0.12633456E+03</pdfrwt>
<totfact> 0.60880504E+04</totfact>
</mgrwt>
</event>
<event>
 5    1  0.2899698E+000  0.7498275E+02  0.7546771E-02  0.1343924E+00
         21   -1    0    0  503  502  0.00000000000E+00  0.00000000000E+00  0.49649662861E+03  0.49649662861E+03  0.00000000000E+00 0. -1.
         21   -1    0    0  501  503 -0.00000000000E+00 -0.00000000000E+00 -0.90748561900E+02  0.90748561900E+02  0.00000000000E+00 0. -1.
         24    1    1    2    0    0 -0.31597968918E+02 -0.20917029066E+02  0.35853885586E+03  0.36939583221E+03  0.80419002446E+02 0. -1.
          1    1    1    2  501    0  0.28076308957E+02 -0.10108778162E+02 -0.80775180651E+02  0.86110953599E+02  0.00000000000E+00 0. -1.
         -2    1    1    2    0  502  0.35216599606E+01  0.31025807228E+02  0.12798439151E+03  0.13173840470E+03  0.00000000000E+00 0.  1.
<mgrwt>
<rscale>  2 0.74982747E+02</rscale>
<asrwt>0</asrwt>
<pdfrwt beam="1">  1       21 0.76384095E-01 0.74982747E+02</pdfrwt>
<pdfrwt beam="2">  1       21 0.13961317E-01 0.74982747E+02</pdfrwt>
<totfact> 0.72567255E+04</totfact>
</mgrwt>
</event>
<event>
 5    1  0.2051810E+000  0.7270908E+02  0.7546771E-02  0.1351116E+00
         21   -1    0    0  503  502  0.00000000000E+00  0.00000000000E+00  0.39191674963E+03  0.39191674963E+03  0.00000000000E+00 0. -1.
         21   -1    0    0  501  503 -0.00000000000E+00 -0.00000000000E+00 -0.92663986784E+02  0.92663986784E+02  0.00000000000E+00 0. -1.
         24    1    1    2    0    0  0.26950555906E+02  0.42669161214E+02  0.16220343062E+03  0.18794722302E+03  0.80419002446E+02 0. -1.
          1    1    1    2  501    0 -0.15539352224E+02 -0.23806490068E+02 -0.76674693006E+02  0.81775479115E+02  0.00000000000E+00 0. -1.
         -2    1    1    2    0  502 -0.11411203682E+02 -0.18862671146E+02  0.21372402523E+03  0.21485803427E+03  0.00000000000E+00 0.  1.
<mgrwt>
<rscale>  2 0.72709079E+02</rscale>
<asrwt>0</asrwt>
<pdfrwt beam="1">  1       21 0.60294884E-01 0.72709079E+02</pdfrwt>
<pdfrwt beam="2">  1       21 0.14255998E-01 0.72709079E+02</pdfrwt>
<totfact> 0.11597779E+05</totfact>
</mgrwt>
</event>
<event>
 5    1  0.2051810E+000  0.6768255E+02  0.7546771E-02  0.1368156E+00
         21   -1    0    0  503  502  0.00000000000E+00  0.00000000000E+00  0.18800078209E+02  0.18800078209E+02  0.00000000000E+00 0.  1.
         21   -1    0    0  501  503 -0.00000000000E+00 -0.00000000000E+00 -0.48857793350E+03  0.48857793350E+03  0.00000000000E+00 0. -1.
         24    1    1    2    0    0 -0.40675413412E+02  0.65934052859E+01 -0.43796851374E+03  0.44719302011E+03  0.80419002446E+02 0. -1.
          1    1    1    2  501    0  0.22459855692E+02  0.55198776625E+01 -0.30490314449E+02  0.38269745783E+02  0.00000000000E+00 0. -1.
         -2    1    1    2    0  502  0.18215557720E+02 -0.12113282948E+02 -0.13190271032E+01  0.21915245820E+02  0.00000000000E+00 0.  1.
<mgrwt>
<rscale>  2 0.67682551E+02</rscale>
<asrwt>0</asrwt>
<pdfrwt beam="1">  1       21 0.28923201E-02 0.67682551E+02</pdfrwt>
<pdfrwt beam="2">  1       21 0.75165825E-01 0.67682551E+02</pdfrwt>
<totfact> 0.10576257E+06</totfact>
</mgrwt>
</event>
<event>
 5    1  0.2051810E+000  0.7679291E+02  0.7546771E-02  0.1338407E+00
         21   -1    0    0  501  502  0.00000000000E+00  0.00000000000E+00  0.87500444399E+02  0.87500444399E+02  0.00000000000E+00 0.  1.
         21   -1    0    0  502  503 -0.00000000000E+00 -0.00000000000E+00 -0.21566763772E+03  0.21566763772E+03  0.00000000000E+00 0.  1.
         24    1    1    2    0    0  0.16410211249E+02 -0.35544124634E+02 -0.15145377228E+01  0.89454958544E+02  0.80419002446E+02 0.  1.
          1    1    1    2  501    0  0.10309182400E+02  0.35972776469E+02  0.34176544606E+02  0.50678951152E+02  0.00000000000E+00 0. -1.
         -2    1    1    2    0  503 -0.26719393649E+02 -0.42865183517E+00 -0.16082920021E+03  0.16303417243E+03  0.00000000000E+00 0.  1.
<mgrwt>
<rscale>  2 0.76792908E+02</rscale>
<asrwt>0</asrwt>
<pdfrwt beam="1">  1       21 0.13461607E-01 0.76792908E+02</pdfrwt>
<pdfrwt beam="2">  1       21 0.33179636E-01 0.76792908E+02</pdfrwt>
<totfact> 0.42340672E+05</totfact>
</mgrwt>
</event>
<event>
 5    1  0.2110519E+000  0.9062359E+02  0.7546771E-02  0.1301349E+00
         21   -1    0    0  501  502  0.00000000000E+00  0.00000000000E+00  0.16116470506E+03  0.16116470506E+03  0.00000000000E+00 0. -1.
         21   -1    0    0  502  503 -0.00000000000E+00 -0.00000000000E+00 -0.50223388474E+03  0.50223388474E+03  0.00000000000E+00 0.  1.
         24    1    1    2    0    0 -0.18273398811E+02  0.14879774812E+02 -0.53812222044E+02  0.99590642122E+02  0.80419002446E+02 0.  1.
          1    1    1    2  501    0 -0.16590916933E+02  0.33751687971E+02  0.13356198593E+03  0.13875604149E+03  0.00000000000E+00 0. -1.
         -2    1    1    2    0  503  0.34864315744E+02 -0.48631462783E+02 -0.42081894357E+03  0.42505190618E+03  0.00000000000E+00 0.  1.
<mgrwt>
<rscale>  2 0.90623593E+02</rscale>
<asrwt>0</asrwt>
<pdfrwt beam="1">  1       21 0.24794570E-01 0.90623593E+02</pdfrwt>
<pdfrwt beam="2">  1       21 0.77266752E-01 0.90623593E+02</pdfrwt>
<totfact> 0.24609502E+04</totfact>
</mgrwt>
</event>
<event>
 5    1  0.2051810E+000  0.7508370E+02  0.7546771E-02  0.1343612E+00
         21   -1    0    0  501  502  0.00000000000E+00  0.00000000000E+00  0.34677448952E+03  0.34677448952E+03  0.00000000000E+00 0.  1.
         21   -1    0    0  502  503 -0.00000000000E+00 -0.00000000000E+00 -0.52523021381E+02  0.52523021381E+02  0.00000000000E+00 0.  1.
         24    1    1    2    0    0  0.34269872465E+02  0.41129721547E+02  0.15166622734E+03  0.17982196369E+03  0.80419002446E+02 0.  1.
          1    1    1    2  501    0 -0.18475345890E+02 -0.23382705410E+02  0.17598376568E+03  0.17848914561E+03  0.00000000000E+00 0. -1.
         -2    1    1    2    0  503 -0.15794526575E+02 -0.17747016137E+02 -0.33398524887E+02  0.40986401600E+02  0.00000000000E+00 0.  1.
<mgrwt>
<rscale>  2 0.75083702E+02</rscale>
<asrwt>0</asrwt>
<pdfrwt beam="1">  1       21 0.53349920E-01 0.75083702E+02</pdfrwt>
<pdfrwt beam="2">  1       21 0.80804650E-02 0.75083702E+02</pdfrwt>
<totfact> 0.39910128E+05</totfact>
</mgrwt>
</event>
<event>
 5    1  0.2051810E+000  0.8749883E+02  0.7546771E-02  0.1309024E+00
         21   -1    0    0  503  502  0.00000000000E+00  0.00000000000E+00  0.27989929773E+03  0.27989929773E+03  0.00000000000E+00 0.  1.
         21   -1    0    0  501  503 -0.00000000000E+00 -0.00000000000E+00 -0.19151112495E+03  0.19151112495E+03  0.00000000000E+00 0. -1.
         24    1    1    2    0    0 -0.48387244206E+02  0.33410173186E+02  0.31895410994E+02  0.10460448495E+03  0.80419002446E+02 0. -1.
          1    1    1    2  501    0  0.53004426778E+02 -0.13172388902E+02 -0.14981316535E+03  0.15945835068E+03  0.00000000000E+00 0. -1.
         -2    1    1    2    0  502 -0.46171825718E+01 -0.20237784284E+02  0.20630592713E+03  0.20734758706E+03  0.00000000000E+00 0.  1.
<mgrwt>
<rscale>  2 0.87498835E+02</rscale>
<asrwt>0</asrwt>
<pdfrwt beam="1">  1       21 0.43061430E-01 0.87498835E+02</pdfrwt>
<pdfrwt beam="2">  1       21 0.29463250E-01 0.87498835E+02</pdfrwt>
<totfact> 0.60476362E+04</totfact>
</mgrwt>
</event>
<event>
 5    1  0.2051810E+000  0.1125472E+03  0.7546771E-02  0.1255924E+00
         21   -1    0    0  501  502  0.00000000000E+00  0.00000000000E+00  0.31060576926E+03  0.31060576926E+03  0.00000000000E+00 0. -1.
         21   -1    0    0  502  503 -0.00000000000E+00 -0.00000000000E+00 -0.71049576108E+02  0.71049576108E+02  0.00000000000E+00 0.  1.
         24    1    1    2    0    0 -0.52520549889E+02 -0.41085735982E+02  0.82858754988E+02  0.13333879816E+03  0.80419002446E+02 0.  1.
          1    1    1    2  501    0 -0.28928799238E+02  0.23568615767E+02  0.16063484095E+03  0.16491181644E+03  0.00000000000E+00 0. -1.
         -2    1    1    2    0  503  0.81449349126E+02  0.17517120215E+02 -0.39374027874E+01  0.83404730768E+02  0.00000000000E+00 0.  1.
<mgrwt>
<rscale>  2 0.11254724E+03</rscale>
<asrwt>0</asrwt>
<pdfrwt beam="1">  1       21 0.47785502E-01 0.11254724E+03</pdfrwt>
<pdfrwt beam="2">  1       21 0.10930704E-01 0.11254724E+03</pdfrwt>
<totfact> 0.29516526E+05</totfact>
</mgrwt>
</event>
<event>
 5    1  0.2051810E+000  0.7495908E+02  0.7546771E-02  0.1343998E+00
         21   -1    0    0  501  502  0.00000000000E+00  0.00000000000E+00  0.20800355349E+03  0.20800355349E+03  0.00000000000E+00 0. -1.
         21   -1    0    0  502  503 -0.00000000000E+00 -0.00000000000E+00 -0.13026124643E+03  0.13026124643E+03  0.00000000000E+00 0. -1.
         24    1    1    2    0    0  0.94112368204E+01 -0.63083124102E+01 -0.98267546355E+02  0.12748369623E+03  0.80419002446E+02 0. -1.
          1    1    1    2  501    0  0.10862194221E+02  0.33254709543E+02  0.17347214107E+03  0.17696453514E+03  0.00000000000E+00 0. -1.
         -2    1    1    2    0  503 -0.20273431041E+02 -0.26946397133E+02  0.25377123422E+01  0.33816568551E+02  0.00000000000E+00 0.  1.
<mgrwt>
<rscale>  2 0.74959079E+02</rscale>
<asrwt>0</asrwt>
<pdfrwt beam="1">  1       21 0.32000547E-01 0.74959079E+02</pdfrwt>
<pdfrwt beam="2">  1       21 0.20040192E-01 0.74959079E+02</pdfrwt>
<totfact> 0.22267204E+05</totfact>
</mgrwt>
</event>
<event>
 5    1  0.2051810E+000  0.1122214E+03  0.7546771E-02  0.1256511E+00
         21   -1    0    0  501  502  0.00000000000E+00  0.00000000000E+00  0.10926710049E+04  0.10926710049E+04  0.00000000000E+00 0. -1.
         21   -1    0    0  502  503 -0.00000000000E+00 -0.00000000000E+00 -0.20343353017E+02  0.20343353017E+02  0.00000000000E+00 0.  1.
         24    1    1    2    0    0 -0.48723047259E+02  0.69627213737E+02  0.29744006436E+03  0.31962429830E+03  0.80419002446E+02 0.  1.
          1    1    1    2  501    0  0.48712953434E+02 -0.12468109756E+02  0.68516241918E+03  0.68700505548E+03  0.00000000000E+00 0. -1.
         -2    1    1    2    0  503  0.10093825684E-01 -0.57159103982E+02  0.89725168331E+02  0.10638500412E+03  0.00000000000E+00 0.  1.
<mgrwt>
<rscale>  2 0.11222139E+03</rscale>
<asrwt>0</asrwt>
<pdfrwt beam="1">  1       21 0.16810319E+00 0.11222139E+03</pdfrwt>
<pdfrwt beam="2">  1       21 0.31297475E-02 0.11222139E+03</pdfrwt>
<totfact> 0.13527458E+05</totfact>
</mgrwt>
</event>
<event>
 5    1  0.2051810E+000  0.7868363E+02  0.7546771E-02  0.1332829E+00
         21   -1    0    0  501  502  0.00000000000E+00  0.00000000000E+00  0.15843489143E+03  0.15843489143E+03  0.00000000000E+00 0. -1.
         21   -1    0    0  502  503 -0.00000000000E+00 -0.00000000000E+00 -0.50277213905E+03  0.50277213905E+03  0.00000000000E+00 0. -1.
         24    1    1    2    0    0  0.19005697740E+02 -0.35066839672E+02 -0.37082402496E+03  0.38153449809E+03  0.80419002446E+02 0. -1.
          1    1    1    2  501    0 -0.38310280277E+02  0.20772304661E+02  0.14878587731E+03  0.15503678113E+03  0.00000000000E+00 0. -1.
         -2    1    1    2    0  503  0.19304582537E+02  0.14294535011E+02 -0.12229909996E+03  0.12463575125E+03  0.00000000000E+00 0.  1.
<mgrwt>
<rscale>  2 0.78683635E+02</rscale>
<asrwt>0</asrwt>
<pdfrwt beam="1">  1       21 0.24374598E-01 0.78683635E+02</pdfrwt>
<pdfrwt beam="2">  1       21 0.77349561E-01 0.78683635E+02</pdfrwt>
<totfact> 0.25666446E+04</totfact>
</mgrwt>
</event>
<event>
 5    1  0.2051810E+000  0.7692782E+02  0.7546771E-02  0.1338003E+00
         21   -1    0    0  501  502  0.00000000000E+00  0.00000000000E+00  0.16123402836E+03  0.16123402836E+03  0.00000000000E+00 0. -1.
         21   -1    0    0  502  503 -0.00000000000E+00 -0.00000000000E+00 -0.62616426378E+02  0.62616426378E+02  0.00000000000E+00 0.  1.
         24    1    1    2    0    0 -0.12923786441E+01 -0.54640652720E+02 -0.27113195222E+01  0.97271981475E+02  0.80419002446E+02 0.  1.
          1    1    1    2  501    0  0.80376502017E+01  0.27101786185E+02  0.92740794816E+02  0.96953420044E+02  0.00000000000E+00 0. -1.
         -2    1    1    2    0  503 -0.67452715576E+01  0.27538866535E+02  0.85881266934E+01  0.29625053224E+02  0.00000000000E+00 0.  1.
<mgrwt>
<rscale>  2 0.76927824E+02</rscale>
<asrwt>0</asrwt>
<pdfrwt beam="1">  1       21 0.24805235E-01 0.76927824E+02</pdfrwt>
<pdfrwt beam="2">  1       21 0.96332964E-02 0.76927824E+02</pdfrwt>
<totfact> 0.13140061E+06</totfact>
</mgrwt>
</event>
<event>
 5    1  0.2051810E+000  0.8523785E+02  0.7546771E-02  0.1314812E+00
         21   -1    0    0  501  502  0.00000000000E+00  0.00000000000E+00  0.31087122785E+02  0.31087122785E+02  0.00000000000E+00 0. -1.
         21   -1    0    0  502  503 -0.00000000000E+00 -0.00000000000E+00 -0.24404808996E+03  0.24404808996E+03  0.00000000000E+00 0.  1.
         24    1    1    2    0    0 -0.13133448473E+01 -0.32842906474E+02 -0.10556320426E+03  0.13671571756E+03  0.80419002446E+02 0.  1.
          1    1    1    2  501    0  0.28625982172E+02 -0.12043085855E+02 -0.21663042545E+02  0.37865157923E+02  0.00000000000E+00 0. -1.
         -2    1    1    2    0  503 -0.27312637324E+02  0.44885992329E+02 -0.85734720376E+02  0.10055433727E+03  0.00000000000E+00 0.  1.
<mgrwt>
<rscale>  2 0.85237852E+02</rscale>
<asrwt>0</asrwt>
<pdfrwt beam="1">  1       21 0.47826340E-02 0.85237852E+02</pdfrwt>
<pdfrwt beam="2">  1       21 0.37545862E-01 0.85237852E+02</pdfrwt>
<totfact> 0.19492858E+06</totfact>
</mgrwt>
</event>
<event>
 5    1  0.2051810E+000  0.7055002E+02  0.7546771E-02  0.1358233E+00
         21   -1    0    0  503  502  0.00000000000E+00  0.00000000000E+00  0.82791898484E+03  0.82791898484E+03  0.00000000000E+00 0. -1.
         21   -1    0    0  501  503 -0.00000000000E+00 -0.00000000000E+00 -0.17723674445E+02  0.17723674445E+02  0.00000000000E+00 0. -1.
         24    1    1    2    0    0  0.10874629275E+02 -0.30468260300E+02  0.60989099258E+03  0.61602013866E+03  0.80419002446E+02 0. -1.
          1    1    1    2  501    0  0.14578501240E+02  0.24122640202E+02  0.58907384347E+00  0.28191868982E+02  0.00000000000E+00 0. -1.
         -2    1    1    2    0  502 -0.25453130515E+02  0.63456200981E+01  0.19971524397E+03  0.20143065164E+03  0.00000000000E+00 0.  1.
<mgrwt>
<rscale>  2 0.70550017E+02</rscale>
<asrwt>0</asrwt>
<pdfrwt beam="1">  1       21 0.12737212E+00 0.70550017E+02</pdfrwt>
<pdfrwt beam="2">  1       21 0.27267198E-02 0.70550017E+02</pdfrwt>
<totfact> 0.34895507E+05</totfact>
</mgrwt>
</event>
<event>
 5    1  0.2051810E+000  0.9651953E+02  0.7546771E-02  0.1287790E+00
         21   -1    0    0  503  502  0.00000000000E+00  0.00000000000E+00  0.44719012502E+03  0.44719012502E+03  0.00000000000E+00 0.  1.
         21   -1    0    0  501  503 -0.00000000000E+00 -0.00000000000E+00 -0.22870664742E+02  0.22870664742E+02  0.00000000000E+00 0. -1.
         24    1    1    2    0    0 -0.63917497308E+02 -0.31337799827E+01  0.22565439363E+03  0.24795642431E+03  0.80419002446E+02 0. -1.
          1    1    1    2  501    0  0.20636113580E+02 -0.29540924572E+02  0.37269076317E+02  0.51841098154E+02  0.00000000000E+00 0. -1.
         -2    1    1    2    0  502  0.43281383728E+02  0.32674704555E+02  0.16139599034E+03  0.17026326730E+03  0.00000000000E+00 0.  1.
<mgrwt>
<rscale>  2 0.96519530E+02</rscale>
<asrwt>0</asrwt>
<pdfrwt beam="1">  1       21 0.68798474E-01 0.96519530E+02</pdfrwt>
<pdfrwt beam="2">  1       21 0.35185641E-02 0.96519530E+02</pdfrwt>
<totfact> 0.93671457E+05</totfact>
</mgrwt>
</event>
<event>
 5    1  0.2051810E+000  0.8813209E+02  0.7546771E-02  0.1307439E+00
         21   -1    0    0  501  502  0.00000000000E+00  0.00000000000E+00  0.76751901598E+03  0.76751901598E+03  0.00000000000E+00 0.  1.
         21   -1    0    0  502  503 -0.00000000000E+00 -0.00000000000E+00 -0.15774404272E+02  0.15774404272E+02  0.00000000000E+00 0. -1.
         24    1    1    2    0    0  0.42453364015E+02  0.14715131361E+02  0.61741296873E+03  0.62424739736E+03  0.80419002446E+02 0.  1.
          1    1    1    2  501    0 -0.48809888354E+02 -0.36822341553E+02  0.10779194344E+03  0.12392494950E+03  0.00000000000E+00 0. -1.
         -2    1    1    2    0  503  0.63565243393E+01  0.22107210193E+02  0.26539699544E+02  0.35121073390E+02  0.00000000000E+00 0.  1.
<mgrwt>
<rscale>  2 0.88132087E+02</rscale>
<asrwt>0</asrwt>
<pdfrwt beam="1">  1       21 0.11807982E+00 0.88132087E+02</pdfrwt>
<pdfrwt beam="2">  1       21 0.24268320E-02 0.88132087E+02</pdfrwt>
<totfact> 0.50342704E+05</totfact>
</mgrwt>
</event>
<event>
 5    1  0.2051810E+000  0.6922441E+02  0.7546771E-02  0.1362750E+00
         21   -1    0    0  501  502  0.00000000000E+00  0.00000000000E+00  0.11987576462E+03  0.11987576462E+03  0.00000000000E+00 0. -1.
         21   -1    0    0  502  503 -0.00000000000E+00 -0.00000000000E+00 -0.72620439069E+02  0.72620439069E+02  0.00000000000E+00 0.  1.
         24    1    1    2    0    0 -0.17764227627E+02  0.72683960115E+00  0.52563272622E+02  0.97704706448E+02  0.80419002446E+02 0.  0.
          1    1    1    2  501    0  0.10840293715E+00 -0.25591868606E+02  0.35552389161E+02  0.43805568881E+02  0.00000000000E+00 0. -1.
         -2    1    1    2    0  503  0.17655824690E+02  0.24865029005E+02 -0.40860336237E+02  0.50985928355E+02  0.00000000000E+00 0.  1.
<mgrwt>
<rscale>  2 0.69224414E+02</rscale>
<asrwt>0</asrwt>
<pdfrwt beam="1">  1       21 0.18442425E-01 0.69224414E+02</pdfrwt>
<pdfrwt beam="2">  1       21 0.11172375E-01 0.69224414E+02</pdfrwt>
<totfact> 0.17430817E+06</totfact>
</mgrwt>
</event>
<event>
 5    1  0.2051810E+000  0.7083057E+02  0.7546771E-02  0.1357291E+00
         21   -1    0    0  503  502  0.00000000000E+00  0.00000000000E+00  0.31413887229E+03  0.31413887229E+03  0.00000000000E+00 0.  1.
         21   -1    0    0  501  503 -0.00000000000E+00 -0.00000000000E+00 -0.31333752147E+02  0.31333752147E+02  0.00000000000E+00 0. -1.
         24    1    1    2    0    0  0.16101624168E+02 -0.46147808698E+01  0.22872102792E+03  0.24302486102E+03  0.80419002446E+02 0.  1.
          1    1    1    2  501    0 -0.10685792491E+02  0.30891396666E+02 -0.89931508390E+01  0.33901936688E+02  0.00000000000E+00 0. -1.
         -2    1    1    2    0  502 -0.54158316768E+01 -0.26276615797E+02  0.63077243056E+02  0.68545826729E+02  0.00000000000E+00 0.  1.
<mgrwt>
<rscale>  2 0.70830575E+02</rscale>
<asrwt>0</asrwt>
<pdfrwt beam="1">  1       21 0.48329055E-01 0.70830575E+02</pdfrwt>
<pdfrwt beam="2">  1       21 0.48205775E-02 0.70830575E+02</pdfrwt>
<totfact> 0.11577014E+06</totfact>
</mgrwt>
</event>
<event>
 5    1  0.2051810E+000  0.7114674E+02  0.7546771E-02  0.1356236E+00
         21   -1    0    0  503  502  0.00000000000E+00  0.00000000000E+00  0.26737599289E+03  0.26737599289E+03  0.00000000000E+00 0. -1.
         21   -1    0    0  501  503 -0.00000000000E+00 -0.00000000000E+00 -0.32110926115E+02  0.32110926115E+02  0.00000000000E+00 0.  1.
         24    1    1    2    0    0 -0.34292097011E+02 -0.28605900642E+02  0.19927076132E+03  0.21947732853E+03  0.80419002446E+02 0. -1.
          1    1    1    2  501    0  0.11154803917E+02  0.24347779034E+02 -0.98061869249E+01  0.28520261154E+02  0.00000000000E+00 0. -1.
         -2    1    1    2    0  502  0.23137293093E+02  0.42581216084E+01  0.45800492384E+02  0.51489329321E+02  0.00000000000E+00 0.  1.
<mgrwt>
<rscale>  2 0.71146735E+02</rscale>
<asrwt>0</asrwt>
<pdfrwt beam="1">  1       21 0.41134767E-01 0.71146735E+02</pdfrwt>
<pdfrwt beam="2">  1       21 0.49401427E-02 0.71146735E+02</pdfrwt>
<totfact> 0.15334698E+06</totfact>
</mgrwt>
</event>
<event>
 5    1  0.2051810E+000  0.1154924E+03  0.7546771E-02  0.1250724E+00
         21   -1    0    0  501  502  0.00000000000E+00  0.00000000000E+00  0.27430155780E+03  0.27430155780E+03  0.00000000000E+00 0.  1.
         21   -1    0    0  502  503 -0.00000000000E+00 -0.00000000000E+00 -0.52994808950E+02  0.52994808950E+02  0.00000000000E+00 0. -1.
         24    1    1    2    0    0 -0.33945624497E+02  0.46636389922E+02  0.99717459875E+02  0.14049215653E+03  0.80419002446E+02 0.  0.
          1    1    1    2  501    0 -0.41674816674E+02 -0.37104220589E+02  0.86405991709E+02  0.10285673985E+03  0.00000000000E+00 0. -1.
         -2    1    1    2    0  503  0.75620441171E+02 -0.95321693335E+01  0.35183297270E+02  0.83947470372E+02  0.00000000000E+00 0.  1.
<mgrwt>
<rscale>  2 0.11549238E+03</rscale>
<asrwt>0</asrwt>
<pdfrwt beam="1">  1       21 0.42200239E-01 0.11549238E+03</pdfrwt>
<pdfrwt beam="2">  1       21 0.81530477E-02 0.11549238E+03</pdfrwt>
<totfact> 0.63152901E+05</totfact>
</mgrwt>
</event>
<event>
 5    1  0.2051810E+000  0.6988589E+02  0.7546771E-02  0.1360481E+00
         21   -1    0    0  501  502  0.00000000000E+00  0.00000000000E+00  0.13193901150E+03  0.13193901150E+03  0.00000000000E+00 0.  1.
         21   -1    0    0  502  503 -0.00000000000E+00 -0.00000000000E+00 -0.41808881307E+02  0.41808881307E+02  0.00000000000E+00 0. -1.
         24    1    1    2    0    0  0.35411604109E+01  0.50076203837E+01  0.45836233779E+02  0.92767410012E+02  0.80419002446E+02 0. -1.
          1    1    1    2  501    0 -0.24767986095E+02  0.15813312403E+02  0.41863744378E+02  0.51147698655E+02  0.00000000000E+00 0. -1.
         -2    1    1    2    0  503  0.21226825684E+02 -0.20820932787E+02  0.24301520382E+01  0.29832784142E+02  0.00000000000E+00 0.  1.
<mgrwt>
<rscale>  2 0.69885894E+02</rscale>
<asrwt>0</asrwt>
<pdfrwt beam="1">  1       21 0.20298309E-01 0.69885894E+02</pdfrwt>
<pdfrwt beam="2">  1       21 0.64321356E-02 0.69885894E+02</pdfrwt>
<totfact> 0.37524730E+06</totfact>
</mgrwt>
</event>
<event>
 5    1  0.2051810E+000  0.8753115E+02  0.7546771E-02  0.1308943E+00
         21   -1    0    0  503  502  0.00000000000E+00  0.00000000000E+00  0.28883784693E+02  0.28883784693E+02  0.00000000000E+00 0.  1.
         21   -1    0    0  501  503 -0.00000000000E+00 -0.00000000000E+00 -0.76706696095E+03  0.76706696095E+03  0.00000000000E+00 0. -1.
         24    1    1    2    0    0  0.26990776704E+02  0.20953789887E+02 -0.23589498050E+03  0.25155759006E+03  0.80419002446E+02 0.  1.
          1    1    1    2  501    0  0.20859872762E+00  0.29960366122E+02 -0.48241424425E+03  0.48334373908E+03  0.00000000000E+00 0. -1.
         -2    1    1    2    0  502 -0.27199375432E+02 -0.50914156008E+02 -0.19873951496E+02  0.61049416492E+02  0.00000000000E+00 0.  1.
<mgrwt>
<rscale>  2 0.87531146E+02</rscale>
<asrwt>0</asrwt>
<pdfrwt beam="1">  1       21 0.44436597E-02 0.87531146E+02</pdfrwt>
<pdfrwt beam="2">  1       21 0.11801029E+00 0.87531146E+02</pdfrwt>
<totfact> 0.18799382E+05</totfact>
</mgrwt>
</event>
<event>
 5    1  0.2051810E+000  0.7799574E+02  0.7546771E-02  0.1334837E+00
         21   -1    0    0  501  502  0.00000000000E+00  0.00000000000E+00  0.34604017301E+02  0.34604017301E+02  0.00000000000E+00 0. -1.
         21   -1    0    0  502  503 -0.00000000000E+00 -0.00000000000E+00 -0.18565839821E+03  0.18565839821E+03  0.00000000000E+00 0.  1.
         24    1    1    2    0    0 -0.36977293532E+02 -0.15389187462E+02 -0.70881649559E+02  0.11443588391E+03  0.80419002446E+02 0. -1.
          1    1    1    2  501    0  0.35455404506E+00  0.27557183111E+02 -0.18914163763E+02  0.33425583622E+02  0.00000000000E+00 0. -1.
         -2    1    1    2    0  503  0.36622739486E+02 -0.12167995650E+02 -0.61258567586E+02  0.72400947979E+02  0.00000000000E+00 0.  1.
<mgrwt>
<rscale>  2 0.77995744E+02</rscale>
<asrwt>0</asrwt>
<pdfrwt beam="1">  1       21 0.53236950E-02 0.77995744E+02</pdfrwt>
<pdfrwt beam="2">  1       21 0.28562830E-01 0.77995744E+02</pdfrwt>
<totfact> 0.27499836E+06</totfact>
</mgrwt>
</event>
<event>
 5    1  0.2051810E+000  0.1045991E+03  0.7546771E-02  0.1270911E+00
         21   -1    0    0  501  502  0.00000000000E+00  0.00000000000E+00  0.14007185190E+02  0.14007185190E+02  0.00000000000E+00 0.  1.
         21   -1    0    0  502  503 -0.00000000000E+00 -0.00000000000E+00 -0.15302959739E+04  0.15302959739E+04  0.00000000000E+00 0.  1.
         24    1    1    2    0    0  0.85568848414E+02  0.20515595497E+02 -0.81115561499E+03  0.81986801692E+03  0.80419002446E+02 0.  1.
          1    1    1    2  501    0 -0.61503463475E+02 -0.57820403439E+01 -0.92971685514E+02  0.11162366379E+03  0.00000000000E+00 0. -1.
         -2    1    1    2    0  503 -0.24065384939E+02 -0.14733555153E+02 -0.61216148824E+03  0.61281147842E+03  0.00000000000E+00 0.  1.
<mgrwt>
<rscale>  2 0.10459915E+03</rscale>
<asrwt>0</asrwt>
<pdfrwt beam="1">  1       21 0.21549524E-02 0.10459915E+03</pdfrwt>
<pdfrwt beam="2">  1       21 0.23543006E+00 0.10459915E+03</pdfrwt>
<totfact> 0.94764867E+04</totfact>
</mgrwt>
</event>
<event>
 5    1  0.2051810E+000  0.1303096E+03  0.7546771E-02  0.1226997E+00
         21   -1    0    0  501  502  0.00000000000E+00  0.00000000000E+00  0.78812950387E+03  0.78812950387E+03  0.00000000000E+00 0. -1.
         21   -1    0    0  502  503 -0.00000000000E+00 -0.00000000000E+00 -0.21772955029E+02  0.21772955029E+02  0.00000000000E+00 0. -1.
         24    1    1    2    0    0  0.20796413544E+02 -0.89563558884E+02  0.31834300493E+03  0.34097449558E+03  0.80419002446E+02 0. -1.
          1    1    1    2  501    0 -0.47450545772E+02  0.99327941553E+02  0.35899897955E+03  0.37549681967E+03  0.00000000000E+00 0. -1.
         -2    1    1    2    0  503  0.26654132229E+02 -0.97643826685E+01  0.89014564361E+02  0.93431143642E+02  0.00000000000E+00 0.  1.
<mgrwt>
<rscale>  2 0.13030962E+03</rscale>
<asrwt>0</asrwt>
<pdfrwt beam="1">  1       21 0.12125067E+00 0.13030962E+03</pdfrwt>
<pdfrwt beam="2">  1       21 0.33496860E-02 0.13030962E+03</pdfrwt>
<totfact> 0.27637811E+05</totfact>
</mgrwt>
</event>
<event>
 5    1  0.2051810E+000  0.1615781E+03  0.7546771E-02  0.1186926E+00
         21   -1    0    0  503  502  0.00000000000E+00  0.00000000000E+00  0.58724614614E+03  0.58724614614E+03  0.00000000000E+00 0.  1.
         21   -1    0    0  501  503 -0.00000000000E+00 -0.00000000000E+00 -0.54154123671E+02  0.54154123671E+02  0.00000000000E+00 0.  1.
         24    1    1    2    0    0  0.11954872042E+03 -0.49388034874E+02  0.22006847614E+03  0.26763487196E+03  0.80419002446E+02 0.  1.
          1    1    1    2  501    0 -0.32402446072E+02 -0.36280445344E+02  0.13820338808E+02  0.50568675982E+02  0.00000000000E+00 0. -1.
         -2    1    1    2    0  502 -0.87146274353E+02  0.85668480218E+02  0.29920320752E+03  0.32319672187E+03  0.00000000000E+00 0.  1.
<mgrwt>
<rscale>  2 0.16157815E+03</rscale>
<asrwt>0</asrwt>
<pdfrwt beam="1">  1       21 0.90345556E-01 0.16157815E+03</pdfrwt>
<pdfrwt beam="2">  1       21 0.83314041E-02 0.16157815E+03</pdfrwt>
<totfact> 0.11787100E+05</totfact>
</mgrwt>
</event>
<event>
 5    1  0.2051810E+000  0.9728553E+02  0.7546771E-02  0.1286110E+00
         21   -1    0    0  501  502  0.00000000000E+00  0.00000000000E+00  0.40041805588E+02  0.40041805588E+02  0.00000000000E+00 0.  1.
         21   -1    0    0  502  503 -0.00000000000E+00 -0.00000000000E+00 -0.29110539232E+03  0.29110539232E+03  0.00000000000E+00 0.  1.
         24    1    1    2    0    0 -0.78192002493E+02 -0.98547697590E+00 -0.86684243892E+02  0.14176154102E+03  0.80419002446E+02 0.  1.
          1    1    1    2  501    0  0.44213009082E+02  0.13440806293E+02 -0.44465458523E+02  0.64129731386E+02  0.00000000000E+00 0. -1.
         -2    1    1    2    0  503  0.33978993411E+02 -0.12455329317E+02 -0.11991388432E+03  0.12525592550E+03  0.00000000000E+00 0.  1.
<mgrwt>
<rscale>  2 0.97285529E+02</rscale>
<asrwt>0</asrwt>
<pdfrwt beam="1">  1       21 0.61602779E-02 0.97285529E+02</pdfrwt>
<pdfrwt beam="2">  1       21 0.44785444E-01 0.97285529E+02</pdfrwt>
<totfact> 0.90248742E+05</totfact>
</mgrwt>
</event>
<event>
 5    1  0.2051810E+000  0.8793592E+02  0.7546771E-02  0.1307929E+00
         21   -1    0    0  501  502  0.00000000000E+00  0.00000000000E+00  0.46926769855E+03  0.46926769855E+03  0.00000000000E+00 0. -1.
         21   -1    0    0  502  503 -0.00000000000E+00 -0.00000000000E+00 -0.16670514318E+02  0.16670514318E+02  0.00000000000E+00 0.  1.
         24    1    1    2    0    0 -0.45446184355E+02 -0.45791772917E+02  0.28817871529E+03  0.30606605503E+03  0.80419002446E+02 0. -1.
          1    1    1    2  501    0  0.21747019215E+02  0.43908288023E+02  0.10482141662E+03  0.11570825374E+03  0.00000000000E+00 0. -1.
         -2    1    1    2    0  503  0.23699165140E+02  0.18834848933E+01  0.59597052323E+02  0.64163904099E+02  0.00000000000E+00 0.  1.
<mgrwt>
<rscale>  2 0.87935917E+02</rscale>
<asrwt>0</asrwt>
<pdfrwt beam="1">  1       21 0.72195020E-01 0.87935917E+02</pdfrwt>
<pdfrwt beam="2">  1       21 0.25646949E-02 0.87935917E+02</pdfrwt>
<totfact> 0.14096790E+06</totfact>
</mgrwt>
</event>
<event>
 5    1  0.2051810E+000  0.7520218E+02  0.7546771E-02  0.1343246E+00
         21   -1    0    0  503  502  0.00000000000E+00  0.00000000000E+00  0.19599154613E+02  0.19599154613E+02  0.00000000000E+00 0.  1.
         21   -1    0    0  501  503 -0.00000000000E+00 -0.00000000000E+00 -0.49353652111E+03  0.49353652111E+03  0.00000000000E+00 0. -1.
         24    1    1    2    0    0  0.11764152610E+02 -0.60013854097E+01 -0.19797591488E+03  0.21409364947E+03  0.80419002446E+02 0. -1.
          1    1    1    2  501    0 -0.21940755270E+02 -0.26758719807E+02 -0.25801833565E+03  0.26032842211E+03  0.00000000000E+00 0. -1.
         -2    1    1    2    0  502  0.10176602660E+02  0.32760105216E+02 -0.17943115965E+02  0.38713604147E+02  0.00000000000E+00 0.  1.
<mgrwt>
<rscale>  2 0.75202182E+02</rscale>
<asrwt>0</asrwt>
<pdfrwt beam="1">  1       21 0.30152547E-02 0.75202182E+02</pdfrwt>
<pdfrwt beam="2">  1       21 0.75928692E-01 0.75202182E+02</pdfrwt>
<totfact> 0.96969884E+05</totfact>
</mgrwt>
</event>
<event>
 5    1  0.2051810E+000  0.8132632E+02  0.7546771E-02  0.1325329E+00
         21   -1    0    0  501  502  0.00000000000E+00  0.00000000000E+00  0.30837459700E+03  0.30837459700E+03  0.00000000000E+00 0. -1.
         21   -1    0    0  502  503 -0.00000000000E+00 -0.00000000000E+00 -0.30157954756E+02  0.30157954756E+02  0.00000000000E+00 0.  1.
         24    1    1    2    0    0 -0.21169375108E+02  0.55128181509E+02  0.17585849671E+03  0.20218972689E+03  0.80419002446E+02 0. -1.
          1    1    1    2  501    0  0.20541800680E+02 -0.23364058976E+02  0.99723448573E+02  0.10446344347E+03  0.00000000000E+00 0. -1.
         -2    1    1    2    0  503  0.62757442839E+00 -0.31764122533E+02  0.26346969567E+01  0.31879381393E+02  0.00000000000E+00 0.  1.
<mgrwt>
<rscale>  2 0.81326320E+02</rscale>
<asrwt>0</asrwt>
<pdfrwt beam="1">  1       21 0.47442243E-01 0.81326320E+02</pdfrwt>
<pdfrwt beam="2">  1       21 0.46396856E-02 0.81326320E+02</pdfrwt>
<totfact> 0.12851707E+06</totfact>
</mgrwt>
</event>
<event>
 5    1  0.2051810E+000  0.9004583E+02  0.7546771E-02  0.1302741E+00
         21   -1    0    0  503  502  0.00000000000E+00  0.00000000000E+00  0.63321803994E+02  0.63321803994E+02  0.00000000000E+00 0.  1.
         21   -1    0    0  501  503 -0.00000000000E+00 -0.00000000000E+00 -0.47818114229E+03  0.47818114229E+03  0.00000000000E+00 0. -1.
         24    1    1    2    0    0 -0.12270160686E+02  0.23922293699E+02 -0.40813102749E+02  0.94105038598E+02  0.80419002446E+02 0.  0.
          1    1    1    2  501    0  0.29789262206E+02 -0.53319034846E+02 -0.39988195310E+03  0.40451933951E+03  0.00000000000E+00 0. -1.
         -2    1    1    2    0  502 -0.17519101520E+02  0.29396741147E+02  0.25835717550E+02  0.42878568183E+02  0.00000000000E+00 0.  1.
<mgrwt>
<rscale>  2 0.90045826E+02</rscale>
<asrwt>0</asrwt>
<pdfrwt beam="1">  1       21 0.97418161E-02 0.90045826E+02</pdfrwt>
<pdfrwt beam="2">  1       21 0.73566329E-01 0.90045826E+02</pdfrwt>
<totfact> 0.14639602E+05</totfact>
</mgrwt>
</event>
<event>
 5    1  0.2051810E+000  0.1078897E+03  0.7546771E-02  0.1264528E+00
         21   -1    0    0  501  502  0.00000000000E+00  0.00000000000E+00  0.85514090320E+01  0.85514090320E+01  0.00000000000E+00 0.  1.
         21   -1    0    0  502  503 -0.00000000000E+00 -0.00000000000E+00 -0.15899896941E+04  0.15899896941E+04  0.00000000000E+00 0. -1.
         24    1    1    2    0    0  0.27427092654E+02 -0.20279688108E+02 -0.93261036662E+03  0.93669249119E+03  0.80419002446E+02 0. -1.
          1    1    1    2  501    0 -0.68501519068E+02 -0.19523321015E+02 -0.29839530788E+03  0.30677903765E+03  0.00000000000E+00 0. -1.
         -2    1    1    2    0  503  0.41074426414E+02  0.39803009124E+02 -0.35043261062E+03  0.35506957434E+03  0.00000000000E+00 0.  1.
<mgrwt>
<rscale>  2 0.10788971E+03</rscale>
<asrwt>0</asrwt>
<pdfrwt beam="1">  1       21 0.13156017E-02 0.10788971E+03</pdfrwt>
<pdfrwt beam="2">  1       21 0.24461374E+00 0.10788971E+03</pdfrwt>
<totfact> 0.18394821E+05</totfact>
</mgrwt>
</event>
<event>
 5    1  0.2051810E+000  0.7571921E+02  0.7546771E-02  0.1341658E+00
         21   -1    0    0  501  502  0.00000000000E+00  0.00000000000E+00  0.75841843179E+01  0.75841843179E+01  0.00000000000E+00 0. -1.
         21   -1    0    0  502  503 -0.00000000000E+00 -0.00000000000E+00 -0.13346681966E+04  0.13346681966E+04  0.00000000000E+00 0.  1.
         24    1    1    2    0    0  0.14539108587E+02 -0.11870485079E+02 -0.35286097769E+03  0.36239533610E+03  0.80419002446E+02 0.  0.
          1    1    1    2  501    0 -0.10458591590E+02 -0.27424881946E+02 -0.88238756560E+02  0.92992389189E+02  0.00000000000E+00 0. -1.
         -2    1    1    2    0  503 -0.40805169971E+01  0.39295367024E+02 -0.88598427802E+03  0.88686465562E+03  0.00000000000E+00 0.  1.
<mgrwt>
<rscale>  2 0.75719208E+02</rscale>
<asrwt>0</asrwt>
<pdfrwt beam="1">  1       21 0.11667988E-02 0.75719208E+02</pdfrwt>
<pdfrwt beam="2">  1       21 0.20533336E+00 0.75719208E+02</pdfrwt>
<totfact> 0.38635307E+05</totfact>
</mgrwt>
</event>
<event>
 5    1  0.2051810E+000  0.2048275E+03  0.7546771E-02  0.1145729E+00
         21   -1    0    0  501  502  0.00000000000E+00  0.00000000000E+00  0.24482676430E+03  0.24482676430E+03  0.00000000000E+00 0. -1.
         21   -1    0    0  502  503 -0.00000000000E+00 -0.00000000000E+00 -0.58349802122E+03  0.58349802122E+03  0.00000000000E+00 0.  1.
         24    1    1    2    0    0  0.78775543514E+02 -0.13752351228E+03 -0.89353893132E+01  0.17794763225E+03  0.80419002446E+02 0. -1.
          1    1    1    2  501    0 -0.97551170345E+02  0.16908520716E+03  0.99823740202E+02  0.21925058090E+03  0.00000000000E+00 0. -1.
         -2    1    1    2    0  503  0.18775626831E+02 -0.31561694872E+02 -0.42955960781E+03  0.43112657237E+03  0.00000000000E+00 0.  1.
<mgrwt>
<rscale>  2 0.20482750E+03</rscale>
<asrwt>0</asrwt>
<pdfrwt beam="1">  1       21 0.37665657E-01 0.20482750E+03</pdfrwt>
<pdfrwt beam="2">  1       21 0.89768925E-01 0.20482750E+03</pdfrwt>
<totfact> 0.71201530E+03</totfact>
</mgrwt>
</event>
<event>
 5    1  0.2051810E+000  0.7614763E+02  0.7546771E-02  0.1340354E+00
         21   -1    0    0  503  502  0.00000000000E+00  0.00000000000E+00  0.48836376882E+01  0.48836376882E+01  0.00000000000E+00 0.  1.
         21   -1    0    0  501  503 -0.00000000000E+00 -0.00000000000E+00 -0.14089476688E+04  0.14089476688E+04  0.00000000000E+00 0. -1.
         24    1    1    2    0    0  0.22008765906E+02 -0.47705679207E+02 -0.11136172652E+04  0.11177525876E+04  0.80419002446E+02 0. -1.
          1    1    1    2  501    0 -0.53341443122E+01  0.34649688852E+02 -0.20920088310E+03  0.21211804149E+03  0.00000000000E+00 0. -1.
         -2    1    1    2    0  502 -0.16674621594E+02  0.13055990355E+02 -0.81245882795E+02  0.83960677466E+02  0.00000000000E+00 0.  1.
<mgrwt>
<rscale>  2 0.76147631E+02</rscale>
<asrwt>0</asrwt>
<pdfrwt beam="1">  1       21 0.75132906E-03 0.76147631E+02</pdfrwt>
<pdfrwt beam="2">  1       21 0.21676113E+00 0.76147631E+02</pdfrwt>
<totfact> 0.65478098E+05</totfact>
</mgrwt>
</event>
<event>
 5    1  0.2051810E+000  0.7439492E+02  0.7546771E-02  0.1345755E+00
         21   -1    0    0  501  502  0.00000000000E+00  0.00000000000E+00  0.34079451367E+02  0.34079451367E+02  0.00000000000E+00 0. -1.
         21   -1    0    0  502  503 -0.00000000000E+00 -0.00000000000E+00 -0.25551095090E+03  0.25551095090E+03  0.00000000000E+00 0. -1.
         24    1    1    2    0    0  0.77793607605E+01  0.30172742149E+02 -0.11367874368E+03  0.14269192528E+03  0.80419002446E+02 0. -1.
          1    1    1    2  501    0 -0.28642361561E+02 -0.37621419171E+01  0.49216762817E+01  0.29304632484E+02  0.00000000000E+00 0. -1.
         -2    1    1    2    0  503  0.20863000801E+02 -0.26410600231E+02 -0.11267443214E+03  0.11759384450E+03  0.00000000000E+00 0.  1.
<mgrwt>
<rscale>  2 0.74394917E+02</rscale>
<asrwt>0</asrwt>
<pdfrwt beam="1">  1       21 0.52429927E-02 0.74394917E+02</pdfrwt>
<pdfrwt beam="2">  1       21 0.39309376E-01 0.74394917E+02</pdfrwt>
<totfact> 0.15220727E+06</totfact>
</mgrwt>
</event>
<event>
 5    1  0.2051810E+000  0.1196804E+03  0.7546771E-02  0.1243625E+00
         21   -1    0    0  503  502  0.00000000000E+00  0.00000000000E+00  0.63551142409E+03  0.63551142409E+03  0.00000000000E+00 0.  1.
         21   -1    0    0  501  503 -0.00000000000E+00 -0.00000000000E+00 -0.11350068388E+03  0.11350068388E+03  0.00000000000E+00 0.  1.
         24    1    1    2    0    0  0.89127039591E+02  0.44991261900E+02  0.83961888563E+02  0.15324704734E+03  0.80419002446E+02 0.  1.
          1    1    1    2  501    0 -0.59063410635E+02 -0.25078782424E+01 -0.66248144776E+02  0.88789597450E+02  0.00000000000E+00 0. -1.
         -2    1    1    2    0  502 -0.30063628956E+02 -0.42483383658E+02  0.50429699642E+03  0.50697546318E+03  0.00000000000E+00 0.  1.
<mgrwt>
<rscale>  2 0.11968035E+03</rscale>
<asrwt>0</asrwt>
<pdfrwt beam="1">  1       21 0.97770986E-01 0.11968035E+03</pdfrwt>
<pdfrwt beam="2">  1       21 0.17461644E-01 0.11968035E+03</pdfrwt>
<totfact> 0.26946863E+04</totfact>
</mgrwt>
</event>
<event>
 5    1  0.2051810E+000  0.6691423E+02  0.7546771E-02  0.1370912E+00
         21   -1    0    0  501  502  0.00000000000E+00  0.00000000000E+00  0.21299422880E+02  0.21299422880E+02  0.00000000000E+00 0.  1.
         21   -1    0    0  502  503 -0.00000000000E+00 -0.00000000000E+00 -0.26406720665E+03  0.26406720665E+03  0.00000000000E+00 0. -1.
         24    1    1    2    0    0 -0.19592083601E+02 -0.32921287872E+02 -0.21442546134E+03  0.23219206567E+03  0.80419002446E+02 0. -1.
          1    1    1    2  501    0  0.19911570089E+02  0.10847879665E+02 -0.11610317550E+02  0.25474430126E+02  0.00000000000E+00 0. -1.
         -2    1    1    2    0  503 -0.31948648793E+00  0.22073408206E+02 -0.16732004878E+02  0.27700133731E+02  0.00000000000E+00 0.  1.
<mgrwt>
<rscale>  2 0.66914229E+02</rscale>
<asrwt>0</asrwt>
<pdfrwt beam="1">  1       21 0.32768344E-02 0.66914229E+02</pdfrwt>
<pdfrwt beam="2">  1       21 0.40625723E-01 0.66914229E+02</pdfrwt>
<totfact> 0.30654829E+06</totfact>
</mgrwt>
</event>
<event>
 5    1  0.2051810E+000  0.1060550E+03  0.7546771E-02  0.1268055E+00
         21   -1    0    0  501  502  0.00000000000E+00  0.00000000000E+00  0.23566961362E+03  0.23566961362E+03  0.00000000000E+00 0. -1.
         21   -1    0    0  502  503 -0.00000000000E+00 -0.00000000000E+00 -0.48337157121E+02  0.48337157121E+02  0.00000000000E+00 0.  1.
         24    1    1    2    0    0  0.34302227294E+02 -0.48734230818E+02  0.98883605274E+02  0.14070128428E+03  0.80419002446E+02 0.  0.
          1    1    1    2  501    0 -0.59246108652E+02  0.22822157817E+01  0.38614446748E+02  0.70755815287E+02  0.00000000000E+00 0. -1.
         -2    1    1    2    0  503  0.24943881359E+02  0.46452015037E+02  0.49834404474E+02  0.72549671174E+02  0.00000000000E+00 0.  1.
<mgrwt>
<rscale>  2 0.10605500E+03</rscale>
<asrwt>0</asrwt>
<pdfrwt beam="1">  1       21 0.36256863E-01 0.10605500E+03</pdfrwt>
<pdfrwt beam="2">  1       21 0.74364858E-02 0.10605500E+03</pdfrwt>
<totfact> 0.99893163E+05</totfact>
</mgrwt>
</event>
<event>
 5    1  0.2051810E+000  0.9022118E+02  0.7546771E-02  0.1302317E+00
         21   -1    0    0  501  502  0.00000000000E+00  0.00000000000E+00  0.13104103648E+02  0.13104103648E+02  0.00000000000E+00 0.  1.
         21   -1    0    0  502  503 -0.00000000000E+00 -0.00000000000E+00 -0.16531358682E+04  0.16531358682E+04  0.00000000000E+00 0.  1.
         24    1    1    2    0    0  0.34102900484E+02 -0.35936108938E+02 -0.65462555561E+03  0.66140475184E+03  0.80419002446E+02 0.  1.
          1    1    1    2  501    0 -0.18159863664E+02 -0.20474563438E+02 -0.12367573255E+02  0.30032403575E+02  0.00000000000E+00 0. -1.
         -2    1    1    2    0  503 -0.15943036820E+02  0.56410672377E+02 -0.97303863566E+03  0.97480281641E+03  0.00000000000E+00 0.  1.
<mgrwt>
<rscale>  2 0.90221181E+02</rscale>
<asrwt>0</asrwt>
<pdfrwt beam="1">  1       21 0.20160157E-02 0.90221181E+02</pdfrwt>
<pdfrwt beam="2">  1       21 0.25432862E+00 0.90221181E+02</pdfrwt>
<totfact> 0.83792076E+04</totfact>
</mgrwt>
</event>
<event>
 5    1  0.2051810E+000  0.9543657E+02  0.7546771E-02  0.1290196E+00
         21   -1    0    0  503  502  0.00000000000E+00  0.00000000000E+00  0.63669173868E+02  0.63669173868E+02  0.00000000000E+00 0.  1.
         21   -1    0    0  501  503 -0.00000000000E+00 -0.00000000000E+00 -0.14570716538E+03  0.14570716538E+03  0.00000000000E+00 0. -1.
         24    1    1    2    0    0  0.30495506797E+01 -0.17261404732E+02 -0.36114750805E+02  0.89881850408E+02  0.80419002446E+02 0.  1.
          1    1    1    2  501    0 -0.19622844997E+02  0.59787045106E+02 -0.36976000457E+02  0.72984734144E+02  0.00000000000E+00 0. -1.
         -2    1    1    2    0  502  0.16573294317E+02 -0.42525640374E+02 -0.89472402499E+01  0.46509754696E+02  0.00000000000E+00 0.  1.
<mgrwt>
<rscale>  2 0.95436573E+02</rscale>
<asrwt>0</asrwt>
<pdfrwt beam="1">  1       21 0.97952576E-02 0.95436573E+02</pdfrwt>
<pdfrwt beam="2">  1       21 0.22416487E-01 0.95436573E+02</pdfrwt>
<totfact> 0.15511483E+06</totfact>
</mgrwt>
</event>
<event>
 5    1  0.2199383E+000  0.9158669E+02  0.7546771E-02  0.1299054E+00
         21   -1    0    0  503  502  0.00000000000E+00  0.00000000000E+00  0.88183188942E+03  0.88183188942E+03  0.00000000000E+00 0.  1.
         21   -1    0    0  501  503 -0.00000000000E+00 -0.00000000000E+00 -0.69028311264E+02  0.69028311264E+02  0.00000000000E+00 0. -1.
         24    1    1    2    0    0  0.26060686260E+02  0.37945955375E+02  0.44079682869E+03  0.45043103250E+03  0.80419002446E+02 0.  1.
          1    1    1    2  501    0  0.27014366570E+02 -0.35048180927E+01 -0.58904141984E+02  0.64898056164E+02  0.00000000000E+00 0. -1.
         -2    1    1    2    0  502 -0.53075052831E+02 -0.34441137282E+02  0.43091089145E+03  0.43553111202E+03  0.00000000000E+00 0.  1.
<mgrwt>
<rscale>  2 0.91586691E+02</rscale>
<asrwt>0</asrwt>
<pdfrwt beam="1">  1       21 0.13566644E+00 0.91586691E+02</pdfrwt>
<pdfrwt beam="2">  1       21 0.10619741E-01 0.91586691E+02</pdfrwt>
<totfact> 0.30498288E+04</totfact>
</mgrwt>
</event>
<event>
 5    1  0.2051810E+000  0.6362221E+02  0.7546771E-02  0.1383230E+00
         21   -1    0    0  503  502  0.00000000000E+00  0.00000000000E+00  0.17498080343E+02  0.17498080343E+02  0.00000000000E+00 0.  1.
         21   -1    0    0  501  503 -0.00000000000E+00 -0.00000000000E+00 -0.69035844053E+03  0.69035844053E+03  0.00000000000E+00 0. -1.
         24    1    1    2    0    0  0.54915657280E+01  0.59409259076E+00 -0.28567149394E+03  0.29682642848E+03  0.80419002446E+02 0.  0.
          1    1    1    2  501    0  0.16459783899E+02 -0.13397955027E+02 -0.38493291571E+03  0.38551754731E+03  0.00000000000E+00 0. -1.
         -2    1    1    2    0  502 -0.21951349627E+02  0.12803862436E+02 -0.22559505320E+01  0.25512545081E+02  0.00000000000E+00 0.  1.
<mgrwt>
<rscale>  2 0.63622206E+02</rscale>
<asrwt>0</asrwt>
<pdfrwt beam="1">  1       21 0.26920123E-02 0.63622206E+02</pdfrwt>
<pdfrwt beam="2">  1       21 0.10620900E+00 0.63622206E+02</pdfrwt>
<totfact> 0.54763750E+05</totfact>
</mgrwt>
</event>
<event>
 5    1  0.2051810E+000  0.8774917E+02  0.7546771E-02  0.1308396E+00
         21   -1    0    0  501  502  0.00000000000E+00  0.00000000000E+00  0.64513109557E+02  0.64513109557E+02  0.00000000000E+00 0. -1.
         21   -1    0    0  502  503 -0.00000000000E+00 -0.00000000000E+00 -0.36318107259E+03  0.36318107259E+03  0.00000000000E+00 0. -1.
         24    1    1    2    0    0 -0.63083746557E+02 -0.15760114245E+02 -0.26509676175E+03  0.28455482657E+03  0.80419002446E+02 0. -1.
          1    1    1    2  501    0  0.42779192080E+02 -0.49658693232E+01  0.43241751284E+02  0.61029240428E+02  0.00000000000E+00 0. -1.
         -2    1    1    2    0  503  0.20304554477E+02  0.20725983568E+02 -0.76812952562E+02  0.82110115142E+02  0.00000000000E+00 0.  1.
<mgrwt>
<rscale>  2 0.87749170E+02</rscale>
<asrwt>0</asrwt>
<pdfrwt beam="1">  1       21 0.99250937E-02 0.87749170E+02</pdfrwt>
<pdfrwt beam="2">  1       21 0.55874012E-01 0.87749170E+02</pdfrwt>
<totfact> 0.25447566E+05</totfact>
</mgrwt>
</event>
<event>
 5    1  0.2051810E+000  0.1233616E+03  0.7546771E-02  0.1237652E+00
         21   -1    0    0  501  502  0.00000000000E+00  0.00000000000E+00  0.16231483139E+04  0.16231483139E+04  0.00000000000E+00 0. -1.
         21   -1    0    0  502  503 -0.00000000000E+00 -0.00000000000E+00 -0.92467754375E+02  0.92467754375E+02  0.00000000000E+00 0.  1.
         24    1    1    2    0    0 -0.13862500211E+02 -0.89570236946E+02  0.45113691732E+03  0.46712603266E+03  0.80419002446E+02 0.  0.
          1    1    1    2  501    0  0.33991204716E+02  0.98002227455E+02  0.11602538247E+04  0.11648814430E+04  0.00000000000E+00 0. -1.
         -2    1    1    2    0  503 -0.20128704505E+02 -0.84319905094E+01 -0.80710182458E+02  0.83608592629E+02  0.00000000000E+00 0.  1.
<mgrwt>
<rscale>  2 0.12336164E+03</rscale>
<asrwt>0</asrwt>
<pdfrwt beam="1">  1       21 0.24971510E+00 0.12336164E+03</pdfrwt>
<pdfrwt beam="2">  1       21 0.14225810E-01 0.12336164E+03</pdfrwt>
<totfact> 0.31569762E+03</totfact>
</mgrwt>
</event>
<event>
 5    1  0.2053262E+000  0.1629190E+03  0.7546771E-02  0.1185440E+00
         21   -1    0    0  501  502  0.00000000000E+00  0.00000000000E+00  0.26620599048E+03  0.26620599048E+03  0.00000000000E+00 0. -1.
         21   -1    0    0  502  503 -0.00000000000E+00 -0.00000000000E+00 -0.16917295497E+03  0.16917295497E+03  0.00000000000E+00 0.  1.
         24    1    1    2    0    0  0.83921670751E+01 -0.79080561375E+02  0.35789232700E+02  0.11862650963E+03  0.80419002446E+02 0. -1.
          1    1    1    2  501    0  0.28279498100E+02  0.13934946772E+03  0.14779659497E+03  0.20508982825E+03  0.00000000000E+00 0. -1.
         -2    1    1    2    0  503 -0.36671665175E+02 -0.60268906345E+02 -0.86552792162E+02  0.11166260757E+03  0.00000000000E+00 0.  1.
<mgrwt>
<rscale>  2 0.16291897E+03</rscale>
<asrwt>0</asrwt>
<pdfrwt beam="1">  1       21 0.40954768E-01 0.16291897E+03</pdfrwt>
<pdfrwt beam="2">  1       21 0.26026609E-01 0.16291897E+03</pdfrwt>
<totfact> 0.81551884E+04</totfact>
</mgrwt>
</event>
<event>
 5    1  0.2051810E+000  0.9236223E+02  0.7546771E-02  0.1297230E+00
         21   -1    0    0  503  502  0.00000000000E+00  0.00000000000E+00  0.91745354615E+03  0.91745354615E+03  0.00000000000E+00 0.  1.
         21   -1    0    0  501  503 -0.00000000000E+00 -0.00000000000E+00 -0.26629370096E+02  0.26629370096E+02  0.00000000000E+00 0.  1.
         24    1    1    2    0    0  0.73119141493E+02  0.15928445016E+02  0.15988813933E+03  0.19398854931E+03  0.80419002446E+02 0.  1.
          1    1    1    2  501    0 -0.25126426380E+02 -0.43012900804E+01  0.98645906490E+01  0.27334018139E+02  0.00000000000E+00 0. -1.
         -2    1    1    2    0  502 -0.47992715113E+02 -0.11627154936E+02  0.72107144608E+03  0.72276034879E+03  0.00000000000E+00 0.  1.
<mgrwt>
<rscale>  2 0.92362229E+02</rscale>
<asrwt>0</asrwt>
<pdfrwt beam="1">  1       21 0.14114667E+00 0.92362229E+02</pdfrwt>
<pdfrwt beam="2">  1       21 0.40968269E-02 0.92362229E+02</pdfrwt>
<totfact> 0.13827844E+05</totfact>
</mgrwt>
</event>
<event>
 5    1  0.2051810E+000  0.7222352E+02  0.7546771E-02  0.1352691E+00
         21   -1    0    0  501  502  0.00000000000E+00  0.00000000000E+00  0.30717104292E+02  0.30717104292E+02  0.00000000000E+00 0. -1.
         21   -1    0    0  502  503 -0.00000000000E+00 -0.00000000000E+00 -0.25074376728E+03  0.25074376728E+03  0.00000000000E+00 0. -1.
         24    1    1    2    0    0 -0.19008225199E+02  0.41842780723E+02 -0.13579167257E+03  0.16437373640E+03  0.80419002446E+02 0. -1.
          1    1    1    2  501    0 -0.25057809780E+01 -0.23258016622E+02  0.45766539762E+01  0.23836107843E+02  0.00000000000E+00 0. -1.
         -2    1    1    2    0  503  0.21514006177E+02 -0.18584764102E+02 -0.88811644391E+02  0.93251027329E+02  0.00000000000E+00 0.  1.
<mgrwt>
<rscale>  2 0.72223521E+02</rscale>
<asrwt>0</asrwt>
<pdfrwt beam="1">  1       21 0.47257081E-02 0.72223521E+02</pdfrwt>
<pdfrwt beam="2">  1       21 0.38575966E-01 0.72223521E+02</pdfrwt>
<totfact> 0.18730457E+06</totfact>
</mgrwt>
</event>
<event>
 5    1  0.2051810E+000  0.9458137E+02  0.7546771E-02  0.1292122E+00
         21   -1    0    0  501  502  0.00000000000E+00  0.00000000000E+00  0.17841214458E+03  0.17841214458E+03  0.00000000000E+00 0. -1.
         21   -1    0    0  502  503 -0.00000000000E+00 -0.00000000000E+00 -0.73440277186E+02  0.73440277186E+02  0.00000000000E+00 0.  1.
         24    1    1    2    0    0  0.30994185758E+02 -0.17329212524E+02  0.56259283980E+02  0.10437080121E+03  0.80419002446E+02 0.  1.
          1    1    1    2  501    0  0.16736982524E+02 -0.29797823075E+02  0.69340223136E+02  0.77305261067E+02  0.00000000000E+00 0. -1.
         -2    1    1    2    0  503 -0.47731168282E+02  0.47127035599E+02 -0.20627639724E+02  0.70176359485E+02  0.00000000000E+00 0.  1.
<mgrwt>
<rscale>  2 0.94581366E+02</rscale>
<asrwt>0</asrwt>
<pdfrwt beam="1">  1       21 0.27448022E-01 0.94581366E+02</pdfrwt>
<pdfrwt beam="2">  1       21 0.11298504E-01 0.94581366E+02</pdfrwt>
<totfact> 0.82782040E+05</totfact>
</mgrwt>
</event>
<event>
 5    1  0.2051810E+000  0.1144302E+03  0.7546771E-02  0.1252579E+00
         21   -1    0    0  503  502  0.00000000000E+00  0.00000000000E+00  0.45468226538E+03  0.45468226538E+03  0.00000000000E+00 0.  1.
         21   -1    0    0  501  503 -0.00000000000E+00 -0.00000000000E+00 -0.55951129343E+02  0.55951129343E+02  0.00000000000E+00 0. -1.
         24    1    1    2    0    0 -0.79414460418E+02 -0.43673382575E+02  0.37641333219E+03  0.39543423407E+03  0.80419002446E+02 0.  1.
          1    1    1    2  501    0  0.15784599733E+02  0.41083818906E+02 -0.78931608474E+01  0.44713932424E+02  0.00000000000E+00 0. -1.
         -2    1    1    2    0  502  0.63629860685E+02  0.25895636689E+01  0.30210964693E+02  0.70485228229E+02  0.00000000000E+00 0.  1.
<mgrwt>
<rscale>  2 0.11443022E+03</rscale>
<asrwt>0</asrwt>
<pdfrwt beam="1">  1       21 0.69951115E-01 0.11443022E+03</pdfrwt>
<pdfrwt beam="2">  1       21 0.86078663E-02 0.11443022E+03</pdfrwt>
<totfact> 0.20051914E+05</totfact>
</mgrwt>
</event>
<event>
 5    1  0.2051810E+000  0.8431535E+02  0.7546771E-02  0.1317233E+00
         21   -1    0    0  501  502  0.00000000000E+00  0.00000000000E+00  0.18329819963E+02  0.18329819963E+02  0.00000000000E+00 0.  1.
         21   -1    0    0  502  503 -0.00000000000E+00 -0.00000000000E+00 -0.57353503645E+03  0.57353503645E+03  0.00000000000E+00 0.  1.
         24    1    1    2    0    0  0.22401578979E+02  0.17987569282E+02 -0.12826282882E+03  0.15409072847E+03  0.80419002446E+02 0.  1.
          1    1    1    2  501    0 -0.94940953252E+01  0.31079667606E+02 -0.69187939814E+02  0.76439875721E+02  0.00000000000E+00 0. -1.
         -2    1    1    2    0  503 -0.12907483654E+02 -0.49067236888E+02 -0.35775444785E+03  0.36133425222E+03  0.00000000000E+00 0.  1.
<mgrwt>
<rscale>  2 0.84315350E+02</rscale>
<asrwt>0</asrwt>
<pdfrwt beam="1">  1       21 0.28199720E-02 0.84315350E+02</pdfrwt>
<pdfrwt beam="2">  1       21 0.88236168E-01 0.84315350E+02</pdfrwt>
<totfact> 0.77634893E+05</totfact>
</mgrwt>
</event>
<event>
 5    1  0.2051810E+000  0.1188216E+03  0.7546771E-02  0.1245054E+00
         21   -1    0    0  503  502  0.00000000000E+00  0.00000000000E+00  0.31509904615E+02  0.31509904615E+02  0.00000000000E+00 0.  1.
         21   -1    0    0  501  503 -0.00000000000E+00 -0.00000000000E+00 -0.12610224147E+04  0.12610224147E+04  0.00000000000E+00 0. -1.
         24    1    1    2    0    0  0.50690694596E+02  0.73075334761E+01 -0.42429868264E+03  0.43487875852E+03  0.80419002446E+02 0. -1.
          1    1    1    2  501    0 -0.80119285173E+02  0.37684349470E+02 -0.79859259550E+03  0.80348574576E+03  0.00000000000E+00 0. -1.
         -2    1    1    2    0  502  0.29428590577E+02 -0.44991882947E+02 -0.66212319525E+01  0.54167815047E+02  0.00000000000E+00 0.  1.
<mgrwt>
<rscale>  2 0.11882164E+03</rscale>
<asrwt>0</asrwt>
<pdfrwt beam="1">  1       21 0.48476778E-02 0.11882164E+03</pdfrwt>
<pdfrwt beam="2">  1       21 0.19400344E+00 0.11882164E+03</pdfrwt>
<totfact> 0.43966885E+04</totfact>
</mgrwt>
</event>
<event>
 5    1  0.2051810E+000  0.1187547E+03  0.7546771E-02  0.1245166E+00
         21   -1    0    0  503  502  0.00000000000E+00  0.00000000000E+00  0.18485613990E+03  0.18485613990E+03  0.00000000000E+00 0.  1.
         21   -1    0    0  501  503 -0.00000000000E+00 -0.00000000000E+00 -0.78108874579E+02  0.78108874579E+02  0.00000000000E+00 0.  1.
         24    1    1    2    0    0 -0.53740999445E+02  0.37425987699E+02  0.36538978687E+02  0.10995959483E+03  0.80419002446E+02 0.  1.
          1    1    1    2  501    0  0.48658912854E+02  0.35791440269E+02  0.18318389774E+02  0.63121156521E+02  0.00000000000E+00 0. -1.
         -2    1    1    2    0  502  0.50820865907E+01 -0.73217427968E+02  0.51889896857E+02  0.89884263128E+02  0.00000000000E+00 0.  1.
<mgrwt>
<rscale>  2 0.11875471E+03</rscale>
<asrwt>0</asrwt>
<pdfrwt beam="1">  1       21 0.28439406E-01 0.11875471E+03</pdfrwt>
<pdfrwt beam="2">  1       21 0.12016750E-01 0.11875471E+03</pdfrwt>
<totfact> 0.69527047E+05</totfact>
</mgrwt>
</event>
<event>
 5    1  0.2051810E+000  0.1148428E+03  0.7546771E-02  0.1251856E+00
         21   -1    0    0  503  502  0.00000000000E+00  0.00000000000E+00  0.17819616205E+02  0.17819616205E+02  0.00000000000E+00 0.  1.
         21   -1    0    0  501  503 -0.00000000000E+00 -0.00000000000E+00 -0.20131845808E+04  0.20131845808E+04  0.00000000000E+00 0. -1.
         24    1    1    2    0    0 -0.14566429199E+02 -0.69118279313E+02 -0.23088824010E+03  0.25449187170E+03  0.80419002446E+02 0.  1.
          1    1    1    2  501    0 -0.43022371492E+02  0.36786618263E+02 -0.15720236390E+04  0.15730424346E+04  0.00000000000E+00 0. -1.
         -2    1    1    2    0  502  0.57588800691E+02  0.32331661050E+02 -0.19245308552E+03  0.20346989064E+03  0.00000000000E+00 0.  1.
<mgrwt>
<rscale>  2 0.11484279E+03</rscale>
<asrwt>0</asrwt>
<pdfrwt beam="1">  1       21 0.27414802E-02 0.11484279E+03</pdfrwt>
<pdfrwt beam="2">  1       21 0.30972062E+00 0.11484279E+03</pdfrwt>
<totfact> 0.24236751E+04</totfact>
</mgrwt>
</event>
<event>
 5    1  0.2051810E+000  0.9084646E+02  0.7546771E-02  0.1300815E+00
         21   -1    0    0  503  502  0.00000000000E+00  0.00000000000E+00  0.46837572647E+03  0.46837572647E+03  0.00000000000E+00 0.  1.
         21   -1    0    0  501  503 -0.00000000000E+00 -0.00000000000E+00 -0.18361850078E+02  0.18361850078E+02  0.00000000000E+00 0.  1.
         24    1    1    2    0    0  0.26386778746E+02  0.21704166831E+02  0.16964096160E+03  0.19082087087E+03  0.80419002446E+02 0.  1.
          1    1    1    2  501    0  0.13842849990E+02  0.27483562278E+02  0.80264377975E+02  0.85961276532E+02  0.00000000000E+00 0. -1.
         -2    1    1    2    0  502 -0.40229628736E+02 -0.49187729109E+02  0.20010853682E+03  0.20995542915E+03  0.00000000000E+00 0.  1.
<mgrwt>
<rscale>  2 0.90846459E+02</rscale>
<asrwt>0</asrwt>
<pdfrwt beam="1">  1       21 0.72057795E-01 0.90846459E+02</pdfrwt>
<pdfrwt beam="2">  1       21 0.28249004E-02 0.90846459E+02</pdfrwt>
<totfact> 0.12115105E+06</totfact>
</mgrwt>
</event>
<event>
 5    1  0.2051810E+000  0.6546353E+02  0.7546771E-02  0.1376236E+00
         21   -1    0    0  501  502  0.00000000000E+00  0.00000000000E+00  0.21411477979E+02  0.21411477979E+02  0.00000000000E+00 0.  1.
         21   -1    0    0  502  503 -0.00000000000E+00 -0.00000000000E+00 -0.29799933066E+03  0.29799933066E+03  0.00000000000E+00 0.  1.
         24    1    1    2    0    0 -0.82130256985E+01  0.80541585050E+01 -0.87069659977E+02  0.11908259698E+03  0.80419002446E+02 0.  1.
          1    1    1    2  501    0 -0.14783642171E+02 -0.19120117342E+02 -0.28805101602E+02  0.37601447329E+02  0.00000000000E+00 0. -1.
         -2    1    1    2    0  503  0.22996667869E+02  0.11065958837E+02 -0.16071309110E+03  0.16272676433E+03  0.00000000000E+00 0.  1.
<mgrwt>
<rscale>  2 0.65463527E+02</rscale>
<asrwt>0</asrwt>
<pdfrwt beam="1">  1       21 0.32940736E-02 0.65463527E+02</pdfrwt>
<pdfrwt beam="2">  1       21 0.45846050E-01 0.65463527E+02</pdfrwt>
<totfact> 0.23894380E+06</totfact>
</mgrwt>
</event>
<event>
 5    1  0.2051810E+000  0.7308029E+02  0.7546771E-02  0.1349921E+00
         21   -1    0    0  501  502  0.00000000000E+00  0.00000000000E+00  0.69415518908E+02  0.69415518908E+02  0.00000000000E+00 0.  1.
         21   -1    0    0  502  503 -0.00000000000E+00 -0.00000000000E+00 -0.28898192473E+03  0.28898192473E+03  0.00000000000E+00 0.  1.
         24    1    1    2    0    0 -0.39074859897E+02  0.61098745832E+01  0.36009844461E+02  0.96582089933E+02  0.80419002446E+02 0.  1.
          1    1    1    2  501    0  0.32281809888E+02  0.14096144887E+02 -0.14648069076E+03  0.15065659400E+03  0.00000000000E+00 0. -1.
         -2    1    1    2    0  503  0.67930500087E+01 -0.20206019471E+02 -0.10909555953E+03  0.11115875971E+03  0.00000000000E+00 0.  1.
<mgrwt>
<rscale>  2 0.73080295E+02</rscale>
<asrwt>0</asrwt>
<pdfrwt beam="1">  1       21 0.10679310E-01 0.73080295E+02</pdfrwt>
<pdfrwt beam="2">  1       21 0.44458758E-01 0.73080295E+02</pdfrwt>
<totfact> 0.35771290E+05</totfact>
</mgrwt>
</event>
<event>
 5    1  0.2051810E+000  0.7242676E+02  0.7546771E-02  0.1352030E+00
         21   -1    0    0  503  502  0.00000000000E+00  0.00000000000E+00  0.79246314617E+02  0.79246314617E+02  0.00000000000E+00 0. -1.
         21   -1    0    0  501  503 -0.00000000000E+00 -0.00000000000E+00 -0.10747443772E+03  0.10747443772E+03  0.00000000000E+00 0.  1.
         24    1    1    2    0    0  0.13581705971E+02  0.16954715228E+02 -0.66280022966E+02  0.10645272427E+03  0.80419002446E+02 0.  1.
          1    1    1    2  501    0  0.16196476353E+02 -0.25822414241E+02 -0.83488750665E+00  0.30492949360E+02  0.00000000000E+00 0. -1.
         -2    1    1    2    0  502 -0.29778182324E+02  0.88676990131E+01  0.38886787371E+02  0.49775078708E+02  0.00000000000E+00 0.  1.
<mgrwt>
<rscale>  2 0.72426764E+02</rscale>
<asrwt>0</asrwt>
<pdfrwt beam="1">  1       21 0.12191741E-01 0.72426764E+02</pdfrwt>
<pdfrwt beam="2">  1       21 0.16534529E-01 0.72426764E+02</pdfrwt>
<totfact> 0.18257110E+06</totfact>
</mgrwt>
</event>
<event>
 5    1  0.2051810E+000  0.8334210E+02  0.7546771E-02  0.1319826E+00
         21   -1    0    0  503  502  0.00000000000E+00  0.00000000000E+00  0.12588833485E+03  0.12588833485E+03  0.00000000000E+00 0. -1.
         21   -1    0    0  501  503 -0.00000000000E+00 -0.00000000000E+00 -0.12759498771E+03  0.12759498771E+03  0.00000000000E+00 0. -1.
         24    1    1    2    0    0 -0.29629277684E+02  0.40691713224E+02  0.14971077780E+02  0.96047169377E+02  0.80419002446E+02 0. -1.
          1    1    1    2  501    0  0.24860349716E+02  0.54274688583E+01 -0.77148259350E+02  0.81236373177E+02  0.00000000000E+00 0. -1.
         -2    1    1    2    0  502  0.47689279675E+01 -0.46119182082E+02  0.60470528711E+02  0.76199780003E+02  0.00000000000E+00 0.  1.
<mgrwt>
<rscale>  2 0.83342105E+02</rscale>
<asrwt>0</asrwt>
<pdfrwt beam="1">  1       21 0.19367436E-01 0.83342105E+02</pdfrwt>
<pdfrwt beam="2">  1       21 0.19629998E-01 0.83342105E+02</pdfrwt>
<totfact> 0.58930867E+05</totfact>
</mgrwt>
</event>
<event>
 5    1  0.2051810E+000  0.7185902E+02  0.7546771E-02  0.1353883E+00
         21   -1    0    0  503  502  0.00000000000E+00  0.00000000000E+00  0.69892230692E+02  0.69892230692E+02  0.00000000000E+00 0.  1.
         21   -1    0    0  501  503 -0.00000000000E+00 -0.00000000000E+00 -0.16243740523E+03  0.16243740523E+03  0.00000000000E+00 0. -1.
         24    1    1    2    0    0  0.25667688284E+02  0.21488086650E+02  0.34112906157E+02  0.93549315393E+02  0.80419002446E+02 0.  0.
          1    1    1    2  501    0 -0.35728151780E+02 -0.33705536771E+01 -0.84473468971E+02  0.91780326986E+02  0.00000000000E+00 0. -1.
         -2    1    1    2    0  502  0.10060463495E+02 -0.18117532973E+02 -0.42184611718E+02  0.46999993538E+02  0.00000000000E+00 0.  1.
<mgrwt>
<rscale>  2 0.71859020E+02</rscale>
<asrwt>0</asrwt>
<pdfrwt beam="1">  1       21 0.10752651E-01 0.71859020E+02</pdfrwt>
<pdfrwt beam="2">  1       21 0.24990370E-01 0.71859020E+02</pdfrwt>
<totfact> 0.10697397E+06</totfact>
</mgrwt>
</event>
<event>
 5    1  0.2051810E+000  0.9794411E+02  0.7546771E-02  0.1284680E+00
         21   -1    0    0  503  502  0.00000000000E+00  0.00000000000E+00  0.58430681385E+01  0.58430681385E+01  0.00000000000E+00 0. -1.
         21   -1    0    0  501  503 -0.00000000000E+00 -0.00000000000E+00 -0.20386857658E+04  0.20386857658E+04  0.00000000000E+00 0.  1.
         24    1    1    2    0    0  0.10770270269E+02 -0.47729341325E+02 -0.57608605901E+03  0.58372635034E+03  0.80419002446E+02 0.  0.
          1    1    1    2  501    0 -0.49771252457E+02  0.34543295227E+02 -0.11021663239E+04  0.11038301601E+04  0.00000000000E+00 0. -1.
         -2    1    1    2    0  502  0.39000982188E+02  0.13186046098E+02 -0.35459031482E+03  0.35697232356E+03  0.00000000000E+00 0.  1.
<mgrwt>
<rscale>  2 0.97944110E+02</rscale>
<asrwt>0</asrwt>
<pdfrwt beam="1">  1       21 0.89893316E-03 0.97944110E+02</pdfrwt>
<pdfrwt beam="2">  1       21 0.31364410E+00 0.97944110E+02</pdfrwt>
<totfact> 0.13975964E+05</totfact>
</mgrwt>
</event>
<event>
 5    1  0.2051810E+000  0.6718194E+02  0.7546771E-02  0.1369947E+00
         21   -1    0    0  503  502  0.00000000000E+00  0.00000000000E+00  0.10793826898E+03  0.10793826898E+03  0.00000000000E+00 0. -1.
         21   -1    0    0  501  503 -0.00000000000E+00 -0.00000000000E+00 -0.16194370577E+03  0.16194370577E+03  0.00000000000E+00 0.  1.
         24    1    1    2    0    0 -0.14354963299E+02 -0.20295791024E+02  0.86321076288E+02  0.12056752577E+03  0.80419002446E+02 0. -1.
          1    1    1    2  501    0 -0.77103858430E+01  0.26230895974E+02 -0.62862739139E+02  0.68550958604E+02  0.00000000000E+00 0. -1.
         -2    1    1    2    0  502  0.22065349142E+02 -0.59351049495E+01 -0.77463773940E+02  0.80763490369E+02  0.00000000000E+00 0.  1.
<mgrwt>
<rscale>  2 0.67181939E+02</rscale>
<asrwt>0</asrwt>
<pdfrwt beam="1">  1       21 0.16605888E-01 0.67181939E+02</pdfrwt>
<pdfrwt beam="2">  1       21 0.24914416E-01 0.67181939E+02</pdfrwt>
<totfact> 0.50084536E+05</totfact>
</mgrwt>
</event>
<event>
 5    1  0.2051810E+000  0.7875449E+02  0.7546771E-02  0.1332624E+00
         21   -1    0    0  501  502  0.00000000000E+00  0.00000000000E+00  0.87366271229E+03  0.87366271229E+03  0.00000000000E+00 0.  1.
         21   -1    0    0  502  503 -0.00000000000E+00 -0.00000000000E+00 -0.87574032841E+01  0.87574032841E+01  0.00000000000E+00 0.  1.
         24    1    1    2    0    0  0.31195108276E+02  0.23439721429E+02  0.38711975887E+03  0.39730527178E+03  0.80419002446E+02 0.  1.
          1    1    1    2  501    0 -0.27310921198E+01 -0.36644163009E+02  0.39291765422E+03  0.39463215346E+03  0.00000000000E+00 0. -1.
         -2    1    1    2    0  503 -0.28464016156E+02  0.13204441580E+02  0.84867895912E+02  0.90482690332E+02  0.00000000000E+00 0.  1.
<mgrwt>
<rscale>  2 0.78754488E+02</rscale>
<asrwt>0</asrwt>
<pdfrwt beam="1">  1       21 0.13440958E+00 0.78754488E+02</pdfrwt>
<pdfrwt beam="2">  1       21 0.13472935E-02 0.78754488E+02</pdfrwt>
<totfact> 0.93803852E+05</totfact>
</mgrwt>
</event>
<event>
 5    1  0.2051810E+000  0.6913000E+02  0.7546771E-02  0.1363077E+00
         21   -1    0    0  501  502  0.00000000000E+00  0.00000000000E+00  0.44053345403E+03  0.44053345403E+03  0.00000000000E+00 0. -1.
         21   -1    0    0  502  503 -0.00000000000E+00 -0.00000000000E+00 -0.29901837753E+02  0.29901837753E+02  0.00000000000E+00 0.  1.
         24    1    1    2    0    0  0.61545001834E+01 -0.44373710756E+02  0.21452439024E+03  0.23344128607E+03  0.80419002446E+02 0. -1.
          1    1    1    2  501    0  0.26463593359E+01  0.22064238414E+02  0.20871814406E+03  0.20989782632E+03  0.00000000000E+00 0. -1.
         -2    1    1    2    0  503 -0.88008595193E+01  0.22309472342E+02 -0.12610918021E+02  0.27096179395E+02  0.00000000000E+00 0.  1.
<mgrwt>
<rscale>  2 0.69130005E+02</rscale>
<asrwt>0</asrwt>
<pdfrwt beam="1">  1       21 0.67774373E-01 0.69130005E+02</pdfrwt>
<pdfrwt beam="2">  1       21 0.46002830E-02 0.69130005E+02</pdfrwt>
<totfact> 0.62076832E+05</totfact>
</mgrwt>
</event>
<event>
 5    1  0.2051810E+000  0.7589841E+02  0.7546771E-02  0.1341111E+00
         21   -1    0    0  503  502  0.00000000000E+00  0.00000000000E+00  0.35251154628E+02  0.35251154628E+02  0.00000000000E+00 0. -1.
         21   -1    0    0  501  503 -0.00000000000E+00 -0.00000000000E+00 -0.26205084255E+03  0.26205084255E+03  0.00000000000E+00 0. -1.
         24    1    1    2    0    0 -0.15627732117E+02  0.38162983996E+02 -0.20947492138E+03  0.22813942666E+03  0.80419002446E+02 0. -1.
          1    1    1    2  501    0 -0.97670262090E+01 -0.34386384502E+02 -0.23470636142E+02  0.42763173421E+02  0.00000000000E+00 0. -1.
         -2    1    1    2    0  502  0.25394758326E+02 -0.37765994938E+01  0.61458695904E+01  0.26399397099E+02  0.00000000000E+00 0.  1.
<mgrwt>
<rscale>  2 0.75898407E+02</rscale>
<asrwt>0</asrwt>
<pdfrwt beam="1">  1       21 0.54232547E-02 0.75898407E+02</pdfrwt>
<pdfrwt beam="2">  1       21 0.40315513E-01 0.75898407E+02</pdfrwt>
<totfact> 0.13701478E+06</totfact>
</mgrwt>
</event>
<event>
 5    1  0.2051810E+000  0.1768517E+03  0.7546771E-02  0.1170885E+00
         21   -1    0    0  501  502  0.00000000000E+00  0.00000000000E+00  0.39097897193E+02  0.39097897193E+02  0.00000000000E+00 0.  1.
         21   -1    0    0  502  503 -0.00000000000E+00 -0.00000000000E+00 -0.12325589385E+04  0.12325589385E+04  0.00000000000E+00 0.  1.
         24    1    1    2    0    0  0.32581899652E+02 -0.10824500131E+03 -0.16001314865E+03  0.21177814852E+03  0.80419002446E+02 0.  1.
          1    1    1    2  501    0  0.54872887951E+02 -0.21140720108E+02 -0.12544815583E+03  0.13854675629E+03  0.00000000000E+00 0. -1.
         -2    1    1    2    0  503 -0.87454787603E+02  0.12938572142E+03 -0.90799973683E+03  0.92133193088E+03  0.00000000000E+00 0.  1.
<mgrwt>
<rscale>  2 0.17685170E+03</rscale>
<asrwt>0</asrwt>
<pdfrwt beam="1">  1       21 0.60150622E-02 0.17685170E+03</pdfrwt>
<pdfrwt beam="2">  1       21 0.18962442E+00 0.17685170E+03</pdfrwt>
<totfact> 0.31139567E+04</totfact>
</mgrwt>
</event>
<event>
 5    1  0.2172432E+000  0.2118294E+03  0.7546771E-02  0.1140125E+00
         21   -1    0    0  503  502  0.00000000000E+00  0.00000000000E+00  0.29738440058E+03  0.29738440058E+03  0.00000000000E+00 0.  1.
         21   -1    0    0  501  503 -0.00000000000E+00 -0.00000000000E+00 -0.15258285769E+03  0.15258285769E+03  0.00000000000E+00 0. -1.
         24    1    1    2    0    0 -0.15429101753E+03 -0.12056573641E+03  0.57464078045E+02  0.21934254286E+03  0.80419002446E+02 0.  1.
          1    1    1    2  501    0  0.12765865271E+03  0.13142226479E+03  0.65725498928E+02  0.19464938866E+03  0.00000000000E+00 0. -1.
         -2    1    1    2    0  502  0.26632364819E+02 -0.10856528378E+02  0.21611965915E+02  0.35975326753E+02  0.00000000000E+00 0.  1.
<mgrwt>
<rscale>  2 0.21182940E+03</rscale>
<asrwt>0</asrwt>
<pdfrwt beam="1">  1       21 0.45751446E-01 0.21182940E+03</pdfrwt>
<pdfrwt beam="2">  1       21 0.23474286E-01 0.21182940E+03</pdfrwt>
<totfact> 0.77562441E+04</totfact>
</mgrwt>
</event>
<event>
 5    1  0.2051810E+000  0.1078126E+03  0.7546771E-02  0.1264675E+00
         21   -1    0    0  501  502  0.00000000000E+00  0.00000000000E+00  0.10387565715E+04  0.10387565715E+04  0.00000000000E+00 0. -1.
         21   -1    0    0  502  503 -0.00000000000E+00 -0.00000000000E+00 -0.15858963757E+02  0.15858963757E+02  0.00000000000E+00 0. -1.
         24    1    1    2    0    0  0.87774522550E+02 -0.29163559692E+02  0.83064208712E+03  0.83963585731E+03  0.80419002446E+02 0. -1.
          1    1    1    2  501    0 -0.43363409604E+02  0.19814866151E+02  0.12556395257E+03  0.13431053718E+03  0.00000000000E+00 0. -1.
         -2    1    1    2    0  503 -0.44411112946E+02  0.93486935412E+01  0.66691568084E+02  0.80669140801E+02  0.00000000000E+00 0.  1.
<mgrwt>
<rscale>  2 0.10781261E+03</rscale>
<asrwt>0</asrwt>
<pdfrwt beam="1">  1       21 0.15980865E+00 0.10781261E+03</pdfrwt>
<pdfrwt beam="2">  1       21 0.24398414E-02 0.10781261E+03</pdfrwt>
<totfact> 0.23258316E+05</totfact>
</mgrwt>
</event>
<event>
 5    1  0.2051810E+000  0.7240424E+02  0.7546771E-02  0.1352103E+00
         21   -1    0    0  501  502  0.00000000000E+00  0.00000000000E+00  0.56430299675E+01  0.56430299675E+01  0.00000000000E+00 0. -1.
         21   -1    0    0  502  503 -0.00000000000E+00 -0.00000000000E+00 -0.94396758452E+03  0.94396758452E+03  0.00000000000E+00 0. -1.
         24    1    1    2    0    0  0.97230898877E+01 -0.18765693916E+02 -0.58258735507E+03  0.58849123357E+03  0.80419002446E+02 0. -1.
          1    1    1    2  501    0 -0.24157045655E+02  0.33323278415E+02 -0.21598810908E+03  0.21987466203E+03  0.00000000000E+00 0. -1.
         -2    1    1    2    0  503  0.14433955767E+02 -0.14557584499E+02 -0.13974909040E+03  0.14124471889E+03  0.00000000000E+00 0.  1.
<mgrwt>
<rscale>  2 0.72404238E+02</rscale>
<asrwt>0</asrwt>
<pdfrwt beam="1">  1       21 0.86815917E-03 0.72404238E+02</pdfrwt>
<pdfrwt beam="2">  1       21 0.14522566E+00 0.72404238E+02</pdfrwt>
<totfact> 0.15354594E+06</totfact>
</mgrwt>
</event>
<event>
 5    1  0.2051810E+000  0.6179628E+02  0.7546771E-02  0.1390445E+00
         21   -1    0    0  503  502  0.00000000000E+00  0.00000000000E+00  0.13123059890E+03  0.13123059890E+03  0.00000000000E+00 0. -1.
         21   -1    0    0  501  503 -0.00000000000E+00 -0.00000000000E+00 -0.11695577154E+03  0.11695577154E+03  0.00000000000E+00 0. -1.
         24    1    1    2    0    0 -0.15320713489E+01  0.12214136192E+02  0.81316839536E+02  0.11502685213E+03  0.80419002446E+02 0. -1.
          1    1    1    2  501    0  0.20768359888E+02 -0.32749273556E+01 -0.95431848820E+02  0.97720456869E+02  0.00000000000E+00 0. -1.
         -2    1    1    2    0  502 -0.19236288539E+02 -0.89392088362E+01  0.28389836638E+02  0.35439061440E+02  0.00000000000E+00 0.  1.
<mgrwt>
<rscale>  2 0.61796281E+02</rscale>
<asrwt>0</asrwt>
<pdfrwt beam="1">  1       21 0.20189323E-01 0.61796281E+02</pdfrwt>
<pdfrwt beam="2">  1       21 0.17993196E-01 0.61796281E+02</pdfrwt>
<totfact> 0.63717671E+05</totfact>
</mgrwt>
</event>
<event>
 5    1  0.2051810E+000  0.7069009E+02  0.7546771E-02  0.1357762E+00
         21   -1    0    0  501  502  0.00000000000E+00  0.00000000000E+00  0.48803559855E+02  0.48803559855E+02  0.00000000000E+00 0. -1.
         21   -1    0    0  502  503 -0.00000000000E+00 -0.00000000000E+00 -0.23079178043E+03  0.23079178043E+03  0.00000000000E+00 0. -1.
         24    1    1    2    0    0 -0.23434916691E+02  0.12793197919E+02 -0.10283039214E+03  0.13324476251E+03  0.80419002446E+02 0. -1.
          1    1    1    2  501    0  0.76182761319E+01  0.19363819616E+02  0.27125908659E+02  0.34187871562E+02  0.00000000000E+00 0. -1.
         -2    1    1    2    0  503  0.15816640559E+02 -0.32157017535E+02 -0.10628373709E+03  0.11216270621E+03  0.00000000000E+00 0.  1.
<mgrwt>
<rscale>  2 0.70690088E+02</rscale>
<asrwt>0</asrwt>
<pdfrwt beam="1">  1       21 0.75082399E-02 0.70690088E+02</pdfrwt>
<pdfrwt beam="2">  1       21 0.35506428E-01 0.70690088E+02</pdfrwt>
<totfact> 0.10153927E+06</totfact>
</mgrwt>
</event>
<event>
 5    1  0.2051810E+000  0.1176390E+03  0.7546771E-02  0.1247044E+00
         21   -1    0    0  501  502  0.00000000000E+00  0.00000000000E+00  0.48710125934E+03  0.48710125934E+03  0.00000000000E+00 0.  1.
         21   -1    0    0  502  503 -0.00000000000E+00 -0.00000000000E+00 -0.32985925425E+02  0.32985925425E+02  0.00000000000E+00 0. -1.
         24    1    1    2    0    0 -0.40233805335E+02  0.51007136944E+02  0.16679999695E+03  0.19623950175E+03  0.80419002446E+02 0.  0.
          1    1    1    2  501    0 -0.96526055755E+01  0.32896090026E+02  0.15883197183E+03  0.16248975601E+03  0.00000000000E+00 0. -1.
         -2    1    1    2    0  503  0.49886410910E+02 -0.83903226970E+02  0.12848336514E+03  0.16135792700E+03  0.00000000000E+00 0.  1.
<mgrwt>
<rscale>  2 0.11763896E+03</rscale>
<asrwt>0</asrwt>
<pdfrwt beam="1">  1       21 0.74938650E-01 0.11763896E+03</pdfrwt>
<pdfrwt beam="2">  1       21 0.50747581E-02 0.11763896E+03</pdfrwt>
<totfact> 0.42338956E+05</totfact>
</mgrwt>
</event>
<event>
 5    1  0.2051810E+000  0.7166563E+02  0.7546771E-02  0.1354519E+00
         21   -1    0    0  501  502  0.00000000000E+00  0.00000000000E+00  0.10066272325E+02  0.10066272325E+02  0.00000000000E+00 0. -1.
         21   -1    0    0  502  503 -0.00000000000E+00 -0.00000000000E+00 -0.11086987256E+04  0.11086987256E+04  0.00000000000E+00 0. -1.
         24    1    1    2    0    0 -0.23154051984E+02 -0.24794740088E+02 -0.82325743723E+03  0.82787131438E+03  0.80419002446E+02 0. -1.
          1    1    1    2  501    0  0.33372897488E+02  0.49631560151E+01 -0.32010258705E+02  0.46508492415E+02  0.00000000000E+00 0. -1.
         -2    1    1    2    0  503 -0.10218845503E+02  0.19831584073E+02 -0.24336475737E+03  0.24438519117E+03  0.00000000000E+00 0.  1.
<mgrwt>
<rscale>  2 0.71665627E+02</rscale>
<asrwt>0</asrwt>
<pdfrwt beam="1">  1       21 0.15486577E-02 0.71665627E+02</pdfrwt>
<pdfrwt beam="2">  1       21 0.17056898E+00 0.71665627E+02</pdfrwt>
<totfact> 0.41190681E+05</totfact>
</mgrwt>
</event>
<event>
 5    1  0.2051810E+000  0.1097141E+03  0.7546771E-02  0.1261100E+00
         21   -1    0    0  501  502  0.00000000000E+00  0.00000000000E+00  0.60679215987E+03  0.60679215987E+03  0.00000000000E+00 0. -1.
         21   -1    0    0  502  503 -0.00000000000E+00 -0.00000000000E+00 -0.10229398142E+03  0.10229398142E+03  0.00000000000E+00 0. -1.
         24    1    1    2    0    0  0.48682114963E+01  0.16821652416E+02 -0.56025517285E+02  0.99562754154E+02  0.80419002446E+02 0. -1.
          1    1    1    2  501    0  0.51273995110E+01 -0.76471474338E+02  0.54036133804E+03  0.54576968793E+03  0.00000000000E+00 0. -1.
         -2    1    1    2    0  503 -0.99956110073E+01  0.59649821922E+02  0.20162357696E+02  0.63753699207E+02  0.00000000000E+00 0.  1.
<mgrwt>
<rscale>  2 0.10971415E+03</rscale>
<asrwt>0</asrwt>
<pdfrwt beam="1">  1       21 0.93352638E-01 0.10971415E+03</pdfrwt>
<pdfrwt beam="2">  1       21 0.15737536E-01 0.10971415E+03</pdfrwt>
<totfact> 0.36468437E+04</totfact>
</mgrwt>
</event>
<event>
 5    1  0.2051810E+000  0.9132738E+02  0.7546771E-02  0.1299669E+00
         21   -1    0    0  503  502  0.00000000000E+00  0.00000000000E+00  0.93355208148E+03  0.93355208148E+03  0.00000000000E+00 0.  1.
         21   -1    0    0  501  503 -0.00000000000E+00 -0.00000000000E+00 -0.16072038704E+02  0.16072038704E+02  0.00000000000E+00 0. -1.
         24    1    1    2    0    0 -0.22463258933E+02 -0.50562348512E+02  0.17314494082E+03  0.19876502603E+03  0.80419002446E+02 0. -1.
          1    1    1    2  501    0  0.44652626750E+02  0.24936667949E+02  0.24013985885E+03  0.24552565302E+03  0.00000000000E+00 0. -1.
         -2    1    1    2    0  502 -0.22189367817E+02  0.25625680563E+02  0.50419524310E+03  0.50533344112E+03  0.00000000000E+00 0.  1.
<mgrwt>
<rscale>  2 0.91327375E+02</rscale>
<asrwt>0</asrwt>
<pdfrwt beam="1">  1       21 0.14362336E+00 0.91327375E+02</pdfrwt>
<pdfrwt beam="2">  1       21 0.24726221E-02 0.91327375E+02</pdfrwt>
<totfact> 0.30166329E+05</totfact>
</mgrwt>
</event>
<event>
 5    1  0.2051810E+000  0.8966866E+02  0.7546771E-02  0.1303656E+00
         21   -1    0    0  501  502  0.00000000000E+00  0.00000000000E+00  0.38046187316E+02  0.38046187316E+02  0.00000000000E+00 0. -1.
         21   -1    0    0  502  503 -0.00000000000E+00 -0.00000000000E+00 -0.23442853246E+03  0.23442853246E+03  0.00000000000E+00 0. -1.
         24    1    1    2    0    0  0.11224081628E+02 -0.35295825814E+02 -0.96406577559E+02  0.13089392453E+03  0.80419002446E+02 0. -1.
          1    1    1    2  501    0  0.29010662624E+02  0.40933530280E+02 -0.24429813704E+02  0.55803120384E+02  0.00000000000E+00 0. -1.
         -2    1    1    2    0  503 -0.40234744251E+02 -0.56377044661E+01 -0.75545953883E+02  0.85777674862E+02  0.00000000000E+00 0.  1.
<mgrwt>
<rscale>  2 0.89668656E+02</rscale>
<asrwt>0</asrwt>
<pdfrwt beam="1">  1       21 0.58532595E-02 0.89668656E+02</pdfrwt>
<pdfrwt beam="2">  1       21 0.36065929E-01 0.89668656E+02</pdfrwt>
<totfact> 0.15083325E+06</totfact>
</mgrwt>
</event>
<event>
 5    1  0.2051810E+000  0.1674633E+03  0.7546771E-02  0.1180519E+00
         21   -1    0    0  501  502  0.00000000000E+00  0.00000000000E+00  0.14964017430E+03  0.14964017430E+03  0.00000000000E+00 0. -1.
         21   -1    0    0  502  503 -0.00000000000E+00 -0.00000000000E+00 -0.24058438477E+03  0.24058438477E+03  0.00000000000E+00 0. -1.
         24    1    1    2    0    0  0.15636059613E+03  0.15360116292E+02 -0.10678698910E+03  0.20628922946E+03  0.80419002446E+02 0. -1.
          1    1    1    2  501    0 -0.12349377729E+03 -0.36840986322E+01  0.51684237618E+02  0.13392365747E+03  0.00000000000E+00 0. -1.
         -2    1    1    2    0  503 -0.32866818837E+02 -0.11676017660E+02 -0.35841458982E+02  0.50011672146E+02  0.00000000000E+00 0.  1.
<mgrwt>
<rscale>  2 0.16746329E+03</rscale>
<asrwt>0</asrwt>
<pdfrwt beam="1">  1       21 0.23021566E-01 0.16746329E+03</pdfrwt>
<pdfrwt beam="2">  1       21 0.37012982E-01 0.16746329E+03</pdfrwt>
<totfact> 0.12584627E+05</totfact>
</mgrwt>
</event>
<event>
 5    1  0.2051810E+000  0.6691922E+02  0.7546771E-02  0.1370894E+00
         21   -1    0    0  501  502  0.00000000000E+00  0.00000000000E+00  0.22126367192E+02  0.22126367192E+02  0.00000000000E+00 0.  1.
         21   -1    0    0  502  503 -0.00000000000E+00 -0.00000000000E+00 -0.26201580291E+03  0.26201580291E+03  0.00000000000E+00 0. -1.
         24    1    1    2    0    0 -0.17434690386E+02  0.15531043571E+02 -0.93291614069E+02  0.12536236657E+03  0.80419002446E+02 0.  1.
          1    1    1    2  501    0 -0.19093918128E+01 -0.27358466370E+02 -0.32844847620E+02  0.42789198104E+02  0.00000000000E+00 0. -1.
         -2    1    1    2    0  503  0.19344082199E+02  0.11827422799E+02 -0.11375297403E+03  0.11599060542E+03  0.00000000000E+00 0.  1.
<mgrwt>
<rscale>  2 0.66919220E+02</rscale>
<asrwt>0</asrwt>
<pdfrwt beam="1">  1       21 0.34040564E-02 0.66919220E+02</pdfrwt>
<pdfrwt beam="2">  1       21 0.40310124E-01 0.66919220E+02</pdfrwt>
<totfact> 0.29265470E+06</totfact>
</mgrwt>
</event>
<event>
 5    1  0.2051810E+000  0.2922742E+03  0.7546771E-02  0.1089168E+00
         21   -1    0    0  503  502  0.00000000000E+00  0.00000000000E+00  0.14087580684E+04  0.14087580684E+04  0.00000000000E+00 0.  1.
         21   -1    0    0  501  503 -0.00000000000E+00 -0.00000000000E+00 -0.92123551681E+02  0.92123551681E+02  0.00000000000E+00 0.  1.
         24    1    1    2    0    0  0.26855735969E+03 -0.55821278932E+02  0.60146963152E+03  0.66593693712E+03  0.80419002446E+02 0.  1.
          1    1    1    2  501    0 -0.18960813941E+03  0.93290480353E+02  0.14070205324E+03  0.25387285802E+03  0.00000000000E+00 0. -1.
         -2    1    1    2    0  502 -0.78949220277E+02 -0.37469201421E+02  0.57446283199E+03  0.58107182498E+03  0.00000000000E+00 0.  1.
<mgrwt>
<rscale>  2 0.29227419E+03</rscale>
<asrwt>0</asrwt>
<pdfrwt beam="1">  1       21 0.21673199E+00 0.29227419E+03</pdfrwt>
<pdfrwt beam="2">  1       21 0.14172855E-01 0.29227419E+03</pdfrwt>
<totfact> 0.42306052E+03</totfact>
</mgrwt>
</event>
<event>
 5    1  0.2051810E+000  0.7243900E+02  0.7546771E-02  0.1351990E+00
         21   -1    0    0  503  502  0.00000000000E+00  0.00000000000E+00  0.54461163855E+02  0.54461163855E+02  0.00000000000E+00 0. -1.
         21   -1    0    0  501  503 -0.00000000000E+00 -0.00000000000E+00 -0.18413393755E+03  0.18413393755E+03  0.00000000000E+00 0. -1.
         24    1    1    2    0    0  0.97821682680E+01 -0.16853940670E+02 -0.66188500336E+02  0.10596168960E+03  0.80419002446E+02 0. -1.
          1    1    1    2  501    0 -0.31429049676E+02  0.23771322386E+02 -0.89678915498E+02  0.97954932578E+02  0.00000000000E+00 0. -1.
         -2    1    1    2    0  502  0.21646881407E+02 -0.69173817164E+01  0.26194642140E+02  0.34678479225E+02  0.00000000000E+00 0.  1.
<mgrwt>
<rscale>  2 0.72438996E+02</rscale>
<asrwt>0</asrwt>
<pdfrwt beam="1">  1       21 0.83786406E-02 0.72438996E+02</pdfrwt>
<pdfrwt beam="2">  1       21 0.28328298E-01 0.72438996E+02</pdfrwt>
<totfact> 0.12984141E+06</totfact>
</mgrwt>
</event>
<event>
 5    1  0.2051810E+000  0.8035817E+02  0.7546771E-02  0.1328038E+00
         21   -1    0    0  501  502  0.00000000000E+00  0.00000000000E+00  0.70030758964E+01  0.70030758964E+01  0.00000000000E+00 0. -1.
         21   -1    0    0  502  503 -0.00000000000E+00 -0.00000000000E+00 -0.13125619825E+04  0.13125619825E+04  0.00000000000E+00 0.  1.
         24    1    1    2    0    0 -0.21558803310E+02  0.52987604679E+02 -0.72386713173E+03  0.73056369236E+03  0.80419002446E+02 0.  1.
          1    1    1    2  501    0  0.58455169913E-01 -0.31936027840E+02 -0.76291759279E+02  0.82706383219E+02  0.00000000000E+00 0. -1.
         -2    1    1    2    0  503  0.21500348140E+02 -0.21051576839E+02 -0.50540001559E+03  0.50629498281E+03  0.00000000000E+00 0.  1.
<mgrwt>
<rscale>  2 0.80358174E+02</rscale>
<asrwt>0</asrwt>
<pdfrwt beam="1">  1       21 0.10773970E-02 0.80358174E+02</pdfrwt>
<pdfrwt beam="2">  1       21 0.20193248E+00 0.80358174E+02</pdfrwt>
<totfact> 0.45755486E+05</totfact>
</mgrwt>
</event>
<event>
 5    1  0.2051810E+000  0.9943197E+02  0.7546771E-02  0.1281495E+00
         21   -1    0    0  503  502  0.00000000000E+00  0.00000000000E+00  0.31906104288E+03  0.31906104288E+03  0.00000000000E+00 0. -1.
         21   -1    0    0  501  503 -0.00000000000E+00 -0.00000000000E+00 -0.52903980066E+02  0.52903980066E+02  0.00000000000E+00 0.  1.
         24    1    1    2    0    0  0.26288468575E+02  0.78835072542E+02  0.25437265237E+03  0.27942568685E+03  0.80419002446E+02 0. -1.
          1    1    1    2  501    0 -0.11518726908E+02 -0.41553525505E+02 -0.13438199300E+02  0.45165935747E+02  0.00000000000E+00 0. -1.
         -2    1    1    2    0  502 -0.14769741667E+02 -0.37281547037E+02  0.25222609743E+02  0.47373400349E+02  0.00000000000E+00 0.  1.
<mgrwt>
<rscale>  2 0.99431974E+02</rscale>
<asrwt>0</asrwt>
<pdfrwt beam="1">  1       21 0.49086313E-01 0.99431974E+02</pdfrwt>
<pdfrwt beam="2">  1       21 0.81390741E-02 0.99431974E+02</pdfrwt>
<totfact> 0.46670341E+05</totfact>
</mgrwt>
</event>
<event>
 5    1  0.2051810E+000  0.1044667E+03  0.7546771E-02  0.1271174E+00
         21   -1    0    0  501  502  0.00000000000E+00  0.00000000000E+00  0.24230431444E+02  0.24230431444E+02  0.00000000000E+00 0. -1.
         21   -1    0    0  502  503 -0.00000000000E+00 -0.00000000000E+00 -0.61826308156E+03  0.61826308156E+03  0.00000000000E+00 0. -1.
         24    1    1    2    0    0  0.87503402673E+02  0.14794929133E+02 -0.48419441678E+03  0.49878571011E+03  0.80419002446E+02 0. -1.
          1    1    1    2  501    0 -0.63597853362E+02 -0.14659322135E+02 -0.61007171210E+02  0.89339003894E+02  0.00000000000E+00 0. -1.
         -2    1    1    2    0  503 -0.23905549311E+02 -0.13560699793E+00 -0.48831062126E+02  0.54368799007E+02  0.00000000000E+00 0.  1.
<mgrwt>
<rscale>  2 0.10446674E+03</rscale>
<asrwt>0</asrwt>
<pdfrwt beam="1">  1       21 0.37277591E-02 0.10446674E+03</pdfrwt>
<pdfrwt beam="2">  1       21 0.95117387E-01 0.10446674E+03</pdfrwt>
<totfact> 0.41448740E+05</totfact>
</mgrwt>
</event>
<event>
 5    1  0.2051810E+000  0.7972433E+02  0.7546771E-02  0.1329836E+00
         21   -1    0    0  501  502  0.00000000000E+00  0.00000000000E+00  0.25606401498E+03  0.25606401498E+03  0.00000000000E+00 0.  1.
         21   -1    0    0  502  503 -0.00000000000E+00 -0.00000000000E+00 -0.39286079072E+02  0.39286079072E+02  0.00000000000E+00 0. -1.
         24    1    1    2    0    0  0.18319578928E+02  0.41268691662E+02  0.45089365534E+02  0.10265952816E+03  0.80419002446E+02 0.  0.
          1    1    1    2  501    0 -0.25689859676E+02 -0.39984953033E+00  0.13454101396E+03  0.13697230817E+03  0.00000000000E+00 0. -1.
         -2    1    1    2    0  503  0.73702807479E+01 -0.40868842132E+02  0.37147556418E+02  0.55718257720E+02  0.00000000000E+00 0.  1.
<mgrwt>
<rscale>  2 0.79724330E+02</rscale>
<asrwt>0</asrwt>
<pdfrwt beam="1">  1       21 0.39394463E-01 0.79724330E+02</pdfrwt>
<pdfrwt beam="2">  1       21 0.60440123E-02 0.79724330E+02</pdfrwt>
<totfact> 0.11983312E+06</totfact>
</mgrwt>
</event>
<event>
 5    1  0.2051810E+000  0.7499753E+02  0.7546771E-02  0.1343879E+00
         21   -1    0    0  501  502  0.00000000000E+00  0.00000000000E+00  0.11988568872E+03  0.11988568872E+03  0.00000000000E+00 0. -1.
         21   -1    0    0  502  503 -0.00000000000E+00 -0.00000000000E+00 -0.28570534294E+03  0.28570534294E+03  0.00000000000E+00 0.  1.
         24    1    1    2    0    0  0.32654963455E+02 -0.30482067927E+01  0.36612674464E+02  0.94251483217E+02  0.80419002446E+02 0.  0.
          1    1    1    2  501    0 -0.18669625535E+02 -0.25354317800E+02  0.48824118907E+02  0.58096393484E+02  0.00000000000E+00 0. -1.
         -2    1    1    2    0  503 -0.13985337919E+02  0.28402524593E+02 -0.25125644759E+03  0.25324315496E+03  0.00000000000E+00 0.  1.
<mgrwt>
<rscale>  2 0.74997533E+02</rscale>
<asrwt>0</asrwt>
<pdfrwt beam="1">  1       21 0.18443952E-01 0.74997533E+02</pdfrwt>
<pdfrwt beam="2">  1       21 0.43954668E-01 0.74997533E+02</pdfrwt>
<totfact> 0.13932004E+05</totfact>
</mgrwt>
</event>
<event>
 5    1  0.2051810E+000  0.7179472E+02  0.7546771E-02  0.1354094E+00
         21   -1    0    0  503  502  0.00000000000E+00  0.00000000000E+00  0.76768352006E+02  0.76768352006E+02  0.00000000000E+00 0.  1.
         21   -1    0    0  501  503 -0.00000000000E+00 -0.00000000000E+00 -0.25970122527E+03  0.25970122527E+03  0.00000000000E+00 0. -1.
         24    1    1    2    0    0  0.13751650013E+02 -0.39300360016E+02 -0.64680566992E+01  0.90789194772E+02  0.80419002446E+02 0.  0.
          1    1    1    2  501    0 -0.18992647832E+02  0.68965429293E+01 -0.20267209133E+03  0.20367685087E+03  0.00000000000E+00 0. -1.
         -2    1    1    2    0  502  0.52409978185E+01  0.32403817086E+02  0.26207274760E+02  0.42003531640E+02  0.00000000000E+00 0.  1.
<mgrwt>
<rscale>  2 0.71794718E+02</rscale>
<asrwt>0</asrwt>
<pdfrwt beam="1">  1       21 0.11810516E-01 0.71794718E+02</pdfrwt>
<pdfrwt beam="2">  1       21 0.39954035E-01 0.71794718E+02</pdfrwt>
<totfact> 0.37113647E+05</totfact>
</mgrwt>
</event>
<event>
 5    1  0.2051810E+000  0.6920815E+02  0.7546771E-02  0.1362807E+00
         21   -1    0    0  503  502  0.00000000000E+00  0.00000000000E+00  0.92910751746E+03  0.92910751746E+03  0.00000000000E+00 0. -1.
         21   -1    0    0  501  503 -0.00000000000E+00 -0.00000000000E+00 -0.79044221718E+01  0.79044221718E+01  0.00000000000E+00 0.  1.
         24    1    1    2    0    0  0.76262678180E+01 -0.90717905764E+01  0.59196787709E+03  0.59752292073E+03  0.80419002446E+02 0. -1.
          1    1    1    2  501    0  0.38887439917E+01 -0.22857783270E+02  0.28028092811E+02  0.36375466629E+02  0.00000000000E+00 0. -1.
         -2    1    1    2    0  502 -0.11515011810E+02  0.31929573847E+02  0.30120712539E+03  0.30311355227E+03  0.00000000000E+00 0.  1.
<mgrwt>
<rscale>  2 0.69208155E+02</rscale>
<asrwt>0</asrwt>
<pdfrwt beam="1">  1       21 0.14293953E+00 0.69208155E+02</pdfrwt>
<pdfrwt beam="2">  1       21 0.12160657E-02 0.69208155E+02</pdfrwt>
<totfact> 0.94562703E+05</totfact>
</mgrwt>
</event>
<event>
 5    1  0.2051810E+000  0.9371037E+02  0.7546771E-02  0.1294107E+00
         21   -1    0    0  503  502  0.00000000000E+00  0.00000000000E+00  0.18559761362E+03  0.18559761362E+03  0.00000000000E+00 0.  1.
         21   -1    0    0  501  503 -0.00000000000E+00 -0.00000000000E+00 -0.17173838274E+03  0.17173838274E+03  0.00000000000E+00 0. -1.
         24    1    1    2    0    0 -0.66976809241E+02 -0.23574292835E+02 -0.77155051566E+02  0.13214294607E+03  0.80419002446E+02 0.  0.
          1    1    1    2  501    0  0.36506246547E+02  0.31979950278E+02 -0.56412206490E+02  0.74416129285E+02  0.00000000000E+00 0. -1.
         -2    1    1    2    0  502  0.30470562694E+02 -0.84056574426E+01  0.14742648894E+03  0.15077692101E+03  0.00000000000E+00 0.  1.
<mgrwt>
<rscale>  2 0.93710373E+02</rscale>
<asrwt>0</asrwt>
<pdfrwt beam="1">  1       21 0.28553479E-01 0.93710373E+02</pdfrwt>
<pdfrwt beam="2">  1       21 0.26421290E-01 0.93710373E+02</pdfrwt>
<totfact> 0.16487939E+05</totfact>
</mgrwt>
</event>
<event>
 5    1  0.2051810E+000  0.1083340E+03  0.7546771E-02  0.1263687E+00
         21   -1    0    0  503  502  0.00000000000E+00  0.00000000000E+00  0.10216423469E+04  0.10216423469E+04  0.00000000000E+00 0.  1.
         21   -1    0    0  501  503 -0.00000000000E+00 -0.00000000000E+00 -0.17082372615E+02  0.17082372615E+02  0.00000000000E+00 0. -1.
         24    1    1    2    0    0  0.31658580863E+02  0.48141339648E+02  0.69304805004E+03  0.70007333183E+03  0.80419002446E+02 0.  0.
          1    1    1    2  501    0 -0.42491118040E+02 -0.76429540138E+02  0.14438597211E+03  0.16880248417E+03  0.00000000000E+00 0. -1.
         -2    1    1    2    0  502  0.10832537177E+02  0.28288200490E+02  0.16712595213E+03  0.16984890352E+03  0.00000000000E+00 0.  1.
<mgrwt>
<rscale>  2 0.10833397E+03</rscale>
<asrwt>0</asrwt>
<pdfrwt beam="1">  1       21 0.15717570E+00 0.10833397E+03</pdfrwt>
<pdfrwt beam="2">  1       21 0.26280581E-02 0.10833397E+03</pdfrwt>
<totfact> 0.21530484E+05</totfact>
</mgrwt>
</event>
<event>
 5    1  0.2051810E+000  0.9749345E+02  0.7546771E-02  0.1285657E+00
         21   -1    0    0  501  502  0.00000000000E+00  0.00000000000E+00  0.58337043970E+03  0.58337043970E+03  0.00000000000E+00 0. -1.
         21   -1    0    0  502  503 -0.00000000000E+00 -0.00000000000E+00 -0.50869455082E+02  0.50869455082E+02  0.00000000000E+00 0.  1.
         24    1    1    2    0    0 -0.32080830357E+02 -0.16958391871E+02  0.63040939778E+01  0.88451819012E+02  0.80419002446E+02 0.  1.
          1    1    1    2  501    0  0.57955451773E+02 -0.20291726543E+02  0.46796922027E+03  0.47198069842E+03  0.00000000000E+00 0. -1.
         -2    1    1    2    0  503 -0.25874621416E+02  0.37250118414E+02  0.58227670367E+02  0.73807377353E+02  0.00000000000E+00 0.  1.
<mgrwt>
<rscale>  2 0.97493452E+02</rscale>
<asrwt>0</asrwt>
<pdfrwt beam="1">  1       21 0.89749294E-01 0.97493452E+02</pdfrwt>
<pdfrwt beam="2">  1       21 0.78260704E-02 0.97493452E+02</pdfrwt>
<totfact> 0.13675555E+05</totfact>
</mgrwt>
</event>
<event>
 5    1  0.3257590E+000  0.9937777E+02  0.7546771E-02  0.1281610E+00
         21   -1    0    0  501  502  0.00000000000E+00  0.00000000000E+00  0.37309090812E+03  0.37309090812E+03  0.00000000000E+00 0. -1.
         21   -1    0    0  502  503 -0.00000000000E+00 -0.00000000000E+00 -0.19135799346E+03  0.19135799346E+03  0.00000000000E+00 0.  1.
         24    1    1    2    0    0  0.37191684392E+02  0.34447867591E+02  0.26630589261E+03  0.28276478098E+03  0.80419002446E+02 0. -1.
          1    1    1    2  501    0  0.30271311311E+02 -0.12471090730E+02  0.88645073757E+02  0.94497775073E+02  0.00000000000E+00 0. -1.
         -2    1    1    2    0  503 -0.67462995703E+02 -0.21976776861E+02 -0.17321805171E+03  0.18718634552E+03  0.00000000000E+00 0.  1.
<mgrwt>
<rscale>  2 0.99377775E+02</rscale>
<asrwt>0</asrwt>
<pdfrwt beam="1">  1       21 0.57398601E-01 0.99377775E+02</pdfrwt>
<pdfrwt beam="2">  1       21 0.29439691E-01 0.99377775E+02</pdfrwt>
<totfact> 0.33368173E+04</totfact>
</mgrwt>
</event>
<event>
 5    1  0.2051810E+000  0.9043926E+02  0.7546771E-02  0.1301791E+00
         21   -1    0    0  501  502  0.00000000000E+00  0.00000000000E+00  0.38996068608E+03  0.38996068608E+03  0.00000000000E+00 0. -1.
         21   -1    0    0  502  503 -0.00000000000E+00 -0.00000000000E+00 -0.54657818121E+02  0.54657818121E+02  0.00000000000E+00 0. -1.
         24    1    1    2    0    0 -0.59372325796E+02  0.62007744520E+01  0.49155017747E+02  0.11156591952E+03  0.80419002446E+02 0. -1.
          1    1    1    2  501    0  0.58216147439E+02  0.14497704692E+02  0.30140167617E+03  0.30731461674E+03  0.00000000000E+00 0. -1.
         -2    1    1    2    0  503  0.11561783570E+01 -0.20698479144E+02 -0.15253825959E+02  0.25737967939E+02  0.00000000000E+00 0.  1.
<mgrwt>
<rscale>  2 0.90439257E+02</rscale>
<asrwt>0</asrwt>
<pdfrwt beam="1">  1       21 0.59993950E-01 0.90439257E+02</pdfrwt>
<pdfrwt beam="2">  1       21 0.84088953E-02 0.90439257E+02</pdfrwt>
<totfact> 0.29164087E+05</totfact>
</mgrwt>
</event>
<event>
 5    1  0.2051810E+000  0.7870920E+02  0.7546771E-02  0.1332755E+00
         21   -1    0    0  503  502  0.00000000000E+00  0.00000000000E+00  0.68222607515E+02  0.68222607515E+02  0.00000000000E+00 0. -1.
         21   -1    0    0  501  503 -0.00000000000E+00 -0.00000000000E+00 -0.13962712685E+03  0.13962712685E+03  0.00000000000E+00 0.  1.
         24    1    1    2    0    0  0.22006113524E+01  0.57599167387E+02 -0.24286876529E+02  0.10188019974E+03  0.80419002446E+02 0.  0.
          1    1    1    2  501    0  0.38575485755E+01 -0.27825101760E+02 -0.64932078312E+02  0.70748086637E+02  0.00000000000E+00 0. -1.
         -2    1    1    2    0  502 -0.60581599279E+01 -0.29774065627E+02  0.17814435506E+02  0.35221447984E+02  0.00000000000E+00 0.  1.
<mgrwt>
<rscale>  2 0.78709199E+02</rscale>
<asrwt>0</asrwt>
<pdfrwt beam="1">  1       21 0.10495786E-01 0.78709199E+02</pdfrwt>
<pdfrwt beam="2">  1       21 0.21481096E-01 0.78709199E+02</pdfrwt>
<totfact> 0.14794876E+06</totfact>
</mgrwt>
</event>
<event>
 5    1  0.2051810E+000  0.7586097E+02  0.7546771E-02  0.1341225E+00
         21   -1    0    0  501  502  0.00000000000E+00  0.00000000000E+00  0.78614023614E+01  0.78614023614E+01  0.00000000000E+00 0.  1.
         21   -1    0    0  502  503 -0.00000000000E+00 -0.00000000000E+00 -0.91736343964E+03  0.91736343964E+03  0.00000000000E+00 0.  1.
         24    1    1    2    0    0 -0.47008771081E+02  0.27522346774E+02 -0.42487193154E+03  0.43583331480E+03  0.80419002446E+02 0.  1.
          1    1    1    2  501    0  0.28255164861E+02 -0.14496328774E+02 -0.12273787846E+03  0.12677966989E+03  0.00000000000E+00 0. -1.
         -2    1    1    2    0  503  0.18753606220E+02 -0.13026018000E+02 -0.36189222729E+03  0.36261185731E+03  0.00000000000E+00 0.  1.
<mgrwt>
<rscale>  2 0.75860974E+02</rscale>
<asrwt>0</asrwt>
<pdfrwt beam="1">  1       21 0.12094465E-02 0.75860974E+02</pdfrwt>
<pdfrwt beam="2">  1       21 0.14113283E+00 0.75860974E+02</pdfrwt>
<totfact> 0.98463930E+05</totfact>
</mgrwt>
</event>
<event>
 5    1  0.2051810E+000  0.7195511E+02  0.7546771E-02  0.1353568E+00
         21   -1    0    0  503  502  0.00000000000E+00  0.00000000000E+00  0.16272338699E+02  0.16272338699E+02  0.00000000000E+00 0. -1.
         21   -1    0    0  501  503 -0.00000000000E+00 -0.00000000000E+00 -0.34404769813E+03  0.34404769813E+03  0.00000000000E+00 0.  1.
         24    1    1    2    0    0 -0.94408540849E+01  0.62791548196E+01 -0.17700692279E+03  0.19474913140E+03  0.80419002446E+02 0. -1.
          1    1    1    2  501    0  0.35794992646E+02 -0.62800163851E+01 -0.11828168241E+03  0.12373874291E+03  0.00000000000E+00 0. -1.
         -2    1    1    2    0  502 -0.26354138561E+02  0.86156546831E-03 -0.32486754227E+02  0.41832162510E+02  0.00000000000E+00 0.  1.
<mgrwt>
<rscale>  2 0.71955109E+02</rscale>
<asrwt>0</asrwt>
<pdfrwt beam="1">  1       21 0.25034368E-02 0.71955109E+02</pdfrwt>
<pdfrwt beam="2">  1       21 0.52930414E-01 0.71955109E+02</pdfrwt>
<totfact> 0.27951226E+06</totfact>
</mgrwt>
</event>
<event>
 5    1  0.2051810E+000  0.7464061E+02  0.7546771E-02  0.1344988E+00
         21   -1    0    0  501  502  0.00000000000E+00  0.00000000000E+00  0.94569007708E+03  0.94569007708E+03  0.00000000000E+00 0. -1.
         21   -1    0    0  502  503 -0.00000000000E+00 -0.00000000000E+00 -0.11377567537E+02  0.11377567537E+02  0.00000000000E+00 0. -1.
         24    1    1    2    0    0  0.19608773571E+02 -0.70626646028E+01  0.18449380661E+03  0.20233528082E+03  0.80419002446E+02 0. -1.
          1    1    1    2  501    0 -0.25364895389E+02  0.31874111020E+02  0.66311347029E+03  0.66436346329E+03  0.00000000000E+00 0. -1.
         -2    1    1    2    0  503  0.57561218174E+01 -0.24811446417E+02  0.86705232642E+02  0.90368900509E+02  0.00000000000E+00 0.  1.
<mgrwt>
<rscale>  2 0.74640613E+02</rscale>
<asrwt>0</asrwt>
<pdfrwt beam="1">  1       21 0.14549072E+00 0.74640613E+02</pdfrwt>
<pdfrwt beam="2">  1       21 0.17503957E-02 0.74640613E+02</pdfrwt>
<totfact> 0.50991604E+05</totfact>
</mgrwt>
</event>
<event>
 5    1  0.2051810E+000  0.7953876E+02  0.7546771E-02  0.1330365E+00
         21   -1    0    0  501  502  0.00000000000E+00  0.00000000000E+00  0.46658957730E+03  0.46658957730E+03  0.00000000000E+00 0.  1.
         21   -1    0    0  502  503 -0.00000000000E+00 -0.00000000000E+00 -0.20584113867E+02  0.20584113867E+02  0.00000000000E+00 0.  1.
         24    1    1    2    0    0 -0.37919898323E+02  0.65828143075E+01  0.32635864502E+03  0.33831706027E+03  0.80419002446E+02 0.  1.
          1    1    1    2  501    0  0.27080072942E+01 -0.28381275720E+02  0.98129248846E+02  0.10218698349E+03  0.00000000000E+00 0. -1.
         -2    1    1    2    0  503  0.35211891029E+02  0.21798461412E+02  0.21517569567E+02  0.46669647415E+02  0.00000000000E+00 0.  1.
<mgrwt>
<rscale>  2 0.79538761E+02</rscale>
<asrwt>0</asrwt>
<pdfrwt beam="1">  1       21 0.71783004E-01 0.79538761E+02</pdfrwt>
<pdfrwt beam="2">  1       21 0.31667871E-02 0.79538761E+02</pdfrwt>
<totfact> 0.10123910E+06</totfact>
</mgrwt>
</event>
<event>
 5    1  0.2051810E+000  0.7218311E+02  0.7546771E-02  0.1352823E+00
         21   -1    0    0  501  502  0.00000000000E+00  0.00000000000E+00  0.51923007370E+02  0.51923007370E+02  0.00000000000E+00 0. -1.
         21   -1    0    0  502  503 -0.00000000000E+00 -0.00000000000E+00 -0.19974436418E+03  0.19974436418E+03  0.00000000000E+00 0.  1.
         24    1    1    2    0    0 -0.16343329003E+02 -0.14101517654E+02 -0.57045873798E+02  0.10093267496E+03  0.80419002446E+02 0.  1.
          1    1    1    2  501    0 -0.20371502117E+02  0.13391431177E+02  0.21562923598E+02  0.32546707999E+02  0.00000000000E+00 0. -1.
         -2    1    1    2    0  503  0.36714831120E+02  0.71008647642E+00 -0.11233840661E+03  0.11818798859E+03  0.00000000000E+00 0.  1.
<mgrwt>
<rscale>  2 0.72183115E+02</rscale>
<asrwt>0</asrwt>
<pdfrwt beam="1">  1       21 0.79881551E-02 0.72183115E+02</pdfrwt>
<pdfrwt beam="2">  1       21 0.30729902E-01 0.72183115E+02</pdfrwt>
<totfact> 0.12069024E+06</totfact>
</mgrwt>
</event>
<event>
 5    1  0.2051810E+000  0.1321293E+03  0.7546771E-02  0.1224330E+00
         21   -1    0    0  503  502  0.00000000000E+00  0.00000000000E+00  0.72083708937E+02  0.72083708937E+02  0.00000000000E+00 0. -1.
         21   -1    0    0  501  503 -0.00000000000E+00 -0.00000000000E+00 -0.32769288484E+03  0.32769288484E+03  0.00000000000E+00 0. -1.
         24    1    1    2    0    0 -0.25174632866E+01  0.11059180949E+03 -0.68806068656E+02  0.15309597312E+03  0.80419002446E+02 0. -1.
          1    1    1    2  501    0  0.28162259471E+02 -0.90900369437E+02 -0.19166016265E+03  0.21398506483E+03  0.00000000000E+00 0. -1.
         -2    1    1    2    0  502 -0.25644796184E+02 -0.19691440058E+02  0.48570554124E+01  0.32695555817E+02  0.00000000000E+00 0.  1.
<mgrwt>
<rscale>  2 0.13212934E+03</rscale>
<asrwt>0</asrwt>
<pdfrwt beam="1">  1       21 0.11089801E-01 0.13212934E+03</pdfrwt>
<pdfrwt beam="2">  1       21 0.50414291E-01 0.13212934E+03</pdfrwt>
<totfact> 0.25673488E+05</totfact>
</mgrwt>
</event>
<event>
 5    1  0.2051810E+000  0.1118078E+03  0.7546771E-02  0.1257258E+00
         21   -1    0    0  501  502  0.00000000000E+00  0.00000000000E+00  0.43878337397E+03  0.43878337397E+03  0.00000000000E+00 0. -1.
         21   -1    0    0  502  503 -0.00000000000E+00 -0.00000000000E+00 -0.21396361270E+03  0.21396361270E+03  0.00000000000E+00 0.  1.
         24    1    1    2    0    0 -0.92455620561E+02  0.31040196848E+01  0.31155978161E+02  0.12647366382E+03  0.80419002446E+02 0. -1.
          1    1    1    2  501    0  0.74632463398E+02  0.14455510691E+02  0.35497986696E+03  0.36302847317E+03  0.00000000000E+00 0. -1.
         -2    1    1    2    0  503  0.17823157163E+02 -0.17559530376E+02 -0.16131608385E+03  0.16324484968E+03  0.00000000000E+00 0.  1.
<mgrwt>
<rscale>  2 0.11180781E+03</rscale>
<asrwt>0</asrwt>
<pdfrwt beam="1">  1       21 0.67505135E-01 0.11180781E+03</pdfrwt>
<pdfrwt beam="2">  1       21 0.32917479E-01 0.11180781E+03</pdfrwt>
<totfact> 0.18866555E+04</totfact>
</mgrwt>
</event>
<event>
 5    1  0.2051810E+000  0.8633591E+02  0.7546771E-02  0.1311975E+00
         21   -1    0    0  501  502  0.00000000000E+00  0.00000000000E+00  0.23082163249E+03  0.23082163249E+03  0.00000000000E+00 0. -1.
         21   -1    0    0  502  503 -0.00000000000E+00 -0.00000000000E+00 -0.74839357876E+02  0.74839357876E+02  0.00000000000E+00 0.  1.
         24    1    1    2    0    0 -0.22413105454E+02  0.43015000803E+02  0.82926685268E+02  0.12528642654E+03  0.80419002446E+02 0. -1.
          1    1    1    2  501    0  0.79129356463E+01 -0.57629616295E+02  0.11765670343E+03  0.13125123651E+03  0.00000000000E+00 0. -1.
         -2    1    1    2    0  503  0.14500169808E+02  0.14614615492E+02 -0.44601114076E+02  0.49123327323E+02  0.00000000000E+00 0.  1.
<mgrwt>
<rscale>  2 0.86335913E+02</rscale>
<asrwt>0</asrwt>
<pdfrwt beam="1">  1       21 0.35511020E-01 0.86335913E+02</pdfrwt>
<pdfrwt beam="2">  1       21 0.11513747E-01 0.86335913E+02</pdfrwt>
<totfact> 0.48835952E+05</totfact>
</mgrwt>
</event>
<event>
 5    1  0.2051810E+000  0.1247211E+03  0.7546771E-02  0.1235506E+00
         21   -1    0    0  501  502  0.00000000000E+00  0.00000000000E+00  0.29397313858E+03  0.29397313858E+03  0.00000000000E+00 0.  1.
         21   -1    0    0  502  503 -0.00000000000E+00 -0.00000000000E+00 -0.98375517828E+02  0.98375517828E+02  0.00000000000E+00 0. -1.
         24    1    1    2    0    0  0.21898665749E+02  0.10764253113E+03 -0.30428217659E+02  0.13949752132E+03  0.80419002446E+02 0. -1.
          1    1    1    2  501    0  0.66314983420E+01 -0.25475500290E+02  0.49841153961E+02  0.56365933980E+02  0.00000000000E+00 0. -1.
         -2    1    1    2    0  503 -0.28530164091E+02 -0.82167030841E+02  0.17618468445E+03  0.19648520111E+03  0.00000000000E+00 0.  1.
<mgrwt>
<rscale>  2 0.12472110E+03</rscale>
<asrwt>0</asrwt>
<pdfrwt beam="1">  1       21 0.45226636E-01 0.12472110E+03</pdfrwt>
<pdfrwt beam="2">  1       21 0.15134695E-01 0.12472110E+03</pdfrwt>
<totfact> 0.18460558E+05</totfact>
</mgrwt>
</event>
<event>
 5    1  0.2051810E+000  0.1006846E+03  0.7546771E-02  0.1278863E+00
         21   -1    0    0  503  502  0.00000000000E+00  0.00000000000E+00  0.58431225474E+02  0.58431225474E+02  0.00000000000E+00 0.  1.
         21   -1    0    0  501  503 -0.00000000000E+00 -0.00000000000E+00 -0.19490134168E+03  0.19490134168E+03  0.00000000000E+00 0. -1.
         24    1    1    2    0    0 -0.55687229718E+02  0.63600294952E+02 -0.89603816376E+02  0.14711262670E+03  0.80419002446E+02 0. -1.
          1    1    1    2  501    0  0.27270829002E+02 -0.35077047264E+02 -0.48691247181E+02  0.65916120268E+02  0.00000000000E+00 0. -1.
         -2    1    1    2    0  502  0.28416400715E+02 -0.28523247688E+02  0.18249473543E+01  0.40303820180E+02  0.00000000000E+00 0.  1.
<mgrwt>
<rscale>  2 0.10068463E+03</rscale>
<asrwt>0</asrwt>
<pdfrwt beam="1">  1       21 0.89894193E-02 0.10068463E+03</pdfrwt>
<pdfrwt beam="2">  1       21 0.29984822E-01 0.10068463E+03</pdfrwt>
<totfact> 0.10416191E+06</totfact>
</mgrwt>
</event>
<event>
 5    1  0.2051810E+000  0.1728509E+03  0.7546771E-02  0.1174907E+00
         21   -1    0    0  503  502  0.00000000000E+00  0.00000000000E+00  0.99010481634E+03  0.99010481634E+03  0.00000000000E+00 0. -1.
         21   -1    0    0  501  503 -0.00000000000E+00 -0.00000000000E+00 -0.36998795144E+02  0.36998795144E+02  0.00000000000E+00 0.  1.
         24    1    1    2    0    0  0.25925312817E+02 -0.13539811405E+03  0.41046012445E+03  0.44039698097E+03  0.80419002446E+02 0. -1.
          1    1    1    2  501    0 -0.54861243902E+02  0.79784070651E+01  0.42724033159E+02  0.69991099942E+02  0.00000000000E+00 0. -1.
         -2    1    1    2    0  502  0.28935931085E+02  0.12741970699E+03  0.49992186358E+03  0.51671553056E+03  0.00000000000E+00 0.  1.
<mgrwt>
<rscale>  2 0.17285088E+03</rscale>
<asrwt>0</asrwt>
<pdfrwt beam="1">  1       21 0.15232380E+00 0.17285088E+03</pdfrwt>
<pdfrwt beam="2">  1       21 0.56921231E-02 0.17285088E+03</pdfrwt>
<totfact> 0.62599845E+04</totfact>
</mgrwt>
</event>
<event>
 5    1  0.2051810E+000  0.7130951E+02  0.7546771E-02  0.1355696E+00
         21   -1    0    0  501  502  0.00000000000E+00  0.00000000000E+00  0.83039274199E+03  0.83039274199E+03  0.00000000000E+00 0. -1.
         21   -1    0    0  502  503 -0.00000000000E+00 -0.00000000000E+00 -0.17731016906E+02  0.17731016906E+02  0.00000000000E+00 0.  1.
         24    1    1    2    0    0 -0.17317829912E+02  0.36944744330E+02  0.15977289793E+03  0.18346502728E+03  0.80419002446E+02 0.  1.
          1    1    1    2  501    0 -0.67866150147E+01 -0.24283105587E+02  0.62560650441E+03  0.62611438709E+03  0.00000000000E+00 0. -1.
         -2    1    1    2    0  503  0.24104444926E+02 -0.12661638743E+02  0.27282322743E+02  0.38544344528E+02  0.00000000000E+00 0.  1.
<mgrwt>
<rscale>  2 0.71309514E+02</rscale>
<asrwt>0</asrwt>
<pdfrwt beam="1">  1       21 0.12775270E+00 0.71309514E+02</pdfrwt>
<pdfrwt beam="2">  1       21 0.27278494E-02 0.71309514E+02</pdfrwt>
<totfact> 0.34614382E+05</totfact>
</mgrwt>
</event>
<event>
 5    1  0.2051810E+000  0.7730004E+02  0.7546771E-02  0.1336893E+00
         21   -1    0    0  501  502  0.00000000000E+00  0.00000000000E+00  0.60277021264E+03  0.60277021264E+03  0.00000000000E+00 0. -1.
         21   -1    0    0  502  503 -0.00000000000E+00 -0.00000000000E+00 -0.14586645626E+02  0.14586645626E+02  0.00000000000E+00 0.  1.
         24    1    1    2    0    0 -0.14385342293E+02  0.32053505611E+02  0.23593828152E+03  0.25173091573E+03  0.80419002446E+02 0. -1.
          1    1    1    2  501    0 -0.93564410162E+00 -0.46068027976E+02  0.33631053134E+03  0.33945237092E+03  0.00000000000E+00 0. -1.
         -2    1    1    2    0  503  0.15320986395E+02  0.14014522365E+02  0.15934754157E+02  0.26173571619E+02  0.00000000000E+00 0.  1.
<mgrwt>
<rscale>  2 0.77300040E+02</rscale>
<asrwt>0</asrwt>
<pdfrwt beam="1">  1       21 0.92733860E-01 0.77300040E+02</pdfrwt>
<pdfrwt beam="2">  1       21 0.22440998E-02 0.77300040E+02</pdfrwt>
<totfact> 0.10015375E+06</totfact>
</mgrwt>
</event>
<event>
 5    1  0.2051810E+000  0.8850125E+02  0.7546771E-02  0.1306522E+00
         21   -1    0    0  503  502  0.00000000000E+00  0.00000000000E+00  0.35552595196E+02  0.35552595196E+02  0.00000000000E+00 0. -1.
         21   -1    0    0  501  503 -0.00000000000E+00 -0.00000000000E+00 -0.30524990612E+03  0.30524990612E+03  0.00000000000E+00 0. -1.
         24    1    1    2    0    0 -0.23978950718E+02  0.10052985717E+02 -0.16821017504E+03  0.18824965217E+03  0.80419002446E+02 0. -1.
          1    1    1    2  501    0  0.57636496975E+02 -0.11597226077E+02 -0.10324861779E+03  0.11881388181E+03  0.00000000000E+00 0. -1.
         -2    1    1    2    0  502 -0.33657546258E+02  0.15442403601E+01  0.17614819064E+01  0.33738967336E+02  0.00000000000E+00 0.  1.
<mgrwt>
<rscale>  2 0.88501245E+02</rscale>
<asrwt>0</asrwt>
<pdfrwt beam="1">  1       21 0.54696300E-02 0.88501245E+02</pdfrwt>
<pdfrwt beam="2">  1       21 0.46961524E-01 0.88501245E+02</pdfrwt>
<totfact> 0.99987007E+05</totfact>
</mgrwt>
</event>
<event>
 5    1  0.2051810E+000  0.7845994E+02  0.7546771E-02  0.1333480E+00
         21   -1    0    0  503  502  0.00000000000E+00  0.00000000000E+00  0.57969668894E+01  0.57969668894E+01  0.00000000000E+00 0. -1.
         21   -1    0    0  501  503 -0.00000000000E+00 -0.00000000000E+00 -0.10992467585E+04  0.10992467585E+04  0.00000000000E+00 0.  1.
         24    1    1    2    0    0 -0.10925064205E+01 -0.42025912635E+02 -0.55063786857E+03  0.55806509402E+03  0.80419002446E+02 0.  0.
          1    1    1    2  501    0 -0.24838809619E+02  0.24416253585E+02 -0.33672427386E+03  0.33852083615E+03  0.00000000000E+00 0. -1.
         -2    1    1    2    0  502  0.25931316039E+02  0.17609659050E+02 -0.20608764921E+03  0.20845779525E+03  0.00000000000E+00 0.  1.
<mgrwt>
<rscale>  2 0.78459941E+02</rscale>
<asrwt>0</asrwt>
<pdfrwt beam="1">  1       21 0.89184068E-03 0.78459941E+02</pdfrwt>
<pdfrwt beam="2">  1       21 0.16911496E+00 0.78459941E+02</pdfrwt>
<totfact> 0.99664453E+05</totfact>
</mgrwt>
</event>
<event>
 5    1  0.2051810E+000  0.8348402E+02  0.7546771E-02  0.1319445E+00
         21   -1    0    0  503  502  0.00000000000E+00  0.00000000000E+00  0.25123677999E+03  0.25123677999E+03  0.00000000000E+00 0. -1.
         21   -1    0    0  501  503 -0.00000000000E+00 -0.00000000000E+00 -0.55320814599E+02  0.55320814599E+02  0.00000000000E+00 0.  1.
         24    1    1    2    0    0 -0.67796042310E+01  0.52513424448E+02  0.17764106329E+03  0.20205738319E+03  0.80419002446E+02 0.  0.
          1    1    1    2  501    0  0.26647893607E+02 -0.36343262726E+02 -0.26960577133E+02  0.52514909298E+02  0.00000000000E+00 0. -1.
         -2    1    1    2    0  502 -0.19868289376E+02 -0.16170161722E+02  0.45235479236E+02  0.51985302101E+02  0.00000000000E+00 0.  1.
<mgrwt>
<rscale>  2 0.83484015E+02</rscale>
<asrwt>0</asrwt>
<pdfrwt beam="1">  1       21 0.38651812E-01 0.83484015E+02</pdfrwt>
<pdfrwt beam="2">  1       21 0.85108947E-02 0.83484015E+02</pdfrwt>
<totfact> 0.69756962E+05</totfact>
</mgrwt>
</event>
<event>
 5    1  0.2051810E+000  0.1368832E+03  0.7546771E-02  0.1217585E+00
         21   -1    0    0  503  502  0.00000000000E+00  0.00000000000E+00  0.25904898949E+03  0.25904898949E+03  0.00000000000E+00 0.  1.
         21   -1    0    0  501  503 -0.00000000000E+00 -0.00000000000E+00 -0.99918695460E+02  0.99918695460E+02  0.00000000000E+00 0. -1.
         24    1    1    2    0    0  0.27613714630E+02  0.99513622356E+02  0.27063114428E+02  0.13366041444E+03  0.80419002446E+02 0. -1.
          1    1    1    2  501    0 -0.46968862619E+01 -0.11507675677E+03  0.29257176475E+02  0.11883056453E+03  0.00000000000E+00 0. -1.
         -2    1    1    2    0  502 -0.22916828368E+02  0.15563134418E+02  0.10281000312E+03  0.10647670599E+03  0.00000000000E+00 0.  1.
<mgrwt>
<rscale>  2 0.13688317E+03</rscale>
<asrwt>0</asrwt>
<pdfrwt beam="1">  1       21 0.39853690E-01 0.13688317E+03</pdfrwt>
<pdfrwt beam="2">  1       21 0.15372107E-01 0.13688317E+03</pdfrwt>
<totfact> 0.23090659E+05</totfact>
</mgrwt>
</event>
<event>
 5    1  0.2051810E+000  0.1074524E+03  0.7546771E-02  0.1265362E+00
         21   -1    0    0  503  502  0.00000000000E+00  0.00000000000E+00  0.74677817325E+02  0.74677817325E+02  0.00000000000E+00 0.  1.
         21   -1    0    0  501  503 -0.00000000000E+00 -0.00000000000E+00 -0.17336502287E+03  0.17336502287E+03  0.00000000000E+00 0.  1.
         24    1    1    2    0    0 -0.33631947423E+02  0.24322314681E+02 -0.82730919101E+02  0.12261445188E+03  0.80419002446E+02 0.  1.
          1    1    1    2  501    0 -0.39495216402E+02  0.13929003859E+02 -0.57556543468E+01  0.42273121769E+02  0.00000000000E+00 0. -1.
         -2    1    1    2    0  502  0.73127163825E+02 -0.38251318540E+02 -0.10200632092E+02  0.83155266546E+02  0.00000000000E+00 0.  1.
<mgrwt>
<rscale>  2 0.10745238E+03</rscale>
<asrwt>0</asrwt>
<pdfrwt beam="1">  1       21 0.11488895E-01 0.10745238E+03</pdfrwt>
<pdfrwt beam="2">  1       21 0.26671541E-01 0.10745238E+03</pdfrwt>
<totfact> 0.84996827E+05</totfact>
</mgrwt>
</event>
<event>
 5    1  0.2051810E+000  0.8298494E+02  0.7546771E-02  0.1320788E+00
         21   -1    0    0  501  502  0.00000000000E+00  0.00000000000E+00  0.24407383692E+03  0.24407383692E+03  0.00000000000E+00 0. -1.
         21   -1    0    0  502  503 -0.00000000000E+00 -0.00000000000E+00 -0.71483728026E+02  0.71483728026E+02  0.00000000000E+00 0. -1.
         24    1    1    2    0    0  0.72165258801E+00  0.62735878275E+02  0.82258474048E+02  0.13103428449E+03  0.80419002446E+02 0. -1.
          1    1    1    2  501    0 -0.63267702103E+01 -0.23450258293E+02  0.12771526759E+03  0.13000435458E+03  0.00000000000E+00 0. -1.
         -2    1    1    2    0  503  0.56051176223E+01 -0.39285619982E+02 -0.37383632743E+02  0.54518925870E+02  0.00000000000E+00 0.  1.
<mgrwt>
<rscale>  2 0.82984940E+02</rscale>
<asrwt>0</asrwt>
<pdfrwt beam="1">  1       21 0.37549821E-01 0.82984940E+02</pdfrwt>
<pdfrwt beam="2">  1       21 0.10997497E-01 0.82984940E+02</pdfrwt>
<totfact> 0.47442355E+05</totfact>
</mgrwt>
</event>
<event>
 5    1  0.2051810E+000  0.7271387E+02  0.7546771E-02  0.1351100E+00
         21   -1    0    0  501  502  0.00000000000E+00  0.00000000000E+00  0.62750171263E+02  0.62750171263E+02  0.00000000000E+00 0. -1.
         21   -1    0    0  502  503 -0.00000000000E+00 -0.00000000000E+00 -0.12407350951E+03  0.12407350951E+03  0.00000000000E+00 0.  1.
         24    1    1    2    0    0 -0.22962204585E+02  0.24349818729E+02 -0.47248674142E+02  0.99095053731E+02  0.80419002446E+02 0. -1.
          1    1    1    2  501    0 -0.19787444801E+00 -0.33441022625E+02  0.24758113997E+02  0.41608957656E+02  0.00000000000E+00 0. -1.
         -2    1    1    2    0  503  0.23160079033E+02  0.90912038961E+01 -0.38832778097E+02  0.46119669381E+02  0.00000000000E+00 0.  1.
<mgrwt>
<rscale>  2 0.72713874E+02</rscale>
<asrwt>0</asrwt>
<pdfrwt beam="1">  1       21 0.96538725E-02 0.72713874E+02</pdfrwt>
<pdfrwt beam="2">  1       21 0.19088232E-01 0.72713874E+02</pdfrwt>
<totfact> 0.21125821E+06</totfact>
</mgrwt>
</event>
<event>
 5    1  0.2051810E+000  0.8426836E+02  0.7546771E-02  0.1317357E+00
         21   -1    0    0  503  502  0.00000000000E+00  0.00000000000E+00  0.21025627132E+02  0.21025627132E+02  0.00000000000E+00 0. -1.
         21   -1    0    0  501  503 -0.00000000000E+00 -0.00000000000E+00 -0.50069522327E+03  0.50069522327E+03  0.00000000000E+00 0. -1.
         24    1    1    2    0    0  0.57228611820E+02  0.29897689439E+02 -0.18382186234E+03  0.21077637171E+03  0.80419002446E+02 0. -1.
          1    1    1    2  501    0 -0.35367745766E+02 -0.12660067452E+02 -0.27111614867E+03  0.27370626741E+03  0.00000000000E+00 0. -1.
         -2    1    1    2    0  502 -0.21860866054E+02 -0.17237621987E+02 -0.24731585130E+02  0.37238211281E+02  0.00000000000E+00 0.  1.
<mgrwt>
<rscale>  2 0.84268359E+02</rscale>
<asrwt>0</asrwt>
<pdfrwt beam="1">  1       21 0.32347120E-02 0.84268359E+02</pdfrwt>
<pdfrwt beam="2">  1       21 0.77030031E-01 0.84268359E+02</pdfrwt>
<totfact> 0.83967510E+05</totfact>
</mgrwt>
</event>
<event>
 5    1  0.2051810E+000  0.9474590E+02  0.7546771E-02  0.1291749E+00
         21   -1    0    0  503  502  0.00000000000E+00  0.00000000000E+00  0.15827351307E+04  0.15827351307E+04  0.00000000000E+00 0. -1.
         21   -1    0    0  501  503 -0.00000000000E+00 -0.00000000000E+00 -0.92258259696E+01  0.92258259696E+01  0.00000000000E+00 0. -1.
         24    1    1    2    0    0  0.44102907285E+02 -0.32236747596E+02  0.44674441057E+03  0.45720023913E+03  0.80419002446E+02 0. -1.
          1    1    1    2  501    0 -0.62019432703E+02  0.85992825356E+01  0.25797263686E+03  0.26546231194E+03  0.00000000000E+00 0. -1.
         -2    1    1    2    0  502  0.17916525418E+02  0.23637465060E+02  0.86879225733E+03  0.86929840563E+03  0.00000000000E+00 0.  1.
<mgrwt>
<rscale>  2 0.94745903E+02</rscale>
<asrwt>0</asrwt>
<pdfrwt beam="1">  1       21 0.24349750E+00 0.94745903E+02</pdfrwt>
<pdfrwt beam="2">  1       21 0.14193591E-02 0.94745903E+02</pdfrwt>
<totfact> 0.16762042E+05</totfact>
</mgrwt>
</event>
<event>
 5    1  0.2051810E+000  0.8157066E+02  0.7546771E-02  0.1324652E+00
         21   -1    0    0  503  502  0.00000000000E+00  0.00000000000E+00  0.61478684207E+02  0.61478684207E+02  0.00000000000E+00 0. -1.
         21   -1    0    0  501  503 -0.00000000000E+00 -0.00000000000E+00 -0.14065153430E+03  0.14065153430E+03  0.00000000000E+00 0.  1.
         24    1    1    2    0    0  0.20138260337E+02  0.24137442344E+02 -0.29496689418E+02  0.91243828796E+02  0.80419002446E+02 0.  0.
          1    1    1    2  501    0 -0.19285281613E+02 -0.48617004619E+02 -0.63888947140E+02  0.82567141114E+02  0.00000000000E+00 0. -1.
         -2    1    1    2    0  502 -0.85297872415E+00  0.24479562275E+02  0.14212786468E+02  0.28319248596E+02  0.00000000000E+00 0.  1.
<mgrwt>
<rscale>  2 0.81570657E+02</rscale>
<asrwt>0</asrwt>
<pdfrwt beam="1">  1       21 0.94582592E-02 0.81570657E+02</pdfrwt>
<pdfrwt beam="2">  1       21 0.21638697E-01 0.81570657E+02</pdfrwt>
<totfact> 0.17493805E+06</totfact>
</mgrwt>
</event>
<event>
 5    1  0.2051810E+000  0.7280532E+02  0.7546771E-02  0.1350805E+00
         21   -1    0    0  503  502  0.00000000000E+00  0.00000000000E+00  0.15171684097E+02  0.15171684097E+02  0.00000000000E+00 0.  1.
         21   -1    0    0  501  503 -0.00000000000E+00 -0.00000000000E+00 -0.45283839242E+03  0.45283839242E+03  0.00000000000E+00 0. -1.
         24    1    1    2    0    0  0.49852159580E+02  0.79040808658E-02 -0.37277663272E+03  0.38459702512E+03  0.80419002446E+02 0. -1.
          1    1    1    2  501    0 -0.21500325530E+02 -0.53183820891E+01 -0.37971044714E+02  0.43958496592E+02  0.00000000000E+00 0. -1.
         -2    1    1    2    0  502 -0.28351834051E+02  0.53104780082E+01 -0.26919030892E+02  0.39454554805E+02  0.00000000000E+00 0.  1.
<mgrwt>
<rscale>  2 0.72805321E+02</rscale>
<asrwt>0</asrwt>
<pdfrwt beam="1">  1       21 0.23341051E-02 0.72805321E+02</pdfrwt>
<pdfrwt beam="2">  1       21 0.69667449E-01 0.72805321E+02</pdfrwt>
<totfact> 0.17611410E+06</totfact>
</mgrwt>
</event>
<event>
 5    1  0.2051810E+000  0.9134138E+02  0.7546771E-02  0.1299635E+00
         21   -1    0    0  503  502  0.00000000000E+00  0.00000000000E+00  0.28483020756E+02  0.28483020756E+02  0.00000000000E+00 0.  1.
         21   -1    0    0  501  503 -0.00000000000E+00 -0.00000000000E+00 -0.67482238185E+03  0.67482238185E+03  0.00000000000E+00 0. -1.
         24    1    1    2    0    0  0.28498405135E+02 -0.21142408325E+02 -0.98631799575E+02  0.13211588991E+03  0.80419002446E+02 0.  0.
          1    1    1    2  501    0 -0.27174245420E+02 -0.31797057453E+02 -0.49399126781E+03  0.49575887803E+03  0.00000000000E+00 0. -1.
         -2    1    1    2    0  502 -0.13241597145E+01  0.52939465778E+02 -0.53716293710E+02  0.75430634663E+02  0.00000000000E+00 0.  1.
<mgrwt>
<rscale>  2 0.91341384E+02</rscale>
<asrwt>0</asrwt>
<pdfrwt beam="1">  1       21 0.43820031E-02 0.91341384E+02</pdfrwt>
<pdfrwt beam="2">  1       21 0.10381883E+00 0.91341384E+02</pdfrwt>
<totfact> 0.25994918E+05</totfact>
</mgrwt>
</event>
<event>
 5    1  0.2051810E+000  0.1430998E+03  0.7546771E-02  0.1209218E+00
         21   -1    0    0  503  502  0.00000000000E+00  0.00000000000E+00  0.31413729074E+03  0.31413729074E+03  0.00000000000E+00 0.  1.
         21   -1    0    0  501  503 -0.00000000000E+00 -0.00000000000E+00 -0.13368565283E+03  0.13368565283E+03  0.00000000000E+00 0. -1.
         24    1    1    2    0    0  0.10514013573E+03  0.77190433887E+02  0.21278624689E+03  0.26221749378E+03  0.80419002446E+02 0.  1.
          1    1    1    2  501    0 -0.34013536562E+02 -0.10842770342E+02 -0.72153988006E+02  0.80502697616E+02  0.00000000000E+00 0. -1.
         -2    1    1    2    0  502 -0.71126599171E+02 -0.66347663546E+02  0.39819379032E+02  0.10510275217E+03  0.00000000000E+00 0.  1.
<mgrwt>
<rscale>  2 0.14309979E+03</rscale>
<asrwt>0</asrwt>
<pdfrwt beam="1">  1       21 0.48328814E-01 0.14309979E+03</pdfrwt>
<pdfrwt beam="2">  1       21 0.20567024E-01 0.14309979E+03</pdfrwt>
<totfact> 0.91380690E+04</totfact>
</mgrwt>
</event>
<event>
 5    1  0.2051810E+000  0.8848834E+02  0.7546771E-02  0.1306554E+00
         21   -1    0    0  501  502  0.00000000000E+00  0.00000000000E+00  0.75577032872E+03  0.75577032872E+03  0.00000000000E+00 0. -1.
         21   -1    0    0  502  503 -0.00000000000E+00 -0.00000000000E+00 -0.11879766252E+02  0.11879766252E+02  0.00000000000E+00 0.  1.
         24    1    1    2    0    0 -0.15724864139E+02 -0.27412623678E+02  0.38831031914E+03  0.39780754542E+03  0.80419002446E+02 0.  0.
          1    1    1    2  501    0 -0.34000456125E+02  0.22125036068E+02  0.24689631731E+03  0.25020659411E+03  0.00000000000E+00 0. -1.
         -2    1    1    2    0  503  0.49725320265E+02  0.52875876107E+01  0.10868392603E+03  0.11963595544E+03  0.00000000000E+00 0.  1.
<mgrwt>
<rscale>  2 0.88488342E+02</rscale>
<asrwt>0</asrwt>
<pdfrwt beam="1">  1       21 0.11627232E+00 0.88488342E+02</pdfrwt>
<pdfrwt beam="2">  1       21 0.18276569E-02 0.88488342E+02</pdfrwt>
<totfact> 0.82253746E+05</totfact>
</mgrwt>
</event>
<event>
 5    1  0.2051810E+000  0.1194007E+03  0.7546771E-02  0.1244089E+00
         21   -1    0    0  501  502  0.00000000000E+00  0.00000000000E+00  0.71853799260E+02  0.71853799260E+02  0.00000000000E+00 0. -1.
         21   -1    0    0  502  503 -0.00000000000E+00 -0.00000000000E+00 -0.22321316900E+03  0.22321316900E+03  0.00000000000E+00 0.  1.
         24    1    1    2    0    0 -0.46003036302E+02  0.57436390925E+01 -0.36505084370E+02  0.99745204788E+02  0.80419002446E+02 0.  0.
          1    1    1    2  501    0 -0.42930696156E+02 -0.31661261871E+02 -0.80574315718E+01  0.53948145281E+02  0.00000000000E+00 0. -1.
         -2    1    1    2    0  503  0.88933732458E+02  0.25917622778E+02 -0.10679685380E+03  0.14137361819E+03  0.00000000000E+00 0.  1.
<mgrwt>
<rscale>  2 0.11940069E+03</rscale>
<asrwt>0</asrwt>
<pdfrwt beam="1">  1       21 0.11054431E-01 0.11940069E+03</pdfrwt>
<pdfrwt beam="2">  1       21 0.34340487E-01 0.11940069E+03</pdfrwt>
<totfact> 0.55935177E+05</totfact>
</mgrwt>
</event>
<event>
 5    1  0.2051810E+000  0.1322868E+03  0.7546771E-02  0.1224101E+00
         21   -1    0    0  501  502  0.00000000000E+00  0.00000000000E+00  0.44382298629E+03  0.44382298629E+03  0.00000000000E+00 0. -1.
         21   -1    0    0  502  503 -0.00000000000E+00 -0.00000000000E+00 -0.52404908345E+02  0.52404908345E+02  0.00000000000E+00 0. -1.
         24    1    1    2    0    0  0.59321485429E+02 -0.88227835941E+02  0.17420449849E+03  0.21935727232E+03  0.80419002446E+02 0. -1.
          1    1    1    2  501    0 -0.20824033567E+02  0.90343569225E+02  0.21946990252E+03  0.23824911120E+03  0.00000000000E+00 0. -1.
         -2    1    1    2    0  503 -0.38497451862E+02 -0.21157332838E+01 -0.22563230728E+01  0.38621511117E+02  0.00000000000E+00 0.  1.
<mgrwt>
<rscale>  2 0.13228685E+03</rscale>
<asrwt>0</asrwt>
<pdfrwt beam="1">  1       21 0.68280457E-01 0.13228685E+03</pdfrwt>
<pdfrwt beam="2">  1       21 0.80622939E-02 0.13228685E+03</pdfrwt>
<totfact> 0.23546829E+05</totfact>
</mgrwt>
</event>
<event>
 5    1  0.2051810E+000  0.6548424E+02  0.7546771E-02  0.1376159E+00
         21   -1    0    0  503  502  0.00000000000E+00  0.00000000000E+00  0.64205708515E+02  0.64205708515E+02  0.00000000000E+00 0. -1.
         21   -1    0    0  501  503 -0.00000000000E+00 -0.00000000000E+00 -0.14979532871E+03  0.14979532871E+03  0.00000000000E+00 0. -1.
         24    1    1    2    0    0 -0.98886139125E+01 -0.20976793755E+02  0.88973402222E+01  0.84167625479E+02  0.80419002446E+02 0. -1.
          1    1    1    2  501    0  0.23176539902E+02  0.89676075591E+00 -0.10200483503E+03  0.10460852045E+03  0.00000000000E+00 0. -1.
         -2    1    1    2    0  502 -0.13287925990E+02  0.20080032999E+02  0.75178746081E+01  0.25224891298E+02  0.00000000000E+00 0.  1.
<mgrwt>
<rscale>  2 0.65484236E+02</rscale>
<asrwt>0</asrwt>
<pdfrwt beam="1">  1       21 0.98778013E-02 0.65484236E+02</pdfrwt>
<pdfrwt beam="2">  1       21 0.23045435E-01 0.65484236E+02</pdfrwt>
<totfact> 0.14333407E+06</totfact>
</mgrwt>
</event>
<event>
 5    1  0.2051810E+000  0.6843482E+02  0.7546771E-02  0.1365498E+00
         21   -1    0    0  501  502  0.00000000000E+00  0.00000000000E+00  0.32339053998E+02  0.32339053998E+02  0.00000000000E+00 0. -1.
         21   -1    0    0  502  503 -0.00000000000E+00 -0.00000000000E+00 -0.43293028685E+03  0.43293028685E+03  0.00000000000E+00 0. -1.
         24    1    1    2    0    0  0.10760562674E+02  0.25892428914E+02 -0.32394419828E+03  0.33495263417E+03  0.80419002446E+02 0. -1.
          1    1    1    2  501    0 -0.24185972237E+02 -0.19644980560E+01  0.18995602839E+02  0.30816447441E+02  0.00000000000E+00 0. -1.
         -2    1    1    2    0  503  0.13425409563E+02 -0.23927930858E+02 -0.95642637409E+02  0.99500259234E+02  0.00000000000E+00 0.  1.
<mgrwt>
<rscale>  2 0.68434815E+02</rscale>
<asrwt>0</asrwt>
<pdfrwt beam="1">  1       21 0.49752391E-02 0.68434815E+02</pdfrwt>
<pdfrwt beam="2">  1       21 0.66604659E-01 0.68434815E+02</pdfrwt>
<totfact> 0.56604780E+05</totfact>
</mgrwt>
</event>
<event>
 5    1  0.2051810E+000  0.1123790E+03  0.7546771E-02  0.1256227E+00
         21   -1    0    0  501  502  0.00000000000E+00  0.00000000000E+00  0.26788999817E+03  0.26788999817E+03  0.00000000000E+00 0.  1.
         21   -1    0    0  502  503 -0.00000000000E+00 -0.00000000000E+00 -0.42677900601E+03  0.42677900601E+03  0.00000000000E+00 0.  1.
         24    1    1    2    0    0 -0.62587172997E+02 -0.32006709460E+02  0.11278843598E+03  0.15533843993E+03  0.80419002446E+02 0.  1.
          1    1    1    2  501    0  0.72564615805E+02  0.56195653860E+02  0.11759955368E+03  0.14917516551E+03  0.00000000000E+00 0. -1.
         -2    1    1    2    0  503 -0.99774428082E+01 -0.24188944399E+02 -0.38927699749E+03  0.39015539875E+03  0.00000000000E+00 0.  1.
<mgrwt>
<rscale>  2 0.11237896E+03</rscale>
<asrwt>0</asrwt>
<pdfrwt beam="1">  1       21 0.41213846E-01 0.11237896E+03</pdfrwt>
<pdfrwt beam="2">  1       21 0.65658308E-01 0.11237896E+03</pdfrwt>
<totfact> 0.12855902E+04</totfact>
</mgrwt>
</event>
<event>
 5    1  0.2051810E+000  0.8437645E+02  0.7546771E-02  0.1317071E+00
         21   -1    0    0  503  502  0.00000000000E+00  0.00000000000E+00  0.99291446052E+03  0.99291446052E+03  0.00000000000E+00 0.  1.
         21   -1    0    0  501  503 -0.00000000000E+00 -0.00000000000E+00 -0.62479927004E+03  0.62479927004E+03  0.00000000000E+00 0. -1.
         24    1    1    2    0    0 -0.24026677668E+02  0.51014126137E+02 -0.27464227398E+03  0.29167673358E+03  0.80419002446E+02 0.  0.
          1    1    1    2  501    0  0.21502932849E+02 -0.21559276736E+01 -0.34068933606E+03  0.34137405855E+03  0.00000000000E+00 0. -1.
         -2    1    1    2    0  502  0.25237448198E+01 -0.48858198464E+02  0.98344680052E+03  0.98466293842E+03  0.00000000000E+00 0.  1.
<mgrwt>
<rscale>  2 0.84376453E+02</rscale>
<asrwt>0</asrwt>
<pdfrwt beam="1">  1       21 0.15275607E+00 0.84376453E+02</pdfrwt>
<pdfrwt beam="2">  1       21 0.96122964E-01 0.84376453E+02</pdfrwt>
<totfact> 0.31113029E+02</totfact>
</mgrwt>
</event>
<event>
 5    1  0.2051810E+000  0.1191943E+03  0.7546771E-02  0.1244432E+00
         21   -1    0    0  503  502  0.00000000000E+00  0.00000000000E+00  0.74772793634E+03  0.74772793634E+03  0.00000000000E+00 0.  1.
         21   -1    0    0  501  503 -0.00000000000E+00 -0.00000000000E+00 -0.13452163343E+03  0.13452163343E+03  0.00000000000E+00 0. -1.
         24    1    1    2    0    0 -0.89761453752E+01 -0.87714567480E+02  0.85642575114E+02  0.14688867608E+03  0.80419002446E+02 0. -1.
          1    1    1    2  501    0 -0.14549067075E+02  0.93661704664E+02 -0.81989153574E+02  0.12532522323E+03  0.00000000000E+00 0. -1.
         -2    1    1    2    0  502  0.23525212450E+02 -0.59471371839E+01  0.60955288137E+03  0.61003567047E+03  0.00000000000E+00 0.  1.
<mgrwt>
<rscale>  2 0.11919428E+03</rscale>
<asrwt>0</asrwt>
<pdfrwt beam="1">  1       21 0.11503507E+00 0.11919428E+03</pdfrwt>
<pdfrwt beam="2">  1       21 0.20695636E-01 0.11919428E+03</pdfrwt>
<totfact> 0.13431746E+04</totfact>
</mgrwt>
</event>
<event>
 5    1  0.2051810E+000  0.7625121E+02  0.7546771E-02  0.1340040E+00
         21   -1    0    0  501  502  0.00000000000E+00  0.00000000000E+00  0.28312989993E+02  0.28312989993E+02  0.00000000000E+00 0.  1.
         21   -1    0    0  502  503 -0.00000000000E+00 -0.00000000000E+00 -0.87409480525E+03  0.87409480525E+03  0.00000000000E+00 0.  1.
         24    1    1    2    0    0 -0.39693130260E+02 -0.29063826093E+02 -0.61921119820E+02  0.11279047660E+03  0.80419002446E+02 0.  1.
          1    1    1    2  501    0  0.26109557638E+02 -0.41953072517E-01 -0.65119840878E+02  0.70159136512E+02  0.00000000000E+00 0. -1.
         -2    1    1    2    0  503  0.13583572622E+02  0.29105779166E+02 -0.71874085456E+03  0.71945818213E+03  0.00000000000E+00 0.  1.
<mgrwt>
<rscale>  2 0.76251207E+02</rscale>
<asrwt>0</asrwt>
<pdfrwt beam="1">  1       21 0.43558439E-02 0.76251207E+02</pdfrwt>
<pdfrwt beam="2">  1       21 0.13447615E+00 0.76251207E+02</pdfrwt>
<totfact> 0.14236320E+05</totfact>
</mgrwt>
</event>
<event>
 5    1  0.2051810E+000  0.1311046E+03  0.7546771E-02  0.1225826E+00
         21   -1    0    0  503  502  0.00000000000E+00  0.00000000000E+00  0.28303925710E+02  0.28303925710E+02  0.00000000000E+00 0. -1.
         21   -1    0    0  501  503 -0.00000000000E+00 -0.00000000000E+00 -0.99854215850E+03  0.99854215850E+03  0.00000000000E+00 0. -1.
         24    1    1    2    0    0  0.86735951295E+02 -0.80316696436E+02 -0.33049027137E+03  0.36009017259E+03  0.80419002446E+02 0. -1.
          1    1    1    2  501    0 -0.20809467590E+02  0.28992979599E+02 -0.51724335492E+03  0.51847306103E+03  0.00000000000E+00 0. -1.
         -2    1    1    2    0  502 -0.65926483705E+02  0.51323716837E+02 -0.12250460650E+03  0.14828285059E+03  0.00000000000E+00 0.  1.
<mgrwt>
<rscale>  2 0.13110463E+03</rscale>
<asrwt>0</asrwt>
<pdfrwt beam="1">  1       21 0.43544501E-02 0.13110463E+03</pdfrwt>
<pdfrwt beam="2">  1       21 0.15362187E+00 0.13110463E+03</pdfrwt>
<totfact> 0.98387184E+04</totfact>
</mgrwt>
</event>
<event>
 5    1  0.2051810E+000  0.9270663E+02  0.7546771E-02  0.1296426E+00
         21   -1    0    0  501  502  0.00000000000E+00  0.00000000000E+00  0.20211749505E+03  0.20211749505E+03  0.00000000000E+00 0.  1.
         21   -1    0    0  502  503 -0.00000000000E+00 -0.00000000000E+00 -0.49517836742E+02  0.49517836742E+02  0.00000000000E+00 0.  1.
         24    1    1    2    0    0 -0.38852278536E+02 -0.49077209834E+02  0.12906726352E+03  0.16444952581E+03  0.80419002446E+02 0.  1.
          1    1    1    2  501    0 -0.11178400971E+02  0.26213788945E+02  0.12323113624E+02  0.31048003293E+02  0.00000000000E+00 0. -1.
         -2    1    1    2    0  503  0.50030679507E+02  0.22863420889E+02  0.11209281169E+02  0.56137802691E+02  0.00000000000E+00 0.  1.
<mgrwt>
<rscale>  2 0.92706629E+02</rscale>
<asrwt>0</asrwt>
<pdfrwt beam="1">  1       21 0.31094999E-01 0.92706629E+02</pdfrwt>
<pdfrwt beam="2">  1       21 0.76181288E-02 0.92706629E+02</pdfrwt>
<totfact> 0.12882556E+06</totfact>
</mgrwt>
</event>
<event>
 5    1  0.2051810E+000  0.1094512E+03  0.7546771E-02  0.1261589E+00
         21   -1    0    0  501  502  0.00000000000E+00  0.00000000000E+00  0.10428281547E+03  0.10428281547E+03  0.00000000000E+00 0. -1.
         21   -1    0    0  502  503 -0.00000000000E+00 -0.00000000000E+00 -0.17012166631E+03  0.17012166631E+03  0.00000000000E+00 0.  1.
         24    1    1    2    0    0 -0.24369855513E+02  0.48623558992E+02 -0.29108671807E+02  0.10135418628E+03  0.80419002446E+02 0.  1.
          1    1    1    2  501    0  0.38718000510E+02 -0.79136376588E+02  0.34206507637E+02  0.94507855905E+02  0.00000000000E+00 0. -1.
         -2    1    1    2    0  503 -0.14348144997E+02  0.30512817596E+02 -0.70936686665E+02  0.78542439595E+02  0.00000000000E+00 0.  1.
<mgrwt>
<rscale>  2 0.10945123E+03</rscale>
<asrwt>0</asrwt>
<pdfrwt beam="1">  1       21 0.16043510E-01 0.10945123E+03</pdfrwt>
<pdfrwt beam="2">  1       21 0.26172564E-01 0.10945123E+03</pdfrwt>
<totfact> 0.48610231E+05</totfact>
</mgrwt>
</event>
<event>
 5    1  0.2154135E+000  0.6452639E+02  0.7546771E-02  0.1379762E+00
         21   -1    0    0  503  502  0.00000000000E+00  0.00000000000E+00  0.55650107421E+02  0.55650107421E+02  0.00000000000E+00 0. -1.
         21   -1    0    0  501  503 -0.00000000000E+00 -0.00000000000E+00 -0.75611963624E+02  0.75611963624E+02  0.00000000000E+00 0.  1.
         24    1    1    2    0    0  0.48161168082E+00  0.37227836299E+01 -0.12597387965E+02  0.81486202548E+02  0.80419002446E+02 0.  0.
          1    1    1    2  501    0 -0.24172227955E+02 -0.54965484158E+01 -0.78854022380E+01  0.26013231580E+02  0.00000000000E+00 0. -1.
         -2    1    1    2    0  502  0.23690616274E+02  0.17737647859E+01  0.52093400033E+00  0.23762636916E+02  0.00000000000E+00 0.  1.
<mgrwt>
<rscale>  2 0.64526388E+02</rscale>
<asrwt>0</asrwt>
<pdfrwt beam="1">  1       21 0.85615551E-02 0.64526388E+02</pdfrwt>
<pdfrwt beam="2">  1       21 0.11632610E-01 0.64526388E+02</pdfrwt>
<totfact> 0.61826067E+06</totfact>
</mgrwt>
</event>
<event>
 5    1  0.2051810E+000  0.7739666E+02  0.7546771E-02  0.1336606E+00
         21   -1    0    0  503  502  0.00000000000E+00  0.00000000000E+00  0.74256683323E+02  0.74256683323E+02  0.00000000000E+00 0. -1.
         21   -1    0    0  501  503 -0.00000000000E+00 -0.00000000000E+00 -0.13419230039E+03  0.13419230039E+03  0.00000000000E+00 0.  1.
         24    1    1    2    0    0  0.58872133509E+01  0.47960921328E+02 -0.91609042636E+02  0.13112719742E+03  0.80419002446E+02 0.  1.
          1    1    1    2  501    0  0.13168310684E+02 -0.36344570690E+02  0.99152853325E-01  0.38656720712E+02  0.00000000000E+00 0. -1.
         -2    1    1    2    0  502 -0.19055524035E+02 -0.11616350638E+02  0.31574272720E+02  0.38665065578E+02  0.00000000000E+00 0.  1.
<mgrwt>
<rscale>  2 0.77396664E+02</rscale>
<asrwt>0</asrwt>
<pdfrwt beam="1">  1       21 0.11424105E-01 0.77396664E+02</pdfrwt>
<pdfrwt beam="2">  1       21 0.20644969E-01 0.77396664E+02</pdfrwt>
<totfact> 0.13726299E+06</totfact>
</mgrwt>
</event>
<event>
 5    1  0.2051810E+000  0.9736962E+02  0.7546771E-02  0.1285927E+00
         21   -1    0    0  501  502  0.00000000000E+00  0.00000000000E+00  0.72496521783E+03  0.72496521783E+03  0.00000000000E+00 0.  1.
         21   -1    0    0  502  503 -0.00000000000E+00 -0.00000000000E+00 -0.17263026847E+02  0.17263026847E+02  0.00000000000E+00 0.  1.
         24    1    1    2    0    0 -0.17765783553E+01 -0.55667269987E+02  0.48090140866E+03  0.49074981608E+03  0.80419002446E+02 0.  1.
          1    1    1    2  501    0 -0.68343866267E+01 -0.19807009625E+02  0.11117073570E+03  0.11312806437E+03  0.00000000000E+00 0. -1.
         -2    1    1    2    0  503  0.86109649820E+01  0.75474279612E+02  0.11563004663E+03  0.13835036423E+03  0.00000000000E+00 0.  1.
<mgrwt>
<rscale>  2 0.97369622E+02</rscale>
<asrwt>0</asrwt>
<pdfrwt beam="1">  1       21 0.11153309E+00 0.97369622E+02</pdfrwt>
<pdfrwt beam="2">  1       21 0.26558508E-02 0.97369622E+02</pdfrwt>
<totfact> 0.49764808E+05</totfact>
</mgrwt>
</event>
<event>
 5    1  0.2051810E+000  0.6973643E+02  0.7546771E-02  0.1360992E+00
         21   -1    0    0  501  502  0.00000000000E+00  0.00000000000E+00  0.58701007671E+03  0.58701007671E+03  0.00000000000E+00 0. -1.
         21   -1    0    0  502  503 -0.00000000000E+00 -0.00000000000E+00 -0.34954433782E+02  0.34954433782E+02  0.00000000000E+00 0.  1.
         24    1    1    2    0    0 -0.42313096766E+02  0.18312057725E+02  0.32553855874E+02  0.98248150632E+02  0.80419002446E+02 0.  1.
          1    1    1    2  501    0  0.25694585121E+02 -0.68669186499E+01  0.46221750931E+03  0.46298206465E+03  0.00000000000E+00 0. -1.
         -2    1    1    2    0  503  0.16618511645E+02 -0.11445139075E+02  0.57284277743E+02  0.60734295207E+02  0.00000000000E+00 0.  1.
<mgrwt>
<rscale>  2 0.69736429E+02</rscale>
<asrwt>0</asrwt>
<pdfrwt beam="1">  1       21 0.90309235E-01 0.69736429E+02</pdfrwt>
<pdfrwt beam="2">  1       21 0.53776056E-02 0.69736429E+02</pdfrwt>
<totfact> 0.25636523E+05</totfact>
</mgrwt>
</event>
<event>
 5    1  0.2051810E+000  0.8576231E+02  0.7546771E-02  0.1313451E+00
         21   -1    0    0  501  502  0.00000000000E+00  0.00000000000E+00  0.19932943232E+02  0.19932943232E+02  0.00000000000E+00 0. -1.
         21   -1    0    0  502  503 -0.00000000000E+00 -0.00000000000E+00 -0.12789667621E+04  0.12789667621E+04  0.00000000000E+00 0. -1.
         24    1    1    2    0    0 -0.31018416364E+02 -0.57851524844E+02 -0.11565303465E+04  0.11611798308E+04  0.80419002446E+02 0. -1.
          1    1    1    2  501    0  0.88056622834E+01  0.34006754674E+02 -0.57119622141E+01  0.35589683394E+02  0.00000000000E+00 0. -1.
         -2    1    1    2    0  503  0.22212754081E+02  0.23844770169E+02 -0.96791510175E+02  0.10213019118E+03  0.00000000000E+00 0.  1.
<mgrwt>
<rscale>  2 0.85762310E+02</rscale>
<asrwt>0</asrwt>
<pdfrwt beam="1">  1       21 0.30666061E-02 0.85762310E+02</pdfrwt>
<pdfrwt beam="2">  1       21 0.19676415E+00 0.85762310E+02</pdfrwt>
<totfact> 0.92742567E+04</totfact>
</mgrwt>
</event>
<event>
 5    1  0.2707127E+000  0.1111616E+03  0.7546771E-02  0.1258434E+00
         21   -1    0    0  501  502  0.00000000000E+00  0.00000000000E+00  0.13919033417E+04  0.13919033417E+04  0.00000000000E+00 0.  1.
         21   -1    0    0  502  503 -0.00000000000E+00 -0.00000000000E+00 -0.17420054042E+03  0.17420054042E+03  0.00000000000E+00 0.  1.
         24    1    1    2    0    0  0.37266747168E+01  0.38490892230E+02  0.91798158707E+03  0.92230843379E+03  0.80419002446E+02 0.  1.
          1    1    1    2  501    0  0.57915075038E+02 -0.41697999861E+02  0.46340097037E+03  0.46886388051E+03  0.00000000000E+00 0. -1.
         -2    1    1    2    0  503 -0.61641749755E+02  0.32071076310E+01 -0.16367975615E+03  0.17493156784E+03  0.00000000000E+00 0.  1.
<mgrwt>
<rscale>  2 0.11116162E+03</rscale>
<asrwt>0</asrwt>
<pdfrwt beam="1">  1       21 0.21413897E+00 0.11116162E+03</pdfrwt>
<pdfrwt beam="2">  1       21 0.26800084E-01 0.11116162E+03</pdfrwt>
<totfact> 0.16217528E+03</totfact>
</mgrwt>
</event>
<event>
 5    1  0.2051810E+000  0.9903986E+02  0.7546771E-02  0.1282328E+00
         21   -1    0    0  501  502  0.00000000000E+00  0.00000000000E+00  0.23698102116E+02  0.23698102116E+02  0.00000000000E+00 0.  1.
         21   -1    0    0  502  503 -0.00000000000E+00 -0.00000000000E+00 -0.49027627468E+03  0.49027627468E+03  0.00000000000E+00 0.  1.
         24    1    1    2    0    0 -0.80123421858E+00 -0.17280493439E+02 -0.23858493224E+03  0.25236727854E+03  0.80419002446E+02 0.  1.
          1    1    1    2  501    0 -0.41748583894E+02 -0.30603175267E+02 -0.48148669448E+02  0.70695070289E+02  0.00000000000E+00 0. -1.
         -2    1    1    2    0  503  0.42549818113E+02  0.47883668707E+02 -0.17984457088E+03  0.19091202797E+03  0.00000000000E+00 0.  1.
<mgrwt>
<rscale>  2 0.99039856E+02</rscale>
<asrwt>0</asrwt>
<pdfrwt beam="1">  1       21 0.36458623E-02 0.99039856E+02</pdfrwt>
<pdfrwt beam="2">  1       21 0.75427111E-01 0.99039856E+02</pdfrwt>
<totfact> 0.72361254E+05</totfact>
</mgrwt>
</event>
<event>
 5    1  0.2051810E+000  0.8267472E+02  0.7546771E-02  0.1321628E+00
         21   -1    0    0  503  502  0.00000000000E+00  0.00000000000E+00  0.25134852624E+02  0.25134852624E+02  0.00000000000E+00 0.  1.
         21   -1    0    0  501  503 -0.00000000000E+00 -0.00000000000E+00 -0.51592308093E+03  0.51592308093E+03  0.00000000000E+00 0.  1.
         24    1    1    2    0    0  0.87349988044E+01 -0.23344845447E+02 -0.35173050213E+03  0.36166675835E+03  0.80419002446E+02 0.  1.
          1    1    1    2  501    0  0.23899094726E+02 -0.16953178502E+02 -0.12097650512E+03  0.12447446236E+03  0.00000000000E+00 0. -1.
         -2    1    1    2    0  502 -0.32634093531E+02  0.40298023948E+02 -0.18081221065E+02  0.54916712847E+02  0.00000000000E+00 0.  1.
<mgrwt>
<rscale>  2 0.82674725E+02</rscale>
<asrwt>0</asrwt>
<pdfrwt beam="1">  1       21 0.38669009E-02 0.82674725E+02</pdfrwt>
<pdfrwt beam="2">  1       21 0.79372771E-01 0.82674725E+02</pdfrwt>
<totfact> 0.58728358E+05</totfact>
</mgrwt>
</event>
<event>
 5    1  0.2051810E+000  0.9853794E+02  0.7546771E-02  0.1283401E+00
         21   -1    0    0  503  502  0.00000000000E+00  0.00000000000E+00  0.65544342240E+02  0.65544342240E+02  0.00000000000E+00 0.  1.
         21   -1    0    0  501  503 -0.00000000000E+00 -0.00000000000E+00 -0.34562231294E+03  0.34562231294E+03  0.00000000000E+00 0. -1.
         24    1    1    2    0    0 -0.11561734098E+02  0.28984825837E+02 -0.10078886269E+03  0.13266274768E+03  0.80419002446E+02 0. -1.
          1    1    1    2  501    0 -0.41357322067E+02 -0.39126475368E+02 -0.20924682077E+03  0.21685373220E+03  0.00000000000E+00 0. -1.
         -2    1    1    2    0  502  0.52919056165E+02  0.10141649531E+02  0.29957712769E+02  0.61650175303E+02  0.00000000000E+00 0.  1.
<mgrwt>
<rscale>  2 0.98537937E+02</rscale>
<asrwt>0</asrwt>
<pdfrwt beam="1">  1       21 0.10083745E-01 0.98537937E+02</pdfrwt>
<pdfrwt beam="2">  1       21 0.53172662E-01 0.98537937E+02</pdfrwt>
<totfact> 0.27363700E+05</totfact>
</mgrwt>
</event>
<event>
 5    1  0.2051810E+000  0.6959092E+02  0.7546771E-02  0.1361490E+00
         21   -1    0    0  501  502  0.00000000000E+00  0.00000000000E+00  0.81882840614E+03  0.81882840614E+03  0.00000000000E+00 0. -1.
         21   -1    0    0  502  503 -0.00000000000E+00 -0.00000000000E+00 -0.11199471206E+02  0.11199471206E+02  0.00000000000E+00 0.  1.
         24    1    1    2    0    0 -0.25286339953E+01 -0.29078615505E+02  0.25666909828E+03  0.27055166205E+03  0.80419002446E+02 0.  0.
          1    1    1    2  501    0  0.22614233718E+02  0.67582201431E+01  0.49828718019E+03  0.49884585901E+03  0.00000000000E+00 0. -1.
         -2    1    1    2    0  503 -0.20085599723E+02  0.22320395362E+02  0.52672656460E+02  0.60630356290E+02  0.00000000000E+00 0.  1.
<mgrwt>
<rscale>  2 0.69590920E+02</rscale>
<asrwt>0</asrwt>
<pdfrwt beam="1">  1       21 0.12597355E+00 0.69590920E+02</pdfrwt>
<pdfrwt beam="2">  1       21 0.17229962E-02 0.69590920E+02</pdfrwt>
<totfact> 0.74507018E+05</totfact>
</mgrwt>
</event>
<event>
 5    1  0.2051810E+000  0.6792386E+02  0.7546771E-02  0.1367299E+00
         21   -1    0    0  501  502  0.00000000000E+00  0.00000000000E+00  0.10881654476E+04  0.10881654476E+04  0.00000000000E+00 0. -1.
         21   -1    0    0  502  503 -0.00000000000E+00 -0.00000000000E+00 -0.37253238635E+02  0.37253238635E+02  0.00000000000E+00 0. -1.
         24    1    1    2    0    0 -0.14027492577E+02 -0.19052480399E+01  0.23944709446E+02  0.85093863368E+02  0.80419002446E+02 0. -1.
          1    1    1    2  501    0  0.26453791906E+02  0.19349167532E+02  0.10155035827E+04  0.10160323419E+04  0.00000000000E+00 0. -1.
         -2    1    1    2    0  503 -0.12426299329E+02 -0.17443919492E+02  0.11463916876E+02  0.24292480985E+02  0.00000000000E+00 0.  1.
<mgrwt>
<rscale>  2 0.67923861E+02</rscale>
<asrwt>0</asrwt>
<pdfrwt beam="1">  1       21 0.16741004E+00 0.67923861E+02</pdfrwt>
<pdfrwt beam="2">  1       21 0.57312683E-02 0.67923861E+02</pdfrwt>
<totfact> 0.52378549E+04</totfact>
</mgrwt>
</event>
<event>
 5    1  0.2051810E+000  0.6649781E+02  0.7546771E-02  0.1372424E+00
         21   -1    0    0  501  502  0.00000000000E+00  0.00000000000E+00  0.20184616258E+03  0.20184616258E+03  0.00000000000E+00 0. -1.
         21   -1    0    0  502  503 -0.00000000000E+00 -0.00000000000E+00 -0.85373412783E+02  0.85373412783E+02  0.00000000000E+00 0.  1.
         24    1    1    2    0    0  0.25260797726E+02  0.16815134904E+02  0.16947491289E+03  0.19002583697E+03  0.80419002446E+02 0.  0.
          1    1    1    2  501    0 -0.19946982349E+02  0.81275777939E+01  0.13873445620E+02  0.25620540959E+02  0.00000000000E+00 0. -1.
         -2    1    1    2    0  503 -0.53138153770E+01 -0.24942712698E+02 -0.66875608710E+02  0.71573197434E+02  0.00000000000E+00 0.  1.
<mgrwt>
<rscale>  2 0.66497809E+02</rscale>
<asrwt>0</asrwt>
<pdfrwt beam="1">  1       21 0.31053256E-01 0.66497809E+02</pdfrwt>
<pdfrwt beam="2">  1       21 0.13134371E-01 0.66497809E+02</pdfrwt>
<totfact> 0.50144300E+05</totfact>
</mgrwt>
</event>
<event>
 5    1  0.2051810E+000  0.1037972E+03  0.7546771E-02  0.1272508E+00
         21   -1    0    0  503  502  0.00000000000E+00  0.00000000000E+00  0.14426980361E+03  0.14426980361E+03  0.00000000000E+00 0.  1.
         21   -1    0    0  501  503 -0.00000000000E+00 -0.00000000000E+00 -0.10155669529E+03  0.10155669529E+03  0.00000000000E+00 0.  1.
         24    1    1    2    0    0 -0.19336794125E+02  0.26713366505E+02 -0.23502236525E+02  0.90039361576E+02  0.80419002446E+02 0.  1.
          1    1    1    2  501    0 -0.48756245355E+02 -0.18247760734E+02 -0.10238968787E+02  0.53056467228E+02  0.00000000000E+00 0. -1.
         -2    1    1    2    0  502  0.68093039480E+02 -0.84656057709E+01  0.76454313629E+02  0.10273067010E+03  0.00000000000E+00 0.  1.
<mgrwt>
<rscale>  2 0.10379717E+03</rscale>
<asrwt>0</asrwt>
<pdfrwt beam="1">  1       21 0.22195354E-01 0.10379717E+03</pdfrwt>
<pdfrwt beam="2">  1       21 0.15624107E-01 0.10379717E+03</pdfrwt>
<totfact> 0.69424518E+05</totfact>
</mgrwt>
</event>
<event>
 5    1  0.2051810E+000  0.6266557E+02  0.7546771E-02  0.1386974E+00
         21   -1    0    0  501  502  0.00000000000E+00  0.00000000000E+00  0.20082048521E+02  0.20082048521E+02  0.00000000000E+00 0. -1.
         21   -1    0    0  502  503 -0.00000000000E+00 -0.00000000000E+00 -0.29333844508E+03  0.29333844508E+03  0.00000000000E+00 0.  1.
         24    1    1    2    0    0 -0.97555394932E+00  0.23302088564E+01 -0.11299797101E+03  0.13871603724E+03  0.80419002446E+02 0.  0.
          1    1    1    2  501    0 -0.11202079337E+01  0.21209798895E+02 -0.11642208771E+02  0.24220888920E+02  0.00000000000E+00 0. -1.
         -2    1    1    2    0  503  0.20957618830E+01 -0.23540007752E+02 -0.14861621677E+03  0.15048356744E+03  0.00000000000E+00 0.  1.
<mgrwt>
<rscale>  2 0.62665573E+02</rscale>
<asrwt>0</asrwt>
<pdfrwt beam="1">  1       21 0.30895458E-02 0.62665573E+02</pdfrwt>
<pdfrwt beam="2">  1       21 0.45128993E-01 0.62665573E+02</pdfrwt>
<totfact> 0.27281236E+06</totfact>
</mgrwt>
</event>
<event>
 5    1  0.2051810E+000  0.9249657E+02  0.7546771E-02  0.1296916E+00
         21   -1    0    0  501  502  0.00000000000E+00  0.00000000000E+00  0.38106007675E+02  0.38106007675E+02  0.00000000000E+00 0. -1.
         21   -1    0    0  502  503 -0.00000000000E+00 -0.00000000000E+00 -0.36472855866E+03  0.36472855866E+03  0.00000000000E+00 0. -1.
         24    1    1    2    0    0  0.29097333517E+02 -0.59113046006E+02 -0.26091505014E+03  0.28086453384E+03  0.80419002446E+02 0. -1.
          1    1    1    2  501    0  0.99579370055E+00  0.49398100366E+02 -0.40040423273E+00  0.49409758635E+02  0.00000000000E+00 0. -1.
         -2    1    1    2    0  503 -0.30093127217E+02  0.97149456401E+01 -0.65307096612E+02  0.72560273859E+02  0.00000000000E+00 0.  1.
<mgrwt>
<rscale>  2 0.92496572E+02</rscale>
<asrwt>0</asrwt>
<pdfrwt beam="1">  1       21 0.58624625E-02 0.92496572E+02</pdfrwt>
<pdfrwt beam="2">  1       21 0.56112088E-01 0.92496572E+02</pdfrwt>
<totfact> 0.61825840E+05</totfact>
</mgrwt>
</event>
<event>
 5    1  0.2051810E+000  0.7573258E+02  0.7546771E-02  0.1341617E+00
         21   -1    0    0  501  502  0.00000000000E+00  0.00000000000E+00  0.14084226812E+03  0.14084226812E+03  0.00000000000E+00 0.  1.
         21   -1    0    0  502  503 -0.00000000000E+00 -0.00000000000E+00 -0.72748094267E+02  0.72748094267E+02  0.00000000000E+00 0.  1.
         24    1    1    2    0    0 -0.12620806912E+01 -0.43312269247E+02  0.83855576082E+02  0.12400209317E+03  0.80419002446E+02 0.  1.
          1    1    1    2  501    0  0.21291754577E+02  0.26283414137E+02  0.24315279086E+02  0.41658006057E+02  0.00000000000E+00 0. -1.
         -2    1    1    2    0  503 -0.20029673885E+02  0.17028855110E+02 -0.40076681312E+02  0.47930263167E+02  0.00000000000E+00 0.  1.
<mgrwt>
<rscale>  2 0.75732579E+02</rscale>
<asrwt>0</asrwt>
<pdfrwt beam="1">  1       21 0.21668041E-01 0.75732579E+02</pdfrwt>
<pdfrwt beam="2">  1       21 0.11192015E-01 0.75732579E+02</pdfrwt>
<totfact> 0.13010429E+06</totfact>
</mgrwt>
</event>
<event>
 5    1  0.2051810E+000  0.1133406E+03  0.7546771E-02  0.1254506E+00
         21   -1    0    0  501  502  0.00000000000E+00  0.00000000000E+00  0.12220412812E+03  0.12220412812E+03  0.00000000000E+00 0. -1.
         21   -1    0    0  502  503 -0.00000000000E+00 -0.00000000000E+00 -0.40213664349E+03  0.40213664349E+03  0.00000000000E+00 0.  1.
         24    1    1    2    0    0  0.39459793623E+02  0.88731668247E+02 -0.77435271211E+02  0.14796560899E+03  0.80419002446E+02 0.  0.
          1    1    1    2  501    0 -0.11976461892E+01 -0.32839423002E+02  0.79675761277E+02  0.86186361999E+02  0.00000000000E+00 0. -1.
         -2    1    1    2    0  503 -0.38262147434E+02 -0.55892245245E+02 -0.28217300544E+03  0.29018880061E+03  0.00000000000E+00 0.  1.
<mgrwt>
<rscale>  2 0.11334062E+03</rscale>
<asrwt>0</asrwt>
<pdfrwt beam="1">  1       21 0.18800635E-01 0.11334062E+03</pdfrwt>
<pdfrwt beam="2">  1       21 0.61867176E-01 0.11334062E+03</pdfrwt>
<totfact> 0.65253501E+04</totfact>
</mgrwt>
</event>
<event>
 5    1  0.2051810E+000  0.1224408E+03  0.7546771E-02  0.1239124E+00
         21   -1    0    0  503  502  0.00000000000E+00  0.00000000000E+00  0.75829831371E+03  0.75829831371E+03  0.00000000000E+00 0. -1.
         21   -1    0    0  501  503 -0.00000000000E+00 -0.00000000000E+00 -0.34575781732E+02  0.34575781732E+02  0.00000000000E+00 0. -1.
         24    1    1    2    0    0 -0.98327550753E+02  0.30531640057E+02  0.59631124492E+03  0.61045458885E+03  0.80419002446E+02 0. -1.
          1    1    1    2  501    0  0.30839973324E+02 -0.34943723343E+02  0.11156291910E+02  0.47923173986E+02  0.00000000000E+00 0. -1.
         -2    1    1    2    0  502  0.67487577429E+02  0.44120832863E+01  0.11625499515E+03  0.13449633260E+03  0.00000000000E+00 0.  1.
<mgrwt>
<rscale>  2 0.12244080E+03</rscale>
<asrwt>0</asrwt>
<pdfrwt beam="1">  1       21 0.11666127E+00 0.12244080E+03</pdfrwt>
<pdfrwt beam="2">  1       21 0.53193516E-02 0.12244080E+03</pdfrwt>
<totfact> 0.14095378E+05</totfact>
</mgrwt>
</event>
<event>
 5    1  0.2051810E+000  0.9290236E+02  0.7546771E-02  0.1295972E+00
         21   -1    0    0  503  502  0.00000000000E+00  0.00000000000E+00  0.22493462932E+03  0.22493462932E+03  0.00000000000E+00 0.  1.
         21   -1    0    0  501  503 -0.00000000000E+00 -0.00000000000E+00 -0.80178890836E+02  0.80178890836E+02  0.00000000000E+00 0. -1.
         24    1    1    2    0    0 -0.54872889553E+02  0.51917310482E+01  0.79687765343E+02  0.12591800498E+03  0.80419002446E+02 0.  0.
          1    1    1    2  501    0  0.59586831810E+02  0.19867219614E+02 -0.37736683373E+02  0.73275877424E+02  0.00000000000E+00 0. -1.
         -2    1    1    2    0  502 -0.47139422572E+01 -0.25058950662E+02  0.10280465652E+03  0.10591963775E+03  0.00000000000E+00 0.  1.
<mgrwt>
<rscale>  2 0.92902355E+02</rscale>
<asrwt>0</asrwt>
<pdfrwt beam="1">  1       21 0.34605327E-01 0.92902355E+02</pdfrwt>
<pdfrwt beam="2">  1       21 0.12335214E-01 0.92902355E+02</pdfrwt>
<totfact> 0.45501356E+05</totfact>
</mgrwt>
</event>
<event>
 5    1  0.2051810E+000  0.8395670E+02  0.7546771E-02  0.1318184E+00
         21   -1    0    0  501  502  0.00000000000E+00  0.00000000000E+00  0.22123016169E+03  0.22123016169E+03  0.00000000000E+00 0. -1.
         21   -1    0    0  502  503 -0.00000000000E+00 -0.00000000000E+00 -0.33261185340E+02  0.33261185340E+02  0.00000000000E+00 0.  1.
         24    1    1    2    0    0  0.31468777017E+01  0.41254066946E+02  0.76947279377E+02  0.11874300248E+03  0.80419002446E+02 0.  1.
          1    1    1    2  501    0  0.13794891149E+02 -0.54342967711E+02  0.87700086204E+02  0.10409016419E+03  0.00000000000E+00 0. -1.
         -2    1    1    2    0  503 -0.16941768851E+02  0.13088900765E+02  0.23321610772E+02  0.31658180365E+02  0.00000000000E+00 0.  1.
<mgrwt>
<rscale>  2 0.83956701E+02</rscale>
<asrwt>0</asrwt>
<pdfrwt beam="1">  1       21 0.34035409E-01 0.83956701E+02</pdfrwt>
<pdfrwt beam="2">  1       21 0.51171056E-02 0.83956701E+02</pdfrwt>
<totfact> 0.21077701E+06</totfact>
</mgrwt>
</event>
<event>
 5    1  0.2051810E+000  0.1024218E+03  0.7546771E-02  0.1275284E+00
         21   -1    0    0  501  502  0.00000000000E+00  0.00000000000E+00  0.31971429566E+03  0.31971429566E+03  0.00000000000E+00 0.  1.
         21   -1    0    0  502  503 -0.00000000000E+00 -0.00000000000E+00 -0.44817675630E+02  0.44817675630E+02  0.00000000000E+00 0. -1.
         24    1    1    2    0    0 -0.49406754805E+02 -0.57451427168E+02  0.70647444700E+02  0.13114866107E+03  0.80419002446E+02 0. -1.
          1    1    1    2  501    0  0.31731647475E+02 -0.25164555531E+01  0.14062875557E+03  0.14418625765E+03  0.00000000000E+00 0. -1.
         -2    1    1    2    0  503  0.17675107330E+02  0.59967882721E+02  0.63620419752E+02  0.89197052567E+02  0.00000000000E+00 0.  1.
<mgrwt>
<rscale>  2 0.10242183E+03</rscale>
<asrwt>0</asrwt>
<pdfrwt beam="1">  1       21 0.49186813E-01 0.10242183E+03</pdfrwt>
<pdfrwt beam="2">  1       21 0.68950272E-02 0.10242183E+03</pdfrwt>
<totfact> 0.61676513E+05</totfact>
</mgrwt>
</event>
<event>
 5    1  0.2051810E+000  0.1110826E+03  0.7546771E-02  0.1258578E+00
         21   -1    0    0  501  502  0.00000000000E+00  0.00000000000E+00  0.15849587394E+03  0.15849587394E+03  0.00000000000E+00 0. -1.
         21   -1    0    0  502  503 -0.00000000000E+00 -0.00000000000E+00 -0.13758569790E+03  0.13758569790E+03  0.00000000000E+00 0. -1.
         24    1    1    2    0    0  0.56548239845E+02  0.38627656503E+02 -0.36570162207E+02  0.11177831630E+03  0.80419002446E+02 0. -1.
          1    1    1    2  501    0 -0.47550798999E+02 -0.69596115153E+02  0.10009758247E+03  0.13085955734E+03  0.00000000000E+00 0. -1.
         -2    1    1    2    0  503 -0.89974408455E+01  0.30968458650E+02 -0.42617244220E+02  0.53443698205E+02  0.00000000000E+00 0.  1.
<mgrwt>
<rscale>  2 0.11108258E+03</rscale>
<asrwt>0</asrwt>
<pdfrwt beam="1">  1       21 0.24383981E-01 0.11108258E+03</pdfrwt>
<pdfrwt beam="2">  1       21 0.21167030E-01 0.11108258E+03</pdfrwt>
<totfact> 0.33467102E+05</totfact>
</mgrwt>
</event>
<event>
 5    1  0.2051810E+000  0.7684692E+02  0.7546771E-02  0.1338245E+00
         21   -1    0    0  503  502  0.00000000000E+00  0.00000000000E+00  0.12515598196E+02  0.12515598196E+02  0.00000000000E+00 0.  1.
         21   -1    0    0  501  503 -0.00000000000E+00 -0.00000000000E+00 -0.99349710654E+03  0.99349710654E+03  0.00000000000E+00 0. -1.
         24    1    1    2    0    0 -0.46169688025E+02  0.13720710618E+02 -0.21234918993E+03  0.23211913409E+03  0.80419002446E+02 0.  0.
          1    1    1    2  501    0  0.18567882865E+02 -0.24136821704E+02 -0.67580959686E+03  0.67649535375E+03  0.00000000000E+00 0. -1.
         -2    1    1    2    0  502  0.27601805160E+02  0.10416111087E+02 -0.92822721556E+02  0.97398216900E+02  0.00000000000E+00 0.  1.
<mgrwt>
<rscale>  2 0.76846924E+02</rscale>
<asrwt>0</asrwt>
<pdfrwt beam="1">  1       21 0.19254771E-02 0.76846924E+02</pdfrwt>
<pdfrwt beam="2">  1       21 0.15284568E+00 0.76846924E+02</pdfrwt>
<totfact> 0.38675137E+05</totfact>
</mgrwt>
</event>
<event>
 5    1  0.2453584E+000  0.1398153E+03  0.7546771E-02  0.1213578E+00
         21   -1    0    0  503  502  0.00000000000E+00  0.00000000000E+00  0.40379368605E+03  0.40379368605E+03  0.00000000000E+00 0. -1.
         21   -1    0    0  501  503 -0.00000000000E+00 -0.00000000000E+00 -0.13270292095E+03  0.13270292095E+03  0.00000000000E+00 0. -1.
         24    1    1    2    0    0 -0.21935098114E+02  0.23233616195E+02  0.21679845882E+03  0.23343036896E+03  0.80419002446E+02 0. -1.
          1    1    1    2  501    0 -0.52099972509E+02 -0.82966802886E+02 -0.88143896963E+02  0.13178484013E+03  0.00000000000E+00 0. -1.
         -2    1    1    2    0  502  0.74035070623E+02  0.59733186691E+02  0.14243620325E+03  0.17128139791E+03  0.00000000000E+00 0.  1.
<mgrwt>
<rscale>  2 0.13981528E+03</rscale>
<asrwt>0</asrwt>
<pdfrwt beam="1">  1       21 0.62122105E-01 0.13981528E+03</pdfrwt>
<pdfrwt beam="2">  1       21 0.20415834E-01 0.13981528E+03</pdfrwt>
<totfact> 0.54784284E+04</totfact>
</mgrwt>
</event>
<event>
 5    1  0.2051810E+000  0.7873730E+02  0.7546771E-02  0.1332673E+00
         21   -1    0    0  501  502  0.00000000000E+00  0.00000000000E+00  0.13432340149E+04  0.13432340149E+04  0.00000000000E+00 0.  1.
         21   -1    0    0  502  503 -0.00000000000E+00 -0.00000000000E+00 -0.81829230811E+01  0.81829230811E+01  0.00000000000E+00 0.  1.
         24    1    1    2    0    0 -0.38375521637E+02 -0.39414258392E+02  0.35651357899E+03  0.36958803063E+03  0.80419002446E+02 0.  0.
          1    1    1    2  501    0  0.28403530885E+02  0.11937225291E+02  0.82251556172E+03  0.82309240501E+03  0.00000000000E+00 0. -1.
         -2    1    1    2    0  503  0.99719907515E+01  0.27477033101E+02  0.15602195107E+03  0.15873650230E+03  0.00000000000E+00 0.  1.
<mgrwt>
<rscale>  2 0.78737304E+02</rscale>
<asrwt>0</asrwt>
<pdfrwt beam="1">  1       21 0.20665121E+00 0.78737304E+02</pdfrwt>
<pdfrwt beam="2">  1       21 0.12589123E-02 0.78737304E+02</pdfrwt>
<totfact> 0.33614324E+05</totfact>
</mgrwt>
</event>
<event>
 5    1  0.2051810E+000  0.1130575E+03  0.7546771E-02  0.1255010E+00
         21   -1    0    0  501  502  0.00000000000E+00  0.00000000000E+00  0.57704250824E+03  0.57704250824E+03  0.00000000000E+00 0. -1.
         21   -1    0    0  502  503 -0.00000000000E+00 -0.00000000000E+00 -0.28437062623E+02  0.28437062623E+02  0.00000000000E+00 0. -1.
         24    1    1    2    0    0 -0.75773026716E+02 -0.41337672029E+02  0.42178852101E+03  0.43797617186E+03  0.80419002446E+02 0. -1.
          1    1    1    2  501    0 -0.13951396856E+01  0.30132620476E+02  0.47551197349E+02  0.56311966764E+02  0.00000000000E+00 0. -1.
         -2    1    1    2    0  503  0.77168166401E+02  0.11205051553E+02  0.79265727259E+02  0.11119143224E+03  0.00000000000E+00 0.  1.
<mgrwt>
<rscale>  2 0.11305754E+03</rscale>
<asrwt>0</asrwt>
<pdfrwt beam="1">  1       21 0.88775762E-01 0.11305754E+03</pdfrwt>
<pdfrwt beam="2">  1       21 0.43749331E-02 0.11305754E+03</pdfrwt>
<totfact> 0.37172354E+05</totfact>
</mgrwt>
</event>
<event>
 5    1  0.4109618E+000  0.1388944E+03  0.7546771E-02  0.1214824E+00
         21   -1    0    0  501  502  0.00000000000E+00  0.00000000000E+00  0.12939337205E+03  0.12939337205E+03  0.00000000000E+00 0. -1.
         21   -1    0    0  502  503 -0.00000000000E+00 -0.00000000000E+00 -0.48526714561E+03  0.48526714561E+03  0.00000000000E+00 0.  1.
         24    1    1    2    0    0  0.16668000749E+02  0.21949691756E+02 -0.38653248196E+02  0.93385763196E+02  0.80419002446E+02 0.  1.
          1    1    1    2  501    0  0.81993191007E+02  0.21815146340E+02  0.75756878084E+02  0.11374483970E+03  0.00000000000E+00 0. -1.
         -2    1    1    2    0  503 -0.98661191756E+02 -0.43764838096E+02 -0.39297740344E+03  0.40752991476E+03  0.00000000000E+00 0.  1.
<mgrwt>
<rscale>  2 0.13889437E+03</rscale>
<asrwt>0</asrwt>
<pdfrwt beam="1">  1       21 0.19906673E-01 0.13889437E+03</pdfrwt>
<pdfrwt beam="2">  1       21 0.74656484E-01 0.13889437E+03</pdfrwt>
<totfact> 0.38512428E+04</totfact>
</mgrwt>
</event>
<event>
 5    1  0.2051810E+000  0.9386955E+02  0.7546771E-02  0.1293743E+00
         21   -1    0    0  501  502  0.00000000000E+00  0.00000000000E+00  0.14625891660E+03  0.14625891660E+03  0.00000000000E+00 0.  1.
         21   -1    0    0  502  503 -0.00000000000E+00 -0.00000000000E+00 -0.80166774427E+02  0.80166774427E+02  0.00000000000E+00 0.  1.
         24    1    1    2    0    0  0.24256557300E+02 -0.57400811041E+02  0.83101864134E+02  0.13136350124E+03  0.80419002446E+02 0.  1.
          1    1    1    2  501    0 -0.19953370857E+02 -0.72338547853E+01  0.11668383533E+02  0.24220174192E+02  0.00000000000E+00 0. -1.
         -2    1    1    2    0  503 -0.43031864427E+01  0.64634665826E+02 -0.28678105491E+02  0.70842015602E+02  0.00000000000E+00 0.  1.
<mgrwt>
<rscale>  2 0.93869545E+02</rscale>
<asrwt>0</asrwt>
<pdfrwt beam="1">  1       21 0.22501372E-01 0.93869545E+02</pdfrwt>
<pdfrwt beam="2">  1       21 0.12333350E-01 0.93869545E+02</pdfrwt>
<totfact> 0.10296957E+06</totfact>
</mgrwt>
</event>
<event>
 5    1  0.2051810E+000  0.1454767E+03  0.7546771E-02  0.1206144E+00
         21   -1    0    0  501  502  0.00000000000E+00  0.00000000000E+00  0.44692451880E+02  0.44692451880E+02  0.00000000000E+00 0.  1.
         21   -1    0    0  502  503 -0.00000000000E+00 -0.00000000000E+00 -0.49860737417E+03  0.49860737417E+03  0.00000000000E+00 0.  1.
         24    1    1    2    0    0  0.73270004876E+02  0.99096462695E+02 -0.17033936260E+03  0.22510290300E+03  0.80419002446E+02 0.  1.
          1    1    1    2  501    0 -0.24917522930E+02  0.80969910994E+01 -0.41646855525E+02  0.49202690872E+02  0.00000000000E+00 0. -1.
         -2    1    1    2    0  503 -0.48352481946E+02 -0.10719345379E+03 -0.24192870417E+03  0.26899423218E+03  0.00000000000E+00 0.  1.
<mgrwt>
<rscale>  2 0.14547673E+03</rscale>
<asrwt>0</asrwt>
<pdfrwt beam="1">  1       21 0.68757619E-02 0.14547673E+03</pdfrwt>
<pdfrwt beam="2">  1       21 0.76708826E-01 0.14547673E+03</pdfrwt>
<totfact> 0.23894683E+05</totfact>
</mgrwt>
</event>
<event>
 5    1  0.2051810E+000  0.7808543E+02  0.7546771E-02  0.1334574E+00
         21   -1    0    0  503  502  0.00000000000E+00  0.00000000000E+00  0.22882759720E+03  0.22882759720E+03  0.00000000000E+00 0.  1.
         21   -1    0    0  501  503 -0.00000000000E+00 -0.00000000000E+00 -0.22309156156E+03  0.22309156156E+03  0.00000000000E+00 0. -1.
         24    1    1    2    0    0 -0.44189627369E+01 -0.11772508040E+02 -0.44803892517E+02  0.92912452966E+02  0.80419002446E+02 0.  0.
          1    1    1    2  501    0 -0.31420213239E+02 -0.98378147209E+01 -0.15029431484E+03  0.15385835522E+03  0.00000000000E+00 0. -1.
         -2    1    1    2    0  502  0.35839175976E+02  0.21610322761E+02  0.20083424300E+03  0.20514835058E+03  0.00000000000E+00 0.  1.
<mgrwt>
<rscale>  2 0.78085432E+02</rscale>
<asrwt>0</asrwt>
<pdfrwt beam="1">  1       21 0.35204246E-01 0.78085432E+02</pdfrwt>
<pdfrwt beam="2">  1       21 0.34321778E-01 0.78085432E+02</pdfrwt>
<totfact> 0.67524710E+04</totfact>
</mgrwt>
</event>
<event>
 5    1  0.2051810E+000  0.8422012E+02  0.7546771E-02  0.1317485E+00
         21   -1    0    0  503  502  0.00000000000E+00  0.00000000000E+00  0.17743376127E+03  0.17743376127E+03  0.00000000000E+00 0. -1.
         21   -1    0    0  501  503 -0.00000000000E+00 -0.00000000000E+00 -0.10963909585E+03  0.10963909585E+03  0.00000000000E+00 0.  1.
         24    1    1    2    0    0  0.19437546607E+02 -0.33132947855E+02  0.94935575050E+02  0.13021363145E+03  0.80419002446E+02 0.  0.
          1    1    1    2  501    0 -0.34657050432E+02  0.47224042616E+02 -0.80531254069E+02  0.99581646037E+02  0.00000000000E+00 0. -1.
         -2    1    1    2    0  502  0.15219503825E+02 -0.14091094761E+02  0.53390344441E+02  0.57277579626E+02  0.00000000000E+00 0.  1.
<mgrwt>
<rscale>  2 0.84220120E+02</rscale>
<asrwt>0</asrwt>
<pdfrwt beam="1">  1       21 0.27297502E-01 0.84220120E+02</pdfrwt>
<pdfrwt beam="2">  1       21 0.16867553E-01 0.84220120E+02</pdfrwt>
<totfact> 0.41077419E+05</totfact>
</mgrwt>
</event>
<event>
 5    1  0.2051810E+000  0.7313524E+02  0.7546771E-02  0.1349745E+00
         21   -1    0    0  503  502  0.00000000000E+00  0.00000000000E+00  0.20980352259E+03  0.20980352259E+03  0.00000000000E+00 0. -1.
         21   -1    0    0  501  503 -0.00000000000E+00 -0.00000000000E+00 -0.48015025069E+02  0.48015025069E+02  0.00000000000E+00 0. -1.
         24    1    1    2    0    0  0.12675696943E+02 -0.37142926490E+02  0.11061253297E+03  0.14227655705E+03  0.80419002446E+02 0. -1.
          1    1    1    2  501    0 -0.27678012213E+02  0.20959653248E+02 -0.20654752270E+02  0.40397997669E+02  0.00000000000E+00 0. -1.
         -2    1    1    2    0  502  0.15002315270E+02  0.16183273241E+02  0.71830716822E+02  0.75143992943E+02  0.00000000000E+00 0.  1.
<mgrwt>
<rscale>  2 0.73135240E+02</rscale>
<asrwt>0</asrwt>
<pdfrwt beam="1">  1       21 0.32277464E-01 0.73135240E+02</pdfrwt>
<pdfrwt beam="2">  1       21 0.73869271E-02 0.73135240E+02</pdfrwt>
<totfact> 0.12551847E+06</totfact>
</mgrwt>
</event>
<event>
 5    1  0.2051810E+000  0.1076949E+03  0.7546771E-02  0.1264899E+00
         21   -1    0    0  503  502  0.00000000000E+00  0.00000000000E+00  0.42320069257E+02  0.42320069257E+02  0.00000000000E+00 0.  1.
         21   -1    0    0  501  503 -0.00000000000E+00 -0.00000000000E+00 -0.63281985677E+03  0.63281985677E+03  0.00000000000E+00 0. -1.
         24    1    1    2    0    0  0.81761884038E+02  0.31919074200E+02 -0.36894264298E+03  0.38767218464E+03  0.80419002446E+02 0.  1.
          1    1    1    2  501    0 -0.32697501690E+02  0.73383642163E+01 -0.22211479452E+03  0.22462849363E+03  0.00000000000E+00 0. -1.
         -2    1    1    2    0  502 -0.49064382348E+02 -0.39257438416E+02  0.55764997921E+00  0.62839247765E+02  0.00000000000E+00 0.  1.
<mgrwt>
<rscale>  2 0.10769493E+03</rscale>
<asrwt>0</asrwt>
<pdfrwt beam="1">  1       21 0.65107804E-02 0.10769493E+03</pdfrwt>
<pdfrwt beam="2">  1       21 0.97356893E-01 0.10769493E+03</pdfrwt>
<totfact> 0.15461732E+05</totfact>
</mgrwt>
</event>
<event>
 5    1  0.2051810E+000  0.6806661E+02  0.7546771E-02  0.1366794E+00
         21   -1    0    0  503  502  0.00000000000E+00  0.00000000000E+00  0.57893728860E+02  0.57893728860E+02  0.00000000000E+00 0.  1.
         21   -1    0    0  501  503 -0.00000000000E+00 -0.00000000000E+00 -0.65698991985E+03  0.65698991985E+03  0.00000000000E+00 0.  1.
         24    1    1    2    0    0  0.21503227683E+02  0.24879242154E+02 -0.31789054799E+03  0.32954966537E+03  0.80419002446E+02 0.  1.
          1    1    1    2  501    0 -0.26714813682E+02 -0.31438259451E+01 -0.33029868948E+03  0.33139219844E+03  0.00000000000E+00 0. -1.
         -2    1    1    2    0  502  0.52115859987E+01 -0.21735416209E+02  0.49093046477E+02  0.53941784905E+02  0.00000000000E+00 0.  1.
<mgrwt>
<rscale>  2 0.68066611E+02</rscale>
<asrwt>0</asrwt>
<pdfrwt beam="1">  1       21 0.89067279E-02 0.68066611E+02</pdfrwt>
<pdfrwt beam="2">  1       21 0.10107537E+00 0.68066611E+02</pdfrwt>
<totfact> 0.85106189E+04</totfact>
</mgrwt>
</event>
<event>
 5    1  0.2051810E+000  0.7963678E+02  0.7546771E-02  0.1330085E+00
         21   -1    0    0  503  502  0.00000000000E+00  0.00000000000E+00  0.18098854741E+04  0.18098854741E+04  0.00000000000E+00 0.  1.
         21   -1    0    0  501  503 -0.00000000000E+00 -0.00000000000E+00 -0.39890442221E+02  0.39890442221E+02  0.00000000000E+00 0. -1.
         24    1    1    2    0    0 -0.93685424737E+01  0.38494974885E+02  0.41194796441E+03  0.42158981726E+03  0.80419002446E+02 0. -1.
          1    1    1    2  501    0 -0.88559855957E+01 -0.48179853600E+02 -0.17847367295E+02  0.52136889945E+02  0.00000000000E+00 0. -1.
         -2    1    1    2    0  502  0.18224528069E+02  0.96848787150E+01  0.13758944348E+04  0.13760492091E+04  0.00000000000E+00 0.  1.
<mgrwt>
<rscale>  2 0.79636779E+02</rscale>
<asrwt>0</asrwt>
<pdfrwt beam="1">  1       21 0.27844386E+00 0.79636779E+02</pdfrwt>
<pdfrwt beam="2">  1       21 0.61369925E-02 0.79636779E+02</pdfrwt>
<totfact> 0.10190629E+04</totfact>
</mgrwt>
</event>
<event>
 5    1  0.2051810E+000  0.1973550E+03  0.7546771E-02  0.1151990E+00
         21   -1    0    0  501  502  0.00000000000E+00  0.00000000000E+00  0.18560605121E+04  0.18560605121E+04  0.00000000000E+00 0. -1.
         21   -1    0    0  502  503 -0.00000000000E+00 -0.00000000000E+00 -0.26044857543E+02  0.26044857543E+02  0.00000000000E+00 0.  1.
         24    1    1    2    0    0 -0.14298955120E+03  0.66384748988E+02  0.94304524188E+03  0.95950742094E+03  0.80419002446E+02 0. -1.
          1    1    1    2  501    0  0.15776543936E+03 -0.85002290340E+01  0.80946983942E+03  0.82474457178E+03  0.00000000000E+00 0. -1.
         -2    1    1    2    0  503 -0.14775888157E+02 -0.57884519954E+02  0.77500573278E+02  0.97853376944E+02  0.00000000000E+00 0.  1.
<mgrwt>
<rscale>  2 0.19735497E+03</rscale>
<asrwt>0</asrwt>
<pdfrwt beam="1">  1       21 0.28554767E+00 0.19735497E+03</pdfrwt>
<pdfrwt beam="2">  1       21 0.40069026E-02 0.19735497E+03</pdfrwt>
<totfact> 0.16079248E+04</totfact>
</mgrwt>
</event>
<event>
 5    1  0.2051810E+000  0.1637593E+03  0.7546771E-02  0.1184517E+00
         21   -1    0    0  503  502  0.00000000000E+00  0.00000000000E+00  0.26087574176E+03  0.26087574176E+03  0.00000000000E+00 0.  1.
         21   -1    0    0  501  503 -0.00000000000E+00 -0.00000000000E+00 -0.59564355749E+03  0.59564355749E+03  0.00000000000E+00 0. -1.
         24    1    1    2    0    0 -0.72812728825E+02  0.83096040932E+02 -0.11593192460E+03  0.17920399715E+03  0.80419002446E+02 0. -1.
          1    1    1    2  501    0  0.11922799965E+03 -0.81504002669E+02 -0.43389440708E+03  0.45729921807E+03  0.00000000000E+00 0. -1.
         -2    1    1    2    0  502 -0.46415270825E+02 -0.15920382636E+01  0.21505851595E+03  0.22001608403E+03  0.00000000000E+00 0.  1.
<mgrwt>
<rscale>  2 0.16375932E+03</rscale>
<asrwt>0</asrwt>
<pdfrwt beam="1">  1       21 0.40134730E-01 0.16375932E+03</pdfrwt>
<pdfrwt beam="2">  1       21 0.91637470E-01 0.16375932E+03</pdfrwt>
<totfact> 0.61697198E+03</totfact>
</mgrwt>
</event>
<event>
 5    1  0.2051810E+000  0.8608060E+02  0.7546771E-02  0.1312631E+00
         21   -1    0    0  503  502  0.00000000000E+00  0.00000000000E+00  0.91367162524E+01  0.91367162524E+01  0.00000000000E+00 0.  1.
         21   -1    0    0  501  503 -0.00000000000E+00 -0.00000000000E+00 -0.14502195958E+04  0.14502195958E+04  0.00000000000E+00 0. -1.
         24    1    1    2    0    0 -0.58448034412E+02  0.33132907426E+02 -0.54010471544E+03  0.55017659154E+03  0.80419002446E+02 0.  0.
          1    1    1    2  501    0  0.39774342464E+02 -0.25170550926E+02 -0.87473871291E+03  0.87600420708E+03  0.00000000000E+00 0. -1.
         -2    1    1    2    0  502  0.18673691949E+02 -0.79623564999E+01 -0.26239451147E+02  0.33175513388E+02  0.00000000000E+00 0.  1.
<mgrwt>
<rscale>  2 0.86080595E+02</rscale>
<asrwt>0</asrwt>
<pdfrwt beam="1">  1       21 0.14056484E-02 0.86080595E+02</pdfrwt>
<pdfrwt beam="2">  1       21 0.22311074E+00 0.86080595E+02</pdfrwt>
<totfact> 0.22463486E+05</totfact>
</mgrwt>
</event>
<event>
 5    1  0.2051810E+000  0.7781980E+02  0.7546771E-02  0.1335355E+00
         21   -1    0    0  501  502  0.00000000000E+00  0.00000000000E+00  0.15183789110E+04  0.15183789110E+04  0.00000000000E+00 0.  1.
         21   -1    0    0  502  503 -0.00000000000E+00 -0.00000000000E+00 -0.83590455364E+01  0.83590455364E+01  0.00000000000E+00 0. -1.
         24    1    1    2    0    0  0.32569657463E+02  0.17233437468E+02  0.26040346352E+03  0.27501809708E+03  0.80419002446E+02 0. -1.
          1    1    1    2  501    0  0.22459934230E+01 -0.30010539226E+02  0.80394471744E+03  0.80450779092E+03  0.00000000000E+00 0. -1.
         -2    1    1    2    0  503 -0.34815650886E+02  0.12777101758E+02  0.44567168451E+03  0.44721206854E+03  0.00000000000E+00 0.  1.
<mgrwt>
<rscale>  2 0.77819804E+02</rscale>
<asrwt>0</asrwt>
<pdfrwt beam="1">  1       21 0.23359654E+00 0.77819804E+02</pdfrwt>
<pdfrwt beam="2">  1       21 0.12860082E-02 0.77819804E+02</pdfrwt>
<totfact> 0.22672403E+05</totfact>
</mgrwt>
</event>
<event>
 5    1  0.2051810E+000  0.8426222E+02  0.7546771E-02  0.1317373E+00
         21   -1    0    0  503  502  0.00000000000E+00  0.00000000000E+00  0.80890340894E+02  0.80890340894E+02  0.00000000000E+00 0.  1.
         21   -1    0    0  501  503 -0.00000000000E+00 -0.00000000000E+00 -0.11133106162E+03  0.11133106162E+03  0.00000000000E+00 0. -1.
         24    1    1    2    0    0  0.23235907626E+02 -0.24097441417E+02  0.15490535172E+02  0.88474667111E+02  0.80419002446E+02 0.  0.
          1    1    1    2  501    0 -0.53221142154E+01 -0.26870247921E+02 -0.41254688700E+02  0.49520545866E+02  0.00000000000E+00 0. -1.
         -2    1    1    2    0  502 -0.17913793410E+02  0.50967689338E+02 -0.46765671951E+01  0.54226189536E+02  0.00000000000E+00 0.  1.
<mgrwt>
<rscale>  2 0.84262219E+02</rscale>
<asrwt>0</asrwt>
<pdfrwt beam="1">  1       21 0.12444668E-01 0.84262219E+02</pdfrwt>
<pdfrwt beam="2">  1       21 0.17127856E-01 0.84262219E+02</pdfrwt>
<totfact> 0.16634936E+06</totfact>
</mgrwt>
</event>
<event>
 5    1  0.2051810E+000  0.9371183E+02  0.7546771E-02  0.1294104E+00
         21   -1    0    0  501  502  0.00000000000E+00  0.00000000000E+00  0.37451058412E+02  0.37451058412E+02  0.00000000000E+00 0.  1.
         21   -1    0    0  502  503 -0.00000000000E+00 -0.00000000000E+00 -0.74567325146E+03  0.74567325146E+03  0.00000000000E+00 0.  1.
         24    1    1    2    0    0 -0.16397672258E+02  0.70225804899E+02 -0.16494238194E+03  0.19716427832E+03  0.80419002446E+02 0.  1.
          1    1    1    2  501    0 -0.36994740009E+01 -0.52436440540E+02 -0.11892378360E+02  0.53895223048E+02  0.00000000000E+00 0. -1.
         -2    1    1    2    0  503  0.20097146259E+02 -0.17789364360E+02 -0.53138743274E+03  0.53206480850E+03  0.00000000000E+00 0.  1.
<mgrwt>
<rscale>  2 0.93711832E+02</rscale>
<asrwt>0</asrwt>
<pdfrwt beam="1">  1       21 0.57617011E-02 0.93711832E+02</pdfrwt>
<pdfrwt beam="2">  1       21 0.11471897E+00 0.93711832E+02</pdfrwt>
<totfact> 0.13007175E+05</totfact>
</mgrwt>
</event>
<event>
 5    1  0.2051810E+000  0.1475621E+03  0.7546771E-02  0.1203501E+00
         21   -1    0    0  501  502  0.00000000000E+00  0.00000000000E+00  0.50763352538E+02  0.50763352538E+02  0.00000000000E+00 0. -1.
         21   -1    0    0  502  503 -0.00000000000E+00 -0.00000000000E+00 -0.99213710746E+03  0.99213710746E+03  0.00000000000E+00 0.  1.
         24    1    1    2    0    0  0.89485846666E+02 -0.68951052937E+02 -0.26536445280E+03  0.29941187889E+03  0.80419002446E+02 0.  1.
          1    1    1    2  501    0  0.11549201496E+02 -0.19176481774E+02  0.22789484763E+02  0.31944985901E+02  0.00000000000E+00 0. -1.
         -2    1    1    2    0  503 -0.10103504816E+03  0.88127534711E+02 -0.69879878689E+03  0.71154359521E+03  0.00000000000E+00 0.  1.
<mgrwt>
<rscale>  2 0.14756212E+03</rscale>
<asrwt>0</asrwt>
<pdfrwt beam="1">  1       21 0.78097469E-02 0.14756212E+03</pdfrwt>
<pdfrwt beam="2">  1       21 0.15263647E+00 0.14756212E+03</pdfrwt>
<totfact> 0.36760912E+04</totfact>
</mgrwt>
</event>
<event>
 5    1  0.2051810E+000  0.6980390E+02  0.7546771E-02  0.1360761E+00
         21   -1    0    0  503  502  0.00000000000E+00  0.00000000000E+00  0.16564642444E+02  0.16564642444E+02  0.00000000000E+00 0.  1.
         21   -1    0    0  501  503 -0.00000000000E+00 -0.00000000000E+00 -0.33281320904E+03  0.33281320904E+03  0.00000000000E+00 0.  1.
         24    1    1    2    0    0  0.28792875100E+02 -0.26227763257E+02 -0.22284094553E+03  0.24008795926E+03  0.80419002446E+02 0.  1.
          1    1    1    2  501    0 -0.29388248885E+02  0.59715440436E+01 -0.78786720793E+02  0.84301102508E+02  0.00000000000E+00 0. -1.
         -2    1    1    2    0  502  0.59537378568E+00  0.20256219213E+02 -0.14620900277E+02  0.24988789720E+02  0.00000000000E+00 0.  1.
<mgrwt>
<rscale>  2 0.69803898E+02</rscale>
<asrwt>0</asrwt>
<pdfrwt beam="1">  1       21 0.25484069E-02 0.69803898E+02</pdfrwt>
<pdfrwt beam="2">  1       21 0.51202024E-01 0.69803898E+02</pdfrwt>
<totfact> 0.29018456E+06</totfact>
</mgrwt>
</event>
<event>
 5    1  0.2051810E+000  0.6835872E+02  0.7546771E-02  0.1365765E+00
         21   -1    0    0  503  502  0.00000000000E+00  0.00000000000E+00  0.59400951679E+03  0.59400951679E+03  0.00000000000E+00 0. -1.
         21   -1    0    0  501  503 -0.00000000000E+00 -0.00000000000E+00 -0.85285583096E+01  0.85285583096E+01  0.00000000000E+00 0.  1.
         24    1    1    2    0    0  0.38883751710E+02  0.10457384228E+02  0.44151284990E+03  0.45057975500E+03  0.80419002446E+02 0.  0.
          1    1    1    2  501    0 -0.25244202586E+02  0.54511905360E+01  0.58294524019E+02  0.63759209320E+02  0.00000000000E+00 0. -1.
         -2    1    1    2    0  502 -0.13639549123E+02 -0.15908574764E+02  0.85673584556E+02  0.88199110778E+02  0.00000000000E+00 0.  1.
<mgrwt>
<rscale>  2 0.68358721E+02</rscale>
<asrwt>0</asrwt>
<pdfrwt beam="1">  1       21 0.91386047E-01 0.68358721E+02</pdfrwt>
<pdfrwt beam="2">  1       21 0.13120864E-02 0.68358721E+02</pdfrwt>
<totfact> 0.24113315E+06</totfact>
</mgrwt>
</event>
<event>
 5    1  0.2051810E+000  0.6932790E+02  0.7546771E-02  0.1362394E+00
         21   -1    0    0  501  502  0.00000000000E+00  0.00000000000E+00  0.49839457806E+03  0.49839457806E+03  0.00000000000E+00 0. -1.
         21   -1    0    0  502  503 -0.00000000000E+00 -0.00000000000E+00 -0.19134307329E+02  0.19134307329E+02  0.00000000000E+00 0. -1.
         24    1    1    2    0    0 -0.18382069343E+02  0.54160924508E+01  0.12898427579E+03  0.15320376590E+03  0.80419002446E+02 0. -1.
          1    1    1    2  501    0  0.39227716653E+01 -0.28487930787E+02  0.32768745705E+03  0.32894683437E+03  0.00000000000E+00 0. -1.
         -2    1    1    2    0  503  0.14459297677E+02  0.23071838336E+02  0.22588537895E+02  0.35378285116E+02  0.00000000000E+00 0.  1.
<mgrwt>
<rscale>  2 0.69327896E+02</rscale>
<asrwt>0</asrwt>
<pdfrwt beam="1">  1       21 0.76676079E-01 0.69327896E+02</pdfrwt>
<pdfrwt beam="2">  1       21 0.29437400E-02 0.69327896E+02</pdfrwt>
<totfact> 0.98514469E+05</totfact>
</mgrwt>
</event>
<event>
 5    1  0.2051810E+000  0.7509501E+02  0.7546771E-02  0.1343577E+00
         21   -1    0    0  501  502  0.00000000000E+00  0.00000000000E+00  0.43761443701E+02  0.43761443701E+02  0.00000000000E+00 0.  1.
         21   -1    0    0  502  503 -0.00000000000E+00 -0.00000000000E+00 -0.37041484578E+03  0.37041484578E+03  0.00000000000E+00 0.  1.
         24    1    1    2    0    0 -0.46753064785E+02 -0.13121367420E+02 -0.41711884056E+02  0.10278675292E+03  0.80419002446E+02 0.  1.
          1    1    1    2  501    0  0.27635786124E+02 -0.69832576803E+01 -0.36545346235E+01  0.28737748448E+02  0.00000000000E+00 0. -1.
         -2    1    1    2    0  503  0.19117278661E+02  0.20104625100E+02 -0.28128698340E+03  0.28265178811E+03  0.00000000000E+00 0.  1.
<mgrwt>
<rscale>  2 0.75095007E+02</rscale>
<asrwt>0</asrwt>
<pdfrwt beam="1">  1       21 0.67325298E-02 0.75095007E+02</pdfrwt>
<pdfrwt beam="2">  1       21 0.56986899E-01 0.75095007E+02</pdfrwt>
<totfact> 0.47435859E+05</totfact>
</mgrwt>
</event>
<event>
 5    1  0.2051810E+000  0.6795558E+02  0.7546771E-02  0.1367186E+00
         21   -1    0    0  503  502  0.00000000000E+00  0.00000000000E+00  0.29182495721E+02  0.29182495721E+02  0.00000000000E+00 0.  1.
         21   -1    0    0  501  503 -0.00000000000E+00 -0.00000000000E+00 -0.18909031469E+03  0.18909031469E+03  0.00000000000E+00 0. -1.
         24    1    1    2    0    0  0.10459480363E+02 -0.12702397708E+02 -0.56202041512E+02  0.99481842874E+02  0.80419002446E+02 0.  1.
          1    1    1    2  501    0 -0.30396694197E+02  0.14745422647E+02 -0.84622234422E+02  0.91117007555E+02  0.00000000000E+00 0. -1.
         -2    1    1    2    0  502  0.19937213835E+02 -0.20430249389E+01 -0.19083543035E+02  0.27673959983E+02  0.00000000000E+00 0.  1.
<mgrwt>
<rscale>  2 0.67955577E+02</rscale>
<asrwt>0</asrwt>
<pdfrwt beam="1">  1       21 0.44896149E-02 0.67955577E+02</pdfrwt>
<pdfrwt beam="2">  1       21 0.29090817E-01 0.67955577E+02</pdfrwt>
<totfact> 0.34917383E+06</totfact>
</mgrwt>
</event>
<event>
 5    1  0.2051810E+000  0.7369575E+02  0.7546771E-02  0.1347958E+00
         21   -1    0    0  503  502  0.00000000000E+00  0.00000000000E+00  0.14292067660E+03  0.14292067660E+03  0.00000000000E+00 0. -1.
         21   -1    0    0  501  503 -0.00000000000E+00 -0.00000000000E+00 -0.47709296443E+02  0.47709296443E+02  0.00000000000E+00 0. -1.
         24    1    1    2    0    0  0.21751558272E+02  0.14473083624E+02  0.40160507228E+02  0.93609202176E+02  0.80419002446E+02 0. -1.
          1    1    1    2  501    0 -0.39411333479E+02  0.89947715583E+00  0.25125689670E+01  0.39501585646E+02  0.00000000000E+00 0. -1.
         -2    1    1    2    0  502  0.17659775207E+02 -0.15372560780E+02  0.52538303963E+02  0.57519185222E+02  0.00000000000E+00 0.  1.
<mgrwt>
<rscale>  2 0.73695749E+02</rscale>
<asrwt>0</asrwt>
<pdfrwt beam="1">  1       21 0.21987796E-01 0.73695749E+02</pdfrwt>
<pdfrwt beam="2">  1       21 0.73398918E-02 0.73695749E+02</pdfrwt>
<totfact> 0.26053383E+06</totfact>
</mgrwt>
</event>
<event>
 5    1  0.2051810E+000  0.1209009E+03  0.7546771E-02  0.1241618E+00
         21   -1    0    0  501  502  0.00000000000E+00  0.00000000000E+00  0.89277013132E+02  0.89277013132E+02  0.00000000000E+00 0. -1.
         21   -1    0    0  502  503 -0.00000000000E+00 -0.00000000000E+00 -0.22113588921E+03  0.22113588921E+03  0.00000000000E+00 0.  1.
         24    1    1    2    0    0 -0.99300208617E+02 -0.26951842072E+02  0.82370865366E+01  0.13085105568E+03  0.80419002446E+02 0. -1.
          1    1    1    2  501    0  0.47632919063E+02 -0.87205887055E+01 -0.48698852643E+02  0.68676938594E+02  0.00000000000E+00 0. -1.
         -2    1    1    2    0  503  0.51667289554E+02  0.35672430777E+02 -0.91397109972E+02  0.11088490807E+03  0.00000000000E+00 0.  1.
<mgrwt>
<rscale>  2 0.12090088E+03</rscale>
<asrwt>0</asrwt>
<pdfrwt beam="1">  1       21 0.13734925E-01 0.12090088E+03</pdfrwt>
<pdfrwt beam="2">  1       21 0.34020906E-01 0.12090088E+03</pdfrwt>
<totfact> 0.38769004E+05</totfact>
</mgrwt>
</event>
<event>
 5    1  0.2051810E+000  0.9529768E+02  0.7546771E-02  0.1290507E+00
         21   -1    0    0  501  502  0.00000000000E+00  0.00000000000E+00  0.82566559710E+02  0.82566559710E+02  0.00000000000E+00 0.  1.
         21   -1    0    0  502  503 -0.00000000000E+00 -0.00000000000E+00 -0.11549848459E+03  0.11549848459E+03  0.00000000000E+00 0. -1.
         24    1    1    2    0    0 -0.84717625125E+01  0.59670228911E+02 -0.90158525193E+00  0.10050042681E+03  0.80419002446E+02 0.  1.
          1    1    1    2  501    0  0.37330198810E+02 -0.24714167903E+02 -0.56685299357E+01  0.45127220942E+02  0.00000000000E+00 0. -1.
         -2    1    1    2    0  503 -0.28858436297E+02 -0.34956061008E+02 -0.26361809695E+02  0.52437396552E+02  0.00000000000E+00 0.  1.
<mgrwt>
<rscale>  2 0.95297680E+02</rscale>
<asrwt>0</asrwt>
<pdfrwt beam="1">  1       21 0.12702548E-01 0.95297680E+02</pdfrwt>
<pdfrwt beam="2">  1       21 0.17768998E-01 0.95297680E+02</pdfrwt>
<totfact> 0.15075563E+06</totfact>
</mgrwt>
</event>
<event>
 5    1  0.2051810E+000  0.9571538E+02  0.7546771E-02  0.1289573E+00
         21   -1    0    0  503  502  0.00000000000E+00  0.00000000000E+00  0.20396081105E+03  0.20396081105E+03  0.00000000000E+00 0. -1.
         21   -1    0    0  501  503 -0.00000000000E+00 -0.00000000000E+00 -0.47696359620E+02  0.47696359620E+02  0.00000000000E+00 0.  1.
         24    1    1    2    0    0 -0.37202218142E+02 -0.64177074173E+02  0.11699812561E+03  0.16018264336E+03  0.80419002446E+02 0. -1.
          1    1    1    2  501    0  0.20288922391E+02  0.55911849497E+01  0.54173926787E+01  0.21731310692E+02  0.00000000000E+00 0. -1.
         -2    1    1    2    0  502  0.16913295751E+02  0.58585889224E+02  0.33848933146E+02  0.69743216619E+02  0.00000000000E+00 0.  1.
<mgrwt>
<rscale>  2 0.95715378E+02</rscale>
<asrwt>0</asrwt>
<pdfrwt beam="1">  1       21 0.31378586E-01 0.95715378E+02</pdfrwt>
<pdfrwt beam="2">  1       21 0.73379016E-02 0.95715378E+02</pdfrwt>
<totfact> 0.13504116E+06</totfact>
</mgrwt>
</event>
<event>
 5    1  0.2051810E+000  0.1053487E+03  0.7546771E-02  0.1269434E+00
         21   -1    0    0  503  502  0.00000000000E+00  0.00000000000E+00  0.14320278365E+03  0.14320278365E+03  0.00000000000E+00 0.  1.
         21   -1    0    0  501  503 -0.00000000000E+00 -0.00000000000E+00 -0.11551677049E+03  0.11551677049E+03  0.00000000000E+00 0. -1.
         24    1    1    2    0    0 -0.79943093917E+02  0.33294454247E+02 -0.19311208749E+02  0.11974789220E+03  0.80419002446E+02 0.  1.
          1    1    1    2  501    0  0.19006466516E+02 -0.24408585857E+02 -0.28142409252E+02  0.41821286822E+02  0.00000000000E+00 0. -1.
         -2    1    1    2    0  502  0.60936627401E+02 -0.88858683897E+01  0.75139631152E+02  0.97150375119E+02  0.00000000000E+00 0.  1.
<mgrwt>
<rscale>  2 0.10534872E+03</rscale>
<asrwt>0</asrwt>
<pdfrwt beam="1">  1       21 0.22031198E-01 0.10534872E+03</pdfrwt>
<pdfrwt beam="2">  1       21 0.17771811E-01 0.10534872E+03</pdfrwt>
<totfact> 0.55766456E+05</totfact>
</mgrwt>
</event>
<event>
 5    1  0.2051810E+000  0.6982271E+02  0.7546771E-02  0.1360697E+00
         21   -1    0    0  501  502  0.00000000000E+00  0.00000000000E+00  0.21458154250E+02  0.21458154250E+02  0.00000000000E+00 0. -1.
         21   -1    0    0  502  503 -0.00000000000E+00 -0.00000000000E+00 -0.31847711628E+03  0.31847711628E+03  0.00000000000E+00 0.  1.
         24    1    1    2    0    0  0.19825998516E+02 -0.10766340586E+01 -0.99342539343E+02  0.12934599118E+03  0.80419002446E+02 0.  0.
          1    1    1    2  501    0  0.57270799052E+01  0.22654154956E+02 -0.23169857574E+02  0.32906723948E+02  0.00000000000E+00 0. -1.
         -2    1    1    2    0  503 -0.25553078421E+02 -0.21577520897E+02 -0.17450656512E+03  0.17768255540E+03  0.00000000000E+00 0.  1.
<mgrwt>
<rscale>  2 0.69822711E+02</rscale>
<asrwt>0</asrwt>
<pdfrwt beam="1">  1       21 0.33012544E-02 0.69822711E+02</pdfrwt>
<pdfrwt beam="2">  1       21 0.48996481E-01 0.69822711E+02</pdfrwt>
<totfact> 0.20902334E+06</totfact>
</mgrwt>
</event>
<event>
 5    1  0.2051810E+000  0.1008242E+03  0.7546771E-02  0.1278572E+00
         21   -1    0    0  501  502  0.00000000000E+00  0.00000000000E+00  0.19895768673E+02  0.19895768673E+02  0.00000000000E+00 0.  1.
         21   -1    0    0  502  503 -0.00000000000E+00 -0.00000000000E+00 -0.86750482376E+03  0.86750482376E+03  0.00000000000E+00 0.  1.
         24    1    1    2    0    0 -0.35981431765E+02 -0.76643985624E+02 -0.26988201003E+03  0.29406203300E+03  0.80419002446E+02 0.  1.
          1    1    1    2  501    0  0.85353806722E+01  0.24569024696E+02 -0.20784712498E+02  0.33294053093E+02  0.00000000000E+00 0. -1.
         -2    1    1    2    0  503  0.27446051093E+02  0.52074960928E+02 -0.55694233257E+03  0.56004450634E+03  0.00000000000E+00 0.  1.
<mgrwt>
<rscale>  2 0.10082423E+03</rscale>
<asrwt>0</asrwt>
<pdfrwt beam="1">  1       21 0.30608873E-02 0.10082423E+03</pdfrwt>
<pdfrwt beam="2">  1       21 0.13346229E+00 0.10082423E+03</pdfrwt>
<totfact> 0.25544678E+05</totfact>
</mgrwt>
</event>
<event>
 5    1  0.2051810E+000  0.6966201E+02  0.7546771E-02  0.1361246E+00
         21   -1    0    0  501  502  0.00000000000E+00  0.00000000000E+00  0.11795938980E+04  0.11795938980E+04  0.00000000000E+00 0. -1.
         21   -1    0    0  502  503 -0.00000000000E+00 -0.00000000000E+00 -0.61735949948E+02  0.61735949948E+02  0.00000000000E+00 0. -1.
         24    1    1    2    0    0 -0.46596553613E+01 -0.64474096519E+00  0.41967159695E+02  0.90832739286E+02  0.80419002446E+02 0. -1.
          1    1    1    2  501    0 -0.23806481408E+02  0.13681868430E+02  0.11064237477E+04  0.11067644065E+04  0.00000000000E+00 0. -1.
         -2    1    1    2    0  503  0.28466136769E+02 -0.13037127465E+02 -0.30532959307E+02  0.43732702171E+02  0.00000000000E+00 0.  1.
<mgrwt>
<rscale>  2 0.69662008E+02</rscale>
<asrwt>0</asrwt>
<pdfrwt beam="1">  1       21 0.18147597E+00 0.69662008E+02</pdfrwt>
<pdfrwt beam="2">  1       21 0.94978393E-02 0.69662008E+02</pdfrwt>
<totfact> 0.17998161E+04</totfact>
</mgrwt>
</event>
<event>
 5    1  0.2051810E+000  0.6735737E+02  0.7546771E-02  0.1369317E+00
         21   -1    0    0  501  502  0.00000000000E+00  0.00000000000E+00  0.50678760210E+02  0.50678760210E+02  0.00000000000E+00 0.  1.
         21   -1    0    0  502  503 -0.00000000000E+00 -0.00000000000E+00 -0.99316936816E+02  0.99316936816E+02  0.00000000000E+00 0. -1.
         24    1    1    2    0    0  0.41216318408E+02  0.79302207495E+00 -0.38704611203E+02  0.98309087423E+02  0.80419002446E+02 0.  0.
          1    1    1    2  501    0 -0.19554922229E+02  0.77845986452E+01  0.77591887612E+01  0.22432119153E+02  0.00000000000E+00 0. -1.
         -2    1    1    2    0  503 -0.21661396179E+02 -0.85776207202E+01 -0.17692754164E+02  0.29254490451E+02  0.00000000000E+00 0.  1.
<mgrwt>
<rscale>  2 0.67357371E+02</rscale>
<asrwt>0</asrwt>
<pdfrwt beam="1">  1       21 0.77967325E-02 0.67357371E+02</pdfrwt>
<pdfrwt beam="2">  1       21 0.15279528E-01 0.67357371E+02</pdfrwt>
<totfact> 0.45078733E+06</totfact>
</mgrwt>
</event>
<event>
 5    1  0.2051810E+000  0.7759027E+02  0.7546771E-02  0.1336032E+00
         21   -1    0    0  503  502  0.00000000000E+00  0.00000000000E+00  0.17407387436E+03  0.17407387436E+03  0.00000000000E+00 0.  1.
         21   -1    0    0  501  503 -0.00000000000E+00 -0.00000000000E+00 -0.83994532363E+02  0.83994532363E+02  0.00000000000E+00 0. -1.
         24    1    1    2    0    0  0.14045660438E+02 -0.45464748192E+01 -0.31985763066E+01  0.81825410816E+02  0.80419002446E+02 0.  0.
          1    1    1    2  501    0  0.11926121147E+02 -0.28787591579E+02 -0.31617961858E+02  0.44392041027E+02  0.00000000000E+00 0. -1.
         -2    1    1    2    0  502 -0.25971781585E+02  0.33334066398E+02  0.12489588016E+03  0.13185095488E+03  0.00000000000E+00 0.  1.
<mgrwt>
<rscale>  2 0.77590266E+02</rscale>
<asrwt>0</asrwt>
<pdfrwt beam="1">  1       21 0.26780596E-01 0.77590266E+02</pdfrwt>
<pdfrwt beam="2">  1       21 0.12922236E-01 0.77590266E+02</pdfrwt>
<totfact> 0.68356486E+05</totfact>
</mgrwt>
</event>
<event>
 5    1  0.2051810E+000  0.8517485E+02  0.7546771E-02  0.1314976E+00
         21   -1    0    0  503  502  0.00000000000E+00  0.00000000000E+00  0.35131956303E+03  0.35131956303E+03  0.00000000000E+00 0.  1.
         21   -1    0    0  501  503 -0.00000000000E+00 -0.00000000000E+00 -0.26717735231E+02  0.26717735231E+02  0.00000000000E+00 0. -1.
         24    1    1    2    0    0 -0.71069856339E+01 -0.44303839600E+02  0.22041841245E+03  0.23888246471E+03  0.80419002446E+02 0.  1.
          1    1    1    2  501    0 -0.27888262774E+02  0.28455749457E+02  0.15943195166E+02  0.42914686878E+02  0.00000000000E+00 0. -1.
         -2    1    1    2    0  502  0.34995248408E+02  0.15848090143E+02  0.88240220186E+02  0.96240146669E+02  0.00000000000E+00 0.  1.
<mgrwt>
<rscale>  2 0.85174855E+02</rscale>
<asrwt>0</asrwt>
<pdfrwt beam="1">  1       21 0.54049160E-01 0.85174855E+02</pdfrwt>
<pdfrwt beam="2">  1       21 0.41104211E-02 0.85174855E+02</pdfrwt>
<totfact> 0.12041618E+06</totfact>
</mgrwt>
</event>
<event>
 5    1  0.2051810E+000  0.8995632E+02  0.7546771E-02  0.1302958E+00
         21   -1    0    0  501  502  0.00000000000E+00  0.00000000000E+00  0.42804944387E+03  0.42804944387E+03  0.00000000000E+00 0.  1.
         21   -1    0    0  502  503 -0.00000000000E+00 -0.00000000000E+00 -0.22134994586E+02  0.22134994586E+02  0.00000000000E+00 0.  1.
         24    1    1    2    0    0  0.14507917571E+02  0.69956428841E+02  0.19807078192E+03  0.22539661092E+03  0.80419002446E+02 0.  1.
          1    1    1    2  501    0 -0.27175888447E+01 -0.40810707116E+02  0.17337444680E+03  0.17813365181E+03  0.00000000000E+00 0. -1.
         -2    1    1    2    0  503 -0.11790328726E+02 -0.29145721725E+02  0.34469220562E+02  0.46654175724E+02  0.00000000000E+00 0.  1.
<mgrwt>
<rscale>  2 0.89956315E+02</rscale>
<asrwt>0</asrwt>
<pdfrwt beam="1">  1       21 0.65853754E-01 0.89956315E+02</pdfrwt>
<pdfrwt beam="2">  1       21 0.34053841E-02 0.89956315E+02</pdfrwt>
<totfact> 0.10844870E+06</totfact>
</mgrwt>
</event>
<event>
 5    1  0.2051810E+000  0.1211576E+03  0.7546771E-02  0.1241199E+00
         21   -1    0    0  501  502  0.00000000000E+00  0.00000000000E+00  0.91657401438E+01  0.91657401438E+01  0.00000000000E+00 0. -1.
         21   -1    0    0  502  503 -0.00000000000E+00 -0.00000000000E+00 -0.19787740554E+04  0.19787740554E+04  0.00000000000E+00 0.  1.
         24    1    1    2    0    0  0.64251202938E+02 -0.52363676683E+01 -0.89047068483E+03  0.89641558059E+03  0.80419002446E+02 0.  0.
          1    1    1    2  501    0  0.29102477714E+02 -0.27775147123E+02 -0.10625766811E+03  0.11361824254E+03  0.00000000000E+00 0. -1.
         -2    1    1    2    0  503 -0.93353680652E+02  0.33011514791E+02 -0.97287996232E+03  0.97790597241E+03  0.00000000000E+00 0.  1.
<mgrwt>
<rscale>  2 0.12115763E+03</rscale>
<asrwt>0</asrwt>
<pdfrwt beam="1">  1       21 0.14101136E-02 0.12115763E+03</pdfrwt>
<pdfrwt beam="2">  1       21 0.30442684E+00 0.12115763E+03</pdfrwt>
<totfact> 0.74985614E+04</totfact>
</mgrwt>
</event>
<event>
 5    1  0.2051810E+000  0.6560516E+02  0.7546771E-02  0.1375710E+00
         21   -1    0    0  501  502  0.00000000000E+00  0.00000000000E+00  0.23397205222E+03  0.23397205222E+03  0.00000000000E+00 0.  1.
         21   -1    0    0  502  503 -0.00000000000E+00 -0.00000000000E+00 -0.23697208088E+02  0.23697208088E+02  0.00000000000E+00 0. -1.
         24    1    1    2    0    0 -0.46185373261E+01 -0.73093229677E+01  0.17542059116E+03  0.19316924405E+03  0.80419002446E+02 0.  1.
          1    1    1    2  501    0 -0.15481272886E+01  0.28355042152E+02  0.31336235173E+02  0.42289061806E+02  0.00000000000E+00 0. -1.
         -2    1    1    2    0  503  0.61666646147E+01 -0.21045719185E+02  0.35180177971E+01  0.22210954452E+02  0.00000000000E+00 0.  1.
<mgrwt>
<rscale>  2 0.65605155E+02</rscale>
<asrwt>0</asrwt>
<pdfrwt beam="1">  1       21 0.35995699E-01 0.65605155E+02</pdfrwt>
<pdfrwt beam="2">  1       21 0.36457245E-02 0.65605155E+02</pdfrwt>
<totfact> 0.32599728E+06</totfact>
</mgrwt>
</event>
<event>
 5    1  0.2051810E+000  0.1698904E+03  0.7546771E-02  0.1177962E+00
         21   -1    0    0  501  502  0.00000000000E+00  0.00000000000E+00  0.31990096498E+02  0.31990096498E+02  0.00000000000E+00 0. -1.
         21   -1    0    0  502  503 -0.00000000000E+00 -0.00000000000E+00 -0.10172320093E+04  0.10172320093E+04  0.00000000000E+00 0. -1.
         24    1    1    2    0    0  0.13192265466E+03  0.16724337980E+02 -0.31143390198E+03  0.34805399229E+03  0.80419002446E+02 0. -1.
          1    1    1    2  501    0 -0.15745357299E+03 -0.19664330111E+02 -0.47725279005E+03  0.50293989614E+03  0.00000000000E+00 0. -1.
         -2    1    1    2    0  503  0.25530918324E+02  0.29399921308E+01 -0.19655522076E+03  0.19822821734E+03  0.00000000000E+00 0.  1.
<mgrwt>
<rscale>  2 0.16989036E+03</rscale>
<asrwt>0</asrwt>
<pdfrwt beam="1">  1       21 0.49215531E-02 0.16989036E+03</pdfrwt>
<pdfrwt beam="2">  1       21 0.15649724E+00 0.16989036E+03</pdfrwt>
<totfact> 0.74708543E+04</totfact>
</mgrwt>
</event>
<event>
 5    1  0.2051810E+000  0.8141116E+02  0.7546771E-02  0.1325094E+00
         21   -1    0    0  503  502  0.00000000000E+00  0.00000000000E+00  0.13633666790E+03  0.13633666790E+03  0.00000000000E+00 0.  1.
         21   -1    0    0  501  503 -0.00000000000E+00 -0.00000000000E+00 -0.66528186631E+02  0.66528186631E+02  0.00000000000E+00 0.  1.
         24    1    1    2    0    0 -0.22769898806E+02  0.93432381825E+01  0.20287715238E+02  0.86513419394E+02  0.80419002446E+02 0.  1.
          1    1    1    2  501    0 -0.64478841888E+00  0.31572755466E+02 -0.16183599513E+02  0.35484694349E+02  0.00000000000E+00 0. -1.
         -2    1    1    2    0  502  0.23414687225E+02 -0.40915993648E+02  0.65704365548E+02  0.80866740791E+02  0.00000000000E+00 0.  1.
<mgrwt>
<rscale>  2 0.81411165E+02</rscale>
<asrwt>0</asrwt>
<pdfrwt beam="1">  1       21 0.20974872E-01 0.81411165E+02</pdfrwt>
<pdfrwt beam="2">  1       21 0.10235106E-01 0.81411165E+02</pdfrwt>
<totfact> 0.16163354E+06</totfact>
</mgrwt>
</event>
<event>
 5    1  0.2051810E+000  0.8760835E+02  0.7546771E-02  0.1308749E+00
         21   -1    0    0  503  502  0.00000000000E+00  0.00000000000E+00  0.33159054612E+03  0.33159054612E+03  0.00000000000E+00 0.  1.
         21   -1    0    0  501  503 -0.00000000000E+00 -0.00000000000E+00 -0.11346356823E+03  0.11346356823E+03  0.00000000000E+00 0. -1.
         24    1    1    2    0    0 -0.43856872884E+02  0.87285376434E+00  0.11803883923E+03  0.14941409135E+03  0.80419002446E+02 0.  0.
          1    1    1    2  501    0 -0.21101815115E+01 -0.29424167263E+02 -0.91718819352E+02  0.96346127626E+02  0.00000000000E+00 0. -1.
         -2    1    1    2    0  502  0.45967054395E+02  0.28551313498E+02  0.19180695801E+03  0.19929389537E+03  0.00000000000E+00 0.  1.
<mgrwt>
<rscale>  2 0.87608350E+02</rscale>
<asrwt>0</asrwt>
<pdfrwt beam="1">  1       21 0.51013930E-01 0.87608350E+02</pdfrwt>
<pdfrwt beam="2">  1       21 0.17455934E-01 0.87608350E+02</pdfrwt>
<totfact> 0.11322354E+05</totfact>
</mgrwt>
</event>
<event>
 5    1  0.2051810E+000  0.9056353E+02  0.7546771E-02  0.1301493E+00
         21   -1    0    0  503  502  0.00000000000E+00  0.00000000000E+00  0.46005144599E+03  0.46005144599E+03  0.00000000000E+00 0.  1.
         21   -1    0    0  501  503 -0.00000000000E+00 -0.00000000000E+00 -0.91793554870E+02  0.91793554870E+02  0.00000000000E+00 0. -1.
         24    1    1    2    0    0  0.58943445914E+01 -0.46213898464E+02  0.72985161108E+02  0.11817155921E+03  0.80419002446E+02 0.  1.
          1    1    1    2  501    0  0.33149456221E+02  0.92346864277E+01 -0.62786608313E+02  0.71598352387E+02  0.00000000000E+00 0. -1.
         -2    1    1    2    0  502 -0.39043800812E+02  0.36979212037E+02  0.35805933832E+03  0.36207508927E+03  0.00000000000E+00 0.  1.
<mgrwt>
<rscale>  2 0.90563529E+02</rscale>
<asrwt>0</asrwt>
<pdfrwt beam="1">  1       21 0.70777144E-01 0.90563529E+02</pdfrwt>
<pdfrwt beam="2">  1       21 0.14122086E-01 0.90563529E+02</pdfrwt>
<totfact> 0.83029547E+04</totfact>
</mgrwt>
</event>
<event>
 5    1  0.2051810E+000  0.8463343E+02  0.7546771E-02  0.1316394E+00
         21   -1    0    0  503  502  0.00000000000E+00  0.00000000000E+00  0.55994722686E+02  0.55994722686E+02  0.00000000000E+00 0. -1.
         21   -1    0    0  501  503 -0.00000000000E+00 -0.00000000000E+00 -0.18882613267E+03  0.18882613267E+03  0.00000000000E+00 0.  1.
         24    1    1    2    0    0  0.13920178595E+02 -0.54474501512E+01 -0.35654150240E+02  0.89229369991E+02  0.80419002446E+02 0. -1.
          1    1    1    2  501    0 -0.54081324303E+01  0.45856631420E+02 -0.10394990258E+03  0.11374383846E+03  0.00000000000E+00 0. -1.
         -2    1    1    2    0  502 -0.85120461643E+01 -0.40409181269E+02  0.67726428317E+01  0.41847646907E+02  0.00000000000E+00 0.  1.
<mgrwt>
<rscale>  2 0.84633435E+02</rscale>
<asrwt>0</asrwt>
<pdfrwt beam="1">  1       21 0.86145728E-02 0.84633435E+02</pdfrwt>
<pdfrwt beam="2">  1       21 0.29050174E-01 0.84633435E+02</pdfrwt>
<totfact> 0.11862073E+06</totfact>
</mgrwt>
</event>
<event>
 5    1  0.2051810E+000  0.7964758E+02  0.7546771E-02  0.1330055E+00
         21   -1    0    0  503  502  0.00000000000E+00  0.00000000000E+00  0.24774070262E+03  0.24774070262E+03  0.00000000000E+00 0.  1.
         21   -1    0    0  501  503 -0.00000000000E+00 -0.00000000000E+00 -0.62156277311E+02  0.62156277311E+02  0.00000000000E+00 0. -1.
         24    1    1    2    0    0  0.35018028642E+02  0.22721948445E+01  0.13405801067E+03  0.16021919791E+03  0.80419002446E+02 0. -1.
          1    1    1    2  501    0 -0.38881835697E+02  0.23540665061E+02 -0.36227930322E+02  0.58124203169E+02  0.00000000000E+00 0. -1.
         -2    1    1    2    0  502  0.38638070553E+01 -0.25812859906E+02  0.87754344954E+02  0.91553578848E+02  0.00000000000E+00 0.  1.
<mgrwt>
<rscale>  2 0.79647585E+02</rscale>
<asrwt>0</asrwt>
<pdfrwt beam="1">  1       21 0.38113954E-01 0.79647585E+02</pdfrwt>
<pdfrwt beam="2">  1       21 0.95625044E-02 0.79647585E+02</pdfrwt>
<totfact> 0.58684749E+05</totfact>
</mgrwt>
</event>
<event>
 5    1  0.2051810E+000  0.1115403E+03  0.7546771E-02  0.1257744E+00
         21   -1    0    0  501  502  0.00000000000E+00  0.00000000000E+00  0.66468555712E+03  0.66468555712E+03  0.00000000000E+00 0.  1.
         21   -1    0    0  502  503 -0.00000000000E+00 -0.00000000000E+00 -0.34566507542E+02  0.34566507542E+02  0.00000000000E+00 0. -1.
         24    1    1    2    0    0 -0.92005301824E+01  0.77041788680E+01  0.28960247144E+03  0.30080028515E+03  0.80419002446E+02 0.  1.
          1    1    1    2  501    0  0.75196903581E+02 -0.92012544651E+01  0.32070245533E+03  0.32952890958E+03  0.00000000000E+00 0. -1.
         -2    1    1    2    0  503 -0.65996373399E+02  0.14970755971E+01  0.19814122803E+02  0.68922869931E+02  0.00000000000E+00 0.  1.
<mgrwt>
<rscale>  2 0.11154026E+03</rscale>
<asrwt>0</asrwt>
<pdfrwt beam="1">  1       21 0.10225931E+00 0.11154026E+03</pdfrwt>
<pdfrwt beam="2">  1       21 0.53179247E-02 0.11154026E+03</pdfrwt>
<totfact> 0.19373331E+05</totfact>
</mgrwt>
</event>
<event>
 5    1  0.2051810E+000  0.7878997E+02  0.7546771E-02  0.1332521E+00
         21   -1    0    0  501  502  0.00000000000E+00  0.00000000000E+00  0.96806342411E+02  0.96806342411E+02  0.00000000000E+00 0.  1.
         21   -1    0    0  502  503 -0.00000000000E+00 -0.00000000000E+00 -0.79910586349E+02  0.79910586349E+02  0.00000000000E+00 0.  1.
         24    1    1    2    0    0  0.33377346174E+02  0.21543487458E+02  0.23129187966E+02  0.92630148331E+02  0.80419002446E+02 0.  1.
          1    1    1    2  501    0 -0.34841846364E+02  0.10045402074E+02  0.21388432646E+02  0.42099042886E+02  0.00000000000E+00 0. -1.
         -2    1    1    2    0  503  0.14645001901E+01 -0.31588889532E+02 -0.27621864550E+02  0.41987737542E+02  0.00000000000E+00 0.  1.
<mgrwt>
<rscale>  2 0.78789974E+02</rscale>
<asrwt>0</asrwt>
<pdfrwt beam="1">  1       21 0.14893284E-01 0.78789974E+02</pdfrwt>
<pdfrwt beam="2">  1       21 0.12293936E-01 0.78789974E+02</pdfrwt>
<totfact> 0.21763090E+06</totfact>
</mgrwt>
</event>
<event>
 5    1  0.2051810E+000  0.6375397E+02  0.7546771E-02  0.1382721E+00
         21   -1    0    0  501  502  0.00000000000E+00  0.00000000000E+00  0.48066722005E+02  0.48066722005E+02  0.00000000000E+00 0.  1.
         21   -1    0    0  502  503 -0.00000000000E+00 -0.00000000000E+00 -0.93842774741E+02  0.93842774741E+02  0.00000000000E+00 0. -1.
         24    1    1    2    0    0  0.22156581236E+01  0.82636283434E+01 -0.82494476699E+01  0.81292472195E+02  0.80419002446E+02 0. -1.
          1    1    1    2  501    0  0.21766660803E+02 -0.58027990805E+01 -0.12071105112E+02  0.25557221647E+02  0.00000000000E+00 0. -1.
         -2    1    1    2    0  503 -0.23982318927E+02 -0.24608292628E+01 -0.25455499954E+02  0.35059802904E+02  0.00000000000E+00 0.  1.
<mgrwt>
<rscale>  2 0.63753966E+02</rscale>
<asrwt>0</asrwt>
<pdfrwt beam="1">  1       21 0.73948802E-02 0.63753966E+02</pdfrwt>
<pdfrwt beam="2">  1       21 0.14437350E-01 0.63753966E+02</pdfrwt>
<totfact> 0.54249006E+06</totfact>
</mgrwt>
</event>
<event>
 5    1  0.2051810E+000  0.6628018E+02  0.7546771E-02  0.1373220E+00
         21   -1    0    0  503  502  0.00000000000E+00  0.00000000000E+00  0.16457288956E+02  0.16457288956E+02  0.00000000000E+00 0.  1.
         21   -1    0    0  501  503 -0.00000000000E+00 -0.00000000000E+00 -0.47336658256E+03  0.47336658256E+03  0.00000000000E+00 0. -1.
         24    1    1    2    0    0  0.27434864144E+02  0.24474788337E+02 -0.28592886980E+03  0.29928952801E+03  0.80419002446E+02 0. -1.
          1    1    1    2  501    0 -0.53294658919E+01 -0.21114178151E+02 -0.16626261915E+03  0.16768264744E+03  0.00000000000E+00 0. -1.
         -2    1    1    2    0  502 -0.22105398252E+02 -0.33606101861E+01 -0.47178046581E+01  0.22851696075E+02  0.00000000000E+00 0.  1.
<mgrwt>
<rscale>  2 0.66280177E+02</rscale>
<asrwt>0</asrwt>
<pdfrwt beam="1">  1       21 0.25318910E-02 0.66280177E+02</pdfrwt>
<pdfrwt beam="2">  1       21 0.72825618E-01 0.66280177E+02</pdfrwt>
<totfact> 0.14012374E+06</totfact>
</mgrwt>
</event>
<event>
 5    1  0.2051810E+000  0.9743245E+02  0.7546771E-02  0.1285790E+00
         21   -1    0    0  501  502  0.00000000000E+00  0.00000000000E+00  0.25253505337E+03  0.25253505337E+03  0.00000000000E+00 0.  1.
         21   -1    0    0  502  503 -0.00000000000E+00 -0.00000000000E+00 -0.60131630859E+02  0.60131630859E+02  0.00000000000E+00 0.  1.
         24    1    1    2    0    0 -0.25061011795E+02 -0.60554200434E+02  0.27877537208E+02  0.10742084778E+03  0.80419002446E+02 0.  1.
          1    1    1    2  501    0 -0.20947546454E+02  0.27034315989E+02  0.13848931459E+03  0.14264972555E+03  0.00000000000E+00 0. -1.
         -2    1    1    2    0  503  0.46008558249E+02  0.33519884445E+02  0.26036570711E+02  0.62596110900E+02  0.00000000000E+00 0.  1.
<mgrwt>
<rscale>  2 0.97432452E+02</rscale>
<asrwt>0</asrwt>
<pdfrwt beam="1">  1       21 0.38851546E-01 0.97432452E+02</pdfrwt>
<pdfrwt beam="2">  1       21 0.92510203E-02 0.97432452E+02</pdfrwt>
<totfact> 0.59885142E+05</totfact>
</mgrwt>
</event>
<event>
 5    1  0.2051810E+000  0.7590987E+02  0.7546771E-02  0.1341076E+00
         21   -1    0    0  501  502  0.00000000000E+00  0.00000000000E+00  0.19011635382E+03  0.19011635382E+03  0.00000000000E+00 0.  1.
         21   -1    0    0  502  503 -0.00000000000E+00 -0.00000000000E+00 -0.76421646332E+02  0.76421646332E+02  0.00000000000E+00 0.  1.
         24    1    1    2    0    0 -0.23746868683E+02 -0.25952591218E+02  0.10981176035E+03  0.14058196694E+03  0.80419002446E+02 0.  1.
          1    1    1    2  501    0  0.67182771261E+01  0.40861794952E+02  0.55702805017E+02  0.69409106182E+02  0.00000000000E+00 0. -1.
         -2    1    1    2    0  503  0.17028591557E+02 -0.14909203734E+02 -0.51819857877E+02  0.56546927032E+02  0.00000000000E+00 0.  1.
<mgrwt>
<rscale>  2 0.75909868E+02</rscale>
<asrwt>0</asrwt>
<pdfrwt beam="1">  1       21 0.29248670E-01 0.75909868E+02</pdfrwt>
<pdfrwt beam="2">  1       21 0.11757176E-01 0.75909868E+02</pdfrwt>
<totfact> 0.68279142E+05</totfact>
</mgrwt>
</event>
<event>
 5    1  0.2051810E+000  0.8875086E+02  0.7546771E-02  0.1305905E+00
         21   -1    0    0  501  502  0.00000000000E+00  0.00000000000E+00  0.16757386335E+04  0.16757386335E+04  0.00000000000E+00 0. -1.
         21   -1    0    0  502  503 -0.00000000000E+00 -0.00000000000E+00 -0.29103121727E+02  0.29103121727E+02  0.00000000000E+00 0. -1.
         24    1    1    2    0    0  0.65708427699E+02 -0.64092585831E+01  0.94491245106E+02  0.14055065785E+03  0.80419002446E+02 0. -1.
          1    1    1    2  501    0 -0.47855267718E+02  0.19125232475E+02  0.15364952401E+04  0.15373592696E+04  0.00000000000E+00 0. -1.
         -2    1    1    2    0  503 -0.17853159981E+02 -0.12715973891E+02  0.15649026643E+02  0.26931827791E+02  0.00000000000E+00 0.  1.
<mgrwt>
<rscale>  2 0.88750863E+02</rscale>
<asrwt>0</asrwt>
<pdfrwt beam="1">  1       21 0.25780587E+00 0.88750863E+02</pdfrwt>
<pdfrwt beam="2">  1       21 0.44774047E-02 0.88750863E+02</pdfrwt>
<totfact> 0.21948619E+04</totfact>
</mgrwt>
</event>
<event>
 5    1  0.2051810E+000  0.9935904E+02  0.7546771E-02  0.1281650E+00
         21   -1    0    0  501  502  0.00000000000E+00  0.00000000000E+00  0.13450542381E+04  0.13450542381E+04  0.00000000000E+00 0. -1.
         21   -1    0    0  502  503 -0.00000000000E+00 -0.00000000000E+00 -0.76739582873E+01  0.76739582873E+01  0.00000000000E+00 0. -1.
         24    1    1    2    0    0  0.14609234505E+02  0.73021280898E+02  0.75065669447E+03  0.75861599383E+03  0.80419002446E+02 0. -1.
          1    1    1    2  501    0 -0.32738162104E+02 -0.42989568309E+02  0.43731319757E+03  0.44063899397E+03  0.00000000000E+00 0. -1.
         -2    1    1    2    0  503  0.18128927599E+02 -0.30031712588E+02  0.14941038780E+03  0.15347320860E+03  0.00000000000E+00 0.  1.
<mgrwt>
<rscale>  2 0.99359039E+02</rscale>
<asrwt>0</asrwt>
<pdfrwt beam="1">  1       21 0.20693123E+00 0.99359039E+02</pdfrwt>
<pdfrwt beam="2">  1       21 0.11806100E-02 0.99359039E+02</pdfrwt>
<totfact> 0.36551682E+05</totfact>
</mgrwt>
</event>
<event>
 5    1  0.2051810E+000  0.6613771E+02  0.7546771E-02  0.1373742E+00
         21   -1    0    0  503  502  0.00000000000E+00  0.00000000000E+00  0.46375479325E+02  0.46375479325E+02  0.00000000000E+00 0. -1.
         21   -1    0    0  501  503 -0.00000000000E+00 -0.00000000000E+00 -0.98991029739E+02  0.98991029739E+02  0.00000000000E+00 0.  1.
         24    1    1    2    0    0 -0.11465547203E+02 -0.53762800578E+01 -0.18991474774E+02  0.83595784752E+02  0.80419002446E+02 0. -1.
          1    1    1    2  501    0 -0.18238101335E+02  0.10006923247E+02 -0.19661096169E+02  0.28623863396E+02  0.00000000000E+00 0. -1.
         -2    1    1    2    0  502  0.29703648538E+02 -0.46306431893E+01 -0.13962979472E+02  0.33146860915E+02  0.00000000000E+00 0.  1.
<mgrwt>
<rscale>  2 0.66137711E+02</rscale>
<asrwt>0</asrwt>
<pdfrwt beam="1">  1       21 0.71346892E-02 0.66137711E+02</pdfrwt>
<pdfrwt beam="2">  1       21 0.15229389E-01 0.66137711E+02</pdfrwt>
<totfact> 0.52586784E+06</totfact>
</mgrwt>
</event>
<event>
 5    1  0.2051810E+000  0.7039785E+02  0.7546771E-02  0.1358745E+00
         21   -1    0    0  501  502  0.00000000000E+00  0.00000000000E+00  0.11772574045E+02  0.11772574045E+02  0.00000000000E+00 0. -1.
         21   -1    0    0  502  503 -0.00000000000E+00 -0.00000000000E+00 -0.43668131236E+03  0.43668131236E+03  0.00000000000E+00 0.  1.
         24    1    1    2    0    0  0.21094136739E+02 -0.15683028710E+02 -0.24664192571E+03  0.26074964136E+03  0.80419002446E+02 0. -1.
          1    1    1    2  501    0 -0.24004720113E+02 -0.13041285114E+02 -0.59391945066E+02  0.65373579096E+02  0.00000000000E+00 0. -1.
         -2    1    1    2    0  503  0.29105833738E+01  0.28724313824E+02 -0.11887486754E+03  0.12233066595E+03  0.00000000000E+00 0.  1.
<mgrwt>
<rscale>  2 0.70397845E+02</rscale>
<asrwt>0</asrwt>
<pdfrwt beam="1">  1       21 0.18111654E-02 0.70397845E+02</pdfrwt>
<pdfrwt beam="2">  1       21 0.67181735E-01 0.70397845E+02</pdfrwt>
<totfact> 0.28454327E+06</totfact>
</mgrwt>
</event>
<event>
 5    1  0.2051810E+000  0.6673620E+02  0.7546771E-02  0.1371557E+00
         21   -1    0    0  501  502  0.00000000000E+00  0.00000000000E+00  0.95310280989E+02  0.95310280989E+02  0.00000000000E+00 0.  1.
         21   -1    0    0  502  503 -0.00000000000E+00 -0.00000000000E+00 -0.14947763039E+03  0.14947763039E+03  0.00000000000E+00 0.  1.
         24    1    1    2    0    0  0.10168126365E+02 -0.25917578319E+02 -0.39591034115E+02  0.93860415492E+02  0.80419002446E+02 0.  0.
          1    1    1    2  501    0  0.13429173242E+02  0.19918368610E+02  0.64161442350E+02  0.68511128924E+02  0.00000000000E+00 0. -1.
         -2    1    1    2    0  503 -0.23597299607E+02  0.59992097087E+01 -0.78737757640E+02  0.82416366967E+02  0.00000000000E+00 0.  1.
<mgrwt>
<rscale>  2 0.66736200E+02</rscale>
<asrwt>0</asrwt>
<pdfrwt beam="1">  1       21 0.14663120E-01 0.66736200E+02</pdfrwt>
<pdfrwt beam="2">  1       21 0.22996558E-01 0.66736200E+02</pdfrwt>
<totfact> 0.72412170E+05</totfact>
</mgrwt>
</event>
<event>
 5    1  0.2051810E+000  0.8113672E+02  0.7546771E-02  0.1325856E+00
         21   -1    0    0  501  502  0.00000000000E+00  0.00000000000E+00  0.28668222596E+02  0.28668222596E+02  0.00000000000E+00 0. -1.
         21   -1    0    0  502  503 -0.00000000000E+00 -0.00000000000E+00 -0.28896967208E+03  0.28896967208E+03  0.00000000000E+00 0. -1.
         24    1    1    2    0    0 -0.47872867254E+02 -0.35688025923E+01 -0.21416665654E+03  0.23375012406E+03  0.80419002446E+02 0. -1.
          1    1    1    2  501    0  0.15402493880E+02  0.25246585184E+02 -0.11612969866E+02  0.31772440106E+02  0.00000000000E+00 0. -1.
         -2    1    1    2    0  503  0.32470373374E+02 -0.21677782592E+02 -0.34521823072E+02  0.52115330502E+02  0.00000000000E+00 0.  1.
<mgrwt>
<rscale>  2 0.81136724E+02</rscale>
<asrwt>0</asrwt>
<pdfrwt beam="1">  1       21 0.44104960E-02 0.81136724E+02</pdfrwt>
<pdfrwt beam="2">  1       21 0.44456870E-01 0.81136724E+02</pdfrwt>
<totfact> 0.15922733E+06</totfact>
</mgrwt>
</event>
<event>
 5    1  0.2051810E+000  0.9313569E+02  0.7546771E-02  0.1295431E+00
         21   -1    0    0  503  502  0.00000000000E+00  0.00000000000E+00  0.75770312153E+02  0.75770312153E+02  0.00000000000E+00 0.  1.
         21   -1    0    0  501  503 -0.00000000000E+00 -0.00000000000E+00 -0.12918438911E+03  0.12918438911E+03  0.00000000000E+00 0. -1.
         24    1    1    2    0    0 -0.29673006493E+02 -0.64331164537E+01 -0.30498505982E+02  0.91209906935E+02  0.80419002446E+02 0.  1.
          1    1    1    2  501    0 -0.27426424279E+02 -0.23252245457E+02 -0.32758413262E+02  0.48641436111E+02  0.00000000000E+00 0. -1.
         -2    1    1    2    0  502  0.57099430772E+02  0.29685361911E+02  0.98428422898E+01  0.65103358213E+02  0.00000000000E+00 0.  1.
<mgrwt>
<rscale>  2 0.93135692E+02</rscale>
<asrwt>0</asrwt>
<pdfrwt beam="1">  1       21 0.11656971E-01 0.93135692E+02</pdfrwt>
<pdfrwt beam="2">  1       21 0.19874521E-01 0.93135692E+02</pdfrwt>
<totfact> 0.14288314E+06</totfact>
</mgrwt>
</event>
<event>
 5    1  0.2051810E+000  0.7440002E+02  0.7546771E-02  0.1345739E+00
         21   -1    0    0  501  502  0.00000000000E+00  0.00000000000E+00  0.37792135479E+02  0.37792135479E+02  0.00000000000E+00 0.  1.
         21   -1    0    0  502  503 -0.00000000000E+00 -0.00000000000E+00 -0.23386997091E+03  0.23386997091E+03  0.00000000000E+00 0.  1.
         24    1    1    2    0    0  0.47083122614E+02 -0.23524811002E+02 -0.16943910757E+03  0.19480006236E+03  0.80419002446E+02 0.  1.
          1    1    1    2  501    0 -0.23004584014E+02  0.12843301212E+02  0.12913160707E+02  0.29341284755E+02  0.00000000000E+00 0. -1.
         -2    1    1    2    0  503 -0.24078538600E+02  0.10681509790E+02 -0.39551888565E+02  0.47520759270E+02  0.00000000000E+00 0.  1.
<mgrwt>
<rscale>  2 0.74400018E+02</rscale>
<asrwt>0</asrwt>
<pdfrwt beam="1">  1       21 0.58141748E-02 0.74400018E+02</pdfrwt>
<pdfrwt beam="2">  1       21 0.35979995E-01 0.74400018E+02</pdfrwt>
<totfact> 0.15230007E+06</totfact>
</mgrwt>
</event>
<event>
 5    1  0.2051810E+000  0.9987153E+02  0.7546771E-02  0.1280566E+00
         21   -1    0    0  501  502  0.00000000000E+00  0.00000000000E+00  0.91131998221E+02  0.91131998221E+02  0.00000000000E+00 0.  1.
         21   -1    0    0  502  503 -0.00000000000E+00 -0.00000000000E+00 -0.24423417143E+03  0.24423417143E+03  0.00000000000E+00 0.  1.
         24    1    1    2    0    0  0.28396702094E+02  0.56446011006E+02  0.31214375368E+02  0.10693024844E+03  0.80419002446E+02 0.  1.
          1    1    1    2  501    0  0.24480092401E+02 -0.79957702187E+01  0.47832055712E+01  0.26193249529E+02  0.00000000000E+00 0. -1.
         -2    1    1    2    0  503 -0.52876794495E+02 -0.48450240788E+02 -0.18909975415E+03  0.20224267168E+03  0.00000000000E+00 0.  1.
<mgrwt>
<rscale>  2 0.99871528E+02</rscale>
<asrwt>0</asrwt>
<pdfrwt beam="1">  1       21 0.14020308E-01 0.99871528E+02</pdfrwt>
<pdfrwt beam="2">  1       21 0.37574487E-01 0.99871528E+02</pdfrwt>
<totfact> 0.30853032E+05</totfact>
</mgrwt>
</event>
<event>
 5    1  0.2051810E+000  0.1181175E+03  0.7546771E-02  0.1246235E+00
         21   -1    0    0  503  502  0.00000000000E+00  0.00000000000E+00  0.29162721318E+02  0.29162721318E+02  0.00000000000E+00 0.  1.
         21   -1    0    0  501  503 -0.00000000000E+00 -0.00000000000E+00 -0.15353828390E+04  0.15353828390E+04  0.00000000000E+00 0. -1.
         24    1    1    2    0    0 -0.88254778732E+02 -0.30892725813E+02 -0.79337238078E+03  0.80290112530E+03  0.80419002446E+02 0.  1.
          1    1    1    2  501    0  0.40769674848E+02 -0.18161159872E+02 -0.68730148301E+03  0.68874909994E+03  0.00000000000E+00 0. -1.
         -2    1    1    2    0  502  0.47485103884E+02  0.49053885684E+02 -0.25546253931E+02  0.72895335115E+02  0.00000000000E+00 0.  1.
<mgrwt>
<rscale>  2 0.11811747E+03</rscale>
<asrwt>0</asrwt>
<pdfrwt beam="1">  1       21 0.44865729E-02 0.11811747E+03</pdfrwt>
<pdfrwt beam="2">  1       21 0.23621273E+00 0.11811747E+03</pdfrwt>
<totfact> 0.27813928E+04</totfact>
</mgrwt>
</event>
<event>
 5    1  0.2051810E+000  0.9098888E+02  0.7546771E-02  0.1300474E+00
         21   -1    0    0  503  502  0.00000000000E+00  0.00000000000E+00  0.59262090106E+02  0.59262090106E+02  0.00000000000E+00 0.  1.
         21   -1    0    0  501  503 -0.00000000000E+00 -0.00000000000E+00 -0.14041557288E+03  0.14041557288E+03  0.00000000000E+00 0. -1.
         24    1    1    2    0    0 -0.31810224512E+02 -0.48167529741E+02 -0.44993362431E+02  0.10873647006E+03  0.80419002446E+02 0.  0.
          1    1    1    2  501    0  0.25436279752E+02 -0.78404801345E+01 -0.72320813630E+01  0.27582248951E+02  0.00000000000E+00 0. -1.
         -2    1    1    2    0  502  0.63739447600E+01  0.56008009876E+02 -0.28928038982E+02  0.63358943973E+02  0.00000000000E+00 0.  1.
<mgrwt>
<rscale>  2 0.90988885E+02</rscale>
<asrwt>0</asrwt>
<pdfrwt beam="1">  1       21 0.91172448E-02 0.90988885E+02</pdfrwt>
<pdfrwt beam="2">  1       21 0.21602395E-01 0.90988885E+02</pdfrwt>
<totfact> 0.18773834E+06</totfact>
</mgrwt>
</event>
<event>
 5    1  0.2051810E+000  0.8182360E+02  0.7546771E-02  0.1323955E+00
         21   -1    0    0  503  502  0.00000000000E+00  0.00000000000E+00  0.36142520198E+03  0.36142520198E+03  0.00000000000E+00 0. -1.
         21   -1    0    0  501  503 -0.00000000000E+00 -0.00000000000E+00 -0.44198080250E+02  0.44198080250E+02  0.00000000000E+00 0. -1.
         24    1    1    2    0    0 -0.33623619257E+02  0.42520602588E+02  0.14825118301E+03  0.17715580328E+03  0.80419002446E+02 0. -1.
          1    1    1    2  501    0  0.28815746758E+01 -0.34863755936E+02 -0.17642041345E+02  0.39179415174E+02  0.00000000000E+00 0. -1.
         -2    1    1    2    0  502  0.30742044581E+02 -0.76568466517E+01  0.18661798006E+03  0.18928806377E+03  0.00000000000E+00 0.  1.
<mgrwt>
<rscale>  2 0.81823599E+02</rscale>
<asrwt>0</asrwt>
<pdfrwt beam="1">  1       21 0.55603875E-01 0.81823599E+02</pdfrwt>
<pdfrwt beam="2">  1       21 0.67997049E-02 0.81823599E+02</pdfrwt>
<totfact> 0.49078020E+05</totfact>
</mgrwt>
</event>
<event>
 5    1  0.2051810E+000  0.9076110E+02  0.7546771E-02  0.1301019E+00
         21   -1    0    0  501  502  0.00000000000E+00  0.00000000000E+00  0.16317169723E+02  0.16317169723E+02  0.00000000000E+00 0. -1.
         21   -1    0    0  502  503 -0.00000000000E+00 -0.00000000000E+00 -0.58899235204E+03  0.58899235204E+03  0.00000000000E+00 0.  1.
         24    1    1    2    0    0  0.90541598236E+01 -0.48776290898E+02 -0.40411747221E+03  0.41501717032E+03  0.80419002446E+02 0.  1.
          1    1    1    2  501    0 -0.25344620608E+02  0.61398719776E+02 -0.11355541182E+03  0.13155601141E+03  0.00000000000E+00 0. -1.
         -2    1    1    2    0  503  0.16290460784E+02 -0.12622428879E+02 -0.55002298283E+02  0.58736340027E+02  0.00000000000E+00 0.  1.
<mgrwt>
<rscale>  2 0.90761097E+02</rscale>
<asrwt>0</asrwt>
<pdfrwt beam="1">  1       21 0.25103340E-02 0.90761097E+02</pdfrwt>
<pdfrwt beam="2">  1       21 0.90614202E-01 0.90761097E+02</pdfrwt>
<totfact> 0.88279815E+05</totfact>
</mgrwt>
</event>
<event>
 5    1  0.2051810E+000  0.1201613E+03  0.7546771E-02  0.1242831E+00
         21   -1    0    0  501  502  0.00000000000E+00  0.00000000000E+00  0.93065223458E+03  0.93065223458E+03  0.00000000000E+00 0.  1.
         21   -1    0    0  502  503 -0.00000000000E+00 -0.00000000000E+00 -0.15845032832E+02  0.15845032832E+02  0.00000000000E+00 0. -1.
         24    1    1    2    0    0 -0.29579699593E+02  0.50520026392E+02  0.32978460182E+03  0.34445947693E+03  0.80419002446E+02 0. -1.
          1    1    1    2  501    0 -0.40025670005E+02  0.17359131289E+02  0.22034374796E+03  0.22462137246E+03  0.00000000000E+00 0. -1.
         -2    1    1    2    0  503  0.69605369598E+02 -0.67879157680E+02  0.36467885196E+03  0.37741641802E+03  0.00000000000E+00 0.  1.
<mgrwt>
<rscale>  2 0.12016132E+03</rscale>
<asrwt>0</asrwt>
<pdfrwt beam="1">  1       21 0.14317722E+00 0.12016132E+03</pdfrwt>
<pdfrwt beam="2">  1       21 0.24376981E-02 0.12016132E+03</pdfrwt>
<totfact> 0.30791952E+05</totfact>
</mgrwt>
</event>
<event>
 5    1  0.2051810E+000  0.1010468E+03  0.7546771E-02  0.1278110E+00
         21   -1    0    0  501  502  0.00000000000E+00  0.00000000000E+00  0.83827040764E+02  0.83827040764E+02  0.00000000000E+00 0. -1.
         21   -1    0    0  502  503 -0.00000000000E+00 -0.00000000000E+00 -0.17361270762E+03  0.17361270762E+03  0.00000000000E+00 0. -1.
         24    1    1    2    0    0  0.26216394012E+02  0.56326328501E+02 -0.96107381982E+02  0.13987065247E+03  0.80419002446E+02 0. -1.
          1    1    1    2  501    0  0.20831393908E+02 -0.48489537422E+02  0.33658429696E+02  0.62594505359E+02  0.00000000000E+00 0. -1.
         -2    1    1    2    0  503 -0.47047787921E+02 -0.78367910788E+01 -0.27336714566E+02  0.54974590548E+02  0.00000000000E+00 0.  1.
<mgrwt>
<rscale>  2 0.10104676E+03</rscale>
<asrwt>0</asrwt>
<pdfrwt beam="1">  1       21 0.12896468E-01 0.10104676E+03</pdfrwt>
<pdfrwt beam="2">  1       21 0.26709647E-01 0.10104676E+03</pdfrwt>
<totfact> 0.69103433E+05</totfact>
</mgrwt>
</event>
<event>
 5    1  0.2051810E+000  0.8213814E+02  0.7546771E-02  0.1323091E+00
         21   -1    0    0  503  502  0.00000000000E+00  0.00000000000E+00  0.11815677134E+03  0.11815677134E+03  0.00000000000E+00 0.  1.
         21   -1    0    0  501  503 -0.00000000000E+00 -0.00000000000E+00 -0.19980779917E+03  0.19980779917E+03  0.00000000000E+00 0. -1.
         24    1    1    2    0    0 -0.42904625090E+01 -0.62043724237E+02  0.87101885078E+02  0.13387227541E+03  0.80419002446E+02 0.  1.
          1    1    1    2  501    0 -0.15226395887E+01  0.30627906842E+02 -0.13144072659E+03  0.13497055870E+03  0.00000000000E+00 0. -1.
         -2    1    1    2    0  502  0.58131020977E+01  0.31415817394E+02 -0.37312186323E+02  0.49121736398E+02  0.00000000000E+00 0.  1.
<mgrwt>
<rscale>  2 0.82138140E+02</rscale>
<asrwt>0</asrwt>
<pdfrwt beam="1">  1       21 0.18177965E-01 0.82138140E+02</pdfrwt>
<pdfrwt beam="2">  1       21 0.30739661E-01 0.82138140E+02</pdfrwt>
<totfact> 0.28656024E+05</totfact>
</mgrwt>
</event>
<event>
 5    1  0.2051810E+000  0.8295934E+02  0.7546771E-02  0.1320857E+00
         21   -1    0    0  503  502  0.00000000000E+00  0.00000000000E+00  0.92554117764E+02  0.92554117764E+02  0.00000000000E+00 0. -1.
         21   -1    0    0  501  503 -0.00000000000E+00 -0.00000000000E+00 -0.18309024532E+03  0.18309024532E+03  0.00000000000E+00 0. -1.
         24    1    1    2    0    0  0.21551916084E+02 -0.19552025904E+02  0.32945767050E+02  0.91648275078E+02  0.80419002446E+02 0. -1.
          1    1    1    2  501    0 -0.29262650893E+02  0.45071611205E+02 -0.14180611512E+03  0.15164671826E+03  0.00000000000E+00 0. -1.
         -2    1    1    2    0  502  0.77107348090E+01 -0.25519585302E+02  0.18324220516E+02  0.32349369743E+02  0.00000000000E+00 0.  1.
<mgrwt>
<rscale>  2 0.82959343E+02</rscale>
<asrwt>0</asrwt>
<pdfrwt beam="1">  1       21 0.14239095E-01 0.82959343E+02</pdfrwt>
<pdfrwt beam="2">  1       21 0.28167730E-01 0.82959343E+02</pdfrwt>
<totfact> 0.52392312E+05</totfact>
</mgrwt>
</event>
<event>
 5    1  0.2051810E+000  0.7057363E+02  0.7546771E-02  0.1358153E+00
         21   -1    0    0  501  502  0.00000000000E+00  0.00000000000E+00  0.67201572904E+02  0.67201572904E+02  0.00000000000E+00 0. -1.
         21   -1    0    0  502  503 -0.00000000000E+00 -0.00000000000E+00 -0.15175758220E+03  0.15175758220E+03  0.00000000000E+00 0.  1.
         24    1    1    2    0    0 -0.10991982196E+02  0.36182272540E+02 -0.40734274253E+02  0.97757237952E+02  0.80419002446E+02 0.  0.
          1    1    1    2  501    0 -0.13284155794E+02 -0.15270456585E+02  0.32579109687E+02  0.38354322149E+02  0.00000000000E+00 0. -1.
         -2    1    1    2    0  503  0.24276137991E+02 -0.20911815955E+02 -0.76400844729E+02  0.82847595002E+02  0.00000000000E+00 0.  1.
<mgrwt>
<rscale>  2 0.70573634E+02</rscale>
<asrwt>0</asrwt>
<pdfrwt beam="1">  1       21 0.10338704E-01 0.70573634E+02</pdfrwt>
<pdfrwt beam="2">  1       21 0.23347320E-01 0.70573634E+02</pdfrwt>
<totfact> 0.12975894E+06</totfact>
</mgrwt>
</event>
<event>
 5    1  0.2051810E+000  0.8886884E+02  0.7546771E-02  0.1305614E+00
         21   -1    0    0  501  502  0.00000000000E+00  0.00000000000E+00  0.55541315077E+03  0.55541315077E+03  0.00000000000E+00 0.  1.
         21   -1    0    0  502  503 -0.00000000000E+00 -0.00000000000E+00 -0.27599543251E+02  0.27599543251E+02  0.00000000000E+00 0.  1.
         24    1    1    2    0    0  0.17301395673E+02  0.42833133372E+02  0.42349181140E+03  0.43352802203E+03  0.80419002446E+02 0.  1.
          1    1    1    2  501    0 -0.42263266201E+02 -0.42634267526E+02  0.10866703672E+03  0.12414664436E+03  0.00000000000E+00 0. -1.
         -2    1    1    2    0  503  0.24961870528E+02 -0.19886584626E+00 -0.43452406057E+01  0.25338027622E+02  0.00000000000E+00 0.  1.
<mgrwt>
<rscale>  2 0.88868841E+02</rscale>
<asrwt>0</asrwt>
<pdfrwt beam="1">  1       21 0.85448168E-01 0.88868841E+02</pdfrwt>
<pdfrwt beam="2">  1       21 0.42460840E-02 0.88868841E+02</pdfrwt>
<totfact> 0.42739860E+05</totfact>
</mgrwt>
</event>
<event>
 5    1  0.2051810E+000  0.9126451E+02  0.7546771E-02  0.1299818E+00
         21   -1    0    0  503  502  0.00000000000E+00  0.00000000000E+00  0.13036786068E+03  0.13036786068E+03  0.00000000000E+00 0.  1.
         21   -1    0    0  501  503 -0.00000000000E+00 -0.00000000000E+00 -0.10113271659E+03  0.10113271659E+03  0.00000000000E+00 0. -1.
         24    1    1    2    0    0  0.18875203041E+02 -0.15594809340E+02  0.79355718449E+02  0.11560284327E+03  0.80419002446E+02 0.  1.
          1    1    1    2  501    0 -0.38261755441E+02 -0.30194729983E+02 -0.44244140094E+02  0.65827255607E+02  0.00000000000E+00 0. -1.
         -2    1    1    2    0  502  0.19386552400E+02  0.45789539324E+02 -0.58764342652E+01  0.50070478379E+02  0.00000000000E+00 0.  1.
<mgrwt>
<rscale>  2 0.91264510E+02</rscale>
<asrwt>0</asrwt>
<pdfrwt beam="1">  1       21 0.20056594E-01 0.91264510E+02</pdfrwt>
<pdfrwt beam="2">  1       21 0.15558879E-01 0.91264510E+02</pdfrwt>
<totfact> 0.84224457E+05</totfact>
</mgrwt>
</event>
<event>
 5    1  0.2051810E+000  0.1154865E+03  0.7546771E-02  0.1250734E+00
         21   -1    0    0  501  502  0.00000000000E+00  0.00000000000E+00  0.11681617515E+02  0.11681617515E+02  0.00000000000E+00 0. -1.
         21   -1    0    0  502  503 -0.00000000000E+00 -0.00000000000E+00 -0.18865044661E+04  0.18865044661E+04  0.00000000000E+00 0. -1.
         24    1    1    2    0    0 -0.44523731501E+02  0.62193653626E+02 -0.77332732817E+03  0.78125078282E+03  0.80419002446E+02 0. -1.
          1    1    1    2  501    0  0.43958726714E+02 -0.85783912436E+02 -0.30026646050E+03  0.31535883782E+03  0.00000000000E+00 0. -1.
         -2    1    1    2    0  503  0.56500478670E+00  0.23590258810E+02 -0.80122905992E+03  0.80157646298E+03  0.00000000000E+00 0.  1.
<mgrwt>
<rscale>  2 0.11548648E+03</rscale>
<asrwt>0</asrwt>
<pdfrwt beam="1">  1       21 0.17971710E-02 0.11548648E+03</pdfrwt>
<pdfrwt beam="2">  1       21 0.29023161E+00 0.11548648E+03</pdfrwt>
<totfact> 0.61530133E+04</totfact>
</mgrwt>
</event>
<event>
 5    1  0.2051810E+000  0.9602881E+02  0.7546771E-02  0.1288876E+00
         21   -1    0    0  501  502  0.00000000000E+00  0.00000000000E+00  0.45238954883E+01  0.45238954883E+01  0.00000000000E+00 0. -1.
         21   -1    0    0  502  503 -0.00000000000E+00 -0.00000000000E+00 -0.23704790879E+04  0.23704790879E+04  0.00000000000E+00 0. -1.
         24    1    1    2    0    0 -0.48855734827E+02  0.25355430689E+01 -0.13571271290E+04  0.13603876551E+04  0.80419002446E+02 0. -1.
          1    1    1    2  501    0  0.64009660569E+02  0.23181048433E+02 -0.46371264639E+03  0.46868327907E+03  0.00000000000E+00 0. -1.
         -2    1    1    2    0  503 -0.15153925742E+02 -0.25716591502E+02 -0.54511541697E+03  0.54593204922E+03  0.00000000000E+00 0.  1.
<mgrwt>
<rscale>  2 0.96028810E+02</rscale>
<asrwt>0</asrwt>
<pdfrwt beam="1">  1       21 0.69598129E-03 0.96028810E+02</pdfrwt>
<pdfrwt beam="2">  1       21 0.36469047E+00 0.96028810E+02</pdfrwt>
<totfact> 0.10775542E+05</totfact>
</mgrwt>
</event>
<event>
 5    1  0.2051810E+000  0.9942508E+02  0.7546771E-02  0.1281510E+00
         21   -1    0    0  503  502  0.00000000000E+00  0.00000000000E+00  0.15244588408E+03  0.15244588408E+03  0.00000000000E+00 0. -1.
         21   -1    0    0  501  503 -0.00000000000E+00 -0.00000000000E+00 -0.73719367170E+02  0.73719367170E+02  0.00000000000E+00 0. -1.
         24    1    1    2    0    0 -0.70005034669E+02 -0.42610072461E+02  0.55701696742E+02  0.12761746796E+03  0.80419002446E+02 0. -1.
          1    1    1    2  501    0  0.54141688893E+02  0.23043959858E+02 -0.71125978158E+01  0.59270022860E+02  0.00000000000E+00 0. -1.
         -2    1    1    2    0  502  0.15863345776E+02  0.19566112602E+02  0.30137417981E+02  0.39277760427E+02  0.00000000000E+00 0.  1.
<mgrwt>
<rscale>  2 0.99425079E+02</rscale>
<asrwt>0</asrwt>
<pdfrwt beam="1">  1       21 0.23453213E-01 0.99425079E+02</pdfrwt>
<pdfrwt beam="2">  1       21 0.11341441E-01 0.99425079E+02</pdfrwt>
<totfact> 0.11057308E+06</totfact>
</mgrwt>
</event>
<event>
 5    1  0.2051810E+000  0.1259705E+03  0.7546771E-02  0.1233560E+00
         21   -1    0    0  501  502  0.00000000000E+00  0.00000000000E+00  0.16521218926E+03  0.16521218926E+03  0.00000000000E+00 0. -1.
         21   -1    0    0  502  503 -0.00000000000E+00 -0.00000000000E+00 -0.18144487039E+03  0.18144487039E+03  0.00000000000E+00 0. -1.
         24    1    1    2    0    0 -0.30796057618E+02 -0.83607855283E+02 -0.56367687474E+02  0.13260166958E+03  0.80419002446E+02 0. -1.
          1    1    1    2  501    0  0.36595358143E+02  0.10424400531E+03  0.10089880855E+03  0.14962153070E+03  0.00000000000E+00 0. -1.
         -2    1    1    2    0  503 -0.57993005249E+01 -0.20636150025E+02 -0.60763802212E+02  0.64433859373E+02  0.00000000000E+00 0.  1.
<mgrwt>
<rscale>  2 0.12597049E+03</rscale>
<asrwt>0</asrwt>
<pdfrwt beam="1">  1       21 0.25417260E-01 0.12597049E+03</pdfrwt>
<pdfrwt beam="2">  1       21 0.27914596E-01 0.12597049E+03</pdfrwt>
<totfact> 0.18332004E+05</totfact>
</mgrwt>
</event>
<event>
 5    1  0.2051810E+000  0.8077003E+02  0.7546771E-02  0.1326880E+00
         21   -1    0    0  501  502  0.00000000000E+00  0.00000000000E+00  0.21771898592E+03  0.21771898592E+03  0.00000000000E+00 0. -1.
         21   -1    0    0  502  503 -0.00000000000E+00 -0.00000000000E+00 -0.40616206892E+02  0.40616206892E+02  0.00000000000E+00 0. -1.
         24    1    1    2    0    0 -0.23141717884E+02 -0.33755400894E+02  0.58714361236E+02  0.10765481116E+03  0.80419002446E+02 0. -1.
          1    1    1    2  501    0  0.10824536676E+02  0.49865454938E+02  0.11993873252E+03  0.13034198767E+03  0.00000000000E+00 0. -1.
         -2    1    1    2    0  503  0.12317181208E+02 -0.16110054044E+02 -0.15503147263E+01  0.20338393987E+02  0.00000000000E+00 0.  1.
<mgrwt>
<rscale>  2 0.80770030E+02</rscale>
<asrwt>0</asrwt>
<pdfrwt beam="1">  1       21 0.33495228E-01 0.80770030E+02</pdfrwt>
<pdfrwt beam="2">  1       21 0.62486473E-02 0.80770030E+02</pdfrwt>
<totfact> 0.15547513E+06</totfact>
</mgrwt>
</event>
<event>
 5    1  0.2051810E+000  0.9046802E+02  0.7546771E-02  0.1301722E+00
         21   -1    0    0  503  502  0.00000000000E+00  0.00000000000E+00  0.48506360430E+03  0.48506360430E+03  0.00000000000E+00 0. -1.
         21   -1    0    0  501  503 -0.00000000000E+00 -0.00000000000E+00 -0.28467525815E+02  0.28467525815E+02  0.00000000000E+00 0. -1.
         24    1    1    2    0    0 -0.36265752029E+02  0.44142893672E+02  0.37518846657E+03  0.38793994540E+03  0.80419002446E+02 0. -1.
          1    1    1    2  501    0  0.20463984623E+02 -0.57855554400E+02  0.26523671405E+02  0.66854655682E+02  0.00000000000E+00 0. -1.
         -2    1    1    2    0  502  0.15801767406E+02  0.13712660728E+02  0.54883940509E+02  0.58736529036E+02  0.00000000000E+00 0.  1.
<mgrwt>
<rscale>  2 0.90468024E+02</rscale>
<asrwt>0</asrwt>
<pdfrwt beam="1">  1       21 0.74625164E-01 0.90468024E+02</pdfrwt>
<pdfrwt beam="2">  1       21 0.43796197E-02 0.90468024E+02</pdfrwt>
<totfact> 0.54760563E+05</totfact>
</mgrwt>
</event>
<event>
 5    1  0.2051810E+000  0.1330500E+03  0.7546771E-02  0.1222999E+00
         21   -1    0    0  503  502  0.00000000000E+00  0.00000000000E+00  0.23083264520E+02  0.23083264520E+02  0.00000000000E+00 0. -1.
         21   -1    0    0  501  503 -0.00000000000E+00 -0.00000000000E+00 -0.86319746125E+03  0.86319746125E+03  0.00000000000E+00 0. -1.
         24    1    1    2    0    0  0.98176449662E+02 -0.57229278553E+02 -0.31302277375E+03  0.34258470256E+03  0.80419002446E+02 0. -1.
          1    1    1    2  501    0 -0.40106904839E+02  0.55899953144E+02 -0.36700002605E+03  0.37339307398E+03  0.00000000000E+00 0. -1.
         -2    1    1    2    0  502 -0.58069544823E+02  0.13293254091E+01 -0.16009139693E+03  0.17030294922E+03  0.00000000000E+00 0.  1.
<mgrwt>
<rscale>  2 0.13304999E+03</rscale>
<asrwt>0</asrwt>
<pdfrwt beam="1">  1       21 0.35512716E-02 0.13304999E+03</pdfrwt>
<pdfrwt beam="2">  1       21 0.13279960E+00 0.13304999E+03</pdfrwt>
<totfact> 0.20015175E+05</totfact>
</mgrwt>
</event>
<event>
 5    1  0.2051810E+000  0.9594271E+02  0.7546771E-02  0.1289067E+00
         21   -1    0    0  501  502  0.00000000000E+00  0.00000000000E+00  0.22896297213E+04  0.22896297213E+04  0.00000000000E+00 0.  1.
         21   -1    0    0  502  503 -0.00000000000E+00 -0.00000000000E+00 -0.54476949525E+01  0.54476949525E+01  0.00000000000E+00 0.  1.
         24    1    1    2    0    0 -0.38505268989E+02  0.11059168280E+02  0.99811936923E+03  0.10021549043E+04  0.80419002446E+02 0.  1.
          1    1    1    2  501    0 -0.98248916042E+01 -0.43000530429E+02  0.10041912576E+04  0.10051595177E+04  0.00000000000E+00 0. -1.
         -2    1    1    2    0  503  0.48330160593E+02  0.31941362150E+02  0.28187139950E+03  0.28776299431E+03  0.00000000000E+00 0.  1.
<mgrwt>
<rscale>  2 0.95942713E+02</rscale>
<asrwt>0</asrwt>
<pdfrwt beam="1">  1       21 0.35224996E+00 0.95942713E+02</pdfrwt>
<pdfrwt beam="2">  1       21 0.83810875E-03 0.95942713E+02</pdfrwt>
<totfact> 0.95127526E+04</totfact>
</mgrwt>
</event>
<event>
 5    1  0.2051810E+000  0.8142547E+02  0.7546771E-02  0.1325054E+00
         21   -1    0    0  501  502  0.00000000000E+00  0.00000000000E+00  0.15022835409E+03  0.15022835409E+03  0.00000000000E+00 0. -1.
         21   -1    0    0  502  503 -0.00000000000E+00 -0.00000000000E+00 -0.46806157133E+02  0.46806157133E+02  0.00000000000E+00 0.  1.
         24    1    1    2    0    0  0.60206253759E+01  0.32305597386E+02  0.68043429198E+02  0.11034955262E+03  0.80419002446E+02 0.  1.
          1    1    1    2  501    0 -0.37381411575E+02 -0.16561678277E+02  0.31025971958E+02  0.51325140571E+02  0.00000000000E+00 0. -1.
         -2    1    1    2    0  503  0.31360786199E+02 -0.15743919110E+02  0.43527958039E+01  0.35359818032E+02  0.00000000000E+00 0.  1.
<mgrwt>
<rscale>  2 0.81425472E+02</rscale>
<asrwt>0</asrwt>
<pdfrwt beam="1">  1       21 0.23112054E-01 0.81425472E+02</pdfrwt>
<pdfrwt beam="2">  1       21 0.72009473E-02 0.81425472E+02</pdfrwt>
<totfact> 0.24670307E+06</totfact>
</mgrwt>
</event>
<event>
 5    1  0.2051810E+000  0.1087048E+03  0.7546771E-02  0.1262987E+00
         21   -1    0    0  503  502  0.00000000000E+00  0.00000000000E+00  0.66041999734E+02  0.66041999734E+02  0.00000000000E+00 0.  1.
         21   -1    0    0  501  503 -0.00000000000E+00 -0.00000000000E+00 -0.34202777997E+03  0.34202777997E+03  0.00000000000E+00 0. -1.
         24    1    1    2    0    0 -0.71703346410E+02  0.30853194300E+02 -0.17029178672E+03  0.20386220361E+03  0.80419002446E+02 0. -1.
          1    1    1    2  501    0  0.62935823273E+02 -0.52514414708E+02 -0.14027707003E+03  0.16246949861E+03  0.00000000000E+00 0. -1.
         -2    1    1    2    0  502  0.87675231366E+01  0.21661220409E+02  0.34583076504E+02  0.41738077483E+02  0.00000000000E+00 0.  1.
<mgrwt>
<rscale>  2 0.10870477E+03</rscale>
<asrwt>0</asrwt>
<pdfrwt beam="1">  1       21 0.10160307E-01 0.10870477E+03</pdfrwt>
<pdfrwt beam="2">  1       21 0.52619659E-01 0.10870477E+03</pdfrwt>
<totfact> 0.27536519E+05</totfact>
</mgrwt>
</event>
<event>
 5    1  0.2051810E+000  0.1489553E+03  0.7546771E-02  0.1201763E+00
         21   -1    0    0  503  502  0.00000000000E+00  0.00000000000E+00  0.11938636413E+03  0.11938636413E+03  0.00000000000E+00 0.  1.
         21   -1    0    0  501  503 -0.00000000000E+00 -0.00000000000E+00 -0.42031469897E+03  0.42031469897E+03  0.00000000000E+00 0. -1.
         24    1    1    2    0    0  0.28224081688E+01  0.10179745988E+03 -0.11774298344E+03  0.17521790699E+03  0.80419002446E+02 0. -1.
          1    1    1    2  501    0  0.59993829121E+02 -0.83321039718E+02 -0.25040949581E+03  0.27064103677E+03  0.00000000000E+00 0. -1.
         -2    1    1    2    0  502 -0.62816237290E+02 -0.18476420160E+02  0.67224144416E+02  0.93842119337E+02  0.00000000000E+00 0.  1.
<mgrwt>
<rscale>  2 0.14895534E+03</rscale>
<asrwt>0</asrwt>
<pdfrwt beam="1">  1       21 0.18367133E-01 0.14895534E+03</pdfrwt>
<pdfrwt beam="2">  1       21 0.64663800E-01 0.14895534E+03</pdfrwt>
<totfact> 0.60842143E+04</totfact>
</mgrwt>
</event>
<event>
 5    1  0.2051810E+000  0.9648066E+02  0.7546771E-02  0.1287876E+00
         21   -1    0    0  503  502  0.00000000000E+00  0.00000000000E+00  0.30093026215E+02  0.30093026215E+02  0.00000000000E+00 0.  1.
         21   -1    0    0  501  503 -0.00000000000E+00 -0.00000000000E+00 -0.96741677954E+03  0.96741677954E+03  0.00000000000E+00 0. -1.
         24    1    1    2    0    0 -0.26955520346E+00 -0.77544229272E+02 -0.14867468384E+03  0.18596923864E+03  0.80419002446E+02 0.  1.
          1    1    1    2  501    0  0.11891502476E+02  0.49083265943E+02 -0.77703962935E+03  0.77867911261E+03  0.00000000000E+00 0. -1.
         -2    1    1    2    0  502 -0.11621947272E+02  0.28460963329E+02 -0.11609440140E+02  0.32861454508E+02  0.00000000000E+00 0.  1.
<mgrwt>
<rscale>  2 0.96480662E+02</rscale>
<asrwt>0</asrwt>
<pdfrwt beam="1">  1       21 0.46296968E-02 0.96480662E+02</pdfrwt>
<pdfrwt beam="2">  1       21 0.14883334E+00 0.96480662E+02</pdfrwt>
<totfact> 0.98490821E+04</totfact>
</mgrwt>
</event>
<event>
 5    1  0.2051810E+000  0.1118511E+03  0.7546771E-02  0.1257180E+00
         21   -1    0    0  501  502  0.00000000000E+00  0.00000000000E+00  0.14404093705E+03  0.14404093705E+03  0.00000000000E+00 0. -1.
         21   -1    0    0  502  503 -0.00000000000E+00 -0.00000000000E+00 -0.10783427895E+03  0.10783427895E+03  0.00000000000E+00 0.  1.
         24    1    1    2    0    0 -0.61196169033E+02  0.48452939111E+02 -0.78563015098E+01  0.11234587594E+03  0.80419002446E+02 0. -1.
          1    1    1    2  501    0  0.10037299283E+02 -0.58619029740E+02  0.60505224137E+02  0.84839968013E+02  0.00000000000E+00 0. -1.
         -2    1    1    2    0  503  0.51158869750E+02  0.10166090629E+02 -0.16442264522E+02  0.54689372051E+02  0.00000000000E+00 0.  1.
<mgrwt>
<rscale>  2 0.11185109E+03</rscale>
<asrwt>0</asrwt>
<pdfrwt beam="1">  1       21 0.22160144E-01 0.11185109E+03</pdfrwt>
<pdfrwt beam="2">  1       21 0.16589889E-01 0.11185109E+03</pdfrwt>
<totfact> 0.62502186E+05</totfact>
</mgrwt>
</event>
<event>
 5    1  0.2051810E+000  0.6794083E+02  0.7546771E-02  0.1367239E+00
         21   -1    0    0  503  502  0.00000000000E+00  0.00000000000E+00  0.58745754079E+02  0.58745754079E+02  0.00000000000E+00 0. -1.
         21   -1    0    0  501  503 -0.00000000000E+00 -0.00000000000E+00 -0.36524659199E+03  0.36524659199E+03  0.00000000000E+00 0. -1.
         24    1    1    2    0    0  0.11835879620E+01 -0.37546421306E+01 -0.15317989687E+02  0.81959471572E+02  0.80419002446E+02 0. -1.
          1    1    1    2  501    0  0.23553634791E+02 -0.11595849151E+02 -0.30752712559E+03  0.30864570368E+03  0.00000000000E+00 0. -1.
         -2    1    1    2    0  502 -0.24737222753E+02  0.15350491281E+02  0.16344277367E+02  0.33387170810E+02  0.00000000000E+00 0.  1.
<mgrwt>
<rscale>  2 0.67940826E+02</rscale>
<asrwt>0</asrwt>
<pdfrwt beam="1">  1       21 0.90378083E-02 0.67940826E+02</pdfrwt>
<pdfrwt beam="2">  1       21 0.56191784E-01 0.67940826E+02</pdfrwt>
<totfact> 0.29660159E+05</totfact>
</mgrwt>
</event>
<event>
 5    1  0.2051810E+000  0.8205398E+02  0.7546771E-02  0.1323322E+00
         21   -1    0    0  503  502  0.00000000000E+00  0.00000000000E+00  0.30576095466E+03  0.30576095466E+03  0.00000000000E+00 0.  1.
         21   -1    0    0  501  503 -0.00000000000E+00 -0.00000000000E+00 -0.91809742363E+02  0.91809742363E+02  0.00000000000E+00 0. -1.
         24    1    1    2    0    0 -0.95660276392E+01  0.61071307897E+02 -0.19854670691E+02  0.10335684513E+03  0.80419002446E+02 0.  0.
          1    1    1    2  501    0  0.11069249527E+02 -0.38634684202E+02 -0.16103090226E+02  0.43295226334E+02  0.00000000000E+00 0. -1.
         -2    1    1    2    0  502 -0.15032218883E+01 -0.22436623695E+02  0.24990897322E+03  0.25091862556E+03  0.00000000000E+00 0.  1.
<mgrwt>
<rscale>  2 0.82053981E+02</rscale>
<asrwt>0</asrwt>
<pdfrwt beam="1">  1       21 0.47040146E-01 0.82053981E+02</pdfrwt>
<pdfrwt beam="2">  1       21 0.14124576E-01 0.82053981E+02</pdfrwt>
<totfact> 0.19543269E+05</totfact>
</mgrwt>
</event>
<event>
 5    1  0.2051810E+000  0.8765892E+02  0.7546771E-02  0.1308622E+00
         21   -1    0    0  501  502  0.00000000000E+00  0.00000000000E+00  0.44937081102E+02  0.44937081102E+02  0.00000000000E+00 0.  1.
         21   -1    0    0  502  503 -0.00000000000E+00 -0.00000000000E+00 -0.24299060686E+03  0.24299060686E+03  0.00000000000E+00 0. -1.
         24    1    1    2    0    0 -0.41137955555E+02  0.47974606837E+02 -0.17310229544E+03  0.20106097316E+03  0.80419002446E+02 0. -1.
          1    1    1    2  501    0  0.52094191331E+01 -0.34144825317E+02  0.88276416488E+01  0.35650166910E+02  0.00000000000E+00 0. -1.
         -2    1    1    2    0  503  0.35928536422E+02 -0.13829781520E+02 -0.33778871970E+02  0.51216547891E+02  0.00000000000E+00 0.  1.
<mgrwt>
<rscale>  2 0.87658925E+02</rscale>
<asrwt>0</asrwt>
<pdfrwt beam="1">  1       21 0.69133972E-02 0.87658925E+02</pdfrwt>
<pdfrwt beam="2">  1       21 0.37383169E-01 0.87658925E+02</pdfrwt>
<totfact> 0.10616111E+06</totfact>
</mgrwt>
</event>
<event>
 5    1  0.2051810E+000  0.6498142E+02  0.7546771E-02  0.1378041E+00
         21   -1    0    0  501  502  0.00000000000E+00  0.00000000000E+00  0.15143280800E+03  0.15143280800E+03  0.00000000000E+00 0. -1.
         21   -1    0    0  502  503 -0.00000000000E+00 -0.00000000000E+00 -0.28834309785E+02  0.28834309785E+02  0.00000000000E+00 0.  1.
         24    1    1    2    0    0 -0.73616677150E+00  0.11789645951E+01  0.64962170520E+02  0.10338873948E+03  0.80419002446E+02 0.  1.
          1    1    1    2  501    0 -0.24258652604E+02  0.19744768884E+01  0.37122551516E+02  0.44389915704E+02  0.00000000000E+00 0. -1.
         -2    1    1    2    0  503  0.24994819375E+02 -0.31534414836E+01  0.20513776176E+02  0.32488462595E+02  0.00000000000E+00 0.  1.
<mgrwt>
<rscale>  2 0.64981423E+02</rscale>
<asrwt>0</asrwt>
<pdfrwt beam="1">  1       21 0.23297355E-01 0.64981423E+02</pdfrwt>
<pdfrwt beam="2">  1       21 0.44360477E-02 0.64981423E+02</pdfrwt>
<totfact> 0.53679108E+06</totfact>
</mgrwt>
</event>
<event>
 5    1  0.2051810E+000  0.1083008E+03  0.7546771E-02  0.1263749E+00
         21   -1    0    0  501  502  0.00000000000E+00  0.00000000000E+00  0.17452239551E+03  0.17452239551E+03  0.00000000000E+00 0. -1.
         21   -1    0    0  502  503 -0.00000000000E+00 -0.00000000000E+00 -0.10921784708E+03  0.10921784708E+03  0.00000000000E+00 0.  1.
         24    1    1    2    0    0  0.62896253889E+02  0.36472267521E+02  0.25923394826E+02  0.11146929355E+03  0.80419002446E+02 0. -1.
          1    1    1    2  501    0 -0.82345730744E+02 -0.28025508877E+02  0.85215068106E+02  0.12176968569E+03  0.00000000000E+00 0. -1.
         -2    1    1    2    0  503  0.19449476855E+02 -0.84467586437E+01 -0.45833914507E+02  0.50501263356E+02  0.00000000000E+00 0.  1.
<mgrwt>
<rscale>  2 0.10830084E+03</rscale>
<asrwt>0</asrwt>
<pdfrwt beam="1">  1       21 0.26849599E-01 0.10830084E+03</pdfrwt>
<pdfrwt beam="2">  1       21 0.16802746E-01 0.10830084E+03</pdfrwt>
<totfact> 0.42604859E+05</totfact>
</mgrwt>
</event>
<event>
 5    1  0.2051810E+000  0.1144064E+03  0.7546771E-02  0.1252621E+00
         21   -1    0    0  501  502  0.00000000000E+00  0.00000000000E+00  0.51432373400E+03  0.51432373400E+03  0.00000000000E+00 0.  1.
         21   -1    0    0  502  503 -0.00000000000E+00 -0.00000000000E+00 -0.39861423160E+02  0.39861423160E+02  0.00000000000E+00 0.  1.
         24    1    1    2    0    0 -0.89740758951E+02 -0.13532189847E+02  0.37486227681E+03  0.39398663239E+03  0.80419002446E+02 0.  1.
          1    1    1    2  501    0  0.73419640429E+02 -0.14762817830E+02  0.10301074387E+03  0.12735618455E+03  0.00000000000E+00 0. -1.
         -2    1    1    2    0  503  0.16321118522E+02  0.28295007677E+02 -0.34107098344E+01  0.32842340215E+02  0.00000000000E+00 0.  1.
<mgrwt>
<rscale>  2 0.11440644E+03</rscale>
<asrwt>0</asrwt>
<pdfrwt beam="1">  1       21 0.79126724E-01 0.11440644E+03</pdfrwt>
<pdfrwt beam="2">  1       21 0.61325270E-02 0.11440644E+03</pdfrwt>
<totfact> 0.27307774E+05</totfact>
</mgrwt>
</event>
<event>
 5    1  0.2051810E+000  0.7038433E+02  0.7546771E-02  0.1358791E+00
         21   -1    0    0  503  502  0.00000000000E+00  0.00000000000E+00  0.77406946919E+03  0.77406946919E+03  0.00000000000E+00 0.  1.
         21   -1    0    0  501  503 -0.00000000000E+00 -0.00000000000E+00 -0.69984904148E+01  0.69984904148E+01  0.00000000000E+00 0. -1.
         24    1    1    2    0    0 -0.12940962914E+02  0.36920566789E+01  0.46381783838E+03  0.47093025275E+03  0.80419002446E+02 0.  1.
          1    1    1    2  501    0 -0.76986818343E+01  0.23708503498E+02  0.68563521793E+02  0.72954227847E+02  0.00000000000E+00 0. -1.
         -2    1    1    2    0  502  0.20639644749E+02 -0.27400560177E+02  0.23468961861E+03  0.23718347901E+03  0.00000000000E+00 0.  1.
<mgrwt>
<rscale>  2 0.70384332E+02</rscale>
<asrwt>0</asrwt>
<pdfrwt beam="1">  1       21 0.11908754E+00 0.70384332E+02</pdfrwt>
<pdfrwt beam="2">  1       21 0.10766914E-02 0.70384332E+02</pdfrwt>
<totfact> 0.17826873E+06</totfact>
</mgrwt>
</event>
<event>
 5    1  0.2051810E+000  0.8069457E+02  0.7546771E-02  0.1327092E+00
         21   -1    0    0  503  502  0.00000000000E+00  0.00000000000E+00  0.49590707563E+03  0.49590707563E+03  0.00000000000E+00 0.  1.
         21   -1    0    0  501  503 -0.00000000000E+00 -0.00000000000E+00 -0.54290402106E+02  0.54290402106E+02  0.00000000000E+00 0. -1.
         24    1    1    2    0    0  0.42280109646E+02  0.45719102084E+01  0.95749002287E+02  0.13207421182E+03  0.80419002446E+02 0.  0.
          1    1    1    2  501    0 -0.47936531207E+02  0.14854211196E+02 -0.18282314431E+02  0.53411624534E+02  0.00000000000E+00 0. -1.
         -2    1    1    2    0  502  0.56564215611E+01 -0.19426121405E+02  0.36414998567E+03  0.36471164139E+03  0.00000000000E+00 0.  1.
<mgrwt>
<rscale>  2 0.80694568E+02</rscale>
<asrwt>0</asrwt>
<pdfrwt beam="1">  1       21 0.76293393E-01 0.80694568E+02</pdfrwt>
<pdfrwt beam="2">  1       21 0.83523699E-02 0.80694568E+02</pdfrwt>
<totfact> 0.17683790E+05</totfact>
</mgrwt>
</event>
<event>
 5    1  0.2051810E+000  0.8731073E+02  0.7546771E-02  0.1309498E+00
         21   -1    0    0  501  502  0.00000000000E+00  0.00000000000E+00  0.20193495187E+03  0.20193495187E+03  0.00000000000E+00 0.  1.
         21   -1    0    0  502  503 -0.00000000000E+00 -0.00000000000E+00 -0.51960554574E+02  0.51960554574E+02  0.00000000000E+00 0. -1.
         24    1    1    2    0    0  0.37791125570E+02  0.41228219982E+02  0.11690734713E+03  0.15252042179E+03  0.80419002446E+02 0.  1.
          1    1    1    2  501    0 -0.33770441571E+01 -0.42106132142E+02  0.47921976308E+02  0.63881504400E+02  0.00000000000E+00 0. -1.
         -2    1    1    2    0  503 -0.34414081413E+02  0.87791215944E+00 -0.14854926148E+02  0.37493580252E+02  0.00000000000E+00 0.  1.
<mgrwt>
<rscale>  2 0.87310730E+02</rscale>
<asrwt>0</asrwt>
<pdfrwt beam="1">  1       21 0.31066915E-01 0.87310730E+02</pdfrwt>
<pdfrwt beam="2">  1       21 0.79939316E-02 0.87310730E+02</pdfrwt>
<totfact> 0.11869500E+06</totfact>
</mgrwt>
</event>
<event>
 5    1  0.2051810E+000  0.7542060E+02  0.7546771E-02  0.1342573E+00
         21   -1    0    0  501  502  0.00000000000E+00  0.00000000000E+00  0.22438162356E+03  0.22438162356E+03  0.00000000000E+00 0.  1.
         21   -1    0    0  502  503 -0.00000000000E+00 -0.00000000000E+00 -0.30763908453E+02  0.30763908453E+02  0.00000000000E+00 0. -1.
         24    1    1    2    0    0  0.33948639256E+02  0.28132956726E+02  0.15415709179E+03  0.17937557878E+03  0.80419002446E+02 0.  1.
          1    1    1    2  501    0 -0.86679368022E+01 -0.32356654774E+02  0.37169631207E+02  0.50036663764E+02  0.00000000000E+00 0. -1.
         -2    1    1    2    0  503 -0.25280702453E+02  0.42236980479E+01  0.22909921117E+01  0.25733289463E+02  0.00000000000E+00 0.  1.
<mgrwt>
<rscale>  2 0.75420598E+02</rscale>
<asrwt>0</asrwt>
<pdfrwt beam="1">  1       21 0.34520249E-01 0.75420598E+02</pdfrwt>
<pdfrwt beam="2">  1       21 0.47329091E-02 0.75420598E+02</pdfrwt>
<totfact> 0.23233114E+06</totfact>
</mgrwt>
</event>
<event>
 5    1  0.2051810E+000  0.2813666E+03  0.7546771E-02  0.1094945E+00
         21   -1    0    0  501  502  0.00000000000E+00  0.00000000000E+00  0.60116312229E+02  0.60116312229E+02  0.00000000000E+00 0.  1.
         21   -1    0    0  502  503 -0.00000000000E+00 -0.00000000000E+00 -0.15024699478E+04  0.15024699478E+04  0.00000000000E+00 0.  1.
         24    1    1    2    0    0 -0.68288833735E+02  0.26701428459E+03 -0.93787931641E+03  0.98083883543E+03  0.80419002446E+02 0.  1.
          1    1    1    2  501    0  0.10307588378E+02 -0.45746067146E+02 -0.31867839726E+02  0.56696633465E+02  0.00000000000E+00 0. -1.
         -2    1    1    2    0  503  0.57981245357E+02 -0.22126821745E+03 -0.47260647948E+03  0.52505079117E+03  0.00000000000E+00 0.  1.
<mgrwt>
<rscale>  2 0.28136658E+03</rscale>
<asrwt>0</asrwt>
<pdfrwt beam="1">  1       21 0.92486642E-02 0.28136658E+03</pdfrwt>
<pdfrwt beam="2">  1       21 0.23114920E+00 0.28136658E+03</pdfrwt>
<totfact> 0.74715033E+03</totfact>
</mgrwt>
</event>
<event>
 5    1  0.2051810E+000  0.9805731E+02  0.7546771E-02  0.1284435E+00
         21   -1    0    0  501  502  0.00000000000E+00  0.00000000000E+00  0.17366394840E+02  0.17366394840E+02  0.00000000000E+00 0. -1.
         21   -1    0    0  502  503 -0.00000000000E+00 -0.00000000000E+00 -0.12391520539E+04  0.12391520539E+04  0.00000000000E+00 0. -1.
         24    1    1    2    0    0  0.17125882644E+02  0.72742654281E+02 -0.10263668285E+04  0.10322213291E+04  0.80419002446E+02 0. -1.
          1    1    1    2  501    0 -0.30047549144E+02 -0.33419792001E+02 -0.30623719875E+02  0.54383360745E+02  0.00000000000E+00 0. -1.
         -2    1    1    2    0  503  0.12921666500E+02 -0.39322862280E+02 -0.16479511066E+03  0.16991375889E+03  0.00000000000E+00 0.  1.
<mgrwt>
<rscale>  2 0.98057314E+02</rscale>
<asrwt>0</asrwt>
<pdfrwt beam="1">  1       21 0.26717526E-02 0.98057314E+02</pdfrwt>
<pdfrwt beam="2">  1       21 0.19063881E+00 0.98057314E+02</pdfrwt>
<totfact> 0.12536611E+05</totfact>
</mgrwt>
</event>
<event>
 5    1  0.2051810E+000  0.7566787E+02  0.7546771E-02  0.1341815E+00
         21   -1    0    0  503  502  0.00000000000E+00  0.00000000000E+00  0.23295614916E+03  0.23295614916E+03  0.00000000000E+00 0.  1.
         21   -1    0    0  501  503 -0.00000000000E+00 -0.00000000000E+00 -0.20801680421E+03  0.20801680421E+03  0.00000000000E+00 0. -1.
         24    1    1    2    0    0 -0.21486919051E+02  0.77792156812E+00 -0.14892226511E+03  0.17060876253E+03  0.80419002446E+02 0. -1.
          1    1    1    2  501    0  0.60789968311E+01  0.31629456713E+02 -0.41219161352E+02  0.52310572517E+02  0.00000000000E+00 0. -1.
         -2    1    1    2    0  502  0.15407922220E+02 -0.32407378281E+02  0.21508077141E+03  0.21805361832E+03  0.00000000000E+00 0.  1.
<mgrwt>
<rscale>  2 0.75667868E+02</rscale>
<asrwt>0</asrwt>
<pdfrwt beam="1">  1       21 0.35839407E-01 0.75667868E+02</pdfrwt>
<pdfrwt beam="2">  1       21 0.32002585E-01 0.75667868E+02</pdfrwt>
<totfact> 0.74746446E+04</totfact>
</mgrwt>
</event>
<event>
 5    1  0.2051810E+000  0.7225061E+02  0.7546771E-02  0.1352603E+00
         21   -1    0    0  501  502  0.00000000000E+00  0.00000000000E+00  0.32836659966E+02  0.32836659966E+02  0.00000000000E+00 0.  1.
         21   -1    0    0  502  503 -0.00000000000E+00 -0.00000000000E+00 -0.18192834636E+03  0.18192834636E+03  0.00000000000E+00 0. -1.
         24    1    1    2    0    0  0.32678124491E+02  0.36532568027E+02 -0.70390128219E+02  0.11757752528E+03  0.80419002446E+02 0.  1.
          1    1    1    2  501    0 -0.14632170723E+02 -0.24808493810E+02 -0.21119408331E+02  0.35715419547E+02  0.00000000000E+00 0. -1.
         -2    1    1    2    0  503 -0.18045953767E+02 -0.11724074217E+02 -0.57582149842E+02  0.61472061492E+02  0.00000000000E+00 0.  1.
<mgrwt>
<rscale>  2 0.72250610E+02</rscale>
<asrwt>0</asrwt>
<pdfrwt beam="1">  1       21 0.50517939E-02 0.72250610E+02</pdfrwt>
<pdfrwt beam="2">  1       21 0.27988976E-01 0.72250610E+02</pdfrwt>
<totfact> 0.31035049E+06</totfact>
</mgrwt>
</event>
<event>
 5    1  0.2051810E+000  0.8006878E+02  0.7546771E-02  0.1328856E+00
         21   -1    0    0  501  502  0.00000000000E+00  0.00000000000E+00  0.10220555471E+04  0.10220555471E+04  0.00000000000E+00 0.  1.
         21   -1    0    0  502  503 -0.00000000000E+00 -0.00000000000E+00 -0.82379629503E+01  0.82379629503E+01  0.00000000000E+00 0.  1.
         24    1    1    2    0    0  0.66356987422E+01  0.38189140510E+02  0.78379163385E+03  0.78885929303E+03  0.80419002446E+02 0.  1.
          1    1    1    2  501    0 -0.28295453635E+02 -0.15944928149E+01  0.12402229397E+03  0.12721912004E+03  0.00000000000E+00 0. -1.
         -2    1    1    2    0  503  0.21659754892E+02 -0.36594647695E+02  0.10600365634E+03  0.11421509698E+03  0.00000000000E+00 0.  1.
<mgrwt>
<rscale>  2 0.80068778E+02</rscale>
<asrwt>0</asrwt>
<pdfrwt beam="1">  1       21 0.15723921E+00 0.80068778E+02</pdfrwt>
<pdfrwt beam="2">  1       21 0.12673797E-02 0.80068778E+02</pdfrwt>
<totfact> 0.69593465E+05</totfact>
</mgrwt>
</event>
<event>
 5    1  0.2051810E+000  0.6639151E+02  0.7546771E-02  0.1372812E+00
         21   -1    0    0  501  502  0.00000000000E+00  0.00000000000E+00  0.16555803694E+02  0.16555803694E+02  0.00000000000E+00 0. -1.
         21   -1    0    0  502  503 -0.00000000000E+00 -0.00000000000E+00 -0.33422700604E+03  0.33422700604E+03  0.00000000000E+00 0. -1.
         24    1    1    2    0    0 -0.11875995065E+02  0.11996472357E+02 -0.18466024787E+03  0.20211773229E+03  0.80419002446E+02 0. -1.
          1    1    1    2  501    0  0.13564375372E+01 -0.29854528870E+02 -0.25837157631E+02  0.39505588609E+02  0.00000000000E+00 0. -1.
         -2    1    1    2    0  503  0.10519557528E+02  0.17858056513E+02 -0.10717379684E+03  0.10915948884E+03  0.00000000000E+00 0.  1.
<mgrwt>
<rscale>  2 0.66391511E+02</rscale>
<asrwt>0</asrwt>
<pdfrwt beam="1">  1       21 0.25470468E-02 0.66391511E+02</pdfrwt>
<pdfrwt beam="2">  1       21 0.51419538E-01 0.66391511E+02</pdfrwt>
<totfact> 0.28713707E+06</totfact>
</mgrwt>
</event>
<event>
 5    1  0.2051810E+000  0.6477847E+02  0.7546771E-02  0.1378807E+00
         21   -1    0    0  503  502  0.00000000000E+00  0.00000000000E+00  0.54311758602E+03  0.54311758602E+03  0.00000000000E+00 0.  1.
         21   -1    0    0  501  503 -0.00000000000E+00 -0.00000000000E+00 -0.32966732440E+02  0.32966732440E+02  0.00000000000E+00 0.  1.
         24    1    1    2    0    0 -0.32947623433E+01  0.39967955914E+00  0.61351412958E+02  0.10120388841E+03  0.80419002446E+02 0.  1.
          1    1    1    2  501    0 -0.20829728022E+02  0.96238631486E+01 -0.22678201860E+01  0.23057305128E+02  0.00000000000E+00 0. -1.
         -2    1    1    2    0  502  0.24124490365E+02 -0.10023542708E+02  0.45106726081E+03  0.45182312492E+03  0.00000000000E+00 0.  1.
<mgrwt>
<rscale>  2 0.64778475E+02</rscale>
<asrwt>0</asrwt>
<pdfrwt beam="1">  1       21 0.83556545E-01 0.64778475E+02</pdfrwt>
<pdfrwt beam="2">  1       21 0.50718054E-02 0.64778475E+02</pdfrwt>
<totfact> 0.33601485E+05</totfact>
</mgrwt>
</event>
<event>
 5    1  0.2051810E+000  0.1140810E+03  0.7546771E-02  0.1253194E+00
         21   -1    0    0  501  502  0.00000000000E+00  0.00000000000E+00  0.58702784073E+02  0.58702784073E+02  0.00000000000E+00 0. -1.
         21   -1    0    0  502  503 -0.00000000000E+00 -0.00000000000E+00 -0.30302381738E+03  0.30302381738E+03  0.00000000000E+00 0.  1.
         24    1    1    2    0    0  0.52977767106E+02  0.32255894646E+02 -0.30601367619E+02  0.10606953475E+03  0.80419002446E+02 0. -1.
          1    1    1    2  501    0  0.27082746658E+02 -0.37629152378E+02 -0.30114601862E+02  0.55283971642E+02  0.00000000000E+00 0. -1.
         -2    1    1    2    0  503 -0.80060513764E+02  0.53732577315E+01 -0.18360506382E+03  0.20037309506E+03  0.00000000000E+00 0.  1.
<mgrwt>
<rscale>  2 0.11408095E+03</rscale>
<asrwt>0</asrwt>
<pdfrwt beam="1">  1       21 0.90311975E-02 0.11408095E+03</pdfrwt>
<pdfrwt beam="2">  1       21 0.46619049E-01 0.11408095E+03</pdfrwt>
<totfact> 0.43283372E+05</totfact>
</mgrwt>
</event>
<event>
 5    1  0.2051810E+000  0.8051978E+02  0.7546771E-02  0.1327583E+00
         21   -1    0    0  501  502  0.00000000000E+00  0.00000000000E+00  0.17636408041E+03  0.17636408041E+03  0.00000000000E+00 0.  1.
         21   -1    0    0  502  503 -0.00000000000E+00 -0.00000000000E+00 -0.57488736215E+02  0.57488736215E+02  0.00000000000E+00 0. -1.
         24    1    1    2    0    0  0.38459251561E+01 -0.57217985675E+02  0.25917425853E+02  0.10211570860E+03  0.80419002446E+02 0. -1.
          1    1    1    2  501    0 -0.12950736437E+02  0.19095556944E+02  0.89459099079E+02  0.92386645557E+02  0.00000000000E+00 0. -1.
         -2    1    1    2    0  503  0.91048112807E+01  0.38122428731E+02  0.34988192673E+01  0.39350462476E+02  0.00000000000E+00 0.  1.
<mgrwt>
<rscale>  2 0.80519780E+02</rscale>
<asrwt>0</asrwt>
<pdfrwt beam="1">  1       21 0.27132935E-01 0.80519780E+02</pdfrwt>
<pdfrwt beam="2">  1       21 0.88444210E-02 0.80519780E+02</pdfrwt>
<totfact> 0.12883334E+06</totfact>
</mgrwt>
</event>
<event>
 5    1  0.2051810E+000  0.2696903E+03  0.7546771E-02  0.1101457E+00
         21   -1    0    0  503  502  0.00000000000E+00  0.00000000000E+00  0.31684826442E+03  0.31684826442E+03  0.00000000000E+00 0.  1.
         21   -1    0    0  501  503 -0.00000000000E+00 -0.00000000000E+00 -0.37805021459E+03  0.37805021459E+03  0.00000000000E+00 0. -1.
         24    1    1    2    0    0 -0.35645526109E+02  0.20780681336E+03  0.23525014735E+02  0.22688084424E+03  0.80419002446E+02 0.  1.
          1    1    1    2  501    0 -0.73450045392E+02  0.59962880900E+01 -0.19159095433E+03  0.20527532346E+03  0.00000000000E+00 0. -1.
         -2    1    1    2    0  502  0.10909557150E+03 -0.21380310145E+03  0.10686398943E+03  0.26274231130E+03  0.00000000000E+00 0.  1.
<mgrwt>
<rscale>  2 0.26969033E+03</rscale>
<asrwt>0</asrwt>
<pdfrwt beam="1">  1       21 0.48745887E-01 0.26969033E+03</pdfrwt>
<pdfrwt beam="2">  1       21 0.58161571E-01 0.26969033E+03</pdfrwt>
<totfact> 0.10632127E+04</totfact>
</mgrwt>
</event>
<event>
 5    1  0.2051810E+000  0.1027102E+03  0.7546771E-02  0.1274698E+00
         21   -1    0    0  503  502  0.00000000000E+00  0.00000000000E+00  0.27708835724E+03  0.27708835724E+03  0.00000000000E+00 0.  1.
         21   -1    0    0  501  503 -0.00000000000E+00 -0.00000000000E+00 -0.41568946960E+02  0.41568946960E+02  0.00000000000E+00 0. -1.
         24    1    1    2    0    0 -0.60711289585E+02  0.28869304136E+02  0.14225983551E+03  0.17670419960E+03  0.80419002446E+02 0.  0.
          1    1    1    2  501    0 -0.70941417422E-01 -0.38985451396E+02  0.13700554956E+02  0.41322822499E+02  0.00000000000E+00 0. -1.
         -2    1    1    2    0  502  0.60782231003E+02  0.10116147260E+02  0.79559019822E+02  0.10063028210E+03  0.00000000000E+00 0.  1.
<mgrwt>
<rscale>  2 0.10271020E+03</rscale>
<asrwt>0</asrwt>
<pdfrwt beam="1">  1       21 0.42628977E-01 0.10271020E+03</pdfrwt>
<pdfrwt beam="2">  1       21 0.63952228E-02 0.10271020E+03</pdfrwt>
<totfact> 0.93608146E+05</totfact>
</mgrwt>
</event>
<event>
 5    1  0.2051810E+000  0.7482963E+02  0.7546771E-02  0.1344399E+00
         21   -1    0    0  501  502  0.00000000000E+00  0.00000000000E+00  0.34756132985E+03  0.34756132985E+03  0.00000000000E+00 0. -1.
         21   -1    0    0  502  503 -0.00000000000E+00 -0.00000000000E+00 -0.24834872883E+02  0.24834872883E+02  0.00000000000E+00 0.  1.
         24    1    1    2    0    0 -0.19551777084E+02 -0.11842822503E+02  0.17535980764E+03  0.19426992182E+03  0.80419002446E+02 0. -1.
          1    1    1    2  501    0  0.34646980841E+02  0.27553295851E+02  0.14979975242E+03  0.15620359541E+03  0.00000000000E+00 0. -1.
         -2    1    1    2    0  503 -0.15095203757E+02 -0.15710473348E+02 -0.24331030939E+01  0.21922685509E+02  0.00000000000E+00 0.  1.
<mgrwt>
<rscale>  2 0.74829627E+02</rscale>
<asrwt>0</asrwt>
<pdfrwt beam="1">  1       21 0.53470970E-01 0.74829627E+02</pdfrwt>
<pdfrwt beam="2">  1       21 0.38207499E-02 0.74829627E+02</pdfrwt>
<totfact> 0.13831369E+06</totfact>
</mgrwt>
</event>
<event>
 5    1  0.2051810E+000  0.6446857E+02  0.7546771E-02  0.1379982E+00
         21   -1    0    0  501  502  0.00000000000E+00  0.00000000000E+00  0.64318413050E+02  0.64318413050E+02  0.00000000000E+00 0.  1.
         21   -1    0    0  502  503 -0.00000000000E+00 -0.00000000000E+00 -0.86106071054E+02  0.86106071054E+02  0.00000000000E+00 0. -1.
         24    1    1    2    0    0 -0.58266538012E+01 -0.30544370556E+01  0.20534958565E+02  0.83259713895E+02  0.80419002446E+02 0.  1.
          1    1    1    2  501    0 -0.19869269169E+02 -0.63921468525E+01 -0.60716577489E+01  0.21737350954E+02  0.00000000000E+00 0. -1.
         -2    1    1    2    0  503  0.25695922970E+02  0.94465839081E+01 -0.36250958819E+02  0.45427419255E+02  0.00000000000E+00 0.  1.
<mgrwt>
<rscale>  2 0.64468571E+02</rscale>
<asrwt>0</asrwt>
<pdfrwt beam="1">  1       21 0.98951405E-02 0.64468571E+02</pdfrwt>
<pdfrwt beam="2">  1       21 0.13247088E-01 0.64468571E+02</pdfrwt>
<totfact> 0.38506327E+06</totfact>
</mgrwt>
</event>
<event>
 5    1  0.2051810E+000  0.8174853E+02  0.7546771E-02  0.1324161E+00
         21   -1    0    0  501  502  0.00000000000E+00  0.00000000000E+00  0.32450087192E+03  0.32450087192E+03  0.00000000000E+00 0. -1.
         21   -1    0    0  502  503 -0.00000000000E+00 -0.00000000000E+00 -0.11453650228E+03  0.11453650228E+03  0.00000000000E+00 0. -1.
         24    1    1    2    0    0  0.48217798564E+02 -0.11800896570E+02 -0.63248595202E+02  0.11371815162E+03  0.80419002446E+02 0. -1.
          1    1    1    2  501    0 -0.42329832053E+02 -0.12380260347E+02  0.29125791218E+03  0.29457809989E+03  0.00000000000E+00 0. -1.
         -2    1    1    2    0  503 -0.58879665112E+01  0.24181156917E+02 -0.18044947341E+02  0.30741122686E+02  0.00000000000E+00 0.  1.
<mgrwt>
<rscale>  2 0.81748531E+02</rscale>
<asrwt>0</asrwt>
<pdfrwt beam="1">  1       21 0.49923211E-01 0.81748531E+02</pdfrwt>
<pdfrwt beam="2">  1       21 0.17621000E-01 0.81748531E+02</pdfrwt>
<totfact> 0.11667608E+05</totfact>
</mgrwt>
</event>
<event>
 5    1  0.2753080E+000  0.1539175E+03  0.7546771E-02  0.1195740E+00
         21   -1    0    0  503  502  0.00000000000E+00  0.00000000000E+00  0.91987615671E+02  0.91987615671E+02  0.00000000000E+00 0.  1.
         21   -1    0    0  501  503 -0.00000000000E+00 -0.00000000000E+00 -0.41952188965E+03  0.41952188965E+03  0.00000000000E+00 0. -1.
         24    1    1    2    0    0  0.34485528024E+02  0.37363071709E+02 -0.64004214429E+02  0.11466911611E+03  0.80419002446E+02 0. -1.
          1    1    1    2  501    0 -0.89108335885E+02 -0.97069381912E+02 -0.28425071201E+03  0.31330692253E+03  0.00000000000E+00 0. -1.
         -2    1    1    2    0  502  0.54622807861E+02  0.59706310204E+02  0.20720652460E+02  0.83533466677E+02  0.00000000000E+00 0.  1.
<mgrwt>
<rscale>  2 0.15391752E+03</rscale>
<asrwt>0</asrwt>
<pdfrwt beam="1">  1       21 0.14151941E-01 0.15391752E+03</pdfrwt>
<pdfrwt beam="2">  1       21 0.64541828E-01 0.15391752E+03</pdfrwt>
<totfact> 0.98011265E+04</totfact>
</mgrwt>
</event>
<event>
 5    1  0.2051810E+000  0.9222956E+02  0.7546771E-02  0.1297541E+00
         21   -1    0    0  503  502  0.00000000000E+00  0.00000000000E+00  0.75888345182E+02  0.75888345182E+02  0.00000000000E+00 0. -1.
         21   -1    0    0  501  503 -0.00000000000E+00 -0.00000000000E+00 -0.12660348256E+03  0.12660348256E+03  0.00000000000E+00 0. -1.
         24    1    1    2    0    0  0.41402415637E+02  0.34810767753E+02 -0.39801177588E+01  0.97000035381E+02  0.80419002446E+02 0. -1.
          1    1    1    2  501    0 -0.85158716774E+01 -0.50422645796E+02 -0.46454300944E+02  0.69086651067E+02  0.00000000000E+00 0. -1.
         -2    1    1    2    0  502 -0.32886543960E+02  0.15611878043E+02 -0.28071867420E+00  0.36405141294E+02  0.00000000000E+00 0.  1.
<mgrwt>
<rscale>  2 0.92229558E+02</rscale>
<asrwt>0</asrwt>
<pdfrwt beam="1">  1       21 0.11675130E-01 0.92229558E+02</pdfrwt>
<pdfrwt beam="2">  1       21 0.19477459E-01 0.92229558E+02</pdfrwt>
<totfact> 0.14781491E+06</totfact>
</mgrwt>
</event>
<event>
 5    1  0.2051810E+000  0.8613189E+02  0.7546771E-02  0.1312499E+00
         21   -1    0    0  503  502  0.00000000000E+00  0.00000000000E+00  0.13792363215E+04  0.13792363215E+04  0.00000000000E+00 0.  1.
         21   -1    0    0  501  503 -0.00000000000E+00 -0.00000000000E+00 -0.75364458338E+01  0.75364458338E+01  0.00000000000E+00 0.  1.
         24    1    1    2    0    0  0.50138683945E+02 -0.29257014348E+02  0.11216509285E+04  0.11260274783E+04  0.80419002446E+02 0.  1.
          1    1    1    2  501    0 -0.31058152101E+02 -0.72464457510E+01  0.90095250037E+02  0.95573395185E+02  0.00000000000E+00 0. -1.
         -2    1    1    2    0  502 -0.19080531844E+02  0.36503460099E+02  0.15995369720E+03  0.16517189393E+03  0.00000000000E+00 0.  1.
<mgrwt>
<rscale>  2 0.86131892E+02</rscale>
<asrwt>0</asrwt>
<pdfrwt beam="1">  1       21 0.21219000E+00 0.86131892E+02</pdfrwt>
<pdfrwt beam="2">  1       21 0.11594543E-02 0.86131892E+02</pdfrwt>
<totfact> 0.35258103E+05</totfact>
</mgrwt>
</event>
<event>
 5    1  0.2051810E+000  0.7057588E+02  0.7546771E-02  0.1358146E+00
         21   -1    0    0  503  502  0.00000000000E+00  0.00000000000E+00  0.28725899998E+02  0.28725899998E+02  0.00000000000E+00 0.  1.
         21   -1    0    0  501  503 -0.00000000000E+00 -0.00000000000E+00 -0.22392798233E+04  0.22392798233E+04  0.00000000000E+00 0. -1.
         24    1    1    2    0    0 -0.26018260324E+02 -0.22927772745E+02 -0.64497135244E+03  0.65089007832E+03  0.80419002446E+02 0.  0.
          1    1    1    2  501    0  0.28523754829E+01  0.29386575729E+02 -0.15855699032E+04  0.15858447669E+04  0.00000000000E+00 0. -1.
         -2    1    1    2    0  502  0.23165884841E+02 -0.64588029844E+01  0.19987332369E+02  0.31270878013E+02  0.00000000000E+00 0.  1.
<mgrwt>
<rscale>  2 0.70575885E+02</rscale>
<asrwt>0</asrwt>
<pdfrwt beam="1">  1       21 0.44193692E-02 0.70575885E+02</pdfrwt>
<pdfrwt beam="2">  1       21 0.34450459E+00 0.70575885E+02</pdfrwt>
<totfact> 0.78848586E+03</totfact>
</mgrwt>
</event>
<event>
 5    1  0.2051810E+000  0.8820805E+02  0.7546771E-02  0.1307250E+00
         21   -1    0    0  501  502  0.00000000000E+00  0.00000000000E+00  0.91375777132E+03  0.91375777132E+03  0.00000000000E+00 0. -1.
         21   -1    0    0  502  503 -0.00000000000E+00 -0.00000000000E+00 -0.23109819031E+02  0.23109819031E+02  0.00000000000E+00 0. -1.
         24    1    1    2    0    0  0.59603427575E+02  0.94229220419E+01  0.26763300032E+03  0.28589508365E+03  0.80419002446E+02 0. -1.
          1    1    1    2  501    0 -0.29275664121E+02 -0.27834379289E+02  0.61269208116E+03  0.61402231515E+03  0.00000000000E+00 0. -1.
         -2    1    1    2    0  503 -0.30327763455E+02  0.18411457247E+02  0.10322870800E+02  0.36950191551E+02  0.00000000000E+00 0.  1.
<mgrwt>
<rscale>  2 0.88208054E+02</rscale>
<asrwt>0</asrwt>
<pdfrwt beam="1">  1       21 0.14057809E+00 0.88208054E+02</pdfrwt>
<pdfrwt beam="2">  1       21 0.35553575E-02 0.88208054E+02</pdfrwt>
<totfact> 0.17672754E+05</totfact>
</mgrwt>
</event>
<event>
 5    1  0.2051810E+000  0.6840070E+02  0.7546771E-02  0.1365618E+00
         21   -1    0    0  503  502  0.00000000000E+00  0.00000000000E+00  0.58092996649E+03  0.58092996649E+03  0.00000000000E+00 0. -1.
         21   -1    0    0  501  503 -0.00000000000E+00 -0.00000000000E+00 -0.89935055765E+01  0.89935055765E+01  0.00000000000E+00 0. -1.
         24    1    1    2    0    0 -0.10288226000E+02 -0.16128889801E+02  0.34200871413E+03  0.35185673956E+03  0.80419002446E+02 0. -1.
          1    1    1    2  501    0 -0.79294498177E+01  0.30133720074E+02  0.71684797033E+02  0.78164105480E+02  0.00000000000E+00 0. -1.
         -2    1    1    2    0  502  0.18217675818E+02 -0.14004830273E+02  0.15824294975E+03  0.15990262703E+03  0.00000000000E+00 0.  1.
<mgrwt>
<rscale>  2 0.68400704E+02</rscale>
<asrwt>0</asrwt>
<pdfrwt beam="1">  1       21 0.89373812E-01 0.68400704E+02</pdfrwt>
<pdfrwt beam="2">  1       21 0.13836167E-02 0.68400704E+02</pdfrwt>
<totfact> 0.23324743E+06</totfact>
</mgrwt>
</event>
<event>
 5    1  0.2051810E+000  0.7090824E+02  0.7546771E-02  0.1357031E+00
         21   -1    0    0  503  502  0.00000000000E+00  0.00000000000E+00  0.74948316663E+03  0.74948316663E+03  0.00000000000E+00 0.  1.
         21   -1    0    0  501  503 -0.00000000000E+00 -0.00000000000E+00 -0.18135289679E+02  0.18135289679E+02  0.00000000000E+00 0.  1.
         24    1    1    2    0    0  0.29904724611E+02 -0.27728437615E+02  0.24565679407E+03  0.26168231739E+03  0.80419002446E+02 0.  1.
          1    1    1    2  501    0 -0.27654931712E+02  0.41526214354E+01  0.10065457033E+02  0.29721253979E+02  0.00000000000E+00 0. -1.
         -2    1    1    2    0  502 -0.22497928985E+01  0.23575816179E+02  0.47562562584E+03  0.47621488494E+03  0.00000000000E+00 0.  1.
<mgrwt>
<rscale>  2 0.70908240E+02</rscale>
<asrwt>0</asrwt>
<pdfrwt beam="1">  1       21 0.11530508E+00 0.70908240E+02</pdfrwt>
<pdfrwt beam="2">  1       21 0.27900451E-02 0.70908240E+02</pdfrwt>
<totfact> 0.42658375E+05</totfact>
</mgrwt>
</event>
<event>
 5    1  0.2051810E+000  0.1303594E+03  0.7546771E-02  0.1226923E+00
         21   -1    0    0  501  502  0.00000000000E+00  0.00000000000E+00  0.45461663693E+02  0.45461663693E+02  0.00000000000E+00 0. -1.
         21   -1    0    0  502  503 -0.00000000000E+00 -0.00000000000E+00 -0.60885026096E+03  0.60885026096E+03  0.00000000000E+00 0. -1.
         24    1    1    2    0    0 -0.48055915544E+02 -0.10701466149E+03 -0.14339105320E+03  0.20196464761E+03  0.80419002446E+02 0. -1.
          1    1    1    2  501    0  0.43143521788E+02  0.78667287595E+02 -0.11434314158E+03  0.14534187159E+03  0.00000000000E+00 0. -1.
         -2    1    1    2    0  503  0.49123937560E+01  0.28347373894E+02 -0.30565440249E+03  0.30700540545E+03  0.00000000000E+00 0.  1.
<mgrwt>
<rscale>  2 0.13035943E+03</rscale>
<asrwt>0</asrwt>
<pdfrwt beam="1">  1       21 0.69941021E-02 0.13035943E+03</pdfrwt>
<pdfrwt beam="2">  1       21 0.93669271E-01 0.13035943E+03</pdfrwt>
<totfact> 0.14830795E+05</totfact>
</mgrwt>
</event>
<event>
 5    1  0.2051810E+000  0.6753662E+02  0.7546771E-02  0.1368676E+00
         21   -1    0    0  501  502  0.00000000000E+00  0.00000000000E+00  0.27600792636E+03  0.27600792636E+03  0.00000000000E+00 0.  1.
         21   -1    0    0  502  503 -0.00000000000E+00 -0.00000000000E+00 -0.53170011053E+02  0.53170011053E+02  0.00000000000E+00 0. -1.
         24    1    1    2    0    0  0.60131054678E+01  0.29671132440E+00  0.89863620150E+02  0.12074324683E+03  0.80419002446E+02 0.  1.
          1    1    1    2  501    0 -0.11440722025E+02 -0.25869687419E+02  0.16482185282E+03  0.16723149827E+03  0.00000000000E+00 0. -1.
         -2    1    1    2    0  503  0.54276165569E+01  0.25572976095E+02 -0.31847557658E+02  0.41203192311E+02  0.00000000000E+00 0.  1.
<mgrwt>
<rscale>  2 0.67536619E+02</rscale>
<asrwt>0</asrwt>
<pdfrwt beam="1">  1       21 0.42462757E-01 0.67536619E+02</pdfrwt>
<pdfrwt beam="2">  1       21 0.81800018E-02 0.67536619E+02</pdfrwt>
<totfact> 0.61846066E+05</totfact>
</mgrwt>
</event>
<event>
 5    1  0.2051810E+000  0.7504411E+02  0.7546771E-02  0.1343735E+00
         21   -1    0    0  501  502  0.00000000000E+00  0.00000000000E+00  0.27778065541E+03  0.27778065541E+03  0.00000000000E+00 0. -1.
         21   -1    0    0  502  503 -0.00000000000E+00 -0.00000000000E+00 -0.22345690442E+02  0.22345690442E+02  0.00000000000E+00 0.  1.
         24    1    1    2    0    0  0.30910281195E+02  0.10687126003E+02  0.10854112713E+03  0.13898939664E+03  0.80419002446E+02 0.  1.
          1    1    1    2  501    0 -0.14719780035E+02  0.22188391990E+02  0.86391111598E+02  0.90401442613E+02  0.00000000000E+00 0. -1.
         -2    1    1    2    0  503 -0.16190501161E+02 -0.32875517993E+02  0.60502726240E+02  0.70735506597E+02  0.00000000000E+00 0.  1.
<mgrwt>
<rscale>  2 0.75044106E+02</rscale>
<asrwt>0</asrwt>
<pdfrwt beam="1">  1       21 0.42735483E-01 0.75044106E+02</pdfrwt>
<pdfrwt beam="2">  1       21 0.34377987E-02 0.75044106E+02</pdfrwt>
<totfact> 0.25827236E+06</totfact>
</mgrwt>
</event>
<event>
 5    1  0.2051810E+000  0.7991740E+02  0.7546771E-02  0.1329286E+00
         21   -1    0    0  501  502  0.00000000000E+00  0.00000000000E+00  0.26138226061E+02  0.26138226061E+02  0.00000000000E+00 0. -1.
         21   -1    0    0  502  503 -0.00000000000E+00 -0.00000000000E+00 -0.15714385995E+04  0.15714385995E+04  0.00000000000E+00 0. -1.
         24    1    1    2    0    0 -0.59395573189E+02  0.44551443319E+01 -0.58199173788E+03  0.59053304847E+03  0.80419002446E+02 0. -1.
          1    1    1    2  501    0  0.20553291751E+02 -0.38651728602E+01  0.16392743949E+02  0.26572531253E+02  0.00000000000E+00 0. -1.
         -2    1    1    2    0  503  0.38842281439E+02 -0.58997147166E+00 -0.97970137948E+03  0.98047124581E+03  0.00000000000E+00 0.  1.
<mgrwt>
<rscale>  2 0.79917397E+02</rscale>
<asrwt>0</asrwt>
<pdfrwt beam="1">  1       21 0.40212654E-02 0.79917397E+02</pdfrwt>
<pdfrwt beam="2">  1       21 0.24175979E+00 0.79917397E+02</pdfrwt>
<totfact> 0.32698664E+04</totfact>
</mgrwt>
</event>
<event>
 5    1  0.2051810E+000  0.6239843E+02  0.7546771E-02  0.1388034E+00
         21   -1    0    0  503  502  0.00000000000E+00  0.00000000000E+00  0.17916249782E+02  0.17916249782E+02  0.00000000000E+00 0. -1.
         21   -1    0    0  501  503 -0.00000000000E+00 -0.00000000000E+00 -0.24590130874E+03  0.24590130874E+03  0.00000000000E+00 0. -1.
         24    1    1    2    0    0  0.22828199559E+01 -0.39516605878E-01 -0.12236706283E+03  0.14644496184E+03  0.80419002446E+02 0. -1.
          1    1    1    2  501    0 -0.15237444129E+02  0.17112952958E+02 -0.83449247835E+02  0.86537909767E+02  0.00000000000E+00 0. -1.
         -2    1    1    2    0  502  0.12954624173E+02 -0.17073436352E+02 -0.22168748299E+02  0.30834686920E+02  0.00000000000E+00 0.  1.
<mgrwt>
<rscale>  2 0.62398430E+02</rscale>
<asrwt>0</asrwt>
<pdfrwt beam="1">  1       21 0.27563461E-02 0.62398430E+02</pdfrwt>
<pdfrwt beam="2">  1       21 0.37830970E-01 0.62398430E+02</pdfrwt>
<totfact> 0.46341252E+06</totfact>
</mgrwt>
</event>
<event>
 5    1  0.2051810E+000  0.7468209E+02  0.7546771E-02  0.1344858E+00
         21   -1    0    0  501  502  0.00000000000E+00  0.00000000000E+00  0.16755053765E+03  0.16755053765E+03  0.00000000000E+00 0.  1.
         21   -1    0    0  502  503 -0.00000000000E+00 -0.00000000000E+00 -0.35200279004E+02  0.35200279004E+02  0.00000000000E+00 0.  1.
         24    1    1    2    0    0 -0.13428655891E+00  0.39793509008E+01  0.48176951049E+02  0.93830100891E+02  0.80419002446E+02 0.  1.
          1    1    1    2  501    0  0.64899230293E+00  0.32428591517E+02  0.34781730635E+02  0.47558422228E+02  0.00000000000E+00 0. -1.
         -2    1    1    2    0  503 -0.51470574402E+00 -0.36407942418E+02  0.49391576957E+02  0.61362293531E+02  0.00000000000E+00 0.  1.
<mgrwt>
<rscale>  2 0.74682087E+02</rscale>
<asrwt>0</asrwt>
<pdfrwt beam="1">  1       21 0.25777005E-01 0.74682087E+02</pdfrwt>
<pdfrwt beam="2">  1       21 0.54154276E-02 0.74682087E+02</pdfrwt>
<totfact> 0.32336074E+06</totfact>
</mgrwt>
</event>
<event>
 5    1  0.2051810E+000  0.6507945E+02  0.7546771E-02  0.1377673E+00
         21   -1    0    0  503  502  0.00000000000E+00  0.00000000000E+00  0.24430910538E+03  0.24430910538E+03  0.00000000000E+00 0.  1.
         21   -1    0    0  501  503 -0.00000000000E+00 -0.00000000000E+00 -0.10618617407E+03  0.10618617407E+03  0.00000000000E+00 0. -1.
         24    1    1    2    0    0  0.21713892835E+02  0.10638597573E+02 -0.68414706010E+01  0.84253751102E+02  0.80419002446E+02 0.  1.
          1    1    1    2  501    0 -0.21690748456E+02  0.11154129297E+02 -0.57577513714E+02  0.62530578555E+02  0.00000000000E+00 0. -1.
         -2    1    1    2    0  502 -0.23144379435E-01 -0.21792726869E+02  0.20254191563E+03  0.20371094980E+03  0.00000000000E+00 0.  1.
<mgrwt>
<rscale>  2 0.65079451E+02</rscale>
<asrwt>0</asrwt>
<pdfrwt beam="1">  1       21 0.37586016E-01 0.65079451E+02</pdfrwt>
<pdfrwt beam="2">  1       21 0.16336335E-01 0.65079451E+02</pdfrwt>
<totfact> 0.23645138E+05</totfact>
</mgrwt>
</event>
<event>
 5    1  0.2051810E+000  0.7364226E+02  0.7546771E-02  0.1348128E+00
         21   -1    0    0  501  502  0.00000000000E+00  0.00000000000E+00  0.18584127668E+04  0.18584127668E+04  0.00000000000E+00 0. -1.
         21   -1    0    0  502  503 -0.00000000000E+00 -0.00000000000E+00 -0.51141677916E+01  0.51141677916E+01  0.00000000000E+00 0. -1.
         24    1    1    2    0    0  0.13055158502E+02 -0.49385705190E+02  0.10771693105E+04  0.10813742759E+04  0.80419002446E+02 0. -1.
          1    1    1    2  501    0 -0.10638262710E+02  0.21154007483E+02  0.70760601755E+03  0.70800207679E+03  0.00000000000E+00 0. -1.
         -2    1    1    2    0  503 -0.24168957924E+01  0.28231697707E+02  0.68523270987E+02  0.74150581976E+02  0.00000000000E+00 0.  1.
<mgrwt>
<rscale>  2 0.73642259E+02</rscale>
<asrwt>0</asrwt>
<pdfrwt beam="1">  1       21 0.28590912E+00 0.73642259E+02</pdfrwt>
<pdfrwt beam="2">  1       21 0.78679653E-03 0.73642259E+02</pdfrwt>
<totfact> 0.25248515E+05</totfact>
</mgrwt>
</event>
<event>
 5    1  0.2051810E+000  0.9477413E+02  0.7546771E-02  0.1291686E+00
         21   -1    0    0  501  502  0.00000000000E+00  0.00000000000E+00  0.13949774697E+04  0.13949774697E+04  0.00000000000E+00 0. -1.
         21   -1    0    0  502  503 -0.00000000000E+00 -0.00000000000E+00 -0.74124004979E+01  0.74124004979E+01  0.00000000000E+00 0.  1.
         24    1    1    2    0    0  0.61770146108E+02 -0.12173624512E+02  0.78105696826E+03  0.78770613284E+03  0.80419002446E+02 0.  1.
          1    1    1    2  501    0 -0.46973190625E+02  0.36128296488E+02  0.52731168439E+03  0.53063108365E+03  0.00000000000E+00 0. -1.
         -2    1    1    2    0  503 -0.14796955483E+02 -0.23954671977E+02  0.79196416562E+02  0.84052653720E+02  0.00000000000E+00 0.  1.
<mgrwt>
<rscale>  2 0.94774131E+02</rscale>
<asrwt>0</asrwt>
<pdfrwt beam="1">  1       21 0.21461171E+00 0.94774131E+02</pdfrwt>
<pdfrwt beam="2">  1       21 0.11403704E-02 0.94774131E+02</pdfrwt>
<totfact> 0.34801178E+05</totfact>
</mgrwt>
</event>
<event>
 5    1  0.2051810E+000  0.1158057E+03  0.7546771E-02  0.1250181E+00
         21   -1    0    0  501  502  0.00000000000E+00  0.00000000000E+00  0.49865974076E+03  0.49865974076E+03  0.00000000000E+00 0.  1.
         21   -1    0    0  502  503 -0.00000000000E+00 -0.00000000000E+00 -0.32130710876E+02  0.32130710876E+02  0.00000000000E+00 0. -1.
         24    1    1    2    0    0  0.46967597003E+01  0.91239133621E+02  0.13669040015E+03  0.18302491771E+03  0.80419002446E+02 0.  1.
          1    1    1    2  501    0 -0.32082232623E+02 -0.62183257622E+02  0.22240304029E+03  0.23315046538E+03  0.00000000000E+00 0. -1.
         -2    1    1    2    0  503  0.27385472923E+02 -0.29055875999E+02  0.10743558945E+03  0.11461506854E+03  0.00000000000E+00 0.  1.
<mgrwt>
<rscale>  2 0.11580567E+03</rscale>
<asrwt>0</asrwt>
<pdfrwt beam="1">  1       21 0.76716878E-01 0.11580567E+03</pdfrwt>
<pdfrwt beam="2">  1       21 0.49431866E-02 0.11580567E+03</pdfrwt>
<totfact> 0.42025466E+05</totfact>
</mgrwt>
</event>
<event>
 5    1  0.2051810E+000  0.8146189E+02  0.7546771E-02  0.1324953E+00
         21   -1    0    0  501  502  0.00000000000E+00  0.00000000000E+00  0.61944364838E+03  0.61944364838E+03  0.00000000000E+00 0. -1.
         21   -1    0    0  502  503 -0.00000000000E+00 -0.00000000000E+00 -0.12844132092E+02  0.12844132092E+02  0.00000000000E+00 0.  1.
         24    1    1    2    0    0 -0.13566096245E+01 -0.35161965848E+02  0.19864119563E+03  0.21717215473E+03  0.80419002446E+02 0.  0.
          1    1    1    2  501    0 -0.25349643369E+02 -0.60248790733E+01  0.18438813869E+03  0.18622000235E+03  0.00000000000E+00 0. -1.
         -2    1    1    2    0  503  0.26706252993E+02  0.41186844922E+02  0.22357018196E+03  0.22889562339E+03  0.00000000000E+00 0.  1.
<mgrwt>
<rscale>  2 0.81461888E+02</rscale>
<asrwt>0</asrwt>
<pdfrwt beam="1">  1       21 0.95299000E-01 0.81461888E+02</pdfrwt>
<pdfrwt beam="2">  1       21 0.19760208E-02 0.81461888E+02</pdfrwt>
<totfact> 0.11544252E+06</totfact>
</mgrwt>
</event>
<event>
 5    1  0.2051810E+000  0.9057783E+02  0.7546771E-02  0.1301458E+00
         21   -1    0    0  501  502  0.00000000000E+00  0.00000000000E+00  0.83546672081E+03  0.83546672081E+03  0.00000000000E+00 0.  1.
         21   -1    0    0  502  503 -0.00000000000E+00 -0.00000000000E+00 -0.10954075513E+02  0.10954075513E+02  0.00000000000E+00 0.  1.
         24    1    1    2    0    0  0.52920828981E+02  0.39840231875E+02  0.56312942118E+03  0.57268649291E+03  0.80419002446E+02 0.  1.
          1    1    1    2  501    0 -0.80154585460E+01 -0.29926454860E+02  0.15116588768E+03  0.15430802272E+03  0.00000000000E+00 0. -1.
         -2    1    1    2    0  503 -0.44905370435E+02 -0.99137770155E+01  0.11021733643E+03  0.11942628069E+03  0.00000000000E+00 0.  1.
<mgrwt>
<rscale>  2 0.90577831E+02</rscale>
<asrwt>0</asrwt>
<pdfrwt beam="1">  1       21 0.12853329E+00 0.90577831E+02</pdfrwt>
<pdfrwt beam="2">  1       21 0.16852430E-02 0.90577831E+02</pdfrwt>
<totfact> 0.73434923E+05</totfact>
</mgrwt>
</event>
<event>
 5    1  0.2051810E+000  0.8719205E+02  0.7546771E-02  0.1309798E+00
         21   -1    0    0  503  502  0.00000000000E+00  0.00000000000E+00  0.19241068704E+03  0.19241068704E+03  0.00000000000E+00 0.  1.
         21   -1    0    0  501  503 -0.00000000000E+00 -0.00000000000E+00 -0.10773283462E+03  0.10773283462E+03  0.00000000000E+00 0. -1.
         24    1    1    2    0    0  0.75397517804E+01 -0.38513912381E+02  0.11236145572E+03  0.14364011275E+03  0.80419002446E+02 0.  1.
          1    1    1    2  501    0 -0.41255093088E+02  0.26855387282E+02 -0.79552378588E+02  0.93550924478E+02  0.00000000000E+00 0. -1.
         -2    1    1    2    0  502  0.33715341308E+02  0.11658525099E+02  0.51868775279E+02  0.62952484430E+02  0.00000000000E+00 0.  1.
<mgrwt>
<rscale>  2 0.87192052E+02</rscale>
<asrwt>0</asrwt>
<pdfrwt beam="1">  1       21 0.29601644E-01 0.87192052E+02</pdfrwt>
<pdfrwt beam="2">  1       21 0.16574282E-01 0.87192052E+02</pdfrwt>
<totfact> 0.36351197E+05</totfact>
</mgrwt>
</event>
<event>
 5    1  0.2051810E+000  0.1017898E+03  0.7546771E-02  0.1276577E+00
         21   -1    0    0  501  502  0.00000000000E+00  0.00000000000E+00  0.42036120868E+03  0.42036120868E+03  0.00000000000E+00 0. -1.
         21   -1    0    0  502  503 -0.00000000000E+00 -0.00000000000E+00 -0.29122495466E+02  0.29122495466E+02  0.00000000000E+00 0.  1.
         24    1    1    2    0    0 -0.40203711829E+02  0.27272183585E+02  0.12026533126E+03  0.15261414187E+03  0.80419002446E+02 0.  0.
          1    1    1    2  501    0 -0.28792731260E+01 -0.57133406230E+02  0.20372429125E+03  0.21160364639E+03  0.00000000000E+00 0. -1.
         -2    1    1    2    0  503  0.43082984955E+02  0.29861222645E+02  0.67249090713E+02  0.85265915888E+02  0.00000000000E+00 0.  1.
<mgrwt>
<rscale>  2 0.10178979E+03</rscale>
<asrwt>0</asrwt>
<pdfrwt beam="1">  1       21 0.64670951E-01 0.10178979E+03</pdfrwt>
<pdfrwt beam="2">  1       21 0.44803842E-02 0.10178979E+03</pdfrwt>
<totfact> 0.71817329E+05</totfact>
</mgrwt>
</event>
<event>
 5    1  0.2051810E+000  0.7227039E+02  0.7546771E-02  0.1352538E+00
         21   -1    0    0  503  502  0.00000000000E+00  0.00000000000E+00  0.22324351279E+03  0.22324351279E+03  0.00000000000E+00 0.  1.
         21   -1    0    0  501  503 -0.00000000000E+00 -0.00000000000E+00 -0.64450317934E+02  0.64450317934E+02  0.00000000000E+00 0.  1.
         24    1    1    2    0    0 -0.33403239497E+02 -0.34199870344E+02  0.53127711943E+01  0.93706184601E+02  0.80419002446E+02 0.  1.
          1    1    1    2  501    0  0.13498726591E+02  0.26316386539E+02 -0.83616326094E+01  0.30735723840E+02  0.00000000000E+00 0. -1.
         -2    1    1    2    0  502  0.19904512906E+02  0.78834838042E+01  0.16184205627E+03  0.16325192228E+03  0.00000000000E+00 0.  1.
<mgrwt>
<rscale>  2 0.72270392E+02</rscale>
<asrwt>0</asrwt>
<pdfrwt beam="1">  1       21 0.34345155E-01 0.72270392E+02</pdfrwt>
<pdfrwt beam="2">  1       21 0.99154336E-02 0.72270392E+02</pdfrwt>
<totfact> 0.67424656E+05</totfact>
</mgrwt>
</event>
<event>
 5    1  0.2051810E+000  0.2376460E+03  0.7546771E-02  0.1121371E+00
         21   -1    0    0  501  502  0.00000000000E+00  0.00000000000E+00  0.65851252164E+03  0.65851252164E+03  0.00000000000E+00 0. -1.
         21   -1    0    0  502  503 -0.00000000000E+00 -0.00000000000E+00 -0.11813053235E+03  0.11813053235E+03  0.00000000000E+00 0. -1.
         24    1    1    2    0    0 -0.15080254738E+03 -0.11432062585E+03  0.59337801064E+02  0.21400655219E+03  0.80419002446E+02 0. -1.
          1    1    1    2  501    0  0.18609635188E+03  0.44349519817E+02  0.42565491310E+03  0.46666994454E+03  0.00000000000E+00 0. -1.
         -2    1    1    2    0  503 -0.35293804502E+02  0.69971106030E+02  0.55389275127E+02  0.95966557271E+02  0.00000000000E+00 0.  1.
<mgrwt>
<rscale>  2 0.23764605E+03</rscale>
<asrwt>0</asrwt>
<pdfrwt beam="1">  1       21 0.10130962E+00 0.23764605E+03</pdfrwt>
<pdfrwt beam="2">  1       21 0.18173928E-01 0.23764605E+03</pdfrwt>
<totfact> 0.21393036E+04</totfact>
</mgrwt>
</event>
<event>
 5    1  0.2051810E+000  0.8589417E+02  0.7546771E-02  0.1313111E+00
         21   -1    0    0  501  502  0.00000000000E+00  0.00000000000E+00  0.59077237858E+02  0.59077237858E+02  0.00000000000E+00 0.  1.
         21   -1    0    0  502  503 -0.00000000000E+00 -0.00000000000E+00 -0.32184076618E+03  0.32184076618E+03  0.00000000000E+00 0.  1.
         24    1    1    2    0    0 -0.19222710732E+02 -0.63791019132E+02 -0.57065865452E+01  0.10458770393E+03  0.80419002446E+02 0.  1.
          1    1    1    2  501    0  0.85354836421E+01  0.44421956589E+02 -0.47440298317E+02  0.65549573702E+02  0.00000000000E+00 0. -1.
         -2    1    1    2    0  503  0.10687227090E+02  0.19369062544E+02 -0.20961664346E+03  0.21078072640E+03  0.00000000000E+00 0.  1.
<mgrwt>
<rscale>  2 0.85894166E+02</rscale>
<asrwt>0</asrwt>
<pdfrwt beam="1">  1       21 0.90888059E-02 0.85894166E+02</pdfrwt>
<pdfrwt beam="2">  1       21 0.49513964E-01 0.85894166E+02</pdfrwt>
<totfact> 0.37981694E+05</totfact>
</mgrwt>
</event>
<event>
 5    1  0.2051810E+000  0.7146526E+02  0.7546771E-02  0.1355180E+00
         21   -1    0    0  501  502  0.00000000000E+00  0.00000000000E+00  0.10541697038E+02  0.10541697038E+02  0.00000000000E+00 0. -1.
         21   -1    0    0  502  503 -0.00000000000E+00 -0.00000000000E+00 -0.97585207032E+03  0.97585207032E+03  0.00000000000E+00 0.  1.
         24    1    1    2    0    0  0.17797046877E+02  0.41681957929E+02 -0.36487617256E+03  0.37637210012E+03  0.80419002446E+02 0.  1.
          1    1    1    2  501    0 -0.37408899130E+00 -0.29162557754E+02 -0.41762752352E+02  0.50938415772E+02  0.00000000000E+00 0. -1.
         -2    1    1    2    0  503 -0.17422957885E+02 -0.12519400175E+02 -0.55867144838E+03  0.55908325147E+03  0.00000000000E+00 0.  1.
<mgrwt>
<rscale>  2 0.71465263E+02</rscale>
<asrwt>0</asrwt>
<pdfrwt beam="1">  1       21 0.16217998E-02 0.71465263E+02</pdfrwt>
<pdfrwt beam="2">  1       21 0.15013106E+00 0.71465263E+02</pdfrwt>
<totfact> 0.53201037E+05</totfact>
</mgrwt>
</event>
<event>
 5    1  0.2051810E+000  0.6832048E+02  0.7546771E-02  0.1365899E+00
         21   -1    0    0  503  502  0.00000000000E+00  0.00000000000E+00  0.19101168695E+03  0.19101168695E+03  0.00000000000E+00 0. -1.
         21   -1    0    0  501  503 -0.00000000000E+00 -0.00000000000E+00 -0.26773733631E+02  0.26773733631E+02  0.00000000000E+00 0.  1.
         24    1    1    2    0    0 -0.14369413479E+02 -0.82397161261E+01  0.73239517626E+02  0.11002552368E+03  0.80419002446E+02 0.  1.
          1    1    1    2  501    0  0.19804516887E+01  0.29693667230E+02  0.31627098255E+02  0.43427058460E+02  0.00000000000E+00 0. -1.
         -2    1    1    2    0  502  0.12388961790E+02 -0.21453951103E+02  0.59371337436E+02  0.64332838435E+02  0.00000000000E+00 0.  1.
<mgrwt>
<rscale>  2 0.68320483E+02</rscale>
<asrwt>0</asrwt>
<pdfrwt beam="1">  1       21 0.29386412E-01 0.68320483E+02</pdfrwt>
<pdfrwt beam="2">  1       21 0.41190361E-02 0.68320483E+02</pdfrwt>
<totfact> 0.39467788E+06</totfact>
</mgrwt>
</event>
<event>
 5    1  0.2051810E+000  0.7810461E+02  0.7546771E-02  0.1334518E+00
         21   -1    0    0  503  502  0.00000000000E+00  0.00000000000E+00  0.44884230145E+02  0.44884230145E+02  0.00000000000E+00 0.  1.
         21   -1    0    0  501  503 -0.00000000000E+00 -0.00000000000E+00 -0.84882078458E+03  0.84882078458E+03  0.00000000000E+00 0. -1.
         24    1    1    2    0    0  0.38471974980E+02 -0.30373249273E+02 -0.13667758764E+03  0.16598375236E+03  0.80419002446E+02 0. -1.
          1    1    1    2  501    0 -0.19876896421E+02 -0.63500230191E+01 -0.68324477991E+03  0.68356334240E+03  0.00000000000E+00 0. -1.
         -2    1    1    2    0  502 -0.18595078559E+02  0.36723272292E+02  0.15985813114E+02  0.44157919962E+02  0.00000000000E+00 0.  1.
<mgrwt>
<rscale>  2 0.78104605E+02</rscale>
<asrwt>0</asrwt>
<pdfrwt beam="1">  1       21 0.69052668E-02 0.78104605E+02</pdfrwt>
<pdfrwt beam="2">  1       21 0.13058780E+00 0.78104605E+02</pdfrwt>
<totfact> 0.70908996E+04</totfact>
</mgrwt>
</event>
<event>
 5    1  0.2051810E+000  0.7131045E+02  0.7546771E-02  0.1355693E+00
         21   -1    0    0  501  502  0.00000000000E+00  0.00000000000E+00  0.23321299663E+03  0.23321299663E+03  0.00000000000E+00 0.  1.
         21   -1    0    0  502  503 -0.00000000000E+00 -0.00000000000E+00 -0.23580741080E+02  0.23580741080E+02  0.00000000000E+00 0.  1.
         24    1    1    2    0    0  0.21262937537E+02  0.43729901375E+02  0.15096657267E+03  0.17782727239E+03  0.80419002446E+02 0.  0.
          1    1    1    2  501    0 -0.11187062510E+02 -0.21459011497E+02  0.44657384018E+02  0.50792927553E+02  0.00000000000E+00 0. -1.
         -2    1    1    2    0  503 -0.10075875026E+02 -0.22270889878E+02  0.14008298863E+02  0.28173537771E+02  0.00000000000E+00 0.  1.
<mgrwt>
<rscale>  2 0.71310447E+02</rscale>
<asrwt>0</asrwt>
<pdfrwt beam="1">  1       21 0.35878921E-01 0.71310447E+02</pdfrwt>
<pdfrwt beam="2">  1       21 0.36278065E-02 0.71310447E+02</pdfrwt>
<totfact> 0.33241589E+06</totfact>
</mgrwt>
</event>
<event>
 5    1  0.2051810E+000  0.6864594E+02  0.7546771E-02  0.1364759E+00
         21   -1    0    0  503  502  0.00000000000E+00  0.00000000000E+00  0.21997854315E+03  0.21997854315E+03  0.00000000000E+00 0.  1.
         21   -1    0    0  501  503 -0.00000000000E+00 -0.00000000000E+00 -0.10268434348E+03  0.10268434348E+03  0.00000000000E+00 0. -1.
         24    1    1    2    0    0 -0.28016295311E+02 -0.13158060775E+02  0.43305493305E+02  0.96439769136E+02  0.80419002446E+02 0. -1.
          1    1    1    2  501    0  0.20854341233E+02 -0.12614518416E+02 -0.72927075753E+02  0.76892054212E+02  0.00000000000E+00 0. -1.
         -2    1    1    2    0  502  0.71619540775E+01  0.25772579192E+02  0.14691578212E+03  0.14933106328E+03  0.00000000000E+00 0.  1.
<mgrwt>
<rscale>  2 0.68645943E+02</rscale>
<asrwt>0</asrwt>
<pdfrwt beam="1">  1       21 0.33842853E-01 0.68645943E+02</pdfrwt>
<pdfrwt beam="2">  1       21 0.15797591E-01 0.68645943E+02</pdfrwt>
<totfact> 0.30717592E+05</totfact>
</mgrwt>
</event>
<event>
 5    1  0.2051810E+000  0.8403146E+02  0.7546771E-02  0.1317985E+00
         21   -1    0    0  503  502  0.00000000000E+00  0.00000000000E+00  0.93030845963E+03  0.93030845963E+03  0.00000000000E+00 0.  1.
         21   -1    0    0  501  503 -0.00000000000E+00 -0.00000000000E+00 -0.18827695093E+02  0.18827695093E+02  0.00000000000E+00 0. -1.
         24    1    1    2    0    0 -0.48677746665E+02 -0.17939411127E+02  0.36878286129E+03  0.38099784806E+03  0.80419002446E+02 0.  1.
          1    1    1    2  501    0  0.35928124113E+01  0.26269892891E+02  0.32126537947E+01  0.26708364195E+02  0.00000000000E+00 0. -1.
         -2    1    1    2    0  502  0.45084934253E+02 -0.83304817640E+01  0.53948524945E+03  0.54142994246E+03  0.00000000000E+00 0.  1.
<mgrwt>
<rscale>  2 0.84031457E+02</rscale>
<asrwt>0</asrwt>
<pdfrwt beam="1">  1       21 0.14312434E+00 0.84031457E+02</pdfrwt>
<pdfrwt beam="2">  1       21 0.28965692E-02 0.84031457E+02</pdfrwt>
<totfact> 0.23636110E+05</totfact>
</mgrwt>
</event>
<event>
 5    1  0.2051810E+000  0.1159066E+03  0.7546771E-02  0.1250007E+00
         21   -1    0    0  501  502  0.00000000000E+00  0.00000000000E+00  0.21297740284E+03  0.21297740284E+03  0.00000000000E+00 0. -1.
         21   -1    0    0  502  503 -0.00000000000E+00 -0.00000000000E+00 -0.66814303155E+02  0.66814303155E+02  0.00000000000E+00 0.  1.
         24    1    1    2    0    0  0.67101320166E+02 -0.37097961557E-01  0.82508334879E+02  0.13333202850E+03  0.80419002446E+02 0.  1.
          1    1    1    2  501    0 -0.23424456439E+02 -0.53251298188E+02  0.48898325441E+02  0.75996395632E+02  0.00000000000E+00 0. -1.
         -2    1    1    2    0  503 -0.43676863727E+02  0.53288396149E+02  0.14756439369E+02  0.70463281871E+02  0.00000000000E+00 0.  1.
<mgrwt>
<rscale>  2 0.11590665E+03</rscale>
<asrwt>0</asrwt>
<pdfrwt beam="1">  1       21 0.32765754E-01 0.11590665E+03</pdfrwt>
<pdfrwt beam="2">  1       21 0.10279124E-01 0.11590665E+03</pdfrwt>
<totfact> 0.69632411E+05</totfact>
</mgrwt>
</event>
<event>
 5    1  0.2051810E+000  0.6602783E+02  0.7546771E-02  0.1374146E+00
         21   -1    0    0  503  502  0.00000000000E+00  0.00000000000E+00  0.92526481349E+02  0.92526481349E+02  0.00000000000E+00 0. -1.
         21   -1    0    0  501  503 -0.00000000000E+00 -0.00000000000E+00 -0.47186598200E+02  0.47186598200E+02  0.00000000000E+00 0.  1.
         24    1    1    2    0    0 -0.11432630530E+02 -0.41674893228E+01  0.25488583977E+02  0.85234716375E+02  0.80419002446E+02 0.  0.
          1    1    1    2  501    0 -0.92482583690E+00 -0.21875553551E+02  0.91461226680E+01  0.23728605224E+02  0.00000000000E+00 0. -1.
         -2    1    1    2    0  502  0.12357456367E+02  0.26043042874E+02  0.10705176504E+02  0.30749757950E+02  0.00000000000E+00 0.  1.
<mgrwt>
<rscale>  2 0.66027834E+02</rscale>
<asrwt>0</asrwt>
<pdfrwt beam="1">  1       21 0.14234843E-01 0.66027834E+02</pdfrwt>
<pdfrwt beam="2">  1       21 0.72594767E-02 0.66027834E+02</pdfrwt>
<totfact> 0.57537830E+06</totfact>
</mgrwt>
</event>
<event>
 5    1  0.2051810E+000  0.9262870E+02  0.7546771E-02  0.1296608E+00
         21   -1    0    0  501  502  0.00000000000E+00  0.00000000000E+00  0.33274592012E+04  0.33274592012E+04  0.00000000000E+00 0.  1.
         21   -1    0    0  502  503 -0.00000000000E+00 -0.00000000000E+00 -0.36004056817E+01  0.36004056817E+01  0.00000000000E+00 0.  1.
         24    1    1    2    0    0  0.64214003350E+02 -0.15505802942E+02  0.14961662306E+04  0.14997814753E+04  0.80419002446E+02 0.  1.
          1    1    1    2  501    0 -0.40675340505E+02 -0.14380017561E+02  0.15879564264E+04  0.15885423760E+04  0.00000000000E+00 0. -1.
         -2    1    1    2    0  503 -0.23538662845E+02  0.29885820504E+02  0.23973613858E+03  0.24273575562E+03  0.00000000000E+00 0.  1.
<mgrwt>
<rscale>  2 0.92628700E+02</rscale>
<asrwt>0</asrwt>
<pdfrwt beam="1">  1       21 0.51191434E+00 0.92628700E+02</pdfrwt>
<pdfrwt beam="2">  1       21 0.55391123E-03 0.92628700E+02</pdfrwt>
<totfact> 0.17815663E+04</totfact>
</mgrwt>
</event>
<event>
 5    1  0.2051810E+000  0.1034643E+03  0.7546771E-02  0.1273175E+00
         21   -1    0    0  501  502  0.00000000000E+00  0.00000000000E+00  0.92041374796E+02  0.92041374796E+02  0.00000000000E+00 0.  1.
         21   -1    0    0  502  503 -0.00000000000E+00 -0.00000000000E+00 -0.20441138809E+03  0.20441138809E+03  0.00000000000E+00 0. -1.
         24    1    1    2    0    0 -0.38740782455E+01 -0.47374439930E+02 -0.10776704485E+03  0.14261941646E+03  0.80419002446E+02 0. -1.
          1    1    1    2  501    0  0.51474279644E+02  0.40333929041E+02  0.49063753844E+02  0.81753772011E+02  0.00000000000E+00 0. -1.
         -2    1    1    2    0  503 -0.47600201399E+02  0.70405108887E+01 -0.53666722293E+02  0.72079574419E+02  0.00000000000E+00 0.  1.
<mgrwt>
<rscale>  2 0.10346427E+03</rscale>
<asrwt>0</asrwt>
<pdfrwt beam="1">  1       21 0.14160212E-01 0.10346427E+03</pdfrwt>
<pdfrwt beam="2">  1       21 0.31447906E-01 0.10346427E+03</pdfrwt>
<totfact> 0.42849328E+05</totfact>
</mgrwt>
</event>
<event>
 5    1  0.2051810E+000  0.7963869E+02  0.7546771E-02  0.1330080E+00
         21   -1    0    0  503  502  0.00000000000E+00  0.00000000000E+00  0.92830975629E+02  0.92830975629E+02  0.00000000000E+00 0.  1.
         21   -1    0    0  501  503 -0.00000000000E+00 -0.00000000000E+00 -0.72435922028E+02  0.72435922028E+02  0.00000000000E+00 0. -1.
         24    1    1    2    0    0  0.41987679127E+02 -0.38071363204E+02  0.43574232054E+00  0.98385973189E+02  0.80419002446E+02 0. -1.
          1    1    1    2  501    0 -0.11280640667E+02  0.25175589720E+02 -0.86596922153E+00  0.27600961475E+02  0.00000000000E+00 0. -1.
         -2    1    1    2    0  502 -0.30707038460E+02  0.12895773484E+02  0.20825280502E+02  0.39279962992E+02  0.00000000000E+00 0.  1.
<mgrwt>
<rscale>  2 0.79638692E+02</rscale>
<asrwt>0</asrwt>
<pdfrwt beam="1">  1       21 0.14281689E-01 0.79638692E+02</pdfrwt>
<pdfrwt beam="2">  1       21 0.11143988E-01 0.79638692E+02</pdfrwt>
<totfact> 0.27841253E+06</totfact>
</mgrwt>
</event>
<event>
 5    1  0.2051810E+000  0.6684316E+02  0.7546771E-02  0.1371169E+00
         21   -1    0    0  501  502  0.00000000000E+00  0.00000000000E+00  0.10876924966E+03  0.10876924966E+03  0.00000000000E+00 0. -1.
         21   -1    0    0  502  503 -0.00000000000E+00 -0.00000000000E+00 -0.15568577608E+03  0.15568577608E+03  0.00000000000E+00 0. -1.
         24    1    1    2    0    0  0.76600679828E+01 -0.94152484142E+01 -0.77961054355E+02  0.11266084277E+03  0.80419002446E+02 0. -1.
          1    1    1    2  501    0 -0.71066403035E-01 -0.21004391398E+02  0.85998157074E+02  0.88526112128E+02  0.00000000000E+00 0. -1.
         -2    1    1    2    0  503 -0.75890015797E+01  0.30419639812E+02 -0.54953629142E+02  0.63268070834E+02  0.00000000000E+00 0.  1.
<mgrwt>
<rscale>  2 0.66843162E+02</rscale>
<asrwt>0</asrwt>
<pdfrwt beam="1">  1       21 0.16733731E-01 0.66843162E+02</pdfrwt>
<pdfrwt beam="2">  1       21 0.23951658E-01 0.66843162E+02</pdfrwt>
<totfact> 0.53137434E+05</totfact>
</mgrwt>
</event>
<event>
 5    1  0.2051810E+000  0.8656785E+02  0.7546771E-02  0.1311383E+00
         21   -1    0    0  503  502  0.00000000000E+00  0.00000000000E+00  0.33902708849E+02  0.33902708849E+02  0.00000000000E+00 0. -1.
         21   -1    0    0  501  503 -0.00000000000E+00 -0.00000000000E+00 -0.31406842951E+03  0.31406842951E+03  0.00000000000E+00 0.  1.
         24    1    1    2    0    0  0.53523129357E+02 -0.11624107898E+02 -0.62728716589E+02  0.11576680483E+03  0.80419002446E+02 0. -1.
          1    1    1    2  501    0 -0.71278898777E+01  0.26242354424E+02 -0.12306195025E+03  0.12603059779E+03  0.00000000000E+00 0. -1.
         -2    1    1    2    0  502 -0.46395239479E+02 -0.14618246525E+02 -0.94375053827E+02  0.10617373575E+03  0.00000000000E+00 0.  1.
<mgrwt>
<rscale>  2 0.86567852E+02</rscale>
<asrwt>0</asrwt>
<pdfrwt beam="1">  1       21 0.52158013E-02 0.86567852E+02</pdfrwt>
<pdfrwt beam="2">  1       21 0.48318220E-01 0.86567852E+02</pdfrwt>
<totfact> 0.10212534E+06</totfact>
</mgrwt>
</event>
<event>
 5    1  0.2051810E+000  0.9441453E+02  0.7546771E-02  0.1292500E+00
         21   -1    0    0  501  502  0.00000000000E+00  0.00000000000E+00  0.45542782254E+03  0.45542782254E+03  0.00000000000E+00 0. -1.
         21   -1    0    0  502  503 -0.00000000000E+00 -0.00000000000E+00 -0.28964174053E+02  0.28964174053E+02  0.00000000000E+00 0.  1.
         24    1    1    2    0    0 -0.30204900511E+02  0.23228053792E+02  0.76118993038E+02  0.11710335415E+03  0.80419002446E+02 0.  1.
          1    1    1    2  501    0  0.55233404626E+02  0.12101014507E+02  0.27162589142E+03  0.27744871315E+03  0.00000000000E+00 0. -1.
         -2    1    1    2    0  503 -0.25028504115E+02 -0.35329068299E+02  0.78718764028E+02  0.89839929292E+02  0.00000000000E+00 0.  1.
<mgrwt>
<rscale>  2 0.94414527E+02</rscale>
<asrwt>0</asrwt>
<pdfrwt beam="1">  1       21 0.70065814E-01 0.94414527E+02</pdfrwt>
<pdfrwt beam="2">  1       21 0.44560271E-02 0.94414527E+02</pdfrwt>
<totfact> 0.61012028E+05</totfact>
</mgrwt>
</event>
<event>
 5    1  0.2051810E+000  0.1774102E+03  0.7546771E-02  0.1170333E+00
         21   -1    0    0  501  502  0.00000000000E+00  0.00000000000E+00  0.47691528907E+02  0.47691528907E+02  0.00000000000E+00 0.  1.
         21   -1    0    0  502  503 -0.00000000000E+00 -0.00000000000E+00 -0.93595595347E+03  0.93595595347E+03  0.00000000000E+00 0. -1.
         24    1    1    2    0    0 -0.14771234122E+02 -0.59705669947E+02 -0.19827409151E+03  0.22262701476E+03  0.80419002446E+02 0.  0.
          1    1    1    2  501    0 -0.10222237477E+03 -0.29568257280E+02 -0.78933619524E+02  0.13249230934E+03  0.00000000000E+00 0. -1.
         -2    1    1    2    0  503  0.11699360889E+03  0.89273927227E+02 -0.61105671353E+03  0.62852815829E+03  0.00000000000E+00 0.  1.
<mgrwt>
<rscale>  2 0.17741016E+03</rscale>
<asrwt>0</asrwt>
<pdfrwt beam="1">  1       21 0.73371596E-02 0.17741016E+03</pdfrwt>
<pdfrwt beam="2">  1       21 0.14399320E+00 0.17741016E+03</pdfrwt>
<totfact> 0.46787683E+04</totfact>
</mgrwt>
</event>
<event>
 5    1  0.2051810E+000  0.6945782E+02  0.7546771E-02  0.1361947E+00
         21   -1    0    0  501  502  0.00000000000E+00  0.00000000000E+00  0.17616301353E+02  0.17616301353E+02  0.00000000000E+00 0.  1.
         21   -1    0    0  502  503 -0.00000000000E+00 -0.00000000000E+00 -0.41104356699E+03  0.41104356699E+03  0.00000000000E+00 0. -1.
         24    1    1    2    0    0  0.31770401361E+02  0.10295139662E+02 -0.12329209562E+03  0.15094205875E+03  0.80419002446E+02 0.  1.
          1    1    1    2  501    0 -0.14171887944E+02 -0.25110271302E+02 -0.62712254988E+02  0.69023148714E+02  0.00000000000E+00 0. -1.
         -2    1    1    2    0  503 -0.17598513417E+02  0.14815131640E+02 -0.20742291503E+03  0.20869466088E+03  0.00000000000E+00 0.  1.
<mgrwt>
<rscale>  2 0.69457816E+02</rscale>
<asrwt>0</asrwt>
<pdfrwt beam="1">  1       21 0.27102003E-02 0.69457816E+02</pdfrwt>
<pdfrwt beam="2">  1       21 0.63237469E-01 0.69457816E+02</pdfrwt>
<totfact> 0.16988928E+06</totfact>
</mgrwt>
</event>
<event>
 5    1  0.2051810E+000  0.8738963E+02  0.7546771E-02  0.1309299E+00
         21   -1    0    0  501  502  0.00000000000E+00  0.00000000000E+00  0.66778475390E+02  0.66778475390E+02  0.00000000000E+00 0. -1.
         21   -1    0    0  502  503 -0.00000000000E+00 -0.00000000000E+00 -0.21622860700E+03  0.21622860700E+03  0.00000000000E+00 0. -1.
         24    1    1    2    0    0 -0.34858626269E+02  0.55152546467E+02 -0.13962858339E+03  0.17383982415E+03  0.80419002446E+02 0. -1.
          1    1    1    2  501    0  0.50177739132E+01 -0.34661776441E+02  0.36363413922E+02  0.50486777211E+02  0.00000000000E+00 0. -1.
         -2    1    1    2    0  503  0.29840852355E+02 -0.20490770026E+02 -0.46184962141E+02  0.58680481026E+02  0.00000000000E+00 0.  1.
<mgrwt>
<rscale>  2 0.87389630E+02</rscale>
<asrwt>0</asrwt>
<pdfrwt beam="1">  1       21 0.10273612E-01 0.87389630E+02</pdfrwt>
<pdfrwt beam="2">  1       21 0.33265939E-01 0.87389630E+02</pdfrwt>
<totfact> 0.67592094E+05</totfact>
</mgrwt>
</event>
<event>
 5    1  0.2051810E+000  0.9111560E+02  0.7546771E-02  0.1300172E+00
         21   -1    0    0  501  502  0.00000000000E+00  0.00000000000E+00  0.29622372183E+02  0.29622372183E+02  0.00000000000E+00 0. -1.
         21   -1    0    0  502  503 -0.00000000000E+00 -0.00000000000E+00 -0.29666224420E+03  0.29666224420E+03  0.00000000000E+00 0.  1.
         24    1    1    2    0    0 -0.39528401256E+02  0.27903082850E+02 -0.11295927913E+03  0.14686078862E+03  0.80419002446E+02 0.  1.
          1    1    1    2  501    0  0.58315168647E+02 -0.46722548033E+01 -0.76617100792E+02  0.96398490616E+02  0.00000000000E+00 0. -1.
         -2    1    1    2    0  503 -0.18786767391E+02 -0.23230828047E+02 -0.77463492090E+02  0.83025337142E+02  0.00000000000E+00 0.  1.
<mgrwt>
<rscale>  2 0.91115596E+02</rscale>
<asrwt>0</asrwt>
<pdfrwt beam="1">  1       21 0.45572881E-02 0.91115596E+02</pdfrwt>
<pdfrwt beam="2">  1       21 0.45640345E-01 0.91115596E+02</pdfrwt>
<totfact> 0.14359539E+06</totfact>
</mgrwt>
</event>
<event>
 5    1  0.2051810E+000  0.1412179E+03  0.7546771E-02  0.1211699E+00
         21   -1    0    0  501  502  0.00000000000E+00  0.00000000000E+00  0.29614687401E+03  0.29614687401E+03  0.00000000000E+00 0.  1.
         21   -1    0    0  502  503 -0.00000000000E+00 -0.00000000000E+00 -0.86111654887E+02  0.86111654887E+02  0.00000000000E+00 0. -1.
         24    1    1    2    0    0  0.10511701555E+03 -0.32497166953E+02  0.19109183632E+03  0.23471037191E+03  0.80419002446E+02 0.  0.
          1    1    1    2  501    0 -0.66353885733E+02  0.66972828641E+02  0.15650510876E+02  0.95567444345E+02  0.00000000000E+00 0. -1.
         -2    1    1    2    0  503 -0.38763129814E+02 -0.34475661688E+02  0.32928719260E+01  0.51980712647E+02  0.00000000000E+00 0.  1.
<mgrwt>
<rscale>  2 0.14121793E+03</rscale>
<asrwt>0</asrwt>
<pdfrwt beam="1">  1       21 0.45561057E-01 0.14121793E+03</pdfrwt>
<pdfrwt beam="2">  1       21 0.13247947E-01 0.14121793E+03</pdfrwt>
<totfact> 0.22999931E+05</totfact>
</mgrwt>
</event>
<event>
 5    1  0.2051810E+000  0.1311364E+03  0.7546771E-02  0.1225779E+00
         21   -1    0    0  503  502  0.00000000000E+00  0.00000000000E+00  0.21270950051E+03  0.21270950051E+03  0.00000000000E+00 0.  1.
         21   -1    0    0  501  503 -0.00000000000E+00 -0.00000000000E+00 -0.16039152035E+03  0.16039152035E+03  0.00000000000E+00 0.  1.
         24    1    1    2    0    0 -0.84447364280E+02  0.37954346153E+02 -0.44103809523E+02  0.13032364212E+03  0.80419002446E+02 0.  1.
          1    1    1    2  501    0  0.10832787681E+03 -0.20981515301E+02 -0.28911048801E+02  0.11406577761E+03  0.00000000000E+00 0. -1.
         -2    1    1    2    0  502 -0.23880512531E+02 -0.16972830852E+02  0.12533283848E+03  0.12871160114E+03  0.00000000000E+00 0.  1.
<mgrwt>
<rscale>  2 0.13113641E+03</rscale>
<asrwt>0</asrwt>
<pdfrwt beam="1">  1       21 0.32724538E-01 0.13113641E+03</pdfrwt>
<pdfrwt beam="2">  1       21 0.24675619E-01 0.13113641E+03</pdfrwt>
<totfact> 0.14241523E+05</totfact>
</mgrwt>
</event>
<event>
 5    1  0.2051810E+000  0.1224864E+03  0.7546771E-02  0.1239051E+00
         21   -1    0    0  501  502  0.00000000000E+00  0.00000000000E+00  0.78931814255E+02  0.78931814255E+02  0.00000000000E+00 0.  1.
         21   -1    0    0  502  503 -0.00000000000E+00 -0.00000000000E+00 -0.24932775784E+03  0.24932775784E+03  0.00000000000E+00 0. -1.
         24    1    1    2    0    0 -0.92761978290E+02  0.34764029414E+02 -0.48916597503E+02  0.13665054637E+03  0.80419002446E+02 0.  1.
          1    1    1    2  501    0  0.74132651009E+02 -0.53139181949E+02 -0.29320944867E+02  0.95807830638E+02  0.00000000000E+00 0. -1.
         -2    1    1    2    0  503  0.18629327282E+02  0.18375152534E+02 -0.92158401217E+02  0.95801195089E+02  0.00000000000E+00 0.  1.
<mgrwt>
<rscale>  2 0.12248641E+03</rscale>
<asrwt>0</asrwt>
<pdfrwt beam="1">  1       21 0.12143356E-01 0.12248641E+03</pdfrwt>
<pdfrwt beam="2">  1       21 0.38358116E-01 0.12248641E+03</pdfrwt>
<totfact> 0.38100835E+05</totfact>
</mgrwt>
</event>
<event>
 5    1  0.2051810E+000  0.6660315E+02  0.7546771E-02  0.1372041E+00
         21   -1    0    0  503  502  0.00000000000E+00  0.00000000000E+00  0.56494685931E+03  0.56494685931E+03  0.00000000000E+00 0. -1.
         21   -1    0    0  501  503 -0.00000000000E+00 -0.00000000000E+00 -0.81322188172E+01  0.81322188172E+01  0.00000000000E+00 0.  1.
         24    1    1    2    0    0 -0.13308633418E+02 -0.72241652757E+00  0.38926734636E+03  0.39771085540E+03  0.80419002446E+02 0.  0.
          1    1    1    2  501    0  0.14222707105E+01  0.24798853269E+02  0.75168387435E+02  0.79166232998E+02  0.00000000000E+00 0. -1.
         -2    1    1    2    0  502  0.11886362708E+02 -0.24076436742E+02  0.92378906698E+02  0.96201989726E+02  0.00000000000E+00 0.  1.
<mgrwt>
<rscale>  2 0.66603153E+02</rscale>
<asrwt>0</asrwt>
<pdfrwt beam="1">  1       21 0.86914870E-01 0.66603153E+02</pdfrwt>
<pdfrwt beam="2">  1       21 0.12511110E-02 0.66603153E+02</pdfrwt>
<totfact> 0.29019977E+06</totfact>
</mgrwt>
</event>
<event>
 5    1  0.2051810E+000  0.7770051E+02  0.7546771E-02  0.1335707E+00
         21   -1    0    0  503  502  0.00000000000E+00  0.00000000000E+00  0.13731464519E+04  0.13731464519E+04  0.00000000000E+00 0. -1.
         21   -1    0    0  501  503 -0.00000000000E+00 -0.00000000000E+00 -0.13446337911E+02  0.13446337911E+02  0.00000000000E+00 0. -1.
         24    1    1    2    0    0 -0.17644047562E+02 -0.48510148913E+02  0.30202685562E+03  0.31678381340E+03  0.80419002446E+02 0.  0.
          1    1    1    2  501    0 -0.46893617090E+01  0.31290015245E+02  0.36738404010E+02  0.48484693425E+02  0.00000000000E+00 0. -1.
         -2    1    1    2    0  502  0.22333409271E+02  0.17220133668E+02  0.10209348543E+04  0.10213242830E+04  0.00000000000E+00 0.  1.
<mgrwt>
<rscale>  2 0.77700514E+02</rscale>
<asrwt>0</asrwt>
<pdfrwt beam="1">  1       21 0.21125319E+00 0.77700514E+02</pdfrwt>
<pdfrwt beam="2">  1       21 0.20686685E-02 0.77700514E+02</pdfrwt>
<totfact> 0.14396682E+05</totfact>
</mgrwt>
</event>
<event>
 5    1  0.2051810E+000  0.7416169E+02  0.7546771E-02  0.1346487E+00
         21   -1    0    0  503  502  0.00000000000E+00  0.00000000000E+00  0.40760681372E+03  0.40760681372E+03  0.00000000000E+00 0. -1.
         21   -1    0    0  501  503 -0.00000000000E+00 -0.00000000000E+00 -0.56736242582E+02  0.56736242582E+02  0.00000000000E+00 0. -1.
         24    1    1    2    0    0 -0.27773685833E+02 -0.40020221868E+02  0.19186563882E+03  0.21366477271E+03  0.80419002446E+02 0. -1.
          1    1    1    2  501    0  0.76403809935E+01  0.31544065249E+02 -0.39415694889E+02  0.51058794323E+02  0.00000000000E+00 0. -1.
         -2    1    1    2    0  502  0.20133304840E+02  0.84761566195E+01  0.19842062721E+03  0.19961948927E+03  0.00000000000E+00 0.  1.
<mgrwt>
<rscale>  2 0.74161688E+02</rscale>
<asrwt>0</asrwt>
<pdfrwt beam="1">  1       21 0.62708739E-01 0.74161688E+02</pdfrwt>
<pdfrwt beam="2">  1       21 0.87286530E-02 0.74161688E+02</pdfrwt>
<totfact> 0.25018761E+05</totfact>
</mgrwt>
</event>
<event>
 5    1  0.2051810E+000  0.1300978E+03  0.7546771E-02  0.1227311E+00
         21   -1    0    0  503  502  0.00000000000E+00  0.00000000000E+00  0.67913351625E+03  0.67913351625E+03  0.00000000000E+00 0.  1.
         21   -1    0    0  501  503 -0.00000000000E+00 -0.00000000000E+00 -0.45353752603E+02  0.45353752603E+02  0.00000000000E+00 0. -1.
         24    1    1    2    0    0 -0.49009907209E+01  0.97304336643E+02  0.24535821261E+03  0.27597105299E+03  0.80419002446E+02 0. -1.
          1    1    1    2  501    0  0.24241589916E+02 -0.10873143441E+03  0.75010184806E+02  0.13430080914E+03  0.00000000000E+00 0. -1.
         -2    1    1    2    0  502 -0.19340599196E+02  0.11427097767E+02  0.31341136622E+03  0.31421540672E+03  0.00000000000E+00 0.  1.
<mgrwt>
<rscale>  2 0.13009776E+03</rscale>
<asrwt>0</asrwt>
<pdfrwt beam="1">  1       21 0.10448207E+00 0.13009776E+03</pdfrwt>
<pdfrwt beam="2">  1       21 0.69775009E-02 0.13009776E+03</pdfrwt>
<totfact> 0.11537064E+05</totfact>
</mgrwt>
</event>
<event>
 5    1  0.2051810E+000  0.7480094E+02  0.7546771E-02  0.1344489E+00
         21   -1    0    0  503  502  0.00000000000E+00  0.00000000000E+00  0.11827280626E+03  0.11827280626E+03  0.00000000000E+00 0.  1.
         21   -1    0    0  501  503 -0.00000000000E+00 -0.00000000000E+00 -0.12095213495E+03  0.12095213495E+03  0.00000000000E+00 0. -1.
         24    1    1    2    0    0 -0.22472134672E+02 -0.16529398815E+02 -0.26511309434E+02  0.89153145453E+02  0.80419002446E+02 0.  1.
          1    1    1    2  501    0  0.56353415758E+00  0.35498044878E+02 -0.55347718756E+02  0.65755598487E+02  0.00000000000E+00 0. -1.
         -2    1    1    2    0  502  0.21908600514E+02 -0.18968646062E+02  0.79179699499E+02  0.84316197273E+02  0.00000000000E+00 0.  1.
<mgrwt>
<rscale>  2 0.74800936E+02</rscale>
<asrwt>0</asrwt>
<pdfrwt beam="1">  1       21 0.18195816E-01 0.74800936E+02</pdfrwt>
<pdfrwt beam="2">  1       21 0.18608021E-01 0.74800936E+02</pdfrwt>
<totfact> 0.72633928E+05</totfact>
</mgrwt>
</event>
<event>
 5    1  0.2051810E+000  0.6592102E+02  0.7546771E-02  0.1374540E+00
         21   -1    0    0  501  502  0.00000000000E+00  0.00000000000E+00  0.95378769974E+01  0.95378769974E+01  0.00000000000E+00 0. -1.
         21   -1    0    0  502  503 -0.00000000000E+00 -0.00000000000E+00 -0.75747218372E+03  0.75747218372E+03  0.00000000000E+00 0. -1.
         24    1    1    2    0    0 -0.52355025962E+01  0.22082665120E+02 -0.57955481805E+03  0.58554765619E+03  0.80419002446E+02 0. -1.
          1    1    1    2  501    0  0.24043297689E+02 -0.13892542658E+02 -0.27443661470E+02  0.39041483836E+02  0.00000000000E+00 0. -1.
         -2    1    1    2    0  503 -0.18807795093E+02 -0.81901224625E+01 -0.14093582720E+03  0.14242092069E+03  0.00000000000E+00 0.  1.
<mgrwt>
<rscale>  2 0.65921023E+02</rscale>
<asrwt>0</asrwt>
<pdfrwt beam="1">  1       21 0.14673657E-02 0.65921023E+02</pdfrwt>
<pdfrwt beam="2">  1       21 0.11653419E+00 0.65921023E+02</pdfrwt>
<totfact> 0.11548998E+06</totfact>
</mgrwt>
</event>
<event>
 5    1  0.2051810E+000  0.8190669E+02  0.7546771E-02  0.1323726E+00
         21   -1    0    0  503  502  0.00000000000E+00  0.00000000000E+00  0.20146807091E+03  0.20146807091E+03  0.00000000000E+00 0. -1.
         21   -1    0    0  501  503 -0.00000000000E+00 -0.00000000000E+00 -0.10304696803E+03  0.10304696803E+03  0.00000000000E+00 0. -1.
         24    1    1    2    0    0 -0.61173246067E+01 -0.15182777318E+02  0.14787339419E+03  0.16912035671E+03  0.80419002446E+02 0. -1.
          1    1    1    2  501    0  0.42760219306E+02  0.20126325240E+01 -0.76722682932E+02  0.87857026589E+02  0.00000000000E+00 0. -1.
         -2    1    1    2    0  502 -0.36642894699E+02  0.13170144794E+02  0.27270391613E+02  0.47537655648E+02  0.00000000000E+00 0.  1.
<mgrwt>
<rscale>  2 0.81906686E+02</rscale>
<asrwt>0</asrwt>
<pdfrwt beam="1">  1       21 0.30995088E-01 0.81906686E+02</pdfrwt>
<pdfrwt beam="2">  1       21 0.15853380E-01 0.81906686E+02</pdfrwt>
<totfact> 0.36077744E+05</totfact>
</mgrwt>
</event>
<event>
 5    1  0.2051810E+000  0.1165832E+03  0.7546771E-02  0.1248842E+00
         21   -1    0    0  503  502  0.00000000000E+00  0.00000000000E+00  0.22201621933E+03  0.22201621933E+03  0.00000000000E+00 0.  1.
         21   -1    0    0  501  503 -0.00000000000E+00 -0.00000000000E+00 -0.44202953116E+03  0.44202953116E+03  0.00000000000E+00 0. -1.
         24    1    1    2    0    0 -0.28201195059E+02  0.69894401087E+02 -0.38582697582E+03  0.40126077049E+03  0.80419002446E+02 0. -1.
          1    1    1    2  501    0 -0.16712590089E+02  0.17804035737E+02 -0.32907451855E+02  0.40977978765E+02  0.00000000000E+00 0. -1.
         -2    1    1    2    0  502  0.44913785148E+02 -0.87698436825E+02  0.19872111585E+03  0.22180700124E+03  0.00000000000E+00 0.  1.
<mgrwt>
<rscale>  2 0.11658325E+03</rscale>
<asrwt>0</asrwt>
<pdfrwt beam="1">  1       21 0.34156342E-01 0.11658325E+03</pdfrwt>
<pdfrwt beam="2">  1       21 0.68004542E-01 0.11658325E+03</pdfrwt>
<totfact> 0.17207639E+04</totfact>
</mgrwt>
</event>
<event>
 5    1  0.2051810E+000  0.1046774E+03  0.7546771E-02  0.1270756E+00
         21   -1    0    0  501  502  0.00000000000E+00  0.00000000000E+00  0.12190295725E+03  0.12190295725E+03  0.00000000000E+00 0. -1.
         21   -1    0    0  502  503 -0.00000000000E+00 -0.00000000000E+00 -0.17897784615E+03  0.17897784615E+03  0.00000000000E+00 0.  1.
         24    1    1    2    0    0 -0.22864184182E+02  0.52108151893E+02 -0.39162526754E+02  0.10601391356E+03  0.80419002446E+02 0.  1.
          1    1    1    2  501    0  0.11414515761E+02  0.27833040700E+02  0.69578000644E+02  0.75802819857E+02  0.00000000000E+00 0. -1.
         -2    1    1    2    0  503  0.11449668421E+02 -0.79941192593E+02 -0.87490362789E+02  0.11906406998E+03  0.00000000000E+00 0.  1.
<mgrwt>
<rscale>  2 0.10467745E+03</rscale>
<asrwt>0</asrwt>
<pdfrwt beam="1">  1       21 0.18754301E-01 0.10467745E+03</pdfrwt>
<pdfrwt beam="2">  1       21 0.27535053E-01 0.10467745E+03</pdfrwt>
<totfact> 0.33270526E+05</totfact>
</mgrwt>
</event>
<event>
 5    1  0.2051810E+000  0.9355981E+02  0.7546771E-02  0.1294453E+00
         21   -1    0    0  501  502  0.00000000000E+00  0.00000000000E+00  0.38988284361E+02  0.38988284361E+02  0.00000000000E+00 0. -1.
         21   -1    0    0  502  503 -0.00000000000E+00 -0.00000000000E+00 -0.50664174348E+03  0.50664174348E+03  0.00000000000E+00 0.  1.
         24    1    1    2    0    0 -0.49416912838E+01  0.63415980622E+00 -0.80766182800E+02  0.11408424392E+03  0.80419002446E+02 0.  0.
          1    1    1    2  501    0  0.52985310173E+02 -0.17231286887E+02 -0.17100567913E+02  0.58281984908E+02  0.00000000000E+00 0. -1.
         -2    1    1    2    0  503 -0.48043618889E+02  0.16597127081E+02 -0.36978670840E+03  0.37326379901E+03  0.00000000000E+00 0.  1.
<mgrwt>
<rscale>  2 0.93559815E+02</rscale>
<asrwt>0</asrwt>
<pdfrwt beam="1">  1       21 0.59981978E-02 0.93559815E+02</pdfrwt>
<pdfrwt beam="2">  1       21 0.77944881E-01 0.93559815E+02</pdfrwt>
<totfact> 0.29452468E+05</totfact>
</mgrwt>
</event>
<event>
 5    1  0.2051810E+000  0.1022801E+03  0.7546771E-02  0.1275573E+00
         21   -1    0    0  503  502  0.00000000000E+00  0.00000000000E+00  0.33369246695E+03  0.33369246695E+03  0.00000000000E+00 0. -1.
         21   -1    0    0  501  503 -0.00000000000E+00 -0.00000000000E+00 -0.52783982471E+02  0.52783982471E+02  0.00000000000E+00 0. -1.
         24    1    1    2    0    0  0.56503775163E+02  0.61801775357E+02  0.36012211457E+02  0.12155752290E+03  0.80419002446E+02 0. -1.
          1    1    1    2  501    0 -0.18823357645E+02 -0.41702052935E+02  0.61714465904E+02  0.76824835268E+02  0.00000000000E+00 0. -1.
         -2    1    1    2    0  502 -0.37680417518E+02 -0.20099722422E+02  0.18318180712E+03  0.18809409126E+03  0.00000000000E+00 0.  1.
<mgrwt>
<rscale>  2 0.10228010E+03</rscale>
<asrwt>0</asrwt>
<pdfrwt beam="1">  1       21 0.51337301E-01 0.10228010E+03</pdfrwt>
<pdfrwt beam="2">  1       21 0.81206129E-02 0.10228010E+03</pdfrwt>
<totfact> 0.42728124E+05</totfact>
</mgrwt>
</event>
<event>
 5    1  0.2051810E+000  0.9623893E+02  0.7546771E-02  0.1288410E+00
         21   -1    0    0  503  502  0.00000000000E+00  0.00000000000E+00  0.30545465357E+03  0.30545465357E+03  0.00000000000E+00 0. -1.
         21   -1    0    0  501  503 -0.00000000000E+00 -0.00000000000E+00 -0.53724582121E+02  0.53724582121E+02  0.00000000000E+00 0.  1.
         24    1    1    2    0    0 -0.25068468124E+02 -0.66431225017E+02  0.24587767724E+02  0.11006048350E+03  0.80419002446E+02 0.  1.
          1    1    1    2  501    0  0.46810357549E+01  0.64556028291E+02  0.92310380689E+02  0.11274129353E+03  0.00000000000E+00 0. -1.
         -2    1    1    2    0  502  0.20387432369E+02  0.18751967254E+01  0.13483192304E+03  0.13637745866E+03  0.00000000000E+00 0.  1.
<mgrwt>
<rscale>  2 0.96238930E+02</rscale>
<asrwt>0</asrwt>
<pdfrwt beam="1">  1       21 0.46993023E-01 0.96238930E+02</pdfrwt>
<pdfrwt beam="2">  1       21 0.82653205E-02 0.96238930E+02</pdfrwt>
<totfact> 0.49679867E+05</totfact>
</mgrwt>
</event>
<event>
 5    1  0.2051810E+000  0.1003727E+03  0.7546771E-02  0.1279514E+00
         21   -1    0    0  501  502  0.00000000000E+00  0.00000000000E+00  0.11666135381E+03  0.11666135381E+03  0.00000000000E+00 0. -1.
         21   -1    0    0  502  503 -0.00000000000E+00 -0.00000000000E+00 -0.12910776388E+03  0.12910776388E+03  0.00000000000E+00 0.  1.
         24    1    1    2    0    0 -0.62836772120E+02  0.19404811137E+02  0.43412238613E+01  0.10397628963E+03  0.80419002446E+02 0.  1.
          1    1    1    2  501    0  0.64910874761E+01 -0.37206751601E+02  0.43341140316E+02  0.57488529510E+02  0.00000000000E+00 0. -1.
         -2    1    1    2    0  503  0.56345684644E+02  0.17801940464E+02 -0.60128774247E+02  0.84304298554E+02  0.00000000000E+00 0.  1.
<mgrwt>
<rscale>  2 0.10037267E+03</rscale>
<asrwt>0</asrwt>
<pdfrwt beam="1">  1       21 0.17947901E-01 0.10037267E+03</pdfrwt>
<pdfrwt beam="2">  1       21 0.19862733E-01 0.10037267E+03</pdfrwt>
<totfact> 0.66310581E+05</totfact>
</mgrwt>
</event>
<event>
 5    1  0.2051810E+000  0.7620548E+02  0.7546771E-02  0.1340178E+00
         21   -1    0    0  503  502  0.00000000000E+00  0.00000000000E+00  0.23175498619E+02  0.23175498619E+02  0.00000000000E+00 0. -1.
         21   -1    0    0  501  503 -0.00000000000E+00 -0.00000000000E+00 -0.31645845880E+03  0.31645845880E+03  0.00000000000E+00 0.  1.
         24    1    1    2    0    0  0.52378412674E+02 -0.15178018789E+02 -0.14969644542E+03  0.17846599703E+03  0.80419002446E+02 0.  1.
          1    1    1    2  501    0 -0.19841133796E+02  0.10266222355E+02 -0.11628322239E+03  0.11840968593E+03  0.00000000000E+00 0. -1.
         -2    1    1    2    0  502 -0.32537278877E+02  0.49117964338E+01 -0.27303292367E+02  0.42758274463E+02  0.00000000000E+00 0.  1.
<mgrwt>
<rscale>  2 0.76205483E+02</rscale>
<asrwt>0</asrwt>
<pdfrwt beam="1">  1       21 0.35654617E-02 0.76205483E+02</pdfrwt>
<pdfrwt beam="2">  1       21 0.48685912E-01 0.76205483E+02</pdfrwt>
<totfact> 0.18754387E+06</totfact>
</mgrwt>
</event>
<event>
 5    1  0.2051810E+000  0.6688581E+02  0.7546771E-02  0.1371015E+00
         21   -1    0    0  501  502  0.00000000000E+00  0.00000000000E+00  0.32063299291E+03  0.32063299291E+03  0.00000000000E+00 0.  1.
         21   -1    0    0  502  503 -0.00000000000E+00 -0.00000000000E+00 -0.43198242238E+02  0.43198242238E+02  0.00000000000E+00 0.  1.
         24    1    1    2    0    0 -0.38515914938E+02  0.80818891624E+01  0.26146691294E+03  0.27637104615E+03  0.80419002446E+02 0.  1.
          1    1    1    2  501    0  0.17248244599E+02 -0.13942908612E+02  0.45488437986E+02  0.50607357496E+02  0.00000000000E+00 0. -1.
         -2    1    1    2    0  503  0.21267670339E+02  0.58610194497E+01 -0.29520600249E+02  0.36852831502E+02  0.00000000000E+00 0.  1.
<mgrwt>
<rscale>  2 0.66885813E+02</rscale>
<asrwt>0</asrwt>
<pdfrwt beam="1">  1       21 0.49328151E-01 0.66885813E+02</pdfrwt>
<pdfrwt beam="2">  1       21 0.66458836E-02 0.66885813E+02</pdfrwt>
<totfact> 0.65054167E+05</totfact>
</mgrwt>
</event>
<event>
 5    1  0.2051810E+000  0.6864183E+02  0.7546771E-02  0.1364773E+00
         21   -1    0    0  503  502  0.00000000000E+00  0.00000000000E+00  0.12937246584E+03  0.12937246584E+03  0.00000000000E+00 0. -1.
         21   -1    0    0  501  503 -0.00000000000E+00 -0.00000000000E+00 -0.53966272382E+02  0.53966272382E+02  0.00000000000E+00 0.  1.
         24    1    1    2    0    0  0.27159598484E+02 -0.30622220555E+02  0.23059180514E+01  0.90265704417E+02  0.80419002446E+02 0.  1.
          1    1    1    2  501    0 -0.75484541552E+01  0.25759049552E+02  0.13310009996E+02  0.29961044042E+02  0.00000000000E+00 0. -1.
         -2    1    1    2    0  502 -0.19611144329E+02  0.48631710025E+01  0.59790265410E+02  0.63111989764E+02  0.00000000000E+00 0.  1.
<mgrwt>
<rscale>  2 0.68641828E+02</rscale>
<asrwt>0</asrwt>
<pdfrwt beam="1">  1       21 0.19903456E-01 0.68641828E+02</pdfrwt>
<pdfrwt beam="2">  1       21 0.83025035E-02 0.68641828E+02</pdfrwt>
<totfact> 0.25257328E+06</totfact>
</mgrwt>
</event>
<event>
 5    1  0.2051810E+000  0.8394231E+02  0.7546771E-02  0.1318222E+00
         21   -1    0    0  503  502  0.00000000000E+00  0.00000000000E+00  0.26885659291E+02  0.26885659291E+02  0.00000000000E+00 0.  1.
         21   -1    0    0  501  503 -0.00000000000E+00 -0.00000000000E+00 -0.16614709972E+04  0.16614709972E+04  0.00000000000E+00 0. -1.
         24    1    1    2    0    0 -0.32762371390E+02 -0.16143902323E+02 -0.24733849074E+03  0.26263576207E+03  0.80419002446E+02 0. -1.
          1    1    1    2  501    0  0.44285910187E+02  0.35685163228E+02 -0.13990106633E+04  0.14001662433E+04  0.00000000000E+00 0. -1.
         -2    1    1    2    0  502 -0.11523538796E+02 -0.19541260905E+02  0.11763816162E+02  0.25554651140E+02  0.00000000000E+00 0.  1.
<mgrwt>
<rscale>  2 0.83942314E+02</rscale>
<asrwt>0</asrwt>
<pdfrwt beam="1">  1       21 0.41362545E-02 0.83942314E+02</pdfrwt>
<pdfrwt beam="2">  1       21 0.25561097E+00 0.83942314E+02</pdfrwt>
<totfact> 0.25950714E+04</totfact>
</mgrwt>
</event>
<event>
 5    1  0.2051810E+000  0.1950100E+03  0.7546771E-02  0.1154019E+00
         21   -1    0    0  503  502  0.00000000000E+00  0.00000000000E+00  0.28606444202E+03  0.28606444202E+03  0.00000000000E+00 0.  1.
         21   -1    0    0  501  503 -0.00000000000E+00 -0.00000000000E+00 -0.18055737498E+03  0.18055737498E+03  0.00000000000E+00 0.  1.
         24    1    1    2    0    0  0.96558479997E+01 -0.11485409063E+03  0.93828206801E+01  0.14085436029E+03  0.80419002446E+02 0.  1.
          1    1    1    2  501    0 -0.36704137593E+02 -0.61197878794E+02 -0.56644629303E+02  0.91109758611E+02  0.00000000000E+00 0. -1.
         -2    1    1    2    0  502  0.27048289593E+02  0.17605196942E+03  0.15276887566E+03  0.23465769810E+03  0.00000000000E+00 0.  1.
<mgrwt>
<rscale>  2 0.19501002E+03</rscale>
<asrwt>0</asrwt>
<pdfrwt beam="1">  1       21 0.44009914E-01 0.19501002E+03</pdfrwt>
<pdfrwt beam="2">  1       21 0.27778058E-01 0.19501002E+03</pdfrwt>
<totfact> 0.61300789E+04</totfact>
</mgrwt>
</event>
<event>
 5    1  0.2051810E+000  0.7972438E+02  0.7546771E-02  0.1329835E+00
         21   -1    0    0  501  502  0.00000000000E+00  0.00000000000E+00  0.10054834996E+04  0.10054834996E+04  0.00000000000E+00 0. -1.
         21   -1    0    0  502  503 -0.00000000000E+00 -0.00000000000E+00 -0.63687227486E+01  0.63687227486E+01  0.00000000000E+00 0.  1.
         24    1    1    2    0    0 -0.20956342735E+02  0.33374822000E+02  0.56670559729E+03  0.57373817809E+03  0.80419002446E+02 0.  0.
          1    1    1    2  501    0  0.41145495247E+02 -0.23996761255E+02  0.26726917953E+03  0.27148040566E+03  0.00000000000E+00 0. -1.
         -2    1    1    2    0  503 -0.20189152512E+02 -0.93780607455E+01  0.16514000001E+03  0.16663363857E+03  0.00000000000E+00 0.  1.
<mgrwt>
<rscale>  2 0.79724377E+02</rscale>
<asrwt>0</asrwt>
<pdfrwt beam="1">  1       21 0.15468964E+00 0.79724377E+02</pdfrwt>
<pdfrwt beam="2">  1       21 0.97980430E-03 0.79724377E+02</pdfrwt>
<totfact> 0.10853699E+06</totfact>
</mgrwt>
</event>
<event>
 5    1  0.2051810E+000  0.8318803E+02  0.7546771E-02  0.1320240E+00
         21   -1    0    0  501  502  0.00000000000E+00  0.00000000000E+00  0.73635608874E+03  0.73635608874E+03  0.00000000000E+00 0. -1.
         21   -1    0    0  502  503 -0.00000000000E+00 -0.00000000000E+00 -0.10484645939E+02  0.10484645939E+02  0.00000000000E+00 0. -1.
         24    1    1    2    0    0 -0.13968389869E+02  0.70863384927E+01  0.40571512091E+03  0.41390494972E+03  0.80419002446E+02 0. -1.
          1    1    1    2  501    0  0.48272718073E+02 -0.12128447619E+02  0.24717778772E+03  0.25213927361E+03  0.00000000000E+00 0. -1.
         -2    1    1    2    0  503 -0.34304328204E+02  0.50421091264E+01  0.72978534169E+02  0.80796511357E+02  0.00000000000E+00 0.  1.
<mgrwt>
<rscale>  2 0.83188034E+02</rscale>
<asrwt>0</asrwt>
<pdfrwt beam="1">  1       21 0.11328551E+00 0.83188034E+02</pdfrwt>
<pdfrwt beam="2">  1       21 0.16130230E-02 0.83188034E+02</pdfrwt>
<totfact> 0.10666773E+06</totfact>
</mgrwt>
</event>
<event>
 5    1  0.2201203E+000  0.1486970E+03  0.7546771E-02  0.1202083E+00
         21   -1    0    0  503  502  0.00000000000E+00  0.00000000000E+00  0.10251834819E+03  0.10251834819E+03  0.00000000000E+00 0. -1.
         21   -1    0    0  501  503 -0.00000000000E+00 -0.00000000000E+00 -0.33409856462E+03  0.33409856462E+03  0.00000000000E+00 0.  1.
         24    1    1    2    0    0 -0.26874492964E+02  0.45871494610E+02 -0.75503781651E+02  0.12245190643E+03  0.80419002446E+02 0.  0.
          1    1    1    2  501    0  0.45152964297E+02 -0.11812508758E+03 -0.19319467817E+03  0.23090368159E+03  0.00000000000E+00 0. -1.
         -2    1    1    2    0  502 -0.18278471333E+02  0.72253592975E+02  0.37118243387E+02  0.83261324780E+02  0.00000000000E+00 0.  1.
<mgrwt>
<rscale>  2 0.14869705E+03</rscale>
<asrwt>0</asrwt>
<pdfrwt beam="1">  1       21 0.15772054E-01 0.14869705E+03</pdfrwt>
<pdfrwt beam="2">  1       21 0.51399779E-01 0.14869705E+03</pdfrwt>
<totfact> 0.13073803E+05</totfact>
</mgrwt>
</event>
<event>
 5    1  0.2051810E+000  0.6655655E+02  0.7546771E-02  0.1372210E+00
         21   -1    0    0  501  502  0.00000000000E+00  0.00000000000E+00  0.14572619754E+03  0.14572619754E+03  0.00000000000E+00 0. -1.
         21   -1    0    0  502  503 -0.00000000000E+00 -0.00000000000E+00 -0.44357739058E+02  0.44357739058E+02  0.00000000000E+00 0.  1.
         24    1    1    2    0    0  0.99844176307E+01  0.12267838337E+01  0.22735935305E+02  0.84174415962E+02  0.80419002446E+02 0.  0.
          1    1    1    2  501    0 -0.21791540542E+02  0.18825571123E+02  0.77426157810E+02  0.82608009784E+02  0.00000000000E+00 0. -1.
         -2    1    1    2    0  503  0.11807122911E+02 -0.20052354957E+02  0.12063653703E+01  0.23301510856E+02  0.00000000000E+00 0.  1.
<mgrwt>
<rscale>  2 0.66556547E+02</rscale>
<asrwt>0</asrwt>
<pdfrwt beam="1">  1       21 0.22419415E-01 0.66556547E+02</pdfrwt>
<pdfrwt beam="2">  1       21 0.68242676E-02 0.66556547E+02</pdfrwt>
<totfact> 0.28250344E+06</totfact>
</mgrwt>
</event>
<event>
 5    1  0.2051810E+000  0.7581303E+02  0.7546771E-02  0.1341372E+00
         21   -1    0    0  501  502  0.00000000000E+00  0.00000000000E+00  0.10913169376E+02  0.10913169376E+02  0.00000000000E+00 0.  1.
         21   -1    0    0  502  503 -0.00000000000E+00 -0.00000000000E+00 -0.84177485891E+03  0.84177485891E+03  0.00000000000E+00 0. -1.
         24    1    1    2    0    0  0.16220556661E+02 -0.18930206628E+02 -0.31996435125E+03  0.33085625460E+03  0.80419002446E+02 0.  1.
          1    1    1    2  501    0 -0.40000183896E+02  0.17346488940E+02 -0.87466442461E+02  0.97730721613E+02  0.00000000000E+00 0. -1.
         -2    1    1    2    0  503  0.23779627235E+02  0.15837176877E+01 -0.42343089582E+03  0.42410105207E+03  0.00000000000E+00 0.  1.
<mgrwt>
<rscale>  2 0.75813033E+02</rscale>
<asrwt>0</asrwt>
<pdfrwt beam="1">  1       21 0.16789499E-02 0.75813033E+02</pdfrwt>
<pdfrwt beam="2">  1       21 0.12950377E+00 0.75813033E+02</pdfrwt>
<totfact> 0.72596692E+05</totfact>
</mgrwt>
</event>
<event>
 5    1  0.2051810E+000  0.6587690E+02  0.7546771E-02  0.1374703E+00
         21   -1    0    0  501  502  0.00000000000E+00  0.00000000000E+00  0.12173602262E+02  0.12173602262E+02  0.00000000000E+00 0.  1.
         21   -1    0    0  502  503 -0.00000000000E+00 -0.00000000000E+00 -0.12777031062E+04  0.12777031062E+04  0.00000000000E+00 0.  1.
         24    1    1    2    0    0 -0.29112138185E+02  0.89260700531E+01 -0.20327207186E+03  0.22071235232E+03  0.80419002446E+02 0.  1.
          1    1    1    2  501    0  0.93377554026E+01 -0.20728261958E+02 -0.35544513111E+02  0.42193209549E+02  0.00000000000E+00 0. -1.
         -2    1    1    2    0  503  0.19774382782E+02  0.11802191905E+02 -0.10267129189E+04  0.10269711465E+04  0.00000000000E+00 0.  1.
<mgrwt>
<rscale>  2 0.65876904E+02</rscale>
<asrwt>0</asrwt>
<pdfrwt beam="1">  1       21 0.18728614E-02 0.65876904E+02</pdfrwt>
<pdfrwt beam="2">  1       21 0.19656976E+00 0.65876904E+02</pdfrwt>
<totfact> 0.20897670E+05</totfact>
</mgrwt>
</event>
<event>
 5    1  0.2051810E+000  0.1041640E+03  0.7546771E-02  0.1271775E+00
         21   -1    0    0  503  502  0.00000000000E+00  0.00000000000E+00  0.24261700202E+03  0.24261700202E+03  0.00000000000E+00 0. -1.
         21   -1    0    0  501  503 -0.00000000000E+00 -0.00000000000E+00 -0.54012010288E+02  0.54012010288E+02  0.00000000000E+00 0.  1.
         24    1    1    2    0    0  0.61674091569E+01 -0.86664296158E+02  0.11195243403E+03  0.16293956120E+03  0.80419002446E+02 0. -1.
          1    1    1    2  501    0  0.83188111135E+01  0.18997667010E+02 -0.98119793996E+01  0.22943166955E+02  0.00000000000E+00 0. -1.
         -2    1    1    2    0  502 -0.14486220270E+02  0.67666629148E+02  0.86464537108E+02  0.11074628416E+03  0.00000000000E+00 0.  1.
<mgrwt>
<rscale>  2 0.10416403E+03</rscale>
<asrwt>0</asrwt>
<pdfrwt beam="1">  1       21 0.37325692E-01 0.10416403E+03</pdfrwt>
<pdfrwt beam="2">  1       21 0.83095402E-02 0.10416403E+03</pdfrwt>
<totfact> 0.77993564E+05</totfact>
</mgrwt>
</event>
<event>
 5    1  0.2051810E+000  0.6671446E+02  0.7546771E-02  0.1371636E+00
         21   -1    0    0  501  502  0.00000000000E+00  0.00000000000E+00  0.14683804953E+03  0.14683804953E+03  0.00000000000E+00 0. -1.
         21   -1    0    0  502  503 -0.00000000000E+00 -0.00000000000E+00 -0.10221788743E+03  0.10221788743E+03  0.00000000000E+00 0.  1.
         24    1    1    2    0    0 -0.25590454817E+02 -0.53783422988E+01  0.12224463480E+02  0.85442679062E+02  0.80419002446E+02 0.  0.
          1    1    1    2  501    0  0.13314465571E+02 -0.18041810926E+02  0.93966373649E+02  0.96604665062E+02  0.00000000000E+00 0. -1.
         -2    1    1    2    0  503  0.12275989246E+02  0.23420153225E+02 -0.61570675039E+02  0.67008592835E+02  0.00000000000E+00 0.  1.
<mgrwt>
<rscale>  2 0.66714462E+02</rscale>
<asrwt>0</asrwt>
<pdfrwt beam="1">  1       21 0.22590469E-01 0.66714462E+02</pdfrwt>
<pdfrwt beam="2">  1       21 0.15725829E-01 0.66714462E+02</pdfrwt>
<totfact> 0.66100212E+05</totfact>
</mgrwt>
</event>
<event>
 5    1  0.2051810E+000  0.1119056E+03  0.7546771E-02  0.1257081E+00
         21   -1    0    0  503  502  0.00000000000E+00  0.00000000000E+00  0.33355833558E+03  0.33355833558E+03  0.00000000000E+00 0.  1.
         21   -1    0    0  501  503 -0.00000000000E+00 -0.00000000000E+00 -0.59010321180E+02  0.59010321180E+02  0.00000000000E+00 0. -1.
         24    1    1    2    0    0  0.64552003441E+02  0.12202634264E+02  0.18767701231E+03  0.21448949236E+03  0.80419002446E+02 0.  1.
          1    1    1    2  501    0  0.11109648129E+02  0.30938633875E+02 -0.21324079600E+02  0.39183411265E+02  0.00000000000E+00 0. -1.
         -2    1    1    2    0  502 -0.75661651571E+02 -0.43141268139E+02  0.10819508169E+03  0.13889575313E+03  0.00000000000E+00 0.  1.
<mgrwt>
<rscale>  2 0.11190563E+03</rscale>
<asrwt>0</asrwt>
<pdfrwt beam="1">  1       21 0.51316666E-01 0.11190563E+03</pdfrwt>
<pdfrwt beam="2">  1       21 0.90785112E-02 0.11190563E+03</pdfrwt>
<totfact> 0.35245223E+05</totfact>
</mgrwt>
</event>
<event>
 5    1  0.2051810E+000  0.1541039E+03  0.7546771E-02  0.1195519E+00
         21   -1    0    0  501  502  0.00000000000E+00  0.00000000000E+00  0.92636156324E+02  0.92636156324E+02  0.00000000000E+00 0. -1.
         21   -1    0    0  502  503 -0.00000000000E+00 -0.00000000000E+00 -0.72959994214E+03  0.72959994214E+03  0.00000000000E+00 0.  1.
         24    1    1    2    0    0 -0.58827761885E+02  0.20213385713E+02 -0.13191852690E+02  0.10252086355E+03  0.80419002446E+02 0.  0.
          1    1    1    2  501    0 -0.33245893830E+02 -0.86775088045E+02 -0.76882926225E+01  0.93243311853E+02  0.00000000000E+00 0. -1.
         -2    1    1    2    0  503  0.92073655715E+02  0.66561702332E+02 -0.61608364050E+03  0.62647192306E+03  0.00000000000E+00 0.  1.
<mgrwt>
<rscale>  2 0.15410393E+03</rscale>
<asrwt>0</asrwt>
<pdfrwt beam="1">  1       21 0.14251716E-01 0.15410393E+03</pdfrwt>
<pdfrwt beam="2">  1       21 0.11224615E+00 0.15410393E+03</pdfrwt>
<totfact> 0.27417290E+04</totfact>
</mgrwt>
</event>
<event>
 5    1  0.2051810E+000  0.7648181E+02  0.7546771E-02  0.1339343E+00
         21   -1    0    0  501  502  0.00000000000E+00  0.00000000000E+00  0.46576277950E+02  0.46576277950E+02  0.00000000000E+00 0. -1.
         21   -1    0    0  502  503 -0.00000000000E+00 -0.00000000000E+00 -0.10730276168E+04  0.10730276168E+04  0.00000000000E+00 0.  1.
         24    1    1    2    0    0 -0.93257305927E+01 -0.54465126940E+02 -0.39271021582E+03  0.40465040327E+03  0.80419002446E+02 0.  0.
          1    1    1    2  501    0  0.61248690469E+01  0.24488350342E+02  0.36311231759E+02  0.44223284310E+02  0.00000000000E+00 0. -1.
         -2    1    1    2    0  503  0.32008615458E+01  0.29976776598E+02 -0.67005235477E+03  0.67073020715E+03  0.00000000000E+00 0.  1.
<mgrwt>
<rscale>  2 0.76481807E+02</rscale>
<asrwt>0</asrwt>
<pdfrwt beam="1">  1       21 0.71655823E-02 0.76481807E+02</pdfrwt>
<pdfrwt beam="2">  1       21 0.16508115E+00 0.76481807E+02</pdfrwt>
<totfact> 0.36963883E+04</totfact>
</mgrwt>
</event>
<event>
 5    1  0.2051810E+000  0.9166184E+02  0.7546771E-02  0.1298876E+00
         21   -1    0    0  503  502  0.00000000000E+00  0.00000000000E+00  0.51185798661E+03  0.51185798661E+03  0.00000000000E+00 0.  1.
         21   -1    0    0  501  503 -0.00000000000E+00 -0.00000000000E+00 -0.38401546753E+02  0.38401546753E+02  0.00000000000E+00 0.  1.
         24    1    1    2    0    0 -0.55959755283E+02  0.47629449018E+02  0.12276190677E+03  0.16412726871E+03  0.80419002446E+02 0.  1.
          1    1    1    2  501    0  0.25426973427E+02 -0.14244763136E+02 -0.32338344020E+01  0.29324084630E+02  0.00000000000E+00 0. -1.
         -2    1    1    2    0  502  0.30532781856E+02 -0.33384685882E+02  0.35392836749E+03  0.35680818002E+03  0.00000000000E+00 0.  1.
<mgrwt>
<rscale>  2 0.91661845E+02</rscale>
<asrwt>0</asrwt>
<pdfrwt beam="1">  1       21 0.78747378E-01 0.91661845E+02</pdfrwt>
<pdfrwt beam="2">  1       21 0.59079306E-02 0.91661845E+02</pdfrwt>
<totfact> 0.29551896E+05</totfact>
</mgrwt>
</event>
<event>
 5    1  0.2051810E+000  0.9566830E+02  0.7546771E-02  0.1289678E+00
         21   -1    0    0  501  502  0.00000000000E+00  0.00000000000E+00  0.25547874966E+03  0.25547874966E+03  0.00000000000E+00 0. -1.
         21   -1    0    0  502  503 -0.00000000000E+00 -0.00000000000E+00 -0.50653773328E+02  0.50653773328E+02  0.00000000000E+00 0. -1.
         24    1    1    2    0    0 -0.16562157838E+02  0.74983247065E+02  0.18171761558E+03  0.21303825989E+03  0.80419002446E+02 0. -1.
          1    1    1    2  501    0  0.55204761508E+00 -0.52709189391E+02  0.34918380017E+02  0.63228606388E+02  0.00000000000E+00 0. -1.
         -2    1    1    2    0  503  0.16010110223E+02 -0.22274057674E+02 -0.11811019261E+02  0.29865656708E+02  0.00000000000E+00 0.  1.
<mgrwt>
<rscale>  2 0.95668299E+02</rscale>
<asrwt>0</asrwt>
<pdfrwt beam="1">  1       21 0.39304422E-01 0.95668299E+02</pdfrwt>
<pdfrwt beam="2">  1       21 0.77928884E-02 0.95668299E+02</pdfrwt>
<totfact> 0.78573748E+05</totfact>
</mgrwt>
</event>
<event>
 5    1  0.2051810E+000  0.8111200E+02  0.7546771E-02  0.1325925E+00
         21   -1    0    0  503  502  0.00000000000E+00  0.00000000000E+00  0.34806695622E+02  0.34806695622E+02  0.00000000000E+00 0.  1.
         21   -1    0    0  501  503 -0.00000000000E+00 -0.00000000000E+00 -0.23511636325E+03  0.23511636325E+03  0.00000000000E+00 0. -1.
         24    1    1    2    0    0 -0.79888678438E+00  0.43638718150E+02 -0.91560278253E+02  0.12944294670E+03  0.80419002446E+02 0.  1.
          1    1    1    2  501    0 -0.27239173262E+02 -0.17390149995E+02 -0.93894122643E+02  0.99300030936E+02  0.00000000000E+00 0. -1.
         -2    1    1    2    0  502  0.28038060046E+02 -0.26248568154E+02 -0.14855266736E+02  0.41180081242E+02  0.00000000000E+00 0.  1.
<mgrwt>
<rscale>  2 0.81111998E+02</rscale>
<asrwt>0</asrwt>
<pdfrwt beam="1">  1       21 0.53548764E-02 0.81111998E+02</pdfrwt>
<pdfrwt beam="2">  1       21 0.36171747E-01 0.81111998E+02</pdfrwt>
<totfact> 0.17342947E+06</totfact>
</mgrwt>
</event>
<event>
 5    1  0.2051810E+000  0.9214757E+02  0.7546771E-02  0.1297733E+00
         21   -1    0    0  501  502  0.00000000000E+00  0.00000000000E+00  0.81364230780E+02  0.81364230780E+02  0.00000000000E+00 0.  1.
         21   -1    0    0  502  503 -0.00000000000E+00 -0.00000000000E+00 -0.14031020696E+03  0.14031020696E+03  0.00000000000E+00 0. -1.
         24    1    1    2    0    0 -0.45472854183E+02  0.13694218154E+02 -0.49954197724E+02  0.10591482381E+03  0.80419002446E+02 0.  0.
          1    1    1    2  501    0  0.55596067891E+02  0.17355751326E+02  0.29494173590E+02  0.65284386685E+02  0.00000000000E+00 0. -1.
         -2    1    1    2    0  503 -0.10123213708E+02 -0.31049969479E+02 -0.38485952050E+02  0.50475227247E+02  0.00000000000E+00 0.  1.
<mgrwt>
<rscale>  2 0.92147568E+02</rscale>
<asrwt>0</asrwt>
<pdfrwt beam="1">  1       21 0.12517574E-01 0.92147568E+02</pdfrwt>
<pdfrwt beam="2">  1       21 0.21586185E-01 0.92147568E+02</pdfrwt>
<totfact> 0.10828816E+06</totfact>
</mgrwt>
</event>
<event>
 5    1  0.2051810E+000  0.1143332E+03  0.7546771E-02  0.1252750E+00
         21   -1    0    0  501  502  0.00000000000E+00  0.00000000000E+00  0.62011846811E+02  0.62011846811E+02  0.00000000000E+00 0. -1.
         21   -1    0    0  502  503 -0.00000000000E+00 -0.00000000000E+00 -0.51637636651E+03  0.51637636651E+03  0.00000000000E+00 0.  1.
         24    1    1    2    0    0  0.40905746426E+02  0.33250854003E+02 -0.11946866407E+03  0.15335865490E+03  0.80419002446E+02 0.  1.
          1    1    1    2  501    0  0.43433870581E+02 -0.58239817527E+01  0.27634988769E+02  0.51808420950E+02  0.00000000000E+00 0. -1.
         -2    1    1    2    0  503 -0.84339617007E+02 -0.27426872251E+02 -0.36253084439E+03  0.37322113747E+03  0.00000000000E+00 0.  1.
<mgrwt>
<rscale>  2 0.11433322E+03</rscale>
<asrwt>0</asrwt>
<pdfrwt beam="1">  1       21 0.95402842E-02 0.11433322E+03</pdfrwt>
<pdfrwt beam="2">  1       21 0.79442517E-01 0.11433322E+03</pdfrwt>
<totfact> 0.12687139E+05</totfact>
</mgrwt>
</event>
<event>
 5    1  0.2051810E+000  0.7807537E+02  0.7546771E-02  0.1334604E+00
         21   -1    0    0  503  502  0.00000000000E+00  0.00000000000E+00  0.11836868574E+02  0.11836868574E+02  0.00000000000E+00 0.  1.
         21   -1    0    0  501  503 -0.00000000000E+00 -0.00000000000E+00 -0.53118485236E+03  0.53118485236E+03  0.00000000000E+00 0. -1.
         24    1    1    2    0    0 -0.20642310844E+01 -0.18521126272E+02 -0.32130868240E+03  0.33174354328E+03  0.80419002446E+02 0. -1.
          1    1    1    2  501    0  0.30337505992E+02 -0.11423941473E+02 -0.89163352380E+02  0.94873463710E+02  0.00000000000E+00 0. -1.
         -2    1    1    2    0  502 -0.28273274907E+02  0.29945067746E+02 -0.10887594900E+03  0.11640471394E+03  0.00000000000E+00 0.  1.
<mgrwt>
<rscale>  2 0.78075365E+02</rscale>
<asrwt>0</asrwt>
<pdfrwt beam="1">  1       21 0.18210568E-02 0.78075365E+02</pdfrwt>
<pdfrwt beam="2">  1       21 0.81720743E-01 0.78075365E+02</pdfrwt>
<totfact> 0.18537994E+06</totfact>
</mgrwt>
</event>
<event>
 5    1  0.2051810E+000  0.6774161E+02  0.7546771E-02  0.1367946E+00
         21   -1    0    0  501  502  0.00000000000E+00  0.00000000000E+00  0.88093248823E+01  0.88093248823E+01  0.00000000000E+00 0.  1.
         21   -1    0    0  502  503 -0.00000000000E+00 -0.00000000000E+00 -0.58354721208E+03  0.58354721208E+03  0.00000000000E+00 0. -1.
         24    1    1    2    0    0 -0.41455561483E+01 -0.23395196963E+02 -0.30765487287E+03  0.31887812347E+03  0.80419002446E+02 0.  0.
          1    1    1    2  501    0 -0.20466942081E+02  0.54871018903E+01 -0.50477020647E+02  0.54744256490E+02  0.00000000000E+00 0. -1.
         -2    1    1    2    0  503  0.24612498229E+02  0.17908095072E+02 -0.21660599368E+03  0.21873415699E+03  0.00000000000E+00 0.  1.
<mgrwt>
<rscale>  2 0.67741609E+02</rscale>
<asrwt>0</asrwt>
<pdfrwt beam="1">  1       21 0.13552804E-02 0.67741609E+02</pdfrwt>
<pdfrwt beam="2">  1       21 0.89776514E-01 0.67741609E+02</pdfrwt>
<totfact> 0.23842661E+06</totfact>
</mgrwt>
</event>
<event>
 5    1  0.2051810E+000  0.7563364E+02  0.7546771E-02  0.1341920E+00
         21   -1    0    0  503  502  0.00000000000E+00  0.00000000000E+00  0.86091170588E+02  0.86091170588E+02  0.00000000000E+00 0. -1.
         21   -1    0    0  501  503 -0.00000000000E+00 -0.00000000000E+00 -0.18900428263E+03  0.18900428263E+03  0.00000000000E+00 0. -1.
         24    1    1    2    0    0  0.36699235725E+02 -0.36633653567E+02  0.40775532732E+02  0.10401306889E+03  0.80419002446E+02 0. -1.
          1    1    1    2  501    0 -0.28843084831E+02  0.14888382004E+02 -0.14434762052E+03  0.14795209701E+03  0.00000000000E+00 0. -1.
         -2    1    1    2    0  502 -0.78561508937E+01  0.21745271564E+02  0.65897574219E+00  0.23130287315E+02  0.00000000000E+00 0.  1.
<mgrwt>
<rscale>  2 0.75633645E+02</rscale>
<asrwt>0</asrwt>
<pdfrwt beam="1">  1       21 0.13244796E-01 0.75633645E+02</pdfrwt>
<pdfrwt beam="2">  1       21 0.29077582E-01 0.75633645E+02</pdfrwt>
<totfact> 0.56040609E+05</totfact>
</mgrwt>
</event>
<event>
 5    1  0.2051810E+000  0.1511444E+03  0.7546771E-02  0.1199074E+00
         21   -1    0    0  501  502  0.00000000000E+00  0.00000000000E+00  0.57533673901E+03  0.57533673901E+03  0.00000000000E+00 0. -1.
         21   -1    0    0  502  503 -0.00000000000E+00 -0.00000000000E+00 -0.53459549824E+02  0.53459549824E+02  0.00000000000E+00 0.  1.
         24    1    1    2    0    0 -0.25866695193E+02 -0.16703823889E+02  0.27844962310E+03  0.29146099604E+03  0.80419002446E+02 0.  0.
          1    1    1    2  501    0  0.82693393456E+02  0.90790863254E+02  0.19921569932E+03  0.23402579565E+03  0.00000000000E+00 0. -1.
         -2    1    1    2    0  503 -0.56826698263E+02 -0.74087039365E+02  0.44211866756E+02  0.10330949714E+03  0.00000000000E+00 0.  1.
<mgrwt>
<rscale>  2 0.15114440E+03</rscale>
<asrwt>0</asrwt>
<pdfrwt beam="1">  1       21 0.88513340E-01 0.15114440E+03</pdfrwt>
<pdfrwt beam="2">  1       21 0.82245465E-02 0.15114440E+03</pdfrwt>
<totfact> 0.12682535E+05</totfact>
</mgrwt>
</event>
<event>
 5    1  0.2051810E+000  0.8304578E+02  0.7546771E-02  0.1320624E+00
         21   -1    0    0  503  502  0.00000000000E+00  0.00000000000E+00  0.17458724562E+02  0.17458724562E+02  0.00000000000E+00 0. -1.
         21   -1    0    0  501  503 -0.00000000000E+00 -0.00000000000E+00 -0.58274287413E+03  0.58274287413E+03  0.00000000000E+00 0. -1.
         24    1    1    2    0    0  0.35248586345E+01  0.59444364096E+02 -0.36602194952E+03  0.37945400319E+03  0.80419002446E+02 0. -1.
          1    1    1    2  501    0 -0.16121165692E+02 -0.34508030765E+02 -0.18593204410E+03  0.18979310101E+03  0.00000000000E+00 0. -1.
         -2    1    1    2    0  502  0.12596307058E+02 -0.24936333332E+02 -0.13330155955E+02  0.30954494493E+02  0.00000000000E+00 0.  1.
<mgrwt>
<rscale>  2 0.83045779E+02</rscale>
<asrwt>0</asrwt>
<pdfrwt beam="1">  1       21 0.26859575E-02 0.83045779E+02</pdfrwt>
<pdfrwt beam="2">  1       21 0.89652754E-01 0.83045779E+02</pdfrwt>
<totfact> 0.81028342E+05</totfact>
</mgrwt>
</event>
<event>
 5    1  0.2051810E+000  0.1437750E+03  0.7546771E-02  0.1208338E+00
         21   -1    0    0  501  502  0.00000000000E+00  0.00000000000E+00  0.51305218542E+03  0.51305218542E+03  0.00000000000E+00 0. -1.
         21   -1    0    0  502  503 -0.00000000000E+00 -0.00000000000E+00 -0.51149575409E+02  0.51149575409E+02  0.00000000000E+00 0. -1.
         24    1    1    2    0    0 -0.11612860777E+03 -0.31446132232E+02  0.33698231321E+03  0.36674106417E+03  0.80419002446E+02 0. -1.
          1    1    1    2  501    0  0.11111030628E+03  0.11912876635E+00  0.12288502799E+03  0.16566908118E+03  0.00000000000E+00 0. -1.
         -2    1    1    2    0  503  0.50183014824E+01  0.31327003466E+02  0.20352688074E+01  0.31791615484E+02  0.00000000000E+00 0.  1.
<mgrwt>
<rscale>  2 0.14377502E+03</rscale>
<asrwt>0</asrwt>
<pdfrwt beam="1">  1       21 0.78931102E-01 0.14377502E+03</pdfrwt>
<pdfrwt beam="2">  1       21 0.78691658E-02 0.14377502E+03</pdfrwt>
<totfact> 0.17783307E+05</totfact>
</mgrwt>
</event>
<event>
 5    1  0.2051810E+000  0.6543482E+02  0.7546771E-02  0.1376343E+00
         21   -1    0    0  501  502  0.00000000000E+00  0.00000000000E+00  0.33977920634E+03  0.33977920634E+03  0.00000000000E+00 0. -1.
         21   -1    0    0  502  503 -0.00000000000E+00 -0.00000000000E+00 -0.37483888216E+02  0.37483888216E+02  0.00000000000E+00 0.  1.
         24    1    1    2    0    0  0.17083442641E+02  0.17349068974E+02  0.17471545882E+02  0.85821355598E+02  0.80419002446E+02 0.  1.
          1    1    1    2  501    0 -0.21477330484E+02  0.66220631680E+01  0.23400217368E+03  0.23507901806E+03  0.00000000000E+00 0. -1.
         -2    1    1    2    0  503  0.43938878423E+01 -0.23971132142E+02  0.50821598562E+02  0.56362720897E+02  0.00000000000E+00 0.  1.
<mgrwt>
<rscale>  2 0.65434824E+02</rscale>
<asrwt>0</asrwt>
<pdfrwt beam="1">  1       21 0.52273722E-01 0.65434824E+02</pdfrwt>
<pdfrwt beam="2">  1       21 0.57667522E-02 0.65434824E+02</pdfrwt>
<totfact> 0.73262829E+05</totfact>
</mgrwt>
</event>
<event>
 5    1  0.2051810E+000  0.1185153E+03  0.7546771E-02  0.1245567E+00
         21   -1    0    0  503  502  0.00000000000E+00  0.00000000000E+00  0.60326605494E+02  0.60326605494E+02  0.00000000000E+00 0. -1.
         21   -1    0    0  501  503 -0.00000000000E+00 -0.00000000000E+00 -0.39888521649E+03  0.39888521649E+03  0.00000000000E+00 0.  1.
         24    1    1    2    0    0  0.83419571644E+02 -0.23286178338E+02 -0.23345534469E+03  0.26166712624E+03  0.80419002446E+02 0.  1.
          1    1    1    2  501    0 -0.44059928759E+02  0.53439505129E+02 -0.12596637210E+03  0.14375181714E+03  0.00000000000E+00 0. -1.
         -2    1    1    2    0  502 -0.39359642885E+02 -0.30153326791E+02  0.20863105800E+02  0.53792878602E+02  0.00000000000E+00 0.  1.
<mgrwt>
<rscale>  2 0.11851530E+03</rscale>
<asrwt>0</asrwt>
<pdfrwt beam="1">  1       21 0.92810161E-02 0.11851530E+03</pdfrwt>
<pdfrwt beam="2">  1       21 0.61366957E-01 0.11851530E+03</pdfrwt>
<totfact> 0.23292989E+05</totfact>
</mgrwt>
</event>
<event>
 5    1  0.2051810E+000  0.1001432E+03  0.7546771E-02  0.1279995E+00
         21   -1    0    0  501  502  0.00000000000E+00  0.00000000000E+00  0.92143902117E+02  0.92143902117E+02  0.00000000000E+00 0. -1.
         21   -1    0    0  502  503 -0.00000000000E+00 -0.00000000000E+00 -0.13644222156E+03  0.13644222156E+03  0.00000000000E+00 0.  1.
         24    1    1    2    0    0  0.15176248667E+02 -0.64669478663E+01  0.15928870009E+02  0.83624666172E+02  0.80419002446E+02 0. -1.
          1    1    1    2  501    0 -0.19523987109E+02  0.60711852378E+02  0.22294303336E-01  0.63773941299E+02  0.00000000000E+00 0. -1.
         -2    1    1    2    0  503  0.43477384412E+01 -0.54244904512E+02 -0.60249483759E+02  0.81187516209E+02  0.00000000000E+00 0.  1.
<mgrwt>
<rscale>  2 0.10014319E+03</rscale>
<asrwt>0</asrwt>
<pdfrwt beam="1">  1       21 0.14175985E-01 0.10014319E+03</pdfrwt>
<pdfrwt beam="2">  1       21 0.20991111E-01 0.10014319E+03</pdfrwt>
<totfact> 0.91583326E+05</totfact>
</mgrwt>
</event>
<event>
 5    1  0.2051810E+000  0.8926036E+02  0.7546771E-02  0.1304653E+00
         21   -1    0    0  503  502  0.00000000000E+00  0.00000000000E+00  0.39207193403E+03  0.39207193403E+03  0.00000000000E+00 0. -1.
         21   -1    0    0  501  503 -0.00000000000E+00 -0.00000000000E+00 -0.83730685765E+02  0.83730685765E+02  0.00000000000E+00 0. -1.
         24    1    1    2    0    0  0.44157836360E+02 -0.31027990322E+02  0.25743083338E+03  0.27504636086E+03  0.80419002446E+02 0. -1.
          1    1    1    2  501    0 -0.33177773231E+02  0.49849396275E+02 -0.61745132038E+02  0.86012721594E+02  0.00000000000E+00 0. -1.
         -2    1    1    2    0  502 -0.10980063129E+02 -0.18821405953E+02  0.11265554693E+03  0.11474353734E+03  0.00000000000E+00 0.  1.
<mgrwt>
<rscale>  2 0.89260360E+02</rscale>
<asrwt>0</asrwt>
<pdfrwt beam="1">  1       21 0.60318758E-01 0.89260360E+02</pdfrwt>
<pdfrwt beam="2">  1       21 0.12881644E-01 0.89260360E+02</pdfrwt>
<totfact> 0.13747659E+05</totfact>
</mgrwt>
</event>
<event>
 5    1  0.2051810E+000  0.7652318E+02  0.7546771E-02  0.1339218E+00
         21   -1    0    0  503  502  0.00000000000E+00  0.00000000000E+00  0.14281278467E+04  0.14281278467E+04  0.00000000000E+00 0. -1.
         21   -1    0    0  501  503 -0.00000000000E+00 -0.00000000000E+00 -0.53716779413E+01  0.53716779413E+01  0.00000000000E+00 0. -1.
         24    1    1    2    0    0  0.29135957402E+01 -0.33727539024E+02  0.56972659005E+03  0.57636936013E+03  0.80419002446E+02 0.  0.
          1    1    1    2  501    0  0.25045893191E+02  0.46881403377E+01  0.10622483284E+03  0.10923822837E+03  0.00000000000E+00 0. -1.
         -2    1    1    2    0  502 -0.27959488932E+02  0.29039398686E+02  0.74680474590E+03  0.74789193617E+03  0.00000000000E+00 0.  1.
<mgrwt>
<rscale>  2 0.76523184E+02</rscale>
<asrwt>0</asrwt>
<pdfrwt beam="1">  1       21 0.21971167E+00 0.76523184E+02</pdfrwt>
<pdfrwt beam="2">  1       21 0.82641313E-03 0.76523184E+02</pdfrwt>
<totfact> 0.54308843E+05</totfact>
</mgrwt>
</event>
<event>
 5    1  0.2051810E+000  0.1349180E+03  0.7546771E-02  0.1220335E+00
         21   -1    0    0  501  502  0.00000000000E+00  0.00000000000E+00  0.76934665497E+03  0.76934665497E+03  0.00000000000E+00 0. -1.
         21   -1    0    0  502  503 -0.00000000000E+00 -0.00000000000E+00 -0.32865607999E+02  0.32865607999E+02  0.00000000000E+00 0.  1.
         24    1    1    2    0    0  0.67565061595E+02  0.53961352934E+02  0.15348965014E+03  0.19365731025E+03  0.80419002446E+02 0.  1.
          1    1    1    2  501    0  0.18314463537E+02  0.27724353103E+02  0.29875201638E+03  0.30059412273E+03  0.00000000000E+00 0. -1.
         -2    1    1    2    0  503 -0.85879525133E+02 -0.81685706037E+02  0.28423938045E+03  0.30796082999E+03  0.00000000000E+00 0.  1.
<mgrwt>
<rscale>  2 0.13491803E+03</rscale>
<asrwt>0</asrwt>
<pdfrwt beam="1">  1       21 0.11836101E+00 0.13491803E+03</pdfrwt>
<pdfrwt beam="2">  1       21 0.50562480E-02 0.13491803E+03</pdfrwt>
<totfact> 0.14748176E+05</totfact>
</mgrwt>
</event>
<event>
 5    1  0.2051810E+000  0.8536211E+02  0.7546771E-02  0.1314488E+00
         21   -1    0    0  501  502  0.00000000000E+00  0.00000000000E+00  0.15585157481E+02  0.15585157481E+02  0.00000000000E+00 0. -1.
         21   -1    0    0  502  503 -0.00000000000E+00 -0.00000000000E+00 -0.57017458724E+03  0.57017458724E+03  0.00000000000E+00 0. -1.
         24    1    1    2    0    0 -0.44756322168E+02 -0.39275994581E+02 -0.38133700585E+03  0.39424720685E+03  0.80419002446E+02 0. -1.
          1    1    1    2  501    0  0.24251345333E+02  0.43426014862E+02 -0.68278712711E+02  0.84474428834E+02  0.00000000000E+00 0. -1.
         -2    1    1    2    0  503  0.20504976835E+02 -0.41500202815E+01 -0.10497371119E+03  0.10703810903E+03  0.00000000000E+00 0.  1.
<mgrwt>
<rscale>  2 0.85362114E+02</rscale>
<asrwt>0</asrwt>
<pdfrwt beam="1">  1       21 0.23977167E-02 0.85362114E+02</pdfrwt>
<pdfrwt beam="2">  1       21 0.87719160E-01 0.85362114E+02</pdfrwt>
<totfact> 0.10220982E+06</totfact>
</mgrwt>
</event>
<event>
 5    1  0.2051810E+000  0.7241005E+02  0.7546771E-02  0.1352084E+00
         21   -1    0    0  503  502  0.00000000000E+00  0.00000000000E+00  0.35358516139E+03  0.35358516139E+03  0.00000000000E+00 0.  1.
         21   -1    0    0  501  503 -0.00000000000E+00 -0.00000000000E+00 -0.51823222242E+02  0.51823222242E+02  0.00000000000E+00 0. -1.
         24    1    1    2    0    0 -0.12602852590E+02 -0.37210909601E+02  0.72217921558E+01  0.89793395765E+02  0.80419002446E+02 0.  0.
          1    1    1    2  501    0 -0.11805105335E+02  0.25803026815E+02  0.10431912047E+02  0.30232126848E+02  0.00000000000E+00 0. -1.
         -2    1    1    2    0  502  0.24407957925E+02  0.11407882786E+02  0.28410823494E+03  0.28538286102E+03  0.00000000000E+00 0.  1.
<mgrwt>
<rscale>  2 0.72410054E+02</rscale>
<asrwt>0</asrwt>
<pdfrwt beam="1">  1       21 0.54397716E-01 0.72410054E+02</pdfrwt>
<pdfrwt beam="2">  1       21 0.79728036E-02 0.72410054E+02</pdfrwt>
<totfact> 0.39234733E+05</totfact>
</mgrwt>
</event>
<event>
 5    1  0.2051810E+000  0.1101118E+03  0.7546771E-02  0.1260363E+00
         21   -1    0    0  501  502  0.00000000000E+00  0.00000000000E+00  0.19609548893E+02  0.19609548893E+02  0.00000000000E+00 0.  1.
         21   -1    0    0  502  503 -0.00000000000E+00 -0.00000000000E+00 -0.77373708985E+03  0.77373708985E+03  0.00000000000E+00 0.  1.
         24    1    1    2    0    0 -0.45979382379E+02 -0.52383355988E+02 -0.51825642112E+03  0.52906998930E+03  0.80419002446E+02 0.  1.
          1    1    1    2  501    0  0.13949572673E+01 -0.24708241903E+02 -0.24105544502E+02  0.34547364580E+02  0.00000000000E+00 0. -1.
         -2    1    1    2    0  503  0.44584425112E+02  0.77091597891E+02 -0.21176557534E+03  0.22972928487E+03  0.00000000000E+00 0.  1.
<mgrwt>
<rscale>  2 0.11011183E+03</rscale>
<asrwt>0</asrwt>
<pdfrwt beam="1">  1       21 0.30168536E-02 0.11011183E+03</pdfrwt>
<pdfrwt beam="2">  1       21 0.11903648E+00 0.11011183E+03</pdfrwt>
<totfact> 0.34522769E+05</totfact>
</mgrwt>
</event>
<event>
 5    1  0.2051810E+000  0.8317325E+02  0.7546771E-02  0.1320280E+00
         21   -1    0    0  503  502  0.00000000000E+00  0.00000000000E+00  0.22016588264E+02  0.22016588264E+02  0.00000000000E+00 0.  1.
         21   -1    0    0  501  503 -0.00000000000E+00 -0.00000000000E+00 -0.10348966931E+04  0.10348966931E+04  0.00000000000E+00 0.  1.
         24    1    1    2    0    0 -0.34869087181E+02 -0.13182928321E+02 -0.34404415493E+03  0.35527910062E+03  0.80419002446E+02 0.  1.
          1    1    1    2  501    0  0.93533989726E+01  0.39771457835E+02 -0.66307856445E+03  0.66433608781E+03  0.00000000000E+00 0. -1.
         -2    1    1    2    0  502  0.25515688208E+02 -0.26588529515E+02 -0.57573854084E+01  0.37298092890E+02  0.00000000000E+00 0.  1.
<mgrwt>
<rscale>  2 0.83173247E+02</rscale>
<asrwt>0</asrwt>
<pdfrwt beam="1">  1       21 0.33871673E-02 0.83173247E+02</pdfrwt>
<pdfrwt beam="2">  1       21 0.15921488E+00 0.83173247E+02</pdfrwt>
<totfact> 0.13979101E+05</totfact>
</mgrwt>
</event>
<event>
 5    1  0.2051810E+000  0.8030323E+02  0.7546771E-02  0.1328193E+00
         21   -1    0    0  501  502  0.00000000000E+00  0.00000000000E+00  0.69016837484E+03  0.69016837484E+03  0.00000000000E+00 0. -1.
         21   -1    0    0  502  503 -0.00000000000E+00 -0.00000000000E+00 -0.17960124003E+02  0.17960124003E+02  0.00000000000E+00 0. -1.
         24    1    1    2    0    0 -0.21682712858E+02  0.35622725721E+02  0.25722745683E+03  0.27271285104E+03  0.80419002446E+02 0.  0.
          1    1    1    2  501    0  0.40966275552E+02 -0.25221492708E+02  0.41017292099E+03  0.41298448463E+03  0.00000000000E+00 0. -1.
         -2    1    1    2    0  503 -0.19283562693E+02 -0.10401233014E+02  0.48078730201E+01  0.22431163174E+02  0.00000000000E+00 0.  1.
<mgrwt>
<rscale>  2 0.80303230E+02</rscale>
<asrwt>0</asrwt>
<pdfrwt beam="1">  1       21 0.10617973E+00 0.80303230E+02</pdfrwt>
<pdfrwt beam="2">  1       21 0.27630965E-02 0.80303230E+02</pdfrwt>
<totfact> 0.52516669E+05</totfact>
</mgrwt>
</event>
<event>
 5    1  0.2453072E+000  0.6437388E+02  0.7546771E-02  0.1380342E+00
         21   -1    0    0  501  502  0.00000000000E+00  0.00000000000E+00  0.50391749323E+03  0.50391749323E+03  0.00000000000E+00 0.  1.
         21   -1    0    0  502  503 -0.00000000000E+00 -0.00000000000E+00 -0.47614959179E+02  0.47614959179E+02  0.00000000000E+00 0.  1.
         24    1    1    2    0    0  0.11967764931E+01  0.14826530554E+02  0.45874020641E+03  0.46597323015E+03  0.80419002446E+02 0.  1.
          1    1    1    2  501    0 -0.22178738321E+02 -0.13448301751E+02  0.34436064304E+02  0.43111434426E+02  0.00000000000E+00 0. -1.
         -2    1    1    2    0  503  0.20981961828E+02 -0.13782288031E+01 -0.36873736663E+02  0.42447787837E+02  0.00000000000E+00 0.  1.
<mgrwt>
<rscale>  2 0.64373879E+02</rscale>
<asrwt>0</asrwt>
<pdfrwt beam="1">  1       21 0.77525765E-01 0.64373879E+02</pdfrwt>
<pdfrwt beam="2">  1       21 0.73253787E-02 0.64373879E+02</pdfrwt>
<totfact> 0.21456294E+05</totfact>
</mgrwt>
</event>
<event>
 5    1  0.2051810E+000  0.6761997E+02  0.7546771E-02  0.1368379E+00
         21   -1    0    0  503  502  0.00000000000E+00  0.00000000000E+00  0.21921285375E+02  0.21921285375E+02  0.00000000000E+00 0. -1.
         21   -1    0    0  501  503 -0.00000000000E+00 -0.00000000000E+00 -0.35625295953E+03  0.35625295953E+03  0.00000000000E+00 0.  1.
         24    1    1    2    0    0 -0.19417028285E+01 -0.18065293647E+02 -0.17287892543E+03  0.19153188731E+03  0.80419002446E+02 0.  1.
          1    1    1    2  501    0  0.21371232172E+02 -0.56794580432E+01 -0.15331369351E+03  0.15490020796E+03  0.00000000000E+00 0. -1.
         -2    1    1    2    0  502 -0.19429529344E+02  0.23744751691E+02 -0.81390552101E+01  0.31742149629E+02  0.00000000000E+00 0.  1.
<mgrwt>
<rscale>  2 0.67619974E+02</rscale>
<asrwt>0</asrwt>
<pdfrwt beam="1">  1       21 0.33725056E-02 0.67619974E+02</pdfrwt>
<pdfrwt beam="2">  1       21 0.54808144E-01 0.67619974E+02</pdfrwt>
<totfact> 0.16050005E+06</totfact>
</mgrwt>
</event>
<event>
 5    1  0.2051810E+000  0.9674415E+02  0.7546771E-02  0.1287295E+00
         21   -1    0    0  503  502  0.00000000000E+00  0.00000000000E+00  0.20884372345E+03  0.20884372345E+03  0.00000000000E+00 0.  1.
         21   -1    0    0  501  503 -0.00000000000E+00 -0.00000000000E+00 -0.65024662211E+02  0.65024662211E+02  0.00000000000E+00 0. -1.
         24    1    1    2    0    0 -0.24676378170E+02  0.12377444404E+02  0.90188954084E+02  0.12394913539E+03  0.80419002446E+02 0.  1.
          1    1    1    2  501    0 -0.17842507261E+02 -0.49124783914E+02 -0.21145191237E+02  0.56380125686E+02  0.00000000000E+00 0. -1.
         -2    1    1    2    0  502  0.42518885431E+02  0.36747339510E+02  0.74775298391E+02  0.93539124589E+02  0.00000000000E+00 0.  1.
<mgrwt>
<rscale>  2 0.96744151E+02</rscale>
<asrwt>0</asrwt>
<pdfrwt beam="1">  1       21 0.32129803E-01 0.96744151E+02</pdfrwt>
<pdfrwt beam="2">  1       21 0.10003794E-01 0.96744151E+02</pdfrwt>
<totfact> 0.75761036E+05</totfact>
</mgrwt>
</event>
<event>
 5    1  0.2051810E+000  0.9807369E+02  0.7546771E-02  0.1284400E+00
         21   -1    0    0  503  502  0.00000000000E+00  0.00000000000E+00  0.71541529639E+03  0.71541529639E+03  0.00000000000E+00 0. -1.
         21   -1    0    0  501  503 -0.00000000000E+00 -0.00000000000E+00 -0.14693408282E+02  0.14693408282E+02  0.00000000000E+00 0.  1.
         24    1    1    2    0    0 -0.25417544267E+00  0.55882032834E+02  0.35889207550E+03  0.37201290839E+03  0.80419002446E+02 0. -1.
          1    1    1    2  501    0 -0.24652451286E+02  0.10891332986E+02  0.41931877595E+02  0.49846232027E+02  0.00000000000E+00 0. -1.
         -2    1    1    2    0  502  0.24906626729E+02 -0.66773365820E+02  0.29989793501E+03  0.30824956425E+03  0.00000000000E+00 0.  1.
<mgrwt>
<rscale>  2 0.98073688E+02</rscale>
<asrwt>0</asrwt>
<pdfrwt beam="1">  1       21 0.11006386E+00 0.98073688E+02</pdfrwt>
<pdfrwt beam="2">  1       21 0.22605249E-02 0.98073688E+02</pdfrwt>
<totfact> 0.66618331E+05</totfact>
</mgrwt>
</event>
<event>
 5    1  0.2051810E+000  0.7031421E+02  0.7546771E-02  0.1359028E+00
         21   -1    0    0  503  502  0.00000000000E+00  0.00000000000E+00  0.29718356388E+03  0.29718356388E+03  0.00000000000E+00 0. -1.
         21   -1    0    0  501  503 -0.00000000000E+00 -0.00000000000E+00 -0.18854170506E+02  0.18854170506E+02  0.00000000000E+00 0.  1.
         24    1    1    2    0    0  0.22537766181E+02 -0.32154336764E+02  0.20499799942E+03  0.22368113018E+03  0.80419002446E+02 0. -1.
          1    1    1    2  501    0 -0.12051005781E+00  0.28406363423E+02  0.21072992375E+02  0.35369577510E+02  0.00000000000E+00 0. -1.
         -2    1    1    2    0  502 -0.22417256123E+02  0.37479733409E+01  0.52258401582E+02  0.56987026700E+02  0.00000000000E+00 0.  1.
<mgrwt>
<rscale>  2 0.70314214E+02</rscale>
<asrwt>0</asrwt>
<pdfrwt beam="1">  1       21 0.45720545E-01 0.70314214E+02</pdfrwt>
<pdfrwt beam="2">  1       21 0.29006418E-02 0.70314214E+02</pdfrwt>
<totfact> 0.29621017E+06</totfact>
</mgrwt>
</event>
<event>
 5    1  0.2051810E+000  0.9076843E+02  0.7546771E-02  0.1301001E+00
         21   -1    0    0  501  502  0.00000000000E+00  0.00000000000E+00  0.63468989566E+02  0.63468989566E+02  0.00000000000E+00 0. -1.
         21   -1    0    0  502  503 -0.00000000000E+00 -0.00000000000E+00 -0.17171192580E+03  0.17171192580E+03  0.00000000000E+00 0.  1.
         24    1    1    2    0    0  0.39294223330E+01 -0.39034357168E+00 -0.22648064011E+02  0.83640561247E+02  0.80419002446E+02 0.  0.
          1    1    1    2  501    0 -0.47401409008E+02  0.22248510119E+02  0.81851958167E+00  0.52369454387E+02  0.00000000000E+00 0. -1.
         -2    1    1    2    0  503  0.43471986675E+02 -0.21858166548E+02 -0.86413391805E+02  0.99170899732E+02  0.00000000000E+00 0.  1.
<mgrwt>
<rscale>  2 0.90768434E+02</rscale>
<asrwt>0</asrwt>
<pdfrwt beam="1">  1       21 0.97644601E-02 0.90768434E+02</pdfrwt>
<pdfrwt beam="2">  1       21 0.26417219E-01 0.90768434E+02</pdfrwt>
<totfact> 0.11462848E+06</totfact>
</mgrwt>
</event>
<event>
 5    1  0.2051810E+000  0.9694464E+02  0.7546771E-02  0.1286855E+00
         21   -1    0    0  501  502  0.00000000000E+00  0.00000000000E+00  0.90634377202E+03  0.90634377202E+03  0.00000000000E+00 0.  1.
         21   -1    0    0  502  503 -0.00000000000E+00 -0.00000000000E+00 -0.14317745191E+02  0.14317745191E+02  0.00000000000E+00 0.  1.
         24    1    1    2    0    0  0.75657445953E+02 -0.52964282670E+01  0.34595498569E+03  0.36318613596E+03  0.80419002446E+02 0.  1.
          1    1    1    2  501    0 -0.34827742394E+02 -0.14798616809E+02  0.44530720466E+03  0.44691215828E+03  0.00000000000E+00 0. -1.
         -2    1    1    2    0  503 -0.40829703559E+02  0.20095045076E+02  0.10076383648E+03  0.11056322296E+03  0.00000000000E+00 0.  1.
<mgrwt>
<rscale>  2 0.96944641E+02</rscale>
<asrwt>0</asrwt>
<pdfrwt beam="1">  1       21 0.13943746E+00 0.96944641E+02</pdfrwt>
<pdfrwt beam="2">  1       21 0.22027308E-02 0.96944641E+02</pdfrwt>
<totfact> 0.39074839E+05</totfact>
</mgrwt>
</event>
<event>
 5    1  0.2051810E+000  0.9449248E+02  0.7546771E-02  0.1292323E+00
         21   -1    0    0  501  502  0.00000000000E+00  0.00000000000E+00  0.17499986926E+04  0.17499986926E+04  0.00000000000E+00 0. -1.
         21   -1    0    0  502  503 -0.00000000000E+00 -0.00000000000E+00 -0.94351712752E+01  0.94351712752E+01  0.00000000000E+00 0.  1.
         24    1    1    2    0    0  0.91823371641E+01  0.22719375065E+02  0.35775935922E+03  0.36750436784E+03  0.80419002446E+02 0.  0.
          1    1    1    2  501    0  0.30552925071E+02 -0.48663867001E+02  0.12422912153E+04  0.12436193617E+04  0.00000000000E+00 0. -1.
         -2    1    1    2    0  503 -0.39735262235E+02  0.25944491936E+02  0.14051294683E+03  0.14831013436E+03  0.00000000000E+00 0.  1.
<mgrwt>
<rscale>  2 0.94492479E+02</rscale>
<asrwt>0</asrwt>
<pdfrwt beam="1">  1       21 0.26923031E+00 0.94492479E+02</pdfrwt>
<pdfrwt beam="2">  1       21 0.14515662E-02 0.94492479E+02</pdfrwt>
<totfact> 0.11618091E+05</totfact>
</mgrwt>
</event>
<event>
 5    1  0.4620608E+000  0.1675606E+03  0.7546771E-02  0.1180416E+00
         21   -1    0    0  501  502  0.00000000000E+00  0.00000000000E+00  0.77256650547E+02  0.77256650547E+02  0.00000000000E+00 0. -1.
         21   -1    0    0  502  503 -0.00000000000E+00 -0.00000000000E+00 -0.14985048221E+04  0.14985048221E+04  0.00000000000E+00 0.  1.
         24    1    1    2    0    0  0.29019934815E+01  0.21436105445E+01 -0.94746114639E+02  0.12432642047E+03  0.80419002446E+02 0.  0.
          1    1    1    2  501    0  0.34675594563E+02  0.12100064659E+03 -0.74255295534E+01  0.12609001476E+03  0.00000000000E+00 0. -1.
         -2    1    1    2    0  503 -0.37577588044E+02 -0.12314425713E+03 -0.13190765273E+04  0.13253450374E+04  0.00000000000E+00 0.  1.
<mgrwt>
<rscale>  2 0.16756057E+03</rscale>
<asrwt>0</asrwt>
<pdfrwt beam="1">  1       21 0.11885639E-01 0.16756057E+03</pdfrwt>
<pdfrwt beam="2">  1       21 0.23053919E+00 0.16756057E+03</pdfrwt>
<totfact> 0.53188314E+03</totfact>
</mgrwt>
</event>
<event>
 5    1  0.2051810E+000  0.6645545E+02  0.7546771E-02  0.1372579E+00
         21   -1    0    0  501  502  0.00000000000E+00  0.00000000000E+00  0.20113702565E+02  0.20113702565E+02  0.00000000000E+00 0. -1.
         21   -1    0    0  502  503 -0.00000000000E+00 -0.00000000000E+00 -0.36986300533E+03  0.36986300533E+03  0.00000000000E+00 0. -1.
         24    1    1    2    0    0 -0.26776646510E+02 -0.38501977326E+01 -0.29484548793E+03  0.30681083835E+03  0.80419002446E+02 0. -1.
          1    1    1    2  501    0  0.16843892531E+02  0.21799928675E+02 -0.34389325937E+01  0.27762922454E+02  0.00000000000E+00 0. -1.
         -2    1    1    2    0  503  0.99327539788E+01 -0.17949730942E+02 -0.51464882242E+02  0.55402947094E+02  0.00000000000E+00 0.  1.
<mgrwt>
<rscale>  2 0.66455446E+02</rscale>
<asrwt>0</asrwt>
<pdfrwt beam="1">  1       21 0.30944160E-02 0.66455446E+02</pdfrwt>
<pdfrwt beam="2">  1       21 0.56901997E-01 0.66455446E+02</pdfrwt>
<totfact> 0.17066426E+06</totfact>
</mgrwt>
</event>
<event>
 5    1  0.2051810E+000  0.6652055E+02  0.7546771E-02  0.1372341E+00
         21   -1    0    0  501  502  0.00000000000E+00  0.00000000000E+00  0.13861254596E+02  0.13861254596E+02  0.00000000000E+00 0. -1.
         21   -1    0    0  502  503 -0.00000000000E+00 -0.00000000000E+00 -0.46741548117E+03  0.46741548117E+03  0.00000000000E+00 0. -1.
         24    1    1    2    0    0  0.54623299855E+01  0.40520415833E+02 -0.40305247225E+03  0.41302572860E+03  0.80419002446E+02 0. -1.
          1    1    1    2  501    0  0.35972460150E+01 -0.20984349021E+02 -0.12826486186E+02  0.24855619698E+02  0.00000000000E+00 0. -1.
         -2    1    1    2    0  503 -0.90595760005E+01 -0.19536066812E+02 -0.37675268145E+02  0.43395387470E+02  0.00000000000E+00 0.  1.
<mgrwt>
<rscale>  2 0.66520547E+02</rscale>
<asrwt>0</asrwt>
<pdfrwt beam="1">  1       21 0.21325008E-02 0.66520547E+02</pdfrwt>
<pdfrwt beam="2">  1       21 0.71910072E-01 0.66520547E+02</pdfrwt>
<totfact> 0.18938965E+06</totfact>
</mgrwt>
</event>
<event>
 5    1  0.2051810E+000  0.6575836E+02  0.7546771E-02  0.1375141E+00
         21   -1    0    0  501  502  0.00000000000E+00  0.00000000000E+00  0.53433384840E+02  0.53433384840E+02  0.00000000000E+00 0. -1.
         21   -1    0    0  502  503 -0.00000000000E+00 -0.00000000000E+00 -0.45223486772E+03  0.45223486772E+03  0.00000000000E+00 0.  1.
         24    1    1    2    0    0 -0.35299230698E+01 -0.13190216783E+02 -0.16459012094E+03  0.18369421886E+03  0.80419002446E+02 0. -1.
          1    1    1    2  501    0  0.25632979154E+02  0.10423309497E+02  0.39020242609E+02  0.47835910511E+02  0.00000000000E+00 0. -1.
         -2    1    1    2    0  503 -0.22103056084E+02  0.27669072859E+01 -0.27323160454E+03  0.27413812319E+03  0.00000000000E+00 0.  1.
<mgrwt>
<rscale>  2 0.65758360E+02</rscale>
<asrwt>0</asrwt>
<pdfrwt beam="1">  1       21 0.82205210E-02 0.65758360E+02</pdfrwt>
<pdfrwt beam="2">  1       21 0.69574593E-01 0.65758360E+02</pdfrwt>
<totfact> 0.22281319E+05</totfact>
</mgrwt>
</event>
<event>
 5    1  0.2051810E+000  0.7568769E+02  0.7546771E-02  0.1341755E+00
         21   -1    0    0  503  502  0.00000000000E+00  0.00000000000E+00  0.30626873401E+03  0.30626873401E+03  0.00000000000E+00 0.  1.
         21   -1    0    0  501  503 -0.00000000000E+00 -0.00000000000E+00 -0.34166768021E+02  0.34166768021E+02  0.00000000000E+00 0.  1.
         24    1    1    2    0    0  0.34820831604E+02  0.15513016002E+01  0.25785424852E+03  0.27234339773E+03  0.80419002446E+02 0.  1.
          1    1    1    2  501    0 -0.12536610121E+02  0.25658427143E+02 -0.33706558261E+01  0.28755569851E+02  0.00000000000E+00 0. -1.
         -2    1    1    2    0  502 -0.22284221483E+02 -0.27209728743E+02  0.17618373297E+02  0.39336534456E+02  0.00000000000E+00 0.  1.
<mgrwt>
<rscale>  2 0.75687691E+02</rscale>
<asrwt>0</asrwt>
<pdfrwt beam="1">  1       21 0.47118265E-01 0.75687691E+02</pdfrwt>
<pdfrwt beam="2">  1       21 0.52564261E-02 0.75687691E+02</pdfrwt>
<totfact> 0.10577864E+06</totfact>
</mgrwt>
</event>
<event>
 5    1  0.2051810E+000  0.7603281E+02  0.7546771E-02  0.1340702E+00
         21   -1    0    0  501  502  0.00000000000E+00  0.00000000000E+00  0.16550936040E+03  0.16550936040E+03  0.00000000000E+00 0. -1.
         21   -1    0    0  502  503 -0.00000000000E+00 -0.00000000000E+00 -0.85455627576E+02  0.85455627576E+02  0.00000000000E+00 0. -1.
         24    1    1    2    0    0  0.29349078181E+02 -0.33149578553E+02 -0.23657576440E+02  0.94800631990E+02  0.80419002446E+02 0. -1.
          1    1    1    2  501    0 -0.24032234223E+02 -0.25535035761E+01  0.11564713950E+03  0.11814537459E+03  0.00000000000E+00 0. -1.
         -2    1    1    2    0  503 -0.53168439579E+01  0.35703082130E+02 -0.11935830233E+02  0.38018981399E+02  0.00000000000E+00 0.  1.
<mgrwt>
<rscale>  2 0.76032806E+02</rscale>
<asrwt>0</asrwt>
<pdfrwt beam="1">  1       21 0.25462979E-01 0.76032806E+02</pdfrwt>
<pdfrwt beam="2">  1       21 0.13147020E-01 0.76032806E+02</pdfrwt>
<totfact> 0.72860985E+05</totfact>
</mgrwt>
</event>
<event>
 5    1  0.2051810E+000  0.1079511E+03  0.7546771E-02  0.1264412E+00
         21   -1    0    0  503  502  0.00000000000E+00  0.00000000000E+00  0.22293741017E+03  0.22293741017E+03  0.00000000000E+00 0.  1.
         21   -1    0    0  501  503 -0.00000000000E+00 -0.00000000000E+00 -0.15019067661E+03  0.15019067661E+03  0.00000000000E+00 0. -1.
         24    1    1    2    0    0  0.24147490168E+02  0.77483198199E+02  0.27424069815E+02  0.11749911848E+03  0.80419002446E+02 0.  1.
          1    1    1    2  501    0 -0.34947773954E+02 -0.14650866272E+02 -0.94577647215E+02  0.10188683006E+03  0.00000000000E+00 0. -1.
         -2    1    1    2    0  502  0.10800283786E+02 -0.62832331927E+02  0.13990031096E+03  0.15374213824E+03  0.00000000000E+00 0.  1.
<mgrwt>
<rscale>  2 0.10795114E+03</rscale>
<asrwt>0</asrwt>
<pdfrwt beam="1">  1       21 0.34298063E-01 0.10795114E+03</pdfrwt>
<pdfrwt beam="2">  1       21 0.23106258E-01 0.10795114E+03</pdfrwt>
<totfact> 0.14819523E+05</totfact>
</mgrwt>
</event>
<event>
 5    1  0.2051810E+000  0.6495582E+02  0.7546771E-02  0.1378138E+00
         21   -1    0    0  501  502  0.00000000000E+00  0.00000000000E+00  0.90470156657E+02  0.90470156657E+02  0.00000000000E+00 0. -1.
         21   -1    0    0  502  503 -0.00000000000E+00 -0.00000000000E+00 -0.11989320134E+03  0.11989320134E+03  0.00000000000E+00 0.  1.
         24    1    1    2    0    0  0.73866983023E+01 -0.28689710913E+02  0.57840489093E+02  0.10339439519E+03  0.80419002446E+02 0. -1.
          1    1    1    2  501    0  0.12306405947E+02  0.17992227903E+02 -0.59104235958E+01  0.22585415633E+02  0.00000000000E+00 0. -1.
         -2    1    1    2    0  503 -0.19693104249E+02  0.10697483010E+02 -0.81353110178E+02  0.84383547172E+02  0.00000000000E+00 0.  1.
<mgrwt>
<rscale>  2 0.64955825E+02</rscale>
<asrwt>0</asrwt>
<pdfrwt beam="1">  1       21 0.13918486E-01 0.64955825E+02</pdfrwt>
<pdfrwt beam="2">  1       21 0.18445108E-01 0.64955825E+02</pdfrwt>
<totfact> 0.11845740E+06</totfact>
</mgrwt>
</event>
<event>
 5    1  0.2051810E+000  0.7368374E+02  0.7546771E-02  0.1347996E+00
         21   -1    0    0  501  502  0.00000000000E+00  0.00000000000E+00  0.47479869855E+02  0.47479869855E+02  0.00000000000E+00 0. -1.
         21   -1    0    0  502  503 -0.00000000000E+00 -0.00000000000E+00 -0.96496068479E+03  0.96496068479E+03  0.00000000000E+00 0.  1.
         24    1    1    2    0    0 -0.22626443454E+02 -0.24973470223E+01 -0.17272141205E+03  0.19188041803E+03  0.80419002446E+02 0.  0.
          1    1    1    2  501    0 -0.19612565407E+02  0.80223938012E+01  0.34310515399E+02  0.40326455225E+02  0.00000000000E+00 0. -1.
         -2    1    1    2    0  503  0.42239008861E+02 -0.55250467789E+01 -0.77906991828E+03  0.78023368139E+03  0.00000000000E+00 0.  1.
<mgrwt>
<rscale>  2 0.73683738E+02</rscale>
<asrwt>0</asrwt>
<pdfrwt beam="1">  1       21 0.73045959E-02 0.73683738E+02</pdfrwt>
<pdfrwt beam="2">  1       21 0.14845548E+00 0.73683738E+02</pdfrwt>
<totfact> 0.47128530E+04</totfact>
</mgrwt>
</event>
<event>
 5    1  0.2051810E+000  0.9219518E+02  0.7546771E-02  0.1297621E+00
         21   -1    0    0  501  502  0.00000000000E+00  0.00000000000E+00  0.19843583479E+02  0.19843583479E+02  0.00000000000E+00 0. -1.
         21   -1    0    0  502  503 -0.00000000000E+00 -0.00000000000E+00 -0.60661723893E+03  0.60661723893E+03  0.00000000000E+00 0. -1.
         24    1    1    2    0    0  0.40669968989E+02 -0.30937823776E+02 -0.32321899810E+03  0.33697022421E+03  0.80419002446E+02 0. -1.
          1    1    1    2  501    0 -0.40913086080E+02  0.53051254563E+02 -0.78855675126E+02  0.10347238145E+03  0.00000000000E+00 0. -1.
         -2    1    1    2    0  503  0.24311709147E+00 -0.22113430787E+02 -0.18469898223E+03  0.18601821675E+03  0.00000000000E+00 0.  1.
<mgrwt>
<rscale>  2 0.92195181E+02</rscale>
<asrwt>0</asrwt>
<pdfrwt beam="1">  1       21 0.30528585E-02 0.92195181E+02</pdfrwt>
<pdfrwt beam="2">  1       21 0.93325744E-01 0.92195181E+02</pdfrwt>
<totfact> 0.60126537E+05</totfact>
</mgrwt>
</event>
<event>
 5    1  0.2051810E+000  0.7995535E+02  0.7546771E-02  0.1329178E+00
         21   -1    0    0  503  502  0.00000000000E+00  0.00000000000E+00  0.99941204934E+01  0.99941204934E+01  0.00000000000E+00 0. -1.
         21   -1    0    0  501  503 -0.00000000000E+00 -0.00000000000E+00 -0.69735021928E+03  0.69735021928E+03  0.00000000000E+00 0. -1.
         24    1    1    2    0    0 -0.18852554157E+02  0.27152731285E+02 -0.44197368753E+03  0.45044494229E+03  0.80419002446E+02 0.  1.
          1    1    1    2  501    0  0.37198660542E+02  0.33699384879E+01 -0.16164086780E+03  0.16590017171E+03  0.00000000000E+00 0. -1.
         -2    1    1    2    0  502 -0.18346106385E+02 -0.30522669773E+02 -0.83741543456E+02  0.90999225765E+02  0.00000000000E+00 0.  1.
<mgrwt>
<rscale>  2 0.79955345E+02</rscale>
<asrwt>0</asrwt>
<pdfrwt beam="1">  1       21 0.15375569E-02 0.79955345E+02</pdfrwt>
<pdfrwt beam="2">  1       21 0.10728466E+00 0.79955345E+02</pdfrwt>
<totfact> 0.13070771E+06</totfact>
</mgrwt>
</event>
<event>
 5    1  0.2051810E+000  0.9706538E+02  0.7546771E-02  0.1286591E+00
         21   -1    0    0  503  502  0.00000000000E+00  0.00000000000E+00  0.13139062630E+03  0.13139062630E+03  0.00000000000E+00 0. -1.
         21   -1    0    0  501  503 -0.00000000000E+00 -0.00000000000E+00 -0.79664319688E+02  0.79664319688E+02  0.00000000000E+00 0.  1.
         24    1    1    2    0    0  0.28532820289E+02  0.21684652885E+01 -0.34628310247E+01  0.85428515312E+02  0.80419002446E+02 0.  1.
          1    1    1    2  501    0 -0.15896062662E+02  0.51364616384E+02  0.10563000262E+02  0.54795853848E+02  0.00000000000E+00 0. -1.
         -2    1    1    2    0  502 -0.12636757627E+02 -0.53533081672E+02  0.44626137373E+02  0.70830576826E+02  0.00000000000E+00 0.  1.
<mgrwt>
<rscale>  2 0.97065377E+02</rscale>
<asrwt>0</asrwt>
<pdfrwt beam="1">  1       21 0.20213943E-01 0.97065377E+02</pdfrwt>
<pdfrwt beam="2">  1       21 0.12256049E-01 0.97065377E+02</pdfrwt>
<totfact> 0.12696911E+06</totfact>
</mgrwt>
</event>
<event>
 5    1  0.2051810E+000  0.6866398E+02  0.7546771E-02  0.1364696E+00
         21   -1    0    0  503  502  0.00000000000E+00  0.00000000000E+00  0.24742182420E+02  0.24742182420E+02  0.00000000000E+00 0. -1.
         21   -1    0    0  501  503 -0.00000000000E+00 -0.00000000000E+00 -0.19822555296E+03  0.19822555296E+03  0.00000000000E+00 0.  1.
         24    1    1    2    0    0 -0.90525816211E+01 -0.10383568088E+02 -0.10806653660E+03  0.13540812386E+03  0.80419002446E+02 0.  0.
          1    1    1    2  501    0 -0.13600764753E+02 -0.15976037343E+02 -0.37537965815E+02  0.43003644596E+02  0.00000000000E+00 0. -1.
         -2    1    1    2    0  502  0.22653346374E+02  0.26359605431E+02 -0.27878868127E+02  0.44555966924E+02  0.00000000000E+00 0.  1.
<mgrwt>
<rscale>  2 0.68663984E+02</rscale>
<asrwt>0</asrwt>
<pdfrwt beam="1">  1       21 0.38064896E-02 0.68663984E+02</pdfrwt>
<pdfrwt beam="2">  1       21 0.30496239E-01 0.68663984E+02</pdfrwt>
<totfact> 0.41867808E+06</totfact>
</mgrwt>
</event>
<event>
 5    1  0.2051810E+000  0.7441604E+02  0.7546771E-02  0.1345689E+00
         21   -1    0    0  501  502  0.00000000000E+00  0.00000000000E+00  0.69429284953E+02  0.69429284953E+02  0.00000000000E+00 0.  1.
         21   -1    0    0  502  503 -0.00000000000E+00 -0.00000000000E+00 -0.17920534559E+03  0.17920534559E+03  0.00000000000E+00 0. -1.
         24    1    1    2    0    0 -0.93379501354E+01  0.31554026972E+02 -0.25637056927E+01  0.86928950713E+02  0.80419002446E+02 0.  1.
          1    1    1    2  501    0  0.18217180381E+02  0.90753826231E+01  0.19595252108E+02  0.28252471325E+02  0.00000000000E+00 0. -1.
         -2    1    1    2    0  503 -0.88792302452E+01 -0.40629409595E+02 -0.12680760706E+03  0.13345320851E+03  0.00000000000E+00 0.  1.
<mgrwt>
<rscale>  2 0.74416036E+02</rscale>
<asrwt>0</asrwt>
<pdfrwt beam="1">  1       21 0.10681429E-01 0.74416036E+02</pdfrwt>
<pdfrwt beam="2">  1       21 0.27570053E-01 0.74416036E+02</pdfrwt>
<totfact> 0.90149151E+05</totfact>
</mgrwt>
</event>
<event>
 5    1  0.2051810E+000  0.6748759E+02  0.7546771E-02  0.1368851E+00
         21   -1    0    0  503  502  0.00000000000E+00  0.00000000000E+00  0.59038051447E+03  0.59038051447E+03  0.00000000000E+00 0. -1.
         21   -1    0    0  501  503 -0.00000000000E+00 -0.00000000000E+00 -0.95840638136E+01  0.95840638136E+01  0.00000000000E+00 0.  1.
         24    1    1    2    0    0  0.79936201645E+01 -0.51736742024E+01  0.27440578176E+03  0.28610559919E+03  0.80419002446E+02 0.  1.
          1    1    1    2  501    0  0.24884419589E+00  0.28887708786E+02  0.64561379184E+02  0.70730003001E+02  0.00000000000E+00 0. -1.
         -2    1    1    2    0  502 -0.82424643603E+01 -0.23714034584E+02  0.24182928971E+03  0.24312897609E+03  0.00000000000E+00 0.  1.
<mgrwt>
<rscale>  2 0.67487587E+02</rscale>
<asrwt>0</asrwt>
<pdfrwt beam="1">  1       21 0.90827743E-01 0.67487587E+02</pdfrwt>
<pdfrwt beam="2">  1       21 0.14744718E-02 0.67487587E+02</pdfrwt>
<totfact> 0.20348856E+06</totfact>
</mgrwt>
</event>
<event>
 5    1  0.2051810E+000  0.1238530E+03  0.7546771E-02  0.1236873E+00
         21   -1    0    0  501  502  0.00000000000E+00  0.00000000000E+00  0.19107683364E+03  0.19107683364E+03  0.00000000000E+00 0. -1.
         21   -1    0    0  502  503 -0.00000000000E+00 -0.00000000000E+00 -0.93349724344E+02  0.93349724344E+02  0.00000000000E+00 0. -1.
         24    1    1    2    0    0 -0.82904545132E+02 -0.18630187551E+02  0.11535628993E+02  0.11756076804E+03  0.80419002446E+02 0. -1.
          1    1    1    2  501    0  0.10475710608E+03  0.25480364163E+02  0.93623587334E+02  0.14278892232E+03  0.00000000000E+00 0. -1.
         -2    1    1    2    0  503 -0.21852560952E+02 -0.68501766128E+01 -0.74321070267E+01  0.24076867625E+02  0.00000000000E+00 0.  1.
<mgrwt>
<rscale>  2 0.12385296E+03</rscale>
<asrwt>0</asrwt>
<pdfrwt beam="1">  1       21 0.29396436E-01 0.12385296E+03</pdfrwt>
<pdfrwt beam="2">  1       21 0.14361496E-01 0.12385296E+03</pdfrwt>
<totfact> 0.47492563E+05</totfact>
</mgrwt>
</event>
<event>
 5    1  0.2051810E+000  0.8563078E+02  0.7546771E-02  0.1313791E+00
         21   -1    0    0  501  502  0.00000000000E+00  0.00000000000E+00  0.36100449011E+02  0.36100449011E+02  0.00000000000E+00 0. -1.
         21   -1    0    0  502  503 -0.00000000000E+00 -0.00000000000E+00 -0.45217081512E+03  0.45217081512E+03  0.00000000000E+00 0.  1.
         24    1    1    2    0    0  0.44493628063E+02 -0.14242102026E+02 -0.27267969923E+03  0.28810406928E+03  0.80419002446E+02 0.  1.
          1    1    1    2  501    0  0.86401838667E+01  0.22851876449E+02  0.17799507524E+02  0.30227198060E+02  0.00000000000E+00 0. -1.
         -2    1    1    2    0  503 -0.53133811929E+02 -0.86097744224E+01 -0.16119017440E+03  0.16993999679E+03  0.00000000000E+00 0.  1.
<mgrwt>
<rscale>  2 0.85630776E+02</rscale>
<asrwt>0</asrwt>
<pdfrwt beam="1">  1       21 0.55539153E-02 0.85630776E+02</pdfrwt>
<pdfrwt beam="2">  1       21 0.69564740E-01 0.85630776E+02</pdfrwt>
<totfact> 0.42969892E+05</totfact>
</mgrwt>
</event>
<event>
 5    1  0.2051810E+000  0.8462682E+02  0.7546771E-02  0.1316411E+00
         21   -1    0    0  503  502  0.00000000000E+00  0.00000000000E+00  0.72548761825E+02  0.72548761825E+02  0.00000000000E+00 0.  1.
         21   -1    0    0  501  503 -0.00000000000E+00 -0.00000000000E+00 -0.20501970084E+03  0.20501970084E+03  0.00000000000E+00 0.  1.
         24    1    1    2    0    0  0.49613756142E+01  0.59168887047E+02 -0.12051714161E+03  0.15657959579E+03  0.80419002446E+02 0.  1.
          1    1    1    2  501    0 -0.18164625461E+02 -0.16203772000E+02 -0.54130177308E+02  0.59351427452E+02  0.00000000000E+00 0. -1.
         -2    1    1    2    0  502  0.13203249847E+02 -0.42965115047E+02  0.42176379899E+02  0.61637439425E+02  0.00000000000E+00 0.  1.
<mgrwt>
<rscale>  2 0.84626815E+02</rscale>
<asrwt>0</asrwt>
<pdfrwt beam="1">  1       21 0.11161348E-01 0.84626815E+02</pdfrwt>
<pdfrwt beam="2">  1       21 0.31541492E-01 0.84626815E+02</pdfrwt>
<totfact> 0.64813974E+05</totfact>
</mgrwt>
</event>
<event>
 5    1  0.2051810E+000  0.8811518E+02  0.7546771E-02  0.1307481E+00
         21   -1    0    0  501  502  0.00000000000E+00  0.00000000000E+00  0.18400644325E+03  0.18400644325E+03  0.00000000000E+00 0. -1.
         21   -1    0    0  502  503 -0.00000000000E+00 -0.00000000000E+00 -0.62856512721E+02  0.62856512721E+02  0.00000000000E+00 0. -1.
         24    1    1    2    0    0  0.10454304973E+02 -0.40227148340E+02  0.77841983575E+02  0.11939056209E+03  0.80419002446E+02 0. -1.
          1    1    1    2  501    0  0.15772410271E+02  0.53877842416E+02  0.68544558152E+02  0.88599928224E+02  0.00000000000E+00 0. -1.
         -2    1    1    2    0  503 -0.26226715244E+02 -0.13650694075E+02 -0.25236611197E+02  0.38872465653E+02  0.00000000000E+00 0.  1.
<mgrwt>
<rscale>  2 0.88115180E+02</rscale>
<asrwt>0</asrwt>
<pdfrwt beam="1">  1       21 0.28308683E-01 0.88115180E+02</pdfrwt>
<pdfrwt beam="2">  1       21 0.96702328E-02 0.88115180E+02</pdfrwt>
<totfact> 0.10221893E+06</totfact>
</mgrwt>
</event>
<event>
 5    1  0.2051810E+000  0.8712960E+02  0.7546771E-02  0.1309956E+00
         21   -1    0    0  501  502  0.00000000000E+00  0.00000000000E+00  0.70457629226E+02  0.70457629226E+02  0.00000000000E+00 0.  1.
         21   -1    0    0  502  503 -0.00000000000E+00 -0.00000000000E+00 -0.11127100255E+03  0.11127100255E+03  0.00000000000E+00 0.  1.
         24    1    1    2    0    0  0.31404058985E+02 -0.27915319713E+02 -0.37248800230E+02  0.98082460554E+02  0.80419002446E+02 0.  1.
          1    1    1    2  501    0  0.17174630153E+02 -0.11750148426E+02  0.30066512572E+00  0.20811638774E+02  0.00000000000E+00 0. -1.
         -2    1    1    2    0  503 -0.48578689139E+02  0.39665468139E+02 -0.38652382180E+01  0.62834532445E+02  0.00000000000E+00 0.  1.
<mgrwt>
<rscale>  2 0.87129604E+02</rscale>
<asrwt>0</asrwt>
<pdfrwt beam="1">  1       21 0.10839635E-01 0.87129604E+02</pdfrwt>
<pdfrwt beam="2">  1       21 0.17118616E-01 0.87129604E+02</pdfrwt>
<totfact> 0.21225533E+06</totfact>
</mgrwt>
</event>
<event>
 5    1  0.2051810E+000  0.9223124E+02  0.7546771E-02  0.1297537E+00
         21   -1    0    0  503  502  0.00000000000E+00  0.00000000000E+00  0.22070761867E+03  0.22070761867E+03  0.00000000000E+00 0.  1.
         21   -1    0    0  501  503 -0.00000000000E+00 -0.00000000000E+00 -0.25646899090E+03  0.25646899090E+03  0.00000000000E+00 0. -1.
         24    1    1    2    0    0 -0.72790253612E+02 -0.16203708208E+02 -0.40896847962E+02  0.11705019995E+03  0.80419002446E+02 0.  1.
          1    1    1    2  501    0  0.26771654440E+02  0.87876330539E+01 -0.17336520853E+03  0.17564008513E+03  0.00000000000E+00 0. -1.
         -2    1    1    2    0  502  0.46018599171E+02  0.74160751543E+01  0.17850068427E+03  0.18448632449E+03  0.00000000000E+00 0.  1.
<mgrwt>
<rscale>  2 0.92231241E+02</rscale>
<asrwt>0</asrwt>
<pdfrwt beam="1">  1       21 0.33955019E-01 0.92231241E+02</pdfrwt>
<pdfrwt beam="2">  1       21 0.39456768E-01 0.92231241E+02</pdfrwt>
<totfact> 0.54600408E+04</totfact>
</mgrwt>
</event>
<event>
 5    1  0.2051810E+000  0.1101026E+03  0.7546771E-02  0.1260380E+00
         21   -1    0    0  501  502  0.00000000000E+00  0.00000000000E+00  0.12910632083E+03  0.12910632083E+03  0.00000000000E+00 0. -1.
         21   -1    0    0  502  503 -0.00000000000E+00 -0.00000000000E+00 -0.11616783857E+03  0.11616783857E+03  0.00000000000E+00 0. -1.
         24    1    1    2    0    0  0.70570704510E+02 -0.21289925683E+02  0.47746175619E+01  0.10919477184E+03  0.80419002446E+02 0. -1.
          1    1    1    2  501    0 -0.89528321681E+02  0.13171625751E+02  0.39361208279E+02  0.98681897150E+02  0.00000000000E+00 0. -1.
         -2    1    1    2    0  503  0.18957617171E+02  0.81182999312E+01 -0.31197343583E+02  0.37397490414E+02  0.00000000000E+00 0.  1.
<mgrwt>
<rscale>  2 0.11010257E+03</rscale>
<asrwt>0</asrwt>
<pdfrwt beam="1">  1       21 0.19862511E-01 0.11010257E+03</pdfrwt>
<pdfrwt beam="2">  1       21 0.17871975E-01 0.11010257E+03</pdfrwt>
<totfact> 0.66854235E+05</totfact>
</mgrwt>
</event>
<event>
 5    1  0.2051810E+000  0.8167260E+02  0.7546771E-02  0.1324371E+00
         21   -1    0    0  501  502  0.00000000000E+00  0.00000000000E+00  0.28905530915E+02  0.28905530915E+02  0.00000000000E+00 0. -1.
         21   -1    0    0  502  503 -0.00000000000E+00 -0.00000000000E+00 -0.77525461299E+03  0.77525461299E+03  0.00000000000E+00 0.  1.
         24    1    1    2    0    0 -0.18943147294E+01  0.43232175000E+02 -0.63675000269E+03  0.64326541277E+03  0.80419002446E+02 0.  1.
          1    1    1    2  501    0 -0.21769433234E+02 -0.43181726566E+02  0.41892255696E+00  0.48360575148E+02  0.00000000000E+00 0. -1.
         -2    1    1    2    0  503  0.23663747963E+02 -0.50448433741E-01 -0.11001800194E+03  0.11253415599E+03  0.00000000000E+00 0.  1.
<mgrwt>
<rscale>  2 0.81672603E+02</rscale>
<asrwt>0</asrwt>
<pdfrwt beam="1">  1       21 0.44470050E-02 0.81672603E+02</pdfrwt>
<pdfrwt beam="2">  1       21 0.11926993E+00 0.81672603E+02</pdfrwt>
<totfact> 0.18353575E+05</totfact>
</mgrwt>
</event>
<event>
 5    1  0.2051810E+000  0.7924720E+02  0.7546771E-02  0.1331201E+00
         21   -1    0    0  503  502  0.00000000000E+00  0.00000000000E+00  0.20480604227E+04  0.20480604227E+04  0.00000000000E+00 0.  1.
         21   -1    0    0  501  503 -0.00000000000E+00 -0.00000000000E+00 -0.64425104784E+01  0.64425104784E+01  0.00000000000E+00 0.  1.
         24    1    1    2    0    0  0.43493632752E+02 -0.25744754371E+02  0.12583245205E+04  0.12619042370E+04  0.80419002446E+02 0.  1.
          1    1    1    2  501    0 -0.54445020554E+01  0.24863270818E+02  0.34676314328E+02  0.43014783665E+02  0.00000000000E+00 0. -1.
         -2    1    1    2    0  502 -0.38049130697E+02  0.88148355276E+00  0.74861707734E+03  0.74958391248E+03  0.00000000000E+00 0.  1.
<mgrwt>
<rscale>  2 0.79247198E+02</rscale>
<asrwt>0</asrwt>
<pdfrwt beam="1">  1       21 0.31508570E+00 0.79247198E+02</pdfrwt>
<pdfrwt beam="2">  1       21 0.99115709E-03 0.79247198E+02</pdfrwt>
<totfact> 0.12151857E+05</totfact>
</mgrwt>
</event>
<event>
 5    1  0.2051810E+000  0.1154078E+03  0.7546771E-02  0.1250871E+00
         21   -1    0    0  503  502  0.00000000000E+00  0.00000000000E+00  0.19616301601E+03  0.19616301601E+03  0.00000000000E+00 0.  1.
         21   -1    0    0  501  503 -0.00000000000E+00 -0.00000000000E+00 -0.18011440542E+03  0.18011440542E+03  0.00000000000E+00 0. -1.
         24    1    1    2    0    0 -0.64912553684E+02  0.58372275703E+02  0.94214590247E+02  0.15154064526E+03  0.80419002446E+02 0.  0.
          1    1    1    2  501    0  0.34221001444E+02 -0.71091589720E+02 -0.13646735615E+03  0.15763384904E+03  0.00000000000E+00 0. -1.
         -2    1    1    2    0  502  0.30691552240E+02  0.12719314018E+02  0.58301376494E+02  0.67102927127E+02  0.00000000000E+00 0.  1.
<mgrwt>
<rscale>  2 0.11540782E+03</rscale>
<asrwt>0</asrwt>
<pdfrwt beam="1">  1       21 0.30178926E-01 0.11540782E+03</pdfrwt>
<pdfrwt beam="2">  1       21 0.27709908E-01 0.11540782E+03</pdfrwt>
<totfact> 0.13443962E+05</totfact>
</mgrwt>
</event>
<event>
 5    1  0.2051810E+000  0.7134048E+02  0.7546771E-02  0.1355593E+00
         21   -1    0    0  503  502  0.00000000000E+00  0.00000000000E+00  0.12525332775E+03  0.12525332775E+03  0.00000000000E+00 0.  1.
         21   -1    0    0  501  503 -0.00000000000E+00 -0.00000000000E+00 -0.15061109594E+03  0.15061109594E+03  0.00000000000E+00 0.  1.
         24    1    1    2    0    0  0.26333950434E+02  0.16235339667E+02 -0.11793296778E+03  0.14605637282E+03  0.80419002446E+02 0.  1.
          1    1    1    2  501    0  0.60416482027E+01 -0.22710108074E+02 -0.73074346314E+01  0.24609939509E+02  0.00000000000E+00 0. -1.
         -2    1    1    2    0  502 -0.32375598637E+02  0.64747684063E+01  0.99882634227E+02  0.10519811136E+03  0.00000000000E+00 0.  1.
<mgrwt>
<rscale>  2 0.71340480E+02</rscale>
<asrwt>0</asrwt>
<pdfrwt beam="1">  1       21 0.19269743E-01 0.71340480E+02</pdfrwt>
<pdfrwt beam="2">  1       21 0.23170938E-01 0.71340480E+02</pdfrwt>
<totfact> 0.43848970E+05</totfact>
</mgrwt>
</event>
<event>
 5    1  0.2051810E+000  0.8178350E+02  0.7546771E-02  0.1324065E+00
         21   -1    0    0  501  502  0.00000000000E+00  0.00000000000E+00  0.90039949209E+03  0.90039949209E+03  0.00000000000E+00 0. -1.
         21   -1    0    0  502  503 -0.00000000000E+00 -0.00000000000E+00 -0.41210859638E+03  0.41210859638E+03  0.00000000000E+00 0.  1.
         24    1    1    2    0    0 -0.26964137171E+02  0.48562476583E+02 -0.29037170229E+03  0.30637937311E+03  0.80419002446E+02 0.  0.
          1    1    1    2  501    0  0.28261114437E+02 -0.14539380070E+02  0.88955731161E+03  0.89012487596E+03  0.00000000000E+00 0. -1.
         -2    1    1    2    0  503 -0.12969772657E+01 -0.34023096513E+02 -0.11089471362E+03  0.11600383940E+03  0.00000000000E+00 0.  1.
<mgrwt>
<rscale>  2 0.81783503E+02</rscale>
<asrwt>0</asrwt>
<pdfrwt beam="1">  1       21 0.13852300E+00 0.81783503E+02</pdfrwt>
<pdfrwt beam="2">  1       21 0.63401322E-01 0.81783503E+02</pdfrwt>
<totfact> 0.99936226E+02</totfact>
</mgrwt>
</event>
<event>
 5    1  0.2051810E+000  0.9008691E+02  0.7546771E-02  0.1302641E+00
         21   -1    0    0  503  502  0.00000000000E+00  0.00000000000E+00  0.11041962736E+04  0.11041962736E+04  0.00000000000E+00 0.  1.
         21   -1    0    0  501  503 -0.00000000000E+00 -0.00000000000E+00 -0.22229278901E+02  0.22229278901E+02  0.00000000000E+00 0.  1.
         24    1    1    2    0    0 -0.37578527929E+02  0.57220871182E+02  0.13627805166E+03  0.17241025833E+03  0.80419002446E+02 0.  1.
          1    1    1    2  501    0 -0.15279436052E+01 -0.21635866283E+02  0.31196465057E+02  0.37995588606E+02  0.00000000000E+00 0. -1.
         -2    1    1    2    0  502  0.39106471534E+02 -0.35585004900E+02  0.91449247801E+03  0.91601970559E+03  0.00000000000E+00 0.  1.
<mgrwt>
<rscale>  2 0.90086912E+02</rscale>
<asrwt>0</asrwt>
<pdfrwt beam="1">  1       21 0.16987631E+00 0.90086912E+02</pdfrwt>
<pdfrwt beam="2">  1       21 0.34198899E-02 0.90086912E+02</pdfrwt>
<totfact> 0.11550647E+05</totfact>
</mgrwt>
</event>
<event>
 5    1  0.2051810E+000  0.6902098E+02  0.7546771E-02  0.1363454E+00
         21   -1    0    0  503  502  0.00000000000E+00  0.00000000000E+00  0.10143821165E+04  0.10143821165E+04  0.00000000000E+00 0. -1.
         21   -1    0    0  501  503 -0.00000000000E+00 -0.00000000000E+00 -0.53366505542E+01  0.53366505542E+01  0.00000000000E+00 0.  1.
         24    1    1    2    0    0  0.71665230268E+01  0.59500832490E+01  0.60211307383E+03  0.60753117795E+03  0.80419002446E+02 0. -1.
          1    1    1    2  501    0  0.23752550855E+02  0.50210774431E+01  0.79723429617E+02  0.83337987261E+02  0.00000000000E+00 0. -1.
         -2    1    1    2    0  502 -0.30919073882E+02 -0.10971160692E+02  0.32720896249E+03  0.32884960184E+03  0.00000000000E+00 0.  1.
<mgrwt>
<rscale>  2 0.69020980E+02</rscale>
<asrwt>0</asrwt>
<pdfrwt beam="1">  1       21 0.15605863E+00 0.69020980E+02</pdfrwt>
<pdfrwt beam="2">  1       21 0.82102397E-03 0.69020980E+02</pdfrwt>
<totfact> 0.13952840E+06</totfact>
</mgrwt>
</event>
<event>
 5    1  0.2051810E+000  0.7326472E+02  0.7546771E-02  0.1349330E+00
         21   -1    0    0  501  502  0.00000000000E+00  0.00000000000E+00  0.17042144896E+03  0.17042144896E+03  0.00000000000E+00 0.  1.
         21   -1    0    0  502  503 -0.00000000000E+00 -0.00000000000E+00 -0.33532462874E+02  0.33532462874E+02  0.00000000000E+00 0. -1.
         24    1    1    2    0    0  0.64802204091E+01  0.35943668862E+02  0.10540164546E+03  0.13751604782E+03  0.80419002446E+02 0.  1.
          1    1    1    2  501    0  0.14922920550E+02 -0.33487022320E+02  0.23021816082E+02  0.43290625282E+02  0.00000000000E+00 0. -1.
         -2    1    1    2    0  503 -0.21403140959E+02 -0.24566465420E+01  0.84655245464E+01  0.23147238734E+02  0.00000000000E+00 0.  1.
<mgrwt>
<rscale>  2 0.73264720E+02</rscale>
<asrwt>0</asrwt>
<pdfrwt beam="1">  1       21 0.26218684E-01 0.73264720E+02</pdfrwt>
<pdfrwt beam="2">  1       21 0.51588406E-02 0.73264720E+02</pdfrwt>
<totfact> 0.33913066E+06</totfact>
</mgrwt>
</event>
<event>
 5    1  0.2051810E+000  0.7686660E+02  0.7546771E-02  0.1338186E+00
         21   -1    0    0  503  502  0.00000000000E+00  0.00000000000E+00  0.26159199785E+02  0.26159199785E+02  0.00000000000E+00 0.  1.
         21   -1    0    0  501  503 -0.00000000000E+00 -0.00000000000E+00 -0.47891166170E+03  0.47891166170E+03  0.00000000000E+00 0.  1.
         24    1    1    2    0    0  0.34715814883E+02 -0.63546121451E+01 -0.39333625183E+03  0.40302132928E+03  0.80419002446E+02 0.  1.
          1    1    1    2  501    0 -0.94698288430E+01 -0.24369501619E+02 -0.56405013927E+02  0.62169734305E+02  0.00000000000E+00 0. -1.
         -2    1    1    2    0  502 -0.25245986040E+02  0.30724113764E+02 -0.30111961542E+01  0.39879797894E+02  0.00000000000E+00 0.  1.
<mgrwt>
<rscale>  2 0.76866604E+02</rscale>
<asrwt>0</asrwt>
<pdfrwt beam="1">  1       21 0.40244923E-02 0.76866604E+02</pdfrwt>
<pdfrwt beam="2">  1       21 0.73678717E-01 0.76866604E+02</pdfrwt>
<totfact> 0.64695888E+05</totfact>
</mgrwt>
</event>
<event>
 5    1  0.2051810E+000  0.7732271E+02  0.7546771E-02  0.1336826E+00
         21   -1    0    0  501  502  0.00000000000E+00  0.00000000000E+00  0.29600774542E+03  0.29600774542E+03  0.00000000000E+00 0. -1.
         21   -1    0    0  502  503 -0.00000000000E+00 -0.00000000000E+00 -0.13109753590E+03  0.13109753590E+03  0.00000000000E+00 0.  1.
         24    1    1    2    0    0  0.12142640195E+02 -0.46170012667E+02 -0.10160135251E+03  0.13809114586E+03  0.80419002446E+02 0.  1.
          1    1    1    2  501    0 -0.22099934715E+02  0.11224210710E+02  0.24608383678E+03  0.24732902124E+03  0.00000000000E+00 0. -1.
         -2    1    1    2    0  503  0.99572945194E+01  0.34945801957E+02  0.20427725246E+02  0.41685114218E+02  0.00000000000E+00 0.  1.
<mgrwt>
<rscale>  2 0.77322710E+02</rscale>
<asrwt>0</asrwt>
<pdfrwt beam="1">  1       21 0.45539653E-01 0.77322710E+02</pdfrwt>
<pdfrwt beam="2">  1       21 0.20168852E-01 0.77322710E+02</pdfrwt>
<totfact> 0.11021690E+05</totfact>
</mgrwt>
</event>
<event>
 5    1  0.2051810E+000  0.7378276E+02  0.7546771E-02  0.1347682E+00
         21   -1    0    0  501  502  0.00000000000E+00  0.00000000000E+00  0.32178922331E+03  0.32178922331E+03  0.00000000000E+00 0.  1.
         21   -1    0    0  502  503 -0.00000000000E+00 -0.00000000000E+00 -0.18717032809E+02  0.18717032809E+02  0.00000000000E+00 0.  1.
         24    1    1    2    0    0  0.43360839202E+02  0.30377302742E+01  0.16065280750E+03  0.18484028428E+03  0.80419002446E+02 0.  1.
          1    1    1    2  501    0 -0.25975624253E+02 -0.19287964174E+02  0.11448752978E+03  0.11897122800E+03  0.00000000000E+00 0. -1.
         -2    1    1    2    0  503 -0.17385214949E+02  0.16250233900E+02  0.27931853219E+02  0.36694743832E+02  0.00000000000E+00 0.  1.
<mgrwt>
<rscale>  2 0.73782757E+02</rscale>
<asrwt>0</asrwt>
<pdfrwt beam="1">  1       21 0.49506030E-01 0.73782757E+02</pdfrwt>
<pdfrwt beam="2">  1       21 0.28795437E-02 0.73782757E+02</pdfrwt>
<totfact> 0.25603778E+06</totfact>
</mgrwt>
</event>
<event>
 5    1  0.2051810E+000  0.6893465E+02  0.7546771E-02  0.1363754E+00
         21   -1    0    0  501  502  0.00000000000E+00  0.00000000000E+00  0.11384129622E+03  0.11384129622E+03  0.00000000000E+00 0. -1.
         21   -1    0    0  502  503 -0.00000000000E+00 -0.00000000000E+00 -0.66645261172E+02  0.66645261172E+02  0.00000000000E+00 0. -1.
         24    1    1    2    0    0  0.40910750131E+02 -0.12619374027E+02 -0.19691371915E+02  0.93208927466E+02  0.80419002446E+02 0. -1.
          1    1    1    2  501    0 -0.25235699626E+02 -0.20195619000E+01  0.59384013863E+02  0.64555249735E+02  0.00000000000E+00 0. -1.
         -2    1    1    2    0  503 -0.15675050505E+02  0.14638935926E+02  0.75033930981E+01  0.22722380187E+02  0.00000000000E+00 0.  1.
<mgrwt>
<rscale>  2 0.68934652E+02</rscale>
<asrwt>0</asrwt>
<pdfrwt beam="1">  1       21 0.17514046E-01 0.68934652E+02</pdfrwt>
<pdfrwt beam="2">  1       21 0.10253117E-01 0.68934652E+02</pdfrwt>
<totfact> 0.22180315E+06</totfact>
</mgrwt>
</event>
<event>
 5    1  0.2051810E+000  0.7116588E+02  0.7546771E-02  0.1356173E+00
         21   -1    0    0  501  502  0.00000000000E+00  0.00000000000E+00  0.55385354155E+02  0.55385354155E+02  0.00000000000E+00 0. -1.
         21   -1    0    0  502  503 -0.00000000000E+00 -0.00000000000E+00 -0.11044006124E+04  0.11044006124E+04  0.00000000000E+00 0. -1.
         24    1    1    2    0    0  0.15610575692E+02  0.36246516015E+02 -0.39467077497E+03  0.40470944710E+03  0.80419002446E+02 0. -1.
          1    1    1    2  501    0  0.82604615002E+01 -0.25064705265E+02  0.46644137485E+02  0.53592445698E+02  0.00000000000E+00 0. -1.
         -2    1    1    2    0  503 -0.23871037193E+02 -0.11181810750E+02 -0.70098862080E+03  0.70148407380E+03  0.00000000000E+00 0.  1.
<mgrwt>
<rscale>  2 0.71165885E+02</rscale>
<asrwt>0</asrwt>
<pdfrwt beam="1">  1       21 0.85208244E-02 0.71165885E+02</pdfrwt>
<pdfrwt beam="2">  1       21 0.16990777E+00 0.71165885E+02</pdfrwt>
<totfact> 0.25742156E+04</totfact>
</mgrwt>
</event>
<event>
 5    1  0.2051810E+000  0.1014716E+03  0.7546771E-02  0.1277231E+00
         21   -1    0    0  501  502  0.00000000000E+00  0.00000000000E+00  0.11432857735E+02  0.11432857735E+02  0.00000000000E+00 0. -1.
         21   -1    0    0  502  503 -0.00000000000E+00 -0.00000000000E+00 -0.11274504244E+04  0.11274504244E+04  0.00000000000E+00 0.  1.
         24    1    1    2    0    0 -0.29891230527E+02  0.24729855670E+02 -0.47103681316E+03  0.47942459963E+03  0.80419002446E+02 0. -1.
          1    1    1    2  501    0  0.64547221920E+02 -0.39836341239E+02 -0.21821669960E+03  0.23102338827E+03  0.00000000000E+00 0. -1.
         -2    1    1    2    0  503 -0.34655991393E+02  0.15106485568E+02 -0.42676405391E+03  0.42843529424E+03  0.00000000000E+00 0.  1.
<mgrwt>
<rscale>  2 0.10147163E+03</rscale>
<asrwt>0</asrwt>
<pdfrwt beam="1">  1       21 0.17589006E-02 0.10147163E+03</pdfrwt>
<pdfrwt beam="2">  1       21 0.17345397E+00 0.10147163E+03</pdfrwt>
<totfact> 0.31754924E+05</totfact>
</mgrwt>
</event>
<event>
 5    1  0.2051810E+000  0.7821232E+02  0.7546771E-02  0.1334203E+00
         21   -1    0    0  501  502  0.00000000000E+00  0.00000000000E+00  0.14341563878E+03  0.14341563878E+03  0.00000000000E+00 0. -1.
         21   -1    0    0  502  503 -0.00000000000E+00 -0.00000000000E+00 -0.47442953669E+02  0.47442953669E+02  0.00000000000E+00 0.  1.
         24    1    1    2    0    0 -0.52832096441E+02 -0.12412668704E+02  0.28863290853E+02  0.10122060201E+03  0.80419002446E+02 0. -1.
          1    1    1    2  501    0  0.30040824741E+02 -0.53467346396E+01  0.35578506930E+02  0.46870767839E+02  0.00000000000E+00 0. -1.
         -2    1    1    2    0  503  0.22791271701E+02  0.17759403344E+02  0.31530887324E+02  0.42767222593E+02  0.00000000000E+00 0.  1.
<mgrwt>
<rscale>  2 0.78212322E+02</rscale>
<asrwt>0</asrwt>
<pdfrwt beam="1">  1       21 0.22063944E-01 0.78212322E+02</pdfrwt>
<pdfrwt beam="2">  1       21 0.72989160E-02 0.78212322E+02</pdfrwt>
<totfact> 0.26216947E+06</totfact>
</mgrwt>
</event>
<event>
 5    1  0.2051810E+000  0.2251236E+03  0.7546771E-02  0.1130120E+00
         21   -1    0    0  503  502  0.00000000000E+00  0.00000000000E+00  0.96364298773E+03  0.96364298773E+03  0.00000000000E+00 0. -1.
         21   -1    0    0  501  503 -0.00000000000E+00 -0.00000000000E+00 -0.15388827488E+03  0.15388827488E+03  0.00000000000E+00 0.  1.
         24    1    1    2    0    0  0.19247526427E+03  0.99468087598E+02 -0.44679865287E+02  0.23538082786E+03  0.80419002446E+02 0.  1.
          1    1    1    2  501    0 -0.16513721036E+03 -0.97419376831E+02  0.76055816460E+03  0.78435295306E+03  0.00000000000E+00 0. -1.
         -2    1    1    2    0  502 -0.27338053919E+02 -0.20487107671E+01  0.93876413528E+02  0.97797481690E+02  0.00000000000E+00 0.  1.
<mgrwt>
<rscale>  2 0.22512362E+03</rscale>
<asrwt>0</asrwt>
<pdfrwt beam="1">  1       21 0.14825276E+00 0.22512362E+03</pdfrwt>
<pdfrwt beam="2">  1       21 0.23675120E-01 0.22512362E+03</pdfrwt>
<totfact> 0.50463317E+03</totfact>
</mgrwt>
</event>
<event>
 5    1  0.2051810E+000  0.1073775E+03  0.7546771E-02  0.1265505E+00
         21   -1    0    0  503  502  0.00000000000E+00  0.00000000000E+00  0.34348815135E+03  0.34348815135E+03  0.00000000000E+00 0.  1.
         21   -1    0    0  501  503 -0.00000000000E+00 -0.00000000000E+00 -0.73401717447E+02  0.73401717447E+02  0.00000000000E+00 0. -1.
         24    1    1    2    0    0 -0.37588292897E+02 -0.42826095587E+01  0.35831151701E+02  0.95824359607E+02  0.80419002446E+02 0.  0.
          1    1    1    2  501    0  0.58545050621E+02 -0.44007457809E+02 -0.75201925805E+01  0.73625624557E+02  0.00000000000E+00 0. -1.
         -2    1    1    2    0  502 -0.20956757724E+02  0.48290067367E+02  0.24177547479E+03  0.24743988464E+03  0.00000000000E+00 0.  1.
<mgrwt>
<rscale>  2 0.10737755E+03</rscale>
<asrwt>0</asrwt>
<pdfrwt beam="1">  1       21 0.52844330E-01 0.10737755E+03</pdfrwt>
<pdfrwt beam="2">  1       21 0.11292572E-01 0.10737755E+03</pdfrwt>
<totfact> 0.22695491E+05</totfact>
</mgrwt>
</event>
<event>
 5    1  0.2051810E+000  0.7844159E+02  0.7546771E-02  0.1333533E+00
         21   -1    0    0  501  502  0.00000000000E+00  0.00000000000E+00  0.17707932741E+03  0.17707932741E+03  0.00000000000E+00 0. -1.
         21   -1    0    0  502  503 -0.00000000000E+00 -0.00000000000E+00 -0.94459285929E+02  0.94459285929E+02  0.00000000000E+00 0.  1.
         24    1    1    2    0    0  0.59446644063E+00 -0.13550953710E+02 -0.28721687506E+02  0.86464634530E+02  0.80419002446E+02 0.  0.
          1    1    1    2  501    0 -0.31273125300E+02 -0.13842230668E+02  0.13387696320E+03  0.13817618099E+03  0.00000000000E+00 0. -1.
         -2    1    1    2    0  503  0.30678658860E+02  0.27393184378E+02 -0.22535234212E+02  0.46897797825E+02  0.00000000000E+00 0.  1.
<mgrwt>
<rscale>  2 0.78441590E+02</rscale>
<asrwt>0</asrwt>
<pdfrwt beam="1">  1       21 0.27242973E-01 0.78441590E+02</pdfrwt>
<pdfrwt beam="2">  1       21 0.14532198E-01 0.78441590E+02</pdfrwt>
<totfact> 0.53806051E+05</totfact>
</mgrwt>
</event>
<event>
 5    1  0.2051810E+000  0.7158307E+02  0.7546771E-02  0.1354791E+00
         21   -1    0    0  503  502  0.00000000000E+00  0.00000000000E+00  0.66463695878E+02  0.66463695878E+02  0.00000000000E+00 0. -1.
         21   -1    0    0  501  503 -0.00000000000E+00 -0.00000000000E+00 -0.22807249344E+03  0.22807249344E+03  0.00000000000E+00 0.  1.
         24    1    1    2    0    0  0.15938497734E+02 -0.73737760563E+01 -0.19867678358E+03  0.21505368765E+03  0.80419002446E+02 0.  1.
          1    1    1    2  501    0  0.38625235950E+01 -0.23696089759E+02 -0.39673094928E+01  0.24334405745E+02  0.00000000000E+00 0. -1.
         -2    1    1    2    0  502 -0.19801021329E+02  0.31069865815E+02  0.41035295505E+02  0.55148095929E+02  0.00000000000E+00 0.  1.
<mgrwt>
<rscale>  2 0.71583074E+02</rscale>
<asrwt>0</asrwt>
<pdfrwt beam="1">  1       21 0.10225184E-01 0.71583074E+02</pdfrwt>
<pdfrwt beam="2">  1       21 0.35088077E-01 0.71583074E+02</pdfrwt>
<totfact> 0.61350104E+05</totfact>
</mgrwt>
</event>
<event>
 5    1  0.2051810E+000  0.7290605E+02  0.7546771E-02  0.1350481E+00
         21   -1    0    0  501  502  0.00000000000E+00  0.00000000000E+00  0.67261858256E+02  0.67261858256E+02  0.00000000000E+00 0.  1.
         21   -1    0    0  502  503 -0.00000000000E+00 -0.00000000000E+00 -0.87830895499E+02  0.87830895499E+02  0.00000000000E+00 0. -1.
         24    1    1    2    0    0 -0.24902016685E+02 -0.32454905417E+01 -0.28604926971E+02  0.88972475773E+02  0.80419002446E+02 0.  0.
          1    1    1    2  501    0  0.11454179602E+02  0.29730023130E+02  0.15592387920E+02  0.35471045470E+02  0.00000000000E+00 0. -1.
         -2    1    1    2    0  503  0.13447837083E+02 -0.26484532589E+02 -0.75564981911E+01  0.30649232512E+02  0.00000000000E+00 0.  1.
<mgrwt>
<rscale>  2 0.72906055E+02</rscale>
<asrwt>0</asrwt>
<pdfrwt beam="1">  1       21 0.10347978E-01 0.72906055E+02</pdfrwt>
<pdfrwt beam="2">  1       21 0.13512445E-01 0.72906055E+02</pdfrwt>
<totfact> 0.34726795E+06</totfact>
</mgrwt>
</event>
<event>
 5    1  0.2051810E+000  0.6625404E+02  0.7546771E-02  0.1373315E+00
         21   -1    0    0  501  502  0.00000000000E+00  0.00000000000E+00  0.61737754297E+02  0.61737754297E+02  0.00000000000E+00 0. -1.
         21   -1    0    0  502  503 -0.00000000000E+00 -0.00000000000E+00 -0.11878598212E+04  0.11878598212E+04  0.00000000000E+00 0.  1.
         24    1    1    2    0    0  0.15356181695E+02 -0.12199896041E+02 -0.46618585964E+03  0.47347768845E+03  0.80419002446E+02 0. -1.
          1    1    1    2  501    0  0.59796447198E+01  0.24422084485E+02  0.55149929124E+02  0.60611129704E+02  0.00000000000E+00 0. -1.
         -2    1    1    2    0  503 -0.21335826414E+02 -0.12222188443E+02 -0.71508613637E+03  0.71550875732E+03  0.00000000000E+00 0.  1.
<mgrwt>
<rscale>  2 0.66254038E+02</rscale>
<asrwt>0</asrwt>
<pdfrwt beam="1">  1       21 0.94981167E-02 0.66254038E+02</pdfrwt>
<pdfrwt beam="2">  1       21 0.18274765E+00 0.66254038E+02</pdfrwt>
<totfact> 0.17771629E+04</totfact>
</mgrwt>
</event>
<event>
 5    1  0.2051810E+000  0.8575818E+02  0.7546771E-02  0.1313462E+00
         21   -1    0    0  503  502  0.00000000000E+00  0.00000000000E+00  0.87261554954E+02  0.87261554954E+02  0.00000000000E+00 0.  1.
         21   -1    0    0  501  503 -0.00000000000E+00 -0.00000000000E+00 -0.99051628761E+02  0.99051628761E+02  0.00000000000E+00 0. -1.
         24    1    1    2    0    0 -0.65867036424E+02  0.38757603543E+01  0.27750168465E+02  0.10766046540E+03  0.80419002446E+02 0.  0.
          1    1    1    2  501    0  0.23676264232E+02  0.54253370515E+01 -0.18872239633E+02  0.30759733400E+02  0.00000000000E+00 0. -1.
         -2    1    1    2    0  502  0.42190772192E+02 -0.93010974058E+01 -0.20668002640E+02  0.47892984917E+02  0.00000000000E+00 0.  1.
<mgrwt>
<rscale>  2 0.85758181E+02</rscale>
<asrwt>0</asrwt>
<pdfrwt beam="1">  1       21 0.13424855E-01 0.85758181E+02</pdfrwt>
<pdfrwt beam="2">  1       21 0.15238712E-01 0.85758181E+02</pdfrwt>
<totfact> 0.17960415E+06</totfact>
</mgrwt>
</event>
<event>
 5    1  0.2051810E+000  0.8561889E+02  0.7546771E-02  0.1313822E+00
         21   -1    0    0  501  502  0.00000000000E+00  0.00000000000E+00  0.16836951677E+04  0.16836951677E+04  0.00000000000E+00 0. -1.
         21   -1    0    0  502  503 -0.00000000000E+00 -0.00000000000E+00 -0.10075405012E+02  0.10075405012E+02  0.00000000000E+00 0. -1.
         24    1    1    2    0    0 -0.17821200148E+02  0.31353864335E+02  0.25928432420E+03  0.27385440788E+03  0.80419002446E+02 0. -1.
          1    1    1    2  501    0  0.38492547100E+02  0.73836990123E+01  0.12221689699E+04  0.12227972793E+04  0.00000000000E+00 0. -1.
         -2    1    1    2    0  503 -0.20671346952E+02 -0.38737563347E+02  0.19216646860E+03  0.19711888559E+03  0.00000000000E+00 0.  1.
<mgrwt>
<rscale>  2 0.85618889E+02</rscale>
<asrwt>0</asrwt>
<pdfrwt beam="1">  1       21 0.25902980E+00 0.85618889E+02</pdfrwt>
<pdfrwt beam="2">  1       21 0.15500636E-02 0.85618889E+02</pdfrwt>
<totfact> 0.12062877E+05</totfact>
</mgrwt>
</event>
<event>
 5    1  0.2051810E+000  0.7887641E+02  0.7546771E-02  0.1332271E+00
         21   -1    0    0  503  502  0.00000000000E+00  0.00000000000E+00  0.15390917140E+02  0.15390917140E+02  0.00000000000E+00 0.  1.
         21   -1    0    0  501  503 -0.00000000000E+00 -0.00000000000E+00 -0.64887445046E+03  0.64887445046E+03  0.00000000000E+00 0.  1.
         24    1    1    2    0    0  0.13088187960E+02 -0.14636371797E+00 -0.24797898538E+03  0.26102129267E+03  0.80419002446E+02 0.  1.
          1    1    1    2  501    0  0.27287422201E+02 -0.17281286883E+02 -0.33383481451E+03  0.33539369354E+03  0.00000000000E+00 0. -1.
         -2    1    1    2    0  502 -0.40375610161E+02  0.17427650601E+02 -0.51669733434E+02  0.67850381388E+02  0.00000000000E+00 0.  1.
<mgrwt>
<rscale>  2 0.78876412E+02</rscale>
<asrwt>0</asrwt>
<pdfrwt beam="1">  1       21 0.23678340E-02 0.78876412E+02</pdfrwt>
<pdfrwt beam="2">  1       21 0.99826816E-01 0.78876412E+02</pdfrwt>
<totfact> 0.77701185E+05</totfact>
</mgrwt>
</event>
<event>
 5    1  0.2051810E+000  0.6390133E+02  0.7546771E-02  0.1382153E+00
         21   -1    0    0  503  502  0.00000000000E+00  0.00000000000E+00  0.14202708093E+03  0.14202708093E+03  0.00000000000E+00 0.  1.
         21   -1    0    0  501  503 -0.00000000000E+00 -0.00000000000E+00 -0.42194720742E+02  0.42194720742E+02  0.00000000000E+00 0.  1.
         24    1    1    2    0    0  0.23968397867E+02 -0.20803295781E+02  0.15923955735E+02  0.87909325628E+02  0.80419002446E+02 0.  1.
          1    1    1    2  501    0 -0.35615284619E+01  0.20634940021E+02  0.19012895539E+02  0.28283836929E+02  0.00000000000E+00 0. -1.
         -2    1    1    2    0  502 -0.20406869405E+02  0.16835576014E+00  0.64895508915E+02  0.68028639115E+02  0.00000000000E+00 0.  1.
<mgrwt>
<rscale>  2 0.63901331E+02</rscale>
<asrwt>0</asrwt>
<pdfrwt beam="1">  1       21 0.21850320E-01 0.63901331E+02</pdfrwt>
<pdfrwt beam="2">  1       21 0.64914956E-02 0.63901331E+02</pdfrwt>
<totfact> 0.32115448E+06</totfact>
</mgrwt>
</event>
<event>
 5    1  0.2051810E+000  0.7119723E+02  0.7546771E-02  0.1356069E+00
         21   -1    0    0  501  502  0.00000000000E+00  0.00000000000E+00  0.17434893051E+03  0.17434893051E+03  0.00000000000E+00 0. -1.
         21   -1    0    0  502  503 -0.00000000000E+00 -0.00000000000E+00 -0.87947368263E+02  0.87947368263E+02  0.00000000000E+00 0. -1.
         24    1    1    2    0    0  0.21177776875E+02  0.17002127146E+02 -0.51380897663E+02  0.99220880664E+02  0.80419002446E+02 0. -1.
          1    1    1    2  501    0  0.11909061726E+02 -0.21044576431E+02  0.12509338534E+03  0.12740900676E+03  0.00000000000E+00 0. -1.
         -2    1    1    2    0  503 -0.33086838600E+02  0.40424492848E+01  0.12689074567E+02  0.35666411344E+02  0.00000000000E+00 0.  1.
<mgrwt>
<rscale>  2 0.71197227E+02</rscale>
<asrwt>0</asrwt>
<pdfrwt beam="1">  1       21 0.26822912E-01 0.71197227E+02</pdfrwt>
<pdfrwt beam="2">  1       21 0.13530364E-01 0.71197227E+02</pdfrwt>
<totfact> 0.62785165E+05</totfact>
</mgrwt>
</event>
<event>
 5    1  0.2051810E+000  0.1615356E+03  0.7546771E-02  0.1186974E+00
         21   -1    0    0  501  502  0.00000000000E+00  0.00000000000E+00  0.24862116427E+04  0.24862116427E+04  0.00000000000E+00 0. -1.
         21   -1    0    0  502  503 -0.00000000000E+00 -0.00000000000E+00 -0.30546932339E+02  0.30546932339E+02  0.00000000000E+00 0.  1.
         24    1    1    2    0    0  0.11429238140E+03  0.26293292825E+01  0.16331701349E+04  0.16391404965E+04  0.80419002446E+02 0. -1.
          1    1    1    2  501    0 -0.32987900328E+02 -0.70209550415E+02  0.73857229756E+03  0.74263491788E+03  0.00000000000E+00 0. -1.
         -2    1    1    2    0  503 -0.81304481071E+02  0.67580221133E+02  0.83922277913E+02  0.13498316066E+03  0.00000000000E+00 0.  1.
<mgrwt>
<rscale>  2 0.16153559E+03</rscale>
<asrwt>0</asrwt>
<pdfrwt beam="1">  1       21 0.38249394E+00 0.16153559E+03</pdfrwt>
<pdfrwt beam="2">  1       21 0.46995300E-02 0.16153559E+03</pdfrwt>
<totfact> 0.34944557E+03</totfact>
</mgrwt>
</event>
<event>
 5    1  0.2051810E+000  0.1184141E+03  0.7546771E-02  0.1245737E+00
         21   -1    0    0  501  502  0.00000000000E+00  0.00000000000E+00  0.10396672330E+03  0.10396672330E+03  0.00000000000E+00 0. -1.
         21   -1    0    0  502  503 -0.00000000000E+00 -0.00000000000E+00 -0.32448974839E+03  0.32448974839E+03  0.00000000000E+00 0.  1.
         24    1    1    2    0    0 -0.69499396920E+02  0.77920844101E+02 -0.74480573853E+02  0.15138162357E+03  0.80419002446E+02 0. -1.
          1    1    1    2  501    0  0.49586205910E+02 -0.62891006217E+02  0.39892650770E+02  0.89473426586E+02  0.00000000000E+00 0. -1.
         -2    1    1    2    0  503  0.19913191010E+02 -0.15029837883E+02 -0.18593510201E+03  0.18760142153E+03  0.00000000000E+00 0.  1.
<mgrwt>
<rscale>  2 0.11841406E+03</rscale>
<asrwt>0</asrwt>
<pdfrwt beam="1">  1       21 0.15994880E-01 0.11841406E+03</pdfrwt>
<pdfrwt beam="2">  1       21 0.49921500E-01 0.11841406E+03</pdfrwt>
<totfact> 0.13680787E+05</totfact>
</mgrwt>
</event>
<event>
 5    1  0.2051810E+000  0.9105061E+02  0.7546771E-02  0.1300327E+00
         21   -1    0    0  503  502  0.00000000000E+00  0.00000000000E+00  0.23031960008E+03  0.23031960008E+03  0.00000000000E+00 0. -1.
         21   -1    0    0  501  503 -0.00000000000E+00 -0.00000000000E+00 -0.45172620417E+02  0.45172620417E+02  0.00000000000E+00 0. -1.
         24    1    1    2    0    0  0.26187219085E+02  0.62741196507E+02  0.15881046447E+03  0.19055237538E+03  0.80419002446E+02 0. -1.
          1    1    1    2  501    0 -0.71453943398E+01 -0.56212540874E+02  0.71203920811E+01  0.57110475355E+02  0.00000000000E+00 0. -1.
         -2    1    1    2    0  502 -0.19041824745E+02 -0.65286556326E+01  0.19216123111E+02  0.27829369763E+02  0.00000000000E+00 0.  1.
<mgrwt>
<rscale>  2 0.91050614E+02</rscale>
<asrwt>0</asrwt>
<pdfrwt beam="1">  1       21 0.35433784E-01 0.91050614E+02</pdfrwt>
<pdfrwt beam="2">  1       21 0.69496340E-02 0.91050614E+02</pdfrwt>
<totfact> 0.11693521E+06</totfact>
</mgrwt>
</event>
<event>
 5    1  0.2051810E+000  0.7482151E+02  0.7546771E-02  0.1344425E+00
         21   -1    0    0  503  502  0.00000000000E+00  0.00000000000E+00  0.11547067340E+02  0.11547067340E+02  0.00000000000E+00 0.  1.
         21   -1    0    0  501  503 -0.00000000000E+00 -0.00000000000E+00 -0.54113440880E+03  0.54113440880E+03  0.00000000000E+00 0. -1.
         24    1    1    2    0    0 -0.40843990778E+02  0.33518422828E+02 -0.34895955030E+03  0.36198301058E+03  0.80419002446E+02 0.  1.
          1    1    1    2  501    0  0.22725591121E+02 -0.13559094278E+02 -0.13608355685E+03  0.13863273775E+03  0.00000000000E+00 0. -1.
         -2    1    1    2    0  502  0.18118399657E+02 -0.19959328550E+02 -0.44544234314E+02  0.52065727815E+02  0.00000000000E+00 0.  1.
<mgrwt>
<rscale>  2 0.74821512E+02</rscale>
<asrwt>0</asrwt>
<pdfrwt beam="1">  1       21 0.17764722E-02 0.74821512E+02</pdfrwt>
<pdfrwt beam="2">  1       21 0.83251435E-01 0.74821512E+02</pdfrwt>
<totfact> 0.18481409E+06</totfact>
</mgrwt>
</event>
<event>
 5    1  0.2051810E+000  0.6877908E+02  0.7546771E-02  0.1364295E+00
         21   -1    0    0  501  502  0.00000000000E+00  0.00000000000E+00  0.84881335989E+02  0.84881335989E+02  0.00000000000E+00 0.  1.
         21   -1    0    0  502  503 -0.00000000000E+00 -0.00000000000E+00 -0.63766925132E+02  0.63766925132E+02  0.00000000000E+00 0. -1.
         24    1    1    2    0    0  0.21805039386E+02 -0.29077587397E+02  0.24149152189E+02  0.91495154720E+02  0.80419002446E+02 0.  1.
          1    1    1    2  501    0 -0.16583510948E+01  0.29113576323E+02  0.12485709812E+02  0.31721339887E+02  0.00000000000E+00 0. -1.
         -2    1    1    2    0  503 -0.20146688292E+02 -0.35988925934E-01 -0.15520451143E+02  0.25431766514E+02  0.00000000000E+00 0.  1.
<mgrwt>
<rscale>  2 0.68779083E+02</rscale>
<asrwt>0</asrwt>
<pdfrwt beam="1">  1       21 0.13058667E-01 0.68779083E+02</pdfrwt>
<pdfrwt beam="2">  1       21 0.98102962E-02 0.68779083E+02</pdfrwt>
<totfact> 0.40257960E+06</totfact>
</mgrwt>
</event>
<event>
 5    1  0.2051810E+000  0.7824608E+02  0.7546771E-02  0.1334104E+00
         21   -1    0    0  503  502  0.00000000000E+00  0.00000000000E+00  0.68369137188E+01  0.68369137188E+01  0.00000000000E+00 0. -1.
         21   -1    0    0  501  503 -0.00000000000E+00 -0.00000000000E+00 -0.97167098091E+03  0.97167098091E+03  0.00000000000E+00 0.  1.
         24    1    1    2    0    0  0.51724693393E+02 -0.13621122747E+02 -0.67414527350E+03  0.68102866653E+03  0.80419002446E+02 0.  0.
          1    1    1    2  501    0 -0.32278381930E+02 -0.53772792494E+01 -0.20458431104E+03  0.20718481942E+03  0.00000000000E+00 0. -1.
         -2    1    1    2    0  502 -0.19446311463E+02  0.18998401996E+02 -0.86104482644E+02  0.90294408682E+02  0.00000000000E+00 0.  1.
<mgrwt>
<rscale>  2 0.78246081E+02</rscale>
<asrwt>0</asrwt>
<pdfrwt beam="1">  1       21 0.10518336E-02 0.78246081E+02</pdfrwt>
<pdfrwt beam="2">  1       21 0.14948774E+00 0.78246081E+02</pdfrwt>
<totfact> 0.10600615E+06</totfact>
</mgrwt>
</event>
<event>
 5    1  0.2051810E+000  0.8549045E+02  0.7546771E-02  0.1314155E+00
         21   -1    0    0  501  502  0.00000000000E+00  0.00000000000E+00  0.68210471149E+03  0.68210471149E+03  0.00000000000E+00 0. -1.
         21   -1    0    0  502  503 -0.00000000000E+00 -0.00000000000E+00 -0.25554682264E+02  0.25554682264E+02  0.00000000000E+00 0.  1.
         24    1    1    2    0    0  0.14705564407E+02  0.25764693652E+02  0.13377204477E+03  0.15887809471E+03  0.80419002446E+02 0. -1.
          1    1    1    2  501    0  0.33258253918E+02 -0.12118042345E+02  0.48482132486E+03  0.48611179316E+03  0.00000000000E+00 0. -1.
         -2    1    1    2    0  503 -0.47963818324E+02 -0.13646651307E+02  0.37956659589E+02  0.62669505881E+02  0.00000000000E+00 0.  1.
<mgrwt>
<rscale>  2 0.85490448E+02</rscale>
<asrwt>0</asrwt>
<pdfrwt beam="1">  1       21 0.10493917E+00 0.85490448E+02</pdfrwt>
<pdfrwt beam="2">  1       21 0.39314901E-02 0.85490448E+02</pdfrwt>
<totfact> 0.30365352E+05</totfact>
</mgrwt>
</event>
<event>
 5    1  0.2051810E+000  0.1833605E+03  0.7546771E-02  0.1164590E+00
         21   -1    0    0  503  502  0.00000000000E+00  0.00000000000E+00  0.24339678067E+03  0.24339678067E+03  0.00000000000E+00 0.  1.
         21   -1    0    0  501  503 -0.00000000000E+00 -0.00000000000E+00 -0.32612906647E+03  0.32612906647E+03  0.00000000000E+00 0. -1.
         24    1    1    2    0    0 -0.14941374341E+03 -0.16336256773E+02 -0.54794112191E+02  0.17905571952E+03  0.80419002446E+02 0.  1.
          1    1    1    2  501    0 -0.15686691242E+02  0.26551451609E+02 -0.16978567210E+03  0.17256368771E+03  0.00000000000E+00 0. -1.
         -2    1    1    2    0  502  0.16510043466E+03 -0.10215194836E+02  0.14184749848E+03  0.21790643991E+03  0.00000000000E+00 0.  1.
<mgrwt>
<rscale>  2 0.18336049E+03</rscale>
<asrwt>0</asrwt>
<pdfrwt beam="1">  1       21 0.37445659E-01 0.18336049E+03</pdfrwt>
<pdfrwt beam="2">  1       21 0.50173702E-01 0.18336049E+03</pdfrwt>
<totfact> 0.26154641E+04</totfact>
</mgrwt>
</event>
<event>
 5    1  0.2051810E+000  0.7317157E+02  0.7546771E-02  0.1349628E+00
         21   -1    0    0  503  502  0.00000000000E+00  0.00000000000E+00  0.26351399900E+03  0.26351399900E+03  0.00000000000E+00 0. -1.
         21   -1    0    0  501  503 -0.00000000000E+00 -0.00000000000E+00 -0.26919939249E+02  0.26919939249E+02  0.00000000000E+00 0. -1.
         24    1    1    2    0    0 -0.26180100853E+01 -0.15462671595E+02  0.19842008917E+03  0.21467113437E+03  0.80419002446E+02 0. -1.
          1    1    1    2  501    0  0.32534026871E+02  0.64728174388E+01  0.12939467671E+02  0.35606040129E+02  0.00000000000E+00 0. -1.
         -2    1    1    2    0  502 -0.29916016786E+02  0.89898541561E+01  0.25234502910E+02  0.40156763754E+02  0.00000000000E+00 0.  1.
<mgrwt>
<rscale>  2 0.73171573E+02</rscale>
<asrwt>0</asrwt>
<pdfrwt beam="1">  1       21 0.40540613E-01 0.73171573E+02</pdfrwt>
<pdfrwt beam="2">  1       21 0.41415293E-02 0.73171573E+02</pdfrwt>
<totfact> 0.21121221E+06</totfact>
</mgrwt>
</event>
<event>
 5    1  0.2051810E+000  0.1282089E+03  0.7546771E-02  0.1230138E+00
         21   -1    0    0  501  502  0.00000000000E+00  0.00000000000E+00  0.78062165102E+02  0.78062165102E+02  0.00000000000E+00 0.  1.
         21   -1    0    0  502  503 -0.00000000000E+00 -0.00000000000E+00 -0.24511727084E+03  0.24511727084E+03  0.00000000000E+00 0.  1.
         24    1    1    2    0    0 -0.10725140813E+03  0.24593836237E+02 -0.39329906705E+02  0.14185125605E+03  0.80419002446E+02 0.  1.
          1    1    1    2  501    0  0.16912934019E+02  0.13937154249E+02 -0.23144032649E+01  0.22037424263E+02  0.00000000000E+00 0. -1.
         -2    1    1    2    0  503  0.90338474115E+02 -0.38530990487E+02 -0.12541079577E+03  0.15929075563E+03  0.00000000000E+00 0.  1.
<mgrwt>
<rscale>  2 0.12820893E+03</rscale>
<asrwt>0</asrwt>
<pdfrwt beam="1">  1       21 0.12009564E-01 0.12820893E+03</pdfrwt>
<pdfrwt beam="2">  1       21 0.37710349E-01 0.12820893E+03</pdfrwt>
<totfact> 0.40162518E+05</totfact>
</mgrwt>
</event>
<event>
 5    1  0.2051810E+000  0.8757711E+02  0.7546771E-02  0.1308827E+00
         21   -1    0    0  501  502  0.00000000000E+00  0.00000000000E+00  0.21817493723E+02  0.21817493723E+02  0.00000000000E+00 0. -1.
         21   -1    0    0  502  503 -0.00000000000E+00 -0.00000000000E+00 -0.71828851763E+03  0.71828851763E+03  0.00000000000E+00 0.  1.
         24    1    1    2    0    0  0.61302712980E+02  0.28623357813E+00 -0.13268684274E+03  0.16682661280E+03  0.80419002446E+02 0. -1.
          1    1    1    2  501    0 -0.26199746560E+02 -0.20732383012E+02 -0.67308165442E+02  0.75144178486E+02  0.00000000000E+00 0. -1.
         -2    1    1    2    0  503 -0.35102966420E+02  0.20446149434E+02 -0.49647601573E+03  0.49813522006E+03  0.00000000000E+00 0.  1.
<mgrwt>
<rscale>  2 0.87577107E+02</rscale>
<asrwt>0</asrwt>
<pdfrwt beam="1">  1       21 0.33565384E-02 0.87577107E+02</pdfrwt>
<pdfrwt beam="2">  1       21 0.11050590E+00 0.87577107E+02</pdfrwt>
<totfact> 0.34825051E+05</totfact>
</mgrwt>
</event>
<event>
 5    1  0.2051810E+000  0.1482255E+03  0.7546771E-02  0.1202671E+00
         21   -1    0    0  501  502  0.00000000000E+00  0.00000000000E+00  0.30798054286E+04  0.30798054286E+04  0.00000000000E+00 0. -1.
         21   -1    0    0  502  503 -0.00000000000E+00 -0.00000000000E+00 -0.83956542224E+01  0.83956542224E+01  0.00000000000E+00 0. -1.
         24    1    1    2    0    0 -0.82683599924E+02  0.10674173209E+03  0.11959322052E+04  0.12062136753E+04  0.80419002446E+02 0. -1.
          1    1    1    2  501    0  0.60134593016E+02 -0.98268293488E+02  0.17720768925E+04  0.17758179354E+04  0.00000000000E+00 0. -1.
         -2    1    1    2    0  503  0.22549006908E+02 -0.84734386009E+01  0.10340067672E+03  0.10616947217E+03  0.00000000000E+00 0.  1.
<mgrwt>
<rscale>  2 0.14822547E+03</rscale>
<asrwt>0</asrwt>
<pdfrwt beam="1">  1       21 0.47381532E+00 0.14822547E+03</pdfrwt>
<pdfrwt beam="2">  1       21 0.12916416E-02 0.14822547E+03</pdfrwt>
<totfact> 0.76916448E+03</totfact>
</mgrwt>
</event>
<event>
 5    1  0.2051810E+000  0.1085940E+03  0.7546771E-02  0.1263196E+00
         21   -1    0    0  503  502  0.00000000000E+00  0.00000000000E+00  0.26508362799E+02  0.26508362799E+02  0.00000000000E+00 0.  1.
         21   -1    0    0  501  503 -0.00000000000E+00 -0.00000000000E+00 -0.55161018774E+03  0.55161018774E+03  0.00000000000E+00 0.  1.
         24    1    1    2    0    0 -0.39453638904E+02  0.18184180158E+02 -0.30491989817E+03  0.31832469946E+03  0.80419002446E+02 0.  1.
          1    1    1    2  501    0 -0.42492989364E+02 -0.50324080876E+01 -0.13170960978E+03  0.13848610249E+03  0.00000000000E+00 0. -1.
         -2    1    1    2    0  502  0.81946628268E+02 -0.13151772071E+02 -0.88472316992E+02  0.12130774859E+03  0.00000000000E+00 0.  1.
<mgrwt>
<rscale>  2 0.10859401E+03</rscale>
<asrwt>0</asrwt>
<pdfrwt beam="1">  1       21 0.40782099E-02 0.10859401E+03</pdfrwt>
<pdfrwt beam="2">  1       21 0.84863100E-01 0.10859401E+03</pdfrwt>
<totfact> 0.46277919E+05</totfact>
</mgrwt>
</event>
<event>
 5    1  0.2051810E+000  0.7966129E+02  0.7546771E-02  0.1330015E+00
         21   -1    0    0  503  502  0.00000000000E+00  0.00000000000E+00  0.50075891542E+02  0.50075891542E+02  0.00000000000E+00 0.  1.
         21   -1    0    0  501  503 -0.00000000000E+00 -0.00000000000E+00 -0.34411870272E+03  0.34411870272E+03  0.00000000000E+00 0. -1.
         24    1    1    2    0    0 -0.34035330913E+02  0.49657144548E+01 -0.12872846388E+03  0.15563192294E+03  0.80419002446E+02 0.  0.
          1    1    1    2  501    0  0.44416127990E+02 -0.23770541816E+02 -0.19529145454E+03  0.20168436553E+03  0.00000000000E+00 0. -1.
         -2    1    1    2    0  502 -0.10380797077E+02  0.18804827361E+02  0.29977107237E+02  0.36878305796E+02  0.00000000000E+00 0.  1.
<mgrwt>
<rscale>  2 0.79661287E+02</rscale>
<asrwt>0</asrwt>
<pdfrwt beam="1">  1       21 0.77039831E-02 0.79661287E+02</pdfrwt>
<pdfrwt beam="2">  1       21 0.52941340E-01 0.79661287E+02</pdfrwt>
<totfact> 0.43956406E+05</totfact>
</mgrwt>
</event>
<event>
 5    1  0.2051810E+000  0.2154204E+03  0.7546771E-02  0.1137344E+00
         21   -1    0    0  503  502  0.00000000000E+00  0.00000000000E+00  0.20133267571E+04  0.20133267571E+04  0.00000000000E+00 0. -1.
         21   -1    0    0  501  503 -0.00000000000E+00 -0.00000000000E+00 -0.27281674188E+02  0.27281674188E+02  0.00000000000E+00 0.  1.
         24    1    1    2    0    0 -0.79565233272E+02  0.12630723182E+03  0.91212055437E+03  0.92774741434E+03  0.80419002446E+02 0.  0.
          1    1    1    2  501    0  0.12800218822E+03 -0.21638059654E+01  0.28062639568E+03  0.30844840119E+03  0.00000000000E+00 0. -1.
         -2    1    1    2    0  502 -0.48436954947E+02 -0.12414342585E+03  0.79329813285E+03  0.80441261574E+03  0.00000000000E+00 0.  1.
<mgrwt>
<rscale>  2 0.21542043E+03</rscale>
<asrwt>0</asrwt>
<pdfrwt beam="1">  1       21 0.30974246E+00 0.21542043E+03</pdfrwt>
<pdfrwt beam="2">  1       21 0.41971822E-02 0.21542043E+03</pdfrwt>
<totfact> 0.10587723E+04</totfact>
</mgrwt>
</event>
<event>
 5    1  0.2051810E+000  0.6888293E+02  0.7546771E-02  0.1363933E+00
         21   -1    0    0  503  502  0.00000000000E+00  0.00000000000E+00  0.34656321262E+02  0.34656321262E+02  0.00000000000E+00 0. -1.
         21   -1    0    0  501  503 -0.00000000000E+00 -0.00000000000E+00 -0.22784877192E+03  0.22784877192E+03  0.00000000000E+00 0.  1.
         24    1    1    2    0    0 -0.29180596070E-01 -0.10510057960E+02 -0.93803867640E+02  0.12400340200E+03  0.80419002446E+02 0.  0.
          1    1    1    2  501    0  0.70628679539E+01  0.32664207352E+02 -0.10850429311E+03  0.11353420705E+03  0.00000000000E+00 0. -1.
         -2    1    1    2    0  502 -0.70336873578E+01 -0.22154149391E+02  0.91157100985E+01  0.24967484128E+02  0.00000000000E+00 0.  1.
<mgrwt>
<rscale>  2 0.68882933E+02</rscale>
<asrwt>0</asrwt>
<pdfrwt beam="1">  1       21 0.53317418E-02 0.68882933E+02</pdfrwt>
<pdfrwt beam="2">  1       21 0.35053657E-01 0.68882933E+02</pdfrwt>
<totfact> 0.18438575E+06</totfact>
</mgrwt>
</event>
<event>
 5    1  0.2051810E+000  0.7476499E+02  0.7546771E-02  0.1344600E+00
         21   -1    0    0  503  502  0.00000000000E+00  0.00000000000E+00  0.89578749783E+02  0.89578749783E+02  0.00000000000E+00 0.  1.
         21   -1    0    0  501  503 -0.00000000000E+00 -0.00000000000E+00 -0.96740413496E+02  0.96740413496E+02  0.00000000000E+00 0. -1.
         24    1    1    2    0    0 -0.11341727664E+02 -0.19515906411E+02  0.16141561839E+02  0.85072153860E+02  0.80419002446E+02 0.  1.
          1    1    1    2  501    0 -0.21079975377E+02 -0.89091598491E+01 -0.46833891084E+02  0.52126306652E+02  0.00000000000E+00 0. -1.
         -2    1    1    2    0  502  0.32421703041E+02  0.28425066260E+02  0.23530665531E+02  0.49120702767E+02  0.00000000000E+00 0.  1.
<mgrwt>
<rscale>  2 0.74764990E+02</rscale>
<asrwt>0</asrwt>
<pdfrwt beam="1">  1       21 0.13781346E-01 0.74764990E+02</pdfrwt>
<pdfrwt beam="2">  1       21 0.14883141E-01 0.74764990E+02</pdfrwt>
<totfact> 0.17786473E+06</totfact>
</mgrwt>
</event>
<event>
 5    1  0.2051810E+000  0.7628815E+02  0.7546771E-02  0.1339928E+00
         21   -1    0    0  503  502  0.00000000000E+00  0.00000000000E+00  0.53064030013E+02  0.53064030013E+02  0.00000000000E+00 0.  1.
         21   -1    0    0  501  503 -0.00000000000E+00 -0.00000000000E+00 -0.12887065713E+04  0.12887065713E+04  0.00000000000E+00 0. -1.
         24    1    1    2    0    0 -0.64121195087E+01  0.54719596353E+02 -0.30004860222E+03  0.31548649599E+03  0.80419002446E+02 0.  1.
          1    1    1    2  501    0  0.28281451680E+01 -0.22603612236E+02 -0.97503163486E+03  0.97529770361E+03  0.00000000000E+00 0. -1.
         -2    1    1    2    0  502  0.35839743407E+01 -0.32115984117E+02  0.39437695807E+02  0.50986401701E+02  0.00000000000E+00 0.  1.
<mgrwt>
<rscale>  2 0.76288149E+02</rscale>
<asrwt>0</asrwt>
<pdfrwt beam="1">  1       21 0.81636970E-02 0.76288149E+02</pdfrwt>
<pdfrwt beam="2">  1       21 0.19826255E+00 0.76288149E+02</pdfrwt>
<totfact> 0.18082260E+04</totfact>
</mgrwt>
</event>
<event>
 5    1  0.2051810E+000  0.9023052E+02  0.7546771E-02  0.1302294E+00
         21   -1    0    0  503  502  0.00000000000E+00  0.00000000000E+00  0.99982094893E+02  0.99982094893E+02  0.00000000000E+00 0.  1.
         21   -1    0    0  501  503 -0.00000000000E+00 -0.00000000000E+00 -0.11914203799E+03  0.11914203799E+03  0.00000000000E+00 0. -1.
         24    1    1    2    0    0  0.38542839897E+02 -0.18394337204E+02 -0.43356436566E+02  0.10085087354E+03  0.80419002446E+02 0.  1.
          1    1    1    2  501    0 -0.31326287211E+02 -0.28264027688E+02 -0.25841740182E+02  0.49477136813E+02  0.00000000000E+00 0. -1.
         -2    1    1    2    0  502 -0.72165526857E+01  0.46658364891E+02  0.50038233654E+02  0.68796122523E+02  0.00000000000E+00 0.  1.
<mgrwt>
<rscale>  2 0.90230522E+02</rscale>
<asrwt>0</asrwt>
<pdfrwt beam="1">  1       21 0.15381861E-01 0.90230522E+02</pdfrwt>
<pdfrwt beam="2">  1       21 0.18329544E-01 0.90230522E+02</pdfrwt>
<totfact> 0.10128953E+06</totfact>
</mgrwt>
</event>
<event>
 5    1  0.2051810E+000  0.7948582E+02  0.7546771E-02  0.1330517E+00
         21   -1    0    0  501  502  0.00000000000E+00  0.00000000000E+00  0.36150303668E+01  0.36150303668E+01  0.00000000000E+00 0.  1.
         21   -1    0    0  502  503 -0.00000000000E+00 -0.00000000000E+00 -0.25173314600E+04  0.25173314600E+04  0.00000000000E+00 0.  1.
         24    1    1    2    0    0  0.10063051650E+02 -0.15953664450E+02 -0.63271518468E+03  0.63808424624E+03  0.80419002446E+02 0.  1.
          1    1    1    2  501    0 -0.67182374914E+01 -0.29772886266E+02 -0.40473116781E+03  0.40588037359E+03  0.00000000000E+00 0. -1.
         -2    1    1    2    0  503 -0.33448141591E+01  0.45726550715E+02 -0.14762700771E+04  0.14769818705E+04  0.00000000000E+00 0.  1.
<mgrwt>
<rscale>  2 0.79485818E+02</rscale>
<asrwt>0</asrwt>
<pdfrwt beam="1">  1       21 0.55616020E-03 0.79485818E+02</pdfrwt>
<pdfrwt beam="2">  1       21 0.38728059E+00 0.79485818E+02</pdfrwt>
<totfact> 0.11655425E+05</totfact>
</mgrwt>
</event>
<event>
 5    1  0.2051810E+000  0.9932367E+02  0.7546771E-02  0.1281725E+00
         21   -1    0    0  503  502  0.00000000000E+00  0.00000000000E+00  0.50741496295E+02  0.50741496295E+02  0.00000000000E+00 0.  1.
         21   -1    0    0  501  503 -0.00000000000E+00 -0.00000000000E+00 -0.64936378613E+03  0.64936378613E+03  0.00000000000E+00 0. -1.
         24    1    1    2    0    0 -0.60858250838E+02  0.28338026156E+02 -0.47056011367E+03  0.48207966867E+03  0.80419002446E+02 0. -1.
          1    1    1    2  501    0  0.30466246868E+02 -0.48602643986E+02 -0.15970717697E+03  0.16969617431E+03  0.00000000000E+00 0. -1.
         -2    1    1    2    0  502  0.30392003969E+02  0.20264617830E+02  0.31645000798E+02  0.48329439440E+02  0.00000000000E+00 0.  1.
<mgrwt>
<rscale>  2 0.99323674E+02</rscale>
<asrwt>0</asrwt>
<pdfrwt beam="1">  1       21 0.78063842E-02 0.99323674E+02</pdfrwt>
<pdfrwt beam="2">  1       21 0.99902119E-01 0.99323674E+02</pdfrwt>
<totfact> 0.10735326E+05</totfact>
</mgrwt>
</event>
<event>
 5    1  0.2051810E+000  0.8320179E+02  0.7546771E-02  0.1320203E+00
         21   -1    0    0  501  502  0.00000000000E+00  0.00000000000E+00  0.39395363934E+03  0.39395363934E+03  0.00000000000E+00 0. -1.
         21   -1    0    0  502  503 -0.00000000000E+00 -0.00000000000E+00 -0.20432155971E+02  0.20432155971E+02  0.00000000000E+00 0. -1.
         24    1    1    2    0    0 -0.33629173982E+02 -0.54166195765E+02  0.21075556495E+03  0.23441421078E+03  0.80419002446E+02 0. -1.
          1    1    1    2  501    0  0.14449363974E+02  0.24815126376E+02  0.12574617132E+03  0.12898323231E+03  0.00000000000E+00 0. -1.
         -2    1    1    2    0  503  0.19179810008E+02  0.29351069389E+02  0.37019747109E+02  0.50988352221E+02  0.00000000000E+00 0.  1.
<mgrwt>
<rscale>  2 0.83201795E+02</rscale>
<asrwt>0</asrwt>
<pdfrwt beam="1">  1       21 0.60608247E-01 0.83201795E+02</pdfrwt>
<pdfrwt beam="2">  1       21 0.31434089E-02 0.83201795E+02</pdfrwt>
<totfact> 0.14703498E+06</totfact>
</mgrwt>
</event>
<event>
 5    1  0.2051810E+000  0.8056467E+02  0.7546771E-02  0.1327457E+00
         21   -1    0    0  503  502  0.00000000000E+00  0.00000000000E+00  0.45678128166E+02  0.45678128166E+02  0.00000000000E+00 0.  1.
         21   -1    0    0  501  503 -0.00000000000E+00 -0.00000000000E+00 -0.25525406298E+03  0.25525406298E+03  0.00000000000E+00 0.  1.
         24    1    1    2    0    0  0.13775919020E+02 -0.12974000922E+02 -0.12535510348E+03  0.15013067164E+03  0.80419002446E+02 0.  1.
          1    1    1    2  501    0  0.16275800631E+02 -0.25157733561E+02 -0.96230783423E+02  0.10078778161E+03  0.00000000000E+00 0. -1.
         -2    1    1    2    0  502 -0.30051719651E+02  0.38131734484E+02  0.12009952088E+02  0.50013737892E+02  0.00000000000E+00 0.  1.
<mgrwt>
<rscale>  2 0.80564671E+02</rscale>
<asrwt>0</asrwt>
<pdfrwt beam="1">  1       21 0.70274044E-02 0.80564671E+02</pdfrwt>
<pdfrwt beam="2">  1       21 0.39269855E-01 0.80564671E+02</pdfrwt>
<totfact> 0.93590639E+05</totfact>
</mgrwt>
</event>
<event>
 5    1  0.2051810E+000  0.6286111E+02  0.7546771E-02  0.1386203E+00
         21   -1    0    0  503  502  0.00000000000E+00  0.00000000000E+00  0.28950588775E+02  0.28950588775E+02  0.00000000000E+00 0.  1.
         21   -1    0    0  501  503 -0.00000000000E+00 -0.00000000000E+00 -0.46982256414E+03  0.46982256414E+03  0.00000000000E+00 0. -1.
         24    1    1    2    0    0 -0.19552097542E+02  0.13720713814E+02 -0.12802950672E+03  0.15306636812E+03  0.80419002446E+02 0.  0.
          1    1    1    2  501    0 -0.69293582325E+00 -0.20476624277E+02 -0.32187871900E+03  0.32253012579E+03  0.00000000000E+00 0. -1.
         -2    1    1    2    0  502  0.20245033365E+02  0.67559104630E+01  0.90362503447E+01  0.23176659001E+02  0.00000000000E+00 0.  1.
<mgrwt>
<rscale>  2 0.62861114E+02</rscale>
<asrwt>0</asrwt>
<pdfrwt beam="1">  1       21 0.44539367E-02 0.62861114E+02</pdfrwt>
<pdfrwt beam="2">  1       21 0.72280395E-01 0.62861114E+02</pdfrwt>
<totfact> 0.57006413E+05</totfact>
</mgrwt>
</event>
<event>
 5    1  0.2158165E+000  0.1473995E+03  0.7546771E-02  0.1203705E+00
         21   -1    0    0  503  502  0.00000000000E+00  0.00000000000E+00  0.78261214508E+03  0.78261214508E+03  0.00000000000E+00 0.  1.
         21   -1    0    0  501  503 -0.00000000000E+00 -0.00000000000E+00 -0.44650097521E+02  0.44650097521E+02  0.00000000000E+00 0. -1.
         24    1    1    2    0    0  0.13957970235E+02  0.84821942486E+01  0.20650229527E+03  0.22220978030E+03  0.80419002446E+02 0. -1.
          1    1    1    2  501    0  0.80090167756E+02 -0.64883503513E+02  0.56392601414E+02  0.11749225291E+03  0.00000000000E+00 0. -1.
         -2    1    1    2    0  502 -0.94048137992E+02  0.56401309265E+02  0.47506715087E+03  0.48756020939E+03  0.00000000000E+00 0.  1.
<mgrwt>
<rscale>  2 0.14739950E+03</rscale>
<asrwt>0</asrwt>
<pdfrwt beam="1">  1       21 0.12040186E+00 0.14739950E+03</pdfrwt>
<pdfrwt beam="2">  1       21 0.68692464E-02 0.14739950E+03</pdfrwt>
<totfact> 0.83604892E+04</totfact>
</mgrwt>
</event>
<event>
 5    1  0.2051810E+000  0.8232363E+02  0.7546771E-02  0.1322584E+00
         21   -1    0    0  503  502  0.00000000000E+00  0.00000000000E+00  0.12335199261E+03  0.12335199261E+03  0.00000000000E+00 0.  1.
         21   -1    0    0  501  503 -0.00000000000E+00 -0.00000000000E+00 -0.77560142406E+02  0.77560142406E+02  0.00000000000E+00 0. -1.
         24    1    1    2    0    0  0.90754644147E+01  0.19396635804E+02  0.11360071685E+02  0.83993218285E+02  0.80419002446E+02 0. -1.
          1    1    1    2  501    0  0.13929089389E+02 -0.44940693740E+02 -0.21134721847E+02  0.51578696693E+02  0.00000000000E+00 0. -1.
         -2    1    1    2    0  502 -0.23004553803E+02  0.25544057935E+02  0.55566500371E+02  0.65340220041E+02  0.00000000000E+00 0.  1.
<mgrwt>
<rscale>  2 0.82323627E+02</rscale>
<asrwt>0</asrwt>
<pdfrwt beam="1">  1       21 0.18977230E-01 0.82323627E+02</pdfrwt>
<pdfrwt beam="2">  1       21 0.11932330E-01 0.82323627E+02</pdfrwt>
<totfact> 0.14863314E+06</totfact>
</mgrwt>
</event>
<event>
 5    1  0.2051810E+000  0.7190987E+02  0.7546771E-02  0.1353716E+00
         21   -1    0    0  501  502  0.00000000000E+00  0.00000000000E+00  0.15012654094E+04  0.15012654094E+04  0.00000000000E+00 0. -1.
         21   -1    0    0  502  503 -0.00000000000E+00 -0.00000000000E+00 -0.43493850149E+01  0.43493850149E+01  0.00000000000E+00 0.  1.
         24    1    1    2    0    0 -0.14200417190E+02  0.68461235622E+01  0.11719097871E+04  0.11747715890E+04  0.80419002446E+02 0.  0.
          1    1    1    2  501    0  0.37036484924E+02  0.26657266039E+01  0.19638394865E+03  0.19986360999E+03  0.00000000000E+00 0. -1.
         -2    1    1    2    0  503 -0.22836067734E+02 -0.95118501661E+01  0.12862228863E+03  0.13097959541E+03  0.00000000000E+00 0.  1.
<mgrwt>
<rscale>  2 0.71909874E+02</rscale>
<asrwt>0</asrwt>
<pdfrwt beam="1">  1       21 0.23096350E+00 0.71909874E+02</pdfrwt>
<pdfrwt beam="2">  1       21 0.66913735E-03 0.71909874E+02</pdfrwt>
<totfact> 0.65032188E+05</totfact>
</mgrwt>
</event>
<event>
 5    1  0.2051810E+000  0.9512022E+02  0.7546771E-02  0.1290906E+00
         21   -1    0    0  501  502  0.00000000000E+00  0.00000000000E+00  0.77100810908E+02  0.77100810908E+02  0.00000000000E+00 0.  1.
         21   -1    0    0  502  503 -0.00000000000E+00 -0.00000000000E+00 -0.31108222500E+03  0.31108222500E+03  0.00000000000E+00 0.  1.
         24    1    1    2    0    0  0.49228437696E+02  0.28019806278E+02  0.28123407467E+02  0.10230684544E+03  0.80419002446E+02 0.  1.
          1    1    1    2  501    0 -0.53220449322E+02 -0.47897624924E+02 -0.10274795928E+03  0.12523474692E+03  0.00000000000E+00 0. -1.
         -2    1    1    2    0  503  0.39920116260E+01  0.19877818646E+02 -0.15935686227E+03  0.16064144355E+03  0.00000000000E+00 0.  1.
<mgrwt>
<rscale>  2 0.95120222E+02</rscale>
<asrwt>0</asrwt>
<pdfrwt beam="1">  1       21 0.11861663E-01 0.95120222E+02</pdfrwt>
<pdfrwt beam="2">  1       21 0.47858805E-01 0.95120222E+02</pdfrwt>
<totfact> 0.25587385E+05</totfact>
</mgrwt>
</event>
<event>
 5    1  0.2051810E+000  0.1070698E+03  0.7546771E-02  0.1266094E+00
         21   -1    0    0  501  502  0.00000000000E+00  0.00000000000E+00  0.93412466896E+03  0.93412466896E+03  0.00000000000E+00 0. -1.
         21   -1    0    0  502  503 -0.00000000000E+00 -0.00000000000E+00 -0.54907611291E+02  0.54907611291E+02  0.00000000000E+00 0.  1.
         24    1    1    2    0    0 -0.96756642270E+01  0.36167057999E+02  0.99871324958E+02  0.13357833681E+03  0.80419002446E+02 0.  1.
          1    1    1    2  501    0 -0.42347044051E+02  0.21730014739E+02  0.77609185776E+03  0.77755002241E+03  0.00000000000E+00 0. -1.
         -2    1    1    2    0  503  0.52022708278E+02 -0.57897072738E+02  0.32538749516E+01  0.77903921021E+02  0.00000000000E+00 0.  1.
<mgrwt>
<rscale>  2 0.10706981E+03</rscale>
<asrwt>0</asrwt>
<pdfrwt beam="1">  1       21 0.14371148E+00 0.10706981E+03</pdfrwt>
<pdfrwt beam="2">  1       21 0.84473255E-02 0.10706981E+03</pdfrwt>
<totfact> 0.38653678E+04</totfact>
</mgrwt>
</event>
<event>
 5    1  0.2051810E+000  0.8481288E+02  0.7546771E-02  0.1315923E+00
         21   -1    0    0  503  502  0.00000000000E+00  0.00000000000E+00  0.98860971960E+02  0.98860971960E+02  0.00000000000E+00 0.  1.
         21   -1    0    0  501  503 -0.00000000000E+00 -0.00000000000E+00 -0.78325044827E+02  0.78325044827E+02  0.00000000000E+00 0. -1.
         24    1    1    2    0    0  0.42125278383E+02 -0.17748830387E+02  0.34590199351E+02  0.98758583953E+02  0.80419002446E+02 0.  1.
          1    1    1    2  501    0 -0.16389216591E+02  0.39920235336E+02 -0.90352368362E+01  0.44089308392E+02  0.00000000000E+00 0. -1.
         -2    1    1    2    0  502 -0.25736061792E+02 -0.22171404949E+02 -0.50190353820E+01  0.34338124441E+02  0.00000000000E+00 0.  1.
<mgrwt>
<rscale>  2 0.84812883E+02</rscale>
<asrwt>0</asrwt>
<pdfrwt beam="1">  1       21 0.15209380E-01 0.84812883E+02</pdfrwt>
<pdfrwt beam="2">  1       21 0.12050007E-01 0.84812883E+02</pdfrwt>
<totfact> 0.21785373E+06</totfact>
</mgrwt>
</event>
<event>
 5    1  0.2051810E+000  0.8007167E+02  0.7546771E-02  0.1328848E+00
         21   -1    0    0  501  502  0.00000000000E+00  0.00000000000E+00  0.90453921858E+03  0.90453921858E+03  0.00000000000E+00 0. -1.
         21   -1    0    0  502  503 -0.00000000000E+00 -0.00000000000E+00 -0.89741041693E+01  0.89741041693E+01  0.00000000000E+00 0.  1.
         24    1    1    2    0    0  0.28190961208E+01  0.33367171381E+02  0.55227787507E+03  0.55910587788E+03  0.80419002446E+02 0. -1.
          1    1    1    2  501    0  0.20811225961E+02 -0.42797035383E+02  0.30331137828E+03  0.30702196266E+03  0.00000000000E+00 0. -1.
         -2    1    1    2    0  503 -0.23630322082E+02  0.94298640019E+01  0.39975861062E+02  0.47385482212E+02  0.00000000000E+00 0.  1.
<mgrwt>
<rscale>  2 0.80071673E+02</rscale>
<asrwt>0</asrwt>
<pdfrwt beam="1">  1       21 0.13915981E+00 0.80071673E+02</pdfrwt>
<pdfrwt beam="2">  1       21 0.13806321E-02 0.80071673E+02</pdfrwt>
<totfact> 0.82837721E+05</totfact>
</mgrwt>
</event>
<event>
 5    1  0.2051810E+000  0.8633086E+02  0.7546771E-02  0.1311988E+00
         21   -1    0    0  503  502  0.00000000000E+00  0.00000000000E+00  0.90285244018E+01  0.90285244018E+01  0.00000000000E+00 0.  1.
         21   -1    0    0  501  503 -0.00000000000E+00 -0.00000000000E+00 -0.22546991922E+04  0.22546991922E+04  0.00000000000E+00 0.  1.
         24    1    1    2    0    0 -0.35877298709E+02 -0.53372796313E+02 -0.19916657864E+04  0.19943258652E+04  0.80419002446E+02 0.  1.
          1    1    1    2  501    0  0.85118708435E+01  0.36638121771E+02 -0.21783049246E+03  0.22105412767E+03  0.00000000000E+00 0. -1.
         -2    1    1    2    0  502  0.27365427866E+02  0.16734674543E+02 -0.36174388903E+02  0.48347723698E+02  0.00000000000E+00 0.  1.
<mgrwt>
<rscale>  2 0.86330861E+02</rscale>
<asrwt>0</asrwt>
<pdfrwt beam="1">  1       21 0.13890008E-02 0.86330861E+02</pdfrwt>
<pdfrwt beam="2">  1       21 0.34687754E+00 0.86330861E+02</pdfrwt>
<totfact> 0.47115982E+04</totfact>
</mgrwt>
</event>
<event>
 5    1  0.2051810E+000  0.6912532E+02  0.7546771E-02  0.1363093E+00
         21   -1    0    0  503  502  0.00000000000E+00  0.00000000000E+00  0.18116742274E+03  0.18116742274E+03  0.00000000000E+00 0. -1.
         21   -1    0    0  501  503 -0.00000000000E+00 -0.00000000000E+00 -0.27002250302E+02  0.27002250302E+02  0.00000000000E+00 0.  1.
         24    1    1    2    0    0 -0.11154634619E+02  0.36006623038E+01  0.10120707163E+03  0.12979783490E+03  0.80419002446E+02 0. -1.
          1    1    1    2  501    0 -0.35331228631E+01 -0.28151816841E+02  0.19914284172E+02  0.34663907204E+02  0.00000000000E+00 0. -1.
         -2    1    1    2    0  502  0.14687757483E+02  0.24551154537E+02  0.33043816636E+02  0.43707930938E+02  0.00000000000E+00 0.  1.
<mgrwt>
<rscale>  2 0.69125322E+02</rscale>
<asrwt>0</asrwt>
<pdfrwt beam="1">  1       21 0.27871911E-01 0.69125322E+02</pdfrwt>
<pdfrwt beam="2">  1       21 0.41541925E-02 0.69125322E+02</pdfrwt>
<totfact> 0.43037870E+06</totfact>
</mgrwt>
</event>
<event>
 5    1  0.2051810E+000  0.7534003E+02  0.7546771E-02  0.1342821E+00
         21   -1    0    0  503  502  0.00000000000E+00  0.00000000000E+00  0.14073253673E+02  0.14073253673E+02  0.00000000000E+00 0.  1.
         21   -1    0    0  501  503 -0.00000000000E+00 -0.00000000000E+00 -0.82743179280E+03  0.82743179280E+03  0.00000000000E+00 0.  1.
         24    1    1    2    0    0  0.47058494035E+02 -0.16454552821E+02 -0.32274589311E+03  0.33632927562E+03  0.80419002446E+02 0.  1.
          1    1    1    2  501    0 -0.14390685542E+02  0.18373640174E+02 -0.45927190269E+03  0.45986450514E+03  0.00000000000E+00 0. -1.
         -2    1    1    2    0  502 -0.32667808493E+02 -0.19190873532E+01 -0.31340743327E+02  0.45311265710E+02  0.00000000000E+00 0.  1.
<mgrwt>
<rscale>  2 0.75340028E+02</rscale>
<asrwt>0</asrwt>
<pdfrwt beam="1">  1       21 0.21651162E-02 0.75340028E+02</pdfrwt>
<pdfrwt beam="2">  1       21 0.12729718E+00 0.75340028E+02</pdfrwt>
<totfact> 0.50523220E+05</totfact>
</mgrwt>
</event>
<event>
 5    1  0.2051810E+000  0.1127637E+03  0.7546771E-02  0.1255536E+00
         21   -1    0    0  501  502  0.00000000000E+00  0.00000000000E+00  0.14465228652E+03  0.14465228652E+03  0.00000000000E+00 0. -1.
         21   -1    0    0  502  503 -0.00000000000E+00 -0.00000000000E+00 -0.19595705920E+03  0.19595705920E+03  0.00000000000E+00 0.  1.
         24    1    1    2    0    0  0.45346976102E+02 -0.18770152198E+02  0.81965858155E+02  0.12487707841E+03  0.80419002446E+02 0.  0.
          1    1    1    2  501    0  0.32364671984E+02 -0.26102463638E+02  0.13488583958E+02  0.43712155035E+02  0.00000000000E+00 0. -1.
         -2    1    1    2    0  503 -0.77711648086E+02  0.44872615836E+02 -0.14675921479E+03  0.17202011227E+03  0.00000000000E+00 0.  1.
<mgrwt>
<rscale>  2 0.11276372E+03</rscale>
<asrwt>0</asrwt>
<pdfrwt beam="1">  1       21 0.22254198E-01 0.11276372E+03</pdfrwt>
<pdfrwt beam="2">  1       21 0.30147240E-01 0.11276372E+03</pdfrwt>
<totfact> 0.20372510E+05</totfact>
</mgrwt>
</event>
<event>
 5    1  0.2051810E+000  0.7806083E+02  0.7546771E-02  0.1334646E+00
         21   -1    0    0  501  502  0.00000000000E+00  0.00000000000E+00  0.48006663748E+02  0.48006663748E+02  0.00000000000E+00 0. -1.
         21   -1    0    0  502  503 -0.00000000000E+00 -0.00000000000E+00 -0.26710997607E+03  0.26710997607E+03  0.00000000000E+00 0.  1.
         24    1    1    2    0    0 -0.24873519057E+02  0.12054511066E+02 -0.73098040250E+02  0.11213626813E+03  0.80419002446E+02 0. -1.
          1    1    1    2  501    0  0.36750918969E+02  0.16405266819E+02  0.11997283254E+02  0.41996400202E+02  0.00000000000E+00 0. -1.
         -2    1    1    2    0  503 -0.11877399912E+02 -0.28459777885E+02 -0.15800255532E+03  0.16098397148E+03  0.00000000000E+00 0.  1.
<mgrwt>
<rscale>  2 0.78060826E+02</rscale>
<asrwt>0</asrwt>
<pdfrwt beam="1">  1       21 0.73856405E-02 0.78060826E+02</pdfrwt>
<pdfrwt beam="2">  1       21 0.41093843E-01 0.78060826E+02</pdfrwt>
<totfact> 0.78630289E+05</totfact>
</mgrwt>
</event>
<event>
 5    1  0.2051810E+000  0.1190375E+03  0.7546771E-02  0.1244693E+00
         21   -1    0    0  501  502  0.00000000000E+00  0.00000000000E+00  0.92319393628E+03  0.92319393628E+03  0.00000000000E+00 0. -1.
         21   -1    0    0  502  503 -0.00000000000E+00 -0.00000000000E+00 -0.16477687627E+02  0.16477687627E+02  0.00000000000E+00 0.  1.
         24    1    1    2    0    0  0.10193493166E+03  0.24645294743E+02  0.39771221029E+03  0.41909466593E+03  0.80419002446E+02 0.  1.
          1    1    1    2  501    0 -0.57777457478E+02 -0.21503710488E+02  0.35595207177E+03  0.36125132741E+03  0.00000000000E+00 0. -1.
         -2    1    1    2    0  503 -0.44157474177E+02 -0.31415842545E+01  0.15305196659E+03  0.15932563057E+03  0.00000000000E+00 0.  1.
<mgrwt>
<rscale>  2 0.11903747E+03</rscale>
<asrwt>0</asrwt>
<pdfrwt beam="1">  1       21 0.14202980E+00 0.11903747E+03</pdfrwt>
<pdfrwt beam="2">  1       21 0.25350296E-02 0.11903747E+03</pdfrwt>
<totfact> 0.29504579E+05</totfact>
</mgrwt>
</event>
<event>
 5    1  0.2051810E+000  0.6975059E+02  0.7546771E-02  0.1360943E+00
         21   -1    0    0  501  502  0.00000000000E+00  0.00000000000E+00  0.41524991902E+02  0.41524991902E+02  0.00000000000E+00 0. -1.
         21   -1    0    0  502  503 -0.00000000000E+00 -0.00000000000E+00 -0.54487859032E+03  0.54487859032E+03  0.00000000000E+00 0.  1.
         24    1    1    2    0    0 -0.92103342831E+01 -0.37189479888E+01 -0.11832446368E+03  0.14341044415E+03  0.80419002446E+02 0.  1.
          1    1    1    2  501    0 -0.75046077751E+01 -0.24527318400E+02  0.22514912044E+02  0.34129602256E+02  0.00000000000E+00 0. -1.
         -2    1    1    2    0  503  0.16714942058E+02  0.28246266389E+02 -0.40754404678E+03  0.40886353581E+03  0.00000000000E+00 0.  1.
<mgrwt>
<rscale>  2 0.69750586E+02</rscale>
<asrwt>0</asrwt>
<pdfrwt beam="1">  1       21 0.63884602E-02 0.69750586E+02</pdfrwt>
<pdfrwt beam="2">  1       21 0.83827477E-01 0.69750586E+02</pdfrwt>
<totfact> 0.22709672E+05</totfact>
</mgrwt>
</event>
<event>
 5    1  0.2051810E+000  0.8531696E+02  0.7546771E-02  0.1314606E+00
         21   -1    0    0  501  502  0.00000000000E+00  0.00000000000E+00  0.19558449933E+03  0.19558449933E+03  0.00000000000E+00 0. -1.
         21   -1    0    0  502  503 -0.00000000000E+00 -0.00000000000E+00 -0.13923144683E+03  0.13923144683E+03  0.00000000000E+00 0. -1.
         24    1    1    2    0    0  0.16254100805E+02  0.62291271146E+02 -0.18161263276E+02  0.10460136563E+03  0.80419002446E+02 0. -1.
          1    1    1    2  501    0 -0.15847621464E+01 -0.44648327508E+02  0.14728524728E+03  0.15391208103E+03  0.00000000000E+00 0. -1.
         -2    1    1    2    0  503 -0.14669338658E+02 -0.17642943638E+02 -0.72770931504E+02  0.76302499493E+02  0.00000000000E+00 0.  1.
<mgrwt>
<rscale>  2 0.85316957E+02</rscale>
<asrwt>0</asrwt>
<pdfrwt beam="1">  1       21 0.30089923E-01 0.85316957E+02</pdfrwt>
<pdfrwt beam="2">  1       21 0.21420223E-01 0.85316957E+02</pdfrwt>
<totfact> 0.22109279E+05</totfact>
</mgrwt>
</event>
<event>
 5    1  0.2051810E+000  0.7542888E+02  0.7546771E-02  0.1342548E+00
         21   -1    0    0  501  502  0.00000000000E+00  0.00000000000E+00  0.38052087035E+02  0.38052087035E+02  0.00000000000E+00 0. -1.
         21   -1    0    0  502  503 -0.00000000000E+00 -0.00000000000E+00 -0.60642825471E+03  0.60642825471E+03  0.00000000000E+00 0.  1.
         24    1    1    2    0    0 -0.13681938470E+02 -0.22552215986E+02 -0.62774823483E+02  0.10537405897E+03  0.80419002446E+02 0.  1.
          1    1    1    2  501    0  0.37856629985E+02  0.10949858018E+02 -0.72937126960E+01  0.40077700400E+02  0.00000000000E+00 0. -1.
         -2    1    1    2    0  503 -0.24174691515E+02  0.11602357968E+02 -0.49830763150E+03  0.49902858238E+03  0.00000000000E+00 0.  1.
<mgrwt>
<rscale>  2 0.75428878E+02</rscale>
<asrwt>0</asrwt>
<pdfrwt beam="1">  1       21 0.58541673E-02 0.75428878E+02</pdfrwt>
<pdfrwt beam="2">  1       21 0.93296653E-01 0.75428878E+02</pdfrwt>
<totfact> 0.20648760E+05</totfact>
</mgrwt>
</event>
<event>
 5    1  0.2051810E+000  0.9568957E+02  0.7546771E-02  0.1289631E+00
         21   -1    0    0  503  502  0.00000000000E+00  0.00000000000E+00  0.75938961134E+02  0.75938961134E+02  0.00000000000E+00 0.  1.
         21   -1    0    0  501  503 -0.00000000000E+00 -0.00000000000E+00 -0.13273899449E+03  0.13273899449E+03  0.00000000000E+00 0. -1.
         24    1    1    2    0    0  0.20983295244E+02  0.37854292630E+02 -0.16633774472E+01  0.91341277245E+02  0.80419002446E+02 0.  1.
          1    1    1    2  501    0  0.65408637863E+01 -0.62659911098E+02 -0.48925939002E+02  0.79767128976E+02  0.00000000000E+00 0. -1.
         -2    1    1    2    0  502 -0.27524159030E+02  0.24805618468E+02 -0.62107169077E+01  0.37569549404E+02  0.00000000000E+00 0.  1.
<mgrwt>
<rscale>  2 0.95689573E+02</rscale>
<asrwt>0</asrwt>
<pdfrwt beam="1">  1       21 0.11682917E-01 0.95689573E+02</pdfrwt>
<pdfrwt beam="2">  1       21 0.20421384E-01 0.95689573E+02</pdfrwt>
<totfact> 0.13550624E+06</totfact>
</mgrwt>
</event>
<event>
 5    1  0.2051810E+000  0.7545014E+02  0.7546771E-02  0.1342483E+00
         21   -1    0    0  501  502  0.00000000000E+00  0.00000000000E+00  0.23858651637E+03  0.23858651637E+03  0.00000000000E+00 0.  1.
         21   -1    0    0  502  503 -0.00000000000E+00 -0.00000000000E+00 -0.25347830195E+02  0.25347830195E+02  0.00000000000E+00 0.  1.
         24    1    1    2    0    0  0.15413628520E+02 -0.37643686133E+02  0.14016196542E+03  0.16663498898E+03  0.80419002446E+02 0.  1.
          1    1    1    2  501    0 -0.25196414466E+02  0.37158444924E+01  0.46812665888E+02  0.53292518141E+02  0.00000000000E+00 0. -1.
         -2    1    1    2    0  503  0.97827859462E+01  0.33927841640E+02  0.26264054867E+02  0.44006839437E+02  0.00000000000E+00 0.  1.
<mgrwt>
<rscale>  2 0.75450140E+02</rscale>
<asrwt>0</asrwt>
<pdfrwt beam="1">  1       21 0.36705616E-01 0.75450140E+02</pdfrwt>
<pdfrwt beam="2">  1       21 0.38996664E-02 0.75450140E+02</pdfrwt>
<totfact> 0.28359844E+06</totfact>
</mgrwt>
</event>
<event>
 5    1  0.2051810E+000  0.7502847E+02  0.7546771E-02  0.1343783E+00
         21   -1    0    0  501  502  0.00000000000E+00  0.00000000000E+00  0.10676319180E+03  0.10676319180E+03  0.00000000000E+00 0. -1.
         21   -1    0    0  502  503 -0.00000000000E+00 -0.00000000000E+00 -0.57457976067E+02  0.57457976067E+02  0.00000000000E+00 0.  1.
         24    1    1    2    0    0  0.11602817672E+02 -0.10515612693E+02  0.32409945398E+02  0.88106889647E+02  0.80419002446E+02 0. -1.
          1    1    1    2  501    0 -0.26758671973E+02 -0.20432482629E+02  0.23459328237E+02  0.41034777366E+02  0.00000000000E+00 0. -1.
         -2    1    1    2    0  503  0.15155854301E+02  0.30948095322E+02 -0.65640579065E+01  0.35079500850E+02  0.00000000000E+00 0.  1.
<mgrwt>
<rscale>  2 0.75028468E+02</rscale>
<asrwt>0</asrwt>
<pdfrwt beam="1">  1       21 0.16425106E-01 0.75028468E+02</pdfrwt>
<pdfrwt beam="2">  1       21 0.88396886E-02 0.75028468E+02</pdfrwt>
<totfact> 0.32257426E+06</totfact>
</mgrwt>
</event>
<event>
 5    1  0.2051810E+000  0.8921447E+02  0.7546771E-02  0.1304765E+00
         21   -1    0    0  503  502  0.00000000000E+00  0.00000000000E+00  0.38671667274E+02  0.38671667274E+02  0.00000000000E+00 0. -1.
         21   -1    0    0  501  503 -0.00000000000E+00 -0.00000000000E+00 -0.45211193313E+03  0.45211193313E+03  0.00000000000E+00 0. -1.
         24    1    1    2    0    0  0.19212171018E+02  0.37720549353E+02 -0.33703834817E+02  0.96928384875E+02  0.80419002446E+02 0. -1.
          1    1    1    2  501    0 -0.35471284495E+02 -0.53956322295E+02 -0.35183073197E+03  0.35770708785E+03  0.00000000000E+00 0. -1.
         -2    1    1    2    0  502  0.16259113477E+02  0.16235772941E+02 -0.27905699065E+02  0.36148127675E+02  0.00000000000E+00 0.  1.
<mgrwt>
<rscale>  2 0.89214470E+02</rscale>
<asrwt>0</asrwt>
<pdfrwt beam="1">  1       21 0.59494871E-02 0.89214470E+02</pdfrwt>
<pdfrwt beam="2">  1       21 0.69555684E-01 0.89214470E+02</pdfrwt>
<totfact> 0.38290680E+05</totfact>
</mgrwt>
</event>
<event>
 5    1  0.2051810E+000  0.8262602E+02  0.7546771E-02  0.1321760E+00
         21   -1    0    0  501  502  0.00000000000E+00  0.00000000000E+00  0.10312934676E+02  0.10312934676E+02  0.00000000000E+00 0.  1.
         21   -1    0    0  502  503 -0.00000000000E+00 -0.00000000000E+00 -0.89778919973E+03  0.89778919973E+03  0.00000000000E+00 0. -1.
         24    1    1    2    0    0  0.34196333339E+01  0.34255020320E+02 -0.62178449345E+03  0.62790785355E+03  0.80419002446E+02 0. -1.
          1    1    1    2  501    0 -0.27866581433E+02  0.79692602319E+01 -0.40653633412E+02  0.49927681490E+02  0.00000000000E+00 0. -1.
         -2    1    1    2    0  503  0.24446948099E+02 -0.42224280552E+02 -0.22503813819E+03  0.23026659936E+03  0.00000000000E+00 0.  1.
<mgrwt>
<rscale>  2 0.82626020E+02</rscale>
<asrwt>0</asrwt>
<pdfrwt beam="1">  1       21 0.15866053E-02 0.82626020E+02</pdfrwt>
<pdfrwt beam="2">  1       21 0.13812142E+00 0.82626020E+02</pdfrwt>
<totfact> 0.67746347E+05</totfact>
</mgrwt>
</event>
<event>
 5    1  0.2051810E+000  0.7375424E+02  0.7546771E-02  0.1347773E+00
         21   -1    0    0  501  502  0.00000000000E+00  0.00000000000E+00  0.17872281576E+02  0.17872281576E+02  0.00000000000E+00 0.  1.
         21   -1    0    0  502  503 -0.00000000000E+00 -0.00000000000E+00 -0.38006175352E+03  0.38006175352E+03  0.00000000000E+00 0. -1.
         24    1    1    2    0    0  0.11330446184E+02  0.36851896730E+02 -0.13603549746E+03  0.16266319137E+03  0.80419002446E+02 0.  1.
          1    1    1    2  501    0 -0.25694668932E+02 -0.94327989590E+01 -0.56082527214E+02  0.62405477054E+02  0.00000000000E+00 0. -1.
         -2    1    1    2    0  503  0.14364222748E+02 -0.27419097771E+02 -0.17007144727E+03  0.17286536667E+03  0.00000000000E+00 0.  1.
<mgrwt>
<rscale>  2 0.73754242E+02</rscale>
<asrwt>0</asrwt>
<pdfrwt beam="1">  1       21 0.27495820E-02 0.73754242E+02</pdfrwt>
<pdfrwt beam="2">  1       21 0.58471034E-01 0.73754242E+02</pdfrwt>
<totfact> 0.19602425E+06</totfact>
</mgrwt>
</event>
<event>
 5    1  0.2051810E+000  0.1341632E+03  0.7546771E-02  0.1221406E+00
         21   -1    0    0  501  502  0.00000000000E+00  0.00000000000E+00  0.82149361161E+03  0.82149361161E+03  0.00000000000E+00 0. -1.
         21   -1    0    0  502  503 -0.00000000000E+00 -0.00000000000E+00 -0.49372851665E+02  0.49372851665E+02  0.00000000000E+00 0.  1.
         24    1    1    2    0    0 -0.74592736063E+02 -0.94407134640E+02  0.52646534418E+03  0.54599428378E+03  0.80419002446E+02 0. -1.
          1    1    1    2  501    0  0.44632578575E+02  0.33761344987E+02  0.25086295535E+03  0.25702941048E+03  0.00000000000E+00 0. -1.
         -2    1    1    2    0  503  0.29960157488E+02  0.60645789653E+02 -0.52075395808E+01  0.67842769016E+02  0.00000000000E+00 0.  1.
<mgrwt>
<rscale>  2 0.13416318E+03</rscale>
<asrwt>0</asrwt>
<pdfrwt beam="1">  1       21 0.12638362E+00 0.13416318E+03</pdfrwt>
<pdfrwt beam="2">  1       21 0.75958240E-02 0.13416318E+03</pdfrwt>
<totfact> 0.62838531E+04</totfact>
</mgrwt>
</event>
<event>
 5    1  0.2051810E+000  0.1299115E+03  0.7546771E-02  0.1227587E+00
         21   -1    0    0  501  502  0.00000000000E+00  0.00000000000E+00  0.13858058846E+04  0.13858058846E+04  0.00000000000E+00 0.  1.
         21   -1    0    0  502  503 -0.00000000000E+00 -0.00000000000E+00 -0.29393506559E+02  0.29393506559E+02  0.00000000000E+00 0.  1.
         24    1    1    2    0    0 -0.21822732411E+02  0.98076864219E+02  0.63294915578E+03  0.64590026529E+03  0.80419002446E+02 0.  1.
          1    1    1    2  501    0  0.63978628240E+01 -0.11089035100E+03  0.73685891286E+03  0.74518364183E+03  0.00000000000E+00 0. -1.
         -2    1    1    2    0  503  0.15424869587E+02  0.12813486779E+02 -0.13395690579E+02  0.24115484057E+02  0.00000000000E+00 0.  1.
<mgrwt>
<rscale>  2 0.12991147E+03</rscale>
<asrwt>0</asrwt>
<pdfrwt beam="1">  1       21 0.21320085E+00 0.12991147E+03</pdfrwt>
<pdfrwt beam="2">  1       21 0.45220790E-02 0.12991147E+03</pdfrwt>
<totfact> 0.37139740E+04</totfact>
</mgrwt>
</event>
<event>
 5    1  0.2051810E+000  0.7814515E+02  0.7546771E-02  0.1334399E+00
         21   -1    0    0  503  502  0.00000000000E+00  0.00000000000E+00  0.24974937232E+03  0.24974937232E+03  0.00000000000E+00 0.  1.
         21   -1    0    0  501  503 -0.00000000000E+00 -0.00000000000E+00 -0.94208776337E+02  0.94208776337E+02  0.00000000000E+00 0.  1.
         24    1    1    2    0    0  0.24524218858E+02  0.20127403365E+01 -0.11801661421E+02  0.84923398430E+02  0.80419002446E+02 0.  1.
          1    1    1    2  501    0 -0.36231631760E+02 -0.26607363683E+02 -0.33683652691E+02  0.56171802542E+02  0.00000000000E+00 0. -1.
         -2    1    1    2    0  502  0.11707412903E+02  0.24594623347E+02  0.20102591010E+03  0.20286294769E+03  0.00000000000E+00 0.  1.
<mgrwt>
<rscale>  2 0.78145152E+02</rscale>
<asrwt>0</asrwt>
<pdfrwt beam="1">  1       21 0.38422980E-01 0.78145152E+02</pdfrwt>
<pdfrwt beam="2">  1       21 0.14493658E-01 0.78145152E+02</pdfrwt>
<totfact> 0.27946248E+05</totfact>
</mgrwt>
</event>
<event>
 5    1  0.2051810E+000  0.9684424E+02  0.7546771E-02  0.1287076E+00
         21   -1    0    0  501  502  0.00000000000E+00  0.00000000000E+00  0.16328610299E+03  0.16328610299E+03  0.00000000000E+00 0. -1.
         21   -1    0    0  502  503 -0.00000000000E+00 -0.00000000000E+00 -0.65231415432E+02  0.65231415432E+02  0.00000000000E+00 0. -1.
         24    1    1    2    0    0  0.74512433257E+02  0.29484001392E+02  0.61132616578E+02  0.12894115639E+03  0.80419002446E+02 0. -1.
          1    1    1    2  501    0 -0.29365901738E+02 -0.10534969101E+02  0.39751854390E+02  0.50532679390E+02  0.00000000000E+00 0. -1.
         -2    1    1    2    0  503 -0.45146531519E+02 -0.18949032291E+02 -0.28297834074E+01  0.49043682642E+02  0.00000000000E+00 0.  1.
<mgrwt>
<rscale>  2 0.96844241E+02</rscale>
<asrwt>0</asrwt>
<pdfrwt beam="1">  1       21 0.25120939E-01 0.96844241E+02</pdfrwt>
<pdfrwt beam="2">  1       21 0.10035602E-01 0.96844241E+02</pdfrwt>
<totfact> 0.12031124E+06</totfact>
</mgrwt>
</event>
<event>
 5    1  0.2051810E+000  0.7444605E+02  0.7546771E-02  0.1345595E+00
         21   -1    0    0  501  502  0.00000000000E+00  0.00000000000E+00  0.16860015348E+03  0.16860015348E+03  0.00000000000E+00 0. -1.
         21   -1    0    0  502  503 -0.00000000000E+00 -0.00000000000E+00 -0.59298822543E+02  0.59298822543E+02  0.00000000000E+00 0. -1.
         24    1    1    2    0    0  0.22488596349E+02 -0.11976911772E+02 -0.13671338772E+02  0.85459375375E+02  0.80419002446E+02 0. -1.
          1    1    1    2  501    0 -0.41258444789E+02 -0.17248323385E+01  0.10571364577E+03  0.11349277164E+03  0.00000000000E+00 0. -1.
         -2    1    1    2    0  503  0.18769848440E+02  0.13701744110E+02  0.17259023935E+02  0.28946829003E+02  0.00000000000E+00 0.  1.
<mgrwt>
<rscale>  2 0.74446052E+02</rscale>
<asrwt>0</asrwt>
<pdfrwt beam="1">  1       21 0.25938485E-01 0.74446052E+02</pdfrwt>
<pdfrwt beam="2">  1       21 0.91228959E-02 0.74446052E+02</pdfrwt>
<totfact> 0.13260307E+06</totfact>
</mgrwt>
</event>
<event>
 5    1  0.2051810E+000  0.7844063E+02  0.7546771E-02  0.1333536E+00
         21   -1    0    0  501  502  0.00000000000E+00  0.00000000000E+00  0.45515187967E+02  0.45515187967E+02  0.00000000000E+00 0.  1.
         21   -1    0    0  502  503 -0.00000000000E+00 -0.00000000000E+00 -0.15010636136E+03  0.15010636136E+03  0.00000000000E+00 0. -1.
         24    1    1    2    0    0 -0.28228597522E+02  0.62630119268E+00 -0.31860340536E+02  0.90991995388E+02  0.80419002446E+02 0.  1.
          1    1    1    2  501    0  0.31965736040E+02  0.28172819222E+02 -0.26955347838E+02  0.50419309798E+02  0.00000000000E+00 0. -1.
         -2    1    1    2    0  503 -0.37371385176E+01 -0.28799120414E+02 -0.45775485015E+02  0.54210244136E+02  0.00000000000E+00 0.  1.
<mgrwt>
<rscale>  2 0.78440635E+02</rscale>
<asrwt>0</asrwt>
<pdfrwt beam="1">  1       21 0.70023367E-02 0.78440635E+02</pdfrwt>
<pdfrwt beam="2">  1       21 0.23093286E-01 0.78440635E+02</pdfrwt>
<totfact> 0.25856635E+06</totfact>
</mgrwt>
</event>
<event>
 5    1  0.2051810E+000  0.6583058E+02  0.7546771E-02  0.1374874E+00
         21   -1    0    0  501  502  0.00000000000E+00  0.00000000000E+00  0.51372856625E+03  0.51372856625E+03  0.00000000000E+00 0. -1.
         21   -1    0    0  502  503 -0.00000000000E+00 -0.00000000000E+00 -0.91665625867E+01  0.91665625867E+01  0.00000000000E+00 0.  1.
         24    1    1    2    0    0 -0.19255880328E+01  0.24212476941E+02  0.26885947347E+03  0.28167815741E+03  0.80419002446E+02 0.  0.
          1    1    1    2  501    0  0.20206695602E+02 -0.43693764556E+01  0.14860715617E+03  0.15003829132E+03  0.00000000000E+00 0. -1.
         -2    1    1    2    0  503 -0.18281107569E+02 -0.19843100485E+02  0.87095374024E+02  0.91178680113E+02  0.00000000000E+00 0.  1.
<mgrwt>
<rscale>  2 0.65830579E+02</rscale>
<asrwt>0</asrwt>
<pdfrwt beam="1">  1       21 0.79035142E-01 0.65830579E+02</pdfrwt>
<pdfrwt beam="2">  1       21 0.14102408E-02 0.65830579E+02</pdfrwt>
<totfact> 0.29643920E+06</totfact>
</mgrwt>
</event>
<event>
 5    1  0.2051810E+000  0.1123853E+03  0.7546771E-02  0.1256215E+00
         21   -1    0    0  501  502  0.00000000000E+00  0.00000000000E+00  0.67145862754E+02  0.67145862754E+02  0.00000000000E+00 0. -1.
         21   -1    0    0  502  503 -0.00000000000E+00 -0.00000000000E+00 -0.19368038175E+03  0.19368038175E+03  0.00000000000E+00 0. -1.
         24    1    1    2    0    0 -0.37308384369E+02 -0.87862463753E+02 -0.70954413985E+02  0.14357392834E+03  0.80419002446E+02 0. -1.
          1    1    1    2  501    0  0.39197437121E+02  0.57825593336E+02 -0.24608208598E+02  0.74066201820E+02  0.00000000000E+00 0. -1.
         -2    1    1    2    0  503 -0.18890527516E+01  0.30036870416E+02 -0.30971896414E+02  0.43186114344E+02  0.00000000000E+00 0.  1.
<mgrwt>
<rscale>  2 0.11238528E+03</rscale>
<asrwt>0</asrwt>
<pdfrwt beam="1">  1       21 0.10330133E-01 0.11238528E+03</pdfrwt>
<pdfrwt beam="2">  1       21 0.29796981E-01 0.11238528E+03</pdfrwt>
<totfact> 0.82926216E+05</totfact>
</mgrwt>
</event>
<event>
 5    1  0.2051810E+000  0.1009786E+03  0.7546771E-02  0.1278251E+00
         21   -1    0    0  503  502  0.00000000000E+00  0.00000000000E+00  0.14006159388E+03  0.14006159388E+03  0.00000000000E+00 0.  1.
         21   -1    0    0  501  503 -0.00000000000E+00 -0.00000000000E+00 -0.11933410223E+03  0.11933410223E+03  0.00000000000E+00 0.  1.
         24    1    1    2    0    0  0.49228503134E+02 -0.62369239609E+02 -0.58878986320E+02  0.12746496991E+03  0.80419002446E+02 0.  1.
          1    1    1    2  501    0 -0.34012424707E+02  0.11648280908E+02 -0.43917494371E+00  0.35954420551E+02  0.00000000000E+00 0. -1.
         -2    1    1    2    0  502 -0.15216078427E+02  0.50720958701E+02  0.80045652913E+02  0.95976305641E+02  0.00000000000E+00 0.  1.
<mgrwt>
<rscale>  2 0.10097858E+03</rscale>
<asrwt>0</asrwt>
<pdfrwt beam="1">  1       21 0.21547938E-01 0.10097858E+03</pdfrwt>
<pdfrwt beam="2">  1       21 0.18359093E-01 0.10097858E+03</pdfrwt>
<totfact> 0.54768489E+05</totfact>
</mgrwt>
</event>
<event>
 5    1  0.2051810E+000  0.8656251E+02  0.7546771E-02  0.1311396E+00
         21   -1    0    0  501  502  0.00000000000E+00  0.00000000000E+00  0.22763651375E+03  0.22763651375E+03  0.00000000000E+00 0.  1.
         21   -1    0    0  502  503 -0.00000000000E+00 -0.00000000000E+00 -0.47579820321E+02  0.47579820321E+02  0.00000000000E+00 0. -1.
         24    1    1    2    0    0  0.53452007410E+02  0.55792786870E+01  0.21313195440E+02  0.99043998814E+02  0.80419002446E+02 0. -1.
          1    1    1    2  501    0 -0.75312935650E+00 -0.21373346947E+02  0.44278567806E+02  0.49172947140E+02  0.00000000000E+00 0. -1.
         -2    1    1    2    0  503 -0.52698878054E+02  0.15794068260E+02  0.11446493019E+03  0.12699938812E+03  0.00000000000E+00 0.  1.
<mgrwt>
<rscale>  2 0.86562505E+02</rscale>
<asrwt>0</asrwt>
<pdfrwt beam="1">  1       21 0.35021002E-01 0.86562505E+02</pdfrwt>
<pdfrwt beam="2">  1       21 0.73199725E-02 0.86562505E+02</pdfrwt>
<totfact> 0.10941522E+06</totfact>
</mgrwt>
</event>
<event>
 5    1  0.2051810E+000  0.7466188E+02  0.7546771E-02  0.1344921E+00
         21   -1    0    0  501  502  0.00000000000E+00  0.00000000000E+00  0.23080765378E+03  0.23080765378E+03  0.00000000000E+00 0.  1.
         21   -1    0    0  502  503 -0.00000000000E+00 -0.00000000000E+00 -0.12267696441E+03  0.12267696441E+03  0.00000000000E+00 0.  1.
         24    1    1    2    0    0 -0.43691771737E+02  0.59322674038E+01  0.11477260029E+03  0.14691537852E+03  0.80419002446E+02 0.  1.
          1    1    1    2  501    0  0.30148968712E+02  0.14216755458E+02  0.95725216836E+02  0.10136268341E+03  0.00000000000E+00 0. -1.
         -2    1    1    2    0  503  0.13542803025E+02 -0.20149022862E+02 -0.10236712776E+03  0.10520655627E+03  0.00000000000E+00 0.  1.
<mgrwt>
<rscale>  2 0.74661875E+02</rscale>
<asrwt>0</asrwt>
<pdfrwt beam="1">  1       21 0.35508870E-01 0.74661875E+02</pdfrwt>
<pdfrwt beam="2">  1       21 0.18873379E-01 0.74661875E+02</pdfrwt>
<totfact> 0.20325394E+05</totfact>
</mgrwt>
</event>
<event>
 5    1  0.2051810E+000  0.6748173E+02  0.7546771E-02  0.1368872E+00
         21   -1    0    0  501  502  0.00000000000E+00  0.00000000000E+00  0.82728606427E+02  0.82728606427E+02  0.00000000000E+00 0.  1.
         21   -1    0    0  502  503 -0.00000000000E+00 -0.00000000000E+00 -0.84677668367E+02  0.84677668367E+02  0.00000000000E+00 0. -1.
         24    1    1    2    0    0  0.10826903672E+02 -0.17696020107E+02 -0.43169072867E+02  0.93601045813E+02  0.80419002446E+02 0. -1.
          1    1    1    2  501    0  0.16580686393E+02  0.18039654625E+02  0.39320434268E+02  0.46329740462E+02  0.00000000000E+00 0. -1.
         -2    1    1    2    0  503 -0.27407590065E+02 -0.34363451789E+00  0.18995766595E+01  0.27475488519E+02  0.00000000000E+00 0.  1.
<mgrwt>
<rscale>  2 0.67481731E+02</rscale>
<asrwt>0</asrwt>
<pdfrwt beam="1">  1       21 0.12727478E-01 0.67481731E+02</pdfrwt>
<pdfrwt beam="2">  1       21 0.13027334E-01 0.67481731E+02</pdfrwt>
<totfact> 0.25724398E+06</totfact>
</mgrwt>
</event>
<event>
 5    1  0.2051810E+000  0.7157976E+02  0.7546771E-02  0.1354802E+00
         21   -1    0    0  503  502  0.00000000000E+00  0.00000000000E+00  0.48418920859E+03  0.48418920859E+03  0.00000000000E+00 0. -1.
         21   -1    0    0  501  503 -0.00000000000E+00 -0.00000000000E+00 -0.76677136659E+02  0.76677136659E+02  0.00000000000E+00 0. -1.
         24    1    1    2    0    0  0.29803487412E+02  0.16389004645E+01  0.17642155004E+03  0.19617011274E+03  0.80419002446E+02 0. -1.
          1    1    1    2  501    0 -0.96467221338E+01 -0.24839000368E+02 -0.63313543932E+02  0.68692357889E+02  0.00000000000E+00 0. -1.
         -2    1    1    2    0  502 -0.20156765278E+02  0.23200099904E+02  0.29440406581E+03  0.29600387462E+03  0.00000000000E+00 0.  1.
<mgrwt>
<rscale>  2 0.71579755E+02</rscale>
<asrwt>0</asrwt>
<pdfrwt beam="1">  1       21 0.74490646E-01 0.71579755E+02</pdfrwt>
<pdfrwt beam="2">  1       21 0.11796483E-01 0.71579755E+02</pdfrwt>
<totfact> 0.10319849E+05</totfact>
</mgrwt>
</event>
<event>
 5    1  0.2051810E+000  0.7147139E+02  0.7546771E-02  0.1355160E+00
         21   -1    0    0  503  502  0.00000000000E+00  0.00000000000E+00  0.45151575680E+02  0.45151575680E+02  0.00000000000E+00 0.  1.
         21   -1    0    0  501  503 -0.00000000000E+00 -0.00000000000E+00 -0.31202156058E+03  0.31202156058E+03  0.00000000000E+00 0.  1.
         24    1    1    2    0    0  0.13733134464E+02  0.47492879427E+01 -0.27534239504E+03  0.28721386662E+03  0.80419002446E+02 0.  1.
          1    1    1    2  501    0  0.22461289057E+02  0.63884920621E+01 -0.12690622907E+02  0.26577702059E+02  0.00000000000E+00 0. -1.
         -2    1    1    2    0  502 -0.36194423522E+02 -0.11137780005E+02  0.21163033051E+02  0.43381567577E+02  0.00000000000E+00 0.  1.
<mgrwt>
<rscale>  2 0.71471385E+02</rscale>
<asrwt>0</asrwt>
<pdfrwt beam="1">  1       21 0.69463965E-02 0.71471385E+02</pdfrwt>
<pdfrwt beam="2">  1       21 0.48003315E-01 0.71471385E+02</pdfrwt>
<totfact> 0.63864963E+05</totfact>
</mgrwt>
</event>
<event>
 5    1  0.2051810E+000  0.1592907E+03  0.7546771E-02  0.1189500E+00
         21   -1    0    0  501  502  0.00000000000E+00  0.00000000000E+00  0.32637747122E+03  0.32637747122E+03  0.00000000000E+00 0.  1.
         21   -1    0    0  502  503 -0.00000000000E+00 -0.00000000000E+00 -0.30335247390E+03  0.30335247390E+03  0.00000000000E+00 0.  1.
         24    1    1    2    0    0  0.88791476920E+02 -0.56042446479E+02  0.26667058044E+03  0.29766608239E+03  0.80419002446E+02 0.  1.
          1    1    1    2  501    0 -0.13182124056E+02  0.98656476405E+02 -0.34028589795E+02  0.10518941798E+03  0.00000000000E+00 0. -1.
         -2    1    1    2    0  503 -0.75609352865E+02 -0.42614029926E+02 -0.20961699333E+03  0.22687444475E+03  0.00000000000E+00 0.  1.
<mgrwt>
<rscale>  2 0.15929075E+03</rscale>
<asrwt>0</asrwt>
<pdfrwt beam="1">  1       21 0.50211919E-01 0.15929075E+03</pdfrwt>
<pdfrwt beam="2">  1       21 0.46669611E-01 0.15929075E+03</pdfrwt>
<totfact> 0.16969356E+04</totfact>
</mgrwt>
</event>
<event>
 5    1  0.2051810E+000  0.8809674E+02  0.7546771E-02  0.1307527E+00
         21   -1    0    0  501  502  0.00000000000E+00  0.00000000000E+00  0.12671440442E+02  0.12671440442E+02  0.00000000000E+00 0.  1.
         21   -1    0    0  502  503 -0.00000000000E+00 -0.00000000000E+00 -0.79541143625E+03  0.79541143625E+03  0.00000000000E+00 0.  1.
         24    1    1    2    0    0 -0.67629809537E+02  0.16317187129E+02 -0.55656802910E+03  0.56663500484E+03  0.80419002446E+02 0.  1.
          1    1    1    2  501    0  0.35465837895E+02 -0.53017473896E+01 -0.47209355733E+02  0.59284546483E+02  0.00000000000E+00 0. -1.
         -2    1    1    2    0  503  0.32163971641E+02 -0.11015439739E+02 -0.17896261097E+03  0.18216332537E+03  0.00000000000E+00 0.  1.
<mgrwt>
<rscale>  2 0.88096735E+02</rscale>
<asrwt>0</asrwt>
<pdfrwt beam="1">  1       21 0.19494522E-02 0.88096735E+02</pdfrwt>
<pdfrwt beam="2">  1       21 0.12237100E+00 0.88096735E+02</pdfrwt>
<totfact> 0.65635597E+05</totfact>
</mgrwt>
</event>
<event>
 5    1  0.2051810E+000  0.7675723E+02  0.7546771E-02  0.1338514E+00
         21   -1    0    0  501  502  0.00000000000E+00  0.00000000000E+00  0.84621432325E+03  0.84621432325E+03  0.00000000000E+00 0.  1.
         21   -1    0    0  502  503 -0.00000000000E+00 -0.00000000000E+00 -0.92727709945E+01  0.92727709945E+01  0.00000000000E+00 0. -1.
         24    1    1    2    0    0 -0.17696203390E+02 -0.39868556249E+02  0.45495569500E+03  0.46406309674E+03  0.80419002446E+02 0.  0.
          1    1    1    2  501    0 -0.93321359165E+01  0.32783556758E+02  0.33520687308E+03  0.33693545096E+03  0.00000000000E+00 0. -1.
         -2    1    1    2    0  503  0.27028339307E+02  0.70849994912E+01  0.46778984172E+02  0.54488546536E+02  0.00000000000E+00 0.  1.
<mgrwt>
<rscale>  2 0.76757227E+02</rscale>
<asrwt>0</asrwt>
<pdfrwt beam="1">  1       21 0.13018676E+00 0.76757227E+02</pdfrwt>
<pdfrwt beam="2">  1       21 0.14265808E-02 0.76757227E+02</pdfrwt>
<totfact> 0.92687811E+05</totfact>
</mgrwt>
</event>
<event>
 5    1  0.2051810E+000  0.8703907E+02  0.7546771E-02  0.1310185E+00
         21   -1    0    0  503  502  0.00000000000E+00  0.00000000000E+00  0.40893325917E+03  0.40893325917E+03  0.00000000000E+00 0.  1.
         21   -1    0    0  501  503 -0.00000000000E+00 -0.00000000000E+00 -0.12545022717E+03  0.12545022717E+03  0.00000000000E+00 0. -1.
         24    1    1    2    0    0  0.12997623551E+01 -0.34249544132E+02 -0.79051735722E+02  0.11786056817E+03  0.80419002446E+02 0. -1.
          1    1    1    2  501    0 -0.24789196776E+02  0.51741404140E+02  0.47805656080E+01  0.57571963547E+02  0.00000000000E+00 0. -1.
         -2    1    1    2    0  502  0.23489434421E+02 -0.17491860008E+02  0.35775420211E+03  0.35895095462E+03  0.00000000000E+00 0.  1.
<mgrwt>
<rscale>  2 0.87039073E+02</rscale>
<asrwt>0</asrwt>
<pdfrwt beam="1">  1       21 0.62912809E-01 0.87039073E+02</pdfrwt>
<pdfrwt beam="2">  1       21 0.19300035E-01 0.87039073E+02</pdfrwt>
<totfact> 0.61033984E+04</totfact>
</mgrwt>
</event>
<event>
 5    1  0.2051810E+000  0.1298803E+03  0.7546771E-02  0.1227634E+00
         21   -1    0    0  501  502  0.00000000000E+00  0.00000000000E+00  0.48018867637E+02  0.48018867637E+02  0.00000000000E+00 0. -1.
         21   -1    0    0  502  503 -0.00000000000E+00 -0.00000000000E+00 -0.37168458375E+03  0.37168458375E+03  0.00000000000E+00 0.  1.
         24    1    1    2    0    0 -0.95889219460E+02 -0.99068989878E+01 -0.10765118595E+03  0.16537497648E+03  0.80419002446E+02 0.  0.
          1    1    1    2  501    0  0.51008535387E+02  0.51891584352E+02 -0.11492050203E+03  0.13601959048E+03  0.00000000000E+00 0. -1.
         -2    1    1    2    0  503  0.44880684073E+02 -0.41984685364E+02 -0.10109402814E+03  0.11830888443E+03  0.00000000000E+00 0.  1.
<mgrwt>
<rscale>  2 0.12988026E+03</rscale>
<asrwt>0</asrwt>
<pdfrwt beam="1">  1       21 0.73875183E-02 0.12988026E+03</pdfrwt>
<pdfrwt beam="2">  1       21 0.57182242E-01 0.12988026E+03</pdfrwt>
<totfact> 0.40020024E+05</totfact>
</mgrwt>
</event>
<event>
 5    1  0.2051810E+000  0.7228707E+02  0.7546771E-02  0.1352484E+00
         21   -1    0    0  503  502  0.00000000000E+00  0.00000000000E+00  0.37866556635E+02  0.37866556635E+02  0.00000000000E+00 0. -1.
         21   -1    0    0  501  503 -0.00000000000E+00 -0.00000000000E+00 -0.13974132224E+03  0.13974132224E+03  0.00000000000E+00 0.  1.
         24    1    1    2    0    0  0.69060913048E+01 -0.16726856927E+02 -0.66196495893E+02  0.10571978936E+03  0.80419002446E+02 0. -1.
          1    1    1    2  501    0 -0.32658831891E+02  0.16033043505E+02 -0.24124956737E+02  0.43653995488E+02  0.00000000000E+00 0. -1.
         -2    1    1    2    0  502  0.25752740586E+02  0.69381342234E+00 -0.11553312976E+02  0.28234094026E+02  0.00000000000E+00 0.  1.
<mgrwt>
<rscale>  2 0.72287075E+02</rscale>
<asrwt>0</asrwt>
<pdfrwt beam="1">  1       21 0.58256241E-02 0.72287075E+02</pdfrwt>
<pdfrwt beam="2">  1       21 0.21498665E-01 0.72287075E+02</pdfrwt>
<totfact> 0.39963194E+06</totfact>
</mgrwt>
</event>
<event>
 5    1  0.2051810E+000  0.7666420E+02  0.7546771E-02  0.1338794E+00
         21   -1    0    0  501  502  0.00000000000E+00  0.00000000000E+00  0.28698658468E+03  0.28698658468E+03  0.00000000000E+00 0.  1.
         21   -1    0    0  502  503 -0.00000000000E+00 -0.00000000000E+00 -0.70374506744E+02  0.70374506744E+02  0.00000000000E+00 0. -1.
         24    1    1    2    0    0  0.26184379954E+02 -0.19384570235E+02  0.15673708238E+03  0.17915108781E+03  0.80419002446E+02 0.  1.
          1    1    1    2  501    0 -0.30329430620E+02 -0.13655526271E+02  0.11173447011E+03  0.11658018515E+03  0.00000000000E+00 0. -1.
         -2    1    1    2    0  503  0.41450506654E+01  0.33040096507E+02 -0.51859474555E+02  0.61629818459E+02  0.00000000000E+00 0.  1.
<mgrwt>
<rscale>  2 0.76664199E+02</rscale>
<asrwt>0</asrwt>
<pdfrwt beam="1">  1       21 0.44151782E-01 0.76664199E+02</pdfrwt>
<pdfrwt beam="2">  1       21 0.10826847E-01 0.76664199E+02</pdfrwt>
<totfact> 0.35408363E+05</totfact>
</mgrwt>
</event>
<event>
 5    1  0.2051810E+000  0.8328479E+02  0.7546771E-02  0.1319980E+00
         21   -1    0    0  503  502  0.00000000000E+00  0.00000000000E+00  0.11138072785E+03  0.11138072785E+03  0.00000000000E+00 0.  1.
         21   -1    0    0  501  503 -0.00000000000E+00 -0.00000000000E+00 -0.25455848871E+03  0.25455848871E+03  0.00000000000E+00 0. -1.
         24    1    1    2    0    0 -0.87229823182E+01 -0.60412465429E+02 -0.11696132398E+02  0.10163548528E+03  0.80419002446E+02 0.  1.
          1    1    1    2  501    0 -0.81067013503E+01  0.27106365276E+02 -0.19152802920E+03  0.19360645551E+03  0.00000000000E+00 0. -1.
         -2    1    1    2    0  502  0.16829683668E+02  0.33306100152E+02  0.60046400747E+02  0.70697275778E+02  0.00000000000E+00 0.  1.
<mgrwt>
<rscale>  2 0.83284787E+02</rscale>
<asrwt>0</asrwt>
<pdfrwt beam="1">  1       21 0.17135497E-01 0.83284787E+02</pdfrwt>
<pdfrwt beam="2">  1       21 0.39162845E-01 0.83284787E+02</pdfrwt>
<totfact> 0.19932846E+05</totfact>
</mgrwt>
</event>
<event>
 5    1  0.2051810E+000  0.6792708E+02  0.7546771E-02  0.1367287E+00
         21   -1    0    0  503  502  0.00000000000E+00  0.00000000000E+00  0.13358049289E+03  0.13358049289E+03  0.00000000000E+00 0. -1.
         21   -1    0    0  501  503 -0.00000000000E+00 -0.00000000000E+00 -0.43276939611E+02  0.43276939611E+02  0.00000000000E+00 0. -1.
         24    1    1    2    0    0 -0.18691845349E+02  0.24313640501E+02  0.81042670558E+02  0.11821873203E+03  0.80419002446E+02 0. -1.
          1    1    1    2  501    0 -0.47219399199E+01 -0.25891871913E+02 -0.10125784693E+02  0.28199596867E+02  0.00000000000E+00 0. -1.
         -2    1    1    2    0  502  0.23413785269E+02  0.15782314126E+01  0.19386667419E+02  0.30439103611E+02  0.00000000000E+00 0.  1.
<mgrwt>
<rscale>  2 0.67927075E+02</rscale>
<asrwt>0</asrwt>
<pdfrwt beam="1">  1       21 0.20550845E-01 0.67927075E+02</pdfrwt>
<pdfrwt beam="2">  1       21 0.66579908E-02 0.67927075E+02</pdfrwt>
<totfact> 0.34561829E+06</totfact>
</mgrwt>
</event>
<event>
 5    1  0.2051810E+000  0.6794287E+02  0.7546771E-02  0.1367231E+00
         21   -1    0    0  503  502  0.00000000000E+00  0.00000000000E+00  0.26467543983E+02  0.26467543983E+02  0.00000000000E+00 0.  1.
         21   -1    0    0  501  503 -0.00000000000E+00 -0.00000000000E+00 -0.36573604264E+03  0.36573604264E+03  0.00000000000E+00 0. -1.
         24    1    1    2    0    0  0.12725902504E+02  0.16386080052E+01 -0.32494367891E+03  0.33499290149E+03  0.80419002446E+02 0. -1.
          1    1    1    2  501    0 -0.13378625491E+02  0.24706569354E+02 -0.12625518335E+02  0.30802693105E+02  0.00000000000E+00 0. -1.
         -2    1    1    2    0  502  0.65272298714E+00 -0.26345177360E+02 -0.16993014066E+01  0.26407992023E+02  0.00000000000E+00 0.  1.
<mgrwt>
<rscale>  2 0.67942866E+02</rscale>
<asrwt>0</asrwt>
<pdfrwt beam="1">  1       21 0.40719298E-02 0.67942866E+02</pdfrwt>
<pdfrwt beam="2">  1       21 0.56267084E-01 0.67942866E+02</pdfrwt>
<totfact> 0.11190600E+06</totfact>
</mgrwt>
</event>
<event>
 5    1  0.2051810E+000  0.1016168E+03  0.7546771E-02  0.1276932E+00
         21   -1    0    0  501  502  0.00000000000E+00  0.00000000000E+00  0.72614297372E+03  0.72614297372E+03  0.00000000000E+00 0. -1.
         21   -1    0    0  502  503 -0.00000000000E+00 -0.00000000000E+00 -0.14637099957E+02  0.14637099957E+02  0.00000000000E+00 0. -1.
         24    1    1    2    0    0  0.11277341181E+01 -0.98161991844E+01  0.34509703592E+03  0.35448104280E+03  0.80419002446E+02 0.  0.
          1    1    1    2  501    0  0.43670498339E+02 -0.37128164289E+02  0.18137250533E+03  0.19021461221E+03  0.00000000000E+00 0. -1.
         -2    1    1    2    0  503 -0.44798232457E+02  0.46944363473E+02  0.18503633251E+03  0.19608441866E+03  0.00000000000E+00 0.  1.
<mgrwt>
<rscale>  2 0.10161678E+03</rscale>
<asrwt>0</asrwt>
<pdfrwt beam="1">  1       21 0.11171428E+00 0.10161678E+03</pdfrwt>
<pdfrwt beam="2">  1       21 0.22518621E-02 0.10161678E+03</pdfrwt>
<totfact> 0.64688219E+05</totfact>
</mgrwt>
</event>
<event>
 5    1  0.2051810E+000  0.6073329E+02  0.7546771E-02  0.1394780E+00
         21   -1    0    0  503  502  0.00000000000E+00  0.00000000000E+00  0.78217274741E+01  0.78217274741E+01  0.00000000000E+00 0. -1.
         21   -1    0    0  501  503 -0.00000000000E+00 -0.00000000000E+00 -0.54112632268E+03  0.54112632268E+03  0.00000000000E+00 0.  1.
         24    1    1    2    0    0 -0.72673268545E+00  0.11045907422E+00 -0.33929255410E+03  0.34869355251E+03  0.80419002446E+02 0.  1.
          1    1    1    2  501    0  0.11997327151E+02 -0.16958959853E+02 -0.15405974863E+03  0.15545400711E+03  0.00000000000E+00 0. -1.
         -2    1    1    2    0  502 -0.11270594465E+02  0.16848500778E+02 -0.39952292488E+02  0.44800490545E+02  0.00000000000E+00 0.  1.
<mgrwt>
<rscale>  2 0.60733291E+02</rscale>
<asrwt>0</asrwt>
<pdfrwt beam="1">  1       21 0.12033425E-02 0.60733291E+02</pdfrwt>
<pdfrwt beam="2">  1       21 0.83250213E-01 0.60733291E+02</pdfrwt>
<totfact> 0.33743560E+06</totfact>
</mgrwt>
</event>
<event>
 5    1  0.2051810E+000  0.7484034E+02  0.7546771E-02  0.1344366E+00
         21   -1    0    0  503  502  0.00000000000E+00  0.00000000000E+00  0.11405412549E+04  0.11405412549E+04  0.00000000000E+00 0. -1.
         21   -1    0    0  501  503 -0.00000000000E+00 -0.00000000000E+00 -0.80558599314E+01  0.80558599314E+01  0.00000000000E+00 0. -1.
         24    1    1    2    0    0  0.48285994423E+02 -0.15615211461E+02  0.63236275180E+03  0.63947262483E+03  0.80419002446E+02 0.  0.
          1    1    1    2  501    0 -0.32973596474E+02  0.36287660096E+00  0.59942864671E+02  0.68414448539E+02  0.00000000000E+00 0. -1.
         -2    1    1    2    0  502 -0.15312397949E+02  0.15252334860E+02  0.44017977845E+03  0.44071004142E+03  0.00000000000E+00 0.  1.
<mgrwt>
<rscale>  2 0.74840344E+02</rscale>
<asrwt>0</asrwt>
<pdfrwt beam="1">  1       21 0.17546776E+00 0.74840344E+02</pdfrwt>
<pdfrwt beam="2">  1       21 0.12393640E-02 0.74840344E+02</pdfrwt>
<totfact> 0.54165418E+05</totfact>
</mgrwt>
</event>
<event>
 5    1  0.2051810E+000  0.9166786E+02  0.7546771E-02  0.1298862E+00
         21   -1    0    0  503  502  0.00000000000E+00  0.00000000000E+00  0.11356108905E+03  0.11356108905E+03  0.00000000000E+00 0. -1.
         21   -1    0    0  501  503 -0.00000000000E+00 -0.00000000000E+00 -0.75881232579E+02  0.75881232579E+02  0.00000000000E+00 0.  1.
         24    1    1    2    0    0  0.45812864021E+02  0.19616041228E+02  0.24469538062E+02  0.97721961864E+02  0.80419002446E+02 0.  0.
          1    1    1    2  501    0 -0.12186450102E+02 -0.44983612281E+02 -0.27257414439E+01  0.46684736331E+02  0.00000000000E+00 0. -1.
         -2    1    1    2    0  502 -0.33626413919E+02  0.25367571053E+02  0.15936059849E+02  0.45035623429E+02  0.00000000000E+00 0.  1.
<mgrwt>
<rscale>  2 0.91667864E+02</rscale>
<asrwt>0</asrwt>
<pdfrwt beam="1">  1       21 0.17470937E-01 0.91667864E+02</pdfrwt>
<pdfrwt beam="2">  1       21 0.11674036E-01 0.91667864E+02</pdfrwt>
<totfact> 0.18011214E+06</totfact>
</mgrwt>
</event>
<event>
 5    1  0.2051810E+000  0.8583890E+02  0.7546771E-02  0.1313253E+00
         21   -1    0    0  503  502  0.00000000000E+00  0.00000000000E+00  0.68785985954E+02  0.68785985954E+02  0.00000000000E+00 0.  1.
         21   -1    0    0  501  503 -0.00000000000E+00 -0.00000000000E+00 -0.12605406662E+03  0.12605406662E+03  0.00000000000E+00 0.  1.
         24    1    1    2    0    0 -0.34545161614E+02 -0.33561202303E+02 -0.52596547199E+02  0.10748644204E+03  0.80419002446E+02 0.  1.
          1    1    1    2  501    0 -0.11542649840E+02  0.29493997852E+02 -0.21323369283E+02  0.38181340367E+02  0.00000000000E+00 0. -1.
         -2    1    1    2    0  502  0.46087811454E+02  0.40672044507E+01  0.16651835822E+02  0.49172270162E+02  0.00000000000E+00 0.  1.
<mgrwt>
<rscale>  2 0.85838902E+02</rscale>
<asrwt>0</asrwt>
<pdfrwt beam="1">  1       21 0.10582460E-01 0.85838902E+02</pdfrwt>
<pdfrwt beam="2">  1       21 0.19392933E-01 0.85838902E+02</pdfrwt>
<totfact> 0.17641052E+06</totfact>
</mgrwt>
</event>
<event>
 5    1  0.2051810E+000  0.7411299E+02  0.7546771E-02  0.1346640E+00
         21   -1    0    0  501  502  0.00000000000E+00  0.00000000000E+00  0.46720498530E+01  0.46720498530E+01  0.00000000000E+00 0. -1.
         21   -1    0    0  502  503 -0.00000000000E+00 -0.00000000000E+00 -0.14340530061E+04  0.14340530061E+04  0.00000000000E+00 0. -1.
         24    1    1    2    0    0  0.87252251709E+01 -0.37907910242E+02 -0.56237097527E+03  0.56942204822E+03  0.80419002446E+02 0. -1.
          1    1    1    2  501    0 -0.26602837828E+02  0.27236414301E+02 -0.39405761058E+03  0.39589257849E+03  0.00000000000E+00 0. -1.
         -2    1    1    2    0  503  0.17877612657E+02  0.10671495941E+02 -0.47295237043E+03  0.47341042929E+03  0.00000000000E+00 0.  1.
<mgrwt>
<rscale>  2 0.74112995E+02</rscale>
<asrwt>0</asrwt>
<pdfrwt beam="1">  1       21 0.71877689E-03 0.74112995E+02</pdfrwt>
<pdfrwt beam="2">  1       21 0.22062354E+00 0.74112995E+02</pdfrwt>
<totfact> 0.66652588E+05</totfact>
</mgrwt>
</event>
<event>
 5    1  0.2051810E+000  0.6740409E+02  0.7546771E-02  0.1369150E+00
         21   -1    0    0  503  502  0.00000000000E+00  0.00000000000E+00  0.22908024889E+02  0.22908024889E+02  0.00000000000E+00 0. -1.
         21   -1    0    0  501  503 -0.00000000000E+00 -0.00000000000E+00 -0.61305708844E+03  0.61305708844E+03  0.00000000000E+00 0. -1.
         24    1    1    2    0    0  0.40641592866E+02 -0.15274376618E+02 -0.78368850979E+02  0.12039077377E+03  0.80419002446E+02 0. -1.
          1    1    1    2  501    0 -0.21849401709E+02  0.81164575013E+01 -0.45001092450E+03  0.45061414249E+03  0.00000000000E+00 0. -1.
         -2    1    1    2    0  502 -0.18792191158E+02  0.71579191170E+01 -0.61769288072E+02  0.64960197071E+02  0.00000000000E+00 0.  1.
<mgrwt>
<rscale>  2 0.67404094E+02</rscale>
<asrwt>0</asrwt>
<pdfrwt beam="1">  1       21 0.35243113E-02 0.67404094E+02</pdfrwt>
<pdfrwt beam="2">  1       21 0.94316482E-01 0.67404094E+02</pdfrwt>
<totfact> 0.46526283E+05</totfact>
</mgrwt>
</event>
<event>
 5    1  0.2051810E+000  0.6857210E+02  0.7546771E-02  0.1365017E+00
         21   -1    0    0  501  502  0.00000000000E+00  0.00000000000E+00  0.91039556723E+02  0.91039556723E+02  0.00000000000E+00 0. -1.
         21   -1    0    0  502  503 -0.00000000000E+00 -0.00000000000E+00 -0.56038757649E+02  0.56038757649E+02  0.00000000000E+00 0.  1.
         24    1    1    2    0    0  0.17051153027E+01  0.43592124925E+02  0.33283272531E+02  0.97355908698E+02  0.80419002446E+02 0. -1.
          1    1    1    2  501    0  0.57396499652E+01 -0.24469188177E+02  0.10706811608E+02  0.27318868325E+02  0.00000000000E+00 0. -1.
         -2    1    1    2    0  503 -0.74447652679E+01 -0.19122936748E+02 -0.89892850650E+01  0.22403537349E+02  0.00000000000E+00 0.  1.
<mgrwt>
<rscale>  2 0.68572103E+02</rscale>
<asrwt>0</asrwt>
<pdfrwt beam="1">  1       21 0.14006086E-01 0.68572103E+02</pdfrwt>
<pdfrwt beam="2">  1       21 0.86213473E-02 0.68572103E+02</pdfrwt>
<totfact> 0.44386244E+06</totfact>
</mgrwt>
</event>
<event>
 5    1  0.2051810E+000  0.1013545E+03  0.7546771E-02  0.1277473E+00
         21   -1    0    0  503  502  0.00000000000E+00  0.00000000000E+00  0.27182191036E+02  0.27182191036E+02  0.00000000000E+00 0.  1.
         21   -1    0    0  501  503 -0.00000000000E+00 -0.00000000000E+00 -0.57389150191E+03  0.57389150191E+03  0.00000000000E+00 0.  1.
         24    1    1    2    0    0 -0.83562798283E+02  0.87529256961E+01 -0.36939409966E+03  0.38727066993E+03  0.80419002446E+02 0.  1.
          1    1    1    2  501    0  0.54758824231E+02  0.39992416089E+01 -0.17361030847E+03  0.18208531509E+03  0.00000000000E+00 0. -1.
         -2    1    1    2    0  502  0.28803974052E+02 -0.12752167305E+02 -0.37049027435E+01  0.31717707933E+02  0.00000000000E+00 0.  1.
<mgrwt>
<rscale>  2 0.10135452E+03</rscale>
<asrwt>0</asrwt>
<pdfrwt beam="1">  1       21 0.41818759E-02 0.10135452E+03</pdfrwt>
<pdfrwt beam="2">  1       21 0.88290992E-01 0.10135452E+03</pdfrwt>
<totfact> 0.40645450E+05</totfact>
</mgrwt>
</event>
<event>
 5    1  0.2051810E+000  0.6503936E+02  0.7546771E-02  0.1377823E+00
         21   -1    0    0  503  502  0.00000000000E+00  0.00000000000E+00  0.37559906582E+01  0.37559906582E+01  0.00000000000E+00 0. -1.
         21   -1    0    0  501  503 -0.00000000000E+00 -0.00000000000E+00 -0.17235155675E+04  0.17235155675E+04  0.00000000000E+00 0.  1.
         24    1    1    2    0    0  0.96454161993E+01 -0.33529387792E+01 -0.51188983164E+03  0.51826893785E+03  0.80419002446E+02 0. -1.
          1    1    1    2  501    0 -0.28706761088E+02 -0.31380242771E+01 -0.90711730720E+03  0.90757684763E+03  0.00000000000E+00 0. -1.
         -2    1    1    2    0  502  0.19061344888E+02  0.64909630563E+01 -0.30075243803E+03  0.30142577270E+03  0.00000000000E+00 0.  1.
<mgrwt>
<rscale>  2 0.65039364E+02</rscale>
<asrwt>0</asrwt>
<pdfrwt beam="1">  1       21 0.57784538E-03 0.65039364E+02</pdfrwt>
<pdfrwt beam="2">  1       21 0.26515594E+00 0.65039364E+02</pdfrwt>
<totfact> 0.53079371E+05</totfact>
</mgrwt>
</event>
<event>
 5    1  0.2051810E+000  0.6883708E+02  0.7546771E-02  0.1364093E+00
         21   -1    0    0  503  502  0.00000000000E+00  0.00000000000E+00  0.62887069926E+02  0.62887069926E+02  0.00000000000E+00 0.  1.
         21   -1    0    0  501  503 -0.00000000000E+00 -0.00000000000E+00 -0.82858498141E+02  0.82858498141E+02  0.00000000000E+00 0. -1.
         24    1    1    2    0    0  0.17442289854E+02 -0.24470642373E+02 -0.31487772152E+02  0.91442558817E+02  0.80419002446E+02 0.  0.
          1    1    1    2  501    0 -0.21659171579E+02 -0.48550149294E+01 -0.81575250031E+00  0.22211626136E+02  0.00000000000E+00 0. -1.
         -2    1    1    2    0  502  0.42168817253E+01  0.29325657302E+02  0.12332096437E+02  0.32091383115E+02  0.00000000000E+00 0.  1.
<mgrwt>
<rscale>  2 0.68837080E+02</rscale>
<asrwt>0</asrwt>
<pdfrwt beam="1">  1       21 0.96749338E-02 0.68837080E+02</pdfrwt>
<pdfrwt beam="2">  1       21 0.12747461E-01 0.68837080E+02</pdfrwt>
<totfact> 0.43010009E+06</totfact>
</mgrwt>
</event>
<event>
 5    1  0.2051810E+000  0.6659288E+02  0.7546771E-02  0.1372078E+00
         21   -1    0    0  503  502  0.00000000000E+00  0.00000000000E+00  0.87462903050E+03  0.87462903050E+03  0.00000000000E+00 0.  1.
         21   -1    0    0  501  503 -0.00000000000E+00 -0.00000000000E+00 -0.68789620434E+01  0.68789620434E+01  0.00000000000E+00 0.  1.
         24    1    1    2    0    0  0.23555361547E+02  0.12094343957E+01  0.72684109948E+03  0.73165669384E+03  0.80419002446E+02 0.  1.
          1    1    1    2  501    0 -0.16701453192E+02 -0.21923639594E+02  0.59567417423E+02  0.65634302999E+02  0.00000000000E+00 0. -1.
         -2    1    1    2    0  502 -0.68539083556E+01  0.20714205198E+02  0.81341551552E+02  0.84216995706E+02  0.00000000000E+00 0.  1.
<mgrwt>
<rscale>  2 0.66592878E+02</rscale>
<asrwt>0</asrwt>
<pdfrwt beam="1">  1       21 0.13455822E+00 0.66592878E+02</pdfrwt>
<pdfrwt beam="2">  1       21 0.10583025E-02 0.66592878E+02</pdfrwt>
<totfact> 0.13622679E+06</totfact>
</mgrwt>
</event>
<event>
 5    1  0.2051810E+000  0.7801046E+02  0.7546771E-02  0.1334794E+00
         21   -1    0    0  501  502  0.00000000000E+00  0.00000000000E+00  0.42072461379E+02  0.42072461379E+02  0.00000000000E+00 0. -1.
         21   -1    0    0  502  503 -0.00000000000E+00 -0.00000000000E+00 -0.23447522449E+03  0.23447522449E+03  0.00000000000E+00 0. -1.
         24    1    1    2    0    0 -0.27366636989E+02 -0.56916045705E+01 -0.98236226376E+02  0.12999576651E+03  0.80419002446E+02 0. -1.
          1    1    1    2  501    0 -0.21143569736E+02 -0.37185021381E+01  0.15358121302E+02  0.26396016541E+02  0.00000000000E+00 0. -1.
         -2    1    1    2    0  503  0.48510206725E+02  0.94101067086E+01 -0.10952465804E+03  0.12015590282E+03  0.00000000000E+00 0.  1.
<mgrwt>
<rscale>  2 0.78010458E+02</rscale>
<asrwt>0</asrwt>
<pdfrwt beam="1">  1       21 0.64726865E-02 0.78010458E+02</pdfrwt>
<pdfrwt beam="2">  1       21 0.36073111E-01 0.78010458E+02</pdfrwt>
<totfact> 0.12681471E+06</totfact>
</mgrwt>
</event>
<event>
 5    1  0.2051810E+000  0.6454445E+02  0.7546771E-02  0.1379693E+00
         21   -1    0    0  503  502  0.00000000000E+00  0.00000000000E+00  0.54383410110E+03  0.54383410110E+03  0.00000000000E+00 0. -1.
         21   -1    0    0  501  503 -0.00000000000E+00 -0.00000000000E+00 -0.15077868572E+02  0.15077868572E+02  0.00000000000E+00 0. -1.
         24    1    1    2    0    0 -0.31670916529E+02 -0.12571431198E+02  0.30899498585E+03  0.32110154947E+03  0.80419002446E+02 0. -1.
          1    1    1    2  501    0  0.21057736986E+02 -0.46073761843E+01  0.50341082856E+01  0.22135908576E+02  0.00000000000E+00 0. -1.
         -2    1    1    2    0  502  0.10613179543E+02  0.17178807383E+02  0.21472713840E+03  0.21567451163E+03  0.00000000000E+00 0.  1.
<mgrwt>
<rscale>  2 0.64544446E+02</rscale>
<asrwt>0</asrwt>
<pdfrwt beam="1">  1       21 0.83666770E-01 0.64544446E+02</pdfrwt>
<pdfrwt beam="2">  1       21 0.23196725E-02 0.64544446E+02</pdfrwt>
<totfact> 0.11905661E+06</totfact>
</mgrwt>
</event>
<event>
 5    1  0.2051810E+000  0.6944530E+02  0.7546771E-02  0.1361990E+00
         21   -1    0    0  501  502  0.00000000000E+00  0.00000000000E+00  0.76733345045E+02  0.76733345045E+02  0.00000000000E+00 0.  1.
         21   -1    0    0  502  503 -0.00000000000E+00 -0.00000000000E+00 -0.69152352457E+02  0.69152352457E+02  0.00000000000E+00 0.  1.
         24    1    1    2    0    0  0.29827108985E+02 -0.34078002343E+02  0.23573329881E+02  0.95256939433E+02  0.80419002446E+02 0.  1.
          1    1    1    2  501    0 -0.17178743424E+02  0.11360700825E+02 -0.10106296699E+01  0.20620284217E+02  0.00000000000E+00 0. -1.
         -2    1    1    2    0  503 -0.12648365561E+02  0.22717301518E+02 -0.14981707623E+02  0.30008473852E+02  0.00000000000E+00 0.  1.
<mgrwt>
<rscale>  2 0.69445300E+02</rscale>
<asrwt>0</asrwt>
<pdfrwt beam="1">  1       21 0.11805130E-01 0.69445300E+02</pdfrwt>
<pdfrwt beam="2">  1       21 0.10638823E-01 0.69445300E+02</pdfrwt>
<totfact> 0.41784921E+06</totfact>
</mgrwt>
</event>
<event>
 5    1  0.2844545E+000  0.1629613E+03  0.7546771E-02  0.1185393E+00
         21   -1    0    0  501  502  0.00000000000E+00  0.00000000000E+00  0.51674549089E+03  0.51674549089E+03  0.00000000000E+00 0. -1.
         21   -1    0    0  502  503 -0.00000000000E+00 -0.00000000000E+00 -0.94993319979E+02  0.94993319979E+02  0.00000000000E+00 0.  1.
         24    1    1    2    0    0  0.49013282565E+01  0.63494293348E+02  0.11098366043E+03  0.15112953763E+03  0.80419002446E+02 0.  1.
          1    1    1    2  501    0  0.28254796128E+02  0.75413143104E+02  0.30738516219E+03  0.31775952164E+03  0.00000000000E+00 0. -1.
         -2    1    1    2    0  503 -0.33156124385E+02 -0.13890743645E+03  0.33833482842E+01  0.14284975160E+03  0.00000000000E+00 0.  1.
<mgrwt>
<rscale>  2 0.16296133E+03</rscale>
<asrwt>0</asrwt>
<pdfrwt beam="1">  1       21 0.79499305E-01 0.16296133E+03</pdfrwt>
<pdfrwt beam="2">  1       21 0.14614357E-01 0.16296133E+03</pdfrwt>
<totfact> 0.58207526E+04</totfact>
</mgrwt>
</event>
<event>
 5    1  0.2051810E+000  0.7429810E+02  0.7546771E-02  0.1346058E+00
         21   -1    0    0  501  502  0.00000000000E+00  0.00000000000E+00  0.96328796388E+01  0.96328796388E+01  0.00000000000E+00 0. -1.
         21   -1    0    0  502  503 -0.00000000000E+00 -0.00000000000E+00 -0.22931398175E+04  0.22931398175E+04  0.00000000000E+00 0. -1.
         24    1    1    2    0    0 -0.31110554720E+02 -0.42327080816E+02 -0.10345081314E+04  0.10389580060E+04  0.80419002446E+02 0. -1.
          1    1    1    2  501    0  0.15398395478E+02  0.21824609699E+02 -0.17252069086E+02  0.31797139172E+02  0.00000000000E+00 0. -1.
         -2    1    1    2    0  503  0.15712159242E+02  0.20502471117E+02 -0.12317467374E+04  0.12320175520E+04  0.00000000000E+00 0.  1.
<mgrwt>
<rscale>  2 0.74298097E+02</rscale>
<asrwt>0</asrwt>
<pdfrwt beam="1">  1       21 0.14819811E-02 0.74298097E+02</pdfrwt>
<pdfrwt beam="2">  1       21 0.35279083E+00 0.74298097E+02</pdfrwt>
<totfact> 0.40572495E+04</totfact>
</mgrwt>
</event>
<event>
 5    1  0.2051810E+000  0.9902872E+02  0.7546771E-02  0.1282352E+00
         21   -1    0    0  503  502  0.00000000000E+00  0.00000000000E+00  0.13013171157E+03  0.13013171157E+03  0.00000000000E+00 0.  1.
         21   -1    0    0  501  503 -0.00000000000E+00 -0.00000000000E+00 -0.15291680241E+03  0.15291680241E+03  0.00000000000E+00 0.  1.
         24    1    1    2    0    0  0.17099432350E+02 -0.30438838640E+02 -0.52604024983E+02  0.10224144406E+03  0.80419002446E+02 0.  1.
          1    1    1    2  501    0  0.38445556152E+02  0.38324767368E+02 -0.56183068756E+02  0.78124169093E+02  0.00000000000E+00 0. -1.
         -2    1    1    2    0  502 -0.55544988502E+02 -0.78859287276E+01  0.86002002901E+02  0.10268290083E+03  0.00000000000E+00 0.  1.
<mgrwt>
<rscale>  2 0.99028725E+02</rscale>
<asrwt>0</asrwt>
<pdfrwt beam="1">  1       21 0.20020263E-01 0.99028725E+02</pdfrwt>
<pdfrwt beam="2">  1       21 0.23525662E-01 0.99028725E+02</pdfrwt>
<totfact> 0.39715301E+05</totfact>
</mgrwt>
</event>
<event>
 5    1  0.2051810E+000  0.8616601E+02  0.7546771E-02  0.1312411E+00
         21   -1    0    0  501  502  0.00000000000E+00  0.00000000000E+00  0.71944291661E+01  0.71944291661E+01  0.00000000000E+00 0. -1.
         21   -1    0    0  502  503 -0.00000000000E+00 -0.00000000000E+00 -0.11969046574E+04  0.11969046574E+04  0.00000000000E+00 0.  1.
         24    1    1    2    0    0 -0.52318841818E+02  0.41591276861E+02 -0.58619938980E+03  0.59545279921E+03  0.80419002446E+02 0. -1.
          1    1    1    2  501    0  0.20964497831E+02 -0.99012333982E+01 -0.81451314372E+02  0.84686841983E+02  0.00000000000E+00 0. -1.
         -2    1    1    2    0  503  0.31354343987E+02 -0.31690043463E+02 -0.52205952404E+03  0.52395944536E+03  0.00000000000E+00 0.  1.
<mgrwt>
<rscale>  2 0.86166006E+02</rscale>
<asrwt>0</asrwt>
<pdfrwt beam="1">  1       21 0.11068357E-02 0.86166006E+02</pdfrwt>
<pdfrwt beam="2">  1       21 0.18413910E+00 0.86166006E+02</pdfrwt>
<totfact> 0.56528139E+05</totfact>
</mgrwt>
</event>
<event>
 5    1  0.2051810E+000  0.1136998E+03  0.7546771E-02  0.1253868E+00
         21   -1    0    0  501  502  0.00000000000E+00  0.00000000000E+00  0.36788760774E+03  0.36788760774E+03  0.00000000000E+00 0. -1.
         21   -1    0    0  502  503 -0.00000000000E+00 -0.00000000000E+00 -0.17069884948E+03  0.17069884948E+03  0.00000000000E+00 0.  1.
         24    1    1    2    0    0  0.33087420385E+01 -0.96600242628E+01 -0.41004529141E+02  0.90845204646E+02  0.80419002446E+02 0.  0.
          1    1    1    2  501    0  0.12679344026E+02  0.76533606272E+02  0.32663223510E+03  0.33571829807E+03  0.00000000000E+00 0. -1.
         -2    1    1    2    0  503 -0.15988086065E+02 -0.66873582009E+02 -0.88438947699E+02  0.11202295451E+03  0.00000000000E+00 0.  1.
<mgrwt>
<rscale>  2 0.11369985E+03</rscale>
<asrwt>0</asrwt>
<pdfrwt beam="1">  1       21 0.56598093E-01 0.11369985E+03</pdfrwt>
<pdfrwt beam="2">  1       21 0.26261362E-01 0.11369985E+03</pdfrwt>
<totfact> 0.42259119E+04</totfact>
</mgrwt>
</event>
<event>
 5    1  0.2051810E+000  0.1158373E+03  0.7546771E-02  0.1250127E+00
         21   -1    0    0  501  502  0.00000000000E+00  0.00000000000E+00  0.68490077680E+03  0.68490077680E+03  0.00000000000E+00 0. -1.
         21   -1    0    0  502  503 -0.00000000000E+00 -0.00000000000E+00 -0.53229233418E+02  0.53229233418E+02  0.00000000000E+00 0. -1.
         24    1    1    2    0    0 -0.10169803554E+03 -0.27761427900E+01  0.33544861260E+03  0.35964313569E+03  0.80419002446E+02 0. -1.
          1    1    1    2  501    0  0.81674284867E+02  0.51065387755E+01  0.32953835747E+03  0.33954719052E+03  0.00000000000E+00 0. -1.
         -2    1    1    2    0  503  0.20023750671E+02 -0.23303959855E+01 -0.33315426678E+02  0.38939684014E+02  0.00000000000E+00 0.  1.
<mgrwt>
<rscale>  2 0.11583732E+03</rscale>
<asrwt>0</asrwt>
<pdfrwt beam="1">  1       21 0.10536934E+00 0.11583732E+03</pdfrwt>
<pdfrwt beam="2">  1       21 0.81891133E-02 0.11583732E+03</pdfrwt>
<totfact> 0.86505816E+04</totfact>
</mgrwt>
</event>
<event>
 5    1  0.2051810E+000  0.9241320E+02  0.7546771E-02  0.1297111E+00
         21   -1    0    0  503  502  0.00000000000E+00  0.00000000000E+00  0.30069563259E+03  0.30069563259E+03  0.00000000000E+00 0. -1.
         21   -1    0    0  501  503 -0.00000000000E+00 -0.00000000000E+00 -0.74137294658E+02  0.74137294658E+02  0.00000000000E+00 0. -1.
         24    1    1    2    0    0  0.85934039016E+01  0.33247283368E+02  0.11332120801E+03  0.14313678976E+03  0.80419002446E+02 0. -1.
          1    1    1    2  501    0  0.13199840568E+02  0.28766701190E+02 -0.48045143166E+02  0.57533422202E+02  0.00000000000E+00 0. -1.
         -2    1    1    2    0  502 -0.21793244470E+02 -0.62013984558E+02  0.16128227309E+03  0.17416271529E+03  0.00000000000E+00 0.  1.
<mgrwt>
<rscale>  2 0.92413201E+02</rscale>
<asrwt>0</asrwt>
<pdfrwt beam="1">  1       21 0.46260866E-01 0.92413201E+02</pdfrwt>
<pdfrwt beam="2">  1       21 0.11405738E-01 0.92413201E+02</pdfrwt>
<totfact> 0.29377020E+05</totfact>
</mgrwt>
</event>
<event>
 5    1  0.2051810E+000  0.7238641E+02  0.7546771E-02  0.1352161E+00
         21   -1    0    0  503  502  0.00000000000E+00  0.00000000000E+00  0.79189613125E+03  0.79189613125E+03  0.00000000000E+00 0. -1.
         21   -1    0    0  501  503 -0.00000000000E+00 -0.00000000000E+00 -0.13937002474E+02  0.13937002474E+02  0.00000000000E+00 0.  1.
         24    1    1    2    0    0 -0.40431098655E+02 -0.24434004154E+02  0.15622836181E+03  0.18195112334E+03  0.80419002446E+02 0.  1.
          1    1    1    2  501    0  0.27548473552E+02  0.47126207176E+01  0.30598907123E+03  0.30726281731E+03  0.00000000000E+00 0. -1.
         -2    1    1    2    0  502  0.12882625102E+02  0.19721383437E+02  0.31574169574E+03  0.31661919307E+03  0.00000000000E+00 0.  1.
<mgrwt>
<rscale>  2 0.72386405E+02</rscale>
<asrwt>0</asrwt>
<pdfrwt beam="1">  1       21 0.12183014E+00 0.72386405E+02</pdfrwt>
<pdfrwt beam="2">  1       21 0.21441549E-02 0.72386405E+02</pdfrwt>
<totfact> 0.57062449E+05</totfact>
</mgrwt>
</event>
<event>
 5    1  0.2051810E+000  0.1337510E+03  0.7546771E-02  0.1221994E+00
         21   -1    0    0  503  502  0.00000000000E+00  0.00000000000E+00  0.49247438262E+03  0.49247438262E+03  0.00000000000E+00 0. -1.
         21   -1    0    0  501  503 -0.00000000000E+00 -0.00000000000E+00 -0.44324216512E+02  0.44324216512E+02  0.00000000000E+00 0. -1.
         24    1    1    2    0    0 -0.13288020079E+02 -0.10872677367E+03  0.22251567867E+03  0.26072691844E+03  0.80419002446E+02 0. -1.
          1    1    1    2  501    0  0.43714032218E+02  0.62301439545E+02  0.48031415904E+02  0.89996682694E+02  0.00000000000E+00 0. -1.
         -2    1    1    2    0  502 -0.30426012139E+02  0.46425334122E+02  0.17760307153E+03  0.18607499800E+03  0.00000000000E+00 0.  1.
<mgrwt>
<rscale>  2 0.13375102E+03</rscale>
<asrwt>0</asrwt>
<pdfrwt beam="1">  1       21 0.75765286E-01 0.13375102E+03</pdfrwt>
<pdfrwt beam="2">  1       21 0.68191106E-02 0.13375102E+03</pdfrwt>
<totfact> 0.24982711E+05</totfact>
</mgrwt>
</event>
<event>
 5    1  0.2051810E+000  0.7715540E+02  0.7546771E-02  0.1337323E+00
         21   -1    0    0  503  502  0.00000000000E+00  0.00000000000E+00  0.38811344796E+03  0.38811344796E+03  0.00000000000E+00 0.  1.
         21   -1    0    0  501  503 -0.00000000000E+00 -0.00000000000E+00 -0.26828973346E+02  0.26828973346E+02  0.00000000000E+00 0. -1.
         24    1    1    2    0    0  0.42157925715E+01 -0.17987554795E+02  0.15419767784E+03  0.17488700592E+03  0.80419002446E+02 0. -1.
          1    1    1    2  501    0  0.23443944614E+02  0.32880557246E+02  0.11536787057E+02  0.41998179002E+02  0.00000000000E+00 0. -1.
         -2    1    1    2    0  502 -0.27659737186E+02 -0.14893002451E+02  0.19555000972E+03  0.19805723638E+03  0.00000000000E+00 0.  1.
<mgrwt>
<rscale>  2 0.77155397E+02</rscale>
<asrwt>0</asrwt>
<pdfrwt beam="1">  1       21 0.59709757E-01 0.77155397E+02</pdfrwt>
<pdfrwt beam="2">  1       21 0.41275346E-02 0.77155397E+02</pdfrwt>
<totfact> 0.97061916E+05</totfact>
</mgrwt>
</event>
<event>
 5    1  0.2051810E+000  0.1091008E+03  0.7546771E-02  0.1262244E+00
         21   -1    0    0  503  502  0.00000000000E+00  0.00000000000E+00  0.97363871155E+03  0.97363871155E+03  0.00000000000E+00 0.  1.
         21   -1    0    0  501  503 -0.00000000000E+00 -0.00000000000E+00 -0.16866783346E+02  0.16866783346E+02  0.00000000000E+00 0. -1.
         24    1    1    2    0    0 -0.43296926208E+01 -0.93996162148E+02  0.66550934298E+03  0.67692239311E+03  0.80419002446E+02 0.  1.
          1    1    1    2  501    0  0.62707978868E+01  0.51207228111E+02  0.63439174173E+02  0.81768159675E+02  0.00000000000E+00 0. -1.
         -2    1    1    2    0  502 -0.19411052660E+01  0.42788934037E+02  0.22782341105E+03  0.23181494212E+03  0.00000000000E+00 0.  1.
<mgrwt>
<rscale>  2 0.10910085E+03</rscale>
<asrwt>0</asrwt>
<pdfrwt beam="1">  1       21 0.14979053E+00 0.10910085E+03</pdfrwt>
<pdfrwt beam="2">  1       21 0.25948905E-02 0.10910085E+03</pdfrwt>
<totfact> 0.24887182E+05</totfact>
</mgrwt>
</event>
<event>
 5    1  0.2051810E+000  0.8599739E+02  0.7546771E-02  0.1312845E+00
         21   -1    0    0  503  502  0.00000000000E+00  0.00000000000E+00  0.23022055463E+02  0.23022055463E+02  0.00000000000E+00 0. -1.
         21   -1    0    0  501  503 -0.00000000000E+00 -0.00000000000E+00 -0.36585288285E+03  0.36585288285E+03  0.00000000000E+00 0.  1.
         24    1    1    2    0    0 -0.41381960995E+02 -0.66065183923E+01 -0.17676224140E+03  0.19866609857E+03  0.80419002446E+02 0.  0.
          1    1    1    2  501    0  0.59343176560E+02 -0.55831232397E+01 -0.15452714846E+03  0.16562434447E+03  0.00000000000E+00 0. -1.
         -2    1    1    2    0  502 -0.17961215565E+02  0.12189641632E+02 -0.11541437521E+02  0.24584495271E+02  0.00000000000E+00 0.  1.
<mgrwt>
<rscale>  2 0.85997388E+02</rscale>
<asrwt>0</asrwt>
<pdfrwt beam="1">  1       21 0.35418547E-02 0.85997388E+02</pdfrwt>
<pdfrwt beam="2">  1       21 0.56285059E-01 0.85997388E+02</pdfrwt>
<totfact> 0.14139252E+06</totfact>
</mgrwt>
</event>
<event>
 5    1  0.2051810E+000  0.8416400E+02  0.7546771E-02  0.1317633E+00
         21   -1    0    0  503  502  0.00000000000E+00  0.00000000000E+00  0.14207167229E+03  0.14207167229E+03  0.00000000000E+00 0. -1.
         21   -1    0    0  501  503 -0.00000000000E+00 -0.00000000000E+00 -0.53794979940E+02  0.53794979940E+02  0.00000000000E+00 0. -1.
         24    1    1    2    0    0 -0.39455088484E+02  0.50720896022E+02  0.68595084898E+02  0.12370050496E+03  0.80419002446E+02 0. -1.
          1    1    1    2  501    0  0.81088553210E+01 -0.19628057865E+02 -0.46698756468E+01  0.21744468923E+02  0.00000000000E+00 0. -1.
         -2    1    1    2    0  502  0.31346233163E+02 -0.31092838157E+02  0.24351483094E+02  0.50421678344E+02  0.00000000000E+00 0.  1.
<mgrwt>
<rscale>  2 0.84163997E+02</rscale>
<asrwt>0</asrwt>
<pdfrwt beam="1">  1       21 0.21857180E-01 0.84163997E+02</pdfrwt>
<pdfrwt beam="2">  1       21 0.82761508E-02 0.84163997E+02</pdfrwt>
<totfact> 0.21619188E+06</totfact>
</mgrwt>
</event>
<event>
 5    1  0.2051810E+000  0.7477699E+02  0.7546771E-02  0.1344563E+00
         21   -1    0    0  501  502  0.00000000000E+00  0.00000000000E+00  0.94901750650E+03  0.94901750650E+03  0.00000000000E+00 0.  1.
         21   -1    0    0  502  503 -0.00000000000E+00 -0.00000000000E+00 -0.11635255905E+02  0.11635255905E+02  0.00000000000E+00 0. -1.
         24    1    1    2    0    0  0.10324483627E+02  0.23988500344E+02  0.56810260329E+03  0.57436036330E+03  0.80419002446E+02 0.  1.
          1    1    1    2  501    0 -0.35224526230E+02 -0.10912934101E+02  0.35059052951E+03  0.35252457895E+03  0.00000000000E+00 0. -1.
         -2    1    1    2    0  503  0.24900042603E+02 -0.13075566243E+02  0.18689117793E+02  0.33767820156E+02  0.00000000000E+00 0.  1.
<mgrwt>
<rscale>  2 0.74776987E+02</rscale>
<asrwt>0</asrwt>
<pdfrwt beam="1">  1       21 0.14600263E+00 0.74776987E+02</pdfrwt>
<pdfrwt beam="2">  1       21 0.17900401E-02 0.74776987E+02</pdfrwt>
<totfact> 0.48780071E+05</totfact>
</mgrwt>
</event>
<event>
 5    1  0.2051810E+000  0.1014582E+03  0.7546771E-02  0.1277259E+00
         21   -1    0    0  501  502  0.00000000000E+00  0.00000000000E+00  0.17243525344E+03  0.17243525344E+03  0.00000000000E+00 0. -1.
         21   -1    0    0  502  503 -0.00000000000E+00 -0.00000000000E+00 -0.17915222207E+03  0.17915222207E+03  0.00000000000E+00 0.  1.
         24    1    1    2    0    0 -0.69175964541E+02 -0.42587409728E+01 -0.70567703789E+02  0.12747732236E+03  0.80419002446E+02 0.  1.
          1    1    1    2  501    0  0.67973815859E+01 -0.26390191082E+02  0.12718995799E+03  0.13007663893E+03  0.00000000000E+00 0. -1.
         -2    1    1    2    0  503  0.62378582955E+02  0.30648932055E+02 -0.63339222833E+02  0.94033514221E+02  0.00000000000E+00 0.  1.
<mgrwt>
<rscale>  2 0.10145817E+03</rscale>
<asrwt>0</asrwt>
<pdfrwt beam="1">  1       21 0.26528500E-01 0.10145817E+03</pdfrwt>
<pdfrwt beam="2">  1       21 0.27561880E-01 0.10145817E+03</pdfrwt>
<totfact> 0.17451838E+05</totfact>
</mgrwt>
</event>
<event>
 5    1  0.2051810E+000  0.1845213E+03  0.7546771E-02  0.1163498E+00
         21   -1    0    0  501  502  0.00000000000E+00  0.00000000000E+00  0.16775559531E+03  0.16775559531E+03  0.00000000000E+00 0.  1.
         21   -1    0    0  502  503 -0.00000000000E+00 -0.00000000000E+00 -0.28120848911E+03  0.28120848911E+03  0.00000000000E+00 0.  1.
         24    1    1    2    0    0 -0.45911942683E+01 -0.13579573547E+03  0.20679750596E+02  0.15923702106E+03  0.80419002446E+02 0.  1.
          1    1    1    2  501    0  0.83454640064E+01 -0.37196483025E+02  0.32059443140E+02  0.49809969016E+02  0.00000000000E+00 0. -1.
         -2    1    1    2    0  503 -0.37542697380E+01  0.17299221849E+03 -0.16619208754E+03  0.23991709435E+03  0.00000000000E+00 0.  1.
<mgrwt>
<rscale>  2 0.18452132E+03</rscale>
<asrwt>0</asrwt>
<pdfrwt beam="1">  1       21 0.25808553E-01 0.18452132E+03</pdfrwt>
<pdfrwt beam="2">  1       21 0.43262844E-01 0.18452132E+03</pdfrwt>
<totfact> 0.73455358E+04</totfact>
</mgrwt>
</event>
<event>
 5    1  0.2051810E+000  0.1275816E+03  0.7546771E-02  0.1231089E+00
         21   -1    0    0  503  502  0.00000000000E+00  0.00000000000E+00  0.37191842943E+03  0.37191842943E+03  0.00000000000E+00 0.  1.
         21   -1    0    0  501  503 -0.00000000000E+00 -0.00000000000E+00 -0.45272892948E+02  0.45272892948E+02  0.00000000000E+00 0. -1.
         24    1    1    2    0    0 -0.55379006255E+02  0.72770485908E+02  0.12070446410E+03  0.17146183704E+03  0.80419002446E+02 0. -1.
          1    1    1    2  501    0 -0.24132232565E+02  0.20340704871E+01  0.28550339945E+02  0.37438269221E+02  0.00000000000E+00 0. -1.
         -2    1    1    2    0  502  0.79511238820E+02 -0.74804556395E+02  0.17739073243E+03  0.20829121611E+03  0.00000000000E+00 0.  1.
<mgrwt>
<rscale>  2 0.12758156E+03</rscale>
<asrwt>0</asrwt>
<pdfrwt beam="1">  1       21 0.57218218E-01 0.12758156E+03</pdfrwt>
<pdfrwt beam="2">  1       21 0.69650607E-02 0.12758156E+03</pdfrwt>
<totfact> 0.44221175E+05</totfact>
</mgrwt>
</event>
<event>
 5    1  0.2051810E+000  0.7700787E+02  0.7546771E-02  0.1337764E+00
         21   -1    0    0  503  502  0.00000000000E+00  0.00000000000E+00  0.18485268612E+03  0.18485268612E+03  0.00000000000E+00 0.  1.
         21   -1    0    0  501  503 -0.00000000000E+00 -0.00000000000E+00 -0.33201134903E+02  0.33201134903E+02  0.00000000000E+00 0. -1.
         24    1    1    2    0    0 -0.24357959048E+02 -0.32660449443E+01  0.65171077199E+02  0.10638826287E+03  0.80419002446E+02 0.  0.
          1    1    1    2  501    0  0.34364647492E+02 -0.23312202437E+02  0.43397414258E+02  0.60064326717E+02  0.00000000000E+00 0. -1.
         -2    1    1    2    0  502 -0.10006688445E+02  0.26578247381E+02  0.43083059756E+02  0.51601231433E+02  0.00000000000E+00 0.  1.
<mgrwt>
<rscale>  2 0.77007866E+02</rscale>
<asrwt>0</asrwt>
<pdfrwt beam="1">  1       21 0.28438874E-01 0.77007866E+02</pdfrwt>
<pdfrwt beam="2">  1       21 0.51078670E-02 0.77007866E+02</pdfrwt>
<totfact> 0.29680195E+06</totfact>
</mgrwt>
</event>
<event>
 5    1  0.2051810E+000  0.8580067E+02  0.7546771E-02  0.1313352E+00
         21   -1    0    0  501  502  0.00000000000E+00  0.00000000000E+00  0.39231073116E+02  0.39231073116E+02  0.00000000000E+00 0. -1.
         21   -1    0    0  502  503 -0.00000000000E+00 -0.00000000000E+00 -0.25739801867E+03  0.25739801867E+03  0.00000000000E+00 0. -1.
         24    1    1    2    0    0 -0.29943001751E+02  0.41500714134E+02 -0.41094962349E+02  0.10380223751E+03  0.80419002446E+02 0. -1.
          1    1    1    2  501    0  0.46756559500E+02 -0.26479148625E+02 -0.12121407606E+03  0.13259024626E+03  0.00000000000E+00 0. -1.
         -2    1    1    2    0  503 -0.16813557749E+02 -0.15021565509E+02 -0.55857907144E+02  0.60236608014E+02  0.00000000000E+00 0.  1.
<mgrwt>
<rscale>  2 0.85800674E+02</rscale>
<asrwt>0</asrwt>
<pdfrwt beam="1">  1       21 0.60355498E-02 0.85800674E+02</pdfrwt>
<pdfrwt beam="2">  1       21 0.39599695E-01 0.85800674E+02</pdfrwt>
<totfact> 0.11911423E+06</totfact>
</mgrwt>
</event>
<event>
 5    1  0.2051810E+000  0.9171348E+02  0.7546771E-02  0.1298755E+00
         21   -1    0    0  503  502  0.00000000000E+00  0.00000000000E+00  0.14625020646E+03  0.14625020646E+03  0.00000000000E+00 0. -1.
         21   -1    0    0  501  503 -0.00000000000E+00 -0.00000000000E+00 -0.73849153493E+02  0.73849153493E+02  0.00000000000E+00 0. -1.
         24    1    1    2    0    0  0.58712468147E+02  0.28569457685E+02 -0.13561329531E+01  0.10359740769E+03  0.80419002446E+02 0. -1.
          1    1    1    2  501    0 -0.31239290510E+02 -0.39422379387E+02  0.18035848919E+02  0.53435092536E+02  0.00000000000E+00 0. -1.
         -2    1    1    2    0  502 -0.27473177637E+02  0.10852921702E+02  0.55721336999E+02  0.63066859728E+02  0.00000000000E+00 0.  1.
<mgrwt>
<rscale>  2 0.91713479E+02</rscale>
<asrwt>0</asrwt>
<pdfrwt beam="1">  1       21 0.22500032E-01 0.91713479E+02</pdfrwt>
<pdfrwt beam="2">  1       21 0.11361408E-01 0.91713479E+02</pdfrwt>
<totfact> 0.11887865E+06</totfact>
</mgrwt>
</event>
<event>
 5    1  0.2248263E+000  0.1209664E+03  0.7546771E-02  0.1241511E+00
         21   -1    0    0  501  502  0.00000000000E+00  0.00000000000E+00  0.70950538750E+03  0.70950538750E+03  0.00000000000E+00 0. -1.
         21   -1    0    0  502  503 -0.00000000000E+00 -0.00000000000E+00 -0.52173356741E+02  0.52173356741E+02  0.00000000000E+00 0.  1.
         24    1    1    2    0    0 -0.25231575177E+01  0.24780544450E+02  0.24580772369E+03  0.25982512328E+03  0.80419002446E+02 0. -1.
          1    1    1    2  501    0  0.50784628196E+02 -0.73388849734E+02  0.42307768095E+03  0.43238839698E+03  0.00000000000E+00 0. -1.
         -2    1    1    2    0  503 -0.48261470679E+02  0.48608305284E+02 -0.11553373880E+02  0.69465223981E+02  0.00000000000E+00 0.  1.
<mgrwt>
<rscale>  2 0.12096640E+03</rscale>
<asrwt>0</asrwt>
<pdfrwt beam="1">  1       21 0.10915467E+00 0.12096640E+03</pdfrwt>
<pdfrwt beam="2">  1       21 0.80266708E-02 0.12096640E+03</pdfrwt>
<totfact> 0.82126245E+04</totfact>
</mgrwt>
</event>
<event>
 5    1  0.2051810E+000  0.7679270E+02  0.7546771E-02  0.1338408E+00
         21   -1    0    0  503  502  0.00000000000E+00  0.00000000000E+00  0.25770179565E+04  0.25770179565E+04  0.00000000000E+00 0. -1.
         21   -1    0    0  501  503 -0.00000000000E+00 -0.00000000000E+00 -0.55828360722E+01  0.55828360722E+01  0.00000000000E+00 0. -1.
         24    1    1    2    0    0 -0.39306410151E+02 -0.33013781029E+02  0.43718727597E+03  0.44747607069E+03  0.80419002446E+02 0. -1.
          1    1    1    2  501    0  0.10083865012E+02  0.26341673715E+02  0.70745019025E+03  0.70801224551E+03  0.00000000000E+00 0. -1.
         -2    1    1    2    0  502  0.29222545139E+02  0.66721073134E+01  0.14267976542E+04  0.14271124764E+04  0.00000000000E+00 0.  1.
<mgrwt>
<rscale>  2 0.76792702E+02</rscale>
<asrwt>0</asrwt>
<pdfrwt beam="1">  1       21 0.39646335E+00 0.76792702E+02</pdfrwt>
<pdfrwt beam="2">  1       21 0.85889991E-03 0.76792702E+02</pdfrwt>
<totfact> 0.53039718E+04</totfact>
</mgrwt>
</event>
<event>
 5    1  0.2051810E+000  0.1069746E+03  0.7546771E-02  0.1266277E+00
         21   -1    0    0  503  502  0.00000000000E+00  0.00000000000E+00  0.72422981425E+02  0.72422981425E+02  0.00000000000E+00 0.  1.
         21   -1    0    0  501  503 -0.00000000000E+00 -0.00000000000E+00 -0.21758096867E+03  0.21758096867E+03  0.00000000000E+00 0. -1.
         24    1    1    2    0    0 -0.20126327206E+02  0.93588354774E+01 -0.54801050820E+01  0.83605647862E+02  0.80419002446E+02 0.  1.
          1    1    1    2  501    0 -0.22599822179E+02 -0.60088661509E+02 -0.12183634602E+03  0.13771526574E+03  0.00000000000E+00 0. -1.
         -2    1    1    2    0  502  0.42726149385E+02  0.50729826031E+02 -0.17841536137E+02  0.68683036495E+02  0.00000000000E+00 0.  1.
<mgrwt>
<rscale>  2 0.10697461E+03</rscale>
<asrwt>0</asrwt>
<pdfrwt beam="1">  1       21 0.11141997E-01 0.10697461E+03</pdfrwt>
<pdfrwt beam="2">  1       21 0.33473995E-01 0.10697461E+03</pdfrwt>
<totfact> 0.58009415E+05</totfact>
</mgrwt>
</event>
<event>
 5    1  0.2051810E+000  0.1925075E+03  0.7546771E-02  0.1156219E+00
         21   -1    0    0  501  502  0.00000000000E+00  0.00000000000E+00  0.38076762205E+03  0.38076762205E+03  0.00000000000E+00 0.  1.
         21   -1    0    0  502  503 -0.00000000000E+00 -0.00000000000E+00 -0.22720113188E+03  0.22720113188E+03  0.00000000000E+00 0. -1.
         24    1    1    2    0    0 -0.10691876096E+03  0.36344638166E+02 -0.67749617717E+02  0.15430418278E+03  0.80419002446E+02 0. -1.
          1    1    1    2  501    0 -0.67268231589E+02 -0.25210212139E+02  0.26431533478E+03  0.27390357058E+03  0.00000000000E+00 0. -1.
         -2    1    1    2    0  503  0.17418699254E+03 -0.11134426027E+02 -0.42999226897E+02  0.17976100058E+03  0.00000000000E+00 0.  1.
<mgrwt>
<rscale>  2 0.19250749E+03</rscale>
<asrwt>0</asrwt>
<pdfrwt beam="1">  1       21 0.58579634E-01 0.19250749E+03</pdfrwt>
<pdfrwt beam="2">  1       21 0.34954020E-01 0.19250749E+03</pdfrwt>
<totfact> 0.21524656E+04</totfact>
</mgrwt>
</event>
<event>
 5    1  0.2051810E+000  0.6473321E+02  0.7546771E-02  0.1378978E+00
         21   -1    0    0  501  502  0.00000000000E+00  0.00000000000E+00  0.22594420383E+02  0.22594420383E+02  0.00000000000E+00 0. -1.
         21   -1    0    0  502  503 -0.00000000000E+00 -0.00000000000E+00 -0.50871213708E+03  0.50871213708E+03  0.00000000000E+00 0. -1.
         24    1    1    2    0    0  0.17816511050E+02 -0.23310908642E+02 -0.24853347747E+03  0.26286295271E+03  0.80419002446E+02 0. -1.
          1    1    1    2  501    0  0.29808803794E+01  0.22866820724E+02  0.61156799676E+01  0.23857465903E+02  0.00000000000E+00 0. -1.
         -2    1    1    2    0  503 -0.20797391429E+02  0.44408791843E+00 -0.24369991919E+03  0.24458613885E+03  0.00000000000E+00 0.  1.
<mgrwt>
<rscale>  2 0.64733206E+02</rscale>
<asrwt>0</asrwt>
<pdfrwt beam="1">  1       21 0.34760649E-02 0.64733206E+02</pdfrwt>
<pdfrwt beam="2">  1       21 0.78263400E-01 0.64733206E+02</pdfrwt>
<totfact> 0.71926780E+05</totfact>
</mgrwt>
</event>
<event>
 5    1  0.2078581E+000  0.9740276E+02  0.7546771E-02  0.1285854E+00
         21   -1    0    0  501  502  0.00000000000E+00  0.00000000000E+00  0.66980483961E+02  0.66980483961E+02  0.00000000000E+00 0.  1.
         21   -1    0    0  502  503 -0.00000000000E+00 -0.00000000000E+00 -0.16294313243E+03  0.16294313243E+03  0.00000000000E+00 0.  1.
         24    1    1    2    0    0  0.57303569085E+02  0.17170222918E+02 -0.86777116411E+01  0.10060335093E+03  0.80419002446E+02 0.  1.
          1    1    1    2  501    0  0.16126910876E+02 -0.13539482858E+02 -0.12694472467E+02  0.24587486282E+02  0.00000000000E+00 0. -1.
         -2    1    1    2    0  503 -0.73430479961E+02 -0.36307400596E+01 -0.74590464358E+02  0.10473277918E+03  0.00000000000E+00 0.  1.
<mgrwt>
<rscale>  2 0.97402763E+02</rscale>
<asrwt>0</asrwt>
<pdfrwt beam="1">  1       21 0.10304690E-01 0.97402763E+02</pdfrwt>
<pdfrwt beam="2">  1       21 0.25068174E-01 0.97402763E+02</pdfrwt>
<totfact> 0.11537053E+06</totfact>
</mgrwt>
</event>
<event>
 5    1  0.2051810E+000  0.8317425E+02  0.7546771E-02  0.1320277E+00
         21   -1    0    0  501  502  0.00000000000E+00  0.00000000000E+00  0.22156533626E+02  0.22156533626E+02  0.00000000000E+00 0. -1.
         21   -1    0    0  502  503 -0.00000000000E+00 -0.00000000000E+00 -0.51818148251E+03  0.51818148251E+03  0.00000000000E+00 0.  1.
         24    1    1    2    0    0  0.45063206283E+02 -0.44039069408E+02 -0.31694076873E+03  0.33299969825E+03  0.80419002446E+02 0.  0.
          1    1    1    2  501    0 -0.18651727349E+02  0.26777633864E+02 -0.83111262729E+01  0.33674967385E+02  0.00000000000E+00 0. -1.
         -2    1    1    2    0  503 -0.26411478934E+02  0.17261435544E+02 -0.17077305388E+03  0.17366335050E+03  0.00000000000E+00 0.  1.
<mgrwt>
<rscale>  2 0.83174250E+02</rscale>
<asrwt>0</asrwt>
<pdfrwt beam="1">  1       21 0.34086981E-02 0.83174250E+02</pdfrwt>
<pdfrwt beam="2">  1       21 0.79720215E-01 0.83174250E+02</pdfrwt>
<totfact> 0.71491989E+05</totfact>
</mgrwt>
</event>
<event>
 5    1  0.2051810E+000  0.8177431E+02  0.7546771E-02  0.1324090E+00
         21   -1    0    0  503  502  0.00000000000E+00  0.00000000000E+00  0.27808366725E+02  0.27808366725E+02  0.00000000000E+00 0.  1.
         21   -1    0    0  501  503 -0.00000000000E+00 -0.00000000000E+00 -0.25158773403E+03  0.25158773403E+03  0.00000000000E+00 0. -1.
         24    1    1    2    0    0 -0.11789420403E+02  0.58356812110E+02 -0.16391823990E+03  0.19204403995E+03  0.80419002446E+02 0.  0.
          1    1    1    2  501    0  0.16769503434E+02 -0.27319902939E+02 -0.32972782493E+02  0.45986929962E+02  0.00000000000E+00 0. -1.
         -2    1    1    2    0  502 -0.49800830312E+01 -0.31036909171E+02 -0.26888344916E+02  0.41365130849E+02  0.00000000000E+00 0.  1.
<mgrwt>
<rscale>  2 0.81774307E+02</rscale>
<asrwt>0</asrwt>
<pdfrwt beam="1">  1       21 0.42782101E-02 0.81774307E+02</pdfrwt>
<pdfrwt beam="2">  1       21 0.38705807E-01 0.81774307E+02</pdfrwt>
<totfact> 0.22040979E+06</totfact>
</mgrwt>
</event>
<event>
 5    1  0.2051810E+000  0.6782138E+02  0.7546771E-02  0.1367662E+00
         21   -1    0    0  503  502  0.00000000000E+00  0.00000000000E+00  0.41258096693E+03  0.41258096693E+03  0.00000000000E+00 0. -1.
         21   -1    0    0  501  503 -0.00000000000E+00 -0.00000000000E+00 -0.72922956601E+02  0.72922956601E+02  0.00000000000E+00 0. -1.
         24    1    1    2    0    0 -0.10069462052E+02  0.89940861982E+01  0.28994708498E+03  0.30119564356E+03  0.80419002446E+02 0. -1.
          1    1    1    2  501    0 -0.14050567585E+02 -0.22445807541E+02 -0.62959868128E+02  0.68302106266E+02  0.00000000000E+00 0. -1.
         -2    1    1    2    0  502  0.24120029637E+02  0.13451721343E+02  0.11267079347E+03  0.11600617371E+03  0.00000000000E+00 0.  1.
<mgrwt>
<rscale>  2 0.67821379E+02</rscale>
<asrwt>0</asrwt>
<pdfrwt beam="1">  1       21 0.63473993E-01 0.67821379E+02</pdfrwt>
<pdfrwt beam="2">  1       21 0.11218917E-01 0.67821379E+02</pdfrwt>
<totfact> 0.15871333E+05</totfact>
</mgrwt>
</event>
<event>
 5    1  0.2051810E+000  0.6546570E+02  0.7546771E-02  0.1376228E+00
         21   -1    0    0  503  502  0.00000000000E+00  0.00000000000E+00  0.39126532664E+02  0.39126532664E+02  0.00000000000E+00 0.  1.
         21   -1    0    0  501  503 -0.00000000000E+00 -0.00000000000E+00 -0.18117550629E+03  0.18117550629E+03  0.00000000000E+00 0. -1.
         24    1    1    2    0    0  0.13330306701E+02  0.13031677897E+01 -0.19599040273E+02  0.83849470225E+02  0.80419002446E+02 0.  1.
          1    1    1    2  501    0  0.61804978859E+01  0.19753783900E+02 -0.93194886220E+02  0.95465686767E+02  0.00000000000E+00 0. -1.
         -2    1    1    2    0  502 -0.19510804587E+02 -0.21056951690E+02 -0.29255047133E+02  0.40986881960E+02  0.00000000000E+00 0.  1.
<mgrwt>
<rscale>  2 0.65465697E+02</rscale>
<asrwt>0</asrwt>
<pdfrwt beam="1">  1       21 0.60194666E-02 0.65465697E+02</pdfrwt>
<pdfrwt beam="2">  1       21 0.27873155E-01 0.65465697E+02</pdfrwt>
<totfact> 0.23249511E+06</totfact>
</mgrwt>
</event>
<event>
 5    1  0.2051810E+000  0.1108232E+03  0.7546771E-02  0.1259053E+00
         21   -1    0    0  503  502  0.00000000000E+00  0.00000000000E+00  0.46936700071E+03  0.46936700071E+03  0.00000000000E+00 0.  1.
         21   -1    0    0  501  503 -0.00000000000E+00 -0.00000000000E+00 -0.90237803637E+02  0.90237803637E+02  0.00000000000E+00 0.  1.
         24    1    1    2    0    0  0.71824801378E+02  0.58658954715E+02 -0.56561877778E+01  0.12287751412E+03  0.80419002446E+02 0.  1.
          1    1    1    2  501    0 -0.51219908440E+02 -0.19796912026E+02  0.58228247286E+01  0.55220485638E+02  0.00000000000E+00 0. -1.
         -2    1    1    2    0  502 -0.20604892938E+02 -0.38862042689E+02  0.37896256012E+03  0.38150680459E+03  0.00000000000E+00 0.  1.
<mgrwt>
<rscale>  2 0.11082324E+03</rscale>
<asrwt>0</asrwt>
<pdfrwt beam="1">  1       21 0.72210306E-01 0.11082324E+03</pdfrwt>
<pdfrwt beam="2">  1       21 0.13882739E-01 0.11082324E+03</pdfrwt>
<totfact> 0.81018023E+04</totfact>
</mgrwt>
</event>
<event>
 5    1  0.2051810E+000  0.7108921E+02  0.7546771E-02  0.1356428E+00
         21   -1    0    0  501  502  0.00000000000E+00  0.00000000000E+00  0.57865326094E+01  0.57865326094E+01  0.00000000000E+00 0. -1.
         21   -1    0    0  502  503 -0.00000000000E+00 -0.00000000000E+00 -0.87548295878E+03  0.87548295878E+03  0.00000000000E+00 0. -1.
         24    1    1    2    0    0  0.43975320239E+02  0.79686690255E+01 -0.56289372367E+03  0.57036294461E+03  0.80419002446E+02 0. -1.
          1    1    1    2  501    0 -0.28471207338E+02  0.62382066232E+01 -0.19076183550E+03  0.19297565327E+03  0.00000000000E+00 0. -1.
         -2    1    1    2    0  503 -0.15504112901E+02 -0.14206875649E+02 -0.11604086699E+03  0.11793089351E+03  0.00000000000E+00 0.  1.
<mgrwt>
<rscale>  2 0.71089213E+02</rscale>
<asrwt>0</asrwt>
<pdfrwt beam="1">  1       21 0.89023581E-03 0.71089213E+02</pdfrwt>
<pdfrwt beam="2">  1       21 0.13468968E+00 0.71089213E+02</pdfrwt>
<totfact> 0.17793349E+06</totfact>
</mgrwt>
</event>
<event>
 5    1  0.2051810E+000  0.1296447E+03  0.7546771E-02  0.1227984E+00
         21   -1    0    0  501  502  0.00000000000E+00  0.00000000000E+00  0.16459641425E+03  0.16459641425E+03  0.00000000000E+00 0. -1.
         21   -1    0    0  502  503 -0.00000000000E+00 -0.00000000000E+00 -0.69865451077E+03  0.69865451077E+03  0.00000000000E+00 0.  1.
         24    1    1    2    0    0  0.57227151708E+02 -0.32761418478E+02 -0.85195234629E+02  0.13443846693E+03  0.80419002446E+02 0. -1.
          1    1    1    2  501    0 -0.60980858543E+02  0.84063618020E+02  0.11938882794E+03  0.15823731931E+03  0.00000000000E+00 0. -1.
         -2    1    1    2    0  503  0.37537068352E+01 -0.51302199543E+02 -0.56825168984E+03  0.57057513878E+03  0.00000000000E+00 0.  1.
<mgrwt>
<rscale>  2 0.12964469E+03</rscale>
<asrwt>0</asrwt>
<pdfrwt beam="1">  1       21 0.25322525E-01 0.12964469E+03</pdfrwt>
<pdfrwt beam="2">  1       21 0.10748531E+00 0.12964469E+03</pdfrwt>
<totfact> 0.10724240E+04</totfact>
</mgrwt>
</event>
<event>
 5    1  0.2051810E+000  0.1096291E+03  0.7546771E-02  0.1261258E+00
         21   -1    0    0  501  502  0.00000000000E+00  0.00000000000E+00  0.36211217731E+03  0.36211217731E+03  0.00000000000E+00 0. -1.
         21   -1    0    0  502  503 -0.00000000000E+00 -0.00000000000E+00 -0.50370676089E+02  0.50370676089E+02  0.00000000000E+00 0.  1.
         24    1    1    2    0    0 -0.64369681771E+02 -0.25545793725E+02  0.37675965833E+02  0.11261766231E+03  0.80419002446E+02 0.  1.
          1    1    1    2  501    0 -0.49888314279E+01  0.41632289996E+02  0.15999278573E+03  0.16539597183E+03  0.00000000000E+00 0. -1.
         -2    1    1    2    0  503  0.69358513199E+02 -0.16086496271E+02  0.11407274965E+03  0.13446921926E+03  0.00000000000E+00 0.  1.
<mgrwt>
<rscale>  2 0.10962910E+03</rscale>
<asrwt>0</asrwt>
<pdfrwt beam="1">  1       21 0.55709564E-01 0.10962910E+03</pdfrwt>
<pdfrwt beam="2">  1       21 0.77493350E-02 0.10962910E+03</pdfrwt>
<totfact> 0.39052872E+05</totfact>
</mgrwt>
</event>
<event>
 5    1  0.2051810E+000  0.6588500E+02  0.7546771E-02  0.1374673E+00
         21   -1    0    0  501  502  0.00000000000E+00  0.00000000000E+00  0.66420480750E+01  0.66420480750E+01  0.00000000000E+00 0.  1.
         21   -1    0    0  502  503 -0.00000000000E+00 -0.00000000000E+00 -0.77316197245E+03  0.77316197245E+03  0.00000000000E+00 0. -1.
         24    1    1    2    0    0 -0.82071079092E+00 -0.92975610381E+01 -0.55083871739E+03  0.55675634414E+03  0.80419002446E+02 0. -1.
          1    1    1    2  501    0 -0.24253624013E+02  0.56667471024E+00 -0.53978707728E+02  0.59179897651E+02  0.00000000000E+00 0. -1.
         -2    1    1    2    0  503  0.25074334804E+02  0.87308863279E+01 -0.16170249926E+03  0.16386777874E+03  0.00000000000E+00 0.  1.
<mgrwt>
<rscale>  2 0.65884996E+02</rscale>
<asrwt>0</asrwt>
<pdfrwt beam="1">  1       21 0.10218536E-02 0.65884996E+02</pdfrwt>
<pdfrwt beam="2">  1       21 0.11894799E+00 0.65884996E+02</pdfrwt>
<totfact> 0.19352640E+06</totfact>
</mgrwt>
</event>
<event>
 5    1  0.2051810E+000  0.1276765E+03  0.7546771E-02  0.1230945E+00
         21   -1    0    0  503  502  0.00000000000E+00  0.00000000000E+00  0.41472972328E+03  0.41472972328E+03  0.00000000000E+00 0. -1.
         21   -1    0    0  501  503 -0.00000000000E+00 -0.00000000000E+00 -0.11358831323E+03  0.11358831323E+03  0.00000000000E+00 0. -1.
         24    1    1    2    0    0  0.99140251913E+02 -0.57187212526E+02  0.32483949635E+03  0.35367652053E+03  0.80419002446E+02 0. -1.
          1    1    1    2  501    0 -0.58559210075E+02  0.24980491451E+02 -0.77267876790E+02  0.10011758498E+03  0.00000000000E+00 0. -1.
         -2    1    1    2    0  502 -0.40581041838E+02  0.32206721076E+02  0.53569790489E+02  0.74523931002E+02  0.00000000000E+00 0.  1.
<mgrwt>
<rscale>  2 0.12767646E+03</rscale>
<asrwt>0</asrwt>
<pdfrwt beam="1">  1       21 0.63804572E-01 0.12767646E+03</pdfrwt>
<pdfrwt beam="2">  1       21 0.17475125E-01 0.12767646E+03</pdfrwt>
<totfact> 0.69303908E+04</totfact>
</mgrwt>
</event>
<event>
 5    1  0.2051810E+000  0.7106851E+02  0.7546771E-02  0.1356497E+00
         21   -1    0    0  503  502  0.00000000000E+00  0.00000000000E+00  0.38186449134E+03  0.38186449134E+03  0.00000000000E+00 0.  1.
         21   -1    0    0  501  503 -0.00000000000E+00 -0.00000000000E+00 -0.31683097512E+02  0.31683097512E+02  0.00000000000E+00 0.  1.
         24    1    1    2    0    0  0.41905981722E+02 -0.34924166481E+01  0.19943415063E+03  0.21911071327E+03  0.80419002446E+02 0.  0.
          1    1    1    2  501    0 -0.16017875640E+02  0.15996433418E+02 -0.14384513789E+02  0.26821119647E+02  0.00000000000E+00 0. -1.
         -2    1    1    2    0  502 -0.25888106082E+02 -0.12504016770E+02  0.16513175699E+03  0.16761575594E+03  0.00000000000E+00 0.  1.
<mgrwt>
<rscale>  2 0.71068508E+02</rscale>
<asrwt>0</asrwt>
<pdfrwt beam="1">  1       21 0.58748380E-01 0.71068508E+02</pdfrwt>
<pdfrwt beam="2">  1       21 0.48743230E-02 0.71068508E+02</pdfrwt>
<totfact> 0.76236271E+05</totfact>
</mgrwt>
</event>
<event>
 5    1  0.2051810E+000  0.7764780E+02  0.7546771E-02  0.1335862E+00
         21   -1    0    0  501  502  0.00000000000E+00  0.00000000000E+00  0.16529058639E+04  0.16529058639E+04  0.00000000000E+00 0.  1.
         21   -1    0    0  502  503 -0.00000000000E+00 -0.00000000000E+00 -0.37920851893E+01  0.37920851893E+01  0.00000000000E+00 0. -1.
         24    1    1    2    0    0  0.21177499443E+02  0.64062126722E+01  0.75751906662E+03  0.76209702683E+03  0.80419002446E+02 0.  0.
          1    1    1    2  501    0  0.23310601239E+02 -0.13348534441E+02  0.42137689846E+03  0.42223223238E+03  0.00000000000E+00 0. -1.
         -2    1    1    2    0  503 -0.44488100681E+02  0.69423217688E+01  0.47021781361E+03  0.47236868987E+03  0.00000000000E+00 0.  1.
<mgrwt>
<rscale>  2 0.77647804E+02</rscale>
<asrwt>0</asrwt>
<pdfrwt beam="1">  1       21 0.25429263E+00 0.77647804E+02</pdfrwt>
<pdfrwt beam="2">  1       21 0.58339904E-03 0.77647804E+02</pdfrwt>
<totfact> 0.59192791E+05</totfact>
</mgrwt>
</event>
<event>
 5    1  0.2051810E+000  0.1135763E+03  0.7546771E-02  0.1254087E+00
         21   -1    0    0  501  502  0.00000000000E+00  0.00000000000E+00  0.13908932790E+03  0.13908932790E+03  0.00000000000E+00 0. -1.
         21   -1    0    0  502  503 -0.00000000000E+00 -0.00000000000E+00 -0.98917788232E+02  0.98917788232E+02  0.00000000000E+00 0.  1.
         24    1    1    2    0    0  0.14913867639E+02 -0.15168845457E+02 -0.94410401652E+01  0.83718973442E+02  0.80419002446E+02 0.  1.
          1    1    1    2  501    0  0.23387181512E+02 -0.57361323428E+02  0.84580790361E+01  0.62520562901E+02  0.00000000000E+00 0. -1.
         -2    1    1    2    0  503 -0.38301049151E+02  0.72530168886E+02  0.41154500799E+02  0.91767579791E+02  0.00000000000E+00 0.  1.
<mgrwt>
<rscale>  2 0.11357633E+03</rscale>
<asrwt>0</asrwt>
<pdfrwt beam="1">  1       21 0.21398358E-01 0.11357633E+03</pdfrwt>
<pdfrwt beam="2">  1       21 0.15218121E-01 0.11357633E+03</pdfrwt>
<totfact> 0.77940016E+05</totfact>
</mgrwt>
</event>
<event>
 5    1  0.2051810E+000  0.8021065E+02  0.7546771E-02  0.1328455E+00
         21   -1    0    0  501  502  0.00000000000E+00  0.00000000000E+00  0.41220519534E+03  0.41220519534E+03  0.00000000000E+00 0.  1.
         21   -1    0    0  502  503 -0.00000000000E+00 -0.00000000000E+00 -0.15809158320E+02  0.15809158320E+02  0.00000000000E+00 0. -1.
         24    1    1    2    0    0 -0.44943469402E+02  0.29096503759E+02  0.23449606907E+03  0.25361810727E+03  0.80419002446E+02 0.  0.
          1    1    1    2  501    0  0.41650290394E+01 -0.22034411154E+02  0.72351371014E+02  0.75746839072E+02  0.00000000000E+00 0. -1.
         -2    1    1    2    0  503  0.40778440362E+02 -0.70620926046E+01  0.89548596936E+02  0.98649407315E+02  0.00000000000E+00 0.  1.
<mgrwt>
<rscale>  2 0.80210655E+02</rscale>
<asrwt>0</asrwt>
<pdfrwt beam="1">  1       21 0.63416176E-01 0.80210655E+02</pdfrwt>
<pdfrwt beam="2">  1       21 0.24321785E-02 0.80210655E+02</pdfrwt>
<totfact> 0.20206728E+06</totfact>
</mgrwt>
</event>
<event>
 5    1  0.2051810E+000  0.7129228E+02  0.7546771E-02  0.1355753E+00
         21   -1    0    0  503  502  0.00000000000E+00  0.00000000000E+00  0.71557937804E+02  0.71557937804E+02  0.00000000000E+00 0. -1.
         21   -1    0    0  501  503 -0.00000000000E+00 -0.00000000000E+00 -0.10010924124E+03  0.10010924124E+03  0.00000000000E+00 0. -1.
         24    1    1    2    0    0 -0.18928085050E+02  0.50865733293E+01 -0.20299834021E+02  0.85225846124E+02  0.80419002446E+02 0. -1.
          1    1    1    2  501    0  0.39142466061E+02 -0.81562041672E+00 -0.35087728755E+02  0.52573249806E+02  0.00000000000E+00 0. -1.
         -2    1    1    2    0  502 -0.20214381011E+02 -0.42709529126E+01  0.26836259340E+02  0.33868083114E+02  0.00000000000E+00 0.  1.
<mgrwt>
<rscale>  2 0.71292280E+02</rscale>
<asrwt>0</asrwt>
<pdfrwt beam="1">  1       21 0.11008914E-01 0.71292280E+02</pdfrwt>
<pdfrwt beam="2">  1       21 0.15401422E-01 0.71292280E+02</pdfrwt>
<totfact> 0.24722100E+06</totfact>
</mgrwt>
</event>
<event>
 5    1  0.2051810E+000  0.7294347E+02  0.7546771E-02  0.1350360E+00
         21   -1    0    0  501  502  0.00000000000E+00  0.00000000000E+00  0.13450693386E+02  0.13450693386E+02  0.00000000000E+00 0.  1.
         21   -1    0    0  502  503 -0.00000000000E+00 -0.00000000000E+00 -0.69934060805E+03  0.69934060805E+03  0.00000000000E+00 0.  1.
         24    1    1    2    0    0 -0.15273587004E+02 -0.21581422170E+02 -0.26537289223E+03  0.27854807148E+03  0.80419002446E+02 0.  1.
          1    1    1    2  501    0  0.13252252499E+02 -0.17582348566E+02 -0.14559226292E+02  0.26395686156E+02  0.00000000000E+00 0. -1.
         -2    1    1    2    0  503  0.20213345045E+01  0.39163770736E+02 -0.40595779614E+03  0.40784754380E+03  0.00000000000E+00 0.  1.
<mgrwt>
<rscale>  2 0.72943467E+02</rscale>
<asrwt>0</asrwt>
<pdfrwt beam="1">  1       21 0.20693367E-02 0.72943467E+02</pdfrwt>
<pdfrwt beam="2">  1       21 0.10759090E+00 0.72943467E+02</pdfrwt>
<totfact> 0.80964744E+05</totfact>
</mgrwt>
</event>
<event>
 5    1  0.2051810E+000  0.7930966E+02  0.7546771E-02  0.1331022E+00
         21   -1    0    0  501  502  0.00000000000E+00  0.00000000000E+00  0.37652585504E+02  0.37652585504E+02  0.00000000000E+00 0. -1.
         21   -1    0    0  502  503 -0.00000000000E+00 -0.00000000000E+00 -0.29533963984E+03  0.29533963984E+03  0.00000000000E+00 0. -1.
         24    1    1    2    0    0 -0.52936164286E+02 -0.22445064993E+02 -0.21378414535E+03  0.23553533745E+03  0.80419002446E+02 0. -1.
          1    1    1    2  501    0  0.25750709364E+02  0.19727401234E+02  0.12517126258E+02  0.34769927264E+02  0.00000000000E+00 0. -1.
         -2    1    1    2    0  503  0.27185454922E+02  0.27176637593E+01 -0.56420035241E+02  0.62686960624E+02  0.00000000000E+00 0.  1.
<mgrwt>
<rscale>  2 0.79309664E+02</rscale>
<asrwt>0</asrwt>
<pdfrwt beam="1">  1       21 0.57927059E-02 0.79309664E+02</pdfrwt>
<pdfrwt beam="2">  1       21 0.45436864E-01 0.79309664E+02</pdfrwt>
<totfact> 0.96885126E+05</totfact>
</mgrwt>
</event>
<event>
 5    1  0.2051810E+000  0.6435975E+02  0.7546771E-02  0.1380396E+00
         21   -1    0    0  503  502  0.00000000000E+00  0.00000000000E+00  0.75894676324E+02  0.75894676324E+02  0.00000000000E+00 0.  1.
         21   -1    0    0  501  503 -0.00000000000E+00 -0.00000000000E+00 -0.89986592857E+02  0.89986592857E+02  0.00000000000E+00 0.  1.
         24    1    1    2    0    0 -0.11338052956E+02 -0.22438451952E+02 -0.12005278674E+02  0.85108038641E+02  0.80419002446E+02 0.  1.
          1    1    1    2  501    0  0.21175431894E+02  0.13809609654E+01 -0.34730701108E+02  0.40700461527E+02  0.00000000000E+00 0. -1.
         -2    1    1    2    0  502 -0.98373789380E+01  0.21057490987E+02  0.32644063249E+02  0.40072769014E+02  0.00000000000E+00 0.  1.
<mgrwt>
<rscale>  2 0.64359750E+02</rscale>
<asrwt>0</asrwt>
<pdfrwt beam="1">  1       21 0.11676104E-01 0.64359750E+02</pdfrwt>
<pdfrwt beam="2">  1       21 0.13844091E-01 0.64359750E+02</pdfrwt>
<totfact> 0.26790875E+06</totfact>
</mgrwt>
</event>
<event>
 5    1  0.2051810E+000  0.7610748E+02  0.7546771E-02  0.1340475E+00
         21   -1    0    0  503  502  0.00000000000E+00  0.00000000000E+00  0.23221569091E+04  0.23221569091E+04  0.00000000000E+00 0. -1.
         21   -1    0    0  501  503 -0.00000000000E+00 -0.00000000000E+00 -0.55418037415E+01  0.55418037415E+01  0.00000000000E+00 0. -1.
         24    1    1    2    0    0 -0.40559741174E+02  0.46700717325E+01  0.18410118375E+04  0.18432196570E+04  0.80419002446E+02 0. -1.
          1    1    1    2  501    0  0.25919883181E+02 -0.25634797953E+02  0.78483945140E+02  0.86537349479E+02  0.00000000000E+00 0. -1.
         -2    1    1    2    0  502  0.14639857992E+02  0.20964726220E+02  0.39711932272E+03  0.39794170636E+03  0.00000000000E+00 0.  1.
<mgrwt>
<rscale>  2 0.76107482E+02</rscale>
<asrwt>0</asrwt>
<pdfrwt beam="1">  1       21 0.35725413E+00 0.76107482E+02</pdfrwt>
<pdfrwt beam="2">  1       21 0.85258704E-03 0.76107482E+02</pdfrwt>
<totfact> 0.90401009E+04</totfact>
</mgrwt>
</event>
<event>
 5    1  0.2051810E+000  0.7495565E+02  0.7546771E-02  0.1344008E+00
         21   -1    0    0  503  502  0.00000000000E+00  0.00000000000E+00  0.20216001646E+02  0.20216001646E+02  0.00000000000E+00 0. -1.
         21   -1    0    0  501  503 -0.00000000000E+00 -0.00000000000E+00 -0.36036748797E+03  0.36036748797E+03  0.00000000000E+00 0.  1.
         24    1    1    2    0    0 -0.13642726945E+02 -0.12739951812E+02 -0.15040899047E+03  0.17157654484E+03  0.80419002446E+02 0. -1.
          1    1    1    2  501    0 -0.14214708407E+02 -0.19891972063E+02 -0.14488671467E+03  0.14693504883E+03  0.00000000000E+00 0. -1.
         -2    1    1    2    0  502  0.27857435352E+02  0.32631923875E+02 -0.44855781181E+02  0.62071895939E+02  0.00000000000E+00 0.  1.
<mgrwt>
<rscale>  2 0.74955645E+02</rscale>
<asrwt>0</asrwt>
<pdfrwt beam="1">  1       21 0.31101544E-02 0.74955645E+02</pdfrwt>
<pdfrwt beam="2">  1       21 0.55441147E-01 0.74955645E+02</pdfrwt>
<totfact> 0.17947356E+06</totfact>
</mgrwt>
</event>
