<event>
 5    1  0.1365600E-001  0.1307361E+03  0.7546771E-02  0.1226368E+00
         21   -1    0    0  503  502  0.00000000000E+00  0.00000000000E+00  0.12762618967E+02  0.12762618967E+02  0.00000000000E+00 0.  1.
         21   -1    0    0  501  503 -0.00000000000E+00 -0.00000000000E+00 -0.34822509781E+04  0.34822509781E+04  0.00000000000E+00 0. -1.
         24    1    1    2    0    0 -0.99811670816E+02  0.18251759636E+02 -0.35945015391E+03  0.38205644277E+03  0.80419002446E+02 0.  1.
          1    1    1    2  501    0  0.87669304226E+02 -0.47943712472E+02 -0.25931696655E+04  0.25950941063E+04  0.00000000000E+00 0. -1.
         -2    1    1    2    0  502  0.12142366590E+02  0.29691952836E+02 -0.51686853977E+03  0.51786304805E+03  0.00000000000E+00 0.  1.
<mgrwt>
<rscale>  2 0.13073610E+03</rscale>
<asrwt>0</asrwt>
<pdfrwt beam="1">  1       21 0.19634795E-02 0.13073610E+03</pdfrwt>
<pdfrwt beam="2">  1       21 0.53573101E+00 0.13073610E+03</pdfrwt>
<totfact> 0.14897428E+03</totfact>
</mgrwt>
</event>
<event>
 5    1  0.1365600E-001  0.1414448E+03  0.7546771E-02  0.1211398E+00
         21   -1    0    0  503  502  0.00000000000E+00  0.00000000000E+00  0.68528057639E+02  0.68528057639E+02  0.00000000000E+00 0.  1.
         21   -1    0    0  501  503 -0.00000000000E+00 -0.00000000000E+00 -0.33327673532E+03  0.33327673532E+03  0.00000000000E+00 0.  1.
         24    1    1    2    0    0  0.48351538867E+02 -0.86778335696E+02 -0.54335453329E+02  0.13888091409E+03  0.80419002446E+02 0.  1.
          1    1    1    2  501    0  0.38090336168E+02  0.45344214841E+02 -0.58133935331E+02  0.82985094842E+02  0.00000000000E+00 0. -1.
         -2    1    1    2    0  502 -0.86441875035E+02  0.41434120855E+02 -0.15227928903E+03  0.17993878403E+03  0.00000000000E+00 0.  1.
<mgrwt>
<rscale>  2 0.14144477E+03</rscale>
<asrwt>0</asrwt>
<pdfrwt beam="1">  1       21 0.10542778E-01 0.14144477E+03</pdfrwt>
<pdfrwt beam="2">  1       21 0.51273344E-01 0.14144477E+03</pdfrwt>
<totfact> 0.27045383E+05</totfact>
</mgrwt>
</event>
<event>
 5    1  0.1365600E-001  0.9327063E+02  0.7546771E-02  0.1295119E+00
         21   -1    0    0  501  502  0.00000000000E+00  0.00000000000E+00  0.68405546537E+02  0.68405546537E+02  0.00000000000E+00 0.  1.
         21   -1    0    0  502  503 -0.00000000000E+00 -0.00000000000E+00 -0.16302882135E+03  0.16302882135E+03  0.00000000000E+00 0. -1.
         24    1    1    2    0    0 -0.40718114939E+02  0.20383405949E+02  0.28920078137E+01  0.92460952763E+02  0.80419002446E+02 0.  1.
          1    1    1    2  501    0  0.66265269350E+02 -0.12948756262E+02 -0.48265105405E+02  0.82995642118E+02  0.00000000000E+00 0. -1.
         -2    1    1    2    0  503 -0.25547154411E+02 -0.74346496869E+01 -0.49250177223E+02  0.55977773008E+02  0.00000000000E+00 0.  1.
<mgrwt>
<rscale>  2 0.93270625E+02</rscale>
<asrwt>0</asrwt>
<pdfrwt beam="1">  1       21 0.10523930E-01 0.93270625E+02</pdfrwt>
<pdfrwt beam="2">  1       21 0.25081357E-01 0.93270625E+02</pdfrwt>
<totfact> 0.11101849E+06</totfact>
</mgrwt>
</event>
<event>
 5    1  0.1365600E-001  0.1350974E+03  0.7546771E-02  0.1220082E+00
         21   -1    0    0  503  502  0.00000000000E+00  0.00000000000E+00  0.11126985125E+04  0.11126985125E+04  0.00000000000E+00 0. -1.
         21   -1    0    0  501  503 -0.00000000000E+00 -0.00000000000E+00 -0.20318621056E+02  0.20318621056E+02  0.00000000000E+00 0.  1.
         24    1    1    2    0    0 -0.27131897627E+02  0.41349691598E+02  0.63164869001E+03  0.63866518647E+03  0.80419002446E+02 0. -1.
          1    1    1    2  501    0  0.91409452463E+02  0.12075820142E+02  0.19331006301E+03  0.21417351352E+03  0.00000000000E+00 0. -1.
         -2    1    1    2    0  502 -0.64277554836E+02 -0.53425511741E+02  0.26742113843E+03  0.28017843358E+03  0.00000000000E+00 0.  1.
<mgrwt>
<rscale>  2 0.13509739E+03</rscale>
<asrwt>0</asrwt>
<pdfrwt beam="1">  1       21 0.17118434E+00 0.13509739E+03</pdfrwt>
<pdfrwt beam="2">  1       21 0.31259426E-02 0.13509739E+03</pdfrwt>
<totfact> 0.12739421E+05</totfact>
</mgrwt>
</event>
<event>
 5    1  0.1365600E-001  0.1199090E+03  0.7546771E-02  0.1243247E+00
         21   -1    0    0  503  502  0.00000000000E+00  0.00000000000E+00  0.34629902098E+03  0.34629902098E+03  0.00000000000E+00 0. -1.
         21   -1    0    0  501  503 -0.00000000000E+00 -0.00000000000E+00 -0.53646472821E+02  0.53646472821E+02  0.00000000000E+00 0. -1.
         24    1    1    2    0    0  0.72782129312E+02  0.38088697752E+02  0.21698816811E+03  0.24555868606E+03  0.80419002446E+02 0. -1.
          1    1    1    2  501    0 -0.90207792235E+02 -0.50579815941E+02  0.36379779754E+02  0.10963234895E+03  0.00000000000E+00 0. -1.
         -2    1    1    2    0  502  0.17425662923E+02  0.12491118189E+02  0.39284600290E+02  0.44754458793E+02  0.00000000000E+00 0.  1.
<mgrwt>
<rscale>  2 0.11990896E+03</rscale>
<asrwt>0</asrwt>
<pdfrwt beam="1">  1       21 0.53276771E-01 0.11990896E+03</pdfrwt>
<pdfrwt beam="2">  1       21 0.82533037E-02 0.11990896E+03</pdfrwt>
<totfact> 0.38402477E+05</totfact>
</mgrwt>
</event>
<event>
 5    1  0.1365600E-001  0.7908476E+02  0.7546771E-02  0.1331669E+00
         21   -1    0    0  501  502  0.00000000000E+00  0.00000000000E+00  0.26590088353E+03  0.26590088353E+03  0.00000000000E+00 0.  1.
         21   -1    0    0  502  503 -0.00000000000E+00 -0.00000000000E+00 -0.28967944741E+02  0.28967944741E+02  0.00000000000E+00 0.  1.
         24    1    1    2    0    0  0.23147765467E+02  0.33429673147E+02  0.12713959177E+03  0.15583662549E+03  0.80419002446E+02 0.  1.
          1    1    1    2  501    0  0.72459250373E+01 -0.36771316938E+02  0.10020936286E+03  0.10698854884E+03  0.00000000000E+00 0. -1.
         -2    1    1    2    0  503 -0.30393690504E+02  0.33416437909E+01  0.95839841608E+01  0.32043653944E+02  0.00000000000E+00 0.  1.
<mgrwt>
<rscale>  2 0.79084762E+02</rscale>
<asrwt>0</asrwt>
<pdfrwt beam="1">  1       21 0.40907827E-01 0.79084762E+02</pdfrwt>
<pdfrwt beam="2">  1       21 0.44566071E-02 0.79084762E+02</pdfrwt>
<totfact> 0.18452369E+06</totfact>
</mgrwt>
</event>
<event>
 5    1  0.1365600E-001  0.1862697E+03  0.7546771E-02  0.1161869E+00
         21   -1    0    0  501  502  0.00000000000E+00  0.00000000000E+00  0.18422807870E+03  0.18422807870E+03  0.00000000000E+00 0. -1.
         21   -1    0    0  502  503 -0.00000000000E+00 -0.00000000000E+00 -0.25679034457E+03  0.25679034457E+03  0.00000000000E+00 0.  1.
         24    1    1    2    0    0  0.35693501842E+01  0.64513496758E+02 -0.23510951608E+02  0.10580506757E+03  0.80419002446E+02 0.  1.
          1    1    1    2  501    0 -0.12458863162E+03  0.13617491013E+02  0.74186209894E+02  0.14564119242E+03  0.00000000000E+00 0. -1.
         -2    1    1    2    0  503  0.12101928143E+03 -0.78130987771E+02 -0.12323752416E+03  0.18957216328E+03  0.00000000000E+00 0.  1.
<mgrwt>
<rscale>  2 0.18626972E+03</rscale>
<asrwt>0</asrwt>
<pdfrwt beam="1">  1       21 0.28342781E-01 0.18626972E+03</pdfrwt>
<pdfrwt beam="2">  1       21 0.39506207E-01 0.18626972E+03</pdfrwt>
<totfact> 0.73695203E+04</totfact>
</mgrwt>
</event>
<event>
 5    1  0.1365600E-001  0.7138608E+02  0.7546771E-02  0.1355442E+00
         21   -1    0    0  503  502  0.00000000000E+00  0.00000000000E+00  0.11365654277E+03  0.11365654277E+03  0.00000000000E+00 0.  1.
         21   -1    0    0  501  503 -0.00000000000E+00 -0.00000000000E+00 -0.44190204295E+03  0.44190204295E+03  0.00000000000E+00 0. -1.
         24    1    1    2    0    0 -0.10057001366E+02 -0.16408607214E+02  0.93580710605E+02  0.12487974623E+03  0.80419002446E+02 0.  1.
          1    1    1    2  501    0 -0.16158544335E+02 -0.12961076301E+02 -0.33149702929E+03  0.33214359618E+03  0.00000000000E+00 0. -1.
         -2    1    1    2    0  502  0.26215545701E+02  0.29369683515E+02 -0.90329181493E+02  0.98535243316E+02  0.00000000000E+00 0.  1.
<mgrwt>
<rscale>  2 0.71386076E+02</rscale>
<asrwt>0</asrwt>
<pdfrwt beam="1">  1       21 0.17485622E-01 0.71386076E+02</pdfrwt>
<pdfrwt beam="2">  1       21 0.67984929E-01 0.71386076E+02</pdfrwt>
<totfact> 0.62640380E+04</totfact>
</mgrwt>
</event>
<event>
 5    1  0.1365600E-001  0.1044030E+03  0.7546771E-02  0.1271300E+00
         21   -1    0    0  503  502  0.00000000000E+00  0.00000000000E+00  0.19171810817E+04  0.19171810817E+04  0.00000000000E+00 0. -1.
         21   -1    0    0  501  503 -0.00000000000E+00 -0.00000000000E+00 -0.15821832204E+02  0.15821832204E+02  0.00000000000E+00 0. -1.
         24    1    1    2    0    0  0.62540705821E+02  0.16961386247E+02  0.15807519571E+04  0.15841221525E+04  0.80419002446E+02 0. -1.
          1    1    1    2  501    0 -0.53831494576E+02 -0.48715372794E+02  0.88591731693E+02  0.11454043949E+03  0.00000000000E+00 0. -1.
         -2    1    1    2    0  502 -0.87092112456E+01  0.31753986547E+02  0.23201556079E+03  0.23434032191E+03  0.00000000000E+00 0.  1.
<mgrwt>
<rscale>  2 0.10440298E+03</rscale>
<asrwt>0</asrwt>
<pdfrwt beam="1">  1       21 0.29495075E+00 0.10440298E+03</pdfrwt>
<pdfrwt beam="2">  1       21 0.24341295E-02 0.10440298E+03</pdfrwt>
<totfact> 0.36104818E+04</totfact>
</mgrwt>
</event>
<event>
 5    1  0.1365600E-001  0.1046689E+03  0.7546771E-02  0.1270773E+00
         21   -1    0    0  503  502  0.00000000000E+00  0.00000000000E+00  0.14250585589E+03  0.14250585589E+03  0.00000000000E+00 0.  1.
         21   -1    0    0  501  503 -0.00000000000E+00 -0.00000000000E+00 -0.24962322222E+03  0.24962322222E+03  0.00000000000E+00 0. -1.
         24    1    1    2    0    0 -0.24087306144E+02 -0.71138665730E+02  0.74885372467E+02  0.13310125109E+03  0.80419002446E+02 0.  1.
          1    1    1    2  501    0 -0.20438320878E+02  0.77960988121E+01 -0.18025962198E+03  0.18158203499E+03  0.00000000000E+00 0. -1.
         -2    1    1    2    0  502  0.44525627023E+02  0.63342566918E+02 -0.17431168277E+01  0.77445792022E+02  0.00000000000E+00 0.  1.
<mgrwt>
<rscale>  2 0.10466892E+03</rscale>
<asrwt>0</asrwt>
<pdfrwt beam="1">  1       21 0.21923978E-01 0.10466892E+03</pdfrwt>
<pdfrwt beam="2">  1       21 0.38403572E-01 0.10466892E+03</pdfrwt>
<totfact> 0.13104475E+05</totfact>
</mgrwt>
</event>
<event>
 5    1  0.1365600E-001  0.1562948E+03  0.7546771E-02  0.1192945E+00
         21   -1    0    0  503  502  0.00000000000E+00  0.00000000000E+00  0.25064781232E+03  0.25064781232E+03  0.00000000000E+00 0. -1.
         21   -1    0    0  501  503 -0.00000000000E+00 -0.00000000000E+00 -0.34002641274E+03  0.34002641274E+03  0.00000000000E+00 0. -1.
         24    1    1    2    0    0 -0.73394548690E+02 -0.11404116934E+03  0.17717082307E+03  0.23716843083E+03  0.80419002446E+02 0. -1.
          1    1    1    2  501    0 -0.15618947346E+02  0.13570380064E+02 -0.20464539727E+03  0.20568870984E+03  0.00000000000E+00 0. -1.
         -2    1    1    2    0  502  0.89013496036E+02  0.10047078927E+03 -0.61904026228E+02  0.14781708439E+03  0.00000000000E+00 0.  1.
<mgrwt>
<rscale>  2 0.15629480E+03</rscale>
<asrwt>0</asrwt>
<pdfrwt beam="1">  1       21 0.38561202E-01 0.15629480E+03</pdfrwt>
<pdfrwt beam="2">  1       21 0.52311755E-01 0.15629480E+03</pdfrwt>
<totfact> 0.22981738E+04</totfact>
</mgrwt>
</event>
<event>
 5    1  0.1365600E-001  0.1430633E+03  0.7546771E-02  0.1209266E+00
         21   -1    0    0  501  502  0.00000000000E+00  0.00000000000E+00  0.57081559041E+02  0.57081559041E+02  0.00000000000E+00 0. -1.
         21   -1    0    0  502  503 -0.00000000000E+00 -0.00000000000E+00 -0.39536948214E+03  0.39536948214E+03  0.00000000000E+00 0.  1.
         24    1    1    2    0    0 -0.66913494786E+02 -0.42432356946E+02 -0.80038929948E+02  0.13838846398E+03  0.80419002446E+02 0. -1.
          1    1    1    2  501    0 -0.13677255097E+02 -0.49279538696E+02 -0.43983701995E+02  0.67454475628E+02  0.00000000000E+00 0. -1.
         -2    1    1    2    0  503  0.80590749883E+02  0.91711895641E+02 -0.21426529115E+03  0.24660810157E+03  0.00000000000E+00 0.  1.
<mgrwt>
<rscale>  2 0.14306330E+03</rscale>
<asrwt>0</asrwt>
<pdfrwt beam="1">  1       21 0.87817781E-02 0.14306330E+03</pdfrwt>
<pdfrwt beam="2">  1       21 0.60826075E-01 0.14306330E+03</pdfrwt>
<totfact> 0.25979562E+05</totfact>
</mgrwt>
</event>
<event>
 5    1  0.1365600E-001  0.9518666E+02  0.7546771E-02  0.1290756E+00
         21   -1    0    0  501  502  0.00000000000E+00  0.00000000000E+00  0.45938638182E+02  0.45938638182E+02  0.00000000000E+00 0.  1.
         21   -1    0    0  502  503 -0.00000000000E+00 -0.00000000000E+00 -0.32406158679E+03  0.32406158679E+03  0.00000000000E+00 0. -1.
         24    1    1    2    0    0 -0.22789475625E+02  0.34337234389E+02 -0.19127099789E+02  0.92365944836E+02  0.80419002446E+02 0.  1.
          1    1    1    2  501    0  0.55547598025E+02 -0.37618929269E+02 -0.17401379668E+03  0.18649804535E+03  0.00000000000E+00 0. -1.
         -2    1    1    2    0  503 -0.32758122400E+02  0.32816948798E+01 -0.84982052141E+02  0.91136234784E+02  0.00000000000E+00 0.  1.
<mgrwt>
<rscale>  2 0.95186662E+02</rscale>
<asrwt>0</asrwt>
<pdfrwt beam="1">  1       21 0.70674827E-02 0.95186662E+02</pdfrwt>
<pdfrwt beam="2">  1       21 0.49855629E-01 0.95186662E+02</pdfrwt>
<totfact> 0.57533766E+05</totfact>
</mgrwt>
</event>
<event>
 5    1  0.1365600E-001  0.1169851E+03  0.7546771E-02  0.1248155E+00
         21   -1    0    0  503  502  0.00000000000E+00  0.00000000000E+00  0.26507995415E+03  0.26507995415E+03  0.00000000000E+00 0. -1.
         21   -1    0    0  501  503 -0.00000000000E+00 -0.00000000000E+00 -0.75339365508E+02  0.75339365508E+02  0.00000000000E+00 0. -1.
         24    1    1    2    0    0 -0.78807092326E+02 -0.36476834700E+02  0.16660326213E+03  0.20436482128E+03  0.80419002446E+02 0. -1.
          1    1    1    2  501    0  0.28285680087E+02 -0.23798326508E+02 -0.24272444969E+02  0.44222071721E+02  0.00000000000E+00 0. -1.
         -2    1    1    2    0  502  0.50521412239E+02  0.60275161207E+02  0.47409771475E+02  0.91832426651E+02  0.00000000000E+00 0.  1.
<mgrwt>
<rscale>  2 0.11698510E+03</rscale>
<asrwt>0</asrwt>
<pdfrwt beam="1">  1       21 0.40781531E-01 0.11698510E+03</pdfrwt>
<pdfrwt beam="2">  1       21 0.11590672E-01 0.11698510E+03</pdfrwt>
<totfact> 0.36644694E+05</totfact>
</mgrwt>
</event>
<event>
 5    1  0.1365600E-001  0.1664253E+03  0.7546771E-02  0.1181628E+00
         21   -1    0    0  503  502  0.00000000000E+00  0.00000000000E+00  0.96435395147E+02  0.96435395147E+02  0.00000000000E+00 0. -1.
         21   -1    0    0  501  503 -0.00000000000E+00 -0.00000000000E+00 -0.30496187646E+03  0.30496187646E+03  0.00000000000E+00 0.  1.
         24    1    1    2    0    0 -0.55790700511E+02 -0.78530241667E+02 -0.34802430667E+02  0.13022298666E+03  0.80419002446E+02 0.  0.
          1    1    1    2  501    0  0.87335374948E+02  0.12421642939E+03 -0.11599702984E+03  0.19108244288E+03  0.00000000000E+00 0. -1.
         -2    1    1    2    0  502 -0.31544674437E+02 -0.45686187720E+02 -0.57727020802E+02  0.80091842059E+02  0.00000000000E+00 0.  1.
<mgrwt>
<rscale>  2 0.16642534E+03</rscale>
<asrwt>0</asrwt>
<pdfrwt beam="1">  1       21 0.14836214E-01 0.16642534E+03</pdfrwt>
<pdfrwt beam="2">  1       21 0.46917212E-01 0.16642534E+03</pdfrwt>
<totfact> 0.17545970E+05</totfact>
</mgrwt>
</event>
<event>
 5    1  0.1365600E-001  0.1369713E+03  0.7546771E-02  0.1217463E+00
         21   -1    0    0  503  502  0.00000000000E+00  0.00000000000E+00  0.30170744179E+02  0.30170744179E+02  0.00000000000E+00 0.  1.
         21   -1    0    0  501  503 -0.00000000000E+00 -0.00000000000E+00 -0.11701546323E+04  0.11701546323E+04  0.00000000000E+00 0. -1.
         24    1    1    2    0    0  0.36718014712E+02  0.18173224154E+02 -0.71510195505E+02  0.11514947979E+03  0.80419002446E+02 0.  1.
          1    1    1    2  501    0  0.72686688680E+02 -0.15115314955E+02 -0.57091044644E+03  0.57571743530E+03  0.00000000000E+00 0. -1.
         -2    1    1    2    0  502 -0.10940470339E+03 -0.30579091990E+01 -0.49756324618E+03  0.50945846139E+03  0.00000000000E+00 0.  1.
<mgrwt>
<rscale>  2 0.13697131E+03</rscale>
<asrwt>0</asrwt>
<pdfrwt beam="1">  1       21 0.46416536E-02 0.13697131E+03</pdfrwt>
<pdfrwt beam="2">  1       21 0.18002377E+00 0.13697131E+03</pdfrwt>
<totfact> 0.57494345E+04</totfact>
</mgrwt>
</event>
<event>
 5    1  0.1382506E-001  0.1142166E+03  0.7546771E-02  0.1252955E+00
         21   -1    0    0  501  502  0.00000000000E+00  0.00000000000E+00  0.56094900088E+02  0.56094900088E+02  0.00000000000E+00 0. -1.
         21   -1    0    0  502  503 -0.00000000000E+00 -0.00000000000E+00 -0.25154697566E+03  0.25154697566E+03  0.00000000000E+00 0.  1.
         24    1    1    2    0    0 -0.22061740138E+01 -0.18306778101E+02 -0.36074500972E+02  0.90047714591E+02  0.80419002446E+02 0. -1.
          1    1    1    2  501    0 -0.36123345307E+01  0.81944503917E+02 -0.70689656416E+02  0.10828193851E+03  0.00000000000E+00 0. -1.
         -2    1    1    2    0  503  0.58185085445E+01 -0.63637725815E+02 -0.88687918185E+02  0.10931222265E+03  0.00000000000E+00 0.  1.
<mgrwt>
<rscale>  2 0.11421657E+03</rscale>
<asrwt>0</asrwt>
<pdfrwt beam="1">  1       21 0.86299846E-02 0.11421657E+03</pdfrwt>
<pdfrwt beam="2">  1       21 0.38699535E-01 0.11421657E+03</pdfrwt>
<totfact> 0.68059823E+05</totfact>
</mgrwt>
</event>
<event>
 5    1  0.1365600E-001  0.1401772E+03  0.7546771E-02  0.1213091E+00
         21   -1    0    0  503  502  0.00000000000E+00  0.00000000000E+00  0.50127232392E+03  0.50127232392E+03  0.00000000000E+00 0.  1.
         21   -1    0    0  501  503 -0.00000000000E+00 -0.00000000000E+00 -0.39290525873E+02  0.39290525873E+02  0.00000000000E+00 0. -1.
         24    1    1    2    0    0  0.50779805740E+02  0.69757478147E+02  0.18474202431E+03  0.21918377205E+03  0.80419002446E+02 0. -1.
          1    1    1    2  501    0  0.47712493446E+02 -0.28844713594E+02  0.88815365859E+02  0.10486500248E+03  0.00000000000E+00 0. -1.
         -2    1    1    2    0  502 -0.98492299186E+02 -0.40912764553E+02  0.18842440787E+03  0.21651407526E+03  0.00000000000E+00 0.  1.
<mgrwt>
<rscale>  2 0.14017720E+03</rscale>
<asrwt>0</asrwt>
<pdfrwt beam="1">  1       21 0.77118815E-01 0.14017720E+03</pdfrwt>
<pdfrwt beam="2">  1       21 0.60446966E-02 0.14017720E+03</pdfrwt>
<totfact> 0.29456342E+05</totfact>
</mgrwt>
</event>
<event>
 5    1  0.1365600E-001  0.2028311E+03  0.7546771E-02  0.1147372E+00
         21   -1    0    0  503  502  0.00000000000E+00  0.00000000000E+00  0.10565341484E+03  0.10565341484E+03  0.00000000000E+00 0.  1.
         21   -1    0    0  501  503 -0.00000000000E+00 -0.00000000000E+00 -0.74987818344E+03  0.74987818344E+03  0.00000000000E+00 0. -1.
         24    1    1    2    0    0 -0.95481776765E+02 -0.90492041272E+02 -0.14081893631E+01  0.15419072015E+03  0.80419002446E+02 0.  1.
          1    1    1    2  501    0 -0.66488994326E+02  0.53489569754E+02 -0.38707407431E+03  0.39636884267E+03  0.00000000000E+00 0. -1.
         -2    1    1    2    0  502  0.16197077109E+03  0.37002471517E+02 -0.25574250493E+03  0.30497203546E+03  0.00000000000E+00 0.  1.
<mgrwt>
<rscale>  2 0.20283106E+03</rscale>
<asrwt>0</asrwt>
<pdfrwt beam="1">  1       21 0.16254371E-01 0.20283106E+03</pdfrwt>
<pdfrwt beam="2">  1       21 0.11536588E+00 0.20283106E+03</pdfrwt>
<totfact> 0.19579109E+04</totfact>
</mgrwt>
</event>
<event>
 5    1  0.1365600E-001  0.1895626E+03  0.7546771E-02  0.1158856E+00
         21   -1    0    0  501  502  0.00000000000E+00  0.00000000000E+00  0.20780443104E+03  0.20780443104E+03  0.00000000000E+00 0. -1.
         21   -1    0    0  502  503 -0.00000000000E+00 -0.00000000000E+00 -0.30855860076E+03  0.30855860076E+03  0.00000000000E+00 0.  1.
         24    1    1    2    0    0 -0.97817868394E+02  0.90076237954E+01  0.12358058863E+03  0.17716898855E+03  0.80419002446E+02 0. -1.
          1    1    1    2  501    0 -0.55445193620E+02  0.62072807767E+02 -0.53564915072E+02  0.98976780541E+02  0.00000000000E+00 0. -1.
         -2    1    1    2    0  503  0.15326306201E+03 -0.71080431562E+02 -0.17076984328E+03  0.24021726271E+03  0.00000000000E+00 0.  1.
<mgrwt>
<rscale>  2 0.18956255E+03</rscale>
<asrwt>0</asrwt>
<pdfrwt beam="1">  1       21 0.31969913E-01 0.18956255E+03</pdfrwt>
<pdfrwt beam="2">  1       21 0.47470553E-01 0.18956255E+03</pdfrwt>
<totfact> 0.39999546E+04</totfact>
</mgrwt>
</event>
<event>
 5    1  0.1365600E-001  0.1576939E+03  0.7546771E-02  0.1191325E+00
         21   -1    0    0  501  502  0.00000000000E+00  0.00000000000E+00  0.26690332200E+03  0.26690332200E+03  0.00000000000E+00 0. -1.
         21   -1    0    0  502  503 -0.00000000000E+00 -0.00000000000E+00 -0.47184729150E+03  0.47184729150E+03  0.00000000000E+00 0.  1.
         24    1    1    2    0    0  0.81689778506E+02 -0.11353124689E+03  0.12451387700E+03  0.20379765812E+03  0.80419002446E+02 0. -1.
          1    1    1    2  501    0 -0.28090330945E+02  0.92162584200E+02  0.77670024969E+02  0.12375637922E+03  0.00000000000E+00 0. -1.
         -2    1    1    2    0  503 -0.53599447561E+02  0.21368662694E+02 -0.40712787147E+03  0.41119657617E+03  0.00000000000E+00 0.  1.
<mgrwt>
<rscale>  2 0.15769392E+03</rscale>
<asrwt>0</asrwt>
<pdfrwt beam="1">  1       21 0.41062050E-01 0.15769392E+03</pdfrwt>
<pdfrwt beam="2">  1       21 0.72591890E-01 0.15769392E+03</pdfrwt>
<totfact> 0.10020184E+04</totfact>
</mgrwt>
</event>
<event>
 5    1  0.1365600E-001  0.9224218E+02  0.7546771E-02  0.1297511E+00
         21   -1    0    0  501  502  0.00000000000E+00  0.00000000000E+00  0.31756735766E+02  0.31756735766E+02  0.00000000000E+00 0.  1.
         21   -1    0    0  502  503 -0.00000000000E+00 -0.00000000000E+00 -0.39120896874E+03  0.39120896874E+03  0.00000000000E+00 0. -1.
         24    1    1    2    0    0  0.97981113965E+01 -0.48680299144E+02 -0.65856441333E+02  0.11519575223E+03  0.80419002446E+02 0.  1.
          1    1    1    2  501    0 -0.41896584474E+02  0.36735469359E+02 -0.14648064625E+03  0.15672076513E+03  0.00000000000E+00 0. -1.
         -2    1    1    2    0  503  0.32098473077E+02  0.11944829785E+02 -0.14711514539E+03  0.15104918714E+03  0.00000000000E+00 0.  1.
<mgrwt>
<rscale>  2 0.92242176E+02</rscale>
<asrwt>0</asrwt>
<pdfrwt beam="1">  1       21 0.48856521E-02 0.92242176E+02</pdfrwt>
<pdfrwt beam="2">  1       21 0.60185990E-01 0.92242176E+02</pdfrwt>
<totfact> 0.72404338E+05</totfact>
</mgrwt>
</event>
<event>
 5    1  0.1365600E-001  0.1249898E+03  0.7546771E-02  0.1235085E+00
         21   -1    0    0  503  502  0.00000000000E+00  0.00000000000E+00  0.82023255198E+02  0.82023255198E+02  0.00000000000E+00 0.  1.
         21   -1    0    0  501  503 -0.00000000000E+00 -0.00000000000E+00 -0.36556172418E+03  0.36556172418E+03  0.00000000000E+00 0. -1.
         24    1    1    2    0    0 -0.10123414691E+02 -0.45543431209E+02 -0.89400927593E+01  0.93401439305E+02  0.80419002446E+02 0.  1.
          1    1    1    2  501    0  0.66540175471E+02 -0.20991909959E+02 -0.25553671109E+03  0.26489104543E+03  0.00000000000E+00 0. -1.
         -2    1    1    2    0  502 -0.56416760781E+02  0.66535341168E+02 -0.19061665131E+02  0.89292494640E+02  0.00000000000E+00 0.  1.
<mgrwt>
<rscale>  2 0.12498983E+03</rscale>
<asrwt>0</asrwt>
<pdfrwt beam="1">  1       21 0.12618962E-01 0.12498983E+03</pdfrwt>
<pdfrwt beam="2">  1       21 0.56240266E-01 0.12498983E+03</pdfrwt>
<totfact> 0.16297508E+05</totfact>
</mgrwt>
</event>
<event>
 5    1  0.1365600E-001  0.1155545E+03  0.7546771E-02  0.1250616E+00
         21   -1    0    0  501  502  0.00000000000E+00  0.00000000000E+00  0.26348773829E+02  0.26348773829E+02  0.00000000000E+00 0.  1.
         21   -1    0    0  502  503 -0.00000000000E+00 -0.00000000000E+00 -0.23530800299E+04  0.23530800299E+04  0.00000000000E+00 0.  1.
         24    1    1    2    0    0 -0.69827456280E+02 -0.69612973504E+02 -0.13681502891E+03  0.18683524245E+03  0.80419002446E+02 0.  1.
          1    1    1    2  501    0  0.53256222498E+01  0.24717244331E+02 -0.30757815978E+03  0.30861566518E+03  0.00000000000E+00 0. -1.
         -2    1    1    2    0  503  0.64501834030E+02  0.44895729173E+02 -0.18823380673E+04  0.18839778961E+04  0.00000000000E+00 0.  1.
<mgrwt>
<rscale>  2 0.11555447E+03</rscale>
<asrwt>0</asrwt>
<pdfrwt beam="1">  1       21 0.40536576E-02 0.11555447E+03</pdfrwt>
<pdfrwt beam="2">  1       21 0.36201230E+00 0.11555447E+03</pdfrwt>
<totfact> 0.64290928E+03</totfact>
</mgrwt>
</event>
<event>
 5    1  0.1365600E-001  0.1332997E+03  0.7546771E-02  0.1222640E+00
         21   -1    0    0  503  502  0.00000000000E+00  0.00000000000E+00  0.14533585818E+02  0.14533585818E+02  0.00000000000E+00 0. -1.
         21   -1    0    0  501  503 -0.00000000000E+00 -0.00000000000E+00 -0.14875404397E+04  0.14875404397E+04  0.00000000000E+00 0.  1.
         24    1    1    2    0    0 -0.39615811920E+02  0.17541591663E+02 -0.28165219172E+03  0.29609507434E+03  0.80419002446E+02 0.  1.
          1    1    1    2  501    0  0.72869798482E+02 -0.77694238814E+02 -0.91612637066E+03  0.92229817808E+03  0.00000000000E+00 0. -1.
         -2    1    1    2    0  502 -0.33253986562E+02  0.60152647151E+02 -0.27522829146E+03  0.28368077305E+03  0.00000000000E+00 0.  1.
<mgrwt>
<rscale>  2 0.13329971E+03</rscale>
<asrwt>0</asrwt>
<pdfrwt beam="1">  1       21 0.22359376E-02 0.13329971E+03</pdfrwt>
<pdfrwt beam="2">  1       21 0.22885224E+00 0.13329971E+03</pdfrwt>
<totfact> 0.95058010E+04</totfact>
</mgrwt>
</event>
<event>
 5    1  0.1365600E-001  0.1091407E+03  0.7546771E-02  0.1262169E+00
         21   -1    0    0  501  502  0.00000000000E+00  0.00000000000E+00  0.97002933065E+03  0.97002933065E+03  0.00000000000E+00 0. -1.
         21   -1    0    0  502  503 -0.00000000000E+00 -0.00000000000E+00 -0.34161439021E+02  0.34161439021E+02  0.00000000000E+00 0.  1.
         24    1    1    2    0    0 -0.73014294296E+02 -0.45878533873E+02  0.20202831390E+03  0.23392003466E+03  0.80419002446E+02 0. -1.
          1    1    1    2  501    0  0.50557615516E+02  0.56251967868E+02  0.74073862008E+03  0.74458986003E+03  0.00000000000E+00 0. -1.
         -2    1    1    2    0  503  0.22456678780E+02 -0.10373433995E+02 -0.68990423539E+01  0.25680874987E+02  0.00000000000E+00 0.  1.
<mgrwt>
<rscale>  2 0.10914073E+03</rscale>
<asrwt>0</asrwt>
<pdfrwt beam="1">  1       21 0.14923526E+00 0.10914073E+03</pdfrwt>
<pdfrwt beam="2">  1       21 0.52556067E-02 0.10914073E+03</pdfrwt>
<totfact> 0.78469517E+04</totfact>
</mgrwt>
</event>
<event>
 5    1  0.1365600E-001  0.9034048E+02  0.7546771E-02  0.1302029E+00
         21   -1    0    0  501  502  0.00000000000E+00  0.00000000000E+00  0.35972385272E+03  0.35972385272E+03  0.00000000000E+00 0.  1.
         21   -1    0    0  502  503 -0.00000000000E+00 -0.00000000000E+00 -0.23957411323E+02  0.23957411323E+02  0.00000000000E+00 0. -1.
         24    1    1    2    0    0 -0.48776875085E+02  0.32049956332E+02  0.22086841770E+03  0.24219095181E+03  0.80419002446E+02 0.  1.
          1    1    1    2  501    0  0.58928499379E+02 -0.13941630943E+02  0.95485878093E+02  0.11306851917E+03  0.00000000000E+00 0. -1.
         -2    1    1    2    0  503 -0.10151624294E+02 -0.18108325388E+02  0.19412145602E+02  0.28421793065E+02  0.00000000000E+00 0.  1.
<mgrwt>
<rscale>  2 0.90340485E+02</rscale>
<asrwt>0</asrwt>
<pdfrwt beam="1">  1       21 0.55342127E-01 0.90340485E+02</pdfrwt>
<pdfrwt beam="2">  1       21 0.36857559E-02 0.90340485E+02</pdfrwt>
<totfact> 0.13737034E+06</totfact>
</mgrwt>
</event>
<event>
 5    1  0.1365600E-001  0.7028688E+02  0.7546771E-02  0.1359120E+00
         21   -1    0    0  501  502  0.00000000000E+00  0.00000000000E+00  0.15964948305E+02  0.15964948305E+02  0.00000000000E+00 0.  1.
         21   -1    0    0  502  503 -0.00000000000E+00 -0.00000000000E+00 -0.33445676926E+03  0.33445676926E+03  0.00000000000E+00 0. -1.
         24    1    1    2    0    0 -0.18628653224E+02 -0.10339935127E+02 -0.13996446896E+03  0.16282263204E+03  0.80419002446E+02 0.  1.
          1    1    1    2  501    0  0.30160210445E+02 -0.11824641190E+02 -0.10936923470E+03  0.11406616471E+03  0.00000000000E+00 0. -1.
         -2    1    1    2    0  503 -0.11531557220E+02  0.22164576317E+02 -0.69158117296E+02  0.73532920812E+02  0.00000000000E+00 0.  1.
<mgrwt>
<rscale>  2 0.70286884E+02</rscale>
<asrwt>0</asrwt>
<pdfrwt beam="1">  1       21 0.24561458E-02 0.70286884E+02</pdfrwt>
<pdfrwt beam="2">  1       21 0.51454889E-01 0.70286884E+02</pdfrwt>
<totfact> 0.30490066E+06</totfact>
</mgrwt>
</event>
<event>
 5    1  0.1365600E-001  0.1977169E+03  0.7546771E-02  0.1151680E+00
         21   -1    0    0  503  502  0.00000000000E+00  0.00000000000E+00  0.37506449555E+03  0.37506449555E+03  0.00000000000E+00 0.  1.
         21   -1    0    0  501  503 -0.00000000000E+00 -0.00000000000E+00 -0.19115968042E+03  0.19115968042E+03  0.00000000000E+00 0. -1.
         24    1    1    2    0    0  0.87418637642E+02  0.65092074299E+02  0.20707461266E+03  0.24743909858E+03  0.80419002446E+02 0.  1.
          1    1    1    2  501    0  0.44237347623E+02  0.62550000550E+02 -0.94826907926E+02  0.12190811278E+03  0.00000000000E+00 0. -1.
         -2    1    1    2    0  502 -0.13165598527E+03 -0.12764207485E+03  0.71657110394E+02  0.19687696462E+03  0.00000000000E+00 0.  1.
<mgrwt>
<rscale>  2 0.19771694E+03</rscale>
<asrwt>0</asrwt>
<pdfrwt beam="1">  1       21 0.57702230E-01 0.19771694E+03</pdfrwt>
<pdfrwt beam="2">  1       21 0.29409182E-01 0.19771694E+03</pdfrwt>
<totfact> 0.31118330E+04</totfact>
</mgrwt>
</event>
<event>
 5    1  0.1365600E-001  0.1216374E+03  0.7546771E-02  0.1240420E+00
         21   -1    0    0  503  502  0.00000000000E+00  0.00000000000E+00  0.22362170547E+03  0.22362170547E+03  0.00000000000E+00 0.  1.
         21   -1    0    0  501  503 -0.00000000000E+00 -0.00000000000E+00 -0.83074499126E+02  0.83074499126E+02  0.00000000000E+00 0.  1.
         24    1    1    2    0    0 -0.59494424883E+02  0.28617235375E+02  0.11157285530E+03  0.15255900743E+03  0.80419002446E+02 0.  1.
          1    1    1    2  501    0  0.26176677655E+01  0.45626795276E+02 -0.18436560149E+02  0.49280456388E+02  0.00000000000E+00 0. -1.
         -2    1    1    2    0  502  0.56876757117E+02 -0.74244030651E+02  0.47410911196E+02  0.10485674078E+03  0.00000000000E+00 0.  1.
<mgrwt>
<rscale>  2 0.12163742E+03</rscale>
<asrwt>0</asrwt>
<pdfrwt beam="1">  1       21 0.34403339E-01 0.12163742E+03</pdfrwt>
<pdfrwt beam="2">  1       21 0.12780692E-01 0.12163742E+03</pdfrwt>
<totfact> 0.43121367E+05</totfact>
</mgrwt>
</event>
<event>
 5    1  0.1365600E-001  0.1175280E+03  0.7546771E-02  0.1247232E+00
         21   -1    0    0  501  502  0.00000000000E+00  0.00000000000E+00  0.53565581830E+03  0.53565581830E+03  0.00000000000E+00 0. -1.
         21   -1    0    0  502  503 -0.00000000000E+00 -0.00000000000E+00 -0.28702602883E+02  0.28702602883E+02  0.00000000000E+00 0. -1.
         24    1    1    2    0    0 -0.21628465892E+02 -0.35164601629E+02  0.25831297196E+03  0.27367343164E+03  0.80419002446E+02 0. -1.
          1    1    1    2  501    0  0.24555489275E+01  0.88215775980E+02  0.18903017493E+03  0.20861557920E+03  0.00000000000E+00 0. -1.
         -2    1    1    2    0  503  0.19172916965E+02 -0.53051174351E+02  0.59610068531E+02  0.82069410350E+02  0.00000000000E+00 0.  1.
<mgrwt>
<rscale>  2 0.11752803E+03</rscale>
<asrwt>0</asrwt>
<pdfrwt beam="1">  1       21 0.82408580E-01 0.11752803E+03</pdfrwt>
<pdfrwt beam="2">  1       21 0.44157854E-02 0.11752803E+03</pdfrwt>
<totfact> 0.43258051E+05</totfact>
</mgrwt>
</event>
<event>
 5    1  0.1365600E-001  0.1323915E+03  0.7546771E-02  0.1223950E+00
         21   -1    0    0  501  502  0.00000000000E+00  0.00000000000E+00  0.93888647710E+03  0.93888647710E+03  0.00000000000E+00 0. -1.
         21   -1    0    0  502  503 -0.00000000000E+00 -0.00000000000E+00 -0.20156297777E+02  0.20156297777E+02  0.00000000000E+00 0.  1.
         24    1    1    2    0    0  0.17875411873E+02 -0.80167563030E+02  0.52974907561E+03  0.54207717862E+03  0.80419002446E+02 0. -1.
          1    1    1    2  501    0  0.48342112298E+02  0.66508180195E+02  0.22746803069E+03  0.24187187278E+03  0.00000000000E+00 0. -1.
         -2    1    1    2    0  503 -0.66217524172E+02  0.13659382835E+02  0.16151307302E+03  0.17509372349E+03  0.00000000000E+00 0.  1.
<mgrwt>
<rscale>  2 0.13239153E+03</rscale>
<asrwt>0</asrwt>
<pdfrwt beam="1">  1       21 0.14444404E+00 0.13239153E+03</pdfrwt>
<pdfrwt beam="2">  1       21 0.31009696E-02 0.13239153E+03</pdfrwt>
<totfact> 0.20229718E+05</totfact>
</mgrwt>
</event>
<event>
 5    1  0.1365600E-001  0.8460269E+02  0.7546771E-02  0.1316475E+00
         21   -1    0    0  501  502  0.00000000000E+00  0.00000000000E+00  0.15545076382E+03  0.15545076382E+03  0.00000000000E+00 0.  1.
         21   -1    0    0  502  503 -0.00000000000E+00 -0.00000000000E+00 -0.17666146043E+03  0.17666146043E+03  0.00000000000E+00 0.  1.
         24    1    1    2    0    0  0.51850621638E+02 -0.71487932873E+01  0.13116882381E+03  0.16251790210E+03  0.80419002446E+02 0.  1.
          1    1    1    2  501    0 -0.32115974253E+01  0.22128059874E+02 -0.33475087270E+02  0.40256016439E+02  0.00000000000E+00 0. -1.
         -2    1    1    2    0  503 -0.48639024213E+02 -0.14979266586E+02 -0.11890443314E+03  0.12933830571E+03  0.00000000000E+00 0.  1.
<mgrwt>
<rscale>  2 0.84602685E+02</rscale>
<asrwt>0</asrwt>
<pdfrwt beam="1">  1       21 0.23915502E-01 0.84602685E+02</pdfrwt>
<pdfrwt beam="2">  1       21 0.27178686E-01 0.84602685E+02</pdfrwt>
<totfact> 0.21875066E+05</totfact>
</mgrwt>
</event>
<event>
 5    1  0.1365600E-001  0.1590023E+03  0.7546771E-02  0.1189828E+00
         21   -1    0    0  501  502  0.00000000000E+00  0.00000000000E+00  0.90373196621E+03  0.90373196621E+03  0.00000000000E+00 0. -1.
         21   -1    0    0  502  503 -0.00000000000E+00 -0.00000000000E+00 -0.28864660036E+02  0.28864660036E+02  0.00000000000E+00 0. -1.
         24    1    1    2    0    0  0.38364527511E+02 -0.12117915346E+03  0.44663428345E+03  0.47128083274E+03  0.80419002446E+02 0. -1.
          1    1    1    2  501    0 -0.56974014502E+02  0.13358549772E+03  0.39829517176E+03  0.42394594865E+03  0.00000000000E+00 0. -1.
         -2    1    1    2    0  503  0.18609486991E+02 -0.12406344261E+02  0.29937850966E+02  0.37369844854E+02  0.00000000000E+00 0.  1.
<mgrwt>
<rscale>  2 0.15900228E+03</rscale>
<asrwt>0</asrwt>
<pdfrwt beam="1">  1       21 0.13903567E+00 0.15900228E+03</pdfrwt>
<pdfrwt beam="2">  1       21 0.44407176E-02 0.15900228E+03</pdfrwt>
<totfact> 0.12158090E+05</totfact>
</mgrwt>
</event>
<event>
 5    1  0.1365600E-001  0.1608492E+03  0.7546771E-02  0.1187741E+00
         21   -1    0    0  503  502  0.00000000000E+00  0.00000000000E+00  0.42042923411E+03  0.42042923411E+03  0.00000000000E+00 0. -1.
         21   -1    0    0  501  503 -0.00000000000E+00 -0.00000000000E+00 -0.62306758127E+02  0.62306758127E+02  0.00000000000E+00 0. -1.
         24    1    1    2    0    0  0.11309833727E+02  0.14061756084E+03  0.19344122220E+03  0.25256273114E+03  0.80419002446E+02 0. -1.
          1    1    1    2  501    0 -0.32679674528E+02 -0.13247496195E+03  0.15103971681E+03  0.20354501400E+03  0.00000000000E+00 0. -1.
         -2    1    1    2    0  502  0.21369840801E+02 -0.81425988917E+01  0.13641536969E+02  0.26628247097E+02  0.00000000000E+00 0.  1.
<mgrwt>
<rscale>  2 0.16084920E+03</rscale>
<asrwt>0</asrwt>
<pdfrwt beam="1">  1       21 0.64681419E-01 0.16084920E+03</pdfrwt>
<pdfrwt beam="2">  1       21 0.95856554E-02 0.16084920E+03</pdfrwt>
<totfact> 0.19453371E+05</totfact>
</mgrwt>
</event>
<event>
 5    1  0.1365600E-001  0.9753903E+02  0.7546771E-02  0.1285558E+00
         21   -1    0    0  503  502  0.00000000000E+00  0.00000000000E+00  0.33474175619E+03  0.33474175619E+03  0.00000000000E+00 0.  1.
         21   -1    0    0  501  503 -0.00000000000E+00 -0.00000000000E+00 -0.10286810673E+03  0.10286810673E+03  0.00000000000E+00 0. -1.
         24    1    1    2    0    0 -0.33203799986E+02  0.39860679099E+02  0.30069622512E+03  0.31555792151E+03  0.80419002446E+02 0.  1.
          1    1    1    2  501    0  0.51126005549E+02 -0.55594506726E+02 -0.60569186075E+02  0.96815514889E+02  0.00000000000E+00 0. -1.
         -2    1    1    2    0  502 -0.17922205562E+02  0.15733827627E+02 -0.82533895820E+01  0.25236426522E+02  0.00000000000E+00 0.  1.
<mgrwt>
<rscale>  2 0.97539032E+02</rscale>
<asrwt>0</asrwt>
<pdfrwt beam="1">  1       21 0.51498731E-01 0.97539032E+02</pdfrwt>
<pdfrwt beam="2">  1       21 0.15825863E-01 0.97539032E+02</pdfrwt>
<totfact> 0.13189336E+05</totfact>
</mgrwt>
</event>
<event>
 5    1  0.1365600E-001  0.1032911E+03  0.7546771E-02  0.1273523E+00
         21   -1    0    0  501  502  0.00000000000E+00  0.00000000000E+00  0.37824338266E+03  0.37824338266E+03  0.00000000000E+00 0.  1.
         21   -1    0    0  502  503 -0.00000000000E+00 -0.00000000000E+00 -0.15259358953E+03  0.15259358953E+03  0.00000000000E+00 0. -1.
         24    1    1    2    0    0  0.58063417240E+02  0.33570686059E+01  0.34967334564E+03  0.36348493083E+03  0.80419002446E+02 0.  1.
          1    1    1    2  501    0 -0.30732667618E+02 -0.46813169176E+02 -0.39749164568E+02  0.68672889491E+02  0.00000000000E+00 0. -1.
         -2    1    1    2    0  503 -0.27330749622E+02  0.43456100570E+02 -0.84274387946E+02  0.98679151878E+02  0.00000000000E+00 0.  1.
<mgrwt>
<rscale>  2 0.10329115E+03</rscale>
<asrwt>0</asrwt>
<pdfrwt beam="1">  1       21 0.58191289E-01 0.10329115E+03</pdfrwt>
<pdfrwt beam="2">  1       21 0.23475937E-01 0.10329115E+03</pdfrwt>
<totfact> 0.49565278E+04</totfact>
</mgrwt>
</event>
<event>
 5    1  0.1365600E-001  0.9243373E+02  0.7546771E-02  0.1297063E+00
         21   -1    0    0  501  502  0.00000000000E+00  0.00000000000E+00  0.17278732117E+03  0.17278732117E+03  0.00000000000E+00 0.  1.
         21   -1    0    0  502  503 -0.00000000000E+00 -0.00000000000E+00 -0.90981566595E+02  0.90981566595E+02  0.00000000000E+00 0.  1.
         24    1    1    2    0    0  0.41320858947E+01  0.58487345128E+02  0.12730107501E+03  0.16158781924E+03  0.80419002446E+02 0.  1.
          1    1    1    2  501    0  0.28048057648E+02 -0.37867494009E+02 -0.64839895447E+01  0.47567665076E+02  0.00000000000E+00 0. -1.
         -2    1    1    2    0  503 -0.32180143543E+02 -0.20619851118E+02 -0.39011330889E+02  0.54613403449E+02  0.00000000000E+00 0.  1.
<mgrwt>
<rscale>  2 0.92433734E+02</rscale>
<asrwt>0</asrwt>
<pdfrwt beam="1">  1       21 0.26582665E-01 0.92433734E+02</pdfrwt>
<pdfrwt beam="2">  1       21 0.13997164E-01 0.92433734E+02</pdfrwt>
<totfact> 0.60281272E+05</totfact>
</mgrwt>
</event>
<event>
 5    1  0.1365600E-001  0.1353145E+03  0.7546771E-02  0.1219776E+00
         21   -1    0    0  501  502  0.00000000000E+00  0.00000000000E+00  0.23540375410E+03  0.23540375410E+03  0.00000000000E+00 0.  1.
         21   -1    0    0  502  503 -0.00000000000E+00 -0.00000000000E+00 -0.88475584472E+02  0.88475584472E+02  0.00000000000E+00 0. -1.
         24    1    1    2    0    0 -0.35702885652E+02  0.10024805519E+03  0.65475723557E+02  0.14858887893E+03  0.80419002446E+02 0.  0.
          1    1    1    2  501    0  0.21226876557E+02 -0.11478348583E+03  0.95172649466E+02  0.15061096280E+03  0.00000000000E+00 0. -1.
         -2    1    1    2    0  503  0.14476009095E+02  0.14535430646E+02 -0.13720203394E+02  0.24679496846E+02  0.00000000000E+00 0.  1.
<mgrwt>
<rscale>  2 0.13531453E+03</rscale>
<asrwt>0</asrwt>
<pdfrwt beam="1">  1       21 0.36215962E-01 0.13531453E+03</pdfrwt>
<pdfrwt beam="2">  1       21 0.13611628E-01 0.13531453E+03</pdfrwt>
<totfact> 0.34776723E+05</totfact>
</mgrwt>
</event>
<event>
 5    1  0.1365600E-001  0.1623632E+03  0.7546771E-02  0.1186054E+00
         21   -1    0    0  501  502  0.00000000000E+00  0.00000000000E+00  0.54116068518E+03  0.54116068518E+03  0.00000000000E+00 0. -1.
         21   -1    0    0  502  503 -0.00000000000E+00 -0.00000000000E+00 -0.75872138153E+02  0.75872138153E+02  0.00000000000E+00 0.  1.
         24    1    1    2    0    0  0.24131518726E+02 -0.67538394378E+02  0.34349385818E+03  0.35999862704E+03  0.80419002446E+02 0.  1.
          1    1    1    2  501    0  0.23982902243E+02  0.13332690972E+03  0.11036125546E+03  0.17473079626E+03  0.00000000000E+00 0. -1.
         -2    1    1    2    0  503 -0.48114420970E+02 -0.65788515345E+02  0.11433433385E+02  0.82303400024E+02  0.00000000000E+00 0.  1.
<mgrwt>
<rscale>  2 0.16236320E+03</rscale>
<asrwt>0</asrwt>
<pdfrwt beam="1">  1       21 0.83255487E-01 0.16236320E+03</pdfrwt>
<pdfrwt beam="2">  1       21 0.11672637E-01 0.16236320E+03</pdfrwt>
<totfact> 0.78513573E+04</totfact>
</mgrwt>
</event>
<event>
 5    1  0.1365600E-001  0.1491364E+03  0.7546771E-02  0.1201538E+00
         21   -1    0    0  501  502  0.00000000000E+00  0.00000000000E+00  0.17571378223E+03  0.17571378223E+03  0.00000000000E+00 0.  1.
         21   -1    0    0  502  503 -0.00000000000E+00 -0.00000000000E+00 -0.18871149742E+03  0.18871149742E+03  0.00000000000E+00 0.  1.
         24    1    1    2    0    0  0.57569538249E+02 -0.71936190768E+02  0.76345369619E+02  0.14416968715E+03  0.80419002446E+02 0.  1.
          1    1    1    2  501    0  0.47232180744E+02  0.50234057905E+02  0.15240184747E+02  0.70615881376E+02  0.00000000000E+00 0. -1.
         -2    1    1    2    0  503 -0.10480171899E+03  0.21702132863E+02 -0.10458326955E+03  0.14963971112E+03  0.00000000000E+00 0.  1.
<mgrwt>
<rscale>  2 0.14913638E+03</rscale>
<asrwt>0</asrwt>
<pdfrwt beam="1">  1       21 0.27032890E-01 0.14913638E+03</pdfrwt>
<pdfrwt beam="2">  1       21 0.29032538E-01 0.14913638E+03</pdfrwt>
<totfact> 0.15018573E+05</totfact>
</mgrwt>
</event>
<event>
 5    1  0.1365600E-001  0.1191990E+03  0.7546771E-02  0.1244424E+00
         21   -1    0    0  503  502  0.00000000000E+00  0.00000000000E+00  0.17265956055E+02  0.17265956055E+02  0.00000000000E+00 0. -1.
         21   -1    0    0  501  503 -0.00000000000E+00 -0.00000000000E+00 -0.11152715364E+04  0.11152715364E+04  0.00000000000E+00 0.  1.
         24    1    1    2    0    0  0.23958414915E+02  0.57128912205E+02 -0.21153093856E+03  0.23462794416E+03  0.80419002446E+02 0.  1.
          1    1    1    2  501    0  0.46062922256E+02  0.70389472350E+00 -0.43203767731E+03  0.43448687309E+03  0.00000000000E+00 0. -1.
         -2    1    1    2    0  502 -0.70021337171E+02 -0.57832806928E+02 -0.45443696443E+03  0.46342267516E+03  0.00000000000E+00 0.  1.
<mgrwt>
<rscale>  2 0.11919897E+03</rscale>
<asrwt>0</asrwt>
<pdfrwt beam="1">  1       21 0.26563005E-02 0.11919897E+03</pdfrwt>
<pdfrwt beam="2">  1       21 0.17158027E+00 0.11919897E+03</pdfrwt>
<totfact> 0.16669160E+05</totfact>
</mgrwt>
</event>
<event>
 5    1  0.1365600E-001  0.1382199E+03  0.7546771E-02  0.1215744E+00
         21   -1    0    0  503  502  0.00000000000E+00  0.00000000000E+00  0.86051736769E+02  0.86051736769E+02  0.00000000000E+00 0.  1.
         21   -1    0    0  501  503 -0.00000000000E+00 -0.00000000000E+00 -0.44823221129E+03  0.44823221129E+03  0.00000000000E+00 0.  1.
         24    1    1    2    0    0  0.48295088776E+02  0.46510171611E+02  0.23847118164E+02  0.10738488098E+03  0.80419002446E+02 0.  1.
          1    1    1    2  501    0  0.17784078792E+02  0.50962530208E+02 -0.19639589921E+03  0.20367818286E+03  0.00000000000E+00 0. -1.
         -2    1    1    2    0  502 -0.66079167568E+02 -0.97472701819E+02 -0.18963169348E+03  0.22322088423E+03  0.00000000000E+00 0.  1.
<mgrwt>
<rscale>  2 0.13821990E+03</rscale>
<asrwt>0</asrwt>
<pdfrwt beam="1">  1       21 0.13238729E-01 0.13821990E+03</pdfrwt>
<pdfrwt beam="2">  1       21 0.68958801E-01 0.13821990E+03</pdfrwt>
<totfact> 0.96284914E+04</totfact>
</mgrwt>
</event>
<event>
 5    1  0.1388674E-001  0.2348942E+03  0.7546771E-02  0.1123242E+00
         21   -1    0    0  501  502  0.00000000000E+00  0.00000000000E+00  0.98142300512E+02  0.98142300512E+02  0.00000000000E+00 0.  1.
         21   -1    0    0  502  503 -0.00000000000E+00 -0.00000000000E+00 -0.56388198346E+03  0.56388198346E+03  0.00000000000E+00 0. -1.
         24    1    1    2    0    0 -0.13637022373E+02  0.26434281628E+02 -0.86480679047E+02  0.12178203245E+03  0.80419002446E+02 0.  0.
          1    1    1    2  501    0  0.23979538888E+02  0.17786994940E+03 -0.16110051842E+03  0.24117652087E+03  0.00000000000E+00 0. -1.
         -2    1    1    2    0  503 -0.10342516515E+02 -0.20430423103E+03 -0.21815848547E+03  0.29906573065E+03  0.00000000000E+00 0.  1.
<mgrwt>
<rscale>  2 0.23489423E+03</rscale>
<asrwt>0</asrwt>
<pdfrwt beam="1">  1       21 0.15098815E-01 0.23489423E+03</pdfrwt>
<pdfrwt beam="2">  1       21 0.86751075E-01 0.23489423E+03</pdfrwt>
<totfact> 0.43417761E+04</totfact>
</mgrwt>
</event>
<event>
 5    1  0.1365600E-001  0.1210579E+03  0.7546771E-02  0.1241362E+00
         21   -1    0    0  503  502  0.00000000000E+00  0.00000000000E+00  0.25312626927E+03  0.25312626927E+03  0.00000000000E+00 0. -1.
         21   -1    0    0  501  503 -0.00000000000E+00 -0.00000000000E+00 -0.89823336721E+02  0.89823336721E+02  0.00000000000E+00 0. -1.
         24    1    1    2    0    0  0.83508861074E+01 -0.28271478572E+02  0.16491807096E+03  0.18583379640E+03  0.80419002446E+02 0. -1.
          1    1    1    2  501    0  0.81076977392E+00 -0.63866468521E+02 -0.76441547579E+01  0.64327414458E+02  0.00000000000E+00 0. -1.
         -2    1    1    2    0  502 -0.91616558813E+01  0.92137947093E+02  0.60290163414E+01  0.92788395131E+02  0.00000000000E+00 0.  1.
<mgrwt>
<rscale>  2 0.12105786E+03</rscale>
<asrwt>0</asrwt>
<pdfrwt beam="1">  1       21 0.38942503E-01 0.12105786E+03</pdfrwt>
<pdfrwt beam="2">  1       21 0.13818975E-01 0.12105786E+03</pdfrwt>
<totfact> 0.29383855E+05</totfact>
</mgrwt>
</event>
<event>
 5    1  0.1365600E-001  0.1401239E+03  0.7546771E-02  0.1213162E+00
         21   -1    0    0  501  502  0.00000000000E+00  0.00000000000E+00  0.13872107167E+03  0.13872107167E+03  0.00000000000E+00 0.  1.
         21   -1    0    0  502  503 -0.00000000000E+00 -0.00000000000E+00 -0.20960317472E+03  0.20960317472E+03  0.00000000000E+00 0. -1.
         24    1    1    2    0    0 -0.99540976117E+02  0.52649713813E+02  0.45520957895E+02  0.14567007878E+03  0.80419002446E+02 0.  1.
          1    1    1    2  501    0  0.10539937478E+03 -0.18237445786E+02 -0.32523192826E+02  0.11180067399E+03  0.00000000000E+00 0. -1.
         -2    1    1    2    0  503 -0.58583986663E+01 -0.34412268027E+02 -0.83879868122E+02  0.90853493613E+02  0.00000000000E+00 0.  1.
<mgrwt>
<rscale>  2 0.14012393E+03</rscale>
<asrwt>0</asrwt>
<pdfrwt beam="1">  1       21 0.21341703E-01 0.14012393E+03</pdfrwt>
<pdfrwt beam="2">  1       21 0.32246642E-01 0.14012393E+03</pdfrwt>
<totfact> 0.19191526E+05</totfact>
</mgrwt>
</event>
<event>
 5    1  0.1365600E-001  0.1386304E+03  0.7546771E-02  0.1215184E+00
         21   -1    0    0  503  502  0.00000000000E+00  0.00000000000E+00  0.39477833501E+03  0.39477833501E+03  0.00000000000E+00 0.  1.
         21   -1    0    0  501  503 -0.00000000000E+00 -0.00000000000E+00 -0.70970194940E+02  0.70970194940E+02  0.00000000000E+00 0. -1.
         24    1    1    2    0    0  0.14742388997E+02 -0.10693474366E+02  0.89807635972E+02  0.12191930061E+03  0.80419002446E+02 0.  0.
          1    1    1    2  501    0  0.20866960760E+02 -0.87709423939E+02  0.29738369137E+01  0.90206523074E+02  0.00000000000E+00 0. -1.
         -2    1    1    2    0  502 -0.35609349757E+02  0.98402898305E+02  0.23102666718E+03  0.25362270626E+03  0.00000000000E+00 0.  1.
<mgrwt>
<rscale>  2 0.13863037E+03</rscale>
<asrwt>0</asrwt>
<pdfrwt beam="1">  1       21 0.60735127E-01 0.13863037E+03</pdfrwt>
<pdfrwt beam="2">  1       21 0.10918492E-01 0.13863037E+03</pdfrwt>
<totfact> 0.17820238E+05</totfact>
</mgrwt>
</event>
<event>
 5    1  0.1365600E-001  0.1069945E+03  0.7546771E-02  0.1266239E+00
         21   -1    0    0  501  502  0.00000000000E+00  0.00000000000E+00  0.38640656307E+02  0.38640656307E+02  0.00000000000E+00 0. -1.
         21   -1    0    0  502  503 -0.00000000000E+00 -0.00000000000E+00 -0.35276811822E+03  0.35276811822E+03  0.00000000000E+00 0.  1.
         24    1    1    2    0    0  0.13498998448E+02 -0.46432534414E+02 -0.81792284164E+02  0.12448050817E+03  0.80419002446E+02 0. -1.
          1    1    1    2  501    0 -0.27329899741E+02 -0.31096069224E+02 -0.34140673376E+02  0.53660735362E+02  0.00000000000E+00 0. -1.
         -2    1    1    2    0  503  0.13830901293E+02  0.77528603638E+02 -0.19819450438E+03  0.21326753100E+03  0.00000000000E+00 0.  1.
<mgrwt>
<rscale>  2 0.10699449E+03</rscale>
<asrwt>0</asrwt>
<pdfrwt beam="1">  1       21 0.59447165E-02 0.10699449E+03</pdfrwt>
<pdfrwt beam="2">  1       21 0.54272017E-01 0.10699449E+03</pdfrwt>
<totfact> 0.64729935E+05</totfact>
</mgrwt>
</event>
<event>
 5    1  0.1365600E-001  0.1016068E+03  0.7546771E-02  0.1276953E+00
         21   -1    0    0  503  502  0.00000000000E+00  0.00000000000E+00  0.25666752176E+03  0.25666752176E+03  0.00000000000E+00 0. -1.
         21   -1    0    0  501  503 -0.00000000000E+00 -0.00000000000E+00 -0.90486556078E+02  0.90486556078E+02  0.00000000000E+00 0.  1.
         24    1    1    2    0    0  0.65521367470E+02  0.31284432708E+02  0.20143436846E+03  0.22872425773E+03  0.80419002446E+02 0. -1.
          1    1    1    2  501    0 -0.37585114363E+02 -0.49024509440E+02 -0.52538476489E+02  0.81094604378E+02  0.00000000000E+00 0. -1.
         -2    1    1    2    0  502 -0.27936253107E+02  0.17740076731E+02  0.17285073711E+02  0.37335215726E+02  0.00000000000E+00 0.  1.
<mgrwt>
<rscale>  2 0.10160684E+03</rscale>
<asrwt>0</asrwt>
<pdfrwt beam="1">  1       21 0.39487311E-01 0.10160684E+03</pdfrwt>
<pdfrwt beam="2">  1       21 0.13921009E-01 0.10160684E+03</pdfrwt>
<totfact> 0.28318859E+05</totfact>
</mgrwt>
</event>
<event>
 5    1  0.1365600E-001  0.1036619E+03  0.7546771E-02  0.1272779E+00
         21   -1    0    0  503  502  0.00000000000E+00  0.00000000000E+00  0.25385847486E+03  0.25385847486E+03  0.00000000000E+00 0.  1.
         21   -1    0    0  501  503 -0.00000000000E+00 -0.00000000000E+00 -0.10732451351E+03  0.10732451351E+03  0.00000000000E+00 0.  1.
         24    1    1    2    0    0 -0.44751776950E+02 -0.25018757867E+02  0.21113477673E+03  0.23167600153E+03  0.80419002446E+02 0.  1.
          1    1    1    2  501    0 -0.31959570048E+02  0.12027846911E+02 -0.24076750005E+02  0.41782449782E+02  0.00000000000E+00 0. -1.
         -2    1    1    2    0  502  0.76711346997E+02  0.12990910955E+02 -0.40524065377E+02  0.87724537048E+02  0.00000000000E+00 0.  1.
<mgrwt>
<rscale>  2 0.10366191E+03</rscale>
<asrwt>0</asrwt>
<pdfrwt beam="1">  1       21 0.39055150E-01 0.10366191E+03</pdfrwt>
<pdfrwt beam="2">  1       21 0.16511464E-01 0.10366191E+03</pdfrwt>
<totfact> 0.21302081E+05</totfact>
</mgrwt>
</event>
<event>
 5    1  0.1365600E-001  0.1146643E+03  0.7546771E-02  0.1252168E+00
         21   -1    0    0  503  502  0.00000000000E+00  0.00000000000E+00  0.29348348630E+02  0.29348348630E+02  0.00000000000E+00 0.  1.
         21   -1    0    0  501  503 -0.00000000000E+00 -0.00000000000E+00 -0.92056770742E+03  0.92056770742E+03  0.00000000000E+00 0. -1.
         24    1    1    2    0    0 -0.53741645296E+02  0.24341189139E+02 -0.11954838951E+03  0.15569101232E+03  0.80419002446E+02 0.  1.
          1    1    1    2  501    0 -0.27370297475E+02 -0.38513724203E+02 -0.61869355440E+03  0.62049508813E+03  0.00000000000E+00 0. -1.
         -2    1    1    2    0  502  0.81111942771E+02  0.14172535065E+02 -0.15297741488E+03  0.17372995560E+03  0.00000000000E+00 0.  1.
<mgrwt>
<rscale>  2 0.11466427E+03</rscale>
<asrwt>0</asrwt>
<pdfrwt beam="1">  1       21 0.45151305E-02 0.11466427E+03</pdfrwt>
<pdfrwt beam="2">  1       21 0.14162580E+00 0.11466427E+03</pdfrwt>
<totfact> 0.11521272E+05</totfact>
</mgrwt>
</event>
<event>
 5    1  0.1365600E-001  0.2003083E+03  0.7546771E-02  0.1149479E+00
         21   -1    0    0  503  502  0.00000000000E+00  0.00000000000E+00  0.83089329813E+03  0.83089329813E+03  0.00000000000E+00 0.  1.
         21   -1    0    0  501  503 -0.00000000000E+00 -0.00000000000E+00 -0.48952765948E+02  0.48952765948E+02  0.00000000000E+00 0. -1.
         24    1    1    2    0    0 -0.41655506771E+02 -0.12746708939E+03  0.26785275666E+03  0.31015376078E+03  0.80419002446E+02 0. -1.
          1    1    1    2  501    0  0.12441997831E+03  0.63753309562E+02  0.26564348815E+03  0.30018540651E+03  0.00000000000E+00 0. -1.
         -2    1    1    2    0  502 -0.82764471540E+02  0.63713779831E+02  0.24844428737E+03  0.26950689679E+03  0.00000000000E+00 0.  1.
<mgrwt>
<rscale>  2 0.20030832E+03</rscale>
<asrwt>0</asrwt>
<pdfrwt beam="1">  1       21 0.12782973E+00 0.20030832E+03</pdfrwt>
<pdfrwt beam="2">  1       21 0.75311953E-02 0.20030832E+03</pdfrwt>
<totfact> 0.59866535E+04</totfact>
</mgrwt>
</event>
<event>
 5    1  0.1365600E-001  0.1144870E+03  0.7546771E-02  0.1252479E+00
         21   -1    0    0  501  502  0.00000000000E+00  0.00000000000E+00  0.57927733064E+02  0.57927733064E+02  0.00000000000E+00 0. -1.
         21   -1    0    0  502  503 -0.00000000000E+00 -0.00000000000E+00 -0.30490148087E+03  0.30490148087E+03  0.00000000000E+00 0.  1.
         24    1    1    2    0    0 -0.60485052438E+02 -0.18920129725E+01 -0.23056212487E+02  0.10325127684E+03  0.80419002446E+02 0.  0.
          1    1    1    2  501    0 -0.33404602310E+02  0.76307981428E+01 -0.37659876948E+02  0.50915251816E+02  0.00000000000E+00 0. -1.
         -2    1    1    2    0  503  0.93889654747E+02 -0.57387851702E+01 -0.18625765837E+03  0.20866268527E+03  0.00000000000E+00 0.  1.
<mgrwt>
<rscale>  2 0.11448704E+03</rscale>
<asrwt>0</asrwt>
<pdfrwt beam="1">  1       21 0.89119586E-02 0.11448704E+03</pdfrwt>
<pdfrwt beam="2">  1       21 0.46907922E-01 0.11448704E+03</pdfrwt>
<totfact> 0.43735448E+05</totfact>
</mgrwt>
</event>
<event>
 5    1  0.1365600E-001  0.5995558E+03  0.7546771E-02  0.9906328E-01
         21   -1    0    0  503  502  0.00000000000E+00  0.00000000000E+00  0.53554370285E+03  0.53554370285E+03  0.00000000000E+00 0.  1.
         21   -1    0    0  501  503 -0.00000000000E+00 -0.00000000000E+00 -0.78379886397E+03  0.78379886397E+03  0.00000000000E+00 0. -1.
         24    1    1    2    0    0  0.13786545357E+03 -0.38254551187E+03  0.14278912840E+03  0.43841065576E+03  0.80419002446E+02 0.  1.
          1    1    1    2  501    0  0.15916393840E+03  0.45230680378E+03 -0.28564325480E+03  0.55812782859E+03  0.00000000000E+00 0. -1.
         -2    1    1    2    0  502 -0.29702939197E+03 -0.69761291915E+02 -0.10540103472E+03  0.32280408248E+03  0.00000000000E+00 0.  1.
<mgrwt>
<rscale>  2 0.59955583E+03</rscale>
<asrwt>0</asrwt>
<pdfrwt beam="1">  1       21 0.82391340E-01 0.59955583E+03</pdfrwt>
<pdfrwt beam="2">  1       21 0.12058444E+00 0.59955583E+03</pdfrwt>
<totfact> 0.53142564E+02</totfact>
</mgrwt>
</event>
<event>
 5    1  0.1365600E-001  0.7078634E+02  0.7546771E-02  0.1357439E+00
         21   -1    0    0  503  502  0.00000000000E+00  0.00000000000E+00  0.44643702186E+02  0.44643702186E+02  0.00000000000E+00 0. -1.
         21   -1    0    0  501  503 -0.00000000000E+00 -0.00000000000E+00 -0.38185378743E+03  0.38185378743E+03  0.00000000000E+00 0.  1.
         24    1    1    2    0    0  0.25691910447E+02  0.16629305795E+02 -0.40665950877E+01  0.86141518582E+02  0.80419002446E+02 0. -1.
          1    1    1    2  501    0 -0.26204812889E+02  0.10618586926E+02 -0.27135751619E+03  0.27282658998E+03  0.00000000000E+00 0. -1.
         -2    1    1    2    0  502  0.51290244196E+00 -0.27247892721E+02 -0.61785973967E+02  0.67529381055E+02  0.00000000000E+00 0.  1.
<mgrwt>
<rscale>  2 0.70786341E+02</rscale>
<asrwt>0</asrwt>
<pdfrwt beam="1">  1       21 0.68682617E-02 0.70786341E+02</pdfrwt>
<pdfrwt beam="2">  1       21 0.58746738E-01 0.70786341E+02</pdfrwt>
<totfact> 0.43059420E+05</totfact>
</mgrwt>
</event>
<event>
 5    1  0.1365600E-001  0.1225084E+03  0.7546771E-02  0.1239015E+00
         21   -1    0    0  501  502  0.00000000000E+00  0.00000000000E+00  0.14536467903E+03  0.14536467903E+03  0.00000000000E+00 0. -1.
         21   -1    0    0  502  503 -0.00000000000E+00 -0.00000000000E+00 -0.13567011569E+03  0.13567011569E+03  0.00000000000E+00 0. -1.
         24    1    1    2    0    0 -0.41647712658E+02 -0.91930573309E+02 -0.27336472702E+02  0.13191004879E+03  0.80419002446E+02 0. -1.
          1    1    1    2  501    0  0.19281814426E+02  0.91594352808E+02  0.64520295000E+02  0.11368457371E+03  0.00000000000E+00 0. -1.
         -2    1    1    2    0  503  0.22365898233E+02  0.33622050140E+00 -0.27489258963E+02  0.35440172211E+02  0.00000000000E+00 0.  1.
<mgrwt>
<rscale>  2 0.12250837E+03</rscale>
<asrwt>0</asrwt>
<pdfrwt beam="1">  1       21 0.22363797E-01 0.12250837E+03</pdfrwt>
<pdfrwt beam="2">  1       21 0.20872325E-01 0.12250837E+03</pdfrwt>
<totfact> 0.40318371E+05</totfact>
</mgrwt>
</event>
<event>
 5    1  0.1365600E-001  0.2961860E+03  0.7546771E-02  0.1087163E+00
         21   -1    0    0  501  502  0.00000000000E+00  0.00000000000E+00  0.19289449218E+04  0.19289449218E+04  0.00000000000E+00 0. -1.
         21   -1    0    0  502  503 -0.00000000000E+00 -0.00000000000E+00 -0.10368487844E+03  0.10368487844E+03  0.00000000000E+00 0.  1.
         24    1    1    2    0    0  0.83335860354E+02 -0.95966530326E+01  0.40566441805E+03  0.42198080217E+03  0.80419002446E+02 0.  1.
          1    1    1    2  501    0  0.37299090618E+02 -0.21661168546E+03  0.13158603570E+04  0.13340915724E+04  0.00000000000E+00 0. -1.
         -2    1    1    2    0  503 -0.12063495097E+03  0.22620833849E+03  0.10373526831E+03  0.27655742566E+03  0.00000000000E+00 0.  1.
<mgrwt>
<rscale>  2 0.29618601E+03</rscale>
<asrwt>0</asrwt>
<pdfrwt beam="1">  1       21 0.29676073E+00 0.29618601E+03</pdfrwt>
<pdfrwt beam="2">  1       21 0.15951521E-01 0.29618601E+03</pdfrwt>
<totfact> 0.11195413E+03</totfact>
</mgrwt>
</event>
<event>
 5    1  0.1365600E-001  0.1859474E+03  0.7546771E-02  0.1162168E+00
         21   -1    0    0  503  502  0.00000000000E+00  0.00000000000E+00  0.39650906507E+03  0.39650906507E+03  0.00000000000E+00 0.  1.
         21   -1    0    0  501  503 -0.00000000000E+00 -0.00000000000E+00 -0.10882975047E+03  0.10882975047E+03  0.00000000000E+00 0. -1.
         24    1    1    2    0    0  0.46705553514E+02 -0.14091721276E+02  0.90227109150E+02  0.13033853044E+03  0.80419002446E+02 0.  1.
          1    1    1    2  501    0  0.23982767350E+01 -0.12773044294E+03  0.97140977561E+00  0.12775664923E+03  0.00000000000E+00 0. -1.
         -2    1    1    2    0  502 -0.49103830248E+02  0.14182216422E+03  0.19648079568E+03  0.24724363587E+03  0.00000000000E+00 0.  1.
<mgrwt>
<rscale>  2 0.18594744E+03</rscale>
<asrwt>0</asrwt>
<pdfrwt beam="1">  1       21 0.61001394E-01 0.18594744E+03</pdfrwt>
<pdfrwt beam="2">  1       21 0.16743039E-01 0.18594744E+03</pdfrwt>
<totfact> 0.80447413E+04</totfact>
</mgrwt>
</event>
<event>
 5    1  0.1365600E-001  0.1254372E+03  0.7546771E-02  0.1234388E+00
         21   -1    0    0  503  502  0.00000000000E+00  0.00000000000E+00  0.30955656206E+03  0.30955656206E+03  0.00000000000E+00 0. -1.
         21   -1    0    0  501  503 -0.00000000000E+00 -0.00000000000E+00 -0.67251346557E+02  0.67251346557E+02  0.00000000000E+00 0. -1.
         24    1    1    2    0    0 -0.27104666209E+02 -0.73566489467E+02  0.19421530849E+03  0.22435127214E+03  0.80419002446E+02 0. -1.
          1    1    1    2  501    0  0.66213547310E+02  0.74201230582E+02  0.13726190821E+02  0.10039155732E+03  0.00000000000E+00 0. -1.
         -2    1    1    2    0  502 -0.39108881101E+02 -0.63474111424E+00  0.34363716189E+02  0.52065079156E+02  0.00000000000E+00 0.  1.
<mgrwt>
<rscale>  2 0.12543722E+03</rscale>
<asrwt>0</asrwt>
<pdfrwt beam="1">  1       21 0.47624086E-01 0.12543722E+03</pdfrwt>
<pdfrwt beam="2">  1       21 0.10346361E-01 0.12543722E+03</pdfrwt>
<totfact> 0.32647675E+05</totfact>
</mgrwt>
</event>
<event>
 5    1  0.1365600E-001  0.1105707E+03  0.7546771E-02  0.1259517E+00
         21   -1    0    0  503  502  0.00000000000E+00  0.00000000000E+00  0.22725837743E+02  0.22725837743E+02  0.00000000000E+00 0.  1.
         21   -1    0    0  501  503 -0.00000000000E+00 -0.00000000000E+00 -0.61790922408E+03  0.61790922408E+03  0.00000000000E+00 0. -1.
         24    1    1    2    0    0 -0.16876281601E+02 -0.14550716828E+02 -0.12398377843E+03  0.14945141521E+03  0.80419002446E+02 0.  1.
          1    1    1    2  501    0 -0.39473819693E+02  0.55449100874E+02 -0.26222995590E+03  0.27091942529E+03  0.00000000000E+00 0. -1.
         -2    1    1    2    0  502  0.56350101294E+02 -0.40898384046E+02 -0.20896965201E+03  0.22026422132E+03  0.00000000000E+00 0.  1.
<mgrwt>
<rscale>  2 0.11057065E+03</rscale>
<asrwt>0</asrwt>
<pdfrwt beam="1">  1       21 0.34962830E-02 0.11057065E+03</pdfrwt>
<pdfrwt beam="2">  1       21 0.95062949E-01 0.11057065E+03</pdfrwt>
<totfact> 0.46078018E+05</totfact>
</mgrwt>
</event>
<event>
 5    1  0.1365600E-001  0.8737217E+02  0.7546771E-02  0.1309343E+00
         21   -1    0    0  503  502  0.00000000000E+00  0.00000000000E+00  0.12758786607E+03  0.12758786607E+03  0.00000000000E+00 0.  1.
         21   -1    0    0  501  503 -0.00000000000E+00 -0.00000000000E+00 -0.27149557892E+03  0.27149557892E+03  0.00000000000E+00 0. -1.
         24    1    1    2    0    0 -0.67356001866E+01  0.42745897733E+02  0.15946963016E+02  0.92704377818E+02  0.80419002446E+02 0.  0.
          1    1    1    2  501    0 -0.18684015398E+02  0.12587763508E+02 -0.21978774950E+03  0.22093935605E+03  0.00000000000E+00 0. -1.
         -2    1    1    2    0  502  0.25419615584E+02 -0.55333661242E+02  0.59933073630E+02  0.85439711128E+02  0.00000000000E+00 0.  1.
<mgrwt>
<rscale>  2 0.87372168E+02</rscale>
<asrwt>0</asrwt>
<pdfrwt beam="1">  1       21 0.19628902E-01 0.87372168E+02</pdfrwt>
<pdfrwt beam="2">  1       21 0.41768551E-01 0.87372168E+02</pdfrwt>
<totfact> 0.13696343E+05</totfact>
</mgrwt>
</event>
<event>
 5    1  0.1365600E-001  0.8915911E+02  0.7546771E-02  0.1304901E+00
         21   -1    0    0  503  502  0.00000000000E+00  0.00000000000E+00  0.80427141908E+02  0.80427141908E+02  0.00000000000E+00 0.  1.
         21   -1    0    0  501  503 -0.00000000000E+00 -0.00000000000E+00 -0.12299590754E+03  0.12299590754E+03  0.00000000000E+00 0. -1.
         24    1    1    2    0    0  0.43498525703E+02 -0.24540953369E+02  0.21198551483E+02  0.97010178177E+02  0.80419002446E+02 0.  1.
          1    1    1    2  501    0 -0.51314796181E+02 -0.64248660251E+01 -0.48941943279E+02  0.71202535225E+02  0.00000000000E+00 0. -1.
         -2    1    1    2    0  502  0.78162704777E+01  0.30965819394E+02 -0.14825373833E+02  0.35210336043E+02  0.00000000000E+00 0.  1.
<mgrwt>
<rscale>  2 0.89159108E+02</rscale>
<asrwt>0</asrwt>
<pdfrwt beam="1">  1       21 0.12373407E-01 0.89159108E+02</pdfrwt>
<pdfrwt beam="2">  1       21 0.18922447E-01 0.89159108E+02</pdfrwt>
<totfact> 0.14057271E+06</totfact>
</mgrwt>
</event>
<event>
 5    1  0.1365600E-001  0.1247038E+03  0.7546771E-02  0.1235533E+00
         21   -1    0    0  503  502  0.00000000000E+00  0.00000000000E+00  0.10751552231E+04  0.10751552231E+04  0.00000000000E+00 0. -1.
         21   -1    0    0  501  503 -0.00000000000E+00 -0.00000000000E+00 -0.19086648747E+02  0.19086648747E+02  0.00000000000E+00 0. -1.
         24    1    1    2    0    0  0.86937226327E+02  0.87250380420E+01  0.77310846784E+03  0.78217525313E+03  0.80419002446E+02 0. -1.
          1    1    1    2  501    0 -0.22424886081E+02 -0.49498206133E+02  0.99628955271E+02  0.11348513847E+03  0.00000000000E+00 0. -1.
         -2    1    1    2    0  502 -0.64512340245E+02  0.40773168091E+02  0.18333115128E+03  0.19858148028E+03  0.00000000000E+00 0.  1.
<mgrwt>
<rscale>  2 0.12470375E+03</rscale>
<asrwt>0</asrwt>
<pdfrwt beam="1">  1       21 0.16540845E+00 0.12470375E+03</pdfrwt>
<pdfrwt beam="2">  1       21 0.29364084E-02 0.12470375E+03</pdfrwt>
<totfact> 0.15570353E+05</totfact>
</mgrwt>
</event>
<event>
 5    1  0.1365600E-001  0.3408918E+03  0.7546771E-02  0.1066417E+00
         21   -1    0    0  503  502  0.00000000000E+00  0.00000000000E+00  0.19515151145E+04  0.19515151145E+04  0.00000000000E+00 0.  1.
         21   -1    0    0  501  503 -0.00000000000E+00 -0.00000000000E+00 -0.66896984104E+02  0.66896984104E+02  0.00000000000E+00 0. -1.
         24    1    1    2    0    0  0.93924322784E+02  0.88971777777E+02  0.76365559085E+03  0.77870073394E+03  0.80419002446E+02 0.  1.
          1    1    1    2  501    0 -0.15250305331E+03  0.19043369795E+03  0.51985869122E+03  0.57426059713E+03  0.00000000000E+00 0. -1.
         -2    1    1    2    0  502  0.58578730524E+02 -0.27940547573E+03  0.60110384835E+03  0.66545076755E+03  0.00000000000E+00 0.  1.
<mgrwt>
<rscale>  2 0.34089177E+03</rscale>
<asrwt>0</asrwt>
<pdfrwt beam="1">  1       21 0.30023305E+00 0.34089177E+03</pdfrwt>
<pdfrwt beam="2">  1       21 0.10291845E-01 0.34089177E+03</pdfrwt>
<totfact> 0.22901096E+03</totfact>
</mgrwt>
</event>
<event>
 5    1  0.1365600E-001  0.1223100E+03  0.7546771E-02  0.1239334E+00
         21   -1    0    0  503  502  0.00000000000E+00  0.00000000000E+00  0.22025727298E+03  0.22025727298E+03  0.00000000000E+00 0.  1.
         21   -1    0    0  501  503 -0.00000000000E+00 -0.00000000000E+00 -0.68294777249E+02  0.68294777249E+02  0.00000000000E+00 0.  1.
         24    1    1    2    0    0  0.48746585666E+02 -0.26922601648E+00  0.52548969266E+02  0.10772609815E+03  0.80419002446E+02 0.  0.
          1    1    1    2  501    0 -0.24506211060E+02 -0.71100955593E+02  0.56749217593E+02  0.94214510369E+02  0.00000000000E+00 0. -1.
         -2    1    1    2    0  502 -0.24240374606E+02  0.71370181609E+02  0.42664308872E+02  0.86611441713E+02  0.00000000000E+00 0.  1.
<mgrwt>
<rscale>  2 0.12231005E+03</rscale>
<asrwt>0</asrwt>
<pdfrwt beam="1">  1       21 0.33885734E-01 0.12231005E+03</pdfrwt>
<pdfrwt beam="2">  1       21 0.10506889E-01 0.12231005E+03</pdfrwt>
<totfact> 0.62759956E+05</totfact>
</mgrwt>
</event>
<event>
 5    1  0.1365600E-001  0.1090771E+03  0.7546771E-02  0.1262288E+00
         21   -1    0    0  503  502  0.00000000000E+00  0.00000000000E+00  0.16045649847E+03  0.16045649847E+03  0.00000000000E+00 0.  1.
         21   -1    0    0  501  503 -0.00000000000E+00 -0.00000000000E+00 -0.13822979241E+03  0.13822979241E+03  0.00000000000E+00 0. -1.
         24    1    1    2    0    0 -0.51810341841E+02  0.10054871339E+01  0.92916119464E+02  0.13336395216E+03  0.80419002446E+02 0.  1.
          1    1    1    2  501    0 -0.17311546739E+02  0.38965871672E+02 -0.74001806928E+02  0.85406652167E+02  0.00000000000E+00 0. -1.
         -2    1    1    2    0  502  0.69121888580E+02 -0.39971358806E+02  0.33123935286E+01  0.79915686549E+02  0.00000000000E+00 0.  1.
<mgrwt>
<rscale>  2 0.10907713E+03</rscale>
<asrwt>0</asrwt>
<pdfrwt beam="1">  1       21 0.24685615E-01 0.10907713E+03</pdfrwt>
<pdfrwt beam="2">  1       21 0.21266122E-01 0.10907713E+03</pdfrwt>
<totfact> 0.32432086E+05</totfact>
</mgrwt>
</event>
<event>
 5    1  0.1365600E-001  0.8576072E+02  0.7546771E-02  0.1313455E+00
         21   -1    0    0  503  502  0.00000000000E+00  0.00000000000E+00  0.22050796191E+03  0.22050796191E+03  0.00000000000E+00 0. -1.
         21   -1    0    0  501  503 -0.00000000000E+00 -0.00000000000E+00 -0.34199392690E+02  0.34199392690E+02  0.00000000000E+00 0. -1.
         24    1    1    2    0    0  0.41162496378E+02 -0.87571553811E+01  0.11840880309E+03  0.14919416705E+03  0.80419002446E+02 0. -1.
          1    1    1    2  501    0 -0.59277714167E+02 -0.26709472183E+01  0.49304393018E+02  0.77148587328E+02  0.00000000000E+00 0. -1.
         -2    1    1    2    0  502  0.18115217789E+02  0.11428102599E+02  0.18595373113E+02  0.28364600222E+02  0.00000000000E+00 0.  1.
<mgrwt>
<rscale>  2 0.85760718E+02</rscale>
<asrwt>0</asrwt>
<pdfrwt beam="1">  1       21 0.33924301E-01 0.85760718E+02</pdfrwt>
<pdfrwt beam="2">  1       21 0.52614452E-02 0.85760718E+02</pdfrwt>
<totfact> 0.20269382E+06</totfact>
</mgrwt>
</event>
<event>
 5    1  0.1365600E-001  0.8884997E+02  0.7546771E-02  0.1305661E+00
         21   -1    0    0  501  502  0.00000000000E+00  0.00000000000E+00  0.55757915944E+02  0.55757915944E+02  0.00000000000E+00 0. -1.
         21   -1    0    0  502  503 -0.00000000000E+00 -0.00000000000E+00 -0.35154719970E+03  0.35154719970E+03  0.00000000000E+00 0.  1.
         24    1    1    2    0    0 -0.38628671268E+02  0.42070351674E+02 -0.39540584451E+01  0.98716458944E+02  0.80419002446E+02 0. -1.
          1    1    1    2  501    0  0.60175514291E+01 -0.45841031454E+02 -0.67208271891E+02  0.81575504292E+02  0.00000000000E+00 0. -1.
         -2    1    1    2    0  503  0.32611119839E+02  0.37706797800E+01 -0.22462695342E+03  0.22701315241E+03  0.00000000000E+00 0.  1.
<mgrwt>
<rscale>  2 0.88849967E+02</rscale>
<asrwt>0</asrwt>
<pdfrwt beam="1">  1       21 0.85781409E-02 0.88849967E+02</pdfrwt>
<pdfrwt beam="2">  1       21 0.54084185E-01 0.88849967E+02</pdfrwt>
<totfact> 0.34989800E+05</totfact>
</mgrwt>
</event>
<event>
 5    1  0.1365600E-001  0.1497014E+03  0.7546771E-02  0.1200840E+00
         21   -1    0    0  501  502  0.00000000000E+00  0.00000000000E+00  0.12294767504E+04  0.12294767504E+04  0.00000000000E+00 0.  1.
         21   -1    0    0  502  503 -0.00000000000E+00 -0.00000000000E+00 -0.39835010111E+02  0.39835010111E+02  0.00000000000E+00 0.  1.
         24    1    1    2    0    0  0.10773500357E+03  0.54902933155E+01  0.53113618531E+03  0.54791407867E+03  0.80419002446E+02 0.  1.
          1    1    1    2  501    0 -0.10754549179E+03 -0.51220731279E+02  0.66466412914E+03  0.67525402678E+03  0.00000000000E+00 0. -1.
         -2    1    1    2    0  503 -0.18951177994E+00  0.45730437964E+02 -0.61585741122E+01  0.46143655102E+02  0.00000000000E+00 0.  1.
<mgrwt>
<rscale>  2 0.14970137E+03</rscale>
<asrwt>0</asrwt>
<pdfrwt beam="1">  1       21 0.18915024E+00 0.14970137E+03</pdfrwt>
<pdfrwt beam="2">  1       21 0.61284640E-02 0.14970137E+03</pdfrwt>
<totfact> 0.31003519E+04</totfact>
</mgrwt>
</event>
<event>
 5    1  0.1365600E-001  0.1213854E+03  0.7546771E-02  0.1240829E+00
         21   -1    0    0  503  502  0.00000000000E+00  0.00000000000E+00  0.89811523912E+02  0.89811523912E+02  0.00000000000E+00 0. -1.
         21   -1    0    0  501  503 -0.00000000000E+00 -0.00000000000E+00 -0.22974072190E+03  0.22974072190E+03  0.00000000000E+00 0. -1.
         24    1    1    2    0    0 -0.20741238826E+02 -0.28354788663E+02  0.25903009336E+02  0.91500682376E+02  0.80419002446E+02 0. -1.
          1    1    1    2  501    0  0.71909361062E+02  0.61017716090E+02 -0.11609532155E+03  0.14957353232E+03  0.00000000000E+00 0. -1.
         -2    1    1    2    0  502 -0.51168122236E+02 -0.32662927427E+02 -0.49736885780E+02  0.78478031120E+02  0.00000000000E+00 0.  1.
<mgrwt>
<rscale>  2 0.12138543E+03</rscale>
<asrwt>0</asrwt>
<pdfrwt beam="1">  1       21 0.13817158E-01 0.12138543E+03</pdfrwt>
<pdfrwt beam="2">  1       21 0.35344726E-01 0.12138543E+03</pdfrwt>
<totfact> 0.35591619E+05</totfact>
</mgrwt>
</event>
<event>
 5    1  0.1365600E-001  0.1220539E+03  0.7546771E-02  0.1239747E+00
         21   -1    0    0  501  502  0.00000000000E+00  0.00000000000E+00  0.75413242010E+01  0.75413242010E+01  0.00000000000E+00 0.  1.
         21   -1    0    0  502  503 -0.00000000000E+00 -0.00000000000E+00 -0.28562149427E+04  0.28562149427E+04  0.00000000000E+00 0.  1.
         24    1    1    2    0    0 -0.52371933576E+02  0.14108339928E+02 -0.43988839994E+03  0.45045630758E+03  0.80419002446E+02 0.  0.
          1    1    1    2  501    0 -0.42320948386E+02  0.19539646120E+02 -0.67913844215E+03  0.68073628084E+03  0.00000000000E+00 0. -1.
         -2    1    1    2    0  503  0.94692881962E+02 -0.33647986047E+02 -0.17296467764E+04  0.17325636785E+04  0.00000000000E+00 0.  1.
<mgrwt>
<rscale>  2 0.12205390E+03</rscale>
<asrwt>0</asrwt>
<pdfrwt beam="1">  1       21 0.11602024E-02 0.12205390E+03</pdfrwt>
<pdfrwt beam="2">  1       21 0.43941819E+00 0.12205390E+03</pdfrwt>
<totfact> 0.16169446E+04</totfact>
</mgrwt>
</event>
<event>
 5    1  0.1365600E-001  0.7641625E+02  0.7546771E-02  0.1339541E+00
         21   -1    0    0  503  502  0.00000000000E+00  0.00000000000E+00  0.46901952616E+03  0.46901952616E+03  0.00000000000E+00 0.  1.
         21   -1    0    0  501  503 -0.00000000000E+00 -0.00000000000E+00 -0.45809471566E+02  0.45809471566E+02  0.00000000000E+00 0. -1.
         24    1    1    2    0    0 -0.75742755906E+01 -0.49994380841E+01  0.43082695537E+03  0.43836223088E+03  0.80419002446E+02 0.  1.
          1    1    1    2  501    0  0.39407682320E+02  0.69246906863E+01 -0.16624215125E+02  0.43327604313E+02  0.00000000000E+00 0. -1.
         -2    1    1    2    0  502 -0.31833406730E+02 -0.19252526023E+01  0.90073143443E+01  0.33139162532E+02  0.00000000000E+00 0.  1.
<mgrwt>
<rscale>  2 0.76416253E+02</rscale>
<asrwt>0</asrwt>
<pdfrwt beam="1">  1       21 0.72156847E-01 0.76416253E+02</pdfrwt>
<pdfrwt beam="2">  1       21 0.70476113E-02 0.76416253E+02</pdfrwt>
<totfact> 0.26662822E+05</totfact>
</mgrwt>
</event>
<event>
 5    1  0.1365600E-001  0.1516464E+03  0.7546771E-02  0.1198464E+00
         21   -1    0    0  501  502  0.00000000000E+00  0.00000000000E+00  0.59634871154E+02  0.59634871154E+02  0.00000000000E+00 0. -1.
         21   -1    0    0  502  503 -0.00000000000E+00 -0.00000000000E+00 -0.39281382015E+03  0.39281382015E+03  0.00000000000E+00 0.  1.
         24    1    1    2    0    0  0.28670669071E+02 -0.22460965709E+01 -0.67900861438E+02  0.10910909748E+03  0.80419002446E+02 0. -1.
          1    1    1    2  501    0 -0.75777459221E+02 -0.87972750533E+02 -0.13669458010E+03  0.17935115386E+03  0.00000000000E+00 0. -1.
         -2    1    1    2    0  503  0.47106790150E+02  0.90218847104E+02 -0.12858350746E+03  0.16398843996E+03  0.00000000000E+00 0.  1.
<mgrwt>
<rscale>  2 0.15164635E+03</rscale>
<asrwt>0</asrwt>
<pdfrwt beam="1">  1       21 0.91745953E-02 0.15164635E+03</pdfrwt>
<pdfrwt beam="2">  1       21 0.60432897E-01 0.15164635E+03</pdfrwt>
<totfact> 0.24361944E+05</totfact>
</mgrwt>
</event>
<event>
 5    1  0.1390016E-001  0.1891119E+03  0.7546771E-02  0.1159265E+00
         21   -1    0    0  501  502  0.00000000000E+00  0.00000000000E+00  0.30469069996E+03  0.30469069996E+03  0.00000000000E+00 0.  1.
         21   -1    0    0  502  503 -0.00000000000E+00 -0.00000000000E+00 -0.12232603818E+03  0.12232603818E+03  0.00000000000E+00 0.  1.
         24    1    1    2    0    0  0.11595869635E+03  0.52732281705E+02  0.66223947384E+02  0.16455983700E+03  0.80419002446E+02 0.  1.
          1    1    1    2  501    0  0.50500403697E+02  0.64498184599E+01  0.56360569595E+02  0.75950014725E+02  0.00000000000E+00 0. -1.
         -2    1    1    2    0  503 -0.16645910004E+03 -0.59182100164E+02  0.59780144809E+02  0.18650688641E+03  0.00000000000E+00 0.  1.
<mgrwt>
<rscale>  2 0.18911189E+03</rscale>
<asrwt>0</asrwt>
<pdfrwt beam="1">  1       21 0.46875492E-01 0.18911189E+03</pdfrwt>
<pdfrwt beam="2">  1       21 0.18819391E-01 0.18911189E+03</pdfrwt>
<totfact> 0.11277369E+05</totfact>
</mgrwt>
</event>
<event>
 5    1  0.1365600E-001  0.9484426E+02  0.7546771E-02  0.1291527E+00
         21   -1    0    0  501  502  0.00000000000E+00  0.00000000000E+00  0.50573415883E+02  0.50573415883E+02  0.00000000000E+00 0. -1.
         21   -1    0    0  502  503 -0.00000000000E+00 -0.00000000000E+00 -0.24227726687E+03  0.24227726687E+03  0.00000000000E+00 0.  1.
         24    1    1    2    0    0 -0.20516010015E+02 -0.56362652819E+01 -0.18079301088E+02  0.85127852290E+02  0.80419002446E+02 0. -1.
          1    1    1    2  501    0  0.29030628612E+02  0.51896964893E+02 -0.58754860862E+02  0.83595490534E+02  0.00000000000E+00 0. -1.
         -2    1    1    2    0  503 -0.85146185971E+01 -0.46260699611E+02 -0.11486968903E+03  0.12412733993E+03  0.00000000000E+00 0.  1.
<mgrwt>
<rscale>  2 0.94844261E+02</rscale>
<asrwt>0</asrwt>
<pdfrwt beam="1">  1       21 0.77805256E-02 0.94844261E+02</pdfrwt>
<pdfrwt beam="2">  1       21 0.37273425E-01 0.94844261E+02</pdfrwt>
<totfact> 0.87459194E+05</totfact>
</mgrwt>
</event>
<event>
 5    1  0.1365600E-001  0.7744273E+02  0.7546771E-02  0.1336469E+00
         21   -1    0    0  503  502  0.00000000000E+00  0.00000000000E+00  0.29749409062E+03  0.29749409062E+03  0.00000000000E+00 0.  1.
         21   -1    0    0  501  503 -0.00000000000E+00 -0.00000000000E+00 -0.70194522355E+02  0.70194522355E+02  0.00000000000E+00 0. -1.
         24    1    1    2    0    0  0.45276273245E+01  0.52449497446E+01  0.12874532475E+03  0.15195586039E+03  0.80419002446E+02 0.  0.
          1    1    1    2  501    0  0.92749211048E+01 -0.37740309223E+02 -0.49837377519E+02  0.63199045086E+02  0.00000000000E+00 0. -1.
         -2    1    1    2    0  502 -0.13802548429E+02  0.32495359479E+02  0.14839162103E+03  0.15253370750E+03  0.00000000000E+00 0.  1.
<mgrwt>
<rscale>  2 0.77442726E+02</rscale>
<asrwt>0</asrwt>
<pdfrwt beam="1">  1       21 0.45768321E-01 0.77442726E+02</pdfrwt>
<pdfrwt beam="2">  1       21 0.10799157E-01 0.77442726E+02</pdfrwt>
<totfact> 0.33092993E+05</totfact>
</mgrwt>
</event>
<event>
 5    1  0.1365600E-001  0.2328876E+03  0.7546771E-02  0.1124624E+00
         21   -1    0    0  501  502  0.00000000000E+00  0.00000000000E+00  0.58045269215E+03  0.58045269215E+03  0.00000000000E+00 0. -1.
         21   -1    0    0  502  503 -0.00000000000E+00 -0.00000000000E+00 -0.10937972198E+03  0.10937972198E+03  0.00000000000E+00 0.  1.
         24    1    1    2    0    0  0.18948988871E+03 -0.81911167728E+02  0.25211128856E+03  0.33562356159E+03  0.80419002446E+02 0. -1.
          1    1    1    2  501    0 -0.20271462439E+03  0.48702204260E+02  0.23575519832E+03  0.31471516833E+03  0.00000000000E+00 0. -1.
         -2    1    1    2    0  503  0.13224735680E+02  0.33208963468E+02 -0.16793516715E+02  0.39493684205E+02  0.00000000000E+00 0.  1.
<mgrwt>
<rscale>  2 0.23288762E+03</rscale>
<asrwt>0</asrwt>
<pdfrwt beam="1">  1       21 0.89300412E-01 0.23288762E+03</pdfrwt>
<pdfrwt beam="2">  1       21 0.16827650E-01 0.23288762E+03</pdfrwt>
<totfact> 0.33295155E+04</totfact>
</mgrwt>
</event>
<event>
 5    1  0.1365600E-001  0.1032459E+03  0.7546771E-02  0.1273615E+00
         21   -1    0    0  501  502  0.00000000000E+00  0.00000000000E+00  0.10058058892E+03  0.10058058892E+03  0.00000000000E+00 0.  1.
         21   -1    0    0  502  503 -0.00000000000E+00 -0.00000000000E+00 -0.15073481449E+03  0.15073481449E+03  0.00000000000E+00 0.  1.
         24    1    1    2    0    0 -0.33139372242E+02  0.53286698187E+01  0.43215117450E+02  0.97269599800E+02  0.80419002446E+02 0.  1.
          1    1    1    2  501    0 -0.15787614783E+02 -0.50407066907E+02 -0.24285223708E+02  0.58136849461E+02  0.00000000000E+00 0. -1.
         -2    1    1    2    0  503  0.48926987025E+02  0.45078397088E+02 -0.69084119315E+02  0.95908954144E+02  0.00000000000E+00 0.  1.
<mgrwt>
<rscale>  2 0.10324585E+03</rscale>
<asrwt>0</asrwt>
<pdfrwt beam="1">  1       21 0.15473937E-01 0.10324585E+03</pdfrwt>
<pdfrwt beam="2">  1       21 0.23189971E-01 0.10324585E+03</pdfrwt>
<totfact> 0.65106760E+05</totfact>
</mgrwt>
</event>
<event>
 5    1  0.1365600E-001  0.1027227E+03  0.7546771E-02  0.1274673E+00
         21   -1    0    0  501  502  0.00000000000E+00  0.00000000000E+00  0.60770159304E+02  0.60770159304E+02  0.00000000000E+00 0. -1.
         21   -1    0    0  502  503 -0.00000000000E+00 -0.00000000000E+00 -0.45582051257E+03  0.45582051257E+03  0.00000000000E+00 0. -1.
         24    1    1    2    0    0 -0.82772287376E+01 -0.34705398334E+02  0.13993076492E+02  0.89084226063E+02  0.80419002446E+02 0. -1.
          1    1    1    2  501    0  0.43139639123E+02  0.60353691858E+02 -0.18499104708E+03  0.19931202694E+03  0.00000000000E+00 0. -1.
         -2    1    1    2    0  503 -0.34862410385E+02 -0.25648293524E+02 -0.22405238268E+03  0.22819441887E+03  0.00000000000E+00 0.  1.
<mgrwt>
<rscale>  2 0.10272267E+03</rscale>
<asrwt>0</asrwt>
<pdfrwt beam="1">  1       21 0.93492552E-02 0.10272267E+03</pdfrwt>
<pdfrwt beam="2">  1       21 0.70126234E-01 0.10272267E+03</pdfrwt>
<totfact> 0.17354919E+05</totfact>
</mgrwt>
</event>
<event>
 5    1  0.1365600E-001  0.1579245E+03  0.7546771E-02  0.1191060E+00
         21   -1    0    0  503  502  0.00000000000E+00  0.00000000000E+00  0.21944371317E+03  0.21944371317E+03  0.00000000000E+00 0.  1.
         21   -1    0    0  501  503 -0.00000000000E+00 -0.00000000000E+00 -0.78128648128E+03  0.78128648128E+03  0.00000000000E+00 0. -1.
         24    1    1    2    0    0  0.59236190825E+01  0.40883395578E+02  0.62282905661E+02  0.10978578045E+03  0.80419002446E+02 0.  1.
          1    1    1    2  501    0 -0.51372631474E+02  0.80686305334E+02 -0.72205059216E+03  0.72835876103E+03  0.00000000000E+00 0. -1.
         -2    1    1    2    0  502  0.45449012391E+02 -0.12156970091E+03  0.97924918398E+02  0.16258565297E+03  0.00000000000E+00 0.  1.
<mgrwt>
<rscale>  2 0.15792450E+03</rscale>
<asrwt>0</asrwt>
<pdfrwt beam="1">  1       21 0.33760572E-01 0.15792450E+03</pdfrwt>
<pdfrwt beam="2">  1       21 0.12019792E+00 0.15792450E+03</pdfrwt>
<totfact> 0.45832444E+03</totfact>
</mgrwt>
</event>
<event>
 5    1  0.1365600E-001  0.1263220E+03  0.7546771E-02  0.1233018E+00
         21   -1    0    0  501  502  0.00000000000E+00  0.00000000000E+00  0.13489785379E+03  0.13489785379E+03  0.00000000000E+00 0.  1.
         21   -1    0    0  502  503 -0.00000000000E+00 -0.00000000000E+00 -0.17898425734E+03  0.17898425734E+03  0.00000000000E+00 0. -1.
         24    1    1    2    0    0 -0.66257987429E+02 -0.14500881176E+02  0.62138778921E+02  0.12218363333E+03  0.80419002446E+02 0.  1.
          1    1    1    2  501    0  0.10461299897E+03 -0.43516594027E+01 -0.38383484930E+02  0.11151730094E+03  0.00000000000E+00 0. -1.
         -2    1    1    2    0  503 -0.38355011545E+02  0.18852540579E+02 -0.67841697539E+02  0.80181176855E+02  0.00000000000E+00 0.  1.
<mgrwt>
<rscale>  2 0.12632203E+03</rscale>
<asrwt>0</asrwt>
<pdfrwt beam="1">  1       21 0.20753516E-01 0.12632203E+03</pdfrwt>
<pdfrwt beam="2">  1       21 0.27536040E-01 0.12632203E+03</pdfrwt>
<totfact> 0.27502376E+05</totfact>
</mgrwt>
</event>
<event>
 5    1  0.1365600E-001  0.1178860E+03  0.7546771E-02  0.1246626E+00
         21   -1    0    0  501  502  0.00000000000E+00  0.00000000000E+00  0.40795818205E+03  0.40795818205E+03  0.00000000000E+00 0.  1.
         21   -1    0    0  502  503 -0.00000000000E+00 -0.00000000000E+00 -0.66732723512E+02  0.66732723512E+02  0.00000000000E+00 0. -1.
         24    1    1    2    0    0  0.36929068687E+02  0.28198031417E+02  0.13960076938E+03  0.16767371844E+03  0.80419002446E+02 0.  0.
          1    1    1    2  501    0 -0.26952019138E+01 -0.80413080095E+02  0.22607354109E+03  0.23996410887E+03  0.00000000000E+00 0. -1.
         -2    1    1    2    0  503 -0.34233866773E+02  0.52215048679E+02 -0.24448851930E+02  0.67053078255E+02  0.00000000000E+00 0.  1.
<mgrwt>
<rscale>  2 0.11788598E+03</rscale>
<asrwt>0</asrwt>
<pdfrwt beam="1">  1       21 0.62762796E-01 0.11788598E+03</pdfrwt>
<pdfrwt beam="2">  1       21 0.10266573E-01 0.11788598E+03</pdfrwt>
<totfact> 0.18625715E+05</totfact>
</mgrwt>
</event>
<event>
 5    1  0.1365600E-001  0.1856161E+03  0.7546771E-02  0.1162476E+00
         21   -1    0    0  501  502  0.00000000000E+00  0.00000000000E+00  0.12934923705E+04  0.12934923705E+04  0.00000000000E+00 0.  1.
         21   -1    0    0  502  503 -0.00000000000E+00 -0.00000000000E+00 -0.55811873234E+02  0.55811873234E+02  0.00000000000E+00 0.  1.
         24    1    1    2    0    0  0.11419368679E+03 -0.17788279124E+02  0.64859104996E+03  0.66369736102E+03  0.80419002446E+02 0.  1.
          1    1    1    2  501    0  0.54082659197E+02 -0.20534855955E+02  0.47547661579E+03  0.47898290836E+03  0.00000000000E+00 0. -1.
         -2    1    1    2    0  503 -0.16827634598E+03  0.38323135079E+02  0.11361283153E+03  0.20662397438E+03  0.00000000000E+00 0.  1.
<mgrwt>
<rscale>  2 0.18561605E+03</rscale>
<asrwt>0</asrwt>
<pdfrwt beam="1">  1       21 0.19899880E+00 0.18561605E+03</pdfrwt>
<pdfrwt beam="2">  1       21 0.85864430E-02 0.18561605E+03</pdfrwt>
<totfact> 0.14536260E+04</totfact>
</mgrwt>
</event>
<event>
 5    1  0.1365600E-001  0.1418630E+03  0.7546771E-02  0.1210844E+00
         21   -1    0    0  501  502  0.00000000000E+00  0.00000000000E+00  0.15275387586E+03  0.15275387586E+03  0.00000000000E+00 0.  1.
         21   -1    0    0  502  503 -0.00000000000E+00 -0.00000000000E+00 -0.18563223798E+03  0.18563223798E+03  0.00000000000E+00 0. -1.
         24    1    1    2    0    0 -0.86787176446E+01  0.51175257516E+02  0.44276594235E+02  0.10546022887E+03  0.80419002446E+02 0.  1.
          1    1    1    2  501    0  0.76338256959E+02  0.30276286473E+02  0.24949265509E+02  0.85829184125E+02  0.00000000000E+00 0. -1.
         -2    1    1    2    0  503 -0.67659539315E+02 -0.81451543988E+02 -0.10210422186E+03  0.14709670085E+03  0.00000000000E+00 0.  1.
<mgrwt>
<rscale>  2 0.14186296E+03</rscale>
<asrwt>0</asrwt>
<pdfrwt beam="1">  1       21 0.23500597E-01 0.14186296E+03</pdfrwt>
<pdfrwt beam="2">  1       21 0.28558806E-01 0.14186296E+03</pdfrwt>
<totfact> 0.20259665E+05</totfact>
</mgrwt>
</event>
<event>
 5    1  0.1365600E-001  0.1748292E+03  0.7546771E-02  0.1172903E+00
         21   -1    0    0  501  502  0.00000000000E+00  0.00000000000E+00  0.20515411690E+02  0.20515411690E+02  0.00000000000E+00 0. -1.
         21   -1    0    0  502  503 -0.00000000000E+00 -0.00000000000E+00 -0.25529856978E+04  0.25529856978E+04  0.00000000000E+00 0.  1.
         24    1    1    2    0    0 -0.14057851617E+02 -0.12227325284E+03 -0.32451251295E+03  0.35626388895E+03  0.80419002446E+02 0. -1.
          1    1    1    2  501    0  0.68507392727E+02 -0.30545867911E+00 -0.75386324255E+03  0.75696971183E+03  0.00000000000E+00 0. -1.
         -2    1    1    2    0  503 -0.54449541109E+02  0.12257871152E+03 -0.14540945306E+04  0.14602675087E+04  0.00000000000E+00 0.  1.
<mgrwt>
<rscale>  2 0.17482919E+03</rscale>
<asrwt>0</asrwt>
<pdfrwt beam="1">  1       21 0.31562167E-02 0.17482919E+03</pdfrwt>
<pdfrwt beam="2">  1       21 0.39276709E+00 0.17482919E+03</pdfrwt>
<totfact> 0.57616062E+03</totfact>
</mgrwt>
</event>
<event>
 5    1  0.1365600E-001  0.1088273E+03  0.7546771E-02  0.1262757E+00
         21   -1    0    0  501  502  0.00000000000E+00  0.00000000000E+00  0.28458752144E+02  0.28458752144E+02  0.00000000000E+00 0. -1.
         21   -1    0    0  502  503 -0.00000000000E+00 -0.00000000000E+00 -0.44453824523E+03  0.44453824523E+03  0.00000000000E+00 0.  1.
         24    1    1    2    0    0 -0.89433249680E+01  0.41507036640E+02 -0.18554427400E+03  0.20663182407E+03  0.80419002446E+02 0.  1.
          1    1    1    2  501    0  0.25660579031E+02  0.37787881122E+02 -0.46027641066E+02  0.64845454876E+02  0.00000000000E+00 0. -1.
         -2    1    1    2    0  503 -0.16717254063E+02 -0.79294917763E+02 -0.18450757802E+03  0.20151971842E+03  0.00000000000E+00 0.  1.
<mgrwt>
<rscale>  2 0.10882735E+03</rscale>
<asrwt>0</asrwt>
<pdfrwt beam="1">  1       21 0.43782697E-02 0.10882735E+03</pdfrwt>
<pdfrwt beam="2">  1       21 0.68390497E-01 0.10882735E+03</pdfrwt>
<totfact> 0.66176935E+05</totfact>
</mgrwt>
</event>
<event>
 5    1  0.1365600E-001  0.1215602E+03  0.7546771E-02  0.1240545E+00
         21   -1    0    0  501  502  0.00000000000E+00  0.00000000000E+00  0.11827203202E+03  0.11827203202E+03  0.00000000000E+00 0. -1.
         21   -1    0    0  502  503 -0.00000000000E+00 -0.00000000000E+00 -0.13074221045E+03  0.13074221045E+03  0.00000000000E+00 0.  1.
         24    1    1    2    0    0  0.61978639603E+02 -0.65604363613E+02  0.11429852135E+02  0.12142133983E+03  0.80419002446E+02 0. -1.
          1    1    1    2  501    0 -0.81604962462E+02  0.61507735683E+02 -0.89436305399E+01  0.10257953000E+03  0.00000000000E+00 0. -1.
         -2    1    1    2    0  503  0.19626322859E+02  0.40966279307E+01 -0.14956400017E+02  0.25013372640E+02  0.00000000000E+00 0.  1.
<mgrwt>
<rscale>  2 0.12156019E+03</rscale>
<asrwt>0</asrwt>
<pdfrwt beam="1">  1       21 0.18195697E-01 0.12156019E+03</pdfrwt>
<pdfrwt beam="2">  1       21 0.20114186E-01 0.12156019E+03</pdfrwt>
<totfact> 0.63208625E+05</totfact>
</mgrwt>
</event>
<event>
 5    1  0.1365600E-001  0.1075637E+03  0.7546771E-02  0.1265149E+00
         21   -1    0    0  503  502  0.00000000000E+00  0.00000000000E+00  0.25969867235E+03  0.25969867235E+03  0.00000000000E+00 0.  1.
         21   -1    0    0  501  503 -0.00000000000E+00 -0.00000000000E+00 -0.62499408655E+02  0.62499408655E+02  0.00000000000E+00 0. -1.
         24    1    1    2    0    0  0.62244050074E+01 -0.32742924460E+00  0.15230805954E+03  0.17234793699E+03  0.80419002446E+02 0.  1.
          1    1    1    2  501    0  0.20079968192E+02  0.63200347423E+02 -0.32745813195E+01  0.66394366627E+02  0.00000000000E+00 0. -1.
         -2    1    1    2    0  502 -0.26304373199E+02 -0.62872918178E+02  0.48165785468E+02  0.83455777388E+02  0.00000000000E+00 0.  1.
<mgrwt>
<rscale>  2 0.10756372E+03</rscale>
<asrwt>0</asrwt>
<pdfrwt beam="1">  1       21 0.39953641E-01 0.10756372E+03</pdfrwt>
<pdfrwt beam="2">  1       21 0.96152938E-02 0.10756372E+03</pdfrwt>
<totfact> 0.52983670E+05</totfact>
</mgrwt>
</event>
<event>
 5    1  0.1365600E-001  0.1047192E+03  0.7546771E-02  0.1270674E+00
         21   -1    0    0  503  502  0.00000000000E+00  0.00000000000E+00  0.29002435688E+02  0.29002435688E+02  0.00000000000E+00 0. -1.
         21   -1    0    0  501  503 -0.00000000000E+00 -0.00000000000E+00 -0.42676414676E+03  0.42676414676E+03  0.00000000000E+00 0. -1.
         24    1    1    2    0    0 -0.28976993972E+02 -0.26638044935E+02 -0.99812183727E+02  0.13408556817E+03  0.80419002446E+02 0. -1.
          1    1    1    2  501    0  0.72416658238E+02  0.88199915315E+01 -0.20401546471E+03  0.21666627444E+03  0.00000000000E+00 0. -1.
         -2    1    1    2    0  502 -0.43439664267E+02  0.17818053404E+02 -0.93934062644E+02  0.10501473984E+03  0.00000000000E+00 0.  1.
<mgrwt>
<rscale>  2 0.10471925E+03</rscale>
<asrwt>0</asrwt>
<pdfrwt beam="1">  1       21 0.44619134E-02 0.10471925E+03</pdfrwt>
<pdfrwt beam="2">  1       21 0.65656019E-01 0.10471925E+03</pdfrwt>
<totfact> 0.70013812E+05</totfact>
</mgrwt>
</event>
<event>
 5    1  0.1365600E-001  0.1402116E+03  0.7546771E-02  0.1213045E+00
         21   -1    0    0  501  502  0.00000000000E+00  0.00000000000E+00  0.85720014343E+03  0.85720014343E+03  0.00000000000E+00 0. -1.
         21   -1    0    0  502  503 -0.00000000000E+00 -0.00000000000E+00 -0.40294824890E+02  0.40294824890E+02  0.00000000000E+00 0. -1.
         24    1    1    2    0    0 -0.60143071451E+01  0.77315404864E+02  0.64577116878E+03  0.65536361060E+03  0.80419002446E+02 0. -1.
          1    1    1    2  501    0  0.77268134218E+02 -0.28608870802E+02  0.62685449173E+02  0.10352921130E+03  0.00000000000E+00 0. -1.
         -2    1    1    2    0  503 -0.71253827073E+02 -0.48706534062E+02  0.10844870059E+03  0.13860214642E+03  0.00000000000E+00 0.  1.
<mgrwt>
<rscale>  2 0.14021157E+03</rscale>
<asrwt>0</asrwt>
<pdfrwt beam="1">  1       21 0.13187693E+00 0.14021157E+03</pdfrwt>
<pdfrwt beam="2">  1       21 0.61992045E-02 0.14021157E+03</pdfrwt>
<totfact> 0.79769193E+04</totfact>
</mgrwt>
</event>
<event>
 5    1  0.1365600E-001  0.1002305E+03  0.7546771E-02  0.1279812E+00
         21   -1    0    0  501  502  0.00000000000E+00  0.00000000000E+00  0.10139996711E+03  0.10139996711E+03  0.00000000000E+00 0. -1.
         21   -1    0    0  502  503 -0.00000000000E+00 -0.00000000000E+00 -0.19912578275E+03  0.19912578275E+03  0.00000000000E+00 0.  1.
         24    1    1    2    0    0 -0.79959023706E+02 -0.25114251704E+02  0.51453707628E+02  0.12703885663E+03  0.80419002446E+02 0. -1.
          1    1    1    2  501    0  0.45018626869E+02  0.93636731568E+01 -0.54268691758E+02  0.71129783110E+02  0.00000000000E+00 0. -1.
         -2    1    1    2    0  503  0.34940396837E+02  0.15750578547E+02 -0.94910831504E+02  0.10235711012E+03  0.00000000000E+00 0.  1.
<mgrwt>
<rscale>  2 0.10023047E+03</rscale>
<asrwt>0</asrwt>
<pdfrwt beam="1">  1       21 0.15599995E-01 0.10023047E+03</pdfrwt>
<pdfrwt beam="2">  1       21 0.30634735E-01 0.10023047E+03</pdfrwt>
<totfact> 0.37904015E+05</totfact>
</mgrwt>
</event>
<event>
 5    1  0.1365600E-001  0.9417566E+02  0.7546771E-02  0.1293044E+00
         21   -1    0    0  503  502  0.00000000000E+00  0.00000000000E+00  0.97739941146E+03  0.97739941146E+03  0.00000000000E+00 0.  1.
         21   -1    0    0  501  503 -0.00000000000E+00 -0.00000000000E+00 -0.12459928163E+02  0.12459928163E+02  0.00000000000E+00 0. -1.
         24    1    1    2    0    0  0.59827182572E+01  0.20645040039E+02  0.68064888714E+03  0.68572015729E+03  0.80419002446E+02 0.  1.
          1    1    1    2  501    0 -0.46868151324E+02  0.16681076660E+02  0.99651630747E+02  0.11137921457E+03  0.00000000000E+00 0. -1.
         -2    1    1    2    0  502  0.40885433067E+02 -0.37326116700E+02  0.18463896541E+03  0.19275996776E+03  0.00000000000E+00 0.  1.
<mgrwt>
<rscale>  2 0.94175659E+02</rscale>
<asrwt>0</asrwt>
<pdfrwt beam="1">  1       21 0.15036908E+00 0.94175659E+02</pdfrwt>
<pdfrwt beam="2">  1       21 0.19169128E-02 0.94175659E+02</pdfrwt>
<totfact> 0.40367308E+05</totfact>
</mgrwt>
</event>
<event>
 5    1  0.1365600E-001  0.7093323E+02  0.7546771E-02  0.1356948E+00
         21   -1    0    0  501  502  0.00000000000E+00  0.00000000000E+00  0.31362102532E+04  0.31362102532E+04  0.00000000000E+00 0. -1.
         21   -1    0    0  502  503 -0.00000000000E+00 -0.00000000000E+00 -0.16614011868E+01  0.16614011868E+01  0.00000000000E+00 0.  1.
         24    1    1    2    0    0  0.35894134018E+02  0.17021622983E+02  0.21383474278E+04  0.21402278062E+04  0.80419002446E+02 0. -1.
          1    1    1    2  501    0 -0.16044480133E+02 -0.25867345436E+02  0.69074959770E+03  0.69141995316E+03  0.00000000000E+00 0. -1.
         -2    1    1    2    0  503 -0.19849653885E+02  0.88457224530E+01  0.30545182647E+03  0.30622389498E+03  0.00000000000E+00 0.  1.
<mgrwt>
<rscale>  2 0.70933232E+02</rscale>
<asrwt>0</asrwt>
<pdfrwt beam="1">  1       21 0.48248915E+00 0.70933232E+02</pdfrwt>
<pdfrwt beam="2">  1       21 0.25560269E-03 0.70933232E+02</pdfrwt>
<totfact> 0.98174750E+04</totfact>
</mgrwt>
</event>
<event>
 5    1  0.1365600E-001  0.1580637E+03  0.7546771E-02  0.1190900E+00
         21   -1    0    0  503  502  0.00000000000E+00  0.00000000000E+00  0.17592176912E+02  0.17592176912E+02  0.00000000000E+00 0. -1.
         21   -1    0    0  501  503 -0.00000000000E+00 -0.00000000000E+00 -0.15253445571E+04  0.15253445571E+04  0.00000000000E+00 0. -1.
         24    1    1    2    0    0  0.11212706693E+03  0.34088028532E+02 -0.88116070295E+03  0.89255020767E+03  0.80419002446E+02 0. -1.
          1    1    1    2  501    0 -0.12349953770E+03  0.14266528347E+02 -0.42942461299E+03  0.44705834953E+03  0.00000000000E+00 0. -1.
         -2    1    1    2    0  502  0.11372470771E+02 -0.48354556879E+02 -0.19716706427E+03  0.20332817684E+03  0.00000000000E+00 0.  1.
<mgrwt>
<rscale>  2 0.15806369E+03</rscale>
<asrwt>0</asrwt>
<pdfrwt beam="1">  1       21 0.27064875E-02 0.15806369E+03</pdfrwt>
<pdfrwt beam="2">  1       21 0.23466850E+00 0.15806369E+03</pdfrwt>
<totfact> 0.63095995E+04</totfact>
</mgrwt>
</event>
<event>
 5    1  0.1365600E-001  0.1837805E+03  0.7546771E-02  0.1164194E+00
         21   -1    0    0  501  502  0.00000000000E+00  0.00000000000E+00  0.30278148311E+02  0.30278148311E+02  0.00000000000E+00 0.  1.
         21   -1    0    0  502  503 -0.00000000000E+00 -0.00000000000E+00 -0.16623242919E+04  0.16623242919E+04  0.00000000000E+00 0.  1.
         24    1    1    2    0    0 -0.16623335199E+03 -0.30689888188E+02 -0.35876438714E+03  0.40466590909E+03  0.80419002446E+02 0.  1.
          1    1    1    2  501    0  0.57754066090E+02 -0.19337045923E+02 -0.23340031105E+03  0.24121600008E+03  0.00000000000E+00 0. -1.
         -2    1    1    2    0  503  0.10847928590E+03  0.50026934111E+02 -0.10398814454E+04  0.10467205311E+04  0.00000000000E+00 0.  1.
<mgrwt>
<rscale>  2 0.18378050E+03</rscale>
<asrwt>0</asrwt>
<pdfrwt beam="1">  1       21 0.46581775E-02 0.18378050E+03</pdfrwt>
<pdfrwt beam="2">  1       21 0.25574216E+00 0.18378050E+03</pdfrwt>
<totfact> 0.18810087E+04</totfact>
</mgrwt>
</event>
<event>
 5    1  0.1365600E-001  0.2397210E+03  0.7546771E-02  0.1119979E+00
         21   -1    0    0  501  502  0.00000000000E+00  0.00000000000E+00  0.62740658311E+03  0.62740658311E+03  0.00000000000E+00 0.  1.
         21   -1    0    0  502  503 -0.00000000000E+00 -0.00000000000E+00 -0.16429042955E+03  0.16429042955E+03  0.00000000000E+00 0. -1.
         24    1    1    2    0    0 -0.19714889552E+02 -0.18435862921E+02  0.25141987356E+03  0.26534454335E+03  0.80419002446E+02 0.  0.
          1    1    1    2  501    0 -0.15926572336E+03 -0.92366569273E+02  0.25193459732E+03  0.31203877176E+03  0.00000000000E+00 0. -1.
         -2    1    1    2    0  503  0.17898061291E+03  0.11080243219E+03 -0.40238317309E+02  0.21431369755E+03  0.00000000000E+00 0.  1.
<mgrwt>
<rscale>  2 0.23972103E+03</rscale>
<asrwt>0</asrwt>
<pdfrwt beam="1">  1       21 0.96524088E-01 0.23972103E+03</pdfrwt>
<pdfrwt beam="2">  1       21 0.25275451E-01 0.23972103E+03</pdfrwt>
<totfact> 0.12854425E+04</totfact>
</mgrwt>
</event>
<event>
 5    1  0.1365600E-001  0.8112152E+02  0.7546771E-02  0.1325899E+00
         21   -1    0    0  501  502  0.00000000000E+00  0.00000000000E+00  0.37619775894E+02  0.37619775894E+02  0.00000000000E+00 0.  1.
         21   -1    0    0  502  503 -0.00000000000E+00 -0.00000000000E+00 -0.24929498544E+03  0.24929498544E+03  0.00000000000E+00 0. -1.
         24    1    1    2    0    0 -0.58970893320E+02 -0.47445141978E+01 -0.46125459657E+02  0.10997659140E+03  0.80419002446E+02 0.  1.
          1    1    1    2  501    0  0.38094670121E+02 -0.65768668776E+01 -0.99209068309E+02  0.10647487170E+03  0.00000000000E+00 0. -1.
         -2    1    1    2    0  503  0.20876223199E+02  0.11321381075E+02 -0.66340681579E+02  0.70463298226E+02  0.00000000000E+00 0.  1.
<mgrwt>
<rscale>  2 0.81121522E+02</rscale>
<asrwt>0</asrwt>
<pdfrwt beam="1">  1       21 0.57876576E-02 0.81121522E+02</pdfrwt>
<pdfrwt beam="2">  1       21 0.38353076E-01 0.81121522E+02</pdfrwt>
<totfact> 0.13587153E+06</totfact>
</mgrwt>
</event>
<event>
 5    1  0.1365600E-001  0.1201392E+03  0.7546771E-02  0.1242868E+00
         21   -1    0    0  501  502  0.00000000000E+00  0.00000000000E+00  0.46162471552E+03  0.46162471552E+03  0.00000000000E+00 0.  1.
         21   -1    0    0  502  503 -0.00000000000E+00 -0.00000000000E+00 -0.33681341766E+02  0.33681341766E+02  0.00000000000E+00 0.  1.
         24    1    1    2    0    0 -0.84092793047E+02 -0.14256177653E+02  0.27304270513E+03  0.29714368784E+03  0.80419002446E+02 0.  1.
          1    1    1    2  501    0 -0.81954129338E+01 -0.22322259466E+02  0.23043935868E+02  0.33113004109E+02  0.00000000000E+00 0. -1.
         -2    1    1    2    0  503  0.92288205981E+02  0.36578437119E+02  0.13185673276E+03  0.16504936534E+03  0.00000000000E+00 0.  1.
<mgrwt>
<rscale>  2 0.12013924E+03</rscale>
<asrwt>0</asrwt>
<pdfrwt beam="1">  1       21 0.71019183E-01 0.12013924E+03</pdfrwt>
<pdfrwt beam="2">  1       21 0.51817452E-02 0.12013924E+03</pdfrwt>
<totfact> 0.45973451E+05</totfact>
</mgrwt>
</event>
<event>
 5    1  0.1365600E-001  0.7243863E+02  0.7546771E-02  0.1351991E+00
         21   -1    0    0  503  502  0.00000000000E+00  0.00000000000E+00  0.19200231931E+02  0.19200231931E+02  0.00000000000E+00 0. -1.
         21   -1    0    0  501  503 -0.00000000000E+00 -0.00000000000E+00 -0.33489300369E+03  0.33489300369E+03  0.00000000000E+00 0.  1.
         24    1    1    2    0    0 -0.13726220986E+02 -0.10340021624E+02 -0.10000697132E+03  0.12947561723E+03  0.80419002446E+02 0. -1.
          1    1    1    2  501    0 -0.23463295689E+02 -0.17728265677E+01 -0.75984153972E+02  0.79544080946E+02  0.00000000000E+00 0. -1.
         -2    1    1    2    0  502  0.37189516675E+02  0.12112848192E+02 -0.13970164647E+03  0.14507353745E+03  0.00000000000E+00 0.  1.
<mgrwt>
<rscale>  2 0.72438632E+02</rscale>
<asrwt>0</asrwt>
<pdfrwt beam="1">  1       21 0.29538819E-02 0.72438632E+02</pdfrwt>
<pdfrwt beam="2">  1       21 0.51522000E-01 0.72438632E+02</pdfrwt>
<totfact> 0.22636767E+06</totfact>
</mgrwt>
</event>
<event>
 5    1  0.1365600E-001  0.1534397E+03  0.7546771E-02  0.1196309E+00
         21   -1    0    0  503  502  0.00000000000E+00  0.00000000000E+00  0.49600876546E+02  0.49600876546E+02  0.00000000000E+00 0.  1.
         21   -1    0    0  501  503 -0.00000000000E+00 -0.00000000000E+00 -0.88183279227E+03  0.88183279227E+03  0.00000000000E+00 0.  1.
         24    1    1    2    0    0  0.87898190679E+02 -0.99567238298E+02 -0.10472863711E+03  0.18728328877E+03  0.80419002446E+02 0.  1.
          1    1    1    2  501    0 -0.28955796302E+02 -0.70393942445E+01 -0.23137089408E+03  0.23328197924E+03  0.00000000000E+00 0. -1.
         -2    1    1    2    0  502 -0.58942394378E+02  0.10660663254E+03 -0.49613238453E+03  0.51086840080E+03  0.00000000000E+00 0.  1.
<mgrwt>
<rscale>  2 0.15343973E+03</rscale>
<asrwt>0</asrwt>
<pdfrwt beam="1">  1       21 0.76309046E-02 0.15343973E+03</pdfrwt>
<pdfrwt beam="2">  1       21 0.13566657E+00 0.15343973E+03</pdfrwt>
<totfact> 0.51657058E+04</totfact>
</mgrwt>
</event>
<event>
 5    1  0.1365600E-001  0.3295550E+03  0.7546771E-02  0.1071334E+00
         21   -1    0    0  503  502  0.00000000000E+00  0.00000000000E+00  0.23115639451E+03  0.23115639451E+03  0.00000000000E+00 0. -1.
         21   -1    0    0  501  503 -0.00000000000E+00 -0.00000000000E+00 -0.10880168025E+04  0.10880168025E+04  0.00000000000E+00 0. -1.
         24    1    1    2    0    0 -0.10713227273E+03 -0.29991912628E+03  0.42251038466E+02  0.33118147951E+03  0.80419002446E+02 0. -1.
          1    1    1    2  501    0  0.54818599606E+02  0.25753895377E+03 -0.87920128373E+03  0.91778335619E+03  0.00000000000E+00 0. -1.
         -2    1    1    2    0  502  0.52313673122E+02  0.42380172506E+02 -0.19910162723E+02  0.70208361303E+02  0.00000000000E+00 0.  1.
<mgrwt>
<rscale>  2 0.32955496E+03</rscale>
<asrwt>0</asrwt>
<pdfrwt beam="1">  1       21 0.35562521E-01 0.32955496E+03</pdfrwt>
<pdfrwt beam="2">  1       21 0.16738721E+00 0.32955496E+03</pdfrwt>
<totfact> 0.15270386E+03</totfact>
</mgrwt>
</event>
<event>
 5    1  0.1365600E-001  0.1073102E+03  0.7546771E-02  0.1265634E+00
         21   -1    0    0  503  502  0.00000000000E+00  0.00000000000E+00  0.23383809144E+03  0.23383809144E+03  0.00000000000E+00 0.  1.
         21   -1    0    0  501  503 -0.00000000000E+00 -0.00000000000E+00 -0.75025875811E+02  0.75025875811E+02  0.00000000000E+00 0. -1.
         24    1    1    2    0    0  0.66733108867E+02 -0.52482794742E+02  0.17342571607E+03  0.20916846443E+03  0.80419002446E+02 0.  1.
          1    1    1    2  501    0 -0.21879327420E+02 -0.71894659943E+01 -0.93635501823E+01  0.24861002828E+02  0.00000000000E+00 0. -1.
         -2    1    1    2    0  502 -0.44853781448E+02  0.59672260736E+02 -0.52499502578E+01  0.74834499994E+02  0.00000000000E+00 0.  1.
<mgrwt>
<rscale>  2 0.10731020E+03</rscale>
<asrwt>0</asrwt>
<pdfrwt beam="1">  1       21 0.35975091E-01 0.10731020E+03</pdfrwt>
<pdfrwt beam="2">  1       21 0.11542443E-01 0.10731020E+03</pdfrwt>
<totfact> 0.47366745E+05</totfact>
</mgrwt>
</event>
<event>
 5    1  0.1365600E-001  0.1174870E+03  0.7546771E-02  0.1247301E+00
         21   -1    0    0  501  502  0.00000000000E+00  0.00000000000E+00  0.36412127297E+03  0.36412127297E+03  0.00000000000E+00 0. -1.
         21   -1    0    0  502  503 -0.00000000000E+00 -0.00000000000E+00 -0.12608197055E+03  0.12608197055E+03  0.00000000000E+00 0.  1.
         24    1    1    2    0    0 -0.28870191491E+01  0.48225346936E+02  0.29040605621E+03  0.30518340782E+03  0.80419002446E+02 0.  0.
          1    1    1    2  501    0  0.53944796347E+02 -0.67655512894E+02  0.25220051536E+02  0.90129686992E+02  0.00000000000E+00 0. -1.
         -2    1    1    2    0  503 -0.51057777198E+02  0.19430165958E+02 -0.77586805333E+02  0.94890148716E+02  0.00000000000E+00 0.  1.
<mgrwt>
<rscale>  2 0.11748703E+03</rscale>
<asrwt>0</asrwt>
<pdfrwt beam="1">  1       21 0.56018657E-01 0.11748703E+03</pdfrwt>
<pdfrwt beam="2">  1       21 0.19397226E-01 0.11748703E+03</pdfrwt>
<totfact> 0.75813126E+04</totfact>
</mgrwt>
</event>
<event>
 5    1  0.1365600E-001  0.3722998E+03  0.7546771E-02  0.1053817E+00
         21   -1    0    0  503  502  0.00000000000E+00  0.00000000000E+00  0.52320958944E+02  0.52320958944E+02  0.00000000000E+00 0.  1.
         21   -1    0    0  501  503 -0.00000000000E+00 -0.00000000000E+00 -0.33831543033E+04  0.33831543033E+04  0.00000000000E+00 0. -1.
         24    1    1    2    0    0  0.47478589326E+02 -0.32200632046E+01 -0.46803552806E+03  0.47727251831E+03  0.80419002446E+02 0.  1.
          1    1    1    2  501    0 -0.33951656422E+03 -0.77331218527E+02 -0.22253738048E+04  0.22524520385E+04  0.00000000000E+00 0. -1.
         -2    1    1    2    0  502  0.29203797489E+03  0.80551281732E+02 -0.63742401153E+03  0.70575070545E+03  0.00000000000E+00 0.  1.
<mgrwt>
<rscale>  2 0.37229975E+03</rscale>
<asrwt>0</asrwt>
<pdfrwt beam="1">  1       21 0.80493759E-02 0.37229975E+03</pdfrwt>
<pdfrwt beam="2">  1       21 0.52048543E+00 0.37229975E+03</pdfrwt>
<totfact> 0.12866021E+02</totfact>
</mgrwt>
</event>
<event>
 5    1  0.1365600E-001  0.1283058E+03  0.7546771E-02  0.1229992E+00
         21   -1    0    0  503  502  0.00000000000E+00  0.00000000000E+00  0.27620076796E+03  0.27620076796E+03  0.00000000000E+00 0. -1.
         21   -1    0    0  501  503 -0.00000000000E+00 -0.00000000000E+00 -0.12353734785E+03  0.12353734785E+03  0.00000000000E+00 0. -1.
         24    1    1    2    0    0 -0.10311002015E+02  0.45098274861E+02  0.16358554407E+03  0.18806280159E+03  0.80419002446E+02 0. -1.
          1    1    1    2  501    0  0.72270186319E+01 -0.10430171870E+03 -0.71697743827E+02  0.12677399099E+03  0.00000000000E+00 0. -1.
         -2    1    1    2    0  502  0.30839833829E+01  0.59203443837E+02  0.60775619870E+02  0.84901323231E+02  0.00000000000E+00 0.  1.
<mgrwt>
<rscale>  2 0.12830576E+03</rscale>
<asrwt>0</asrwt>
<pdfrwt beam="1">  1       21 0.42492426E-01 0.12830576E+03</pdfrwt>
<pdfrwt beam="2">  1       21 0.19005746E-01 0.12830576E+03</pdfrwt>
<totfact> 0.13819999E+05</totfact>
</mgrwt>
</event>
<event>
 5    1  0.1365600E-001  0.1261315E+03  0.7546771E-02  0.1233312E+00
         21   -1    0    0  503  502  0.00000000000E+00  0.00000000000E+00  0.96717126057E+03  0.96717126057E+03  0.00000000000E+00 0.  1.
         21   -1    0    0  501  503 -0.00000000000E+00 -0.00000000000E+00 -0.54009317244E+02  0.54009317244E+02  0.00000000000E+00 0.  1.
         24    1    1    2    0    0 -0.17154099664E+02  0.86385814137E+02  0.81606673552E+03  0.82473565753E+03  0.80419002446E+02 0.  1.
          1    1    1    2  501    0 -0.27030321892E+02  0.84953422444E+01 -0.23466389412E+02  0.36789680258E+02  0.00000000000E+00 0. -1.
         -2    1    1    2    0  502  0.44184421557E+02 -0.94881156382E+02  0.12056159721E+03  0.15965524002E+03  0.00000000000E+00 0.  1.
<mgrwt>
<rscale>  2 0.12613147E+03</rscale>
<asrwt>0</asrwt>
<pdfrwt beam="1">  1       21 0.14879557E+00 0.12613147E+03</pdfrwt>
<pdfrwt beam="2">  1       21 0.83091265E-02 0.12613147E+03</pdfrwt>
<totfact> 0.35828586E+04</totfact>
</mgrwt>
</event>
<event>
 5    1  0.1365600E-001  0.9895300E+02  0.7546771E-02  0.1282513E+00
         21   -1    0    0  503  502  0.00000000000E+00  0.00000000000E+00  0.88632098593E+02  0.88632098593E+02  0.00000000000E+00 0.  1.
         21   -1    0    0  501  503 -0.00000000000E+00 -0.00000000000E+00 -0.12515878549E+03  0.12515878549E+03  0.00000000000E+00 0. -1.
         24    1    1    2    0    0 -0.15497017308E+01 -0.98569564243E+01 -0.14232205154E+02  0.82275955074E+02  0.80419002446E+02 0. -1.
          1    1    1    2  501    0  0.48968350264E+02  0.37773386948E+02 -0.40068032394E+02  0.73689723225E+02  0.00000000000E+00 0. -1.
         -2    1    1    2    0  502 -0.47418648533E+02 -0.27916430523E+02  0.17773550646E+02  0.57825205788E+02  0.00000000000E+00 0.  1.
<mgrwt>
<rscale>  2 0.98952995E+02</rscale>
<asrwt>0</asrwt>
<pdfrwt beam="1">  1       21 0.13635708E-01 0.98952995E+02</pdfrwt>
<pdfrwt beam="2">  1       21 0.19255198E-01 0.98952995E+02</pdfrwt>
<totfact> 0.11497933E+06</totfact>
</mgrwt>
</event>
<event>
 5    1  0.1365600E-001  0.7345650E+02  0.7546771E-02  0.1348718E+00
         21   -1    0    0  503  502  0.00000000000E+00  0.00000000000E+00  0.28444278639E+03  0.28444278639E+03  0.00000000000E+00 0.  1.
         21   -1    0    0  501  503 -0.00000000000E+00 -0.00000000000E+00 -0.36961152374E+02  0.36961152374E+02  0.00000000000E+00 0. -1.
         24    1    1    2    0    0 -0.16297747154E+02  0.11170816087E+02  0.16835637667E+03  0.18762059912E+03  0.80419002446E+02 0.  0.
          1    1    1    2  501    0 -0.19454299007E+02  0.10688480056E+02 -0.17627802780E+02  0.28345242751E+02  0.00000000000E+00 0. -1.
         -2    1    1    2    0  502  0.35752046160E+02 -0.21859296143E+02  0.96753060133E+02  0.10543809690E+03  0.00000000000E+00 0.  1.
<mgrwt>
<rscale>  2 0.73456498E+02</rscale>
<asrwt>0</asrwt>
<pdfrwt beam="1">  1       21 0.43760427E-01 0.73456498E+02</pdfrwt>
<pdfrwt beam="2">  1       21 0.56863313E-02 0.73456498E+02</pdfrwt>
<totfact> 0.10753457E+06</totfact>
</mgrwt>
</event>
<event>
 5    1  0.1365600E-001  0.9575653E+02  0.7546771E-02  0.1289481E+00
         21   -1    0    0  501  502  0.00000000000E+00  0.00000000000E+00  0.30978829520E+02  0.30978829520E+02  0.00000000000E+00 0.  1.
         21   -1    0    0  502  503 -0.00000000000E+00 -0.00000000000E+00 -0.70633564352E+03  0.70633564352E+03  0.00000000000E+00 0.  1.
         24    1    1    2    0    0  0.36182867354E+02 -0.49908267619E+02 -0.76773187021E+02  0.12712738991E+03  0.80419002446E+02 0.  1.
          1    1    1    2  501    0 -0.47882497222E+02  0.10423431558E+02 -0.11702692953E+03  0.12687270668E+03  0.00000000000E+00 0. -1.
         -2    1    1    2    0  503  0.11699629868E+02  0.39484836061E+02 -0.48155669745E+03  0.48331437644E+03  0.00000000000E+00 0.  1.
<mgrwt>
<rscale>  2 0.95756526E+02</rscale>
<asrwt>0</asrwt>
<pdfrwt beam="1">  1       21 0.47659736E-02 0.95756526E+02</pdfrwt>
<pdfrwt beam="2">  1       21 0.10866703E+00 0.95756526E+02</pdfrwt>
<totfact> 0.20283985E+05</totfact>
</mgrwt>
</event>
<event>
 5    1  0.1365600E-001  0.1086624E+03  0.7546771E-02  0.1263067E+00
         21   -1    0    0  503  502  0.00000000000E+00  0.00000000000E+00  0.23976276664E+02  0.23976276664E+02  0.00000000000E+00 0. -1.
         21   -1    0    0  501  503 -0.00000000000E+00 -0.00000000000E+00 -0.52171874925E+03  0.52171874925E+03  0.00000000000E+00 0.  1.
         24    1    1    2    0    0 -0.75822214219E+02 -0.19135689421E+02 -0.19400693941E+03  0.22410062756E+03  0.80419002446E+02 0. -1.
          1    1    1    2  501    0  0.65349342252E+02  0.43588430689E+02 -0.21223326569E+03  0.22630388174E+03  0.00000000000E+00 0. -1.
         -2    1    1    2    0  502  0.10472871968E+02 -0.24452741268E+02 -0.91502267483E+02  0.95290516618E+02  0.00000000000E+00 0.  1.
<mgrwt>
<rscale>  2 0.10866241E+03</rscale>
<asrwt>0</asrwt>
<pdfrwt beam="1">  1       21 0.36886578E-02 0.10866241E+03</pdfrwt>
<pdfrwt beam="2">  1       21 0.80264425E-01 0.10866241E+03</pdfrwt>
<totfact> 0.61870358E+05</totfact>
</mgrwt>
</event>
<event>
 5    1  0.1365600E-001  0.8812482E+02  0.7546771E-02  0.1307457E+00
         21   -1    0    0  503  502  0.00000000000E+00  0.00000000000E+00  0.25967194824E+03  0.25967194824E+03  0.00000000000E+00 0. -1.
         21   -1    0    0  501  503 -0.00000000000E+00 -0.00000000000E+00 -0.68635701093E+02  0.68635701093E+02  0.00000000000E+00 0.  1.
         24    1    1    2    0    0  0.25631599228E+02  0.33887793753E+01  0.19957174024E+03  0.21671307796E+03  0.80419002446E+02 0. -1.
          1    1    1    2  501    0 -0.41661541347E+02 -0.36243340260E+02 -0.35958123896E+02  0.65895754148E+02  0.00000000000E+00 0. -1.
         -2    1    1    2    0  502  0.16029942118E+02  0.32854560885E+02  0.27422630809E+02  0.45698817225E+02  0.00000000000E+00 0.  1.
<mgrwt>
<rscale>  2 0.88124817E+02</rscale>
<asrwt>0</asrwt>
<pdfrwt beam="1">  1       21 0.39949530E-01 0.88124817E+02</pdfrwt>
<pdfrwt beam="2">  1       21 0.10559339E-01 0.88124817E+02</pdfrwt>
<totfact> 0.45073945E+05</totfact>
</mgrwt>
</event>
<event>
 5    1  0.1365600E-001  0.1248599E+03  0.7546771E-02  0.1235288E+00
         21   -1    0    0  501  502  0.00000000000E+00  0.00000000000E+00  0.18369192858E+02  0.18369192858E+02  0.00000000000E+00 0. -1.
         21   -1    0    0  502  503 -0.00000000000E+00 -0.00000000000E+00 -0.10927161741E+04  0.10927161741E+04  0.00000000000E+00 0.  1.
         24    1    1    2    0    0  0.74673430547E+02  0.22655990844E+02 -0.24042196720E+03  0.26525337588E+03  0.80419002446E+02 0. -1.
          1    1    1    2  501    0  0.28198509988E+02 -0.20333884133E+02 -0.13652922457E+03  0.14088595378E+03  0.00000000000E+00 0. -1.
         -2    1    1    2    0  503 -0.10287194054E+03 -0.23221067106E+01 -0.69739578948E+03  0.70494603731E+03  0.00000000000E+00 0.  1.
<mgrwt>
<rscale>  2 0.12485989E+03</rscale>
<asrwt>0</asrwt>
<pdfrwt beam="1">  1       21 0.28260294E-02 0.12485989E+03</pdfrwt>
<pdfrwt beam="2">  1       21 0.16811020E+00 0.12485989E+03</pdfrwt>
<totfact> 0.15871435E+05</totfact>
</mgrwt>
</event>
<event>
 5    1  0.1365600E-001  0.1008268E+03  0.7546771E-02  0.1278567E+00
         21   -1    0    0  503  502  0.00000000000E+00  0.00000000000E+00  0.22574963348E+03  0.22574963348E+03  0.00000000000E+00 0. -1.
         21   -1    0    0  501  503 -0.00000000000E+00 -0.00000000000E+00 -0.13373935980E+03  0.13373935980E+03  0.00000000000E+00 0. -1.
         24    1    1    2    0    0  0.39973620873E+02  0.31049360735E+02  0.18968455926E+03  0.21215419191E+03  0.80419002446E+02 0. -1.
          1    1    1    2  501    0 -0.53625703077E+02 -0.56408729648E+02 -0.86711040568E+02  0.11651809030E+03  0.00000000000E+00 0. -1.
         -2    1    1    2    0  502  0.13652082204E+02  0.25359368913E+02 -0.10963245011E+02  0.30816711073E+02  0.00000000000E+00 0.  1.
<mgrwt>
<rscale>  2 0.10082678E+03</rscale>
<asrwt>0</asrwt>
<pdfrwt beam="1">  1       21 0.34730713E-01 0.10082678E+03</pdfrwt>
<pdfrwt beam="2">  1       21 0.20575286E-01 0.10082678E+03</pdfrwt>
<totfact> 0.17973975E+05</totfact>
</mgrwt>
</event>
<event>
 5    1  0.1365600E-001  0.9985734E+02  0.7546771E-02  0.1280596E+00
         21   -1    0    0  503  502  0.00000000000E+00  0.00000000000E+00  0.31994853338E+03  0.31994853338E+03  0.00000000000E+00 0.  1.
         21   -1    0    0  501  503 -0.00000000000E+00 -0.00000000000E+00 -0.94202272800E+02  0.94202272800E+02  0.00000000000E+00 0. -1.
         24    1    1    2    0    0 -0.43473427525E+02 -0.55444458189E+02  0.24159200424E+03  0.26419299633E+03  0.80419002446E+02 0.  1.
          1    1    1    2  501    0  0.21967629797E+02 -0.98337228181E+01 -0.62443336603E+02  0.66921215989E+02  0.00000000000E+00 0. -1.
         -2    1    1    2    0  502  0.21505797728E+02  0.65278181007E+02  0.46597592944E+02  0.83036593859E+02  0.00000000000E+00 0.  1.
<mgrwt>
<rscale>  2 0.99857337E+02</rscale>
<asrwt>0</asrwt>
<pdfrwt beam="1">  1       21 0.49222851E-01 0.99857337E+02</pdfrwt>
<pdfrwt beam="2">  1       21 0.14492657E-01 0.99857337E+02</pdfrwt>
<totfact> 0.16924603E+05</totfact>
</mgrwt>
</event>
<event>
 5    1  0.1365600E-001  0.1168347E+03  0.7546771E-02  0.1248412E+00
         21   -1    0    0  503  502  0.00000000000E+00  0.00000000000E+00  0.50790238053E+02  0.50790238053E+02  0.00000000000E+00 0. -1.
         21   -1    0    0  501  503 -0.00000000000E+00 -0.00000000000E+00 -0.42751005165E+03  0.42751005165E+03  0.00000000000E+00 0.  1.
         24    1    1    2    0    0 -0.34887926026E+01 -0.28639965462E+02 -0.41333672940E+02  0.94911051878E+02  0.80419002446E+02 0. -1.
          1    1    1    2  501    0 -0.63593828788E+02 -0.18514124404E+02 -0.27144303071E+03  0.27940699130E+03  0.00000000000E+00 0. -1.
         -2    1    1    2    0  502  0.67082621390E+02  0.47154089866E+02 -0.63943109942E+02  0.10398224653E+03  0.00000000000E+00 0.  1.
<mgrwt>
<rscale>  2 0.11683471E+03</rscale>
<asrwt>0</asrwt>
<pdfrwt beam="1">  1       21 0.78138828E-02 0.11683471E+03</pdfrwt>
<pdfrwt beam="2">  1       21 0.65770777E-01 0.11683471E+03</pdfrwt>
<totfact> 0.27044705E+05</totfact>
</mgrwt>
</event>
<event>
 5    1  0.1365600E-001  0.1099978E+03  0.7546771E-02  0.1260574E+00
         21   -1    0    0  503  502  0.00000000000E+00  0.00000000000E+00  0.34519660079E+03  0.34519660079E+03  0.00000000000E+00 0. -1.
         21   -1    0    0  501  503 -0.00000000000E+00 -0.00000000000E+00 -0.87195584675E+02  0.87195584675E+02  0.00000000000E+00 0. -1.
         24    1    1    2    0    0 -0.58055758529E+02 -0.43819807141E+02  0.28459752063E+03  0.30455477553E+03  0.80419002446E+02 0. -1.
          1    1    1    2  501    0  0.80206038043E+02  0.31138815756E+02 -0.44301657074E+02  0.96774331332E+02  0.00000000000E+00 0. -1.
         -2    1    1    2    0  502 -0.22150279514E+02  0.12680991385E+02  0.17705152557E+02  0.31063078601E+02  0.00000000000E+00 0.  1.
<mgrwt>
<rscale>  2 0.10999781E+03</rscale>
<asrwt>0</asrwt>
<pdfrwt beam="1">  1       21 0.53107169E-01 0.10999781E+03</pdfrwt>
<pdfrwt beam="2">  1       21 0.13414706E-01 0.10999781E+03</pdfrwt>
<totfact> 0.16557345E+05</totfact>
</mgrwt>
</event>
<event>
 5    1  0.1369746E-001  0.1395637E+03  0.7546771E-02  0.1213917E+00
         21   -1    0    0  501  502  0.00000000000E+00  0.00000000000E+00  0.17375166677E+03  0.17375166677E+03  0.00000000000E+00 0.  1.
         21   -1    0    0  502  503 -0.00000000000E+00 -0.00000000000E+00 -0.16253590368E+03  0.16253590368E+03  0.00000000000E+00 0. -1.
         24    1    1    2    0    0  0.82452007034E+01  0.20912166323E+02  0.75803389315E+02  0.11277708908E+03  0.80419002446E+02 0.  0.
          1    1    1    2  501    0 -0.66497410856E+02  0.64237380081E+02  0.14406141996E+02  0.93572878429E+02  0.00000000000E+00 0. -1.
         -2    1    1    2    0  503  0.58252210153E+02 -0.85149546404E+02 -0.78993768215E+02  0.12993760294E+03  0.00000000000E+00 0.  1.
<mgrwt>
<rscale>  2 0.13956375E+03</rscale>
<asrwt>0</asrwt>
<pdfrwt beam="1">  1       21 0.26731026E-01 0.13956375E+03</pdfrwt>
<pdfrwt beam="2">  1       21 0.25005524E-01 0.13956375E+03</pdfrwt>
<totfact> 0.20464560E+05</totfact>
</mgrwt>
</event>
<event>
 5    1  0.1365600E-001  0.1086463E+03  0.7546771E-02  0.1263097E+00
         21   -1    0    0  501  502  0.00000000000E+00  0.00000000000E+00  0.98428291101E+02  0.98428291101E+02  0.00000000000E+00 0.  1.
         21   -1    0    0  502  503 -0.00000000000E+00 -0.00000000000E+00 -0.22412259347E+03  0.22412259347E+03  0.00000000000E+00 0.  1.
         24    1    1    2    0    0  0.19948752699E+02 -0.68381193440E+02  0.74901965598E+01  0.10769057224E+03  0.80419002446E+02 0.  1.
          1    1    1    2  501    0 -0.17141645297E+01  0.85103892021E+02 -0.60447118579E+01  0.85335510420E+02  0.00000000000E+00 0. -1.
         -2    1    1    2    0  503 -0.18234588169E+02 -0.16722698581E+02 -0.12713978707E+03  0.12952480191E+03  0.00000000000E+00 0.  1.
<mgrwt>
<rscale>  2 0.10864628E+03</rscale>
<asrwt>0</asrwt>
<pdfrwt beam="1">  1       21 0.15142814E-01 0.10864628E+03</pdfrwt>
<pdfrwt beam="2">  1       21 0.34480399E-01 0.10864628E+03</pdfrwt>
<totfact> 0.31768129E+05</totfact>
</mgrwt>
</event>
<event>
 5    1  0.1365600E-001  0.2153150E+03  0.7546771E-02  0.1137425E+00
         21   -1    0    0  501  502  0.00000000000E+00  0.00000000000E+00  0.93402172925E+03  0.93402172925E+03  0.00000000000E+00 0.  1.
         21   -1    0    0  502  503 -0.00000000000E+00 -0.00000000000E+00 -0.53489016331E+02  0.53489016331E+02  0.00000000000E+00 0. -1.
         24    1    1    2    0    0  0.67142312057E+02  0.36369566282E+02  0.28105722181E+03  0.30214435839E+03  0.80419002446E+02 0.  1.
          1    1    1    2  501    0  0.11957223953E+03  0.26954763252E+02  0.14434419196E+03  0.18936558684E+03  0.00000000000E+00 0. -1.
         -2    1    1    2    0  503 -0.18671455158E+03 -0.63324329534E+02  0.45513129914E+03  0.49600080034E+03  0.00000000000E+00 0.  1.
<mgrwt>
<rscale>  2 0.21531496E+03</rscale>
<asrwt>0</asrwt>
<pdfrwt beam="1">  1       21 0.14369564E+00 0.21531496E+03</pdfrwt>
<pdfrwt beam="2">  1       21 0.82290801E-02 0.21531496E+03</pdfrwt>
<totfact> 0.37709602E+04</totfact>
</mgrwt>
</event>
<event>
 5    1  0.1365600E-001  0.8334063E+02  0.7546771E-02  0.1319830E+00
         21   -1    0    0  501  502  0.00000000000E+00  0.00000000000E+00  0.68258943749E+03  0.68258943749E+03  0.00000000000E+00 0. -1.
         21   -1    0    0  502  503 -0.00000000000E+00 -0.00000000000E+00 -0.17568140295E+02  0.17568140295E+02  0.00000000000E+00 0.  1.
         24    1    1    2    0    0  0.29914276806E+02  0.13229235846E+01  0.56495128152E+03  0.57143134367E+03  0.80419002446E+02 0. -1.
          1    1    1    2  501    0  0.93730056626E+01  0.29487173887E+02  0.35157788544E+02  0.46833927385E+02  0.00000000000E+00 0. -1.
         -2    1    1    2    0  503 -0.39287282469E+02 -0.30810097472E+02  0.64912227125E+02  0.81892306723E+02  0.00000000000E+00 0.  1.
<mgrwt>
<rscale>  2 0.83340627E+02</rscale>
<asrwt>0</asrwt>
<pdfrwt beam="1">  1       21 0.10501374E+00 0.83340627E+02</pdfrwt>
<pdfrwt beam="2">  1       21 0.27027914E-02 0.83340627E+02</pdfrwt>
<totfact> 0.55829320E+05</totfact>
</mgrwt>
</event>
<event>
 5    1  0.1365600E-001  0.7113807E+02  0.7546771E-02  0.1356265E+00
         21   -1    0    0  503  502  0.00000000000E+00  0.00000000000E+00  0.45206354180E+03  0.45206354180E+03  0.00000000000E+00 0.  1.
         21   -1    0    0  501  503 -0.00000000000E+00 -0.00000000000E+00 -0.10554786886E+03  0.10554786886E+03  0.00000000000E+00 0. -1.
         24    1    1    2    0    0  0.33986907291E+02 -0.18563227275E+02  0.43000373638E+03  0.43916982197E+03  0.80419002446E+02 0.  1.
          1    1    1    2  501    0 -0.24253901763E+02 -0.73455976298E+01 -0.86932940969E+02  0.90551343341E+02  0.00000000000E+00 0. -1.
         -2    1    1    2    0  502 -0.97330055284E+01  0.25908824905E+02  0.34448775406E+01  0.27890245353E+02  0.00000000000E+00 0.  1.
<mgrwt>
<rscale>  2 0.71138067E+02</rscale>
<asrwt>0</asrwt>
<pdfrwt beam="1">  1       21 0.69548236E-01 0.71138067E+02</pdfrwt>
<pdfrwt beam="2">  1       21 0.16238134E-01 0.71138067E+02</pdfrwt>
<totfact> 0.68140448E+04</totfact>
</mgrwt>
</event>
<event>
 5    1  0.1365600E-001  0.1137466E+03  0.7546771E-02  0.1253785E+00
         21   -1    0    0  503  502  0.00000000000E+00  0.00000000000E+00  0.12881833163E+03  0.12881833163E+03  0.00000000000E+00 0. -1.
         21   -1    0    0  501  503 -0.00000000000E+00 -0.00000000000E+00 -0.16620859432E+03  0.16620859432E+03  0.00000000000E+00 0.  1.
         24    1    1    2    0    0 -0.41915068894E+02  0.66345154788E+02  0.59973944249E+02  0.12736813772E+03  0.80419002446E+02 0. -1.
          1    1    1    2  501    0 -0.24449159946E+02 -0.54271886742E+01 -0.68702128502E+02  0.73124539381E+02  0.00000000000E+00 0. -1.
         -2    1    1    2    0  502  0.66364228840E+02 -0.60917966114E+02 -0.28662078439E+02  0.94534248849E+02  0.00000000000E+00 0.  1.
<mgrwt>
<rscale>  2 0.11374659E+03</rscale>
<asrwt>0</asrwt>
<pdfrwt beam="1">  1       21 0.19818205E-01 0.11374659E+03</pdfrwt>
<pdfrwt beam="2">  1       21 0.25570553E-01 0.11374659E+03</pdfrwt>
<totfact> 0.34544461E+05</totfact>
</mgrwt>
</event>
<event>
 5    1  0.1365600E-001  0.2256032E+03  0.7546771E-02  0.1129773E+00
         21   -1    0    0  501  502  0.00000000000E+00  0.00000000000E+00  0.79860981657E+02  0.79860981657E+02  0.00000000000E+00 0.  1.
         21   -1    0    0  502  503 -0.00000000000E+00 -0.00000000000E+00 -0.68701551659E+03  0.68701551659E+03  0.00000000000E+00 0.  1.
         24    1    1    2    0    0 -0.12106305269E+03 -0.11430124167E+03 -0.16908631523E+03  0.25055625022E+03  0.80419002446E+02 0.  1.
          1    1    1    2  501    0 -0.58708836830E+02  0.43612326652E+02 -0.73214989986E+02  0.10348525169E+03  0.00000000000E+00 0. -1.
         -2    1    1    2    0  503  0.17977188952E+03  0.70688915014E+02 -0.36485322972E+03  0.41283499634E+03  0.00000000000E+00 0.  1.
<mgrwt>
<rscale>  2 0.22560321E+03</rscale>
<asrwt>0</asrwt>
<pdfrwt beam="1">  1       21 0.12286305E-01 0.22560321E+03</pdfrwt>
<pdfrwt beam="2">  1       21 0.10569470E+00 0.22560321E+03</pdfrwt>
<totfact> 0.39764149E+04</totfact>
</mgrwt>
</event>
<event>
 5    1  0.1365600E-001  0.1308019E+03  0.7546771E-02  0.1226271E+00
         21   -1    0    0  503  502  0.00000000000E+00  0.00000000000E+00  0.87801224855E+02  0.87801224855E+02  0.00000000000E+00 0. -1.
         21   -1    0    0  501  503 -0.00000000000E+00 -0.00000000000E+00 -0.51736630171E+03  0.51736630171E+03  0.00000000000E+00 0.  1.
         24    1    1    2    0    0  0.63236176365E+02 -0.53830835987E+02  0.42863704634E+01  0.11568129421E+03  0.80419002446E+02 0.  0.
          1    1    1    2  501    0 -0.92115328491E+02  0.67354350841E+02 -0.44206565156E+03  0.45655654919E+03  0.00000000000E+00 0. -1.
         -2    1    1    2    0  502  0.28879152126E+02 -0.13523514853E+02  0.82142042458E+01  0.32929683158E+02  0.00000000000E+00 0.  1.
<mgrwt>
<rscale>  2 0.13080193E+03</rscale>
<asrwt>0</asrwt>
<pdfrwt beam="1">  1       21 0.13507881E-01 0.13080193E+03</pdfrwt>
<pdfrwt beam="2">  1       21 0.79594815E-01 0.13080193E+03</pdfrwt>
<totfact> 0.67920708E+04</totfact>
</mgrwt>
</event>
<event>
 5    1  0.1365600E-001  0.8423438E+02  0.7546771E-02  0.1317447E+00
         21   -1    0    0  501  502  0.00000000000E+00  0.00000000000E+00  0.47474627939E+02  0.47474627939E+02  0.00000000000E+00 0. -1.
         21   -1    0    0  502  503 -0.00000000000E+00 -0.00000000000E+00 -0.28690161921E+03  0.28690161921E+03  0.00000000000E+00 0.  1.
         24    1    1    2    0    0  0.31406121943E+01 -0.18891586376E+02 -0.66427307914E+01  0.82934295123E+02  0.80419002446E+02 0. -1.
          1    1    1    2  501    0 -0.17018965586E+02  0.49418709779E+02 -0.84064021048E+02  0.98987947250E+02  0.00000000000E+00 0. -1.
         -2    1    1    2    0  503  0.13878353391E+02 -0.30527123404E+02 -0.14872023943E+03  0.15245400478E+03  0.00000000000E+00 0.  1.
<mgrwt>
<rscale>  2 0.84234376E+02</rscale>
<asrwt>0</asrwt>
<pdfrwt beam="1">  1       21 0.73037888E-02 0.84234376E+02</pdfrwt>
<pdfrwt beam="2">  1       21 0.44138711E-01 0.84234376E+02</pdfrwt>
<totfact> 0.69569750E+05</totfact>
</mgrwt>
</event>
<event>
 5    1  0.1365600E-001  0.1041290E+03  0.7546771E-02  0.1271845E+00
         21   -1    0    0  503  502  0.00000000000E+00  0.00000000000E+00  0.38648050370E+03  0.38648050370E+03  0.00000000000E+00 0. -1.
         21   -1    0    0  501  503 -0.00000000000E+00 -0.00000000000E+00 -0.78625947793E+02  0.78625947793E+02  0.00000000000E+00 0. -1.
         24    1    1    2    0    0  0.54241257391E+02  0.61634310269E+02  0.33319872975E+03  0.35246207125E+03  0.80419002446E+02 0. -1.
          1    1    1    2  501    0 -0.16052987889E+02 -0.51323682779E+02 -0.43456008966E+02  0.69139305387E+02  0.00000000000E+00 0. -1.
         -2    1    1    2    0  502 -0.38188269502E+02 -0.10310627490E+02  0.18111835120E+02  0.43505074856E+02  0.00000000000E+00 0.  1.
<mgrwt>
<rscale>  2 0.10412895E+03</rscale>
<asrwt>0</asrwt>
<pdfrwt beam="1">  1       21 0.59458538E-01 0.10412895E+03</pdfrwt>
<pdfrwt beam="2">  1       21 0.12096300E-01 0.10412895E+03</pdfrwt>
<totfact> 0.15736731E+05</totfact>
</mgrwt>
</event>
<event>
 5    1  0.1365600E-001  0.1556315E+03  0.7546771E-02  0.1193719E+00
         21   -1    0    0  503  502  0.00000000000E+00  0.00000000000E+00  0.17637846139E+03  0.17637846139E+03  0.00000000000E+00 0.  1.
         21   -1    0    0  501  503 -0.00000000000E+00 -0.00000000000E+00 -0.43109548394E+03  0.43109548394E+03  0.00000000000E+00 0. -1.
         24    1    1    2    0    0  0.11595910712E+03 -0.24385680169E+02  0.99693061106E+02  0.17449096913E+03  0.80419002446E+02 0.  1.
          1    1    1    2  501    0 -0.38856145814E+02  0.68844550387E+02 -0.33189076600E+03  0.34117569190E+03  0.00000000000E+00 0. -1.
         -2    1    1    2    0  502 -0.77102961306E+02 -0.44458870219E+02 -0.22519317655E+02  0.91807284302E+02  0.00000000000E+00 0.  1.
<mgrwt>
<rscale>  2 0.15563153E+03</rscale>
<asrwt>0</asrwt>
<pdfrwt beam="1">  1       21 0.27135148E-01 0.15563153E+03</pdfrwt>
<pdfrwt beam="2">  1       21 0.66322381E-01 0.15563153E+03</pdfrwt>
<totfact> 0.27589234E+04</totfact>
</mgrwt>
</event>
<event>
 5    1  0.1365600E-001  0.1353864E+03  0.7546771E-02  0.1219675E+00
         21   -1    0    0  503  502  0.00000000000E+00  0.00000000000E+00  0.15024757603E+02  0.15024757603E+02  0.00000000000E+00 0.  1.
         21   -1    0    0  501  503 -0.00000000000E+00 -0.00000000000E+00 -0.13083484774E+04  0.13083484774E+04  0.00000000000E+00 0. -1.
         24    1    1    2    0    0  0.31195114657E+02  0.35990586681E+02 -0.50784224250E+03  0.51637139418E+03  0.80419002446E+02 0. -1.
          1    1    1    2  501    0 -0.27414082290E+02  0.67964003017E+02 -0.44467805399E+03  0.45067639090E+03  0.00000000000E+00 0. -1.
         -2    1    1    2    0  502 -0.37810323671E+01 -0.10395458970E+03 -0.34080342334E+03  0.35632544996E+03  0.00000000000E+00 0.  1.
<mgrwt>
<rscale>  2 0.13538639E+03</rscale>
<asrwt>0</asrwt>
<pdfrwt beam="1">  1       21 0.23115017E-02 0.13538639E+03</pdfrwt>
<pdfrwt beam="2">  1       21 0.20128434E+00 0.13538639E+03</pdfrwt>
<totfact> 0.13232178E+05</totfact>
</mgrwt>
</event>
<event>
 5    1  0.1365600E-001  0.1448444E+03  0.7546771E-02  0.1206955E+00
         21   -1    0    0  501  502  0.00000000000E+00  0.00000000000E+00  0.23452131382E+03  0.23452131382E+03  0.00000000000E+00 0.  1.
         21   -1    0    0  502  503 -0.00000000000E+00 -0.00000000000E+00 -0.10544110218E+03  0.10544110218E+03  0.00000000000E+00 0. -1.
         24    1    1    2    0    0 -0.30848453564E+02  0.47874314424E+02  0.53014227854E+02  0.11189862098E+03  0.80419002446E+02 0.  0.
          1    1    1    2  501    0  0.62352930864E+02 -0.10717629414E+03  0.97324246120E+02  0.15762821732E+03  0.00000000000E+00 0. -1.
         -2    1    1    2    0  503 -0.31504477300E+02  0.59301979713E+02 -0.21258262340E+02  0.70435577698E+02  0.00000000000E+00 0.  1.
<mgrwt>
<rscale>  2 0.14484445E+03</rscale>
<asrwt>0</asrwt>
<pdfrwt beam="1">  1       21 0.36080202E-01 0.14484445E+03</pdfrwt>
<pdfrwt beam="2">  1       21 0.16221708E-01 0.14484445E+03</pdfrwt>
<totfact> 0.25480402E+05</totfact>
</mgrwt>
</event>
<event>
 5    1  0.1365600E-001  0.3015193E+03  0.7546771E-02  0.1084484E+00
         21   -1    0    0  501  502  0.00000000000E+00  0.00000000000E+00  0.15790745135E+03  0.15790745135E+03  0.00000000000E+00 0. -1.
         21   -1    0    0  502  503 -0.00000000000E+00 -0.00000000000E+00 -0.73487076828E+03  0.73487076828E+03  0.00000000000E+00 0. -1.
         24    1    1    2    0    0 -0.22428384026E+03 -0.15692565361E+03 -0.19608941291E+03  0.34618950818E+03  0.80419002446E+02 0. -1.
          1    1    1    2  501    0  0.24875728156E+03  0.15520561579E+03 -0.17962920920E+03  0.34385406949E+03  0.00000000000E+00 0. -1.
         -2    1    1    2    0  503 -0.24473441304E+02  0.17200378158E+01 -0.20124469482E+03  0.20273464197E+03  0.00000000000E+00 0.  1.
<mgrwt>
<rscale>  2 0.30151926E+03</rscale>
<asrwt>0</asrwt>
<pdfrwt beam="1">  1       21 0.24293455E-01 0.30151926E+03</pdfrwt>
<pdfrwt beam="2">  1       21 0.11305704E+00 0.30151926E+03</pdfrwt>
<totfact> 0.91669352E+03</totfact>
</mgrwt>
</event>
<event>
 5    1  0.1365600E-001  0.8040411E+02  0.7546771E-02  0.1327909E+00
         21   -1    0    0  501  502  0.00000000000E+00  0.00000000000E+00  0.12960935304E+03  0.12960935304E+03  0.00000000000E+00 0.  1.
         21   -1    0    0  502  503 -0.00000000000E+00 -0.00000000000E+00 -0.83948662047E+02  0.83948662047E+02  0.00000000000E+00 0. -1.
         24    1    1    2    0    0  0.15265203384E+01  0.80421782563E+01  0.82723420178E+02  0.11566065492E+03  0.80419002446E+02 0.  1.
          1    1    1    2  501    0 -0.52224377706E+01 -0.43757292513E+02  0.29128213137E+01  0.44164001543E+02  0.00000000000E+00 0. -1.
         -2    1    1    2    0  503  0.36959174322E+01  0.35715114257E+02 -0.39975550497E+02  0.53733358629E+02  0.00000000000E+00 0.  1.
<mgrwt>
<rscale>  2 0.80404109E+02</rscale>
<asrwt>0</asrwt>
<pdfrwt beam="1">  1       21 0.19939901E-01 0.80404109E+02</pdfrwt>
<pdfrwt beam="2">  1       21 0.12915179E-01 0.80404109E+02</pdfrwt>
<totfact> 0.11813906E+06</totfact>
</mgrwt>
</event>
<event>
 5    1  0.1365600E-001  0.9779419E+02  0.7546771E-02  0.1285004E+00
         21   -1    0    0  503  502  0.00000000000E+00  0.00000000000E+00  0.16318668809E+03  0.16318668809E+03  0.00000000000E+00 0. -1.
         21   -1    0    0  501  503 -0.00000000000E+00 -0.00000000000E+00 -0.17842236321E+03  0.17842236321E+03  0.00000000000E+00 0.  1.
         24    1    1    2    0    0 -0.69508762102E+02  0.28022014296E+02  0.12827144770E+03  0.16893040444E+03  0.80419002446E+02 0. -1.
          1    1    1    2  501    0  0.28556651400E+02  0.95237435675E+01 -0.92432756686E+02  0.97211102963E+02  0.00000000000E+00 0. -1.
         -2    1    1    2    0  502  0.40952110702E+02 -0.37545757864E+02 -0.51074366146E+02  0.75467543896E+02  0.00000000000E+00 0.  1.
<mgrwt>
<rscale>  2 0.97794187E+02</rscale>
<asrwt>0</asrwt>
<pdfrwt beam="1">  1       21 0.25105644E-01 0.97794187E+02</pdfrwt>
<pdfrwt beam="2">  1       21 0.27449594E-01 0.97794187E+02</pdfrwt>
<totfact> 0.19533300E+05</totfact>
</mgrwt>
</event>
<event>
 5    1  0.1365600E-001  0.2082833E+03  0.7546771E-02  0.1142933E+00
         21   -1    0    0  503  502  0.00000000000E+00  0.00000000000E+00  0.22990566434E+04  0.22990566434E+04  0.00000000000E+00 0. -1.
         21   -1    0    0  501  503 -0.00000000000E+00 -0.00000000000E+00 -0.19060570873E+02  0.19060570873E+02  0.00000000000E+00 0. -1.
         24    1    1    2    0    0 -0.10879622840E+03 -0.12926863886E+03  0.97531460022E+03  0.99310260581E+03  0.80419002446E+02 0. -1.
          1    1    1    2  501    0 -0.61615795837E+01  0.11320313320E+03  0.56250055303E+03  0.57381162988E+03  0.00000000000E+00 0. -1.
         -2    1    1    2    0  502  0.11495780798E+03  0.16065505660E+02  0.74218091925E+03  0.75120297855E+03  0.00000000000E+00 0.  1.
<mgrwt>
<rscale>  2 0.20828326E+03</rscale>
<asrwt>0</asrwt>
<pdfrwt beam="1">  1       21 0.35370080E+00 0.20828326E+03</pdfrwt>
<pdfrwt beam="2">  1       21 0.29323973E-02 0.20828326E+03</pdfrwt>
<totfact> 0.10731045E+04</totfact>
</mgrwt>
</event>
<event>
 5    1  0.1365600E-001  0.2211686E+03  0.7546771E-02  0.1133015E+00
         21   -1    0    0  501  502  0.00000000000E+00  0.00000000000E+00  0.18550499994E+03  0.18550499994E+03  0.00000000000E+00 0. -1.
         21   -1    0    0  502  503 -0.00000000000E+00 -0.00000000000E+00 -0.37432921408E+03  0.37432921408E+03  0.00000000000E+00 0.  1.
         24    1    1    2    0    0 -0.76676912620E+02 -0.69845261832E+01 -0.11285722578E+02  0.11190494191E+03  0.80419002446E+02 0.  1.
          1    1    1    2  501    0  0.68296437245E+01 -0.15471335575E+03  0.47656914118E+02  0.16203100920E+03  0.00000000000E+00 0. -1.
         -2    1    1    2    0  503  0.69847268896E+02  0.16169788193E+03 -0.22519540569E+03  0.28589826291E+03  0.00000000000E+00 0.  1.
<mgrwt>
<rscale>  2 0.22116857E+03</rscale>
<asrwt>0</asrwt>
<pdfrwt beam="1">  1       21 0.28539231E-01 0.22116857E+03</pdfrwt>
<pdfrwt beam="2">  1       21 0.57589110E-01 0.22116857E+03</pdfrwt>
<totfact> 0.32723582E+04</totfact>
</mgrwt>
</event>
<event>
 5    1  0.1365600E-001  0.1440651E+03  0.7546771E-02  0.1207961E+00
         21   -1    0    0  503  502  0.00000000000E+00  0.00000000000E+00  0.58379914299E+03  0.58379914299E+03  0.00000000000E+00 0. -1.
         21   -1    0    0  501  503 -0.00000000000E+00 -0.00000000000E+00 -0.11534501595E+03  0.11534501595E+03  0.00000000000E+00 0. -1.
         24    1    1    2    0    0  0.10617492146E+03  0.71668665170E+02  0.45802900371E+03  0.48235598442E+03  0.80419002446E+02 0. -1.
          1    1    1    2  501    0 -0.71541962998E+01 -0.27570075593E+02 -0.74065063057E+02  0.79353167287E+02  0.00000000000E+00 0. -1.
         -2    1    1    2    0  502 -0.99020725165E+02 -0.44098589577E+02  0.84490186391E+02  0.13743500723E+03  0.00000000000E+00 0.  1.
<mgrwt>
<rscale>  2 0.14406509E+03</rscale>
<asrwt>0</asrwt>
<pdfrwt beam="1">  1       21 0.89815251E-01 0.14406509E+03</pdfrwt>
<pdfrwt beam="2">  1       21 0.17745387E-01 0.14406509E+03</pdfrwt>
<totfact> 0.31298612E+04</totfact>
</mgrwt>
</event>
<event>
 5    1  0.1365600E-001  0.2077928E+03  0.7546771E-02  0.1143326E+00
         21   -1    0    0  503  502  0.00000000000E+00  0.00000000000E+00  0.51050673758E+02  0.51050673758E+02  0.00000000000E+00 0.  1.
         21   -1    0    0  501  503 -0.00000000000E+00 -0.00000000000E+00 -0.19721304241E+04  0.19721304241E+04  0.00000000000E+00 0. -1.
         24    1    1    2    0    0  0.15954002622E+02 -0.12960788866E+02 -0.25964627388E+03  0.27259111457E+03  0.80419002446E+02 0. -1.
          1    1    1    2  501    0 -0.80351380620E+02  0.15613151289E+03 -0.15454795141E+04  0.15554228756E+04  0.00000000000E+00 0. -1.
         -2    1    1    2    0  502  0.64397377998E+02 -0.14317072402E+03 -0.11595396240E+03  0.19516710765E+03  0.00000000000E+00 0.  1.
<mgrwt>
<rscale>  2 0.20779283E+03</rscale>
<asrwt>0</asrwt>
<pdfrwt beam="1">  1       21 0.78539499E-02 0.20779283E+03</pdfrwt>
<pdfrwt beam="2">  1       21 0.30340468E+00 0.20779283E+03</pdfrwt>
<totfact> 0.39730812E+03</totfact>
</mgrwt>
</event>
<event>
 5    1  0.1365600E-001  0.1084354E+03  0.7546771E-02  0.1263495E+00
         21   -1    0    0  503  502  0.00000000000E+00  0.00000000000E+00  0.32713736672E+02  0.32713736672E+02  0.00000000000E+00 0.  1.
         21   -1    0    0  501  503 -0.00000000000E+00 -0.00000000000E+00 -0.12983613309E+04  0.12983613309E+04  0.00000000000E+00 0. -1.
         24    1    1    2    0    0 -0.69390128827E+02  0.10746247871E+02 -0.73433298193E+02  0.12957676126E+03  0.80419002446E+02 0.  1.
          1    1    1    2  501    0  0.22607307762E+02 -0.46184615388E+02 -0.97912815461E+03  0.98047746135E+03  0.00000000000E+00 0. -1.
         -2    1    1    2    0  502  0.46782821065E+02  0.35438367518E+02 -0.21308614146E+03  0.22102084499E+03  0.00000000000E+00 0.  1.
<mgrwt>
<rscale>  2 0.10843540E+03</rscale>
<asrwt>0</asrwt>
<pdfrwt beam="1">  1       21 0.50328826E-02 0.10843540E+03</pdfrwt>
<pdfrwt beam="2">  1       21 0.19974790E+00 0.10843540E+03</pdfrwt>
<totfact> 0.38371173E+04</totfact>
</mgrwt>
</event>
<event>
 5    1  0.1365600E-001  0.9355477E+02  0.7546771E-02  0.1294465E+00
         21   -1    0    0  503  502  0.00000000000E+00  0.00000000000E+00  0.74180742698E+03  0.74180742698E+03  0.00000000000E+00 0. -1.
         21   -1    0    0  501  503 -0.00000000000E+00 -0.00000000000E+00 -0.26656060064E+02  0.26656060064E+02  0.00000000000E+00 0.  1.
         24    1    1    2    0    0  0.62747439132E+02 -0.25431852693E+02  0.66229818025E+03  0.67058937940E+03  0.80419002446E+02 0. -1.
          1    1    1    2  501    0 -0.17718886714E+02  0.31903223252E+02  0.18815260190E+02  0.41058356230E+02  0.00000000000E+00 0. -1.
         -2    1    1    2    0  502 -0.45028552418E+02 -0.64713705588E+01  0.34037926475E+02  0.56815751412E+02  0.00000000000E+00 0.  1.
<mgrwt>
<rscale>  2 0.93554773E+02</rscale>
<asrwt>0</asrwt>
<pdfrwt beam="1">  1       21 0.11412420E+00 0.93554773E+02</pdfrwt>
<pdfrwt beam="2">  1       21 0.41009329E-02 0.93554773E+02</pdfrwt>
<totfact> 0.23187470E+05</totfact>
</mgrwt>
</event>
<event>
 5    1  0.1365600E-001  0.1319865E+03  0.7546771E-02  0.1224538E+00
         21   -1    0    0  501  502  0.00000000000E+00  0.00000000000E+00  0.48451169043E+03  0.48451169043E+03  0.00000000000E+00 0.  1.
         21   -1    0    0  502  503 -0.00000000000E+00 -0.00000000000E+00 -0.66088750715E+02  0.66088750715E+02  0.00000000000E+00 0.  1.
         24    1    1    2    0    0 -0.54665147573E+02  0.52822224557E+02  0.36139276492E+03  0.37795556916E+03  0.80419002446E+02 0.  1.
          1    1    1    2  501    0 -0.33422573463E+02 -0.55946499764E+02  0.53691629348E+02  0.84438559407E+02  0.00000000000E+00 0. -1.
         -2    1    1    2    0  503  0.88087721036E+02  0.31242752063E+01  0.33385454441E+01  0.88206312578E+02  0.00000000000E+00 0.  1.
<mgrwt>
<rscale>  2 0.13198647E+03</rscale>
<asrwt>0</asrwt>
<pdfrwt beam="1">  1       21 0.74540258E-01 0.13198647E+03</pdfrwt>
<pdfrwt beam="2">  1       21 0.10167500E-01 0.13198647E+03</pdfrwt>
<totfact> 0.12982621E+05</totfact>
</mgrwt>
</event>
<event>
 5    1  0.1365600E-001  0.1084399E+03  0.7546771E-02  0.1263487E+00
         21   -1    0    0  503  502  0.00000000000E+00  0.00000000000E+00  0.15014364825E+04  0.15014364825E+04  0.00000000000E+00 0. -1.
         21   -1    0    0  501  503 -0.00000000000E+00 -0.00000000000E+00 -0.91610182920E+01  0.91610182920E+01  0.00000000000E+00 0.  1.
         24    1    1    2    0    0 -0.39617845044E+02 -0.30709155886E+02  0.87518024274E+03  0.88029557487E+03  0.80419002446E+02 0. -1.
          1    1    1    2  501    0 -0.35454589879E+02 -0.98391885288E+01  0.10773606677E+03  0.11384593825E+03  0.00000000000E+00 0. -1.
         -2    1    1    2    0  502  0.75072434923E+02  0.40548344415E+02  0.50935915473E+03  0.51645598769E+03  0.00000000000E+00 0.  1.
<mgrwt>
<rscale>  2 0.10843985E+03</rscale>
<asrwt>0</asrwt>
<pdfrwt beam="1">  1       21 0.23099003E+00 0.10843985E+03</pdfrwt>
<pdfrwt beam="2">  1       21 0.14093886E-02 0.10843985E+03</pdfrwt>
<totfact> 0.19750271E+05</totfact>
</mgrwt>
</event>
<event>
 5    1  0.1365600E-001  0.9328587E+02  0.7546771E-02  0.1295084E+00
         21   -1    0    0  501  502  0.00000000000E+00  0.00000000000E+00  0.15193351601E+03  0.15193351601E+03  0.00000000000E+00 0. -1.
         21   -1    0    0  502  503 -0.00000000000E+00 -0.00000000000E+00 -0.93353816016E+02  0.93353816016E+02  0.00000000000E+00 0. -1.
         24    1    1    2    0    0  0.62593781584E+02  0.17403124160E+02  0.97503254348E+02  0.14210893985E+03  0.80419002446E+02 0. -1.
          1    1    1    2  501    0 -0.35851111555E+02  0.16947882319E+02  0.65878145363E+01  0.40198659370E+02  0.00000000000E+00 0. -1.
         -2    1    1    2    0  503 -0.26742670029E+02 -0.34351006480E+02 -0.45511368886E+02  0.62979732807E+02  0.00000000000E+00 0.  1.
<mgrwt>
<rscale>  2 0.93285869E+02</rscale>
<asrwt>0</asrwt>
<pdfrwt beam="1">  1       21 0.23374387E-01 0.93285869E+02</pdfrwt>
<pdfrwt beam="2">  1       21 0.14362126E-01 0.93285869E+02</pdfrwt>
<totfact> 0.73263675E+05</totfact>
</mgrwt>
</event>
<event>
 5    1  0.1365600E-001  0.1571921E+03  0.7546771E-02  0.1191904E+00
         21   -1    0    0  503  502  0.00000000000E+00  0.00000000000E+00  0.40599391620E+03  0.40599391620E+03  0.00000000000E+00 0.  1.
         21   -1    0    0  501  503 -0.00000000000E+00 -0.00000000000E+00 -0.12287588726E+03  0.12287588726E+03  0.00000000000E+00 0. -1.
         24    1    1    2    0    0  0.15254220757E+01 -0.81240836659E+02  0.26111315102E+03  0.28504331959E+03  0.80419002446E+02 0.  0.
          1    1    1    2  501    0 -0.39085234153E+02  0.13157547482E+03 -0.51987932648E+02  0.14677365651E+03  0.00000000000E+00 0. -1.
         -2    1    1    2    0  502  0.37559812077E+02 -0.50334638165E+02  0.73992810570E+02  0.97052827360E+02  0.00000000000E+00 0.  1.
<mgrwt>
<rscale>  2 0.15719211E+03</rscale>
<asrwt>0</asrwt>
<pdfrwt beam="1">  1       21 0.62460602E-01 0.15719211E+03</pdfrwt>
<pdfrwt beam="2">  1       21 0.18903983E-01 0.15719211E+03</pdfrwt>
<totfact> 0.61940365E+04</totfact>
</mgrwt>
</event>
<event>
 5    1  0.1365600E-001  0.1154786E+03  0.7546771E-02  0.1250748E+00
         21   -1    0    0  501  502  0.00000000000E+00  0.00000000000E+00  0.42272456756E+02  0.42272456756E+02  0.00000000000E+00 0.  1.
         21   -1    0    0  502  503 -0.00000000000E+00 -0.00000000000E+00 -0.46853659627E+03  0.46853659627E+03  0.00000000000E+00 0. -1.
         24    1    1    2    0    0 -0.30632248803E+01 -0.13200901250E+02 -0.29698596614E+02  0.86792106413E+02  0.80419002446E+02 0.  1.
          1    1    1    2  501    0  0.53162139153E+02 -0.47087271034E+02 -0.16841512582E+03  0.18277603437E+03  0.00000000000E+00 0. -1.
         -2    1    1    2    0  503 -0.50098914273E+02  0.60288172284E+02 -0.22815041708E+03  0.24124091225E+03  0.00000000000E+00 0.  1.
<mgrwt>
<rscale>  2 0.11547858E+03</rscale>
<asrwt>0</asrwt>
<pdfrwt beam="1">  1       21 0.65034549E-02 0.11547858E+03</pdfrwt>
<pdfrwt beam="2">  1       21 0.72082554E-01 0.11547858E+03</pdfrwt>
<totfact> 0.30347418E+05</totfact>
</mgrwt>
</event>
<event>
 5    1  0.1365600E-001  0.1108887E+03  0.7546771E-02  0.1258933E+00
         21   -1    0    0  503  502  0.00000000000E+00  0.00000000000E+00  0.32527999891E+03  0.32527999891E+03  0.00000000000E+00 0.  1.
         21   -1    0    0  501  503 -0.00000000000E+00 -0.00000000000E+00 -0.23056985432E+03  0.23056985432E+03  0.00000000000E+00 0. -1.
         24    1    1    2    0    0  0.87011583317E+00  0.72531739431E+02  0.22086574717E+03  0.24598883014E+03  0.80419002446E+02 0.  1.
          1    1    1    2  501    0  0.17308197138E+02  0.15715055300E+02 -0.19504607960E+03  0.19644212842E+03  0.00000000000E+00 0. -1.
         -2    1    1    2    0  502 -0.18178312971E+02 -0.88246794731E+02  0.68890477022E+02  0.11341889467E+03  0.00000000000E+00 0.  1.
<mgrwt>
<rscale>  2 0.11088874E+03</rscale>
<asrwt>0</asrwt>
<pdfrwt beam="1">  1       21 0.50043077E-01 0.11088874E+03</pdfrwt>
<pdfrwt beam="2">  1       21 0.35472285E-01 0.11088874E+03</pdfrwt>
<totfact> 0.30636383E+04</totfact>
</mgrwt>
</event>
<event>
 5    1  0.1365600E-001  0.8941562E+02  0.7546771E-02  0.1304273E+00
         21   -1    0    0  501  502  0.00000000000E+00  0.00000000000E+00  0.62236277551E+03  0.62236277551E+03  0.00000000000E+00 0. -1.
         21   -1    0    0  502  503 -0.00000000000E+00 -0.00000000000E+00 -0.41594138540E+02  0.41594138540E+02  0.00000000000E+00 0.  1.
         24    1    1    2    0    0 -0.16602492898E+02 -0.28040468072E+02  0.47878400476E+03  0.48658324035E+03  0.80419002446E+02 0.  0.
          1    1    1    2  501    0 -0.31042968147E+02 -0.83054096018E+01  0.11208675074E+03  0.11660225295E+03  0.00000000000E+00 0. -1.
         -2    1    1    2    0  503  0.47645461045E+02  0.36345877674E+02 -0.10102118531E+02  0.60771420757E+02  0.00000000000E+00 0.  1.
<mgrwt>
<rscale>  2 0.89415619E+02</rscale>
<asrwt>0</asrwt>
<pdfrwt beam="1">  1       21 0.95748112E-01 0.89415619E+02</pdfrwt>
<pdfrwt beam="2">  1       21 0.63990987E-02 0.89415619E+02</pdfrwt>
<totfact> 0.16670571E+05</totfact>
</mgrwt>
</event>
<event>
 5    1  0.1365600E-001  0.1346121E+03  0.7546771E-02  0.1220768E+00
         21   -1    0    0  503  502  0.00000000000E+00  0.00000000000E+00  0.93994698549E+03  0.93994698549E+03  0.00000000000E+00 0.  1.
         21   -1    0    0  501  503 -0.00000000000E+00 -0.00000000000E+00 -0.27918712149E+02  0.27918712149E+02  0.00000000000E+00 0. -1.
         24    1    1    2    0    0  0.25704998472E+02  0.46819195288E+01  0.26140286385E+03  0.27473867675E+03  0.80419002446E+02 0.  0.
          1    1    1    2  501    0 -0.51083706223E+02 -0.85698513311E+02  0.12140428800E+03  0.15713936926E+03  0.00000000000E+00 0. -1.
         -2    1    1    2    0  502  0.25378707752E+02  0.81016593782E+02  0.52922112149E+03  0.53598765164E+03  0.00000000000E+00 0.  1.
<mgrwt>
<rscale>  2 0.13461209E+03</rscale>
<asrwt>0</asrwt>
<pdfrwt beam="1">  1       21 0.14460720E+00 0.13461209E+03</pdfrwt>
<pdfrwt beam="2">  1       21 0.42951872E-02 0.13461209E+03</pdfrwt>
<totfact> 0.11750480E+05</totfact>
</mgrwt>
</event>
<event>
 5    1  0.1365600E-001  0.8647410E+02  0.7546771E-02  0.1311622E+00
         21   -1    0    0  503  502  0.00000000000E+00  0.00000000000E+00  0.19840052798E+03  0.19840052798E+03  0.00000000000E+00 0.  1.
         21   -1    0    0  501  503 -0.00000000000E+00 -0.00000000000E+00 -0.31559111960E+03  0.31559111960E+03  0.00000000000E+00 0.  1.
         24    1    1    2    0    0  0.42985663164E+02 -0.36720022633E+02  0.18085768386E+03  0.20584665425E+03  0.80419002446E+02 0.  1.
          1    1    1    2  501    0  0.63483813813E+01  0.22390238416E+02 -0.14099961736E+03  0.14290737146E+03  0.00000000000E+00 0. -1.
         -2    1    1    2    0  502 -0.49334044545E+02  0.14329784217E+02 -0.15704865812E+03  0.16523762188E+03  0.00000000000E+00 0.  1.
<mgrwt>
<rscale>  2 0.86474096E+02</rscale>
<asrwt>0</asrwt>
<pdfrwt beam="1">  1       21 0.30523158E-01 0.86474096E+02</pdfrwt>
<pdfrwt beam="2">  1       21 0.48552480E-01 0.86474096E+02</pdfrwt>
<totfact> 0.44431072E+04</totfact>
</mgrwt>
</event>
<event>
 5    1  0.1365600E-001  0.8333774E+02  0.7546771E-02  0.1319838E+00
         21   -1    0    0  501  502  0.00000000000E+00  0.00000000000E+00  0.15381254851E+04  0.15381254851E+04  0.00000000000E+00 0. -1.
         21   -1    0    0  502  503 -0.00000000000E+00 -0.00000000000E+00 -0.80280026794E+01  0.80280026794E+01  0.00000000000E+00 0.  1.
         24    1    1    2    0    0 -0.38201801358E+01 -0.51233446758E+02  0.13346871022E+04  0.13380942928E+04  0.80419002446E+02 0.  0.
          1    1    1    2  501    0  0.26365346446E+02  0.33078310585E+02  0.10844049577E+03  0.11639865656E+03  0.00000000000E+00 0. -1.
         -2    1    1    2    0  503 -0.22545166310E+02  0.18155136173E+02  0.86969884495E+02  0.91660538414E+02  0.00000000000E+00 0.  1.
<mgrwt>
<rscale>  2 0.83337742E+02</rscale>
<asrwt>0</asrwt>
<pdfrwt beam="1">  1       21 0.23663446E+00 0.83337742E+02</pdfrwt>
<pdfrwt beam="2">  1       21 0.12350786E-02 0.83337742E+02</pdfrwt>
<totfact> 0.23090390E+05</totfact>
</mgrwt>
</event>
<event>
 5    1  0.1365600E-001  0.1770884E+03  0.7546771E-02  0.1170651E+00
         21   -1    0    0  503  502  0.00000000000E+00  0.00000000000E+00  0.15002602714E+03  0.15002602714E+03  0.00000000000E+00 0.  1.
         21   -1    0    0  501  503 -0.00000000000E+00 -0.00000000000E+00 -0.30538935210E+03  0.30538935210E+03  0.00000000000E+00 0. -1.
         24    1    1    2    0    0 -0.30429811279E+02  0.13720230881E+02 -0.94380863312E+01  0.87581456815E+02  0.80419002446E+02 0.  1.
          1    1    1    2  501    0 -0.83854703269E+02  0.82555440550E+02 -0.17954127031E+03  0.21466737006E+03  0.00000000000E+00 0. -1.
         -2    1    1    2    0  502  0.11428451455E+03 -0.96275671431E+02  0.33616031678E+02  0.15316655236E+03  0.00000000000E+00 0.  1.
<mgrwt>
<rscale>  2 0.17708843E+03</rscale>
<asrwt>0</asrwt>
<pdfrwt beam="1">  1       21 0.23080927E-01 0.17708843E+03</pdfrwt>
<pdfrwt beam="2">  1       21 0.46982977E-01 0.17708843E+03</pdfrwt>
<totfact> 0.76940591E+04</totfact>
</mgrwt>
</event>
<event>
 5    1  0.1365600E-001  0.1049648E+03  0.7546771E-02  0.1270189E+00
         21   -1    0    0  501  502  0.00000000000E+00  0.00000000000E+00  0.73624742723E+02  0.73624742723E+02  0.00000000000E+00 0. -1.
         21   -1    0    0  502  503 -0.00000000000E+00 -0.00000000000E+00 -0.30551539946E+03  0.30551539946E+03  0.00000000000E+00 0.  1.
         24    1    1    2    0    0 -0.22534040520E+00  0.16761213398E+02  0.16765543498E+02  0.83840851952E+02  0.80419002446E+02 0. -1.
          1    1    1    2  501    0 -0.61228524318E+02 -0.24286319168E+02 -0.38682052160E+02  0.76387555585E+02  0.00000000000E+00 0. -1.
         -2    1    1    2    0  503  0.61453864723E+02  0.75251057699E+01 -0.20997414807E+03  0.21891173465E+03  0.00000000000E+00 0.  1.
<mgrwt>
<rscale>  2 0.10496479E+03</rscale>
<asrwt>0</asrwt>
<pdfrwt beam="1">  1       21 0.11326884E-01 0.10496479E+03</pdfrwt>
<pdfrwt beam="2">  1       21 0.47002368E-01 0.10496479E+03</pdfrwt>
<totfact> 0.28721193E+05</totfact>
</mgrwt>
</event>
<event>
 5    1  0.1365600E-001  0.1555946E+03  0.7546771E-02  0.1193762E+00
         21   -1    0    0  503  502  0.00000000000E+00  0.00000000000E+00  0.81841812640E+02  0.81841812640E+02  0.00000000000E+00 0.  1.
         21   -1    0    0  501  503 -0.00000000000E+00 -0.00000000000E+00 -0.86810354366E+03  0.86810354366E+03  0.00000000000E+00 0. -1.
         24    1    1    2    0    0  0.10451307721E+03 -0.81628746646E+02 -0.99308774903E+01  0.15540937510E+03  0.80419002446E+02 0.  1.
          1    1    1    2  501    0 -0.16093735053E+02 -0.17154800884E+02 -0.27390403870E+03  0.27491220038E+03  0.00000000000E+00 0. -1.
         -2    1    1    2    0  502 -0.88419342161E+02  0.98783547529E+02 -0.50242681482E+03  0.51962378081E+03  0.00000000000E+00 0.  1.
<mgrwt>
<rscale>  2 0.15559457E+03</rscale>
<asrwt>0</asrwt>
<pdfrwt beam="1">  1       21 0.12591049E-01 0.15559457E+03</pdfrwt>
<pdfrwt beam="2">  1       21 0.13355439E+00 0.15559457E+03</pdfrwt>
<totfact> 0.22284002E+04</totfact>
</mgrwt>
</event>
<event>
 5    1  0.1365600E-001  0.1431705E+03  0.7546771E-02  0.1209125E+00
         21   -1    0    0  501  502  0.00000000000E+00  0.00000000000E+00  0.75764149800E+02  0.75764149800E+02  0.00000000000E+00 0.  1.
         21   -1    0    0  502  503 -0.00000000000E+00 -0.00000000000E+00 -0.60520347136E+03  0.60520347136E+03  0.00000000000E+00 0.  1.
         24    1    1    2    0    0  0.20055112065E+02 -0.10800701691E+03 -0.20221082286E+02  0.13763659159E+03  0.80419002446E+02 0.  1.
          1    1    1    2  501    0  0.15410993454E+02  0.11329622434E+03 -0.18744438801E+03  0.21956532460E+03  0.00000000000E+00 0. -1.
         -2    1    1    2    0  503 -0.35466105518E+02 -0.52892074298E+01 -0.32177385126E+03  0.32376570496E+03  0.00000000000E+00 0.  1.
<mgrwt>
<rscale>  2 0.14317049E+03</rscale>
<asrwt>0</asrwt>
<pdfrwt beam="1">  1       21 0.11656023E-01 0.14317049E+03</pdfrwt>
<pdfrwt beam="2">  1       21 0.93108230E-01 0.14317049E+03</pdfrwt>
<totfact> 0.61471657E+04</totfact>
</mgrwt>
</event>
<event>
 5    1  0.1365600E-001  0.1740223E+03  0.7546771E-02  0.1173717E+00
         21   -1    0    0  501  502  0.00000000000E+00  0.00000000000E+00  0.42399910993E+02  0.42399910993E+02  0.00000000000E+00 0.  1.
         21   -1    0    0  502  503 -0.00000000000E+00 -0.00000000000E+00 -0.10199663128E+04  0.10199663128E+04  0.00000000000E+00 0.  1.
         24    1    1    2    0    0 -0.11638602227E+03 -0.10388807270E+03 -0.20710116228E+03  0.27147107618E+03  0.80419002446E+02 0.  1.
          1    1    1    2  501    0  0.45650710427E+02 -0.14167008126E+01 -0.12501243287E+03  0.13309433788E+03  0.00000000000E+00 0. -1.
         -2    1    1    2    0  503  0.70735311839E+02  0.10530477352E+03 -0.64545280667E+03  0.65780080975E+03  0.00000000000E+00 0.  1.
<mgrwt>
<rscale>  2 0.17402231E+03</rscale>
<asrwt>0</asrwt>
<pdfrwt beam="1">  1       21 0.65230634E-02 0.17402231E+03</pdfrwt>
<pdfrwt beam="2">  1       21 0.15691789E+00 0.17402231E+03</pdfrwt>
<totfact> 0.45808242E+04</totfact>
</mgrwt>
</event>
<event>
 5    1  0.1365600E-001  0.1090422E+03  0.7546771E-02  0.1262354E+00
         21   -1    0    0  503  502  0.00000000000E+00  0.00000000000E+00  0.10092064185E+03  0.10092064185E+03  0.00000000000E+00 0. -1.
         21   -1    0    0  501  503 -0.00000000000E+00 -0.00000000000E+00 -0.26186886984E+03  0.26186886984E+03  0.00000000000E+00 0. -1.
         24    1    1    2    0    0 -0.44979109247E+02 -0.73156123601E+02  0.50909351494E+02  0.12819483887E+03  0.80419002446E+02 0. -1.
          1    1    1    2  501    0  0.51356966357E+02  0.35965200355E+02 -0.12303474356E+03  0.13808903560E+03  0.00000000000E+00 0. -1.
         -2    1    1    2    0  502 -0.63778571099E+01  0.37190923246E+02 -0.88822835922E+02  0.96505637216E+02  0.00000000000E+00 0.  1.
<mgrwt>
<rscale>  2 0.10904224E+03</rscale>
<asrwt>0</asrwt>
<pdfrwt beam="1">  1       21 0.15526253E-01 0.10904224E+03</pdfrwt>
<pdfrwt beam="2">  1       21 0.40287518E-01 0.10904224E+03</pdfrwt>
<totfact> 0.22346096E+05</totfact>
</mgrwt>
</event>
<event>
 5    1  0.1365600E-001  0.1198086E+03  0.7546771E-02  0.1243413E+00
         21   -1    0    0  501  502  0.00000000000E+00  0.00000000000E+00  0.16552628832E+02  0.16552628832E+02  0.00000000000E+00 0. -1.
         21   -1    0    0  502  503 -0.00000000000E+00 -0.00000000000E+00 -0.86927019037E+03  0.86927019037E+03  0.00000000000E+00 0.  1.
         24    1    1    2    0    0  0.34447748821E+02  0.10695728925E+02 -0.32562376959E+03  0.33734122383E+03  0.80419002446E+02 0.  1.
          1    1    1    2  501    0  0.55568138263E+02  0.15572953033E+02 -0.18757305262E+03  0.19624980236E+03  0.00000000000E+00 0. -1.
         -2    1    1    2    0  503 -0.90015887084E+02 -0.26268681958E+02 -0.33952073932E+03  0.35223179301E+03  0.00000000000E+00 0.  1.
<mgrwt>
<rscale>  2 0.11980864E+03</rscale>
<asrwt>0</asrwt>
<pdfrwt beam="1">  1       21 0.25465584E-02 0.11980864E+03</pdfrwt>
<pdfrwt beam="2">  1       21 0.13373387E+00 0.11980864E+03</pdfrwt>
<totfact> 0.34077738E+05</totfact>
</mgrwt>
</event>
<event>
 5    1  0.1365600E-001  0.1978034E+03  0.7546771E-02  0.1151606E+00
         21   -1    0    0  501  502  0.00000000000E+00  0.00000000000E+00  0.64851085865E+03  0.64851085865E+03  0.00000000000E+00 0. -1.
         21   -1    0    0  502  503 -0.00000000000E+00 -0.00000000000E+00 -0.12220583867E+03  0.12220583867E+03  0.00000000000E+00 0.  1.
         24    1    1    2    0    0  0.20037502842E+02  0.80998347399E+02  0.22119841924E+03  0.24971621980E+03  0.80419002446E+02 0.  0.
          1    1    1    2  501    0 -0.54548552413E+02  0.90018994018E+02  0.32852149416E+03  0.34497150024E+03  0.00000000000E+00 0. -1.
         -2    1    1    2    0  503  0.34511049571E+02 -0.17101734142E+03 -0.23414893427E+02  0.17602897728E+03  0.00000000000E+00 0.  1.
<mgrwt>
<rscale>  2 0.19780345E+03</rscale>
<asrwt>0</asrwt>
<pdfrwt beam="1">  1       21 0.99770900E-01 0.19780345E+03</pdfrwt>
<pdfrwt beam="2">  1       21 0.18800899E-01 0.19780345E+03</pdfrwt>
<totfact> 0.21311781E+04</totfact>
</mgrwt>
</event>
<event>
 5    1  0.1365600E-001  0.1120650E+03  0.7546771E-02  0.1256793E+00
         21   -1    0    0  501  502  0.00000000000E+00  0.00000000000E+00  0.32953623428E+03  0.32953623428E+03  0.00000000000E+00 0.  1.
         21   -1    0    0  502  503 -0.00000000000E+00 -0.00000000000E+00 -0.11701738188E+03  0.11701738188E+03  0.00000000000E+00 0.  1.
         24    1    1    2    0    0 -0.74680986453E+02 -0.59580474625E+02  0.27252653922E+03  0.29977493763E+03  0.80419002446E+02 0.  1.
          1    1    1    2  501    0  0.52575689403E+02  0.56081582545E+02  0.59745842496E+01  0.77104102834E+02  0.00000000000E+00 0. -1.
         -2    1    1    2    0  503  0.22105297051E+02  0.34988920801E+01 -0.65982271071E+02  0.69674575702E+02  0.00000000000E+00 0.  1.
<mgrwt>
<rscale>  2 0.11206495E+03</rscale>
<asrwt>0</asrwt>
<pdfrwt beam="1">  1       21 0.50697882E-01 0.11206495E+03</pdfrwt>
<pdfrwt beam="2">  1       21 0.18002674E-01 0.11206495E+03</pdfrwt>
<totfact> 0.10720014E+05</totfact>
</mgrwt>
</event>
<event>
 5    1  0.1365600E-001  0.4710737E+03  0.7546771E-02  0.1021618E+00
         21   -1    0    0  501  502  0.00000000000E+00  0.00000000000E+00  0.48736702182E+03  0.48736702182E+03  0.00000000000E+00 0. -1.
         21   -1    0    0  502  503 -0.00000000000E+00 -0.00000000000E+00 -0.63898243995E+03  0.63898243995E+03  0.00000000000E+00 0.  1.
         24    1    1    2    0    0  0.23437091106E+03  0.55242343429E+02  0.10059461529E+03  0.27307129662E+03  0.80419002446E+02 0.  0.
          1    1    1    2  501    0  0.20733936361E+03  0.86101606081E+02  0.12366485639E+03  0.25631249478E+03  0.00000000000E+00 0. -1.
         -2    1    1    2    0  503 -0.44171027468E+03 -0.14134394951E+03 -0.37587488980E+03  0.59696567037E+03  0.00000000000E+00 0.  1.
<mgrwt>
<rscale>  2 0.47107374E+03</rscale>
<asrwt>0</asrwt>
<pdfrwt beam="1">  1       21 0.74979542E-01 0.47107374E+03</pdfrwt>
<pdfrwt beam="2">  1       21 0.98304991E-01 0.47107374E+03</pdfrwt>
<totfact> 0.11502658E+03</totfact>
</mgrwt>
</event>
<event>
 5    1  0.1365600E-001  0.1043280E+03  0.7546771E-02  0.1271449E+00
         21   -1    0    0  503  502  0.00000000000E+00  0.00000000000E+00  0.61448839048E+03  0.61448839048E+03  0.00000000000E+00 0. -1.
         21   -1    0    0  501  503 -0.00000000000E+00 -0.00000000000E+00 -0.22884568150E+03  0.22884568150E+03  0.00000000000E+00 0. -1.
         24    1    1    2    0    0 -0.22419130620E+02 -0.13961042116E+02  0.52526247650E+03  0.53203892084E+03  0.80419002446E+02 0. -1.
          1    1    1    2  501    0  0.42687343880E+02  0.60041994015E+02 -0.21125978424E+03  0.22373633324E+03  0.00000000000E+00 0. -1.
         -2    1    1    2    0  502 -0.20268213261E+02 -0.46080951898E+02  0.71640016724E+02  0.87558817905E+02  0.00000000000E+00 0.  1.
<mgrwt>
<rscale>  2 0.10432803E+03</rscale>
<asrwt>0</asrwt>
<pdfrwt beam="1">  1       21 0.94536675E-01 0.10432803E+03</pdfrwt>
<pdfrwt beam="2">  1       21 0.35207028E-01 0.10432803E+03</pdfrwt>
<totfact> 0.78889066E+03</totfact>
</mgrwt>
</event>
<event>
 5    1  0.1365600E-001  0.8571565E+02  0.7546771E-02  0.1313572E+00
         21   -1    0    0  503  502  0.00000000000E+00  0.00000000000E+00  0.13621602619E+03  0.13621602619E+03  0.00000000000E+00 0.  1.
         21   -1    0    0  501  503 -0.00000000000E+00 -0.00000000000E+00 -0.63230419199E+02  0.63230419199E+02  0.00000000000E+00 0. -1.
         24    1    1    2    0    0  0.15934871508E+02  0.29760912946E+02  0.75261036266E+02  0.11520013717E+03  0.80419002446E+02 0.  1.
          1    1    1    2  501    0 -0.47116344700E+02 -0.22427545667E+02 -0.16556278824E+01  0.52208101347E+02  0.00000000000E+00 0. -1.
         -2    1    1    2    0  502  0.31181473192E+02 -0.73333672793E+01 -0.61980138966E+00  0.32038206876E+02  0.00000000000E+00 0.  1.
<mgrwt>
<rscale>  2 0.85715650E+02</rscale>
<asrwt>0</asrwt>
<pdfrwt beam="1">  1       21 0.20956312E-01 0.85715650E+02</pdfrwt>
<pdfrwt beam="2">  1       21 0.97277568E-02 0.85715650E+02</pdfrwt>
<totfact> 0.17711058E+06</totfact>
</mgrwt>
</event>
<event>
 5    1  0.1365600E-001  0.2330174E+03  0.7546771E-02  0.1124534E+00
         21   -1    0    0  503  502  0.00000000000E+00  0.00000000000E+00  0.52365653008E+03  0.52365653008E+03  0.00000000000E+00 0. -1.
         21   -1    0    0  501  503 -0.00000000000E+00 -0.00000000000E+00 -0.21072485326E+03  0.21072485326E+03  0.00000000000E+00 0. -1.
         24    1    1    2    0    0  0.19048330905E+03 -0.65358972194E+02  0.40732426543E+03  0.46144984499E+03  0.80419002446E+02 0. -1.
          1    1    1    2  501    0 -0.56251831607E+02  0.96217391729E+02 -0.73786932692E+02  0.13366587622E+03  0.00000000000E+00 0. -1.
         -2    1    1    2    0  502 -0.13423147744E+03 -0.30858419535E+02 -0.20605655926E+02  0.13926566213E+03  0.00000000000E+00 0.  1.
<mgrwt>
<rscale>  2 0.23301737E+03</rscale>
<asrwt>0</asrwt>
<pdfrwt beam="1">  1       21 0.80562543E-01 0.23301737E+03</pdfrwt>
<pdfrwt beam="2">  1       21 0.32419208E-01 0.23301737E+03</pdfrwt>
<totfact> 0.12081355E+04</totfact>
</mgrwt>
</event>
<event>
 5    1  0.1365600E-001  0.1000154E+03  0.7546771E-02  0.1280264E+00
         21   -1    0    0  501  502  0.00000000000E+00  0.00000000000E+00  0.21382278964E+03  0.21382278964E+03  0.00000000000E+00 0.  1.
         21   -1    0    0  502  503 -0.00000000000E+00 -0.00000000000E+00 -0.30273454217E+03  0.30273454217E+03  0.00000000000E+00 0.  1.
         24    1    1    2    0    0 -0.12366224290E+02 -0.16976986820E+02  0.18831954476E+03  0.20584607958E+03  0.80419002446E+02 0.  1.
          1    1    1    2  501    0 -0.35598846851E+01  0.65627179368E+02 -0.65161733938E+02  0.92550802377E+02  0.00000000000E+00 0. -1.
         -2    1    1    2    0  503  0.15926108976E+02 -0.48650192548E+02 -0.21206956335E+03  0.21816044986E+03  0.00000000000E+00 0.  1.
<mgrwt>
<rscale>  2 0.10001542E+03</rscale>
<asrwt>0</asrwt>
<pdfrwt beam="1">  1       21 0.32895814E-01 0.10001542E+03</pdfrwt>
<pdfrwt beam="2">  1       21 0.46574545E-01 0.10001542E+03</pdfrwt>
<totfact> 0.41420392E+04</totfact>
</mgrwt>
</event>
<event>
 5    1  0.1365600E-001  0.1260165E+03  0.7546771E-02  0.1233489E+00
         21   -1    0    0  501  502  0.00000000000E+00  0.00000000000E+00  0.20370776383E+03  0.20370776383E+03  0.00000000000E+00 0.  1.
         21   -1    0    0  502  503 -0.00000000000E+00 -0.00000000000E+00 -0.11509991412E+03  0.11509991412E+03  0.00000000000E+00 0.  1.
         24    1    1    2    0    0 -0.90369929633E+02 -0.68140270636E+02  0.11433761720E+03  0.17986141144E+03  0.80419002446E+02 0.  1.
          1    1    1    2  501    0  0.67930929316E+02  0.50375511539E+02  0.18208249525E+02  0.86509211482E+02  0.00000000000E+00 0. -1.
         -2    1    1    2    0  503  0.22439000317E+02  0.17764759097E+02 -0.43938017015E+02  0.52437055030E+02  0.00000000000E+00 0.  1.
<mgrwt>
<rscale>  2 0.12601645E+03</rscale>
<asrwt>0</asrwt>
<pdfrwt beam="1">  1       21 0.31339656E-01 0.12601645E+03</pdfrwt>
<pdfrwt beam="2">  1       21 0.17707679E-01 0.12601645E+03</pdfrwt>
<totfact> 0.28719962E+05</totfact>
</mgrwt>
</event>
<event>
 5    1  0.1365600E-001  0.7842457E+02  0.7546771E-02  0.1333583E+00
         21   -1    0    0  501  502  0.00000000000E+00  0.00000000000E+00  0.33728508543E+02  0.33728508543E+02  0.00000000000E+00 0. -1.
         21   -1    0    0  502  503 -0.00000000000E+00 -0.00000000000E+00 -0.99772430580E+03  0.99772430580E+03  0.00000000000E+00 0. -1.
         24    1    1    2    0    0 -0.16949413240E+02  0.31465008248E+01 -0.20526196595E+02  0.84768648554E+02  0.80419002446E+02 0. -1.
          1    1    1    2  501    0  0.38659386359E+02 -0.23168366904E+02 -0.42729278970E+03  0.42966318147E+03  0.00000000000E+00 0. -1.
         -2    1    1    2    0  503 -0.21709973119E+02  0.20021866079E+02 -0.51617681096E+03  0.51702098432E+03  0.00000000000E+00 0.  1.
<mgrwt>
<rscale>  2 0.78424574E+02</rscale>
<asrwt>0</asrwt>
<pdfrwt beam="1">  1       21 0.51890011E-02 0.78424574E+02</pdfrwt>
<pdfrwt beam="2">  1       21 0.15349605E+00 0.78424574E+02</pdfrwt>
<totfact> 0.76418845E+04</totfact>
</mgrwt>
</event>
<event>
 5    1  0.2457459E-001  0.1691618E+03  0.7546771E-02  0.1178725E+00
         21   -1    0    0  501  502  0.00000000000E+00  0.00000000000E+00  0.66930700354E+03  0.66930700354E+03  0.00000000000E+00 0.  1.
         21   -1    0    0  502  503 -0.00000000000E+00 -0.00000000000E+00 -0.45857365862E+02  0.45857365862E+02  0.00000000000E+00 0. -1.
         24    1    1    2    0    0  0.33823526773E+02  0.52403413693E+01  0.14478495239E+03  0.16911945640E+03  0.80419002446E+02 0. -1.
          1    1    1    2  501    0  0.39223506557E+02  0.10871040718E+03  0.30292922742E+03  0.32422608303E+03  0.00000000000E+00 0. -1.
         -2    1    1    2    0  503 -0.73047033330E+02 -0.11395074855E+03  0.17573545787E+03  0.22181882997E+03  0.00000000000E+00 0.  1.
<mgrwt>
<rscale>  2 0.16916176E+03</rscale>
<asrwt>0</asrwt>
<pdfrwt beam="1">  1       21 0.10297030E+00 0.16916176E+03</pdfrwt>
<pdfrwt beam="2">  1       21 0.70549798E-02 0.16916176E+03</pdfrwt>
<totfact> 0.11534812E+05</totfact>
</mgrwt>
</event>
<event>
 5    1  0.1365600E-001  0.1279215E+03  0.7546771E-02  0.1230573E+00
         21   -1    0    0  501  502  0.00000000000E+00  0.00000000000E+00  0.18295912497E+02  0.18295912497E+02  0.00000000000E+00 0. -1.
         21   -1    0    0  502  503 -0.00000000000E+00 -0.00000000000E+00 -0.94119505514E+03  0.94119505514E+03  0.00000000000E+00 0.  1.
         24    1    1    2    0    0  0.45225660646E+02 -0.70784633732E+02 -0.31723973954E+03  0.33788177378E+03  0.80419002446E+02 0.  0.
          1    1    1    2  501    0 -0.56105333919E+02  0.96504223873E+02 -0.46580553586E+03  0.47899443729E+03  0.00000000000E+00 0. -1.
         -2    1    1    2    0  503  0.10879673273E+02 -0.25719590141E+02 -0.13985386724E+03  0.14261475657E+03  0.00000000000E+00 0.  1.
<mgrwt>
<rscale>  2 0.12792147E+03</rscale>
<asrwt>0</asrwt>
<pdfrwt beam="1">  1       21 0.28147552E-02 0.12792147E+03</pdfrwt>
<pdfrwt beam="2">  1       21 0.14479927E+00 0.12792147E+03</pdfrwt>
<totfact> 0.23602391E+05</totfact>
</mgrwt>
</event>
<event>
 5    1  0.1365600E-001  0.1717451E+03  0.7546771E-02  0.1176040E+00
         21   -1    0    0  501  502  0.00000000000E+00  0.00000000000E+00  0.16869295838E+04  0.16869295838E+04  0.00000000000E+00 0.  1.
         21   -1    0    0  502  503 -0.00000000000E+00 -0.00000000000E+00 -0.21253422872E+02  0.21253422872E+02  0.00000000000E+00 0.  1.
         24    1    1    2    0    0 -0.35678969699E+02 -0.71087522396E+02  0.66124920686E+03  0.67085330307E+03  0.80419002446E+02 0.  1.
          1    1    1    2  501    0 -0.86801552817E+02  0.63720770868E+02  0.71359154722E+03  0.72167010640E+03  0.00000000000E+00 0. -1.
         -2    1    1    2    0  503  0.12248052252E+03  0.73667515280E+01  0.29083540684E+03  0.31565959719E+03  0.00000000000E+00 0.  1.
<mgrwt>
<rscale>  2 0.17174510E+03</rscale>
<asrwt>0</asrwt>
<pdfrwt beam="1">  1       21 0.25952752E+00 0.17174510E+03</pdfrwt>
<pdfrwt beam="2">  1       21 0.32697587E-02 0.17174510E+03</pdfrwt>
<totfact> 0.32671378E+04</totfact>
</mgrwt>
</event>
<event>
 5    1  0.1365600E-001  0.4027685E+03  0.7546771E-02  0.1042825E+00
         21   -1    0    0  501  502  0.00000000000E+00  0.00000000000E+00  0.42638787828E+03  0.42638787828E+03  0.00000000000E+00 0.  1.
         21   -1    0    0  502  503 -0.00000000000E+00 -0.00000000000E+00 -0.42648882324E+03  0.42648882324E+03  0.00000000000E+00 0.  1.
         24    1    1    2    0    0  0.26359872307E+03  0.23220895403E+03 -0.13325534021E+03  0.38422582785E+03  0.80419002446E+02 0.  1.
          1    1    1    2  501    0  0.38140532493E+01  0.53611713159E+02 -0.40218819819E+01  0.53897479763E+02  0.00000000000E+00 0. -1.
         -2    1    1    2    0  503 -0.26741277632E+03 -0.28582066718E+03  0.13717627723E+03  0.41475339391E+03  0.00000000000E+00 0.  1.
<mgrwt>
<rscale>  2 0.40276855E+03</rscale>
<asrwt>0</asrwt>
<pdfrwt beam="1">  1       21 0.65598135E-01 0.40276855E+03</pdfrwt>
<pdfrwt beam="2">  1       21 0.65613665E-01 0.40276855E+03</pdfrwt>
<totfact> 0.40649864E+03</totfact>
</mgrwt>
</event>
<event>
 5    1  0.1365600E-001  0.1319519E+03  0.7546771E-02  0.1224588E+00
         21   -1    0    0  501  502  0.00000000000E+00  0.00000000000E+00  0.11999759066E+03  0.11999759066E+03  0.00000000000E+00 0. -1.
         21   -1    0    0  502  503 -0.00000000000E+00 -0.00000000000E+00 -0.37321059352E+03  0.37321059352E+03  0.00000000000E+00 0. -1.
         24    1    1    2    0    0 -0.54992640699E+01  0.88851666497E+02  0.65254623720E+02  0.13656589038E+03  0.80419002446E+02 0. -1.
          1    1    1    2  501    0  0.21126993714E+02 -0.11311777401E+03 -0.16928632950E+03  0.20469450900E+03  0.00000000000E+00 0. -1.
         -2    1    1    2    0  503 -0.15627729644E+02  0.24266107511E+02 -0.14918129708E+03  0.15194778480E+03  0.00000000000E+00 0.  1.
<mgrwt>
<rscale>  2 0.13195187E+03</rscale>
<asrwt>0</asrwt>
<pdfrwt beam="1">  1       21 0.18461168E-01 0.13195187E+03</pdfrwt>
<pdfrwt beam="2">  1       21 0.57417014E-01 0.13195187E+03</pdfrwt>
<totfact> 0.78290572E+04</totfact>
</mgrwt>
</event>
<event>
 5    1  0.1365600E-001  0.1356465E+03  0.7546771E-02  0.1219310E+00
         21   -1    0    0  503  502  0.00000000000E+00  0.00000000000E+00  0.37074518651E+02  0.37074518651E+02  0.00000000000E+00 0.  1.
         21   -1    0    0  501  503 -0.00000000000E+00 -0.00000000000E+00 -0.49980271255E+03  0.49980271255E+03  0.00000000000E+00 0. -1.
         24    1    1    2    0    0  0.15923087088E+02 -0.40014709686E+02 -0.13510924219E+03  0.16302283574E+03  0.80419002446E+02 0.  1.
          1    1    1    2  501    0  0.46661342026E+02  0.89068270795E+02 -0.17996547455E+03  0.20615045412E+03  0.00000000000E+00 0. -1.
         -2    1    1    2    0  502 -0.62584429114E+02 -0.49053561109E+02 -0.14765347716E+03  0.16770394134E+03  0.00000000000E+00 0.  1.
<mgrwt>
<rscale>  2 0.13564651E+03</rscale>
<asrwt>0</asrwt>
<pdfrwt beam="1">  1       21 0.57037729E-02 0.13564651E+03</pdfrwt>
<pdfrwt beam="2">  1       21 0.76892714E-01 0.13564651E+03</pdfrwt>
<totfact> 0.32748273E+05</totfact>
</mgrwt>
</event>
<event>
 5    1  0.1365600E-001  0.1784612E+03  0.7546771E-02  0.1169301E+00
         21   -1    0    0  501  502  0.00000000000E+00  0.00000000000E+00  0.25571520285E+03  0.25571520285E+03  0.00000000000E+00 0.  1.
         21   -1    0    0  502  503 -0.00000000000E+00 -0.00000000000E+00 -0.13701356692E+03  0.13701356692E+03  0.00000000000E+00 0.  1.
         24    1    1    2    0    0  0.29323226608E+02  0.12135808035E+03  0.10816004732E+03  0.18372111223E+03  0.80419002446E+02 0.  1.
          1    1    1    2  501    0  0.52687062748E+02  0.99314826030E+01 -0.24023757505E+01  0.53668727737E+02  0.00000000000E+00 0. -1.
         -2    1    1    2    0  503 -0.82010289356E+02 -0.13128956296E+03  0.12943964352E+02  0.15533892981E+03  0.00000000000E+00 0.  1.
<mgrwt>
<rscale>  2 0.17846119E+03</rscale>
<asrwt>0</asrwt>
<pdfrwt beam="1">  1       21 0.39340800E-01 0.17846119E+03</pdfrwt>
<pdfrwt beam="2">  1       21 0.21079010E-01 0.17846119E+03</pdfrwt>
<totfact> 0.13094206E+05</totfact>
</mgrwt>
</event>
<event>
 5    1  0.1365600E-001  0.7320385E+02  0.7546771E-02  0.1349525E+00
         21   -1    0    0  503  502  0.00000000000E+00  0.00000000000E+00  0.72248906849E+02  0.72248906849E+02  0.00000000000E+00 0.  1.
         21   -1    0    0  501  503 -0.00000000000E+00 -0.00000000000E+00 -0.86949819379E+02  0.86949819379E+02  0.00000000000E+00 0.  1.
         24    1    1    2    0    0 -0.18186468399E+02  0.23055628800E+02  0.21720597522E+02  0.88325024559E+02  0.80419002446E+02 0.  1.
          1    1    1    2  501    0  0.21417787019E+02  0.12695806949E+02 -0.14504759884E+02  0.28814808244E+02  0.00000000000E+00 0. -1.
         -2    1    1    2    0  502 -0.32313186196E+01 -0.35751435749E+02 -0.21916750169E+02  0.42058893424E+02  0.00000000000E+00 0.  1.
<mgrwt>
<rscale>  2 0.73203855E+02</rscale>
<asrwt>0</asrwt>
<pdfrwt beam="1">  1       21 0.11115216E-01 0.73203855E+02</pdfrwt>
<pdfrwt beam="2">  1       21 0.13376895E-01 0.73203855E+02</pdfrwt>
<totfact> 0.31241652E+06</totfact>
</mgrwt>
</event>
<event>
 5    1  0.1365600E-001  0.8173452E+02  0.7546771E-02  0.1324200E+00
         21   -1    0    0  501  502  0.00000000000E+00  0.00000000000E+00  0.75156323171E+02  0.75156323171E+02  0.00000000000E+00 0. -1.
         21   -1    0    0  502  503 -0.00000000000E+00 -0.00000000000E+00 -0.39267133975E+03  0.39267133975E+03  0.00000000000E+00 0.  1.
         24    1    1    2    0    0  0.12431486458E+02  0.22896591760E+02  0.34446016523E+02  0.91282746335E+02  0.80419002446E+02 0. -1.
          1    1    1    2  501    0 -0.18964360635E+02 -0.48729029412E+02 -0.46652443931E+02  0.70075786163E+02  0.00000000000E+00 0. -1.
         -2    1    1    2    0  503  0.65328741766E+01  0.25832437652E+02 -0.30530858917E+03  0.30646913042E+03  0.00000000000E+00 0.  1.
<mgrwt>
<rscale>  2 0.81734516E+02</rscale>
<asrwt>0</asrwt>
<pdfrwt beam="1">  1       21 0.11562511E-01 0.81734516E+02</pdfrwt>
<pdfrwt beam="2">  1       21 0.60410976E-01 0.81734516E+02</pdfrwt>
<totfact> 0.16613886E+05</totfact>
</mgrwt>
</event>
<event>
 5    1  0.1365600E-001  0.2163555E+03  0.7546771E-02  0.1136630E+00
         21   -1    0    0  503  502  0.00000000000E+00  0.00000000000E+00  0.81790714544E+02  0.81790714544E+02  0.00000000000E+00 0.  1.
         21   -1    0    0  501  503 -0.00000000000E+00 -0.00000000000E+00 -0.73643399155E+03  0.73643399155E+03  0.00000000000E+00 0. -1.
         24    1    1    2    0    0 -0.44929706831E+02  0.69248846052E+02 -0.74214373808E+02  0.13707323032E+03  0.80419002446E+02 0.  1.
          1    1    1    2  501    0 -0.13179272042E+03 -0.15215012601E+02 -0.40564861456E+03  0.42679224015E+03  0.00000000000E+00 0. -1.
         -2    1    1    2    0  502  0.17672242725E+03 -0.54033833451E+02 -0.17478028864E+03  0.25435923563E+03  0.00000000000E+00 0.  1.
<mgrwt>
<rscale>  2 0.21635552E+03</rscale>
<asrwt>0</asrwt>
<pdfrwt beam="1">  1       21 0.12583186E-01 0.21635552E+03</pdfrwt>
<pdfrwt beam="2">  1       21 0.11329754E+00 0.21635552E+03</pdfrwt>
<totfact> 0.32332678E+04</totfact>
</mgrwt>
</event>
<event>
 5    1  0.1463924E-001  0.1607024E+03  0.7546771E-02  0.1187906E+00
         21   -1    0    0  503  502  0.00000000000E+00  0.00000000000E+00  0.43460383432E+03  0.43460383432E+03  0.00000000000E+00 0.  1.
         21   -1    0    0  501  503 -0.00000000000E+00 -0.00000000000E+00 -0.67746054172E+02  0.67746054172E+02  0.00000000000E+00 0. -1.
         24    1    1    2    0    0  0.22886144516E+02 -0.57297835512E+02  0.13884864639E+03  0.17190980229E+03  0.80419002446E+02 0.  0.
          1    1    1    2  501    0 -0.11907900727E+02  0.13804306030E+03  0.76160038767E+02  0.15810767250E+03  0.00000000000E+00 0. -1.
         -2    1    1    2    0  502 -0.10978243789E+02 -0.80745224790E+02  0.15184909499E+03  0.17233241370E+03  0.00000000000E+00 0.  1.
<mgrwt>
<rscale>  2 0.16070237E+03</rscale>
<asrwt>0</asrwt>
<pdfrwt beam="1">  1       21 0.66862127E-01 0.16070237E+03</pdfrwt>
<pdfrwt beam="2">  1       21 0.10422470E-01 0.16070237E+03</pdfrwt>
<totfact> 0.15625309E+05</totfact>
</mgrwt>
</event>
<event>
 5    1  0.1365600E-001  0.1128197E+03  0.7546771E-02  0.1255436E+00
         21   -1    0    0  501  502  0.00000000000E+00  0.00000000000E+00  0.15430957621E+03  0.15430957621E+03  0.00000000000E+00 0. -1.
         21   -1    0    0  502  503 -0.00000000000E+00 -0.00000000000E+00 -0.18671172698E+03  0.18671172698E+03  0.00000000000E+00 0.  1.
         24    1    1    2    0    0 -0.41704989586E+02  0.87337471488E+01  0.11140957186E+03  0.14385719708E+03  0.80419002446E+02 0. -1.
          1    1    1    2  501    0  0.81623328227E+01 -0.66947653863E+02 -0.66070042569E+02  0.94413254154E+02  0.00000000000E+00 0. -1.
         -2    1    1    2    0  503  0.33542656763E+02  0.58213906714E+02 -0.77741680069E+02  0.10275085196E+03  0.00000000000E+00 0.  1.
<mgrwt>
<rscale>  2 0.11281968E+03</rscale>
<asrwt>0</asrwt>
<pdfrwt beam="1">  1       21 0.23739935E-01 0.11281968E+03</pdfrwt>
<pdfrwt beam="2">  1       21 0.28724881E-01 0.11281968E+03</pdfrwt>
<totfact> 0.19810055E+05</totfact>
</mgrwt>
</event>
<event>
 5    1  0.1365600E-001  0.1133556E+03  0.7546771E-02  0.1254479E+00
         21   -1    0    0  503  502  0.00000000000E+00  0.00000000000E+00  0.13176420633E+04  0.13176420633E+04  0.00000000000E+00 0. -1.
         21   -1    0    0  501  503 -0.00000000000E+00 -0.00000000000E+00 -0.27553762533E+02  0.27553762533E+02  0.00000000000E+00 0. -1.
         24    1    1    2    0    0  0.32235748975E+02  0.31608129298E+02  0.92623785783E+03  0.93081792128E+03  0.80419002446E+02 0. -1.
          1    1    1    2  501    0  0.61621075241E+01 -0.75738816490E+02  0.41144716411E+02  0.86413121579E+02  0.00000000000E+00 0. -1.
         -2    1    1    2    0  502 -0.38397856499E+02  0.44130687192E+02  0.32270572650E+03  0.32796478295E+03  0.00000000000E+00 0.  1.
<mgrwt>
<rscale>  2 0.11335555E+03</rscale>
<asrwt>0</asrwt>
<pdfrwt beam="1">  1       21 0.20271412E+00 0.11335555E+03</pdfrwt>
<pdfrwt beam="2">  1       21 0.42390414E-02 0.11335555E+03</pdfrwt>
<totfact> 0.48722421E+04</totfact>
</mgrwt>
</event>
<event>
 5    1  0.1365600E-001  0.1065748E+03  0.7546771E-02  0.1267048E+00
         21   -1    0    0  503  502  0.00000000000E+00  0.00000000000E+00  0.34329999372E+02  0.34329999372E+02  0.00000000000E+00 0.  1.
         21   -1    0    0  501  503 -0.00000000000E+00 -0.00000000000E+00 -0.56637871157E+03  0.56637871157E+03  0.00000000000E+00 0.  1.
         24    1    1    2    0    0  0.51377987070E+02 -0.12553654415E+02 -0.70371776972E+02  0.11923378189E+03  0.80419002446E+02 0.  1.
          1    1    1    2  501    0  0.32420046290E+02  0.31117601013E+01 -0.27141746079E+03  0.27336455599E+03  0.00000000000E+00 0. -1.
         -2    1    1    2    0  502 -0.83798033359E+02  0.94418943133E+01 -0.19025947444E+03  0.20811037307E+03  0.00000000000E+00 0.  1.
<mgrwt>
<rscale>  2 0.10657482E+03</rscale>
<asrwt>0</asrwt>
<pdfrwt beam="1">  1       21 0.52815385E-02 0.10657482E+03</pdfrwt>
<pdfrwt beam="2">  1       21 0.87135184E-01 0.10657482E+03</pdfrwt>
<totfact> 0.28354637E+05</totfact>
</mgrwt>
</event>
<event>
 5    1  0.1365600E-001  0.1167502E+03  0.7546771E-02  0.1248557E+00
         21   -1    0    0  503  502  0.00000000000E+00  0.00000000000E+00  0.55401857381E+02  0.55401857381E+02  0.00000000000E+00 0.  1.
         21   -1    0    0  501  503 -0.00000000000E+00 -0.00000000000E+00 -0.28552071459E+03  0.28552071459E+03  0.00000000000E+00 0. -1.
         24    1    1    2    0    0  0.65346725550E+02  0.34600924149E+01 -0.42859260751E+02  0.11218867575E+03  0.80419002446E+02 0.  0.
          1    1    1    2  501    0 -0.91264290565E+02 -0.26615890258E+02 -0.15158034225E+03  0.17892505834E+03  0.00000000000E+00 0. -1.
         -2    1    1    2    0  502  0.25917565016E+02  0.23155797843E+02 -0.35679254210E+02  0.49808837881E+02  0.00000000000E+00 0.  1.
<mgrwt>
<rscale>  2 0.11675021E+03</rscale>
<asrwt>0</asrwt>
<pdfrwt beam="1">  1       21 0.85233628E-02 0.11675021E+03</pdfrwt>
<pdfrwt beam="2">  1       21 0.43926263E-01 0.11675021E+03</pdfrwt>
<totfact> 0.53958541E+05</totfact>
</mgrwt>
</event>
<event>
 5    1  0.1365600E-001  0.8886550E+02  0.7546771E-02  0.1305623E+00
         21   -1    0    0  501  502  0.00000000000E+00  0.00000000000E+00  0.53917065134E+02  0.53917065134E+02  0.00000000000E+00 0. -1.
         21   -1    0    0  502  503 -0.00000000000E+00 -0.00000000000E+00 -0.32273545858E+03  0.32273545858E+03  0.00000000000E+00 0.  1.
         24    1    1    2    0    0  0.20032766960E+02  0.47649624285E+02 -0.28640289208E+01  0.95641084596E+02  0.80419002446E+02 0. -1.
          1    1    1    2  501    0  0.23207297764E+02 -0.21277459046E+02 -0.49150327690E+02  0.58370057778E+02  0.00000000000E+00 0. -1.
         -2    1    1    2    0  503 -0.43240064724E+02 -0.26372165239E+02 -0.21680403683E+03  0.22264138133E+03  0.00000000000E+00 0.  1.
<mgrwt>
<rscale>  2 0.88865499E+02</rscale>
<asrwt>0</asrwt>
<pdfrwt beam="1">  1       21 0.82949330E-02 0.88865499E+02</pdfrwt>
<pdfrwt beam="2">  1       21 0.49651609E-01 0.88865499E+02</pdfrwt>
<totfact> 0.44168380E+05</totfact>
</mgrwt>
</event>
<event>
 5    1  0.1365600E-001  0.2111767E+03  0.7546771E-02  0.1140638E+00
         21   -1    0    0  501  502  0.00000000000E+00  0.00000000000E+00  0.13675831956E+03  0.13675831956E+03  0.00000000000E+00 0. -1.
         21   -1    0    0  502  503 -0.00000000000E+00 -0.00000000000E+00 -0.87592823005E+03  0.87592823005E+03  0.00000000000E+00 0.  1.
         24    1    1    2    0    0  0.10796801523E+02 -0.14945274907E+03  0.45153761579E+01  0.17011848725E+03  0.80419002446E+02 0. -1.
          1    1    1    2  501    0 -0.59001375415E+02 -0.30204334821E+02  0.93135900177E+01  0.66934349193E+02  0.00000000000E+00 0. -1.
         -2    1    1    2    0  503  0.48204573892E+02  0.17965708389E+03 -0.75299887667E+03  0.77563371316E+03  0.00000000000E+00 0.  1.
<mgrwt>
<rscale>  2 0.21117673E+03</rscale>
<asrwt>0</asrwt>
<pdfrwt beam="1">  1       21 0.21039742E-01 0.21117673E+03</pdfrwt>
<pdfrwt beam="2">  1       21 0.13475819E+00 0.21117673E+03</pdfrwt>
<totfact> 0.81704938E+03</totfact>
</mgrwt>
</event>
<event>
 5    1  0.1365600E-001  0.1585568E+03  0.7546771E-02  0.1190336E+00
         21   -1    0    0  501  502  0.00000000000E+00  0.00000000000E+00  0.28934336181E+03  0.28934336181E+03  0.00000000000E+00 0. -1.
         21   -1    0    0  502  503 -0.00000000000E+00 -0.00000000000E+00 -0.13950342310E+03  0.13950342310E+03  0.00000000000E+00 0.  1.
         24    1    1    2    0    0 -0.60114078195E+02 -0.16594489286E+02  0.17973895472E+03  0.20654875277E+03  0.80419002446E+02 0. -1.
          1    1    1    2  501    0  0.16979600178E+02 -0.94583441405E+02  0.98420094045E+01  0.96598133312E+02  0.00000000000E+00 0. -1.
         -2    1    1    2    0  503  0.43134478017E+02  0.11117793069E+03 -0.39741025413E+02  0.12569989884E+03  0.00000000000E+00 0.  1.
<mgrwt>
<rscale>  2 0.15855682E+03</rscale>
<asrwt>0</asrwt>
<pdfrwt beam="1">  1       21 0.44514363E-01 0.15855682E+03</pdfrwt>
<pdfrwt beam="2">  1       21 0.21462065E-01 0.15855682E+03</pdfrwt>
<totfact> 0.99321534E+04</totfact>
</mgrwt>
</event>
<event>
 5    1  0.1365600E-001  0.1864315E+03  0.7546771E-02  0.1161720E+00
         21   -1    0    0  503  502  0.00000000000E+00  0.00000000000E+00  0.26114045615E+03  0.26114045615E+03  0.00000000000E+00 0.  1.
         21   -1    0    0  501  503 -0.00000000000E+00 -0.00000000000E+00 -0.14146087628E+03  0.14146087628E+03  0.00000000000E+00 0. -1.
         24    1    1    2    0    0 -0.97147305117E+01 -0.71235067760E+02 -0.71769906793E+01  0.10810890813E+03  0.80419002446E+02 0. -1.
          1    1    1    2  501    0  0.12063387951E+03  0.92547402956E+02  0.83856215875E+02  0.17363588229E+03  0.00000000000E+00 0. -1.
         -2    1    1    2    0  502 -0.11091914899E+03 -0.21312335196E+02  0.43000354671E+02  0.12085654201E+03  0.00000000000E+00 0.  1.
<mgrwt>
<rscale>  2 0.18643155E+03</rscale>
<asrwt>0</asrwt>
<pdfrwt beam="1">  1       21 0.40175455E-01 0.18643155E+03</pdfrwt>
<pdfrwt beam="2">  1       21 0.21763212E-01 0.18643155E+03</pdfrwt>
<totfact> 0.11788126E+05</totfact>
</mgrwt>
</event>
<event>
 5    1  0.1365600E-001  0.8947309E+02  0.7546771E-02  0.1304133E+00
         21   -1    0    0  501  502  0.00000000000E+00  0.00000000000E+00  0.20687073668E+03  0.20687073668E+03  0.00000000000E+00 0. -1.
         21   -1    0    0  502  503 -0.00000000000E+00 -0.00000000000E+00 -0.28489115115E+03  0.28489115115E+03  0.00000000000E+00 0.  1.
         24    1    1    2    0    0  0.33701963038E+02  0.22876765008E+02  0.17939038978E+03  0.20076677163E+03  0.80419002446E+02 0. -1.
          1    1    1    2  501    0  0.19577500607E+02 -0.29190197764E+02 -0.82226454634E+01  0.36096510551E+02  0.00000000000E+00 0. -1.
         -2    1    1    2    0  503 -0.53279463645E+02  0.63134327564E+01 -0.24918815879E+03  0.25489860564E+03  0.00000000000E+00 0.  1.
<mgrwt>
<rscale>  2 0.89473087E+02</rscale>
<asrwt>0</asrwt>
<pdfrwt beam="1">  1       21 0.31826267E-01 0.89473087E+02</pdfrwt>
<pdfrwt beam="2">  1       21 0.43829408E-01 0.89473087E+02</pdfrwt>
<totfact> 0.50293856E+04</totfact>
</mgrwt>
</event>
<event>
 5    1  0.1365600E-001  0.1285948E+03  0.7546771E-02  0.1229556E+00
         21   -1    0    0  503  502  0.00000000000E+00  0.00000000000E+00  0.43095454083E+03  0.43095454083E+03  0.00000000000E+00 0. -1.
         21   -1    0    0  501  503 -0.00000000000E+00 -0.00000000000E+00 -0.42879235145E+02  0.42879235145E+02  0.00000000000E+00 0. -1.
         24    1    1    2    0    0 -0.10760983294E+02 -0.78966223147E+02  0.22957430791E+03  0.25597469009E+03  0.80419002446E+02 0. -1.
          1    1    1    2  501    0  0.59111297181E+01  0.11120826837E+03  0.94602053357E+02  0.14612244492E+03  0.00000000000E+00 0. -1.
         -2    1    1    2    0  502  0.48498535760E+01 -0.32242045225E+02  0.63898944425E+02  0.71736640977E+02  0.00000000000E+00 0.  1.
<mgrwt>
<rscale>  2 0.12859481E+03</rscale>
<asrwt>0</asrwt>
<pdfrwt beam="1">  1       21 0.66300696E-01 0.12859481E+03</pdfrwt>
<pdfrwt beam="2">  1       21 0.65968057E-02 0.12859481E+03</pdfrwt>
<totfact> 0.35430448E+05</totfact>
</mgrwt>
</event>
<event>
 5    1  0.1365600E-001  0.2019515E+03  0.7546771E-02  0.1148103E+00
         21   -1    0    0  501  502  0.00000000000E+00  0.00000000000E+00  0.88218398968E+03  0.88218398968E+03  0.00000000000E+00 0. -1.
         21   -1    0    0  502  503 -0.00000000000E+00 -0.00000000000E+00 -0.60422246138E+02  0.60422246138E+02  0.00000000000E+00 0.  1.
         24    1    1    2    0    0 -0.31537009946E+02  0.12910209560E+03  0.50420171207E+03  0.52758744914E+03  0.80419002446E+02 0. -1.
          1    1    1    2  501    0 -0.68829643406E+02 -0.13122242007E+03  0.26010300196E+03  0.29934998742E+03  0.00000000000E+00 0. -1.
         -2    1    1    2    0  503  0.10036665335E+03  0.21203244725E+01  0.57457029512E+02  0.11566879926E+03  0.00000000000E+00 0.  1.
<mgrwt>
<rscale>  2 0.20195153E+03</rscale>
<asrwt>0</asrwt>
<pdfrwt beam="1">  1       21 0.13572060E+00 0.20195153E+03</pdfrwt>
<pdfrwt beam="2">  1       21 0.92957308E-02 0.20195153E+03</pdfrwt>
<totfact> 0.35571663E+04</totfact>
</mgrwt>
</event>
<event>
 5    1  0.1365600E-001  0.9490411E+02  0.7546771E-02  0.1291392E+00
         21   -1    0    0  503  502  0.00000000000E+00  0.00000000000E+00  0.18056508925E+02  0.18056508925E+02  0.00000000000E+00 0. -1.
         21   -1    0    0  501  503 -0.00000000000E+00 -0.00000000000E+00 -0.74752294453E+03  0.74752294453E+03  0.00000000000E+00 0.  1.
         24    1    1    2    0    0  0.36440082189E+02 -0.47283554299E+02 -0.15798764301E+03  0.18705861486E+03  0.80419002446E+02 0.  0.
          1    1    1    2  501    0  0.19791830447E+02  0.14806687325E+02 -0.13615160009E+03  0.13837706728E+03  0.00000000000E+00 0. -1.
         -2    1    1    2    0  502 -0.56231912636E+02  0.32476866975E+02 -0.43532719251E+03  0.44014377131E+03  0.00000000000E+00 0.  1.
<mgrwt>
<rscale>  2 0.94904113E+02</rscale>
<asrwt>0</asrwt>
<pdfrwt beam="1">  1       21 0.27779249E-02 0.94904113E+02</pdfrwt>
<pdfrwt beam="2">  1       21 0.11500351E+00 0.94904113E+02</pdfrwt>
<totfact> 0.43039758E+05</totfact>
</mgrwt>
</event>
<event>
 5    1  0.1365600E-001  0.9358683E+02  0.7546771E-02  0.1294391E+00
         21   -1    0    0  503  502  0.00000000000E+00  0.00000000000E+00  0.88936638386E+02  0.88936638386E+02  0.00000000000E+00 0.  1.
         21   -1    0    0  501  503 -0.00000000000E+00 -0.00000000000E+00 -0.12409583092E+03  0.12409583092E+03  0.00000000000E+00 0.  1.
         24    1    1    2    0    0 -0.85198106756E+01 -0.51678565605E+02  0.30336490295E+02  0.10065177552E+03  0.80419002446E+02 0.  1.
          1    1    1    2  501    0  0.32889145811E+02 -0.12714984062E+01 -0.26423485117E+02  0.42207975385E+02  0.00000000000E+00 0. -1.
         -2    1    1    2    0  502 -0.24369335136E+02  0.52950064012E+02 -0.39072197709E+02  0.70172718399E+02  0.00000000000E+00 0.  1.
<mgrwt>
<rscale>  2 0.93586828E+02</rscale>
<asrwt>0</asrwt>
<pdfrwt beam="1">  1       21 0.13682560E-01 0.93586828E+02</pdfrwt>
<pdfrwt beam="2">  1       21 0.19091666E-01 0.93586828E+02</pdfrwt>
<totfact> 0.11594583E+06</totfact>
</mgrwt>
</event>
<event>
 5    1  0.1365600E-001  0.9995956E+02  0.7546771E-02  0.1280381E+00
         21   -1    0    0  503  502  0.00000000000E+00  0.00000000000E+00  0.12305886714E+02  0.12305886714E+02  0.00000000000E+00 0.  1.
         21   -1    0    0  501  503 -0.00000000000E+00 -0.00000000000E+00 -0.11883883525E+04  0.11883883525E+04  0.00000000000E+00 0.  1.
         24    1    1    2    0    0 -0.53871097673E+02 -0.37119841924E+02 -0.26524157972E+03  0.28478112542E+03  0.80419002446E+02 0.  1.
          1    1    1    2  501    0  0.17128688555E+01  0.43651272640E+02 -0.40748384240E+03  0.40981880062E+03  0.00000000000E+00 0. -1.
         -2    1    1    2    0  502  0.52158228818E+02 -0.65314307163E+01 -0.50335704365E+03  0.50609431316E+03  0.00000000000E+00 0.  1.
<mgrwt>
<rscale>  2 0.99959561E+02</rscale>
<asrwt>0</asrwt>
<pdfrwt beam="1">  1       21 0.18932131E-02 0.99959561E+02</pdfrwt>
<pdfrwt beam="2">  1       21 0.18282900E+00 0.99959561E+02</pdfrwt>
<totfact> 0.24481423E+05</totfact>
</mgrwt>
</event>
<event>
 5    1  0.1365600E-001  0.8197026E+02  0.7546771E-02  0.1323551E+00
         21   -1    0    0  501  502  0.00000000000E+00  0.00000000000E+00  0.83333122461E+03  0.83333122461E+03  0.00000000000E+00 0. -1.
         21   -1    0    0  502  503 -0.00000000000E+00 -0.00000000000E+00 -0.17007179560E+02  0.17007179560E+02  0.00000000000E+00 0. -1.
         24    1    1    2    0    0 -0.34264425219E+02 -0.25134312188E+02  0.61771712823E+03  0.62437765090E+03  0.80419002446E+02 0. -1.
          1    1    1    2  501    0  0.12240548283E+02  0.42947951655E+02  0.19166134648E+03  0.19679539962E+03  0.00000000000E+00 0. -1.
         -2    1    1    2    0  503  0.22023876937E+02 -0.17813639467E+02  0.69455703375E+01  0.29165353653E+02  0.00000000000E+00 0.  1.
<mgrwt>
<rscale>  2 0.81970262E+02</rscale>
<asrwt>0</asrwt>
<pdfrwt beam="1">  1       21 0.12820477E+00 0.81970262E+02</pdfrwt>
<pdfrwt beam="2">  1       21 0.26164898E-02 0.81970262E+02</pdfrwt>
<totfact> 0.36593462E+05</totfact>
</mgrwt>
</event>
<event>
 5    1  0.1365600E-001  0.8913080E+02  0.7546771E-02  0.1304970E+00
         21   -1    0    0  503  502  0.00000000000E+00  0.00000000000E+00  0.83786521555E+01  0.83786521555E+01  0.00000000000E+00 0. -1.
         21   -1    0    0  501  503 -0.00000000000E+00 -0.00000000000E+00 -0.11070802456E+04  0.11070802456E+04  0.00000000000E+00 0.  1.
         24    1    1    2    0    0 -0.39885363853E+02 -0.33815613598E+02 -0.40811307944E+03  0.41923482624E+03  0.80419002446E+02 0.  0.
          1    1    1    2  501    0 -0.10099253365E+02  0.30628697890E+02 -0.40455655150E+03  0.40584001209E+03  0.00000000000E+00 0. -1.
         -2    1    1    2    0  502  0.49984617218E+02  0.31869157079E+01 -0.28603196251E+03  0.29038405942E+03  0.00000000000E+00 0.  1.
<mgrwt>
<rscale>  2 0.89130804E+02</rscale>
<asrwt>0</asrwt>
<pdfrwt beam="1">  1       21 0.12890231E-02 0.89130804E+02</pdfrwt>
<pdfrwt beam="2">  1       21 0.17032007E+00 0.89130804E+02</pdfrwt>
<totfact> 0.54849484E+05</totfact>
</mgrwt>
</event>
<event>
 5    1  0.1365600E-001  0.9196740E+02  0.7546771E-02  0.1298156E+00
         21   -1    0    0  503  502  0.00000000000E+00  0.00000000000E+00  0.22820735415E+02  0.22820735415E+02  0.00000000000E+00 0. -1.
         21   -1    0    0  501  503 -0.00000000000E+00 -0.00000000000E+00 -0.52149330497E+03  0.52149330497E+03  0.00000000000E+00 0.  1.
         24    1    1    2    0    0 -0.71725786449E+02 -0.13420190225E+02 -0.16384767584E+03  0.19656542620E+03  0.80419002446E+02 0.  0.
          1    1    1    2  501    0  0.20040605358E+02  0.12561373712E+02 -0.22639652904E+03  0.22762865007E+03  0.00000000000E+00 0. -1.
         -2    1    1    2    0  502  0.51685181091E+02  0.85881651272E+00 -0.10842836468E+03  0.12011996411E+03  0.00000000000E+00 0.  1.
<mgrwt>
<rscale>  2 0.91967396E+02</rscale>
<asrwt>0</asrwt>
<pdfrwt beam="1">  1       21 0.35108828E-02 0.91967396E+02</pdfrwt>
<pdfrwt beam="2">  1       21 0.80229729E-01 0.91967396E+02</pdfrwt>
<totfact> 0.67196522E+05</totfact>
</mgrwt>
</event>
<event>
 5    1  0.1365600E-001  0.7627586E+02  0.7546771E-02  0.1339965E+00
         21   -1    0    0  501  502  0.00000000000E+00  0.00000000000E+00  0.31020032053E+03  0.31020032053E+03  0.00000000000E+00 0.  1.
         21   -1    0    0  502  503 -0.00000000000E+00 -0.00000000000E+00 -0.64510356048E+02  0.64510356048E+02  0.00000000000E+00 0.  1.
         24    1    1    2    0    0 -0.16257013998E+01 -0.20008326874E+02  0.27440961076E+03  0.28665454205E+03  0.80419002446E+02 0.  1.
          1    1    1    2  501    0 -0.25365539597E+02  0.31402498793E+02  0.79264135717E+01  0.41138249375E+02  0.00000000000E+00 0. -1.
         -2    1    1    2    0  503  0.26991240996E+02 -0.11394171919E+02 -0.36646059849E+02  0.46917885148E+02  0.00000000000E+00 0.  1.
<mgrwt>
<rscale>  2 0.76275856E+02</rscale>
<asrwt>0</asrwt>
<pdfrwt beam="1">  1       21 0.47723125E-01 0.76275856E+02</pdfrwt>
<pdfrwt beam="2">  1       21 0.99246703E-02 0.76275856E+02</pdfrwt>
<totfact> 0.35209447E+05</totfact>
</mgrwt>
</event>
<event>
 5    1  0.1365600E-001  0.1032596E+03  0.7546771E-02  0.1273587E+00
         21   -1    0    0  501  502  0.00000000000E+00  0.00000000000E+00  0.14930563519E+03  0.14930563519E+03  0.00000000000E+00 0. -1.
         21   -1    0    0  502  503 -0.00000000000E+00 -0.00000000000E+00 -0.95717797472E+02  0.95717797472E+02  0.00000000000E+00 0. -1.
         24    1    1    2    0    0  0.50861241838E+02  0.13206404571E+02  0.85659328514E+02  0.12870901895E+03  0.80419002446E+02 0. -1.
          1    1    1    2  501    0 -0.65183235964E+02  0.24875243242E+02 -0.11452277948E+02  0.70702097899E+02  0.00000000000E+00 0. -1.
         -2    1    1    2    0  503  0.14321994126E+02 -0.38081647812E+02 -0.20619212846E+02  0.45612315817E+02  0.00000000000E+00 0.  1.
<mgrwt>
<rscale>  2 0.10325961E+03</rscale>
<asrwt>0</asrwt>
<pdfrwt beam="1">  1       21 0.22970098E-01 0.10325961E+03</pdfrwt>
<pdfrwt beam="2">  1       21 0.14725815E-01 0.10325961E+03</pdfrwt>
<totfact> 0.72430487E+05</totfact>
</mgrwt>
</event>
<event>
 5    1  0.1365600E-001  0.6793624E+02  0.7546771E-02  0.1367255E+00
         21   -1    0    0  503  502  0.00000000000E+00  0.00000000000E+00  0.14619559984E+03  0.14619559984E+03  0.00000000000E+00 0. -1.
         21   -1    0    0  501  503 -0.00000000000E+00 -0.00000000000E+00 -0.32266339745E+03  0.32266339745E+03  0.00000000000E+00 0. -1.
         24    1    1    2    0    0 -0.90381390788E+01 -0.15027543906E+02  0.12297542073E+03  0.14797866431E+03  0.80419002446E+02 0. -1.
          1    1    1    2  501    0  0.11319247984E+02 -0.17562369695E+02 -0.28395949811E+03  0.28472716550E+03  0.00000000000E+00 0. -1.
         -2    1    1    2    0  502 -0.22811089055E+01  0.32589913601E+02 -0.15483720233E+02  0.36153167477E+02  0.00000000000E+00 0.  1.
<mgrwt>
<rscale>  2 0.67936237E+02</rscale>
<asrwt>0</asrwt>
<pdfrwt beam="1">  1       21 0.22491631E-01 0.67936237E+02</pdfrwt>
<pdfrwt beam="2">  1       21 0.49640522E-01 0.67936237E+02</pdfrwt>
<totfact> 0.76349948E+04</totfact>
</mgrwt>
</event>
<event>
 5    1  0.1365600E-001  0.8988779E+02  0.7546771E-02  0.1303124E+00
         21   -1    0    0  501  502  0.00000000000E+00  0.00000000000E+00  0.42795320798E+02  0.42795320798E+02  0.00000000000E+00 0. -1.
         21   -1    0    0  502  503 -0.00000000000E+00 -0.00000000000E+00 -0.28265024228E+03  0.28265024228E+03  0.00000000000E+00 0.  1.
         24    1    1    2    0    0 -0.10622697737E+02 -0.19675675870E+02 -0.26081131405E+02  0.87449501416E+02  0.80419002446E+02 0. -1.
          1    1    1    2  501    0  0.30977980454E+02 -0.29689902719E+02 -0.50793831535E+02  0.66491645479E+02  0.00000000000E+00 0. -1.
         -2    1    1    2    0  503 -0.20355282717E+02  0.49365578589E+02 -0.16297995855E+03  0.17150441619E+03  0.00000000000E+00 0.  1.
<mgrwt>
<rscale>  2 0.89887790E+02</rscale>
<asrwt>0</asrwt>
<pdfrwt beam="1">  1       21 0.65838954E-02 0.89887790E+02</pdfrwt>
<pdfrwt beam="2">  1       21 0.43484653E-01 0.89887790E+02</pdfrwt>
<totfact> 0.85508950E+05</totfact>
</mgrwt>
</event>
<event>
 5    1  0.1365600E-001  0.1155617E+03  0.7546771E-02  0.1250604E+00
         21   -1    0    0  501  502  0.00000000000E+00  0.00000000000E+00  0.27993543674E+03  0.27993543674E+03  0.00000000000E+00 0. -1.
         21   -1    0    0  502  503 -0.00000000000E+00 -0.00000000000E+00 -0.87405593573E+02  0.87405593573E+02  0.00000000000E+00 0.  1.
         24    1    1    2    0    0  0.48450924920E+01 -0.11388519118E+02  0.70970813074E+02  0.10796872488E+03  0.80419002446E+02 0.  0.
          1    1    1    2  501    0  0.22487557730E+02  0.76183811586E+02  0.16043160811E+03  0.17901945224E+03  0.00000000000E+00 0. -1.
         -2    1    1    2    0  503 -0.27332650222E+02 -0.64795292467E+02 -0.38872578019E+02  0.80352853191E+02  0.00000000000E+00 0.  1.
<mgrwt>
<rscale>  2 0.11556172E+03</rscale>
<asrwt>0</asrwt>
<pdfrwt beam="1">  1       21 0.43066990E-01 0.11556172E+03</pdfrwt>
<pdfrwt beam="2">  1       21 0.13447015E-01 0.11556172E+03</pdfrwt>
<totfact> 0.25251561E+05</totfact>
</mgrwt>
</event>
<event>
 5    1  0.1365600E-001  0.7124170E+02  0.7546771E-02  0.1355921E+00
         21   -1    0    0  501  502  0.00000000000E+00  0.00000000000E+00  0.28327249263E+03  0.28327249263E+03  0.00000000000E+00 0.  1.
         21   -1    0    0  502  503 -0.00000000000E+00 -0.00000000000E+00 -0.30727047185E+02  0.30727047185E+02  0.00000000000E+00 0. -1.
         24    1    1    2    0    0 -0.19442761127E+01  0.19710981810E+02  0.23129399027E+03  0.24567545442E+03  0.80419002446E+02 0.  1.
          1    1    1    2  501    0  0.11322257910E+02 -0.37705953100E+02  0.26384692144E+02  0.47392872912E+02  0.00000000000E+00 0. -1.
         -2    1    1    2    0  503 -0.93779817972E+01  0.17994971290E+02 -0.51332369699E+01  0.20931212486E+02  0.00000000000E+00 0.  1.
<mgrwt>
<rscale>  2 0.71241700E+02</rscale>
<asrwt>0</asrwt>
<pdfrwt beam="1">  1       21 0.43580382E-01 0.71241700E+02</pdfrwt>
<pdfrwt beam="2">  1       21 0.47272382E-02 0.71241700E+02</pdfrwt>
<totfact> 0.14710156E+06</totfact>
</mgrwt>
</event>
<event>
 5    1  0.1365600E-001  0.1416034E+03  0.7546771E-02  0.1211188E+00
         21   -1    0    0  501  502  0.00000000000E+00  0.00000000000E+00  0.21456943308E+03  0.21456943308E+03  0.00000000000E+00 0.  1.
         21   -1    0    0  502  503 -0.00000000000E+00 -0.00000000000E+00 -0.12385934429E+03  0.12385934429E+03  0.00000000000E+00 0. -1.
         24    1    1    2    0    0 -0.28130943549E+02  0.62787409219E+02  0.11845701788E+03  0.15884863796E+03  0.80419002446E+02 0.  1.
          1    1    1    2  501    0 -0.66154493742E+02 -0.40292109578E+01 -0.82920556805E+01  0.66793785419E+02  0.00000000000E+00 0. -1.
         -2    1    1    2    0  503  0.94285437291E+02 -0.58758198262E+02 -0.19454873401E+02  0.11278635399E+03  0.00000000000E+00 0.  1.
<mgrwt>
<rscale>  2 0.14160340E+03</rscale>
<asrwt>0</asrwt>
<pdfrwt beam="1">  1       21 0.33010682E-01 0.14160340E+03</pdfrwt>
<pdfrwt beam="2">  1       21 0.19055284E-01 0.14160340E+03</pdfrwt>
<totfact> 0.22613755E+05</totfact>
</mgrwt>
</event>
<event>
 5    1  0.1365600E-001  0.7000882E+02  0.7546771E-02  0.1360063E+00
         21   -1    0    0  501  502  0.00000000000E+00  0.00000000000E+00  0.21888337914E+01  0.21888337914E+01  0.00000000000E+00 0. -1.
         21   -1    0    0  502  503 -0.00000000000E+00 -0.00000000000E+00 -0.27481356363E+04  0.27481356363E+04  0.00000000000E+00 0.  1.
         24    1    1    2    0    0  0.78259963644E+00 -0.35914886110E+02 -0.10915065901E+04  0.10950544935E+04  0.80419002446E+02 0. -1.
          1    1    1    2  501    0  0.18230492943E+02  0.14431425756E+02 -0.63271641673E+03  0.63314349157E+03  0.00000000000E+00 0. -1.
         -2    1    1    2    0  503 -0.19013092579E+02  0.21483460354E+02 -0.10217237956E+04  0.10221264850E+04  0.00000000000E+00 0.  1.
<mgrwt>
<rscale>  2 0.70008818E+02</rscale>
<asrwt>0</asrwt>
<pdfrwt beam="1">  1       21 0.33674518E-03 0.70008818E+02</pdfrwt>
<pdfrwt beam="2">  1       21 0.42278819E+00 0.70008818E+02</pdfrwt>
<totfact> 0.15713143E+05</totfact>
</mgrwt>
</event>
<event>
 5    1  0.1365600E-001  0.7887967E+02  0.7546771E-02  0.1332261E+00
         21   -1    0    0  503  502  0.00000000000E+00  0.00000000000E+00  0.14678739832E+03  0.14678739832E+03  0.00000000000E+00 0.  1.
         21   -1    0    0  501  503 -0.00000000000E+00 -0.00000000000E+00 -0.56619623004E+02  0.56619623004E+02  0.00000000000E+00 0. -1.
         24    1    1    2    0    0 -0.24292806188E+02 -0.40067344709E+02  0.99708304088E+02  0.13639829326E+03  0.80419002446E+02 0.  0.
          1    1    1    2  501    0 -0.91584372855E+01  0.27443706949E+02 -0.11658321374E+02  0.31192154172E+02  0.00000000000E+00 0. -1.
         -2    1    1    2    0  502  0.33451243474E+02  0.12623637760E+02  0.21177926036E+01  0.35816573897E+02  0.00000000000E+00 0.  1.
<mgrwt>
<rscale>  2 0.78879668E+02</rscale>
<asrwt>0</asrwt>
<pdfrwt beam="1">  1       21 0.22582676E-01 0.78879668E+02</pdfrwt>
<pdfrwt beam="2">  1       21 0.87107113E-02 0.78879668E+02</pdfrwt>
<totfact> 0.18600301E+06</totfact>
</mgrwt>
</event>
<event>
 5    1  0.1365600E-001  0.1014079E+03  0.7546771E-02  0.1277363E+00
         21   -1    0    0  501  502  0.00000000000E+00  0.00000000000E+00  0.16387181933E+03  0.16387181933E+03  0.00000000000E+00 0.  1.
         21   -1    0    0  502  503 -0.00000000000E+00 -0.00000000000E+00 -0.15876684301E+03  0.15876684301E+03  0.00000000000E+00 0.  1.
         24    1    1    2    0    0 -0.56508403191E+02 -0.87826253082E+01  0.12788939959E+03  0.16153404787E+03  0.80419002446E+02 0.  1.
          1    1    1    2  501    0 -0.16278959821E+02  0.24745028789E+02 -0.39085192941E+02  0.49040527015E+02  0.00000000000E+00 0. -1.
         -2    1    1    2    0  503  0.72787363012E+02 -0.15962403481E+02 -0.83699230331E+02  0.11206408746E+03  0.00000000000E+00 0.  1.
<mgrwt>
<rscale>  2 0.10140787E+03</rscale>
<asrwt>0</asrwt>
<pdfrwt beam="1">  1       21 0.25211049E-01 0.10140787E+03</pdfrwt>
<pdfrwt beam="2">  1       21 0.24425668E-01 0.10140787E+03</pdfrwt>
<totfact> 0.24121397E+05</totfact>
</mgrwt>
</event>
<event>
 5    1  0.1365600E-001  0.1081390E+03  0.7546771E-02  0.1264055E+00
         21   -1    0    0  503  502  0.00000000000E+00  0.00000000000E+00  0.84561977913E+02  0.84561977913E+02  0.00000000000E+00 0. -1.
         21   -1    0    0  501  503 -0.00000000000E+00 -0.00000000000E+00 -0.16346313349E+03  0.16346313349E+03  0.00000000000E+00 0. -1.
         24    1    1    2    0    0  0.85585405640E+02 -0.36107315581E+02  0.29470296069E+01  0.12290036955E+03  0.80419002446E+02 0. -1.
          1    1    1    2  501    0 -0.61247565278E+02  0.20902926446E+02 -0.65589598432E+02  0.92142237920E+02  0.00000000000E+00 0. -1.
         -2    1    1    2    0  502 -0.24337840362E+02  0.15204389136E+02 -0.16258586747E+02  0.32982503930E+02  0.00000000000E+00 0.  1.
<mgrwt>
<rscale>  2 0.10813903E+03</rscale>
<asrwt>0</asrwt>
<pdfrwt beam="1">  1       21 0.13009535E-01 0.10813903E+03</pdfrwt>
<pdfrwt beam="2">  1       21 0.25148174E-01 0.10813903E+03</pdfrwt>
<totfact> 0.76264827E+05</totfact>
</mgrwt>
</event>
<event>
 5    1  0.1365600E-001  0.1733411E+03  0.7546771E-02  0.1174408E+00
         21   -1    0    0  503  502  0.00000000000E+00  0.00000000000E+00  0.62563964489E+03  0.62563964489E+03  0.00000000000E+00 0.  1.
         21   -1    0    0  501  503 -0.00000000000E+00 -0.00000000000E+00 -0.11866839369E+03  0.11866839369E+03  0.00000000000E+00 0. -1.
         24    1    1    2    0    0  0.23088183845E+02  0.32450522572E+01  0.38657546398E+03  0.39553937845E+03  0.80419002446E+02 0.  0.
          1    1    1    2  501    0 -0.12672641726E+03  0.61386916302E+02 -0.40727560323E+02  0.14658332953E+03  0.00000000000E+00 0. -1.
         -2    1    1    2    0  502  0.10363823342E+03 -0.64631968559E+02  0.16112334755E+03  0.20218533060E+03  0.00000000000E+00 0.  1.
<mgrwt>
<rscale>  2 0.17334114E+03</rscale>
<asrwt>0</asrwt>
<pdfrwt beam="1">  1       21 0.96252251E-01 0.17334114E+03</pdfrwt>
<pdfrwt beam="2">  1       21 0.18256676E-01 0.17334114E+03</pdfrwt>
<totfact> 0.24853985E+04</totfact>
</mgrwt>
</event>
<event>
 5    1  0.1365600E-001  0.1015649E+03  0.7546771E-02  0.1277039E+00
         21   -1    0    0  503  502  0.00000000000E+00  0.00000000000E+00  0.19863952986E+03  0.19863952986E+03  0.00000000000E+00 0.  1.
         21   -1    0    0  501  503 -0.00000000000E+00 -0.00000000000E+00 -0.93367434777E+02  0.93367434777E+02  0.00000000000E+00 0. -1.
         24    1    1    2    0    0 -0.10484420727E+02  0.17742794058E+02  0.12956516746E+03  0.15388007796E+03  0.80419002446E+02 0.  1.
          1    1    1    2  501    0  0.45038283334E+02  0.35013379062E+02 -0.44011317411E+02  0.72051229963E+02  0.00000000000E+00 0. -1.
         -2    1    1    2    0  502 -0.34553862606E+02 -0.52756173120E+02  0.19718245034E+02  0.66075656716E+02  0.00000000000E+00 0.  1.
<mgrwt>
<rscale>  2 0.10156493E+03</rscale>
<asrwt>0</asrwt>
<pdfrwt beam="1">  1       21 0.30559928E-01 0.10156493E+03</pdfrwt>
<pdfrwt beam="2">  1       21 0.14364221E-01 0.10156493E+03</pdfrwt>
<totfact> 0.44141849E+05</totfact>
</mgrwt>
</event>
<event>
 5    1  0.1365600E-001  0.1143517E+03  0.7546771E-02  0.1252717E+00
         21   -1    0    0  501  502  0.00000000000E+00  0.00000000000E+00  0.16830984197E+03  0.16830984197E+03  0.00000000000E+00 0.  1.
         21   -1    0    0  502  503 -0.00000000000E+00 -0.00000000000E+00 -0.18654838086E+03  0.18654838086E+03  0.00000000000E+00 0. -1.
         24    1    1    2    0    0 -0.10757946270E+02 -0.85781671937E+02  0.12626363654E+03  0.17286975014E+03  0.80419002446E+02 0.  1.
          1    1    1    2  501    0 -0.27033565542E+02  0.57134954438E+02 -0.82676164470E+02  0.10406999979E+03  0.00000000000E+00 0. -1.
         -2    1    1    2    0  503  0.37791511812E+02  0.28646717498E+02 -0.61826010953E+02  0.77918472898E+02  0.00000000000E+00 0.  1.
<mgrwt>
<rscale>  2 0.11435174E+03</rscale>
<asrwt>0</asrwt>
<pdfrwt beam="1">  1       21 0.25893822E-01 0.11435174E+03</pdfrwt>
<pdfrwt beam="2">  1       21 0.28699751E-01 0.11435174E+03</pdfrwt>
<totfact> 0.16843674E+05</totfact>
</mgrwt>
</event>
<event>
 5    1  0.1365600E-001  0.1892066E+03  0.7546771E-02  0.1159179E+00
         21   -1    0    0  501  502  0.00000000000E+00  0.00000000000E+00  0.43932504562E+03  0.43932504562E+03  0.00000000000E+00 0.  1.
         21   -1    0    0  502  503 -0.00000000000E+00 -0.00000000000E+00 -0.91998325801E+02  0.91998325801E+02  0.00000000000E+00 0. -1.
         24    1    1    2    0    0 -0.73327242081E+02  0.28116159693E+02  0.17832845814E+03  0.21079767030E+03  0.80419002446E+02 0.  0.
          1    1    1    2  501    0  0.15738618798E+03  0.34584790867E+02  0.13519818326E+03  0.21034511804E+03  0.00000000000E+00 0. -1.
         -2    1    1    2    0  503 -0.84058945897E+02 -0.62700950561E+02  0.33800078411E+02  0.11018058308E+03  0.00000000000E+00 0.  1.
<mgrwt>
<rscale>  2 0.18920661E+03</rscale>
<asrwt>0</asrwt>
<pdfrwt beam="1">  1       21 0.67588467E-01 0.18920661E+03</pdfrwt>
<pdfrwt beam="2">  1       21 0.14153589E-01 0.18920661E+03</pdfrwt>
<totfact> 0.87368482E+04</totfact>
</mgrwt>
</event>
<event>
 5    1  0.1365600E-001  0.1248793E+03  0.7546771E-02  0.1235258E+00
         21   -1    0    0  501  502  0.00000000000E+00  0.00000000000E+00  0.21116994246E+03  0.21116994246E+03  0.00000000000E+00 0.  1.
         21   -1    0    0  502  503 -0.00000000000E+00 -0.00000000000E+00 -0.76711209139E+02  0.76711209139E+02  0.00000000000E+00 0.  1.
         24    1    1    2    0    0  0.32302551414E+00 -0.67461481860E+02  0.79492005739E+02  0.13167137430E+03  0.80419002446E+02 0.  1.
          1    1    1    2  501    0 -0.29712931663E+01 -0.38590691568E+02  0.24611109090E+02  0.45866946154E+02  0.00000000000E+00 0. -1.
         -2    1    1    2    0  503  0.26482676521E+01  0.10605217343E+03  0.30355618492E+02  0.11034283114E+03  0.00000000000E+00 0.  1.
<mgrwt>
<rscale>  2 0.12487929E+03</rscale>
<asrwt>0</asrwt>
<pdfrwt beam="1">  1       21 0.32487683E-01 0.12487929E+03</pdfrwt>
<pdfrwt beam="2">  1       21 0.11801725E-01 0.12487929E+03</pdfrwt>
<totfact> 0.55523037E+05</totfact>
</mgrwt>
</event>
<event>
 5    1  0.1365600E-001  0.8413534E+02  0.7546771E-02  0.1317709E+00
         21   -1    0    0  501  502  0.00000000000E+00  0.00000000000E+00  0.45505060397E+02  0.45505060397E+02  0.00000000000E+00 0.  1.
         21   -1    0    0  502  503 -0.00000000000E+00 -0.00000000000E+00 -0.16257329951E+03  0.16257329951E+03  0.00000000000E+00 0.  1.
         24    1    1    2    0    0 -0.30458801533E+02  0.35724183913E+02 -0.62507366546E+02  0.11215321098E+03  0.80419002446E+02 0.  1.
          1    1    1    2  501    0  0.16511786800E+02  0.15144678199E+02 -0.38079505577E+01  0.22726655463E+02  0.00000000000E+00 0. -1.
         -2    1    1    2    0  503  0.13947014733E+02 -0.50868862111E+02 -0.50752922015E+02  0.73198493465E+02  0.00000000000E+00 0.  1.
<mgrwt>
<rscale>  2 0.84135340E+02</rscale>
<asrwt>0</asrwt>
<pdfrwt beam="1">  1       21 0.70007785E-02 0.84135340E+02</pdfrwt>
<pdfrwt beam="2">  1       21 0.25011277E-01 0.84135340E+02</pdfrwt>
<totfact> 0.22376626E+06</totfact>
</mgrwt>
</event>
<event>
 5    1  0.1365600E-001  0.9757160E+02  0.7546771E-02  0.1285487E+00
         21   -1    0    0  501  502  0.00000000000E+00  0.00000000000E+00  0.10210479824E+03  0.10210479824E+03  0.00000000000E+00 0. -1.
         21   -1    0    0  502  503 -0.00000000000E+00 -0.00000000000E+00 -0.15551669599E+03  0.15551669599E+03  0.00000000000E+00 0.  1.
         24    1    1    2    0    0  0.12476195047E+02  0.15315265887E+02  0.56201791044E+02  0.10008031816E+03  0.80419002446E+02 0. -1.
          1    1    1    2  501    0  0.12429211507E+02 -0.59947685681E+02 -0.50232725456E+02  0.79193036461E+02  0.00000000000E+00 0. -1.
         -2    1    1    2    0  503 -0.24905406554E+02  0.44632419794E+02 -0.59380963346E+02  0.78348139609E+02  0.00000000000E+00 0.  1.
<mgrwt>
<rscale>  2 0.97571601E+02</rscale>
<asrwt>0</asrwt>
<pdfrwt beam="1">  1       21 0.15708431E-01 0.97571601E+02</pdfrwt>
<pdfrwt beam="2">  1       21 0.23925645E-01 0.97571601E+02</pdfrwt>
<totfact> 0.59775274E+05</totfact>
</mgrwt>
</event>
<event>
 5    1  0.1365600E-001  0.1272978E+03  0.7546771E-02  0.1231521E+00
         21   -1    0    0  503  502  0.00000000000E+00  0.00000000000E+00  0.65253475561E+02  0.65253475561E+02  0.00000000000E+00 0.  1.
         21   -1    0    0  501  503 -0.00000000000E+00 -0.00000000000E+00 -0.28345631509E+03  0.28345631509E+03  0.00000000000E+00 0. -1.
         24    1    1    2    0    0  0.22717533845E+02 -0.14800093094E+02 -0.50130006009E+02  0.98566538726E+02  0.80419002446E+02 0.  1.
          1    1    1    2  501    0  0.71515531535E+02 -0.10191995336E+02 -0.12321004767E+03  0.14282529141E+03  0.00000000000E+00 0. -1.
         -2    1    1    2    0  502 -0.94233065380E+02  0.24992088430E+02 -0.44862785851E+02  0.10731796052E+03  0.00000000000E+00 0.  1.
<mgrwt>
<rscale>  2 0.12729783E+03</rscale>
<asrwt>0</asrwt>
<pdfrwt beam="1">  1       21 0.10038996E-01 0.12729783E+03</pdfrwt>
<pdfrwt beam="2">  1       21 0.43608663E-01 0.12729783E+03</pdfrwt>
<totfact> 0.41161781E+05</totfact>
</mgrwt>
</event>
<event>
 5    1  0.1365600E-001  0.7652187E+02  0.7546771E-02  0.1339222E+00
         21   -1    0    0  501  502  0.00000000000E+00  0.00000000000E+00  0.42229003880E+02  0.42229003880E+02  0.00000000000E+00 0.  1.
         21   -1    0    0  502  503 -0.00000000000E+00 -0.00000000000E+00 -0.14625612164E+03  0.14625612164E+03  0.00000000000E+00 0. -1.
         24    1    1    2    0    0  0.26296239684E+01 -0.39892114364E+01 -0.52704089949E+02  0.96269235905E+02  0.80419002446E+02 0.  1.
          1    1    1    2  501    0 -0.31342895317E+02  0.22265588447E+02 -0.12147656200E+02  0.40319958667E+02  0.00000000000E+00 0. -1.
         -2    1    1    2    0  503  0.28713271348E+02 -0.18276377011E+02 -0.39175371609E+02  0.51895930947E+02  0.00000000000E+00 0.  1.
<mgrwt>
<rscale>  2 0.76521868E+02</rscale>
<asrwt>0</asrwt>
<pdfrwt beam="1">  1       21 0.64967698E-02 0.76521868E+02</pdfrwt>
<pdfrwt beam="2">  1       21 0.22500942E-01 0.76521868E+02</pdfrwt>
<totfact> 0.30736232E+06</totfact>
</mgrwt>
</event>
<event>
 5    1  0.1893763E-001  0.1450635E+03  0.7546771E-02  0.1206674E+00
         21   -1    0    0  503  502  0.00000000000E+00  0.00000000000E+00  0.12596432712E+03  0.12596432712E+03  0.00000000000E+00 0.  1.
         21   -1    0    0  501  503 -0.00000000000E+00 -0.00000000000E+00 -0.17613001786E+03  0.17613001786E+03  0.00000000000E+00 0. -1.
         24    1    1    2    0    0  0.64033412821E+01 -0.40837841598E+02  0.56979140829E+01  0.90600299476E+02  0.80419002446E+02 0.  0.
          1    1    1    2  501    0  0.70362570505E+02  0.85627933684E+02 -0.52290050088E+02  0.12254502721E+03  0.00000000000E+00 0. -1.
         -2    1    1    2    0  502 -0.76765911788E+02 -0.44790092086E+02 -0.35735547301E+01  0.88949018292E+02  0.00000000000E+00 0.  1.
<mgrwt>
<rscale>  2 0.14506350E+03</rscale>
<asrwt>0</asrwt>
<pdfrwt beam="1">  1       21 0.19379127E-01 0.14506350E+03</pdfrwt>
<pdfrwt beam="2">  1       21 0.27096926E-01 0.14506350E+03</pdfrwt>
<totfact> 0.32088576E+05</totfact>
</mgrwt>
</event>
<event>
 5    1  0.1737392E-001  0.1328312E+03  0.7546771E-02  0.1223314E+00
         21   -1    0    0  501  502  0.00000000000E+00  0.00000000000E+00  0.74274688960E+03  0.74274688960E+03  0.00000000000E+00 0. -1.
         21   -1    0    0  502  503 -0.00000000000E+00 -0.00000000000E+00 -0.26245573907E+02  0.26245573907E+02  0.00000000000E+00 0.  1.
         24    1    1    2    0    0  0.33118931552E+02  0.58061057485E+01  0.27058688255E+03  0.28427988225E+03  0.80419002446E+02 0.  0.
          1    1    1    2  501    0  0.69828789350E+02  0.19469082986E+02  0.26781950669E+03  0.27745701141E+03  0.00000000000E+00 0. -1.
         -2    1    1    2    0  503 -0.10294772090E+03 -0.25275188734E+02  0.17809492645E+03  0.20725556985E+03  0.00000000000E+00 0.  1.
<mgrwt>
<rscale>  2 0.13283122E+03</rscale>
<asrwt>0</asrwt>
<pdfrwt beam="1">  1       21 0.11426874E+00 0.13283122E+03</pdfrwt>
<pdfrwt beam="2">  1       21 0.40377812E-02 0.13283122E+03</pdfrwt>
<totfact> 0.23406662E+05</totfact>
</mgrwt>
</event>
<event>
 5    1  0.1365600E-001  0.1020300E+03  0.7546771E-02  0.1276084E+00
         21   -1    0    0  501  502  0.00000000000E+00  0.00000000000E+00  0.54444853138E+02  0.54444853138E+02  0.00000000000E+00 0. -1.
         21   -1    0    0  502  503 -0.00000000000E+00 -0.00000000000E+00 -0.32842672657E+03  0.32842672657E+03  0.00000000000E+00 0. -1.
         24    1    1    2    0    0 -0.77080065556E+02  0.12173594834E+02 -0.21750468091E+02  0.11414828835E+03  0.80419002446E+02 0. -1.
          1    1    1    2  501    0  0.59696658853E+02 -0.30250865100E+02 -0.16805455303E+03  0.18088985243E+03  0.00000000000E+00 0. -1.
         -2    1    1    2    0  503  0.17383406703E+02  0.18077270266E+02 -0.84176852301E+02  0.87833438918E+02  0.00000000000E+00 0.  1.
<mgrwt>
<rscale>  2 0.10203003E+03</rscale>
<asrwt>0</asrwt>
<pdfrwt beam="1">  1       21 0.83761315E-02 0.10203003E+03</pdfrwt>
<pdfrwt beam="2">  1       21 0.50527187E-01 0.10203003E+03</pdfrwt>
<totfact> 0.41862070E+05</totfact>
</mgrwt>
</event>
<event>
 5    1  0.1365600E-001  0.1262966E+03  0.7546771E-02  0.1233057E+00
         21   -1    0    0  501  502  0.00000000000E+00  0.00000000000E+00  0.15787879449E+03  0.15787879449E+03  0.00000000000E+00 0.  1.
         21   -1    0    0  502  503 -0.00000000000E+00 -0.00000000000E+00 -0.10136755088E+03  0.10136755088E+03  0.00000000000E+00 0.  1.
         24    1    1    2    0    0  0.38617321728E+02  0.69598738034E+02  0.31168099811E+02  0.11736246535E+03  0.80419002446E+02 0.  1.
          1    1    1    2  501    0 -0.57556061833E+01  0.32077738937E+02  0.87873350955E+01  0.33753897493E+02  0.00000000000E+00 0. -1.
         -2    1    1    2    0  503 -0.32861715545E+02 -0.10167647697E+03  0.16555808701E+02  0.10812998252E+03  0.00000000000E+00 0.  1.
<mgrwt>
<rscale>  2 0.12629658E+03</rscale>
<asrwt>0</asrwt>
<pdfrwt beam="1">  1       21 0.24289045E-01 0.12629658E+03</pdfrwt>
<pdfrwt beam="2">  1       21 0.15595008E-01 0.12629658E+03</pdfrwt>
<totfact> 0.58854260E+05</totfact>
</mgrwt>
</event>
<event>
 5    1  0.1365600E-001  0.9961872E+02  0.7546771E-02  0.1281100E+00
         21   -1    0    0  501  502  0.00000000000E+00  0.00000000000E+00  0.19164858811E+03  0.19164858811E+03  0.00000000000E+00 0. -1.
         21   -1    0    0  502  503 -0.00000000000E+00 -0.00000000000E+00 -0.67464155876E+02  0.67464155876E+02  0.00000000000E+00 0. -1.
         24    1    1    2    0    0  0.26689262938E+02  0.40241917726E+02  0.11313074398E+03  0.14696091278E+03  0.80419002446E+02 0. -1.
          1    1    1    2  501    0 -0.57529281352E+02 -0.37427380433E+01  0.24304623008E+02  0.62564694521E+02  0.00000000000E+00 0. -1.
         -2    1    1    2    0  503  0.30840018414E+02 -0.36499179682E+02 -0.13250934745E+02  0.49587136688E+02  0.00000000000E+00 0.  1.
<mgrwt>
<rscale>  2 0.99618723E+02</rscale>
<asrwt>0</asrwt>
<pdfrwt beam="1">  1       21 0.29484398E-01 0.99618723E+02</pdfrwt>
<pdfrwt beam="2">  1       21 0.10379101E-01 0.99618723E+02</pdfrwt>
<totfact> 0.83828591E+05</totfact>
</mgrwt>
</event>
<event>
 5    1  0.1365600E-001  0.2451741E+03  0.7546771E-02  0.1116393E+00
         21   -1    0    0  501  502  0.00000000000E+00  0.00000000000E+00  0.72179104384E+02  0.72179104384E+02  0.00000000000E+00 0.  1.
         21   -1    0    0  502  503 -0.00000000000E+00 -0.00000000000E+00 -0.89652833645E+03  0.89652833645E+03  0.00000000000E+00 0. -1.
         24    1    1    2    0    0 -0.66168794326E+01 -0.65363050091E+02 -0.29523472476E+03  0.31296464668E+03  0.80419002446E+02 0.  0.
          1    1    1    2  501    0 -0.98659594612E+01  0.22540308564E+03 -0.28739738157E+03  0.36537808240E+03  0.00000000000E+00 0. -1.
         -2    1    1    2    0  503  0.16482838894E+02 -0.16004003554E+03 -0.24171712573E+03  0.29036471174E+03  0.00000000000E+00 0.  1.
<mgrwt>
<rscale>  2 0.24517415E+03</rscale>
<asrwt>0</asrwt>
<pdfrwt beam="1">  1       21 0.11104477E-01 0.24517415E+03</pdfrwt>
<pdfrwt beam="2">  1       21 0.13792745E+00 0.24517415E+03</pdfrwt>
<totfact> 0.24304492E+04</totfact>
</mgrwt>
</event>
<event>
 5    1  0.1365600E-001  0.2551730E+03  0.7546771E-02  0.1110079E+00
         21   -1    0    0  503  502  0.00000000000E+00  0.00000000000E+00  0.11064839997E+04  0.11064839997E+04  0.00000000000E+00 0.  1.
         21   -1    0    0  501  503 -0.00000000000E+00 -0.00000000000E+00 -0.12842257320E+03  0.12842257320E+03  0.00000000000E+00 0. -1.
         24    1    1    2    0    0 -0.11053909242E+03 -0.58736284007E+02  0.50785418429E+03  0.52919932962E+03  0.80419002446E+02 0.  1.
          1    1    1    2  501    0  0.23147952459E+03  0.11623277763E+02  0.14886794824E+02  0.23224876221E+03  0.00000000000E+00 0. -1.
         -2    1    1    2    0  502 -0.12094043217E+03  0.47113006244E+02  0.45532044737E+03  0.47345848105E+03  0.00000000000E+00 0.  1.
<mgrwt>
<rscale>  2 0.25517304E+03</rscale>
<asrwt>0</asrwt>
<pdfrwt beam="1">  1       21 0.17022830E+00 0.25517304E+03</pdfrwt>
<pdfrwt beam="2">  1       21 0.19757320E-01 0.25517304E+03</pdfrwt>
<totfact> 0.47818889E+03</totfact>
</mgrwt>
</event>
<event>
 5    1  0.1365600E-001  0.1030884E+03  0.7546771E-02  0.1273932E+00
         21   -1    0    0  501  502  0.00000000000E+00  0.00000000000E+00  0.18200347168E+03  0.18200347168E+03  0.00000000000E+00 0.  1.
         21   -1    0    0  502  503 -0.00000000000E+00 -0.00000000000E+00 -0.41425249804E+03  0.41425249804E+03  0.00000000000E+00 0.  1.
         24    1    1    2    0    0 -0.40041485327E+02  0.75664682957E+02  0.15745807789E+03  0.19644013602E+03  0.80419002446E+02 0.  1.
          1    1    1    2  501    0  0.27491464653E+02 -0.27255780171E+02 -0.19361400208E+03  0.19744629645E+03  0.00000000000E+00 0. -1.
         -2    1    1    2    0  503  0.12550020674E+02 -0.48408902786E+02 -0.19609310217E+03  0.20236953725E+03  0.00000000000E+00 0.  1.
<mgrwt>
<rscale>  2 0.10308839E+03</rscale>
<asrwt>0</asrwt>
<pdfrwt beam="1">  1       21 0.28000534E-01 0.10308839E+03</pdfrwt>
<pdfrwt beam="2">  1       21 0.63731153E-01 0.10308839E+03</pdfrwt>
<totfact> 0.29344757E+04</totfact>
</mgrwt>
</event>
<event>
 5    1  0.1365600E-001  0.2612186E+03  0.7546771E-02  0.1106413E+00
         21   -1    0    0  501  502  0.00000000000E+00  0.00000000000E+00  0.40519808874E+03  0.40519808874E+03  0.00000000000E+00 0. -1.
         21   -1    0    0  502  503 -0.00000000000E+00 -0.00000000000E+00 -0.50889156786E+03  0.50889156786E+03  0.00000000000E+00 0.  1.
         24    1    1    2    0    0  0.79278859531E+02 -0.93322058352E+02  0.12908851958E+03  0.19525676937E+03  0.80419002446E+02 0.  1.
          1    1    1    2  501    0 -0.56738207561E+02 -0.13503642091E+03  0.18873487862E+03  0.23890356544E+03  0.00000000000E+00 0. -1.
         -2    1    1    2    0  503 -0.22540651969E+02  0.22835847927E+03 -0.42151687732E+03  0.47992932179E+03  0.00000000000E+00 0.  1.
<mgrwt>
<rscale>  2 0.26121863E+03</rscale>
<asrwt>0</asrwt>
<pdfrwt beam="1">  1       21 0.62338168E-01 0.26121863E+03</pdfrwt>
<pdfrwt beam="2">  1       21 0.78291010E-01 0.26121863E+03</pdfrwt>
<totfact> 0.32768518E+03</totfact>
</mgrwt>
</event>
<event>
 5    1  0.1365600E-001  0.1024787E+03  0.7546771E-02  0.1275168E+00
         21   -1    0    0  501  502  0.00000000000E+00  0.00000000000E+00  0.39237923445E+02  0.39237923445E+02  0.00000000000E+00 0. -1.
         21   -1    0    0  502  503 -0.00000000000E+00 -0.00000000000E+00 -0.36816288857E+03  0.36816288857E+03  0.00000000000E+00 0. -1.
         24    1    1    2    0    0 -0.17199488187E+02 -0.76618930734E+02 -0.79791379580E+02  0.13784107933E+03  0.80419002446E+02 0. -1.
          1    1    1    2  501    0  0.34054614952E+02  0.59358709275E+02 -0.11956350483E+03  0.13776285731E+03  0.00000000000E+00 0. -1.
         -2    1    1    2    0  503 -0.16855126764E+02  0.17260221459E+02 -0.12957008071E+03  0.13179687538E+03  0.00000000000E+00 0.  1.
<mgrwt>
<rscale>  2 0.10247872E+03</rscale>
<asrwt>0</asrwt>
<pdfrwt beam="1">  1       21 0.60366034E-02 0.10247872E+03</pdfrwt>
<pdfrwt beam="2">  1       21 0.56640446E-01 0.10247872E+03</pdfrwt>
<totfact> 0.57709208E+05</totfact>
</mgrwt>
</event>
<event>
 5    1  0.1365600E-001  0.1524923E+03  0.7546771E-02  0.1197443E+00
         21   -1    0    0  503  502  0.00000000000E+00  0.00000000000E+00  0.85249635797E+02  0.85249635797E+02  0.00000000000E+00 0.  1.
         21   -1    0    0  501  503 -0.00000000000E+00 -0.00000000000E+00 -0.30094321820E+03  0.30094321820E+03  0.00000000000E+00 0. -1.
         24    1    1    2    0    0  0.27835987337E+02  0.55517024687E+02 -0.70175693763E+02  0.12348613756E+03  0.80419002446E+02 0. -1.
          1    1    1    2  501    0  0.25853634227E+02 -0.11811298508E+03 -0.13223068308E+03  0.17917600620E+03  0.00000000000E+00 0. -1.
         -2    1    1    2    0  502 -0.53689621563E+02  0.62595960397E+02 -0.13287205561E+02  0.83530710240E+02  0.00000000000E+00 0.  1.
<mgrwt>
<rscale>  2 0.15249231E+03</rscale>
<asrwt>0</asrwt>
<pdfrwt beam="1">  1       21 0.13115329E-01 0.15249231E+03</pdfrwt>
<pdfrwt beam="2">  1       21 0.46298956E-01 0.15249231E+03</pdfrwt>
<totfact> 0.22603104E+05</totfact>
</mgrwt>
</event>
<event>
 5    1  0.1365600E-001  0.1798067E+03  0.7546771E-02  0.1167990E+00
         21   -1    0    0  503  502  0.00000000000E+00  0.00000000000E+00  0.41076281006E+03  0.41076281006E+03  0.00000000000E+00 0. -1.
         21   -1    0    0  501  503 -0.00000000000E+00 -0.00000000000E+00 -0.43394596724E+03  0.43394596724E+03  0.00000000000E+00 0. -1.
         24    1    1    2    0    0  0.31846256857E+02  0.15268348016E+03  0.32768349854E+03  0.37171241620E+03  0.80419002446E+02 0. -1.
          1    1    1    2  501    0  0.20567756935E+02  0.21385026726E+01 -0.30155957769E+03  0.30226773681E+03  0.00000000000E+00 0. -1.
         -2    1    1    2    0  502 -0.52414013791E+02 -0.15482198283E+03 -0.49307078025E+02  0.17072862429E+03  0.00000000000E+00 0.  1.
<mgrwt>
<rscale>  2 0.17980670E+03</rscale>
<asrwt>0</asrwt>
<pdfrwt beam="1">  1       21 0.63194279E-01 0.17980670E+03</pdfrwt>
<pdfrwt beam="2">  1       21 0.66760918E-01 0.17980670E+03</pdfrwt>
<totfact> 0.48129078E+03</totfact>
</mgrwt>
</event>
<event>
 5    1  0.1424226E-001  0.1752576E+03  0.7546771E-02  0.1172473E+00
         21   -1    0    0  501  502  0.00000000000E+00  0.00000000000E+00  0.47077142583E+03  0.47077142583E+03  0.00000000000E+00 0. -1.
         21   -1    0    0  502  503 -0.00000000000E+00 -0.00000000000E+00 -0.81288408127E+02  0.81288408127E+02  0.00000000000E+00 0.  1.
         24    1    1    2    0    0 -0.24304656155E+02  0.85080459742E+02  0.16654486521E+03  0.20502148430E+03  0.80419002446E+02 0.  1.
          1    1    1    2  501    0  0.54937902883E+01  0.72268660380E+02  0.16160594157E+03  0.17711414781E+03  0.00000000000E+00 0. -1.
         -2    1    1    2    0  503  0.18810865867E+02 -0.15734912012E+03  0.61332210927E+02  0.16992420185E+03  0.00000000000E+00 0.  1.
<mgrwt>
<rscale>  2 0.17525759E+03</rscale>
<asrwt>0</asrwt>
<pdfrwt beam="1">  1       21 0.72426372E-01 0.17525759E+03</pdfrwt>
<pdfrwt beam="2">  1       21 0.12505909E-01 0.17525759E+03</pdfrwt>
<totfact> 0.94302601E+04</totfact>
</mgrwt>
</event>
<event>
 5    1  0.1365600E-001  0.1420383E+03  0.7546771E-02  0.1210612E+00
         21   -1    0    0  503  502  0.00000000000E+00  0.00000000000E+00  0.13144927379E+03  0.13144927379E+03  0.00000000000E+00 0.  1.
         21   -1    0    0  501  503 -0.00000000000E+00 -0.00000000000E+00 -0.26525559959E+03  0.26525559959E+03  0.00000000000E+00 0. -1.
         24    1    1    2    0    0 -0.82844127726E+02  0.24324679074E+02  0.63159137979E+02  0.13383247803E+03  0.80419002446E+02 0.  1.
          1    1    1    2  501    0  0.11038896561E+03 -0.56270569266E+02 -0.17737109589E+03  0.21636221101E+03  0.00000000000E+00 0. -1.
         -2    1    1    2    0  502 -0.27544837889E+02  0.31945890193E+02 -0.19594367890E+02  0.46510184342E+02  0.00000000000E+00 0.  1.
<mgrwt>
<rscale>  2 0.14203830E+03</rscale>
<asrwt>0</asrwt>
<pdfrwt beam="1">  1       21 0.20222965E-01 0.14203830E+03</pdfrwt>
<pdfrwt beam="2">  1       21 0.40808554E-01 0.14203830E+03</pdfrwt>
<totfact> 0.13305497E+05</totfact>
</mgrwt>
</event>
<event>
 5    1  0.1365600E-001  0.8828074E+02  0.7546771E-02  0.1307069E+00
         21   -1    0    0  501  502  0.00000000000E+00  0.00000000000E+00  0.17367767952E+03  0.17367767952E+03  0.00000000000E+00 0. -1.
         21   -1    0    0  502  503 -0.00000000000E+00 -0.00000000000E+00 -0.74893337864E+02  0.74893337864E+02  0.00000000000E+00 0. -1.
         24    1    1    2    0    0  0.35727943349E+02 -0.39949249878E+02  0.11895503268E+03  0.15326429544E+03  0.80419002446E+02 0. -1.
          1    1    1    2  501    0 -0.52142724775E+02  0.25467551655E+02  0.91180316834E+01  0.58741794628E+02  0.00000000000E+00 0. -1.
         -2    1    1    2    0  503  0.16414781427E+02  0.14481698223E+02 -0.29288722702E+02  0.36564927324E+02  0.00000000000E+00 0.  1.
<mgrwt>
<rscale>  2 0.88280742E+02</rscale>
<asrwt>0</asrwt>
<pdfrwt beam="1">  1       21 0.26719643E-01 0.88280742E+02</pdfrwt>
<pdfrwt beam="2">  1       21 0.11522052E-01 0.88280742E+02</pdfrwt>
<totfact> 0.84082710E+05</totfact>
</mgrwt>
</event>
<event>
 5    1  0.1365600E-001  0.9990784E+02  0.7546771E-02  0.1280490E+00
         21   -1    0    0  503  502  0.00000000000E+00  0.00000000000E+00  0.57335982393E+03  0.57335982393E+03  0.00000000000E+00 0. -1.
         21   -1    0    0  501  503 -0.00000000000E+00 -0.00000000000E+00 -0.19561498134E+02  0.19561498134E+02  0.00000000000E+00 0.  1.
         24    1    1    2    0    0 -0.10851989218E+02  0.39939264319E+02  0.34226104951E+03  0.35400953726E+03  0.80419002446E+02 0. -1.
          1    1    1    2  501    0  0.45335166857E+02  0.12120277608E+02  0.70759035373E+02  0.84905945435E+02  0.00000000000E+00 0. -1.
         -2    1    1    2    0  502 -0.34483177639E+02 -0.52059541927E+02  0.14077824091E+03  0.15400583937E+03  0.00000000000E+00 0.  1.
<mgrwt>
<rscale>  2 0.99907842E+02</rscale>
<asrwt>0</asrwt>
<pdfrwt beam="1">  1       21 0.88209191E-01 0.99907842E+02</pdfrwt>
<pdfrwt beam="2">  1       21 0.30094617E-02 0.99907842E+02</pdfrwt>
<totfact> 0.69920415E+05</totfact>
</mgrwt>
</event>
<event>
 5    1  0.1365600E-001  0.1079997E+03  0.7546771E-02  0.1264320E+00
         21   -1    0    0  501  502  0.00000000000E+00  0.00000000000E+00  0.22124882386E+02  0.22124882386E+02  0.00000000000E+00 0. -1.
         21   -1    0    0  502  503 -0.00000000000E+00 -0.00000000000E+00 -0.94351240658E+03  0.94351240658E+03  0.00000000000E+00 0.  1.
         24    1    1    2    0    0 -0.14651277965E+02  0.60372809840E+02 -0.50705544684E+03  0.51713825834E+03  0.80419002446E+02 0. -1.
          1    1    1    2  501    0 -0.34457840232E+02 -0.55100157462E+02 -0.53146166762E+02  0.83951683409E+02  0.00000000000E+00 0. -1.
         -2    1    1    2    0  503  0.49109118198E+02 -0.52726523784E+01 -0.36118591059E+03  0.36454734721E+03  0.00000000000E+00 0.  1.
<mgrwt>
<rscale>  2 0.10799972E+03</rscale>
<asrwt>0</asrwt>
<pdfrwt beam="1">  1       21 0.34038284E-02 0.10799972E+03</pdfrwt>
<pdfrwt beam="2">  1       21 0.14515574E+00 0.10799972E+03</pdfrwt>
<totfact> 0.17327185E+05</totfact>
</mgrwt>
</event>
<event>
 5    1  0.1365600E-001  0.8487484E+02  0.7546771E-02  0.1315760E+00
         21   -1    0    0  501  502  0.00000000000E+00  0.00000000000E+00  0.62740517605E+02  0.62740517605E+02  0.00000000000E+00 0.  1.
         21   -1    0    0  502  503 -0.00000000000E+00 -0.00000000000E+00 -0.74548058087E+03  0.74548058087E+03  0.00000000000E+00 0.  1.
         24    1    1    2    0    0  0.32489944444E+02  0.29638304405E+02  0.25388750526E+02  0.95109569369E+02  0.80419002446E+02 0.  1.
          1    1    1    2  501    0 -0.18026049882E+02  0.19684739178E+02 -0.13058109194E+03  0.13328109019E+03  0.00000000000E+00 0. -1.
         -2    1    1    2    0  503 -0.14463894562E+02 -0.49323043583E+02 -0.57754772186E+03  0.57983043892E+03  0.00000000000E+00 0.  1.
<mgrwt>
<rscale>  2 0.84874845E+02</rscale>
<asrwt>0</asrwt>
<pdfrwt beam="1">  1       21 0.96523875E-02 0.84874845E+02</pdfrwt>
<pdfrwt beam="2">  1       21 0.11468932E+00 0.84874845E+02</pdfrwt>
<totfact> 0.54439332E+04</totfact>
</mgrwt>
</event>
<event>
 5    1  0.1365600E-001  0.8624637E+02  0.7546771E-02  0.1312205E+00
         21   -1    0    0  501  502  0.00000000000E+00  0.00000000000E+00  0.82740081284E+02  0.82740081284E+02  0.00000000000E+00 0.  1.
         21   -1    0    0  502  503 -0.00000000000E+00 -0.00000000000E+00 -0.28813501767E+03  0.28813501767E+03  0.00000000000E+00 0. -1.
         24    1    1    2    0    0 -0.34795818514E+02  0.32302435965E+02  0.48222420511E+02  0.10510382557E+03  0.80419002446E+02 0.  1.
          1    1    1    2  501    0  0.38692515189E+02  0.72452731254E+01 -0.11379623187E+03  0.12041257037E+03  0.00000000000E+00 0. -1.
         -2    1    1    2    0  503 -0.38966966749E+01 -0.39547709090E+02 -0.13982112503E+03  0.14535870302E+03  0.00000000000E+00 0.  1.
<mgrwt>
<rscale>  2 0.86246370E+02</rscale>
<asrwt>0</asrwt>
<pdfrwt beam="1">  1       21 0.12729244E-01 0.86246370E+02</pdfrwt>
<pdfrwt beam="2">  1       21 0.44328463E-01 0.86246370E+02</pdfrwt>
<totfact> 0.26433819E+05</totfact>
</mgrwt>
</event>
<event>
 5    1  0.1365600E-001  0.1954754E+03  0.7546771E-02  0.1153614E+00
         21   -1    0    0  501  502  0.00000000000E+00  0.00000000000E+00  0.21861200967E+02  0.21861200967E+02  0.00000000000E+00 0.  1.
         21   -1    0    0  502  503 -0.00000000000E+00 -0.00000000000E+00 -0.19844796050E+04  0.19844796050E+04  0.00000000000E+00 0. -1.
         24    1    1    2    0    0  0.57639746068E+02  0.43115282591E+02 -0.28862209049E+03  0.30814151780E+03  0.80419002446E+02 0.  1.
          1    1    1    2  501    0  0.77553965564E+01  0.11325941804E+03 -0.56108302932E+03  0.57245262489E+03  0.00000000000E+00 0. -1.
         -2    1    1    2    0  503 -0.65395142624E+02 -0.15637470063E+03 -0.11129132842E+04  0.11257466632E+04  0.00000000000E+00 0.  1.
<mgrwt>
<rscale>  2 0.19547539E+03</rscale>
<asrwt>0</asrwt>
<pdfrwt beam="1">  1       21 0.33632625E-02 0.19547539E+03</pdfrwt>
<pdfrwt beam="2">  1       21 0.30530449E+00 0.19547539E+03</pdfrwt>
<totfact> 0.16605728E+04</totfact>
</mgrwt>
</event>
<event>
 5    1  0.1365600E-001  0.1067807E+03  0.7546771E-02  0.1266650E+00
         21   -1    0    0  501  502  0.00000000000E+00  0.00000000000E+00  0.40827911354E+03  0.40827911354E+03  0.00000000000E+00 0.  1.
         21   -1    0    0  502  503 -0.00000000000E+00 -0.00000000000E+00 -0.42083317803E+02  0.42083317803E+02  0.00000000000E+00 0. -1.
         24    1    1    2    0    0 -0.43689750367E+02  0.16420097088E+02  0.29637865953E+03  0.31062185959E+03  0.80419002446E+02 0.  1.
          1    1    1    2  501    0  0.64743509787E+02  0.28676806084E+02  0.47010239099E+02  0.84994375383E+02  0.00000000000E+00 0. -1.
         -2    1    1    2    0  503 -0.21053759420E+02 -0.45096903173E+02  0.22806897111E+02  0.54746196373E+02  0.00000000000E+00 0.  1.
<mgrwt>
<rscale>  2 0.10678072E+03</rscale>
<asrwt>0</asrwt>
<pdfrwt beam="1">  1       21 0.62812169E-01 0.10678072E+03</pdfrwt>
<pdfrwt beam="2">  1       21 0.64743569E-02 0.10678072E+03</pdfrwt>
<totfact> 0.41207955E+05</totfact>
</mgrwt>
</event>
<event>
 5    1  0.1365600E-001  0.1121951E+03  0.7546771E-02  0.1256558E+00
         21   -1    0    0  501  502  0.00000000000E+00  0.00000000000E+00  0.34770765651E+02  0.34770765651E+02  0.00000000000E+00 0. -1.
         21   -1    0    0  502  503 -0.00000000000E+00 -0.00000000000E+00 -0.43669867886E+03  0.43669867886E+03  0.00000000000E+00 0.  1.
         24    1    1    2    0    0 -0.20386467011E+02 -0.21414673699E+02 -0.11581414070E+03  0.14406362285E+03  0.80419002446E+02 0.  0.
          1    1    1    2  501    0 -0.45243914892E+02  0.49728743961E+02 -0.59472330116E+02  0.89760335672E+02  0.00000000000E+00 0. -1.
         -2    1    1    2    0  503  0.65630381903E+02 -0.28314070262E+02 -0.22664144239E+03  0.23764548599E+03  0.00000000000E+00 0.  1.
<mgrwt>
<rscale>  2 0.11219510E+03</rscale>
<asrwt>0</asrwt>
<pdfrwt beam="1">  1       21 0.53493481E-02 0.11219510E+03</pdfrwt>
<pdfrwt beam="2">  1       21 0.67184418E-01 0.11219510E+03</pdfrwt>
<totfact> 0.49199734E+05</totfact>
</mgrwt>
</event>
<event>
 5    1  0.1365600E-001  0.9768701E+02  0.7546771E-02  0.1285236E+00
         21   -1    0    0  501  502  0.00000000000E+00  0.00000000000E+00  0.10070626918E+03  0.10070626918E+03  0.00000000000E+00 0.  1.
         21   -1    0    0  502  503 -0.00000000000E+00 -0.00000000000E+00 -0.30653603946E+03  0.30653603946E+03  0.00000000000E+00 0.  1.
         24    1    1    2    0    0  0.25125253924E+02 -0.74665698108E+02  0.59993216586E+02  0.12756428516E+03  0.80419002446E+02 0.  1.
          1    1    1    2  501    0  0.44601334210E+01  0.21468366167E+02 -0.38090422282E+02  0.43950697442E+02  0.00000000000E+00 0. -1.
         -2    1    1    2    0  503 -0.29585387345E+02  0.53197331941E+02 -0.22773256459E+03  0.23572732604E+03  0.00000000000E+00 0.  1.
<mgrwt>
<rscale>  2 0.97687009E+02</rscale>
<asrwt>0</asrwt>
<pdfrwt beam="1">  1       21 0.15493272E-01 0.97687009E+02</pdfrwt>
<pdfrwt beam="2">  1       21 0.47159391E-01 0.97687009E+02</pdfrwt>
<totfact> 0.16399619E+05</totfact>
</mgrwt>
</event>
<event>
 5    1  0.1365600E-001  0.1508481E+03  0.7546771E-02  0.1199435E+00
         21   -1    0    0  503  502  0.00000000000E+00  0.00000000000E+00  0.58665827145E+03  0.58665827145E+03  0.00000000000E+00 0. -1.
         21   -1    0    0  501  503 -0.00000000000E+00 -0.00000000000E+00 -0.38935893696E+02  0.38935893696E+02  0.00000000000E+00 0.  1.
         24    1    1    2    0    0 -0.61173960192E+02 -0.50485700652E+02  0.19392021647E+03  0.22441774815E+03  0.80419002446E+02 0. -1.
          1    1    1    2  501    0  0.12126122927E+03  0.40411003335E+02  0.25118465929E+03  0.28183517875E+03  0.00000000000E+00 0. -1.
         -2    1    1    2    0  502 -0.60087269078E+02  0.10074697317E+02  0.10261750199E+03  0.11934123824E+03  0.00000000000E+00 0.  1.
<mgrwt>
<rscale>  2 0.15084807E+03</rscale>
<asrwt>0</asrwt>
<pdfrwt beam="1">  1       21 0.90255112E-01 0.15084807E+03</pdfrwt>
<pdfrwt beam="2">  1       21 0.59901379E-02 0.15084807E+03</pdfrwt>
<totfact> 0.20907781E+05</totfact>
</mgrwt>
</event>
<event>
 5    1  0.1365600E-001  0.2358189E+03  0.7546771E-02  0.1122610E+00
         21   -1    0    0  503  502  0.00000000000E+00  0.00000000000E+00  0.14210168603E+03  0.14210168603E+03  0.00000000000E+00 0.  1.
         21   -1    0    0  501  503 -0.00000000000E+00 -0.00000000000E+00 -0.40872461077E+03  0.40872461077E+03  0.00000000000E+00 0.  1.
         24    1    1    2    0    0 -0.22196221228E+03  0.56155274714E+02 -0.89297035949E+02  0.25857651699E+03  0.80419002446E+02 0.  1.
          1    1    1    2  501    0  0.21499339620E+02 -0.46703375495E+01 -0.34006789933E+02  0.40503029744E+02  0.00000000000E+00 0. -1.
         -2    1    1    2    0  502  0.20046287266E+03 -0.51484937164E+02 -0.14331909885E+03  0.25174675006E+03  0.00000000000E+00 0.  1.
<mgrwt>
<rscale>  2 0.23581885E+03</rscale>
<asrwt>0</asrwt>
<pdfrwt beam="1">  1       21 0.21861798E-01 0.23581885E+03</pdfrwt>
<pdfrwt beam="2">  1       21 0.62880710E-01 0.23581885E+03</pdfrwt>
<totfact> 0.44821833E+04</totfact>
</mgrwt>
</event>
<event>
 5    1  0.1365600E-001  0.1678558E+03  0.7546771E-02  0.1180103E+00
         21   -1    0    0  501  502  0.00000000000E+00  0.00000000000E+00  0.21944348505E+03  0.21944348505E+03  0.00000000000E+00 0. -1.
         21   -1    0    0  502  503 -0.00000000000E+00 -0.00000000000E+00 -0.18573566862E+03  0.18573566862E+03  0.00000000000E+00 0.  1.
         24    1    1    2    0    0 -0.85401474595E+02  0.26876384782E+02  0.11146627507E+03  0.16403566184E+03  0.80419002446E+02 0. -1.
          1    1    1    2  501    0  0.12793994408E+03 -0.77235535945E+02 -0.15119589353E+02  0.15020838620E+03  0.00000000000E+00 0. -1.
         -2    1    1    2    0  503 -0.42538469485E+02  0.50359151163E+02 -0.62638869279E+02  0.90935105633E+02  0.00000000000E+00 0.  1.
<mgrwt>
<rscale>  2 0.16785580E+03</rscale>
<asrwt>0</asrwt>
<pdfrwt beam="1">  1       21 0.33760536E-01 0.16785580E+03</pdfrwt>
<pdfrwt beam="2">  1       21 0.28574718E-01 0.16785580E+03</pdfrwt>
<totfact> 0.99953763E+04</totfact>
</mgrwt>
</event>
<event>
 5    1  0.1365600E-001  0.1121442E+03  0.7546771E-02  0.1256650E+00
         21   -1    0    0  503  502  0.00000000000E+00  0.00000000000E+00  0.76107589948E+03  0.76107589948E+03  0.00000000000E+00 0. -1.
         21   -1    0    0  501  503 -0.00000000000E+00 -0.00000000000E+00 -0.26145148909E+02  0.26145148909E+02  0.00000000000E+00 0. -1.
         24    1    1    2    0    0 -0.20051385167E+02  0.32641173591E+02  0.43505776831E+03  0.44408330523E+03  0.80419002446E+02 0. -1.
          1    1    1    2  501    0  0.40089494010E+02 -0.76847345569E+02  0.79934783048E+02  0.11790780972E+03  0.00000000000E+00 0. -1.
         -2    1    1    2    0  502 -0.20038108843E+02  0.44206171978E+02  0.21993819922E+03  0.22522993345E+03  0.00000000000E+00 0.  1.
<mgrwt>
<rscale>  2 0.11214422E+03</rscale>
<asrwt>0</asrwt>
<pdfrwt beam="1">  1       21 0.11708858E+00 0.11214422E+03</pdfrwt>
<pdfrwt beam="2">  1       21 0.40223312E-02 0.11214422E+03</pdfrwt>
<totfact> 0.22368075E+05</totfact>
</mgrwt>
</event>
<event>
 5    1  0.1365600E-001  0.1760923E+03  0.7546771E-02  0.1171639E+00
         21   -1    0    0  501  502  0.00000000000E+00  0.00000000000E+00  0.43214888855E+02  0.43214888855E+02  0.00000000000E+00 0.  1.
         21   -1    0    0  502  503 -0.00000000000E+00 -0.00000000000E+00 -0.10040882095E+04  0.10040882095E+04  0.00000000000E+00 0. -1.
         24    1    1    2    0    0  0.22090585555E+01  0.43033828224E+02 -0.13096704423E+03  0.15961319788E+03  0.80419002446E+02 0.  1.
          1    1    1    2  501    0  0.10399486548E+02 -0.15144753879E+03 -0.21511160928E+03  0.26328218849E+03  0.00000000000E+00 0. -1.
         -2    1    1    2    0  503 -0.12608545104E+02  0.10841371056E+03 -0.61479466714E+03  0.62440771198E+03  0.00000000000E+00 0.  1.
<mgrwt>
<rscale>  2 0.17609230E+03</rscale>
<asrwt>0</asrwt>
<pdfrwt beam="1">  1       21 0.66484449E-02 0.17609230E+03</pdfrwt>
<pdfrwt beam="2">  1       21 0.15447510E+00 0.17609230E+03</pdfrwt>
<totfact> 0.46165697E+04</totfact>
</mgrwt>
</event>
<event>
 5    1  0.1365600E-001  0.1186274E+03  0.7546771E-02  0.1245379E+00
         21   -1    0    0  501  502  0.00000000000E+00  0.00000000000E+00  0.11387650821E+04  0.11387650821E+04  0.00000000000E+00 0.  1.
         21   -1    0    0  502  503 -0.00000000000E+00 -0.00000000000E+00 -0.14402703554E+02  0.14402703554E+02  0.00000000000E+00 0.  1.
         24    1    1    2    0    0 -0.46441334027E+02  0.35929306959E+02  0.64430847323E+03  0.65195731243E+03  0.80419002446E+02 0.  1.
          1    1    1    2  501    0 -0.42844426837E+02 -0.18703005944E+02  0.24001009146E+03  0.24452053358E+03  0.00000000000E+00 0. -1.
         -2    1    1    2    0  503  0.89285760864E+02 -0.17226301015E+02  0.24004381386E+03  0.25668993964E+03  0.00000000000E+00 0.  1.
<mgrwt>
<rscale>  2 0.11862743E+03</rscale>
<asrwt>0</asrwt>
<pdfrwt beam="1">  1       21 0.17519456E+00 0.11862743E+03</pdfrwt>
<pdfrwt beam="2">  1       21 0.22158014E-02 0.11862743E+03</pdfrwt>
<totfact> 0.21146871E+05</totfact>
</mgrwt>
</event>
<event>
 5    1  0.1365600E-001  0.1771581E+03  0.7546771E-02  0.1170582E+00
         21   -1    0    0  503  502  0.00000000000E+00  0.00000000000E+00  0.20979977821E+03  0.20979977821E+03  0.00000000000E+00 0. -1.
         21   -1    0    0  501  503 -0.00000000000E+00 -0.00000000000E+00 -0.17587685378E+03  0.17587685378E+03  0.00000000000E+00 0.  1.
         24    1    1    2    0    0  0.73205041677E+02 -0.44738419466E+02  0.68009654175E+02  0.13584194241E+03  0.80419002446E+02 0. -1.
          1    1    1    2  501    0  0.75837916142E+02 -0.12895808420E+02 -0.45935326830E+02  0.89597687752E+02  0.00000000000E+00 0. -1.
         -2    1    1    2    0  502 -0.14904295782E+03  0.57634227886E+02  0.11848597091E+02  0.16023700182E+03  0.00000000000E+00 0.  1.
<mgrwt>
<rscale>  2 0.17715810E+03</rscale>
<asrwt>0</asrwt>
<pdfrwt beam="1">  1       21 0.32276889E-01 0.17715810E+03</pdfrwt>
<pdfrwt beam="2">  1       21 0.27057977E-01 0.17715810E+03</pdfrwt>
<totfact> 0.12084915E+05</totfact>
</mgrwt>
</event>
<event>
 5    1  0.1365600E-001  0.1453809E+03  0.7546771E-02  0.1206267E+00
         21   -1    0    0  503  502  0.00000000000E+00  0.00000000000E+00  0.11115831798E+03  0.11115831798E+03  0.00000000000E+00 0.  1.
         21   -1    0    0  501  503 -0.00000000000E+00 -0.00000000000E+00 -0.22382345404E+03  0.22382345404E+03  0.00000000000E+00 0. -1.
         24    1    1    2    0    0 -0.11009320105E+02 -0.62609625214E+02  0.16935176314E+02  0.10389988667E+03  0.80419002446E+02 0.  1.
          1    1    1    2  501    0 -0.32995141392E+02  0.11511157311E+03 -0.10172953377E+03  0.15712495556E+03  0.00000000000E+00 0. -1.
         -2    1    1    2    0  502  0.44004461497E+02 -0.52501947894E+02 -0.27870778604E+02  0.73956929792E+02  0.00000000000E+00 0.  1.
<mgrwt>
<rscale>  2 0.14538091E+03</rscale>
<asrwt>0</asrwt>
<pdfrwt beam="1">  1       21 0.17101280E-01 0.14538091E+03</pdfrwt>
<pdfrwt beam="2">  1       21 0.34434377E-01 0.14538091E+03</pdfrwt>
<totfact> 0.25370305E+05</totfact>
</mgrwt>
</event>
<event>
 5    1  0.1365600E-001  0.1448304E+03  0.7546771E-02  0.1206973E+00
         21   -1    0    0  501  502  0.00000000000E+00  0.00000000000E+00  0.83474499981E+02  0.83474499981E+02  0.00000000000E+00 0. -1.
         21   -1    0    0  502  503 -0.00000000000E+00 -0.00000000000E+00 -0.60452509684E+03  0.60452509684E+03  0.00000000000E+00 0.  1.
         24    1    1    2    0    0  0.77620949852E+02 -0.46966192028E+02  0.16095026448E+02  0.12229922682E+03  0.80419002446E+02 0. -1.
          1    1    1    2  501    0  0.33848569124E+02 -0.19082751247E+02 -0.61701573454E+02  0.72917495799E+02  0.00000000000E+00 0. -1.
         -2    1    1    2    0  503 -0.11146951898E+03  0.66048943275E+02 -0.47544404985E+03  0.49278287421E+03  0.00000000000E+00 0.  1.
<mgrwt>
<rscale>  2 0.14483042E+03</rscale>
<asrwt>0</asrwt>
<pdfrwt beam="1">  1       21 0.12842231E-01 0.14483042E+03</pdfrwt>
<pdfrwt beam="2">  1       21 0.93003860E-01 0.14483042E+03</pdfrwt>
<totfact> 0.51827211E+04</totfact>
</mgrwt>
</event>
<event>
 5    1  0.1428788E-001  0.1257983E+03  0.7546771E-02  0.1233827E+00
         21   -1    0    0  501  502  0.00000000000E+00  0.00000000000E+00  0.66951911147E+02  0.66951911147E+02  0.00000000000E+00 0. -1.
         21   -1    0    0  502  503 -0.00000000000E+00 -0.00000000000E+00 -0.28324528043E+03  0.28324528043E+03  0.00000000000E+00 0.  1.
         24    1    1    2    0    0  0.16923778529E+02 -0.23772136287E+01 -0.19503564070E+02  0.84496570286E+02  0.80419002446E+02 0.  0.
          1    1    1    2  501    0  0.46672930251E+02  0.65070910049E+02 -0.51659913809E+02  0.95296025350E+02  0.00000000000E+00 0. -1.
         -2    1    1    2    0  503 -0.63596708781E+02 -0.62693696420E+02 -0.14512989140E+03  0.17040459594E+03  0.00000000000E+00 0.  1.
<mgrwt>
<rscale>  2 0.12579828E+03</rscale>
<asrwt>0</asrwt>
<pdfrwt beam="1">  1       21 0.10300294E-01 0.12579828E+03</pdfrwt>
<pdfrwt beam="2">  1       21 0.43576198E-01 0.12579828E+03</pdfrwt>
<totfact> 0.39417769E+05</totfact>
</mgrwt>
</event>
<event>
 5    1  0.1365600E-001  0.8651055E+02  0.7546771E-02  0.1311529E+00
         21   -1    0    0  503  502  0.00000000000E+00  0.00000000000E+00  0.76600689799E+03  0.76600689799E+03  0.00000000000E+00 0.  1.
         21   -1    0    0  501  503 -0.00000000000E+00 -0.00000000000E+00 -0.42911359746E+02  0.42911359746E+02  0.00000000000E+00 0. -1.
         24    1    1    2    0    0 -0.51484084020E+01 -0.47896073781E+02  0.72359157102E+03  0.72963862123E+03  0.80419002446E+02 0.  1.
          1    1    1    2  501    0  0.33099145136E+02  0.15675112184E+02 -0.21058206247E+00  0.36623856917E+02  0.00000000000E+00 0. -1.
         -2    1    1    2    0  502 -0.27950736734E+02  0.32220961598E+02 -0.28545070752E+00  0.42655779589E+02  0.00000000000E+00 0.  1.
<mgrwt>
<rscale>  2 0.86510554E+02</rscale>
<asrwt>0</asrwt>
<pdfrwt beam="1">  1       21 0.11784721E+00 0.86510554E+02</pdfrwt>
<pdfrwt beam="2">  1       21 0.66017482E-02 0.86510554E+02</pdfrwt>
<totfact> 0.97447133E+04</totfact>
</mgrwt>
</event>
<event>
 5    1  0.1365600E-001  0.9171617E+02  0.7546771E-02  0.1298748E+00
         21   -1    0    0  501  502  0.00000000000E+00  0.00000000000E+00  0.63735330482E+01  0.63735330482E+01  0.00000000000E+00 0. -1.
         21   -1    0    0  502  503 -0.00000000000E+00 -0.00000000000E+00 -0.16805292709E+04  0.16805292709E+04  0.00000000000E+00 0. -1.
         24    1    1    2    0    0 -0.49116926650E+02  0.27087216737E+02 -0.50796837790E+03  0.51734444879E+03  0.80419002446E+02 0. -1.
          1    1    1    2  501    0  0.53743045353E+02  0.40593434115E+01 -0.57077659821E+03  0.57331554859E+03  0.00000000000E+00 0. -1.
         -2    1    1    2    0  503 -0.46261187030E+01 -0.31146560148E+02 -0.59541076169E+03  0.59624280651E+03  0.00000000000E+00 0.  1.
<mgrwt>
<rscale>  2 0.91716174E+02</rscale>
<asrwt>0</asrwt>
<pdfrwt beam="1">  1       21 0.98054379E-03 0.91716174E+02</pdfrwt>
<pdfrwt beam="2">  1       21 0.25854290E+00 0.91716174E+02</pdfrwt>
<totfact> 0.24758904E+05</totfact>
</mgrwt>
</event>
<event>
 5    1  0.1365600E-001  0.1967618E+03  0.7546771E-02  0.1152500E+00
         21   -1    0    0  501  502  0.00000000000E+00  0.00000000000E+00  0.12604460748E+04  0.12604460748E+04  0.00000000000E+00 0. -1.
         21   -1    0    0  502  503 -0.00000000000E+00 -0.00000000000E+00 -0.43549836875E+02  0.43549836875E+02  0.00000000000E+00 0.  1.
         24    1    1    2    0    0 -0.71714994328E+02 -0.14375959032E+03  0.92391839460E+03  0.94122381825E+03  0.80419002446E+02 0. -1.
          1    1    1    2  501    0  0.19600532891E+02 -0.28109709169E+02  0.50371582000E+02  0.60923172212E+02  0.00000000000E+00 0. -1.
         -2    1    1    2    0  503  0.52114461437E+02  0.17186929949E+03  0.24260626131E+03  0.30184892119E+03  0.00000000000E+00 0.  1.
<mgrwt>
<rscale>  2 0.19676176E+03</rscale>
<asrwt>0</asrwt>
<pdfrwt beam="1">  1       21 0.19391475E+00 0.19676176E+03</pdfrwt>
<pdfrwt beam="2">  1       21 0.66999759E-02 0.19676176E+03</pdfrwt>
<totfact> 0.23912626E+04</totfact>
</mgrwt>
</event>
<event>
 5    1  0.1365600E-001  0.8737327E+02  0.7546771E-02  0.1309340E+00
         21   -1    0    0  501  502  0.00000000000E+00  0.00000000000E+00  0.11227822420E+03  0.11227822420E+03  0.00000000000E+00 0. -1.
         21   -1    0    0  502  503 -0.00000000000E+00 -0.00000000000E+00 -0.14869235975E+03  0.14869235975E+03  0.00000000000E+00 0.  1.
         24    1    1    2    0    0 -0.30955428086E+02 -0.17171119412E+02  0.76619545759E+02  0.11657982937E+03  0.80419002446E+02 0. -1.
          1    1    1    2  501    0  0.79245220321E+01  0.47860014312E+02 -0.44414469731E+02  0.65772518127E+02  0.00000000000E+00 0. -1.
         -2    1    1    2    0  503  0.23030906054E+02 -0.30688894900E+02 -0.68619211585E+02  0.78618236449E+02  0.00000000000E+00 0.  1.
<mgrwt>
<rscale>  2 0.87373274E+02</rscale>
<asrwt>0</asrwt>
<pdfrwt beam="1">  1       21 0.17273573E-01 0.87373274E+02</pdfrwt>
<pdfrwt beam="2">  1       21 0.22875748E-01 0.87373274E+02</pdfrwt>
<totfact> 0.54750877E+05</totfact>
</mgrwt>
</event>
<event>
 5    1  0.1365600E-001  0.1710795E+03  0.7546771E-02  0.1176727E+00
         21   -1    0    0  501  502  0.00000000000E+00  0.00000000000E+00  0.55995847586E+02  0.55995847586E+02  0.00000000000E+00 0.  1.
         21   -1    0    0  502  503 -0.00000000000E+00 -0.00000000000E+00 -0.70907768972E+03  0.70907768972E+03  0.00000000000E+00 0.  1.
         24    1    1    2    0    0  0.63967100739E+01 -0.81944628165E+02 -0.94016468688E+02  0.14853333742E+03  0.80419002446E+02 0.  1.
          1    1    1    2  501    0 -0.10684488243E+03  0.18704725052E+02 -0.12020095859E+03  0.16190727620E+03  0.00000000000E+00 0. -1.
         -2    1    1    2    0  503  0.10044817236E+03  0.63239903113E+02 -0.43886441486E+03  0.45463292369E+03  0.00000000000E+00 0.  1.
<mgrwt>
<rscale>  2 0.17107947E+03</rscale>
<asrwt>0</asrwt>
<pdfrwt beam="1">  1       21 0.86147465E-02 0.17107947E+03</pdfrwt>
<pdfrwt beam="2">  1       21 0.10908887E+00 0.17107947E+03</pdfrwt>
<totfact> 0.70996734E+04</totfact>
</mgrwt>
</event>
<event>
 5    1  0.1365600E-001  0.9491279E+02  0.7546771E-02  0.1291373E+00
         21   -1    0    0  503  502  0.00000000000E+00  0.00000000000E+00  0.79956213968E+03  0.79956213968E+03  0.00000000000E+00 0.  1.
         21   -1    0    0  501  503 -0.00000000000E+00 -0.00000000000E+00 -0.41257149984E+02  0.41257149984E+02  0.00000000000E+00 0. -1.
         24    1    1    2    0    0  0.43977248401E+02  0.23393366513E+02  0.44611398701E+03  0.45603306167E+03  0.80419002446E+02 0.  0.
          1    1    1    2  501    0  0.24086040387E+02 -0.36558859163E+01 -0.28102351261E+02  0.37192001690E+02  0.00000000000E+00 0. -1.
         -2    1    1    2    0  502 -0.68063288788E+02 -0.19737480596E+02  0.34029335395E+03  0.34759422631E+03  0.00000000000E+00 0.  1.
<mgrwt>
<rscale>  2 0.94912786E+02</rscale>
<asrwt>0</asrwt>
<pdfrwt beam="1">  1       21 0.12300955E+00 0.94912786E+02</pdfrwt>
<pdfrwt beam="2">  1       21 0.63472544E-02 0.94912786E+02</pdfrwt>
<totfact> 0.93386173E+04</totfact>
</mgrwt>
</event>
<event>
 5    1  0.1365600E-001  0.9569428E+02  0.7546771E-02  0.1289620E+00
         21   -1    0    0  501  502  0.00000000000E+00  0.00000000000E+00  0.20059668170E+03  0.20059668170E+03  0.00000000000E+00 0.  1.
         21   -1    0    0  502  503 -0.00000000000E+00 -0.00000000000E+00 -0.12632665283E+03  0.12632665283E+03  0.00000000000E+00 0.  1.
         24    1    1    2    0    0 -0.54450386998E+02  0.13500652983E+02  0.14801353699E+03  0.17754530510E+03  0.80419002446E+02 0.  1.
          1    1    1    2  501    0  0.45895694527E+02 -0.42835117743E+02  0.68828281791E+01  0.63155644340E+02  0.00000000000E+00 0. -1.
         -2    1    1    2    0  503  0.85546924703E+01  0.29334464761E+02 -0.80626336299E+02  0.86222385093E+02  0.00000000000E+00 0.  1.
<mgrwt>
<rscale>  2 0.95694276E+02</rscale>
<asrwt>0</asrwt>
<pdfrwt beam="1">  1       21 0.30861028E-01 0.95694276E+02</pdfrwt>
<pdfrwt beam="2">  1       21 0.19434870E-01 0.95694276E+02</pdfrwt>
<totfact> 0.25115040E+05</totfact>
</mgrwt>
</event>
<event>
 5    1  0.1365600E-001  0.9658021E+02  0.7546771E-02  0.1287656E+00
         21   -1    0    0  501  502  0.00000000000E+00  0.00000000000E+00  0.33388670719E+02  0.33388670719E+02  0.00000000000E+00 0. -1.
         21   -1    0    0  502  503 -0.00000000000E+00 -0.00000000000E+00 -0.78660763491E+03  0.78660763491E+03  0.00000000000E+00 0.  1.
         24    1    1    2    0    0 -0.15698546314E+02 -0.14649330253E+02 -0.43001288148E+02  0.93687640434E+02  0.80419002446E+02 0. -1.
          1    1    1    2  501    0  0.11547822327E+02  0.61659315854E+02 -0.13178270439E+03  0.14595172013E+03  0.00000000000E+00 0. -1.
         -2    1    1    2    0  503  0.41507239862E+01 -0.47009985601E+02 -0.57843497165E+03  0.58035694507E+03  0.00000000000E+00 0.  1.
<mgrwt>
<rscale>  2 0.96580211E+02</rscale>
<asrwt>0</asrwt>
<pdfrwt beam="1">  1       21 0.51367187E-02 0.96580211E+02</pdfrwt>
<pdfrwt beam="2">  1       21 0.12101656E+00 0.96580211E+02</pdfrwt>
<totfact> 0.13845878E+05</totfact>
</mgrwt>
</event>
<event>
 5    1  0.1365600E-001  0.1245593E+03  0.7546771E-02  0.1235760E+00
         21   -1    0    0  503  502  0.00000000000E+00  0.00000000000E+00  0.21731740963E+03  0.21731740963E+03  0.00000000000E+00 0. -1.
         21   -1    0    0  501  503 -0.00000000000E+00 -0.00000000000E+00 -0.89829206661E+02  0.89829206661E+02  0.00000000000E+00 0.  1.
         24    1    1    2    0    0  0.30822256513E+00 -0.58189851584E+02  0.11671891857E+03  0.15322100292E+03  0.80419002446E+02 0. -1.
          1    1    1    2  501    0  0.53540682145E+02 -0.18062191806E+02 -0.12165954390E+02  0.57800154530E+02  0.00000000000E+00 0. -1.
         -2    1    1    2    0  502 -0.53848904710E+02  0.76252043391E+02  0.22935238790E+02  0.96125458845E+02  0.00000000000E+00 0.  1.
<mgrwt>
<rscale>  2 0.12455933E+03</rscale>
<asrwt>0</asrwt>
<pdfrwt beam="1">  1       21 0.33433448E-01 0.12455933E+03</pdfrwt>
<pdfrwt beam="2">  1       21 0.13819878E-01 0.12455933E+03</pdfrwt>
<totfact> 0.39652833E+05</totfact>
</mgrwt>
</event>
<event>
 5    1  0.1365600E-001  0.8174212E+02  0.7546771E-02  0.1324179E+00
         21   -1    0    0  501  502  0.00000000000E+00  0.00000000000E+00  0.33005885299E+01  0.33005885299E+01  0.00000000000E+00 0.  1.
         21   -1    0    0  502  503 -0.00000000000E+00 -0.00000000000E+00 -0.22557149039E+04  0.22557149039E+04  0.00000000000E+00 0. -1.
         24    1    1    2    0    0  0.11724923957E+02 -0.28249506658E+02 -0.81998309225E+03  0.82448468512E+03  0.80419002446E+02 0.  1.
          1    1    1    2  501    0 -0.27720308966E+02  0.45902525422E+02 -0.95108834983E+03  0.95259881721E+03  0.00000000000E+00 0. -1.
         -2    1    1    2    0  503  0.15995385009E+02 -0.17653018764E+02 -0.48134287331E+03  0.48193199012E+03  0.00000000000E+00 0.  1.
<mgrwt>
<rscale>  2 0.81742123E+02</rscale>
<asrwt>0</asrwt>
<pdfrwt beam="1">  1       21 0.50778085E-03 0.81742123E+02</pdfrwt>
<pdfrwt beam="2">  1       21 0.34703443E+00 0.81742123E+02</pdfrwt>
<totfact> 0.22638305E+05</totfact>
</mgrwt>
</event>
<event>
 5    1  0.1365600E-001  0.1119671E+03  0.7546771E-02  0.1256970E+00
         21   -1    0    0  501  502  0.00000000000E+00  0.00000000000E+00  0.16535883613E+03  0.16535883613E+03  0.00000000000E+00 0.  1.
         21   -1    0    0  502  503 -0.00000000000E+00 -0.00000000000E+00 -0.10476646735E+03  0.10476646735E+03  0.00000000000E+00 0. -1.
         24    1    1    2    0    0  0.15060121747E+02 -0.66823303492E+02  0.99840685172E+02  0.14535315451E+03  0.80419002446E+02 0.  1.
          1    1    1    2  501    0  0.24502725450E+02  0.74120988373E+02 -0.22990510241E+02  0.81381005357E+02  0.00000000000E+00 0. -1.
         -2    1    1    2    0  503 -0.39562847197E+02 -0.72976848810E+01 -0.16257806153E+02  0.43391143611E+02  0.00000000000E+00 0.  1.
<mgrwt>
<rscale>  2 0.11196713E+03</rscale>
<asrwt>0</asrwt>
<pdfrwt beam="1">  1       21 0.25439821E-01 0.11196713E+03</pdfrwt>
<pdfrwt beam="2">  1       21 0.16117918E-01 0.11196713E+03</pdfrwt>
<totfact> 0.50852207E+05</totfact>
</mgrwt>
</event>
<event>
 5    1  0.1365600E-001  0.9338084E+02  0.7546771E-02  0.1294865E+00
         21   -1    0    0  503  502  0.00000000000E+00  0.00000000000E+00  0.60047245496E+02  0.60047245496E+02  0.00000000000E+00 0.  1.
         21   -1    0    0  501  503 -0.00000000000E+00 -0.00000000000E+00 -0.40053090233E+03  0.40053090233E+03  0.00000000000E+00 0. -1.
         24    1    1    2    0    0 -0.35849052863E+02  0.10023825214E+02  0.15678675505E+02  0.89992602380E+02  0.80419002446E+02 0.  1.
          1    1    1    2  501    0  0.66740489418E+02 -0.67503676857E+01 -0.28751384904E+03  0.29523562417E+03  0.00000000000E+00 0. -1.
         -2    1    1    2    0  502 -0.30891436555E+02 -0.32734575279E+01 -0.68648483301E+02  0.75349921275E+02  0.00000000000E+00 0.  1.
<mgrwt>
<rscale>  2 0.93380842E+02</rscale>
<asrwt>0</asrwt>
<pdfrwt beam="1">  1       21 0.92380376E-02 0.93380842E+02</pdfrwt>
<pdfrwt beam="2">  1       21 0.61620140E-01 0.93380842E+02</pdfrwt>
<totfact> 0.23433621E+05</totfact>
</mgrwt>
</event>
<event>
 5    1  0.1365600E-001  0.1581506E+03  0.7546771E-02  0.1190801E+00
         21   -1    0    0  501  502  0.00000000000E+00  0.00000000000E+00  0.37080729615E+02  0.37080729615E+02  0.00000000000E+00 0.  1.
         21   -1    0    0  502  503 -0.00000000000E+00 -0.00000000000E+00 -0.12169417123E+04  0.12169417123E+04  0.00000000000E+00 0.  1.
         24    1    1    2    0    0  0.15096891658E+02  0.11420247347E+02 -0.55166826850E+02  0.99342503121E+02  0.80419002446E+02 0.  1.
          1    1    1    2  501    0  0.10423773306E+03 -0.38842268473E+02 -0.28217974440E+03  0.30331441602E+03  0.00000000000E+00 0. -1.
         -2    1    1    2    0  503 -0.11933462472E+03  0.27422021126E+02 -0.84251441139E+03  0.85136552273E+03  0.00000000000E+00 0.  1.
<mgrwt>
<rscale>  2 0.15815059E+03</rscale>
<asrwt>0</asrwt>
<pdfrwt beam="1">  1       21 0.57047270E-02 0.15815059E+03</pdfrwt>
<pdfrwt beam="2">  1       21 0.18722182E+00 0.15815059E+03</pdfrwt>
<totfact> 0.35833132E+04</totfact>
</mgrwt>
</event>
<event>
 5    1  0.1365600E-001  0.9698916E+02  0.7546771E-02  0.1286758E+00
         21   -1    0    0  501  502  0.00000000000E+00  0.00000000000E+00  0.33503982709E+03  0.33503982709E+03  0.00000000000E+00 0.  1.
         21   -1    0    0  502  503 -0.00000000000E+00 -0.00000000000E+00 -0.58507323790E+02  0.58507323790E+02  0.00000000000E+00 0.  1.
         24    1    1    2    0    0 -0.42259531382E+02 -0.17798551477E+02  0.24995767779E+03  0.26654964466E+03  0.80419002446E+02 0.  1.
          1    1    1    2  501    0  0.38976722922E+02 -0.32652767152E+02  0.49968254773E+02  0.71289652948E+02  0.00000000000E+00 0. -1.
         -2    1    1    2    0  503  0.32828084607E+01  0.50451318630E+02 -0.23393429268E+02  0.55707853268E+02  0.00000000000E+00 0.  1.
<mgrwt>
<rscale>  2 0.96989164E+02</rscale>
<asrwt>0</asrwt>
<pdfrwt beam="1">  1       21 0.51544588E-01 0.96989164E+02</pdfrwt>
<pdfrwt beam="2">  1       21 0.90011269E-02 0.96989164E+02</pdfrwt>
<totfact> 0.35523813E+05</totfact>
</mgrwt>
</event>
<event>
 5    1  0.1365600E-001  0.1452094E+03  0.7546771E-02  0.1206486E+00
         21   -1    0    0  501  502  0.00000000000E+00  0.00000000000E+00  0.24856306080E+02  0.24856306080E+02  0.00000000000E+00 0. -1.
         21   -1    0    0  502  503 -0.00000000000E+00 -0.00000000000E+00 -0.11059235000E+04  0.11059235000E+04  0.00000000000E+00 0.  1.
         24    1    1    2    0    0 -0.62514531309E+01  0.13062786605E+03 -0.30264451155E+03  0.33935768207E+03  0.80419002446E+02 0. -1.
          1    1    1    2  501    0  0.23585147656E+02 -0.72986196599E+02 -0.31997271907E+03  0.32903766506E+03  0.00000000000E+00 0. -1.
         -2    1    1    2    0  503 -0.17333694525E+02 -0.57641669448E+02 -0.45844996333E+03  0.46238445898E+03  0.00000000000E+00 0.  1.
<mgrwt>
<rscale>  2 0.14520943E+03</rscale>
<asrwt>0</asrwt>
<pdfrwt beam="1">  1       21 0.38240481E-02 0.14520943E+03</pdfrwt>
<pdfrwt beam="2">  1       21 0.17014203E+00 0.14520943E+03</pdfrwt>
<totfact> 0.92301428E+04</totfact>
</mgrwt>
</event>
<event>
 5    1  0.1365600E-001  0.1331990E+03  0.7546771E-02  0.1222785E+00
         21   -1    0    0  501  502  0.00000000000E+00  0.00000000000E+00  0.15213153227E+04  0.15213153227E+04  0.00000000000E+00 0. -1.
         21   -1    0    0  502  503 -0.00000000000E+00 -0.00000000000E+00 -0.15827624834E+02  0.15827624834E+02  0.00000000000E+00 0. -1.
         24    1    1    2    0    0 -0.10660151309E+03 -0.10227884944E+02  0.11335031835E+04  0.11413873905E+04  0.80419002446E+02 0. -1.
          1    1    1    2  501    0  0.16553547306E+02 -0.29675673610E+02  0.13296076072E+03  0.13723421375E+03  0.00000000000E+00 0. -1.
         -2    1    1    2    0  503  0.90047965784E+02  0.39903558554E+02  0.23902375362E+03  0.25852134326E+03  0.00000000000E+00 0.  1.
<mgrwt>
<rscale>  2 0.13319897E+03</rscale>
<asrwt>0</asrwt>
<pdfrwt beam="1">  1       21 0.23404840E+00 0.13319897E+03</pdfrwt>
<pdfrwt beam="2">  1       21 0.24350204E-02 0.13319897E+03</pdfrwt>
<totfact> 0.77128228E+04</totfact>
</mgrwt>
</event>
<event>
 5    1  0.1365600E-001  0.1403264E+03  0.7546771E-02  0.1212890E+00
         21   -1    0    0  501  502  0.00000000000E+00  0.00000000000E+00  0.14518321662E+03  0.14518321662E+03  0.00000000000E+00 0. -1.
         21   -1    0    0  502  503 -0.00000000000E+00 -0.00000000000E+00 -0.20027076681E+03  0.20027076681E+03  0.00000000000E+00 0.  1.
         24    1    1    2    0    0 -0.10747526274E+02  0.48885438479E+01  0.72323668524E+02  0.10879952282E+03  0.80419002446E+02 0. -1.
          1    1    1    2  501    0 -0.76476050567E+02 -0.59120204108E+02 -0.58953269709E+02  0.11322222774E+03  0.00000000000E+00 0. -1.
         -2    1    1    2    0  503  0.87223576841E+02  0.54231660260E+02 -0.68457949000E+02  0.12343223288E+03  0.00000000000E+00 0.  1.
<mgrwt>
<rscale>  2 0.14032642E+03</rscale>
<asrwt>0</asrwt>
<pdfrwt beam="1">  1       21 0.22335880E-01 0.14032642E+03</pdfrwt>
<pdfrwt beam="2">  1       21 0.30810887E-01 0.14032642E+03</pdfrwt>
<totfact> 0.19257370E+05</totfact>
</mgrwt>
</event>
<event>
 5    1  0.1365600E-001  0.1179420E+03  0.7546771E-02  0.1246531E+00
         21   -1    0    0  503  502  0.00000000000E+00  0.00000000000E+00  0.31394123724E+03  0.31394123724E+03  0.00000000000E+00 0.  1.
         21   -1    0    0  501  503 -0.00000000000E+00 -0.00000000000E+00 -0.58190837893E+02  0.58190837893E+02  0.00000000000E+00 0. -1.
         24    1    1    2    0    0  0.63872586319E+02 -0.23484606953E+02  0.11776449645E+03  0.15800926120E+03  0.80419002446E+02 0.  1.
          1    1    1    2  501    0  0.28640608087E+02  0.24988527093E+02 -0.10262133539E+02  0.39370322613E+02  0.00000000000E+00 0. -1.
         -2    1    1    2    0  502 -0.92513194406E+02 -0.15039201402E+01  0.14824803644E+03  0.17475249132E+03  0.00000000000E+00 0.  1.
<mgrwt>
<rscale>  2 0.11794198E+03</rscale>
<asrwt>0</asrwt>
<pdfrwt beam="1">  1       21 0.48298651E-01 0.11794198E+03</pdfrwt>
<pdfrwt beam="2">  1       21 0.89524368E-02 0.11794198E+03</pdfrwt>
<totfact> 0.40862981E+05</totfact>
</mgrwt>
</event>
<event>
 5    1  0.1365600E-001  0.7801497E+02  0.7546771E-02  0.1334781E+00
         21   -1    0    0  503  502  0.00000000000E+00  0.00000000000E+00  0.20602795246E+03  0.20602795246E+03  0.00000000000E+00 0. -1.
         21   -1    0    0  501  503 -0.00000000000E+00 -0.00000000000E+00 -0.30128903197E+02  0.30128903197E+02  0.00000000000E+00 0.  1.
         24    1    1    2    0    0  0.72007212798E+01  0.75059350688E+01  0.10187588760E+03  0.13020791787E+03  0.80419002446E+02 0.  1.
          1    1    1    2  501    0 -0.38427026104E+01 -0.41049937524E+02  0.32724335535E+02  0.52637874864E+02  0.00000000000E+00 0. -1.
         -2    1    1    2    0  502 -0.33580186694E+01  0.33544002455E+02  0.41298826127E+02  0.53311062919E+02  0.00000000000E+00 0.  1.
<mgrwt>
<rscale>  2 0.78014971E+02</rscale>
<asrwt>0</asrwt>
<pdfrwt beam="1">  1       21 0.31696607E-01 0.78014971E+02</pdfrwt>
<pdfrwt beam="2">  1       21 0.46352160E-02 0.78014971E+02</pdfrwt>
<totfact> 0.28379794E+06</totfact>
</mgrwt>
</event>
<event>
 5    1  0.1365600E-001  0.1155554E+03  0.7546771E-02  0.1250615E+00
         21   -1    0    0  503  502  0.00000000000E+00  0.00000000000E+00  0.46240507050E+02  0.46240507050E+02  0.00000000000E+00 0.  1.
         21   -1    0    0  501  503 -0.00000000000E+00 -0.00000000000E+00 -0.31345147113E+03  0.31345147113E+03  0.00000000000E+00 0.  1.
         24    1    1    2    0    0  0.10043450881E+03  0.78109420463E+01 -0.11543510126E+03  0.17303346478E+03  0.80419002446E+02 0.  1.
          1    1    1    2  501    0 -0.29048326511E+02  0.55790122369E+01 -0.76670321998E+02  0.82178275267E+02  0.00000000000E+00 0. -1.
         -2    1    1    2    0  502 -0.71386182298E+02 -0.13389954283E+02 -0.75105540818E+02  0.10448023813E+03  0.00000000000E+00 0.  1.
<mgrwt>
<rscale>  2 0.11555538E+03</rscale>
<asrwt>0</asrwt>
<pdfrwt beam="1">  1       21 0.71139239E-02 0.11555538E+03</pdfrwt>
<pdfrwt beam="2">  1       21 0.48223305E-01 0.11555538E+03</pdfrwt>
<totfact> 0.60879544E+05</totfact>
</mgrwt>
</event>
<event>
 5    1  0.1365600E-001  0.3744265E+03  0.7546771E-02  0.1053013E+00
         21   -1    0    0  501  502  0.00000000000E+00  0.00000000000E+00  0.23111368045E+03  0.23111368045E+03  0.00000000000E+00 0.  1.
         21   -1    0    0  502  503 -0.00000000000E+00 -0.00000000000E+00 -0.68849851575E+03  0.68849851575E+03  0.00000000000E+00 0.  1.
         24    1    1    2    0    0  0.30406736396E+02 -0.31214945119E+03 -0.46225026681E+02  0.32705629262E+03  0.80419002446E+02 0.  1.
          1    1    1    2  501    0 -0.81235481491E+02 -0.24316047243E+02 -0.62315444225E+02  0.10523159314E+03  0.00000000000E+00 0. -1.
         -2    1    1    2    0  503  0.50828745094E+02  0.33646549844E+03 -0.34884436440E+03  0.48732431043E+03  0.00000000000E+00 0.  1.
<mgrwt>
<rscale>  2 0.37442647E+03</rscale>
<asrwt>0</asrwt>
<pdfrwt beam="1">  1       21 0.35555952E-01 0.37442647E+03</pdfrwt>
<pdfrwt beam="2">  1       21 0.10592285E+00 0.37442647E+03</pdfrwt>
<totfact> 0.49203598E+03</totfact>
</mgrwt>
</event>
<event>
 5    1  0.1365600E-001  0.7428210E+02  0.7546771E-02  0.1346109E+00
         21   -1    0    0  501  502  0.00000000000E+00  0.00000000000E+00  0.11501743820E+03  0.11501743820E+03  0.00000000000E+00 0. -1.
         21   -1    0    0  502  503 -0.00000000000E+00 -0.00000000000E+00 -0.99890744123E+02  0.99890744123E+02  0.00000000000E+00 0.  1.
         24    1    1    2    0    0 -0.12909410644E+02 -0.32054584583E+02  0.84193990767E+02  0.12144955048E+03  0.80419002446E+02 0. -1.
          1    1    1    2  501    0 -0.19472801385E+02  0.10359180512E+02 -0.14485944228E+02  0.26388353394E+02  0.00000000000E+00 0. -1.
         -2    1    1    2    0  503  0.32382212029E+02  0.21695404071E+02 -0.54581352466E+02  0.67070278445E+02  0.00000000000E+00 0.  1.
<mgrwt>
<rscale>  2 0.74282103E+02</rscale>
<asrwt>0</asrwt>
<pdfrwt beam="1">  1       21 0.17694990E-01 0.74282103E+02</pdfrwt>
<pdfrwt beam="2">  1       21 0.15367807E-01 0.74282103E+02</pdfrwt>
<totfact> 0.10761648E+06</totfact>
</mgrwt>
</event>
<event>
 5    1  0.1365600E-001  0.1449188E+03  0.7546771E-02  0.1206860E+00
         21   -1    0    0  503  502  0.00000000000E+00  0.00000000000E+00  0.31163604550E+02  0.31163604550E+02  0.00000000000E+00 0. -1.
         21   -1    0    0  501  503 -0.00000000000E+00 -0.00000000000E+00 -0.80298325150E+03  0.80298325150E+03  0.00000000000E+00 0. -1.
         24    1    1    2    0    0  0.13692570097E+02  0.42904833899E+02 -0.11045785107E+03  0.14386265695E+03  0.80419002446E+02 0. -1.
          1    1    1    2  501    0 -0.89585063848E+02 -0.73461090768E+02 -0.37974331399E+03  0.39702266943E+03  0.00000000000E+00 0. -1.
         -2    1    1    2    0  502  0.75892493752E+02  0.30556256869E+02 -0.28161848189E+03  0.29326152967E+03  0.00000000000E+00 0.  1.
<mgrwt>
<rscale>  2 0.14491877E+03</rscale>
<asrwt>0</asrwt>
<pdfrwt beam="1">  1       21 0.47944005E-02 0.14491877E+03</pdfrwt>
<pdfrwt beam="2">  1       21 0.12353589E+00 0.14491877E+03</pdfrwt>
<totfact> 0.14461319E+05</totfact>
</mgrwt>
</event>
<event>
 5    1  0.1365600E-001  0.8360325E+02  0.7546771E-02  0.1319126E+00
         21   -1    0    0  501  502  0.00000000000E+00  0.00000000000E+00  0.11417900248E+04  0.11417900248E+04  0.00000000000E+00 0.  1.
         21   -1    0    0  502  503 -0.00000000000E+00 -0.00000000000E+00 -0.50972636641E+02  0.50972636641E+02  0.00000000000E+00 0.  1.
         24    1    1    2    0    0 -0.27846745431E+01  0.53457930886E+01  0.98383983428E+03  0.98713948730E+03  0.80419002446E+02 0.  1.
          1    1    1    2  501    0 -0.40041525494E+02 -0.14827423431E+02  0.14276461028E+03  0.14901312089E+03  0.00000000000E+00 0. -1.
         -2    1    1    2    0  503  0.42826200037E+02  0.94816303429E+01 -0.35787056399E+02  0.56610053252E+02  0.00000000000E+00 0.  1.
<mgrwt>
<rscale>  2 0.83603248E+02</rscale>
<asrwt>0</asrwt>
<pdfrwt beam="1">  1       21 0.17565998E+00 0.83603248E+02</pdfrwt>
<pdfrwt beam="2">  1       21 0.78419450E-02 0.83603248E+02</pdfrwt>
<totfact> 0.26675979E+04</totfact>
</mgrwt>
</event>
<event>
 5    1  0.1365600E-001  0.1096996E+03  0.7546771E-02  0.1261127E+00
         21   -1    0    0  501  502  0.00000000000E+00  0.00000000000E+00  0.10716977095E+02  0.10716977095E+02  0.00000000000E+00 0. -1.
         21   -1    0    0  502  503 -0.00000000000E+00 -0.00000000000E+00 -0.15462155973E+04  0.15462155973E+04  0.00000000000E+00 0. -1.
         24    1    1    2    0    0 -0.30862504077E+00  0.94624589350E+02 -0.48279033301E+03  0.49850539592E+03  0.80419002446E+02 0. -1.
          1    1    1    2  501    0  0.49199057648E+01 -0.69441431669E+02 -0.46706513902E+03  0.47222469439E+03  0.00000000000E+00 0. -1.
         -2    1    1    2    0  503 -0.46112807240E+01 -0.25183157681E+02 -0.58564314818E+03  0.58620248409E+03  0.00000000000E+00 0.  1.
<mgrwt>
<rscale>  2 0.10969959E+03</rscale>
<asrwt>0</asrwt>
<pdfrwt beam="1">  1       21 0.16487667E-02 0.10969959E+03</pdfrwt>
<pdfrwt beam="2">  1       21 0.23787918E+00 0.10969959E+03</pdfrwt>
<totfact> 0.14019358E+05</totfact>
</mgrwt>
</event>
<event>
 5    1  0.1365600E-001  0.2059975E+03  0.7546771E-02  0.1144775E+00
         21   -1    0    0  503  502  0.00000000000E+00  0.00000000000E+00  0.72273864313E+03  0.72273864313E+03  0.00000000000E+00 0.  1.
         21   -1    0    0  501  503 -0.00000000000E+00 -0.00000000000E+00 -0.10420272508E+03  0.10420272508E+03  0.00000000000E+00 0. -1.
         24    1    1    2    0    0  0.24392340200E+02  0.94796676399E+02  0.35359036523E+03  0.37559919922E+03  0.80419002446E+02 0.  1.
          1    1    1    2  501    0 -0.14349889566E+03 -0.20560317085E+02 -0.71953033997E+01  0.14514279894E+03  0.00000000000E+00 0. -1.
         -2    1    1    2    0  502  0.11910655546E+03 -0.74236359313E+02  0.27214085622E+03  0.30619937005E+03  0.00000000000E+00 0.  1.
<mgrwt>
<rscale>  2 0.20599746E+03</rscale>
<asrwt>0</asrwt>
<pdfrwt beam="1">  1       21 0.11119056E+00 0.20599746E+03</pdfrwt>
<pdfrwt beam="2">  1       21 0.16031189E-01 0.20599746E+03</pdfrwt>
<totfact> 0.21926177E+04</totfact>
</mgrwt>
</event>
<event>
 5    1  0.1365600E-001  0.1494967E+03  0.7546771E-02  0.1201093E+00
         21   -1    0    0  503  502  0.00000000000E+00  0.00000000000E+00  0.36237181870E+03  0.36237181870E+03  0.00000000000E+00 0. -1.
         21   -1    0    0  501  503 -0.00000000000E+00 -0.00000000000E+00 -0.12822246540E+03  0.12822246540E+03  0.00000000000E+00 0. -1.
         24    1    1    2    0    0 -0.92788475728E+02  0.76134447609E+02  0.28182826024E+03  0.31670260429E+03  0.80419002446E+02 0. -1.
          1    1    1    2  501    0  0.55687874762E+02 -0.97075821422E+02 -0.63227584460E+02  0.12854019580E+03  0.00000000000E+00 0. -1.
         -2    1    1    2    0  502  0.37100600966E+02  0.20941373813E+02  0.15548677522E+02  0.45351484010E+02  0.00000000000E+00 0.  1.
<mgrwt>
<rscale>  2 0.14949673E+03</rscale>
<asrwt>0</asrwt>
<pdfrwt beam="1">  1       21 0.55749510E-01 0.14949673E+03</pdfrwt>
<pdfrwt beam="2">  1       21 0.19726533E-01 0.14949673E+03</pdfrwt>
<totfact> 0.73148744E+04</totfact>
</mgrwt>
</event>
<event>
 5    1  0.1365600E-001  0.7344951E+02  0.7546771E-02  0.1348741E+00
         21   -1    0    0  503  502  0.00000000000E+00  0.00000000000E+00  0.19141407649E+03  0.19141407649E+03  0.00000000000E+00 0. -1.
         21   -1    0    0  501  503 -0.00000000000E+00 -0.00000000000E+00 -0.29275684214E+02  0.29275684214E+02  0.00000000000E+00 0. -1.
         24    1    1    2    0    0  0.20079153665E+02 -0.14453336249E+02  0.10885684962E+03  0.13758306947E+03  0.80419002446E+02 0. -1.
          1    1    1    2  501    0 -0.60700656144E+01  0.36302202299E+02  0.23811669182E+02  0.43837098188E+02  0.00000000000E+00 0. -1.
         -2    1    1    2    0  502 -0.14009088051E+02 -0.21848866050E+02  0.29469873474E+02  0.39269593049E+02  0.00000000000E+00 0.  1.
<mgrwt>
<rscale>  2 0.73449513E+02</rscale>
<asrwt>0</asrwt>
<pdfrwt beam="1">  1       21 0.29448319E-01 0.73449513E+02</pdfrwt>
<pdfrwt beam="2">  1       21 0.45039515E-02 0.73449513E+02</pdfrwt>
<totfact> 0.34112935E+06</totfact>
</mgrwt>
</event>
<event>
 5    1  0.1530151E-001  0.1270294E+03  0.7546771E-02  0.1231931E+00
         21   -1    0    0  503  502  0.00000000000E+00  0.00000000000E+00  0.18033984797E+03  0.18033984797E+03  0.00000000000E+00 0.  1.
         21   -1    0    0  501  503 -0.00000000000E+00 -0.00000000000E+00 -0.98984291421E+02  0.98984291421E+02  0.00000000000E+00 0. -1.
         24    1    1    2    0    0  0.17577506935E+02 -0.19540040618E+02  0.54280527210E+02  0.10052051296E+03  0.80419002446E+02 0.  1.
          1    1    1    2  501    0  0.11904538793E+02  0.91196092685E+02 -0.10721256331E+02  0.92592606089E+02  0.00000000000E+00 0. -1.
         -2    1    1    2    0  502 -0.29482045729E+02 -0.71656052067E+02  0.37796285672E+02  0.86211020345E+02  0.00000000000E+00 0.  1.
<mgrwt>
<rscale>  2 0.12702941E+03</rscale>
<asrwt>0</asrwt>
<pdfrwt beam="1">  1       21 0.27744592E-01 0.12702941E+03</pdfrwt>
<pdfrwt beam="2">  1       21 0.15228353E-01 0.12702941E+03</pdfrwt>
<totfact> 0.47737857E+05</totfact>
</mgrwt>
</event>
<event>
 5    1  0.1365600E-001  0.1326901E+03  0.7546771E-02  0.1223518E+00
         21   -1    0    0  503  502  0.00000000000E+00  0.00000000000E+00  0.10161780776E+03  0.10161780776E+03  0.00000000000E+00 0. -1.
         21   -1    0    0  501  503 -0.00000000000E+00 -0.00000000000E+00 -0.18554328012E+03  0.18554328012E+03  0.00000000000E+00 0.  1.
         24    1    1    2    0    0  0.24127512388E+02 -0.10137114992E+00 -0.36909076131E+02  0.91715009597E+02  0.80419002446E+02 0.  0.
          1    1    1    2  501    0 -0.50647957626E+02 -0.81311888530E+02 -0.53240084987E+02  0.10959628405E+03  0.00000000000E+00 0. -1.
         -2    1    1    2    0  502  0.26520445238E+02  0.81413259680E+02  0.62236887566E+01  0.85849794228E+02  0.00000000000E+00 0.  1.
<mgrwt>
<rscale>  2 0.13269010E+03</rscale>
<asrwt>0</asrwt>
<pdfrwt beam="1">  1       21 0.15633509E-01 0.13269010E+03</pdfrwt>
<pdfrwt beam="2">  1       21 0.28545120E-01 0.13269010E+03</pdfrwt>
<totfact> 0.43090943E+05</totfact>
</mgrwt>
</event>
<event>
 5    1  0.1365600E-001  0.8627162E+02  0.7546771E-02  0.1312140E+00
         21   -1    0    0  501  502  0.00000000000E+00  0.00000000000E+00  0.32424627595E+03  0.32424627595E+03  0.00000000000E+00 0. -1.
         21   -1    0    0  502  503 -0.00000000000E+00 -0.00000000000E+00 -0.53256002996E+02  0.53256002996E+02  0.00000000000E+00 0.  1.
         24    1    1    2    0    0 -0.33697162025E+02  0.25766218718E+02  0.27828658299E+03  0.29276276228E+03  0.80419002446E+02 0. -1.
          1    1    1    2  501    0  0.26352917037E+02  0.21363039471E+02  0.76083679877E+01  0.34766980818E+02  0.00000000000E+00 0. -1.
         -2    1    1    2    0  503  0.73442449880E+01 -0.47129258189E+02 -0.14904678018E+02  0.49972535844E+02  0.00000000000E+00 0.  1.
<mgrwt>
<rscale>  2 0.86271619E+02</rscale>
<asrwt>0</asrwt>
<pdfrwt beam="1">  1       21 0.49884041E-01 0.86271619E+02</pdfrwt>
<pdfrwt beam="2">  1       21 0.81932314E-02 0.86271619E+02</pdfrwt>
<totfact> 0.44687055E+05</totfact>
</mgrwt>
</event>
<event>
 5    1  0.1763937E-001  0.1693620E+03  0.7546771E-02  0.1178515E+00
         21   -1    0    0  503  502  0.00000000000E+00  0.00000000000E+00  0.81497140551E+02  0.81497140551E+02  0.00000000000E+00 0. -1.
         21   -1    0    0  501  503 -0.00000000000E+00 -0.00000000000E+00 -0.35571743228E+03  0.35571743228E+03  0.00000000000E+00 0.  1.
         24    1    1    2    0    0  0.21090081649E+01  0.98984908980E+01 -0.70152686976E+02  0.10719628483E+03  0.80419002446E+02 0.  0.
          1    1    1    2  501    0 -0.10148388306E+03 -0.85585676078E+02 -0.12390138449E+03  0.18159140825E+03  0.00000000000E+00 0. -1.
         -2    1    1    2    0  502  0.99374874897E+02  0.75687185180E+02 -0.80166220265E+02  0.14842687975E+03  0.00000000000E+00 0.  1.
<mgrwt>
<rscale>  2 0.16936198E+03</rscale>
<asrwt>0</asrwt>
<pdfrwt beam="1">  1       21 0.12538021E-01 0.16936198E+03</pdfrwt>
<pdfrwt beam="2">  1       21 0.54725760E-01 0.16936198E+03</pdfrwt>
<totfact> 0.17226830E+05</totfact>
</mgrwt>
</event>
<event>
 5    1  0.1365600E-001  0.1556390E+03  0.7546771E-02  0.1193710E+00
         21   -1    0    0  501  502  0.00000000000E+00  0.00000000000E+00  0.12043704210E+03  0.12043704210E+03  0.00000000000E+00 0. -1.
         21   -1    0    0  502  503 -0.00000000000E+00 -0.00000000000E+00 -0.29605221156E+03  0.29605221156E+03  0.00000000000E+00 0.  1.
         24    1    1    2    0    0 -0.16174301443E+02  0.22898001026E+02  0.14598379731E+02  0.86407494601E+02  0.80419002446E+02 0. -1.
          1    1    1    2  501    0  0.10338883887E+03 -0.72034523807E+02 -0.13167110503E+02  0.12669489896E+03  0.00000000000E+00 0. -1.
         -2    1    1    2    0  503 -0.87214537423E+02  0.49136522782E+02 -0.17704643869E+03  0.20338686010E+03  0.00000000000E+00 0.  1.
<mgrwt>
<rscale>  2 0.15563901E+03</rscale>
<asrwt>0</asrwt>
<pdfrwt beam="1">  1       21 0.18528776E-01 0.15563901E+03</pdfrwt>
<pdfrwt beam="2">  1       21 0.45546494E-01 0.15563901E+03</pdfrwt>
<totfact> 0.12465387E+05</totfact>
</mgrwt>
</event>
<event>
 5    1  0.1365600E-001  0.1215242E+03  0.7546771E-02  0.1240604E+00
         21   -1    0    0  501  502  0.00000000000E+00  0.00000000000E+00  0.40355317951E+03  0.40355317951E+03  0.00000000000E+00 0.  1.
         21   -1    0    0  502  503 -0.00000000000E+00 -0.00000000000E+00 -0.66180388088E+02  0.66180388088E+02  0.00000000000E+00 0.  1.
         24    1    1    2    0    0 -0.56360508372E+02  0.61590563776E+02  0.31372019464E+03  0.33445101425E+03  0.80419002446E+02 0.  1.
          1    1    1    2  501    0  0.70557917103E+02 -0.78168652915E+02  0.34629645268E+02  0.11085111770E+03  0.00000000000E+00 0. -1.
         -2    1    1    2    0  503 -0.14197408731E+02  0.16578089140E+02 -0.10977048490E+02  0.24431435646E+02  0.00000000000E+00 0.  1.
<mgrwt>
<rscale>  2 0.12152417E+03</rscale>
<asrwt>0</asrwt>
<pdfrwt beam="1">  1       21 0.62085103E-01 0.12152417E+03</pdfrwt>
<pdfrwt beam="2">  1       21 0.10181598E-01 0.12152417E+03</pdfrwt>
<totfact> 0.19319854E+05</totfact>
</mgrwt>
</event>
<event>
 5    1  0.1365600E-001  0.2319330E+03  0.7546771E-02  0.1125287E+00
         21   -1    0    0  501  502  0.00000000000E+00  0.00000000000E+00  0.99569908850E+02  0.99569908850E+02  0.00000000000E+00 0.  1.
         21   -1    0    0  502  503 -0.00000000000E+00 -0.00000000000E+00 -0.59790778774E+03  0.59790778774E+03  0.00000000000E+00 0. -1.
         24    1    1    2    0    0  0.57053757823E+02  0.52206082340E+01 -0.17016431435E+03  0.19673712376E+03  0.80419002446E+02 0. -1.
          1    1    1    2  501    0  0.57890676195E+02  0.15641660901E+03 -0.85811646473E+02  0.18756632063E+03  0.00000000000E+00 0. -1.
         -2    1    1    2    0  503 -0.11494443402E+03 -0.16163721725E+03 -0.24236191806E+03  0.31317425220E+03  0.00000000000E+00 0.  1.
<mgrwt>
<rscale>  2 0.23193298E+03</rscale>
<asrwt>0</asrwt>
<pdfrwt beam="1">  1       21 0.15318447E-01 0.23193298E+03</pdfrwt>
<pdfrwt beam="2">  1       21 0.91985814E-01 0.23193298E+03</pdfrwt>
<totfact> 0.36952476E+04</totfact>
</mgrwt>
</event>
<event>
 5    1  0.1365600E-001  0.2328219E+03  0.7546771E-02  0.1124669E+00
         21   -1    0    0  503  502  0.00000000000E+00  0.00000000000E+00  0.27770311578E+03  0.27770311578E+03  0.00000000000E+00 0.  1.
         21   -1    0    0  501  503 -0.00000000000E+00 -0.00000000000E+00 -0.29297352369E+03  0.29297352369E+03  0.00000000000E+00 0. -1.
         24    1    1    2    0    0  0.46718874944E+02  0.11978153633E+03  0.77231267793E+02  0.17018270888E+03  0.80419002446E+02 0.  0.
          1    1    1    2  501    0 -0.15595424431E+02 -0.21410332376E+03 -0.17055065476E+03  0.27417325972E+03  0.00000000000E+00 0. -1.
         -2    1    1    2    0  502 -0.31123450513E+02  0.94321787434E+02  0.78048979054E+02  0.12632067087E+03  0.00000000000E+00 0.  1.
<mgrwt>
<rscale>  2 0.23282192E+03</rscale>
<asrwt>0</asrwt>
<pdfrwt beam="1">  1       21 0.42723556E-01 0.23282192E+03</pdfrwt>
<pdfrwt beam="2">  1       21 0.45072850E-01 0.23282192E+03</pdfrwt>
<totfact> 0.24350855E+04</totfact>
</mgrwt>
</event>
<event>
 5    1  0.1365600E-001  0.9027254E+02  0.7546771E-02  0.1302193E+00
         21   -1    0    0  503  502  0.00000000000E+00  0.00000000000E+00  0.11195271464E+04  0.11195271464E+04  0.00000000000E+00 0. -1.
         21   -1    0    0  501  503 -0.00000000000E+00 -0.00000000000E+00 -0.11771922491E+02  0.11771922491E+02  0.00000000000E+00 0. -1.
         24    1    1    2    0    0  0.15261429758E+02 -0.55314923215E+02  0.82874780371E+03  0.83461535456E+03  0.80419002446E+02 0. -1.
          1    1    1    2  501    0  0.22333393975E+02  0.24417552460E+02  0.36188813376E+02  0.49037002030E+02  0.00000000000E+00 0. -1.
         -2    1    1    2    0  502 -0.37594823732E+02  0.30897370755E+02  0.24281860681E+03  0.24764671228E+03  0.00000000000E+00 0.  1.
<mgrwt>
<rscale>  2 0.90272538E+02</rscale>
<asrwt>0</asrwt>
<pdfrwt beam="1">  1       21 0.17223486E+00 0.90272538E+02</pdfrwt>
<pdfrwt beam="2">  1       21 0.18110659E-02 0.90272538E+02</pdfrwt>
<totfact> 0.31051547E+05</totfact>
</mgrwt>
</event>
<event>
 5    1  0.1365600E-001  0.8660732E+02  0.7546771E-02  0.1311282E+00
         21   -1    0    0  501  502  0.00000000000E+00  0.00000000000E+00  0.47370140794E+02  0.47370140794E+02  0.00000000000E+00 0.  1.
         21   -1    0    0  502  503 -0.00000000000E+00 -0.00000000000E+00 -0.17006059870E+03  0.17006059870E+03  0.00000000000E+00 0. -1.
         24    1    1    2    0    0 -0.34159467488E+02 -0.61079918824E+01 -0.43016352825E+02  0.97579707668E+02  0.80419002446E+02 0.  1.
          1    1    1    2  501    0  0.57302999400E+02  0.17386673836E+02 -0.38179566873E+02  0.71018374340E+02  0.00000000000E+00 0. -1.
         -2    1    1    2    0  503 -0.23143531912E+02 -0.11278681953E+02 -0.41494538206E+02  0.48832657483E+02  0.00000000000E+00 0.  1.
<mgrwt>
<rscale>  2 0.86607321E+02</rscale>
<asrwt>0</asrwt>
<pdfrwt beam="1">  1       21 0.72877140E-02 0.86607321E+02</pdfrwt>
<pdfrwt beam="2">  1       21 0.26163169E-01 0.86607321E+02</pdfrwt>
<totfact> 0.19238037E+06</totfact>
</mgrwt>
</event>
<event>
 5    1  0.1365600E-001  0.6929207E+02  0.7546771E-02  0.1362517E+00
         21   -1    0    0  503  502  0.00000000000E+00  0.00000000000E+00  0.30507269421E+02  0.30507269421E+02  0.00000000000E+00 0.  1.
         21   -1    0    0  501  503 -0.00000000000E+00 -0.00000000000E+00 -0.74872371306E+03  0.74872371306E+03  0.00000000000E+00 0. -1.
         24    1    1    2    0    0 -0.43185260072E+01 -0.10574112706E+02 -0.27756984132E+02  0.85837798485E+02  0.80419002446E+02 0.  1.
          1    1    1    2  501    0 -0.25880184053E+02  0.78108300960E+01 -0.47995013500E+03  0.48071085393E+03  0.00000000000E+00 0. -1.
         -2    1    1    2    0  502  0.30198710061E+02  0.27632826096E+01 -0.21050932450E+03  0.21268233007E+03  0.00000000000E+00 0.  1.
<mgrwt>
<rscale>  2 0.69292072E+02</rscale>
<asrwt>0</asrwt>
<pdfrwt beam="1">  1       21 0.46934264E-02 0.69292072E+02</pdfrwt>
<pdfrwt beam="2">  1       21 0.11518826E+00 0.69292072E+02</pdfrwt>
<totfact> 0.18345301E+05</totfact>
</mgrwt>
</event>
<event>
 5    1  0.1365600E-001  0.1000959E+03  0.7546771E-02  0.1280094E+00
         21   -1    0    0  501  502  0.00000000000E+00  0.00000000000E+00  0.77332487166E+03  0.77332487166E+03  0.00000000000E+00 0. -1.
         21   -1    0    0  502  503 -0.00000000000E+00 -0.00000000000E+00 -0.35737956497E+02  0.35737956497E+02  0.00000000000E+00 0.  1.
         24    1    1    2    0    0  0.29947292019E+02 -0.35977725261E+02  0.59786381852E+03  0.60506164848E+03  0.80419002446E+02 0. -1.
          1    1    1    2  501    0 -0.57027646565E+02 -0.58344300849E+01  0.14301562945E+03  0.15407680979E+03  0.00000000000E+00 0. -1.
         -2    1    1    2    0  503  0.27080354546E+02  0.41812155346E+02 -0.32925328011E+01  0.49924369893E+02  0.00000000000E+00 0.  1.
<mgrwt>
<rscale>  2 0.10009591E+03</rscale>
<asrwt>0</asrwt>
<pdfrwt beam="1">  1       21 0.11897304E+00 0.10009591E+03</pdfrwt>
<pdfrwt beam="2">  1       21 0.54981477E-02 0.10009591E+03</pdfrwt>
<totfact> 0.12853615E+05</totfact>
</mgrwt>
</event>
<event>
 5    1  0.1365600E-001  0.9045922E+02  0.7546771E-02  0.1301743E+00
         21   -1    0    0  501  502  0.00000000000E+00  0.00000000000E+00  0.53813079678E+02  0.53813079678E+02  0.00000000000E+00 0. -1.
         21   -1    0    0  502  503 -0.00000000000E+00 -0.00000000000E+00 -0.20236484194E+03  0.20236484194E+03  0.00000000000E+00 0. -1.
         24    1    1    2    0    0 -0.28587036136E+02  0.35185904318E+02 -0.20094535071E+02  0.94478954227E+02  0.80419002446E+02 0.  0.
          1    1    1    2  501    0  0.62735233832E+01 -0.57030722731E+02 -0.46035817185E+02  0.73560566166E+02  0.00000000000E+00 0. -1.
         -2    1    1    2    0  503  0.22313512753E+02  0.21844818413E+02 -0.82421410004E+02  0.88138401221E+02  0.00000000000E+00 0.  1.
<mgrwt>
<rscale>  2 0.90459222E+02</rscale>
<asrwt>0</asrwt>
<pdfrwt beam="1">  1       21 0.82789353E-02 0.90459222E+02</pdfrwt>
<pdfrwt beam="2">  1       21 0.31133053E-01 0.90459222E+02</pdfrwt>
<totfact> 0.11144224E+06</totfact>
</mgrwt>
</event>
<event>
 5    1  0.1365600E-001  0.1216995E+03  0.7546771E-02  0.1240319E+00
         21   -1    0    0  503  502  0.00000000000E+00  0.00000000000E+00  0.89585534999E+02  0.89585534999E+02  0.00000000000E+00 0. -1.
         21   -1    0    0  501  503 -0.00000000000E+00 -0.00000000000E+00 -0.18533612923E+03  0.18533612923E+03  0.00000000000E+00 0.  1.
         24    1    1    2    0    0  0.20717537396E+02  0.42558129191E+02  0.27880244560E+01  0.93356305361E+02  0.80419002446E+02 0.  0.
          1    1    1    2  501    0 -0.78275488400E+02  0.37733728545E+00 -0.67404757109E+02  0.10329857573E+03  0.00000000000E+00 0. -1.
         -2    1    1    2    0  502  0.57557951004E+02 -0.42935466476E+02 -0.31133861577E+02  0.78266783133E+02  0.00000000000E+00 0.  1.
<mgrwt>
<rscale>  2 0.12169947E+03</rscale>
<asrwt>0</asrwt>
<pdfrwt beam="1">  1       21 0.13782390E-01 0.12169947E+03</pdfrwt>
<pdfrwt beam="2">  1       21 0.28513251E-01 0.12169947E+03</pdfrwt>
<totfact> 0.54215483E+05</totfact>
</mgrwt>
</event>
<event>
 5    1  0.1365600E-001  0.1529488E+03  0.7546771E-02  0.1196896E+00
         21   -1    0    0  501  502  0.00000000000E+00  0.00000000000E+00  0.44719767076E+02  0.44719767076E+02  0.00000000000E+00 0. -1.
         21   -1    0    0  502  503 -0.00000000000E+00 -0.00000000000E+00 -0.13890058844E+04  0.13890058844E+04  0.00000000000E+00 0.  1.
         24    1    1    2    0    0  0.78870898828E+02 -0.91774340726E+02 -0.17886175243E+03  0.23043847495E+03  0.80419002446E+02 0. -1.
          1    1    1    2  501    0 -0.10196230424E+03  0.92259915629E+02 -0.23280528030E+03  0.27038214078E+03  0.00000000000E+00 0. -1.
         -2    1    1    2    0  503  0.23091405407E+02 -0.48557490388E+00 -0.93261908462E+03  0.93290503578E+03  0.00000000000E+00 0.  1.
<mgrwt>
<rscale>  2 0.15294884E+03</rscale>
<asrwt>0</asrwt>
<pdfrwt beam="1">  1       21 0.68799648E-02 0.15294884E+03</pdfrwt>
<pdfrwt beam="2">  1       21 0.21369319E+00 0.15294884E+03</pdfrwt>
<totfact> 0.17748419E+04</totfact>
</mgrwt>
</event>
<event>
 5    1  0.1365600E-001  0.2808201E+03  0.7546771E-02  0.1095242E+00
         21   -1    0    0  503  502  0.00000000000E+00  0.00000000000E+00  0.14573184748E+03  0.14573184748E+03  0.00000000000E+00 0.  1.
         21   -1    0    0  501  503 -0.00000000000E+00 -0.00000000000E+00 -0.62209641837E+03  0.62209641837E+03  0.00000000000E+00 0. -1.
         24    1    1    2    0    0  0.72531386226E+02 -0.80316071541E+02 -0.35317519943E+02  0.13937724529E+03  0.80419002446E+02 0.  0.
          1    1    1    2  501    0 -0.18931423339E+03  0.18883512016E+03 -0.36327249308E+03  0.45107148635E+03  0.00000000000E+00 0. -1.
         -2    1    1    2    0  502  0.11678284716E+03 -0.10851904862E+03 -0.77774557870E+02  0.17737953421E+03  0.00000000000E+00 0.  1.
<mgrwt>
<rscale>  2 0.28082009E+03</rscale>
<asrwt>0</asrwt>
<pdfrwt beam="1">  1       21 0.22420284E-01 0.28082009E+03</pdfrwt>
<pdfrwt beam="2">  1       21 0.95707142E-01 0.28082009E+03</pdfrwt>
<totfact> 0.16156820E+04</totfact>
</mgrwt>
</event>
<event>
 5    1  0.1365600E-001  0.1547281E+03  0.7546771E-02  0.1194781E+00
         21   -1    0    0  503  502  0.00000000000E+00  0.00000000000E+00  0.21879726002E+03  0.21879726002E+03  0.00000000000E+00 0. -1.
         21   -1    0    0  501  503 -0.00000000000E+00 -0.00000000000E+00 -0.12874084693E+03  0.12874084693E+03  0.00000000000E+00 0.  1.
         24    1    1    2    0    0 -0.65027920907E+02 -0.81204710635E+01  0.92126102612E+02  0.13874079171E+03  0.80419002446E+02 0. -1.
          1    1    1    2  501    0  0.12934831572E+03 -0.27431823792E+02  0.15794795207E+02  0.13316518799E+03  0.00000000000E+00 0. -1.
         -2    1    1    2    0  502 -0.64320394815E+02  0.35552294855E+02 -0.17864484729E+02  0.75632127256E+02  0.00000000000E+00 0.  1.
<mgrwt>
<rscale>  2 0.15472811E+03</rscale>
<asrwt>0</asrwt>
<pdfrwt beam="1">  1       21 0.33661117E-01 0.15472811E+03</pdfrwt>
<pdfrwt beam="2">  1       21 0.19806284E-01 0.15472811E+03</pdfrwt>
<totfact> 0.20201127E+05</totfact>
</mgrwt>
</event>
<event>
 5    1  0.1365600E-001  0.9575438E+02  0.7546771E-02  0.1289486E+00
         21   -1    0    0  501  502  0.00000000000E+00  0.00000000000E+00  0.48905055070E+03  0.48905055070E+03  0.00000000000E+00 0. -1.
         21   -1    0    0  502  503 -0.00000000000E+00 -0.00000000000E+00 -0.23452959282E+02  0.23452959282E+02  0.00000000000E+00 0.  1.
         24    1    1    2    0    0  0.31258950367E+02 -0.18112646746E+01  0.31625403992E+03  0.32781738267E+03  0.80419002446E+02 0.  0.
          1    1    1    2  501    0 -0.52860371010E+02  0.36575331460E+02  0.11273734373E+03  0.12977550757E+03  0.00000000000E+00 0. -1.
         -2    1    1    2    0  503  0.21601420643E+02 -0.34764066785E+02  0.36606207767E+02  0.54910619740E+02  0.00000000000E+00 0.  1.
<mgrwt>
<rscale>  2 0.95754378E+02</rscale>
<asrwt>0</asrwt>
<pdfrwt beam="1">  1       21 0.75238539E-01 0.95754378E+02</pdfrwt>
<pdfrwt beam="2">  1       21 0.36081479E-02 0.95754378E+02</pdfrwt>
<totfact> 0.74008515E+05</totfact>
</mgrwt>
</event>
<event>
 5    1  0.1365600E-001  0.1320145E+03  0.7546771E-02  0.1224497E+00
         21   -1    0    0  501  502  0.00000000000E+00  0.00000000000E+00  0.12808941524E+03  0.12808941524E+03  0.00000000000E+00 0.  1.
         21   -1    0    0  502  503 -0.00000000000E+00 -0.00000000000E+00 -0.48448398517E+03  0.48448398517E+03  0.00000000000E+00 0.  1.
         24    1    1    2    0    0  0.30883356580E+02 -0.61282156266E+02  0.87562347020E+02  0.13727222938E+03  0.80419002446E+02 0.  1.
          1    1    1    2  501    0  0.23422542762E+02  0.92671046337E+02 -0.17792701019E+03  0.20197663056E+03  0.00000000000E+00 0. -1.
         -2    1    1    2    0  503 -0.54305899341E+02 -0.31388890071E+02 -0.26602990677E+03  0.27332454046E+03  0.00000000000E+00 0.  1.
<mgrwt>
<rscale>  2 0.13201448E+03</rscale>
<asrwt>0</asrwt>
<pdfrwt beam="1">  1       21 0.19706064E-01 0.13201448E+03</pdfrwt>
<pdfrwt beam="2">  1       21 0.74535996E-01 0.13201448E+03</pdfrwt>
<totfact> 0.39541666E+04</totfact>
</mgrwt>
</event>
<event>
 5    1  0.1365600E-001  0.8354693E+02  0.7546771E-02  0.1319277E+00
         21   -1    0    0  503  502  0.00000000000E+00  0.00000000000E+00  0.36570627061E+03  0.36570627061E+03  0.00000000000E+00 0. -1.
         21   -1    0    0  501  503 -0.00000000000E+00 -0.00000000000E+00 -0.10304232204E+03  0.10304232204E+03  0.00000000000E+00 0. -1.
         24    1    1    2    0    0  0.10419318934E+02 -0.62662717178E+02  0.31879566720E+03  0.33486276549E+03  0.80419002446E+02 0. -1.
          1    1    1    2  501    0 -0.11582603211E+02  0.33855834408E+02 -0.85527986877E+02  0.92711438128E+02  0.00000000000E+00 0. -1.
         -2    1    1    2    0  502  0.11632842772E+01  0.28806882771E+02  0.29396268247E+02  0.41174389031E+02  0.00000000000E+00 0.  1.
<mgrwt>
<rscale>  2 0.83546934E+02</rscale>
<asrwt>0</asrwt>
<pdfrwt beam="1">  1       21 0.56262503E-01 0.83546934E+02</pdfrwt>
<pdfrwt beam="2">  1       21 0.15852665E-01 0.83546934E+02</pdfrwt>
<totfact> 0.11026571E+05</totfact>
</mgrwt>
</event>
<event>
 5    1  0.1365600E-001  0.8704284E+02  0.7546771E-02  0.1310175E+00
         21   -1    0    0  503  502  0.00000000000E+00  0.00000000000E+00  0.76386230945E+01  0.76386230945E+01  0.00000000000E+00 0. -1.
         21   -1    0    0  501  503 -0.00000000000E+00 -0.00000000000E+00 -0.18080546824E+04  0.18080546824E+04  0.00000000000E+00 0.  1.
         24    1    1    2    0    0  0.31985615259E+02 -0.33497722934E+02 -0.33446977266E+03  0.34710577898E+03  0.80419002446E+02 0. -1.
          1    1    1    2  501    0 -0.42285465124E+02 -0.39261414757E+01 -0.10428973090E+04  0.10437615974E+04  0.00000000000E+00 0. -1.
         -2    1    1    2    0  502  0.10299849865E+02  0.37423864410E+02 -0.42304897763E+03  0.42482592907E+03  0.00000000000E+00 0.  1.
<mgrwt>
<rscale>  2 0.87042843E+02</rscale>
<asrwt>0</asrwt>
<pdfrwt beam="1">  1       21 0.11751740E-02 0.87042843E+02</pdfrwt>
<pdfrwt beam="2">  1       21 0.27816196E+00 0.87042843E+02</pdfrwt>
<totfact> 0.14617055E+05</totfact>
</mgrwt>
</event>
<event>
 5    1  0.1365600E-001  0.8966831E+02  0.7546771E-02  0.1303657E+00
         21   -1    0    0  501  502  0.00000000000E+00  0.00000000000E+00  0.32033734064E+03  0.32033734064E+03  0.00000000000E+00 0. -1.
         21   -1    0    0  502  503 -0.00000000000E+00 -0.00000000000E+00 -0.21137953678E+03  0.21137953678E+03  0.00000000000E+00 0.  1.
         24    1    1    2    0    0  0.35641847418E+01 -0.27144450955E+01  0.26668561857E+03  0.27858303382E+03  0.80419002446E+02 0.  0.
          1    1    1    2  501    0  0.45162266035E+02 -0.13995130588E+02  0.31636005934E+02  0.56888758336E+02  0.00000000000E+00 0. -1.
         -2    1    1    2    0  503 -0.48726450777E+02  0.16709575683E+02 -0.18936382064E+03  0.19624508527E+03  0.00000000000E+00 0.  1.
<mgrwt>
<rscale>  2 0.89668310E+02</rscale>
<asrwt>0</asrwt>
<pdfrwt beam="1">  1       21 0.49282668E-01 0.89668310E+02</pdfrwt>
<pdfrwt beam="2">  1       21 0.32519929E-01 0.89668310E+02</pdfrwt>
<totfact> 0.38066659E+04</totfact>
</mgrwt>
</event>
<event>
 5    1  0.1365600E-001  0.8384835E+02  0.7546771E-02  0.1318472E+00
         21   -1    0    0  501  502  0.00000000000E+00  0.00000000000E+00  0.54301599100E+03  0.54301599100E+03  0.00000000000E+00 0. -1.
         21   -1    0    0  502  503 -0.00000000000E+00 -0.00000000000E+00 -0.29969378954E+02  0.29969378954E+02  0.00000000000E+00 0. -1.
         24    1    1    2    0    0 -0.31257924773E+02  0.29121852656E+02  0.43330985468E+03  0.44277509672E+03  0.80419002446E+02 0. -1.
          1    1    1    2  501    0  0.23654453459E+02 -0.49512176243E+02  0.90574077690E+02  0.10589925549E+03  0.00000000000E+00 0. -1.
         -2    1    1    2    0  503  0.76034713146E+01  0.20390323587E+02 -0.10837320316E+02  0.24311017742E+02  0.00000000000E+00 0.  1.
<mgrwt>
<rscale>  2 0.83848351E+02</rscale>
<asrwt>0</asrwt>
<pdfrwt beam="1">  1       21 0.83540914E-01 0.83848351E+02</pdfrwt>
<pdfrwt beam="2">  1       21 0.46106741E-02 0.83848351E+02</pdfrwt>
<totfact> 0.39249650E+05</totfact>
</mgrwt>
</event>
<event>
 5    1  0.1365600E-001  0.1804721E+03  0.7546771E-02  0.1167347E+00
         21   -1    0    0  503  502  0.00000000000E+00  0.00000000000E+00  0.16898846392E+03  0.16898846392E+03  0.00000000000E+00 0. -1.
         21   -1    0    0  501  503 -0.00000000000E+00 -0.00000000000E+00 -0.23778948324E+03  0.23778948324E+03  0.00000000000E+00 0. -1.
         24    1    1    2    0    0 -0.86595684691E+02  0.74373112604E+02  0.43834169034E+02  0.14635170930E+03  0.80419002446E+02 0. -1.
          1    1    1    2  501    0  0.10234296912E+03 -0.12888150134E+03 -0.11934655795E+03  0.20329320109E+03  0.00000000000E+00 0. -1.
         -2    1    1    2    0  502 -0.15747284426E+02  0.54508388733E+02  0.67113696014E+01  0.57133036773E+02  0.00000000000E+00 0.  1.
<mgrwt>
<rscale>  2 0.18047215E+03</rscale>
<asrwt>0</asrwt>
<pdfrwt beam="1">  1       21 0.25998225E-01 0.18047215E+03</pdfrwt>
<pdfrwt beam="2">  1       21 0.36582997E-01 0.18047215E+03</pdfrwt>
<totfact> 0.10173465E+05</totfact>
</mgrwt>
</event>
<event>
 5    1  0.1365600E-001  0.9881406E+02  0.7546771E-02  0.1282810E+00
         21   -1    0    0  501  502  0.00000000000E+00  0.00000000000E+00  0.30076065510E+03  0.30076065510E+03  0.00000000000E+00 0.  1.
         21   -1    0    0  502  503 -0.00000000000E+00 -0.00000000000E+00 -0.42653869145E+03  0.42653869145E+03  0.00000000000E+00 0.  1.
         24    1    1    2    0    0 -0.27871994723E+01  0.13716295729E+02  0.23310593776E+03  0.24698481618E+03  0.80419002446E+02 0.  1.
          1    1    1    2  501    0  0.57667457888E+02 -0.19360049293E+02  0.43106800125E+02  0.74555639793E+02  0.00000000000E+00 0. -1.
         -2    1    1    2    0  503 -0.54880258416E+02  0.56437535633E+01 -0.40199077423E+03  0.40575889058E+03  0.00000000000E+00 0.  1.
<mgrwt>
<rscale>  2 0.98814057E+02</rscale>
<asrwt>0</asrwt>
<pdfrwt beam="1">  1       21 0.46270870E-01 0.98814057E+02</pdfrwt>
<pdfrwt beam="2">  1       21 0.65621337E-01 0.98814057E+02</pdfrwt>
<totfact> 0.10345239E+04</totfact>
</mgrwt>
</event>
<event>
 5    1  0.1365600E-001  0.8092822E+02  0.7546771E-02  0.1326438E+00
         21   -1    0    0  503  502  0.00000000000E+00  0.00000000000E+00  0.15745822807E+03  0.15745822807E+03  0.00000000000E+00 0. -1.
         21   -1    0    0  501  503 -0.00000000000E+00 -0.00000000000E+00 -0.72083212157E+02  0.72083212157E+02  0.00000000000E+00 0.  1.
         24    1    1    2    0    0 -0.90818243313E+01  0.21217439676E+02  0.11809852072E+03  0.14473125381E+03  0.80419002446E+02 0. -1.
          1    1    1    2  501    0  0.41272052862E+02 -0.20284530447E+02 -0.20758591136E+02  0.50455560931E+02  0.00000000000E+00 0. -1.
         -2    1    1    2    0  502 -0.32190228531E+02 -0.93290922953E+00 -0.11964913677E+02  0.34354625479E+02  0.00000000000E+00 0.  1.
<mgrwt>
<rscale>  2 0.80928220E+02</rscale>
<asrwt>0</asrwt>
<pdfrwt beam="1">  1       21 0.24224343E-01 0.80928220E+02</pdfrwt>
<pdfrwt beam="2">  1       21 0.11089725E-01 0.80928220E+02</pdfrwt>
<totfact> 0.10778367E+06</totfact>
</mgrwt>
</event>
<event>
 5    1  0.1365600E-001  0.7310873E+02  0.7546771E-02  0.1349830E+00
         21   -1    0    0  503  502  0.00000000000E+00  0.00000000000E+00  0.19539572388E+02  0.19539572388E+02  0.00000000000E+00 0.  1.
         21   -1    0    0  501  503 -0.00000000000E+00 -0.00000000000E+00 -0.37888954213E+03  0.37888954213E+03  0.00000000000E+00 0.  1.
         24    1    1    2    0    0  0.11367442197E+02 -0.45118379379E+02 -0.11258724161E+03  0.14597256533E+03  0.80419002446E+02 0.  1.
          1    1    1    2  501    0 -0.16293553023E+02  0.13081933440E+02 -0.98644474315E+02  0.10083327410E+03  0.00000000000E+00 0. -1.
         -2    1    1    2    0  502  0.49261108265E+01  0.32036445938E+02 -0.14811825381E+03  0.15162327509E+03  0.00000000000E+00 0.  1.
<mgrwt>
<rscale>  2 0.73108728E+02</rscale>
<asrwt>0</asrwt>
<pdfrwt beam="1">  1       21 0.30060884E-02 0.73108728E+02</pdfrwt>
<pdfrwt beam="2">  1       21 0.58290692E-01 0.73108728E+02</pdfrwt>
<totfact> 0.17077882E+06</totfact>
</mgrwt>
</event>
<event>
 5    1  0.1365600E-001  0.9490784E+02  0.7546771E-02  0.1291384E+00
         21   -1    0    0  501  502  0.00000000000E+00  0.00000000000E+00  0.60008198847E+01  0.60008198847E+01  0.00000000000E+00 0. -1.
         21   -1    0    0  502  503 -0.00000000000E+00 -0.00000000000E+00 -0.23588232153E+04  0.23588232153E+04  0.00000000000E+00 0.  1.
         24    1    1    2    0    0 -0.51296791381E+02 -0.48040110622E+02 -0.56159703693E+03  0.57166219122E+03  0.80419002446E+02 0. -1.
          1    1    1    2  501    0  0.22308413393E+02 -0.47322030095E+01 -0.42718867245E+03  0.42779693889E+03  0.00000000000E+00 0. -1.
         -2    1    1    2    0  503  0.28988377989E+02  0.52772313631E+02 -0.13640366860E+04  0.13653649050E+04  0.00000000000E+00 0.  1.
<mgrwt>
<rscale>  2 0.94907840E+02</rscale>
<asrwt>0</asrwt>
<pdfrwt beam="1">  1       21 0.92320265E-03 0.94907840E+02</pdfrwt>
<pdfrwt beam="2">  1       21 0.36289604E+00 0.94907840E+02</pdfrwt>
<totfact> 0.71268696E+04</totfact>
</mgrwt>
</event>
<event>
 5    1  0.1365600E-001  0.1168502E+03  0.7546771E-02  0.1248385E+00
         21   -1    0    0  503  502  0.00000000000E+00  0.00000000000E+00  0.75495247185E+03  0.75495247185E+03  0.00000000000E+00 0. -1.
         21   -1    0    0  501  503 -0.00000000000E+00 -0.00000000000E+00 -0.23028886005E+02  0.23028886005E+02  0.00000000000E+00 0. -1.
         24    1    1    2    0    0  0.43907895168E+02  0.56139208180E+02  0.51948789783E+03  0.53048506662E+03  0.80419002446E+02 0. -1.
          1    1    1    2  501    0 -0.78416535838E+02 -0.41955983542E+02  0.13694851844E+03  0.16329223604E+03  0.00000000000E+00 0. -1.
         -2    1    1    2    0  502  0.34508640670E+02 -0.14183224637E+02  0.75487169569E+02  0.84204055197E+02  0.00000000000E+00 0.  1.
<mgrwt>
<rscale>  2 0.11685025E+03</rscale>
<asrwt>0</asrwt>
<pdfrwt beam="1">  1       21 0.11614652E+00 0.11685025E+03</pdfrwt>
<pdfrwt beam="2">  1       21 0.35429061E-02 0.11685025E+03</pdfrwt>
<totfact> 0.28082325E+05</totfact>
</mgrwt>
</event>
<event>
 5    1  0.1365600E-001  0.1677194E+03  0.7546771E-02  0.1180247E+00
         21   -1    0    0  501  502  0.00000000000E+00  0.00000000000E+00  0.72997062931E+02  0.72997062931E+02  0.00000000000E+00 0. -1.
         21   -1    0    0  502  503 -0.00000000000E+00 -0.00000000000E+00 -0.83175492051E+03  0.83175492051E+03  0.00000000000E+00 0.  1.
         24    1    1    2    0    0 -0.11570497676E+03 -0.92704637239E+01 -0.60880780024E+02  0.15377668378E+03  0.80419002446E+02 0. -1.
          1    1    1    2  501    0  0.12926731325E+03  0.59424205526E+02 -0.17505567187E+03  0.22557872845E+03  0.00000000000E+00 0. -1.
         -2    1    1    2    0  503 -0.13562336493E+02 -0.50153741802E+02 -0.52282140569E+03  0.52539657121E+03  0.00000000000E+00 0.  1.
<mgrwt>
<rscale>  2 0.16771943E+03</rscale>
<asrwt>0</asrwt>
<pdfrwt beam="1">  1       21 0.11230318E-01 0.16771943E+03</pdfrwt>
<pdfrwt beam="2">  1       21 0.12796229E+00 0.16771943E+03</pdfrwt>
<totfact> 0.30166748E+04</totfact>
</mgrwt>
</event>
<event>
 5    1  0.1365600E-001  0.1724010E+03  0.7546771E-02  0.1175367E+00
         21   -1    0    0  501  502  0.00000000000E+00  0.00000000000E+00  0.36267574760E+03  0.36267574760E+03  0.00000000000E+00 0. -1.
         21   -1    0    0  502  503 -0.00000000000E+00 -0.00000000000E+00 -0.12365846940E+03  0.12365846940E+03  0.00000000000E+00 0.  1.
         24    1    1    2    0    0  0.25694348765E+02 -0.27415631415E+02  0.20772436315E+03  0.22589476179E+03  0.80419002446E+02 0. -1.
          1    1    1    2  501    0  0.10091794253E+03 -0.44648768315E+02  0.31476152734E+02  0.11475492071E+03  0.00000000000E+00 0. -1.
         -2    1    1    2    0  503 -0.12661229130E+03  0.72064399730E+02 -0.18323768752E+00  0.14568453450E+03  0.00000000000E+00 0.  1.
<mgrwt>
<rscale>  2 0.17240103E+03</rscale>
<asrwt>0</asrwt>
<pdfrwt beam="1">  1       21 0.55796268E-01 0.17240103E+03</pdfrwt>
<pdfrwt beam="2">  1       21 0.19024380E-01 0.17240103E+03</pdfrwt>
<totfact> 0.77320956E+04</totfact>
</mgrwt>
</event>
<event>
 5    1  0.1365600E-001  0.9422553E+02  0.7546771E-02  0.1292930E+00
         21   -1    0    0  503  502  0.00000000000E+00  0.00000000000E+00  0.14184412630E+03  0.14184412630E+03  0.00000000000E+00 0.  1.
         21   -1    0    0  501  503 -0.00000000000E+00 -0.00000000000E+00 -0.10651080693E+03  0.10651080693E+03  0.00000000000E+00 0. -1.
         24    1    1    2    0    0  0.10844095341E+02 -0.31829091676E+02  0.71395037653E+02  0.11267276883E+03  0.80419002446E+02 0.  1.
          1    1    1    2  501    0  0.12498062120E+02 -0.31447725801E+02 -0.55930900672E+02  0.65371451451E+02  0.00000000000E+00 0. -1.
         -2    1    1    2    0  502 -0.23342157461E+02  0.63276817477E+02  0.19869182388E+02  0.70310712938E+02  0.00000000000E+00 0.  1.
<mgrwt>
<rscale>  2 0.94225525E+02</rscale>
<asrwt>0</asrwt>
<pdfrwt beam="1">  1       21 0.21822173E-01 0.94225525E+02</pdfrwt>
<pdfrwt beam="2">  1       21 0.16386278E-01 0.94225525E+02</pdfrwt>
<totfact> 0.65723413E+05</totfact>
</mgrwt>
</event>
<event>
 5    1  0.1365600E-001  0.7952807E+02  0.7546771E-02  0.1330396E+00
         21   -1    0    0  501  502  0.00000000000E+00  0.00000000000E+00  0.11979040662E+03  0.11979040662E+03  0.00000000000E+00 0.  1.
         21   -1    0    0  502  503 -0.00000000000E+00 -0.00000000000E+00 -0.92387309983E+02  0.92387309983E+02  0.00000000000E+00 0. -1.
         24    1    1    2    0    0  0.16097854989E+02  0.23822276661E+02  0.83186890906E+02  0.11922213122E+03  0.80419002446E+02 0.  1.
          1    1    1    2  501    0 -0.20087786596E+02 -0.46485599185E+02 -0.32231237585E+02  0.60027350251E+02  0.00000000000E+00 0. -1.
         -2    1    1    2    0  503  0.39899316067E+01  0.22663322524E+02 -0.23552556686E+02  0.32928235126E+02  0.00000000000E+00 0.  1.
<mgrwt>
<rscale>  2 0.79528074E+02</rscale>
<asrwt>0</asrwt>
<pdfrwt beam="1">  1       21 0.18429293E-01 0.79528074E+02</pdfrwt>
<pdfrwt beam="2">  1       21 0.14213432E-01 0.79528074E+02</pdfrwt>
<totfact> 0.11508336E+06</totfact>
</mgrwt>
</event>
<event>
 5    1  0.1365600E-001  0.1082817E+03  0.7546771E-02  0.1263785E+00
         21   -1    0    0  501  502  0.00000000000E+00  0.00000000000E+00  0.19992734095E+03  0.19992734095E+03  0.00000000000E+00 0. -1.
         21   -1    0    0  502  503 -0.00000000000E+00 -0.00000000000E+00 -0.84156624122E+02  0.84156624122E+02  0.00000000000E+00 0.  1.
         24    1    1    2    0    0  0.44879504834E+02  0.67947778386E+01  0.12088874694E+03  0.15212377872E+03  0.80419002446E+02 0. -1.
          1    1    1    2  501    0 -0.11765684101E+02  0.53850995161E+02  0.19707641231E+02  0.58538467055E+02  0.00000000000E+00 0. -1.
         -2    1    1    2    0  503 -0.33113820733E+02 -0.60645773000E+02 -0.24825671349E+02  0.73421719295E+02  0.00000000000E+00 0.  1.
<mgrwt>
<rscale>  2 0.10828169E+03</rscale>
<asrwt>0</asrwt>
<pdfrwt beam="1">  1       21 0.30758052E-01 0.10828169E+03</pdfrwt>
<pdfrwt beam="2">  1       21 0.12947173E-01 0.10828169E+03</pdfrwt>
<totfact> 0.52431417E+05</totfact>
</mgrwt>
</event>
<event>
 5    1  0.1365600E-001  0.9321023E+02  0.7546771E-02  0.1295259E+00
         21   -1    0    0  501  502  0.00000000000E+00  0.00000000000E+00  0.11334718031E+03  0.11334718031E+03  0.00000000000E+00 0.  1.
         21   -1    0    0  502  503 -0.00000000000E+00 -0.00000000000E+00 -0.25800607570E+03  0.25800607570E+03  0.00000000000E+00 0.  1.
         24    1    1    2    0    0  0.42252945658E+02  0.50475574624E+02  0.59804387546E+02  0.11990361035E+03  0.80419002446E+02 0.  1.
          1    1    1    2  501    0 -0.19871295522E+02 -0.56018140038E+02 -0.15963096291E+02  0.61544462319E+02  0.00000000000E+00 0. -1.
         -2    1    1    2    0  503 -0.22381650135E+02  0.55425654140E+01 -0.18850018665E+03  0.18990518334E+03  0.00000000000E+00 0.  1.
<mgrwt>
<rscale>  2 0.93210234E+02</rscale>
<asrwt>0</asrwt>
<pdfrwt beam="1">  1       21 0.17438028E-01 0.93210234E+02</pdfrwt>
<pdfrwt beam="2">  1       21 0.39693242E-01 0.93210234E+02</pdfrwt>
<totfact> 0.18749483E+05</totfact>
</mgrwt>
</event>
<event>
 5    1  0.1365600E-001  0.7253955E+02  0.7546771E-02  0.1351664E+00
         21   -1    0    0  503  502  0.00000000000E+00  0.00000000000E+00  0.63187644925E+01  0.63187644925E+01  0.00000000000E+00 0.  1.
         21   -1    0    0  501  503 -0.00000000000E+00 -0.00000000000E+00 -0.11118983115E+04  0.11118983115E+04  0.00000000000E+00 0.  1.
         24    1    1    2    0    0 -0.35763419665E+02  0.19291922874E+01 -0.36668869443E+03  0.37710815232E+03  0.80419002446E+02 0.  1.
          1    1    1    2  501    0  0.71760925908E+01  0.19849700181E+02 -0.24083065697E+03  0.24175382570E+03  0.00000000000E+00 0. -1.
         -2    1    1    2    0  502  0.28587327074E+02 -0.21778892468E+02 -0.49806019556E+03  0.49935509793E+03  0.00000000000E+00 0.  1.
<mgrwt>
<rscale>  2 0.72539554E+02</rscale>
<asrwt>0</asrwt>
<pdfrwt beam="1">  1       21 0.97211721E-03 0.72539554E+02</pdfrwt>
<pdfrwt beam="2">  1       21 0.17106135E+00 0.72539554E+02</pdfrwt>
<totfact> 0.84672966E+05</totfact>
</mgrwt>
</event>
<event>
 5    1  0.1365600E-001  0.1150061E+03  0.7546771E-02  0.1251570E+00
         21   -1    0    0  501  502  0.00000000000E+00  0.00000000000E+00  0.16083161488E+03  0.16083161488E+03  0.00000000000E+00 0. -1.
         21   -1    0    0  502  503 -0.00000000000E+00 -0.00000000000E+00 -0.15379951797E+03  0.15379951797E+03  0.00000000000E+00 0.  1.
         24    1    1    2    0    0 -0.36191159587E+02  0.24975911030E+02  0.84647977019E+02  0.12476414602E+03  0.80419002446E+02 0.  0.
          1    1    1    2  501    0 -0.32413957005E+02  0.34659694030E+02  0.24289746876E+02  0.53309950312E+02  0.00000000000E+00 0. -1.
         -2    1    1    2    0  503  0.68605116592E+02 -0.59635605060E+02 -0.10190562698E+03  0.13655703652E+03  0.00000000000E+00 0.  1.
<mgrwt>
<rscale>  2 0.11500609E+03</rscale>
<asrwt>0</asrwt>
<pdfrwt beam="1">  1       21 0.24743325E-01 0.11500609E+03</pdfrwt>
<pdfrwt beam="2">  1       21 0.23661464E-01 0.11500609E+03</pdfrwt>
<totfact> 0.26438970E+05</totfact>
</mgrwt>
</event>
<event>
 5    1  0.1365600E-001  0.9319247E+02  0.7546771E-02  0.1295300E+00
         21   -1    0    0  501  502  0.00000000000E+00  0.00000000000E+00  0.34073801430E+03  0.34073801430E+03  0.00000000000E+00 0.  1.
         21   -1    0    0  502  503 -0.00000000000E+00 -0.00000000000E+00 -0.14407843139E+03  0.14407843139E+03  0.00000000000E+00 0.  1.
         24    1    1    2    0    0  0.13740545553E+02 -0.60851737284E+02  0.30188129373E+03  0.31857694201E+03  0.80419002446E+02 0.  1.
          1    1    1    2  501    0 -0.35605526782E+02  0.28741891504E+02  0.80769188112E+01  0.46465971227E+02  0.00000000000E+00 0. -1.
         -2    1    1    2    0  503  0.21864981229E+02  0.32109845780E+02 -0.11329862963E+03  0.11977353245E+03  0.00000000000E+00 0.  1.
<mgrwt>
<rscale>  2 0.93192466E+02</rscale>
<asrwt>0</asrwt>
<pdfrwt beam="1">  1       21 0.52421233E-01 0.93192466E+02</pdfrwt>
<pdfrwt beam="2">  1       21 0.22165913E-01 0.93192466E+02</pdfrwt>
<totfact> 0.68970943E+04</totfact>
</mgrwt>
</event>
<event>
 5    1  0.1365600E-001  0.1047615E+03  0.7546771E-02  0.1270590E+00
         21   -1    0    0  501  502  0.00000000000E+00  0.00000000000E+00  0.10876754429E+04  0.10876754429E+04  0.00000000000E+00 0. -1.
         21   -1    0    0  502  503 -0.00000000000E+00 -0.00000000000E+00 -0.36503210590E+02  0.36503210590E+02  0.00000000000E+00 0.  1.
         24    1    1    2    0    0  0.32271247878E+02 -0.65664569411E+01  0.82167711698E+03  0.82625967609E+03  0.80419002446E+02 0. -1.
          1    1    1    2  501    0 -0.51778172773E+02 -0.44300329129E+02  0.23355124207E+03  0.24328929490E+03  0.00000000000E+00 0. -1.
         -2    1    1    2    0  503  0.19506924895E+02  0.50866786070E+02 -0.40561267712E+01  0.54629682484E+02  0.00000000000E+00 0.  1.
<mgrwt>
<rscale>  2 0.10476151E+03</rscale>
<asrwt>0</asrwt>
<pdfrwt beam="1">  1       21 0.16733466E+00 0.10476151E+03</pdfrwt>
<pdfrwt beam="2">  1       21 0.56158794E-02 0.10476151E+03</pdfrwt>
<totfact> 0.52221859E+04</totfact>
</mgrwt>
</event>
<event>
 5    1  0.1365600E-001  0.9737877E+02  0.7546771E-02  0.1285907E+00
         21   -1    0    0  503  502  0.00000000000E+00  0.00000000000E+00  0.20147255424E+04  0.20147255424E+04  0.00000000000E+00 0.  1.
         21   -1    0    0  501  503 -0.00000000000E+00 -0.00000000000E+00 -0.24102815740E+02  0.24102815740E+02  0.00000000000E+00 0. -1.
         24    1    1    2    0    0 -0.40506274476E+02  0.58080609859E+02  0.17459497187E+04  0.17492346189E+04  0.80419002446E+02 0.  1.
          1    1    1    2  501    0  0.25333740033E+02  0.22158394816E+01 -0.10085711888E+02  0.27357447120E+02  0.00000000000E+00 0. -1.
         -2    1    1    2    0  502  0.15172534444E+02 -0.60296449340E+02  0.25475871980E+03  0.26223629215E+03  0.00000000000E+00 0.  1.
<mgrwt>
<rscale>  2 0.97378769E+02</rscale>
<asrwt>0</asrwt>
<pdfrwt beam="1">  1       21 0.30995764E+00 0.97378769E+02</pdfrwt>
<pdfrwt beam="2">  1       21 0.37081271E-02 0.97378769E+02</pdfrwt>
<totfact> 0.15206389E+04</totfact>
</mgrwt>
</event>
<event>
 5    1  0.1365600E-001  0.1190062E+03  0.7546771E-02  0.1244746E+00
         21   -1    0    0  503  502  0.00000000000E+00  0.00000000000E+00  0.36732505272E+02  0.36732505272E+02  0.00000000000E+00 0.  1.
         21   -1    0    0  501  503 -0.00000000000E+00 -0.00000000000E+00 -0.61325924731E+03  0.61325924731E+03  0.00000000000E+00 0.  1.
         24    1    1    2    0    0  0.22687494580E+02 -0.66238454310E+02 -0.73968316582E+02  0.12977204264E+03  0.80419002446E+02 0.  1.
          1    1    1    2  501    0  0.21319643090E+02 -0.23320926904E+02 -0.17386955778E+03  0.17671733343E+03  0.00000000000E+00 0. -1.
         -2    1    1    2    0  502 -0.44007137670E+02  0.89559381214E+02 -0.32868886767E+03  0.34350237650E+03  0.00000000000E+00 0.  1.
<mgrwt>
<rscale>  2 0.11900620E+03</rscale>
<asrwt>0</asrwt>
<pdfrwt beam="1">  1       21 0.56511550E-02 0.11900620E+03</pdfrwt>
<pdfrwt beam="2">  1       21 0.94347571E-01 0.11900620E+03</pdfrwt>
<totfact> 0.21034212E+05</totfact>
</mgrwt>
</event>
<event>
 5    1  0.1365600E-001  0.1635372E+03  0.7546771E-02  0.1184760E+00
         21   -1    0    0  501  502  0.00000000000E+00  0.00000000000E+00  0.24032313684E+03  0.24032313684E+03  0.00000000000E+00 0. -1.
         21   -1    0    0  502  503 -0.00000000000E+00 -0.00000000000E+00 -0.16446781085E+03  0.16446781085E+03  0.00000000000E+00 0.  1.
         24    1    1    2    0    0 -0.10491922966E+03  0.64476809682E+02  0.14354873786E+03  0.20552070415E+03  0.80419002446E+02 0. -1.
          1    1    1    2  501    0 -0.23404328041E+02 -0.44288947559E+02  0.51193190414E+01  0.50353558706E+02  0.00000000000E+00 0. -1.
         -2    1    1    2    0  503  0.12832355770E+03 -0.20187862123E+02 -0.72812730914E+02  0.14891668483E+03  0.00000000000E+00 0.  1.
<mgrwt>
<rscale>  2 0.16353723E+03</rscale>
<asrwt>0</asrwt>
<pdfrwt beam="1">  1       21 0.36972790E-01 0.16353723E+03</pdfrwt>
<pdfrwt beam="2">  1       21 0.25302740E-01 0.16353723E+03</pdfrwt>
<totfact> 0.10560640E+05</totfact>
</mgrwt>
</event>
<event>
 5    1  0.1365600E-001  0.1801461E+03  0.7546771E-02  0.1167662E+00
         21   -1    0    0  501  502  0.00000000000E+00  0.00000000000E+00  0.12080645440E+03  0.12080645440E+03  0.00000000000E+00 0. -1.
         21   -1    0    0  502  503 -0.00000000000E+00 -0.00000000000E+00 -0.11510890309E+04  0.11510890309E+04  0.00000000000E+00 0.  1.
         24    1    1    2    0    0  0.15038928004E+03 -0.33548134741E+02  0.41808081918E+02  0.17876673226E+03  0.80419002446E+02 0. -1.
          1    1    1    2  501    0  0.56908783375E+01 -0.20526718188E+02 -0.23950398940E+02  0.32052361304E+02  0.00000000000E+00 0. -1.
         -2    1    1    2    0  503 -0.15608015838E+03  0.54074852928E+02 -0.10481402595E+04  0.10610763918E+04  0.00000000000E+00 0.  1.
<mgrwt>
<rscale>  2 0.18014610E+03</rscale>
<asrwt>0</asrwt>
<pdfrwt beam="1">  1       21 0.18585609E-01 0.18014610E+03</pdfrwt>
<pdfrwt beam="2">  1       21 0.17709062E+00 0.18014610E+03</pdfrwt>
<totfact> 0.50975343E+03</totfact>
</mgrwt>
</event>
<event>
 5    1  0.1365600E-001  0.8338248E+02  0.7546771E-02  0.1319718E+00
         21   -1    0    0  503  502  0.00000000000E+00  0.00000000000E+00  0.38838737905E+03  0.38838737905E+03  0.00000000000E+00 0.  1.
         21   -1    0    0  501  503 -0.00000000000E+00 -0.00000000000E+00 -0.27410857897E+02  0.27410857897E+02  0.00000000000E+00 0. -1.
         24    1    1    2    0    0  0.15494105409E+02  0.20517823970E+02  0.21427160882E+03  0.23030542049E+03  0.80419002446E+02 0.  1.
          1    1    1    2  501    0  0.25441868555E+02  0.13777227093E+02 -0.46170975788E+00  0.28936375686E+02  0.00000000000E+00 0. -1.
         -2    1    1    2    0  502 -0.40935973965E+02 -0.34295051063E+02  0.14716662209E+03  0.15655644077E+03  0.00000000000E+00 0.  1.
<mgrwt>
<rscale>  2 0.83382483E+02</rscale>
<asrwt>0</asrwt>
<pdfrwt beam="1">  1       21 0.59751901E-01 0.83382483E+02</pdfrwt>
<pdfrwt beam="2">  1       21 0.42170553E-02 0.83382483E+02</pdfrwt>
<totfact> 0.93681691E+05</totfact>
</mgrwt>
</event>
<event>
 5    1  0.1365600E-001  0.7539981E+02  0.7546771E-02  0.1342637E+00
         21   -1    0    0  503  502  0.00000000000E+00  0.00000000000E+00  0.13275267578E+02  0.13275267578E+02  0.00000000000E+00 0. -1.
         21   -1    0    0  501  503 -0.00000000000E+00 -0.00000000000E+00 -0.15299819742E+04  0.15299819742E+04  0.00000000000E+00 0.  1.
         24    1    1    2    0    0 -0.17667839550E+02  0.47500164560E+01 -0.12430940076E+03  0.14918028785E+03  0.80419002446E+02 0. -1.
          1    1    1    2  501    0  0.26040750370E+02  0.25795098748E+02 -0.71180667043E+03  0.71274977648E+03  0.00000000000E+00 0. -1.
         -2    1    1    2    0  502 -0.83729108197E+01 -0.30545115204E+02 -0.68059063540E+03  0.68132717742E+03  0.00000000000E+00 0.  1.
<mgrwt>
<rscale>  2 0.75399810E+02</rscale>
<asrwt>0</asrwt>
<pdfrwt beam="1">  1       21 0.20423493E-02 0.75399810E+02</pdfrwt>
<pdfrwt beam="2">  1       21 0.23538179E+00 0.75399810E+02</pdfrwt>
<totfact> 0.10689244E+05</totfact>
</mgrwt>
</event>
<event>
 5    1  0.1365600E-001  0.1285969E+03  0.7546771E-02  0.1229553E+00
         21   -1    0    0  503  502  0.00000000000E+00  0.00000000000E+00  0.37737592129E+02  0.37737592129E+02  0.00000000000E+00 0. -1.
         21   -1    0    0  501  503 -0.00000000000E+00 -0.00000000000E+00 -0.70336769746E+03  0.70336769746E+03  0.00000000000E+00 0.  1.
         24    1    1    2    0    0  0.22397780357E+02  0.10992203921E+02 -0.46600100616E+02  0.96235515501E+02  0.80419002446E+02 0. -1.
          1    1    1    2  501    0 -0.91047836946E+02  0.26429700455E+02 -0.24389775576E+03  0.26167604580E+03  0.00000000000E+00 0. -1.
         -2    1    1    2    0  502  0.68650056589E+02 -0.37421904376E+02 -0.37513224895E+03  0.38319372829E+03  0.00000000000E+00 0.  1.
<mgrwt>
<rscale>  2 0.12859692E+03</rscale>
<asrwt>0</asrwt>
<pdfrwt beam="1">  1       21 0.58057835E-02 0.12859692E+03</pdfrwt>
<pdfrwt beam="2">  1       21 0.10821041E+00 0.12859692E+03</pdfrwt>
<totfact> 0.14522542E+05</totfact>
</mgrwt>
</event>
<event>
 5    1  0.1365600E-001  0.2036608E+03  0.7546771E-02  0.1146687E+00
         21   -1    0    0  501  502  0.00000000000E+00  0.00000000000E+00  0.25129201898E+03  0.25129201898E+03  0.00000000000E+00 0. -1.
         21   -1    0    0  502  503 -0.00000000000E+00 -0.00000000000E+00 -0.26115840018E+03  0.26115840018E+03  0.00000000000E+00 0.  1.
         24    1    1    2    0    0 -0.45417281955E+02  0.63662344976E+02  0.12874771669E+03  0.17075952148E+03  0.80419002446E+02 0. -1.
          1    1    1    2  501    0  0.16516040172E+03 -0.14809497614E+02 -0.21486821201E+02  0.16720933886E+03  0.00000000000E+00 0. -1.
         -2    1    1    2    0  503 -0.11974311976E+03 -0.48852847362E+02 -0.11712727669E+03  0.17448155883E+03  0.00000000000E+00 0.  1.
<mgrwt>
<rscale>  2 0.20366076E+03</rscale>
<asrwt>0</asrwt>
<pdfrwt beam="1">  1       21 0.38660311E-01 0.20366076E+03</pdfrwt>
<pdfrwt beam="2">  1       21 0.40178215E-01 0.20366076E+03</pdfrwt>
<totfact> 0.38293697E+04</totfact>
</mgrwt>
</event>
<event>
 5    1  0.1365600E-001  0.2395414E+03  0.7546771E-02  0.1120099E+00
         21   -1    0    0  503  502  0.00000000000E+00  0.00000000000E+00  0.12156158774E+03  0.12156158774E+03  0.00000000000E+00 0.  1.
         21   -1    0    0  501  503 -0.00000000000E+00 -0.00000000000E+00 -0.73033328920E+03  0.73033328920E+03  0.00000000000E+00 0. -1.
         24    1    1    2    0    0  0.36785151884E+02  0.17424458268E+03 -0.23297172792E+02  0.19678489832E+03  0.80419002446E+02 0.  1.
          1    1    1    2  501    0 -0.29565033180E+02 -0.22776540008E+03 -0.53031374018E+03  0.57791334272E+03  0.00000000000E+00 0. -1.
         -2    1    1    2    0  502 -0.72201187036E+01  0.53520817395E+02 -0.55160788486E+02  0.77196635906E+02  0.00000000000E+00 0.  1.
<mgrwt>
<rscale>  2 0.23954141E+03</rscale>
<asrwt>0</asrwt>
<pdfrwt beam="1">  1       21 0.18701782E-01 0.23954141E+03</pdfrwt>
<pdfrwt beam="2">  1       21 0.11235897E+00 0.23954141E+03</pdfrwt>
<totfact> 0.15766621E+04</totfact>
</mgrwt>
</event>
<event>
 5    1  0.1365600E-001  0.9923739E+02  0.7546771E-02  0.1281908E+00
         21   -1    0    0  501  502  0.00000000000E+00  0.00000000000E+00  0.12733658674E+02  0.12733658674E+02  0.00000000000E+00 0. -1.
         21   -1    0    0  502  503 -0.00000000000E+00 -0.00000000000E+00 -0.77608569523E+03  0.77608569523E+03  0.00000000000E+00 0.  1.
         24    1    1    2    0    0 -0.36227304945E+02 -0.64387954714E+02 -0.43461462013E+03  0.44812421305E+03  0.80419002446E+02 0.  0.
          1    1    1    2  501    0  0.15624396904E+02  0.66730688971E+02 -0.24239084356E+03  0.25189368327E+03  0.00000000000E+00 0. -1.
         -2    1    1    2    0  503  0.20602908041E+02 -0.23427342573E+01 -0.86346572857E+02  0.88801457576E+02  0.00000000000E+00 0.  1.
<mgrwt>
<rscale>  2 0.99237395E+02</rscale>
<asrwt>0</asrwt>
<pdfrwt beam="1">  1       21 0.19590240E-02 0.99237395E+02</pdfrwt>
<pdfrwt beam="2">  1       21 0.11939782E+00 0.99237395E+02</pdfrwt>
<totfact> 0.69045796E+05</totfact>
</mgrwt>
</event>
<event>
 5    1  0.1365600E-001  0.6753443E+02  0.7546771E-02  0.1368684E+00
         21   -1    0    0  503  502  0.00000000000E+00  0.00000000000E+00  0.14537545784E+03  0.14537545784E+03  0.00000000000E+00 0. -1.
         21   -1    0    0  501  503 -0.00000000000E+00 -0.00000000000E+00 -0.13545594973E+03  0.13545594973E+03  0.00000000000E+00 0. -1.
         24    1    1    2    0    0 -0.57228721209E+01  0.32033703721E+01  0.12238620974E+03  0.14658994896E+03  0.80419002446E+02 0. -1.
          1    1    1    2  501    0  0.47516958682E+01 -0.28587726178E+02 -0.10321504805E+03  0.10720626309E+03  0.00000000000E+00 0. -1.
         -2    1    1    2    0  502  0.97117625269E+00  0.25384355806E+02 -0.92516535757E+01  0.27035195522E+02  0.00000000000E+00 0.  1.
<mgrwt>
<rscale>  2 0.67534426E+02</rscale>
<asrwt>0</asrwt>
<pdfrwt beam="1">  1       21 0.22365455E-01 0.67534426E+02</pdfrwt>
<pdfrwt beam="2">  1       21 0.20839377E-01 0.67534426E+02</pdfrwt>
<totfact> 0.40584200E+05</totfact>
</mgrwt>
</event>
<event>
 5    1  0.1365600E-001  0.8349160E+02  0.7546771E-02  0.1319425E+00
         21   -1    0    0  501  502  0.00000000000E+00  0.00000000000E+00  0.30868836758E+02  0.30868836758E+02  0.00000000000E+00 0.  1.
         21   -1    0    0  502  503 -0.00000000000E+00 -0.00000000000E+00 -0.26561446127E+03  0.26561446127E+03  0.00000000000E+00 0.  1.
         24    1    1    2    0    0 -0.16790880663E+02  0.49390631353E+01 -0.17170029374E+03  0.19040623636E+03  0.80419002446E+02 0. -1.
          1    1    1    2  501    0  0.19719477958E+02  0.37379381255E+02 -0.25044303820E+02  0.49125279722E+02  0.00000000000E+00 0. -1.
         -2    1    1    2    0  503 -0.29285972950E+01 -0.42318444391E+02 -0.38001026951E+02  0.56951781948E+02  0.00000000000E+00 0.  1.
<mgrwt>
<rscale>  2 0.83491597E+02</rscale>
<asrwt>0</asrwt>
<pdfrwt beam="1">  1       21 0.47490517E-02 0.83491597E+02</pdfrwt>
<pdfrwt beam="2">  1       21 0.40863764E-01 0.83491597E+02</pdfrwt>
<totfact> 0.16680219E+06</totfact>
</mgrwt>
</event>
<event>
 5    1  0.1365600E-001  0.1026093E+03  0.7546771E-02  0.1274903E+00
         21   -1    0    0  501  502  0.00000000000E+00  0.00000000000E+00  0.32666604034E+03  0.32666604034E+03  0.00000000000E+00 0. -1.
         21   -1    0    0  502  503 -0.00000000000E+00 -0.00000000000E+00 -0.59431170928E+02  0.59431170928E+02  0.00000000000E+00 0. -1.
         24    1    1    2    0    0  0.33842647081E+02  0.50723505871E+02  0.25733423830E+03  0.27641694044E+03  0.80419002446E+02 0. -1.
          1    1    1    2  501    0 -0.51817646242E+02 -0.63708812208E+02  0.21170403478E+02  0.84806056378E+02  0.00000000000E+00 0. -1.
         -2    1    1    2    0  503  0.17974999161E+02  0.12985306337E+02 -0.11269772360E+02  0.24874214451E+02  0.00000000000E+00 0.  1.
<mgrwt>
<rscale>  2 0.10260934E+03</rscale>
<asrwt>0</asrwt>
<pdfrwt beam="1">  1       21 0.50256313E-01 0.10260934E+03</pdfrwt>
<pdfrwt beam="2">  1       21 0.91432573E-02 0.10260934E+03</pdfrwt>
<totfact> 0.36390908E+05</totfact>
</mgrwt>
</event>
<event>
 5    1  0.1365600E-001  0.8584710E+02  0.7546771E-02  0.1313232E+00
         21   -1    0    0  503  502  0.00000000000E+00  0.00000000000E+00  0.18841104167E+03  0.18841104167E+03  0.00000000000E+00 0.  1.
         21   -1    0    0  501  503 -0.00000000000E+00 -0.00000000000E+00 -0.10221751114E+03  0.10221751114E+03  0.00000000000E+00 0. -1.
         24    1    1    2    0    0 -0.83980913020E+01  0.11681112858E+02  0.12593974003E+03  0.15011665600E+03  0.80419002446E+02 0.  1.
          1    1    1    2  501    0 -0.37713233368E+02  0.10040762408E+02 -0.70786984018E+02  0.80832555243E+02  0.00000000000E+00 0. -1.
         -2    1    1    2    0  502  0.46111324670E+02 -0.21721875267E+02  0.31040774516E+02  0.59679341572E+02  0.00000000000E+00 0.  1.
<mgrwt>
<rscale>  2 0.85847105E+02</rscale>
<asrwt>0</asrwt>
<pdfrwt beam="1">  1       21 0.28986314E-01 0.85847105E+02</pdfrwt>
<pdfrwt beam="2">  1       21 0.15725771E-01 0.85847105E+02</pdfrwt>
<totfact> 0.41576450E+05</totfact>
</mgrwt>
</event>
<event>
 5    1  0.1365600E-001  0.9471799E+02  0.7546771E-02  0.1291813E+00
         21   -1    0    0  501  502  0.00000000000E+00  0.00000000000E+00  0.81954499959E+02  0.81954499959E+02  0.00000000000E+00 0. -1.
         21   -1    0    0  502  503 -0.00000000000E+00 -0.00000000000E+00 -0.14057022431E+03  0.14057022431E+03  0.00000000000E+00 0.  1.
         24    1    1    2    0    0  0.30461187261E+02 -0.46654118273E+02  0.13632157624E+02  0.98780273117E+02  0.80419002446E+02 0. -1.
          1    1    1    2  501    0 -0.25544256815E+02 -0.15085238321E+02 -0.14815830282E+01  0.29703005903E+02  0.00000000000E+00 0. -1.
         -2    1    1    2    0  503 -0.49169304467E+01  0.61739356594E+02 -0.70766298945E+02  0.94041445247E+02  0.00000000000E+00 0.  1.
<mgrwt>
<rscale>  2 0.94717986E+02</rscale>
<asrwt>0</asrwt>
<pdfrwt beam="1">  1       21 0.12608385E-01 0.94717986E+02</pdfrwt>
<pdfrwt beam="2">  1       21 0.21626188E-01 0.94717986E+02</pdfrwt>
<totfact> 0.10660575E+06</totfact>
</mgrwt>
</event>
<event>
 5    1  0.1365600E-001  0.1008459E+03  0.7546771E-02  0.1278527E+00
         21   -1    0    0  503  502  0.00000000000E+00  0.00000000000E+00  0.14669367070E+03  0.14669367070E+03  0.00000000000E+00 0.  1.
         21   -1    0    0  501  503 -0.00000000000E+00 -0.00000000000E+00 -0.56603832777E+03  0.56603832777E+03  0.00000000000E+00 0. -1.
         24    1    1    2    0    0  0.46308728165E+02  0.66942847130E+02  0.10886126125E+03  0.15793616825E+03  0.80419002446E+02 0.  1.
          1    1    1    2  501    0 -0.29657987009E+02 -0.16056357084E+02 -0.48452303197E+03  0.48569534825E+03  0.00000000000E+00 0. -1.
         -2    1    1    2    0  502 -0.16650741157E+02 -0.50886490046E+02 -0.43682886345E+02  0.69100481978E+02  0.00000000000E+00 0.  1.
<mgrwt>
<rscale>  2 0.10084586E+03</rscale>
<asrwt>0</asrwt>
<pdfrwt beam="1">  1       21 0.22568257E-01 0.10084586E+03</pdfrwt>
<pdfrwt beam="2">  1       21 0.87082821E-01 0.10084586E+03</pdfrwt>
<totfact> 0.22255442E+04</totfact>
</mgrwt>
</event>
<event>
 5    1  0.1365600E-001  0.1137537E+03  0.7546771E-02  0.1253772E+00
         21   -1    0    0  503  502  0.00000000000E+00  0.00000000000E+00  0.33967046631E+03  0.33967046631E+03  0.00000000000E+00 0. -1.
         21   -1    0    0  501  503 -0.00000000000E+00 -0.00000000000E+00 -0.92847702547E+02  0.92847702547E+02  0.00000000000E+00 0.  1.
         24    1    1    2    0    0 -0.88301742896E+01  0.49015570182E+02  0.26880640369E+03  0.28496420252E+03  0.80419002446E+02 0. -1.
          1    1    1    2  501    0 -0.56438251449E+02 -0.11383031590E+02 -0.39979294905E+02  0.70094177047E+02  0.00000000000E+00 0. -1.
         -2    1    1    2    0  502  0.65268425739E+02 -0.37632538591E+02  0.17995654983E+02  0.77459789294E+02  0.00000000000E+00 0.  1.
<mgrwt>
<rscale>  2 0.11375374E+03</rscale>
<asrwt>0</asrwt>
<pdfrwt beam="1">  1       21 0.52256994E-01 0.11375374E+03</pdfrwt>
<pdfrwt beam="2">  1       21 0.14284262E-01 0.11375374E+03</pdfrwt>
<totfact> 0.15284209E+05</totfact>
</mgrwt>
</event>
<event>
 5    1  0.1365600E-001  0.9880796E+02  0.7546771E-02  0.1282823E+00
         21   -1    0    0  501  502  0.00000000000E+00  0.00000000000E+00  0.66397422826E+02  0.66397422826E+02  0.00000000000E+00 0. -1.
         21   -1    0    0  502  503 -0.00000000000E+00 -0.00000000000E+00 -0.24677321226E+03  0.24677321226E+03  0.00000000000E+00 0.  1.
         24    1    1    2    0    0  0.13098379941E+02 -0.34714541619E+01 -0.35692757642E+01  0.81630718697E+02  0.80419002446E+02 0. -1.
          1    1    1    2  501    0 -0.51147036732E+02  0.38756029168E+02 -0.21316757147E+02  0.67619917914E+02  0.00000000000E+00 0. -1.
         -2    1    1    2    0  503  0.38048656791E+02 -0.35284575006E+02 -0.15548975652E+03  0.16391999847E+03  0.00000000000E+00 0.  1.
<mgrwt>
<rscale>  2 0.98807962E+02</rscale>
<asrwt>0</asrwt>
<pdfrwt beam="1">  1       21 0.10214988E-01 0.98807962E+02</pdfrwt>
<pdfrwt beam="2">  1       21 0.37965110E-01 0.98807962E+02</pdfrwt>
<totfact> 0.52778236E+05</totfact>
</mgrwt>
</event>
<event>
 5    1  0.1365600E-001  0.1369016E+03  0.7546771E-02  0.1217560E+00
         21   -1    0    0  501  502  0.00000000000E+00  0.00000000000E+00  0.43096219772E+02  0.43096219772E+02  0.00000000000E+00 0.  1.
         21   -1    0    0  502  503 -0.00000000000E+00 -0.00000000000E+00 -0.46521520672E+03  0.46521520672E+03  0.00000000000E+00 0. -1.
         24    1    1    2    0    0  0.71983929216E+02  0.39443814468E+02 -0.12964697114E+03  0.17324275929E+03  0.80419002446E+02 0.  0.
          1    1    1    2  501    0 -0.11216624728E+03 -0.38852806016E+02 -0.17985478151E+03  0.21549605564E+03  0.00000000000E+00 0. -1.
         -2    1    1    2    0  503  0.40182318062E+02 -0.59100845186E+00 -0.11261723430E+03  0.11957261156E+03  0.00000000000E+00 0.  1.
<mgrwt>
<rscale>  2 0.13690157E+03</rscale>
<asrwt>0</asrwt>
<pdfrwt beam="1">  1       21 0.66301879E-02 0.13690157E+03</pdfrwt>
<pdfrwt beam="2">  1       21 0.71571567E-01 0.13690157E+03</pdfrwt>
<totfact> 0.29693368E+05</totfact>
</mgrwt>
</event>
<event>
 5    1  0.1365600E-001  0.1062315E+03  0.7546771E-02  0.1267712E+00
         21   -1    0    0  503  502  0.00000000000E+00  0.00000000000E+00  0.97420270279E+01  0.97420270279E+01  0.00000000000E+00 0. -1.
         21   -1    0    0  501  503 -0.00000000000E+00 -0.00000000000E+00 -0.14540183500E+04  0.14540183500E+04  0.00000000000E+00 0.  1.
         24    1    1    2    0    0 -0.26739572508E+02  0.80760228633E+02 -0.45873680798E+03  0.47343837425E+03  0.80419002446E+02 0. -1.
          1    1    1    2  501    0 -0.11955858241E+02 -0.16310134679E+02 -0.29789369815E+03  0.29857933357E+03  0.00000000000E+00 0. -1.
         -2    1    1    2    0  502  0.38695430749E+02 -0.64450093955E+02 -0.68764581682E+03  0.69174266917E+03  0.00000000000E+00 0.  1.
<mgrwt>
<rscale>  2 0.10623146E+03</rscale>
<asrwt>0</asrwt>
<pdfrwt beam="1">  1       21 0.14987742E-02 0.10623146E+03</pdfrwt>
<pdfrwt beam="2">  1       21 0.22369501E+00 0.10623146E+03</pdfrwt>
<totfact> 0.19798175E+05</totfact>
</mgrwt>
</event>
<event>
 5    1  0.1365600E-001  0.6788211E+02  0.7546771E-02  0.1367447E+00
         21   -1    0    0  503  502  0.00000000000E+00  0.00000000000E+00  0.16331181294E+03  0.16331181294E+03  0.00000000000E+00 0.  1.
         21   -1    0    0  501  503 -0.00000000000E+00 -0.00000000000E+00 -0.61986379863E+03  0.61986379863E+03  0.00000000000E+00 0. -1.
         24    1    1    2    0    0 -0.21363438631E+02 -0.33667211402E+01  0.14157584249E+03  0.16425183851E+03  0.80419002446E+02 0.  1.
          1    1    1    2  501    0  0.33523974622E+01 -0.21513255067E+02 -0.58519037095E+03  0.58559527745E+03  0.00000000000E+00 0. -1.
         -2    1    1    2    0  502  0.18011041168E+02  0.24879976207E+02 -0.12937457227E+02  0.33328495609E+02  0.00000000000E+00 0.  1.
<mgrwt>
<rscale>  2 0.67882107E+02</rscale>
<asrwt>0</asrwt>
<pdfrwt beam="1">  1       21 0.25124894E-01 0.67882107E+02</pdfrwt>
<pdfrwt beam="2">  1       21 0.95363662E-01 0.67882107E+02</pdfrwt>
<totfact> 0.15446311E+04</totfact>
</mgrwt>
</event>
<event>
 5    1  0.1365600E-001  0.7201515E+02  0.7546771E-02  0.1353371E+00
         21   -1    0    0  501  502  0.00000000000E+00  0.00000000000E+00  0.30280828550E+02  0.30280828550E+02  0.00000000000E+00 0.  1.
         21   -1    0    0  502  503 -0.00000000000E+00 -0.00000000000E+00 -0.72401754322E+03  0.72401754322E+03  0.00000000000E+00 0.  1.
         24    1    1    2    0    0  0.38849914466E+00 -0.13837194103E+02 -0.29434160502E+02  0.86747937330E+02  0.80419002446E+02 0.  1.
          1    1    1    2  501    0  0.28196519581E+02  0.18131188042E+02 -0.24950834960E+03  0.25175027352E+03  0.00000000000E+00 0. -1.
         -2    1    1    2    0  503 -0.28585018726E+02 -0.42939939389E+01 -0.41479420456E+03  0.41580016092E+03  0.00000000000E+00 0.  1.
<mgrwt>
<rscale>  2 0.72015152E+02</rscale>
<asrwt>0</asrwt>
<pdfrwt beam="1">  1       21 0.46585889E-02 0.72015152E+02</pdfrwt>
<pdfrwt beam="2">  1       21 0.11138732E+00 0.72015152E+02</pdfrwt>
<totfact> 0.20069223E+05</totfact>
</mgrwt>
</event>
<event>
 5    1  0.1365600E-001  0.8945577E+02  0.7546771E-02  0.1304175E+00
         21   -1    0    0  503  502  0.00000000000E+00  0.00000000000E+00  0.73046732255E+02  0.73046732255E+02  0.00000000000E+00 0. -1.
         21   -1    0    0  501  503 -0.00000000000E+00 -0.00000000000E+00 -0.13592873944E+03  0.13592873944E+03  0.00000000000E+00 0.  1.
         24    1    1    2    0    0 -0.12486730106E+02 -0.83748690242E+01  0.16279795169E+02  0.83416452484E+02  0.80419002446E+02 0. -1.
          1    1    1    2  501    0 -0.41579568796E+02 -0.35584046277E+01 -0.39408881075E+02  0.57398455487E+02  0.00000000000E+00 0. -1.
         -2    1    1    2    0  502  0.54066298902E+02  0.11933273652E+02 -0.39752921281E+02  0.68160563725E+02  0.00000000000E+00 0.  1.
<mgrwt>
<rscale>  2 0.89455775E+02</rscale>
<asrwt>0</asrwt>
<pdfrwt beam="1">  1       21 0.11237959E-01 0.89455775E+02</pdfrwt>
<pdfrwt beam="2">  1       21 0.20912114E-01 0.89455775E+02</pdfrwt>
<totfact> 0.13859421E+06</totfact>
</mgrwt>
</event>
<event>
 5    1  0.1365600E-001  0.1862997E+03  0.7546771E-02  0.1161842E+00
         21   -1    0    0  503  502  0.00000000000E+00  0.00000000000E+00  0.14174971250E+03  0.14174971250E+03  0.00000000000E+00 0.  1.
         21   -1    0    0  501  503 -0.00000000000E+00 -0.00000000000E+00 -0.37675125642E+03  0.37675125642E+03  0.00000000000E+00 0. -1.
         24    1    1    2    0    0  0.29143433267E+02 -0.21622911477E+02  0.17129219691E+02  0.89875002781E+02  0.80419002446E+02 0.  0.
          1    1    1    2  501    0 -0.90458883150E+02  0.13087211636E+03 -0.25811264257E+03  0.30320365538E+03  0.00000000000E+00 0. -1.
         -2    1    1    2    0  502  0.61315449883E+02 -0.10924920488E+03  0.59818789579E+01  0.12542231077E+03  0.00000000000E+00 0.  1.
<mgrwt>
<rscale>  2 0.18629967E+03</rscale>
<asrwt>0</asrwt>
<pdfrwt beam="1">  1       21 0.21807648E-01 0.18629967E+03</pdfrwt>
<pdfrwt beam="2">  1       21 0.57961732E-01 0.18629967E+03</pdfrwt>
<totfact> 0.54918364E+04</totfact>
</mgrwt>
</event>
<event>
 5    1  0.1365600E-001  0.1787839E+03  0.7546771E-02  0.1168985E+00
         21   -1    0    0  501  502  0.00000000000E+00  0.00000000000E+00  0.75669400273E+03  0.75669400273E+03  0.00000000000E+00 0.  1.
         21   -1    0    0  502  503 -0.00000000000E+00 -0.00000000000E+00 -0.43444642990E+02  0.43444642990E+02  0.00000000000E+00 0.  1.
         24    1    1    2    0    0  0.77100945483E+02 -0.26549768862E+02  0.29366629832E+03  0.31520875105E+03  0.80419002446E+02 0.  1.
          1    1    1    2  501    0  0.59617639306E+02 -0.57272914001E+02  0.14864915256E+03  0.17009121127E+03  0.00000000000E+00 0. -1.
         -2    1    1    2    0  503 -0.13671858479E+03  0.83822682863E+02  0.27093390886E+03  0.31483868339E+03  0.00000000000E+00 0.  1.
<mgrwt>
<rscale>  2 0.17878386E+03</rscale>
<asrwt>0</asrwt>
<pdfrwt beam="1">  1       21 0.11641445E+00 0.17878386E+03</pdfrwt>
<pdfrwt beam="2">  1       21 0.66837918E-02 0.17878386E+03</pdfrwt>
<totfact> 0.93785815E+04</totfact>
</mgrwt>
</event>
<event>
 5    1  0.1496757E-001  0.9528958E+02  0.7546771E-02  0.1290525E+00
         21   -1    0    0  503  502  0.00000000000E+00  0.00000000000E+00  0.13435186879E+03  0.13435186879E+03  0.00000000000E+00 0. -1.
         21   -1    0    0  501  503 -0.00000000000E+00 -0.00000000000E+00 -0.75439804449E+02  0.75439804449E+02  0.00000000000E+00 0.  1.
         24    1    1    2    0    0  0.35392823688E+01  0.17420569887E+02  0.59440404584E+02  0.10156958416E+03  0.80419002446E+02 0. -1.
          1    1    1    2  501    0  0.15756740890E+02 -0.59699961372E+02  0.19262512326E-01  0.61744316680E+02  0.00000000000E+00 0. -1.
         -2    1    1    2    0  502 -0.19296023259E+02  0.42279391485E+02 -0.54760275935E+00  0.46477772394E+02  0.00000000000E+00 0.  1.
<mgrwt>
<rscale>  2 0.95289579E+02</rscale>
<asrwt>0</asrwt>
<pdfrwt beam="1">  1       21 0.20669518E-01 0.95289579E+02</pdfrwt>
<pdfrwt beam="2">  1       21 0.11606124E-01 0.95289579E+02</pdfrwt>
<totfact> 0.13405861E+06</totfact>
</mgrwt>
</event>
<event>
 5    1  0.1365600E-001  0.1909310E+03  0.7546771E-02  0.1157624E+00
         21   -1    0    0  501  502  0.00000000000E+00  0.00000000000E+00  0.10539316855E+03  0.10539316855E+03  0.00000000000E+00 0. -1.
         21   -1    0    0  502  503 -0.00000000000E+00 -0.00000000000E+00 -0.41473926163E+03  0.41473926163E+03  0.00000000000E+00 0.  1.
         24    1    1    2    0    0  0.94737369408E+02 -0.39990203488E+02 -0.12629960073E+02  0.13115303040E+03  0.80419002446E+02 0. -1.
          1    1    1    2  501    0 -0.88680632213E+02 -0.86972551836E+02 -0.13878593749E+03  0.18625255904E+03  0.00000000000E+00 0. -1.
         -2    1    1    2    0  503 -0.60567371953E+01  0.12696275532E+03 -0.15793019551E+03  0.20272684075E+03  0.00000000000E+00 0.  1.
<mgrwt>
<rscale>  2 0.19093103E+03</rscale>
<asrwt>0</asrwt>
<pdfrwt beam="1">  1       21 0.16214334E-01 0.19093103E+03</pdfrwt>
<pdfrwt beam="2">  1       21 0.63806040E-01 0.19093103E+03</pdfrwt>
<totfact> 0.77272206E+04</totfact>
</mgrwt>
</event>
<event>
 5    1  0.1365600E-001  0.8070304E+02  0.7546771E-02  0.1327068E+00
         21   -1    0    0  501  502  0.00000000000E+00  0.00000000000E+00  0.20185432915E+03  0.20185432915E+03  0.00000000000E+00 0.  1.
         21   -1    0    0  502  503 -0.00000000000E+00 -0.00000000000E+00 -0.77202043027E+02  0.77202043027E+02  0.00000000000E+00 0. -1.
         24    1    1    2    0    0 -0.10276916210E+02 -0.14664314819E+02  0.16114369217E+03  0.18098387391E+03  0.80419002446E+02 0.  1.
          1    1    1    2  501    0  0.31534051150E+02  0.36708851119E+02  0.25412663474E+01  0.48460232842E+02  0.00000000000E+00 0. -1.
         -2    1    1    2    0  503 -0.21257134941E+02 -0.22044536300E+02 -0.39032672392E+02  0.49612265425E+02  0.00000000000E+00 0.  1.
<mgrwt>
<rscale>  2 0.80703036E+02</rscale>
<asrwt>0</asrwt>
<pdfrwt beam="1">  1       21 0.31054512E-01 0.80703036E+02</pdfrwt>
<pdfrwt beam="2">  1       21 0.11877237E-01 0.80703036E+02</pdfrwt>
<totfact> 0.59885525E+05</totfact>
</mgrwt>
</event>
<event>
 5    1  0.1365600E-001  0.2749841E+03  0.7546771E-02  0.1098460E+00
         21   -1    0    0  501  502  0.00000000000E+00  0.00000000000E+00  0.47290061867E+03  0.47290061867E+03  0.00000000000E+00 0. -1.
         21   -1    0    0  502  503 -0.00000000000E+00 -0.00000000000E+00 -0.20443891151E+03  0.20443891151E+03  0.00000000000E+00 0. -1.
         24    1    1    2    0    0  0.41962520656E+01  0.21386819880E+03  0.20430088138E+03  0.30653430652E+03  0.80419002446E+02 0. -1.
          1    1    1    2  501    0 -0.67325840597E+02 -0.24282649319E+03  0.12242140651E+03  0.28015080828E+03  0.00000000000E+00 0. -1.
         -2    1    1    2    0  503  0.63129588532E+02  0.28958294387E+02 -0.58260580729E+02  0.90654415386E+02  0.00000000000E+00 0.  1.
<mgrwt>
<rscale>  2 0.27498410E+03</rscale>
<asrwt>0</asrwt>
<pdfrwt beam="1">  1       21 0.72753941E-01 0.27498410E+03</pdfrwt>
<pdfrwt beam="2">  1       21 0.31452140E-01 0.27498410E+03</pdfrwt>
<totfact> 0.15802462E+04</totfact>
</mgrwt>
</event>
<event>
 5    1  0.1365600E-001  0.1202970E+03  0.7546771E-02  0.1242608E+00
         21   -1    0    0  503  502  0.00000000000E+00  0.00000000000E+00  0.13347464499E+03  0.13347464499E+03  0.00000000000E+00 0.  1.
         21   -1    0    0  501  503 -0.00000000000E+00 -0.00000000000E+00 -0.11603813447E+03  0.11603813447E+03  0.00000000000E+00 0.  1.
         24    1    1    2    0    0 -0.57106637161E+02 -0.27861515421E+02  0.39137153881E+02  0.10971036787E+03  0.80419002446E+02 0.  1.
          1    1    1    2  501    0 -0.38429712360E+02  0.16750007761E+02 -0.71940698330E+01  0.42534223783E+02  0.00000000000E+00 0. -1.
         -2    1    1    2    0  502  0.95536349521E+02  0.11111507661E+02 -0.14506573529E+02  0.97268187800E+02  0.00000000000E+00 0.  1.
<mgrwt>
<rscale>  2 0.12029698E+03</rscale>
<asrwt>0</asrwt>
<pdfrwt beam="1">  1       21 0.20534561E-01 0.12029698E+03</pdfrwt>
<pdfrwt beam="2">  1       21 0.17852021E-01 0.12029698E+03</pdfrwt>
<totfact> 0.62995907E+05</totfact>
</mgrwt>
</event>
<event>
 5    1  0.1365600E-001  0.8189962E+02  0.7546771E-02  0.1323745E+00
         21   -1    0    0  503  502  0.00000000000E+00  0.00000000000E+00  0.33307220134E+03  0.33307220134E+03  0.00000000000E+00 0. -1.
         21   -1    0    0  501  503 -0.00000000000E+00 -0.00000000000E+00 -0.75937314479E+02  0.75937314479E+02  0.00000000000E+00 0.  1.
         24    1    1    2    0    0  0.17259545541E+02 -0.11695407497E+02  0.29126592851E+03  0.30288237244E+03  0.80419002446E+02 0. -1.
          1    1    1    2  501    0  0.19714484699E+02  0.32710901439E+02 -0.48048643322E+02  0.61378629058E+02  0.00000000000E+00 0. -1.
         -2    1    1    2    0  502 -0.36974030241E+02 -0.21015493942E+02  0.13917601676E+02  0.44748514325E+02  0.00000000000E+00 0.  1.
<mgrwt>
<rscale>  2 0.81899621E+02</rscale>
<asrwt>0</asrwt>
<pdfrwt beam="1">  1       21 0.51241876E-01 0.81899621E+02</pdfrwt>
<pdfrwt beam="2">  1       21 0.11682664E-01 0.81899621E+02</pdfrwt>
<totfact> 0.22938572E+05</totfact>
</mgrwt>
</event>
<event>
 5    1  0.1365600E-001  0.1118283E+03  0.7546771E-02  0.1257221E+00
         21   -1    0    0  503  502  0.00000000000E+00  0.00000000000E+00  0.54051811278E+03  0.54051811278E+03  0.00000000000E+00 0. -1.
         21   -1    0    0  501  503 -0.00000000000E+00 -0.00000000000E+00 -0.36971008840E+03  0.36971008840E+03  0.00000000000E+00 0. -1.
         24    1    1    2    0    0  0.58477412638E+02 -0.28507386597E+02  0.48717339071E+03  0.49803354049E+03  0.80419002446E+02 0. -1.
          1    1    1    2  501    0 -0.82494292201E+02  0.42106056997E+02 -0.35377943355E+03  0.36570222297E+03  0.00000000000E+00 0. -1.
         -2    1    1    2    0  502  0.24016879563E+02 -0.13598670400E+02  0.37414067213E+02  0.46492437729E+02  0.00000000000E+00 0.  1.
<mgrwt>
<rscale>  2 0.11182831E+03</rscale>
<asrwt>0</asrwt>
<pdfrwt beam="1">  1       21 0.83156633E-01 0.11182831E+03</pdfrwt>
<pdfrwt beam="2">  1       21 0.56878475E-01 0.11182831E+03</pdfrwt>
<totfact> 0.39636950E+03</totfact>
</mgrwt>
</event>
<event>
 5    1  0.1365600E-001  0.9347891E+02  0.7546771E-02  0.1294639E+00
         21   -1    0    0  501  502  0.00000000000E+00  0.00000000000E+00  0.11198037736E+04  0.11198037736E+04  0.00000000000E+00 0. -1.
         21   -1    0    0  502  503 -0.00000000000E+00 -0.00000000000E+00 -0.27565050521E+02  0.27565050521E+02  0.00000000000E+00 0.  1.
         24    1    1    2    0    0  0.43530290650E+02 -0.42238364061E+02  0.98844453849E+03  0.99356368051E+03  0.80419002446E+02 0. -1.
          1    1    1    2  501    0 -0.19538972794E+02  0.55484548077E+02  0.11086329843E+03  0.12550289826E+03  0.00000000000E+00 0. -1.
         -2    1    1    2    0  503 -0.23991317856E+02 -0.13246184016E+02 -0.70691138111E+01  0.28302245380E+02  0.00000000000E+00 0.  1.
<mgrwt>
<rscale>  2 0.93478911E+02</rscale>
<asrwt>0</asrwt>
<pdfrwt beam="1">  1       21 0.17227747E+00 0.93478911E+02</pdfrwt>
<pdfrwt beam="2">  1       21 0.42407779E-02 0.93478911E+02</pdfrwt>
<totfact> 0.77918520E+04</totfact>
</mgrwt>
</event>
<event>
 5    1  0.1365600E-001  0.7818966E+02  0.7546771E-02  0.1334269E+00
         21   -1    0    0  503  502  0.00000000000E+00  0.00000000000E+00  0.37786149809E+03  0.37786149809E+03  0.00000000000E+00 0.  1.
         21   -1    0    0  501  503 -0.00000000000E+00 -0.00000000000E+00 -0.20079306748E+02  0.20079306748E+02  0.00000000000E+00 0.  1.
         24    1    1    2    0    0 -0.12766652060E+01  0.31596567575E+02  0.27369866611E+03  0.28701593813E+03  0.80419002446E+02 0.  1.
          1    1    1    2  501    0 -0.30574184423E+02 -0.15624980556E+02  0.27201561614E+02  0.43804631316E+02  0.00000000000E+00 0. -1.
         -2    1    1    2    0  502  0.31850849629E+02 -0.15971587019E+02  0.56881963623E+02  0.67120235396E+02  0.00000000000E+00 0.  1.
<mgrwt>
<rscale>  2 0.78189657E+02</rscale>
<asrwt>0</asrwt>
<pdfrwt beam="1">  1       21 0.58132533E-01 0.78189657E+02</pdfrwt>
<pdfrwt beam="2">  1       21 0.30891244E-02 0.78189657E+02</pdfrwt>
<totfact> 0.16472563E+06</totfact>
</mgrwt>
</event>
<event>
 5    1  0.1365600E-001  0.2104143E+03  0.7546771E-02  0.1141238E+00
         21   -1    0    0  501  502  0.00000000000E+00  0.00000000000E+00  0.45724158692E+03  0.45724158692E+03  0.00000000000E+00 0. -1.
         21   -1    0    0  502  503 -0.00000000000E+00 -0.00000000000E+00 -0.22037706418E+03  0.22037706418E+03  0.00000000000E+00 0.  1.
         24    1    1    2    0    0  0.87310393854E+02 -0.12954065551E+03  0.34488853676E+03  0.38706485897E+03  0.80419002446E+02 0. -1.
          1    1    1    2  501    0  0.59001073122E+02  0.19805424178E+02  0.22157420745E+02  0.66063096737E+02  0.00000000000E+00 0. -1.
         -2    1    1    2    0  503 -0.14631146698E+03  0.10973523133E+03 -0.13018143476E+03  0.22449069540E+03  0.00000000000E+00 0.  1.
<mgrwt>
<rscale>  2 0.21041428E+03</rscale>
<asrwt>0</asrwt>
<pdfrwt beam="1">  1       21 0.70344859E-01 0.21041428E+03</pdfrwt>
<pdfrwt beam="2">  1       21 0.33904164E-01 0.21041428E+03</pdfrwt>
<totfact> 0.15190999E+04</totfact>
</mgrwt>
</event>
<event>
 5    1  0.1365600E-001  0.6220520E+02  0.7546771E-02  0.1388804E+00
         21   -1    0    0  503  502  0.00000000000E+00  0.00000000000E+00  0.23341622842E+03  0.23341622842E+03  0.00000000000E+00 0.  1.
         21   -1    0    0  501  503 -0.00000000000E+00 -0.00000000000E+00 -0.37812414911E+02  0.37812414911E+02  0.00000000000E+00 0. -1.
         24    1    1    2    0    0 -0.33990943672E+01 -0.38674022123E+01  0.21012582182E+03  0.22504796731E+03  0.80419002446E+02 0.  1.
          1    1    1    2  501    0 -0.14328428481E+02  0.16653594707E+02 -0.78016800381E+01  0.23313350056E+02  0.00000000000E+00 0. -1.
         -2    1    1    2    0  502  0.17727522848E+02 -0.12786192495E+02 -0.67203282664E+01  0.22867325967E+02  0.00000000000E+00 0.  1.
<mgrwt>
<rscale>  2 0.62205202E+02</rscale>
<asrwt>0</asrwt>
<pdfrwt beam="1">  1       21 0.35910188E-01 0.62205202E+02</pdfrwt>
<pdfrwt beam="2">  1       21 0.58172948E-02 0.62205202E+02</pdfrwt>
<totfact> 0.15163336E+06</totfact>
</mgrwt>
</event>
<event>
 5    1  0.1365600E-001  0.1378549E+03  0.7546771E-02  0.1216245E+00
         21   -1    0    0  503  502  0.00000000000E+00  0.00000000000E+00  0.18666148124E+03  0.18666148124E+03  0.00000000000E+00 0. -1.
         21   -1    0    0  501  503 -0.00000000000E+00 -0.00000000000E+00 -0.12719271453E+03  0.12719271453E+03  0.00000000000E+00 0. -1.
         24    1    1    2    0    0 -0.13958489665E+02  0.64151832052E+02  0.83150532210E+02  0.13300948820E+03  0.80419002446E+02 0. -1.
          1    1    1    2  501    0  0.21650821441E+01 -0.11736785047E+03 -0.39887481060E+02  0.12397947835E+03  0.00000000000E+00 0. -1.
         -2    1    1    2    0  502  0.11793407521E+02  0.53216018421E+02  0.16205715565E+02  0.56865229223E+02  0.00000000000E+00 0.  1.
<mgrwt>
<rscale>  2 0.13785488E+03</rscale>
<asrwt>0</asrwt>
<pdfrwt beam="1">  1       21 0.28717151E-01 0.13785488E+03</pdfrwt>
<pdfrwt beam="2">  1       21 0.19568110E-01 0.13785488E+03</pdfrwt>
<totfact> 0.28232448E+05</totfact>
</mgrwt>
</event>
<event>
 5    1  0.1365600E-001  0.2104247E+03  0.7546771E-02  0.1141230E+00
         21   -1    0    0  503  502  0.00000000000E+00  0.00000000000E+00  0.24089178531E+03  0.24089178531E+03  0.00000000000E+00 0. -1.
         21   -1    0    0  501  503 -0.00000000000E+00 -0.00000000000E+00 -0.19360231511E+03  0.19360231511E+03  0.00000000000E+00 0.  1.
         24    1    1    2    0    0  0.44497217032E+02 -0.37647340125E+02 -0.29009052685E+02  0.10347011952E+03  0.80419002446E+02 0.  0.
          1    1    1    2  501    0 -0.19801032241E+02  0.17796072009E+03  0.32595982321E+02  0.18200163965E+03  0.00000000000E+00 0. -1.
         -2    1    1    2    0  502 -0.24696184791E+02 -0.14031337996E+03  0.43702540566E+02  0.14902234125E+03  0.00000000000E+00 0.  1.
<mgrwt>
<rscale>  2 0.21042474E+03</rscale>
<asrwt>0</asrwt>
<pdfrwt beam="1">  1       21 0.37060275E-01 0.21042474E+03</pdfrwt>
<pdfrwt beam="2">  1       21 0.29784972E-01 0.21042474E+03</pdfrwt>
<totfact> 0.75302196E+04</totfact>
</mgrwt>
</event>
<event>
 5    1  0.1365600E-001  0.1016858E+03  0.7546771E-02  0.1276790E+00
         21   -1    0    0  501  502  0.00000000000E+00  0.00000000000E+00  0.19285897957E+02  0.19285897957E+02  0.00000000000E+00 0. -1.
         21   -1    0    0  502  503 -0.00000000000E+00 -0.00000000000E+00 -0.70875584205E+03  0.70875584205E+03  0.00000000000E+00 0.  1.
         24    1    1    2    0    0 -0.17267509279E+02 -0.17828273793E+02 -0.12756858260E+03  0.15282988400E+03  0.80419002446E+02 0.  0.
          1    1    1    2  501    0 -0.43271838048E+02  0.35688882009E+02 -0.19442883265E+03  0.20235789886E+03  0.00000000000E+00 0. -1.
         -2    1    1    2    0  503  0.60539347327E+02 -0.17860608216E+02 -0.36747252884E+03  0.37285395714E+03  0.00000000000E+00 0.  1.
<mgrwt>
<rscale>  2 0.10168576E+03</rscale>
<asrwt>0</asrwt>
<pdfrwt beam="1">  1       21 0.29670618E-02 0.10168576E+03</pdfrwt>
<pdfrwt beam="2">  1       21 0.10903934E+00 0.10168576E+03</pdfrwt>
<totfact> 0.43818489E+05</totfact>
</mgrwt>
</event>
<event>
 5    1  0.1365600E-001  0.9978297E+02  0.7546771E-02  0.1280753E+00
         21   -1    0    0  501  502  0.00000000000E+00  0.00000000000E+00  0.52182985553E+03  0.52182985553E+03  0.00000000000E+00 0. -1.
         21   -1    0    0  502  503 -0.00000000000E+00 -0.00000000000E+00 -0.21935439651E+02  0.21935439651E+02  0.00000000000E+00 0.  1.
         24    1    1    2    0    0 -0.94338647475E+01 -0.28929365965E+02  0.20665548967E+03  0.22382942921E+03  0.80419002446E+02 0. -1.
          1    1    1    2  501    0 -0.47863448335E+02  0.29608763236E+02  0.21921776278E+03  0.22632723227E+03  0.00000000000E+00 0. -1.
         -2    1    1    2    0  503  0.57297313083E+02 -0.67939727099E+00  0.74021163429E+02  0.93608633697E+02  0.00000000000E+00 0.  1.
<mgrwt>
<rscale>  2 0.99782970E+02</rscale>
<asrwt>0</asrwt>
<pdfrwt beam="1">  1       21 0.80281507E-01 0.99782970E+02</pdfrwt>
<pdfrwt beam="2">  1       21 0.33746834E-02 0.99782970E+02</pdfrwt>
<totfact> 0.71589884E+05</totfact>
</mgrwt>
</event>
<event>
 5    1  0.2552676E-001  0.2366346E+03  0.7546771E-02  0.1122055E+00
         21   -1    0    0  503  502  0.00000000000E+00  0.00000000000E+00  0.20785773458E+03  0.20785773458E+03  0.00000000000E+00 0.  1.
         21   -1    0    0  501  503 -0.00000000000E+00 -0.00000000000E+00 -0.61773593191E+03  0.61773593191E+03  0.00000000000E+00 0. -1.
         24    1    1    2    0    0 -0.30880276195E+02 -0.37024562822E+01 -0.26172138556E+02  0.90108248409E+02  0.80419002446E+02 0.  1.
          1    1    1    2  501    0  0.12211884492E+03 -0.15901370634E+03 -0.48385679729E+03  0.52375163138E+03  0.00000000000E+00 0. -1.
         -2    1    1    2    0  502 -0.91238568727E+02  0.16271616263E+03  0.10015073852E+03  0.21173378670E+03  0.00000000000E+00 0.  1.
<mgrwt>
<rscale>  2 0.23663464E+03</rscale>
<asrwt>0</asrwt>
<pdfrwt beam="1">  1       21 0.31978113E-01 0.23663464E+03</pdfrwt>
<pdfrwt beam="2">  1       21 0.95036298E-01 0.23663464E+03</pdfrwt>
<totfact> 0.84501547E+03</totfact>
</mgrwt>
</event>
<event>
 5    1  0.1365600E-001  0.9265561E+02  0.7546771E-02  0.1296545E+00
         21   -1    0    0  501  502  0.00000000000E+00  0.00000000000E+00  0.16904160505E+02  0.16904160505E+02  0.00000000000E+00 0.  1.
         21   -1    0    0  502  503 -0.00000000000E+00 -0.00000000000E+00 -0.14179826672E+04  0.14179826672E+04  0.00000000000E+00 0.  1.
         24    1    1    2    0    0  0.41059746376E+02 -0.61921808845E+02 -0.20303639607E+03  0.23067554545E+03  0.80419002446E+02 0.  1.
          1    1    1    2  501    0 -0.35126697424E+02  0.40572680995E+02 -0.24058515361E+03  0.24649795831E+03  0.00000000000E+00 0. -1.
         -2    1    1    2    0  503 -0.59330489520E+01  0.21349127850E+02 -0.95745695703E+03  0.95771332396E+03  0.00000000000E+00 0.  1.
<mgrwt>
<rscale>  2 0.92655608E+02</rscale>
<asrwt>0</asrwt>
<pdfrwt beam="1">  1       21 0.26006402E-02 0.92655608E+02</pdfrwt>
<pdfrwt beam="2">  1       21 0.21815117E+00 0.92655608E+02</pdfrwt>
<totfact> 0.89328934E+04</totfact>
</mgrwt>
</event>
<event>
 5    1  0.2172555E-001  0.2559559E+03  0.7546771E-02  0.1109598E+00
         21   -1    0    0  501  502  0.00000000000E+00  0.00000000000E+00  0.14252886523E+03  0.14252886523E+03  0.00000000000E+00 0. -1.
         21   -1    0    0  502  503 -0.00000000000E+00 -0.00000000000E+00 -0.59399740970E+03  0.59399740970E+03  0.00000000000E+00 0.  1.
         24    1    1    2    0    0 -0.47117271479E+02  0.42861027232E+02 -0.43005061714E+02  0.11123738677E+03  0.80419002446E+02 0. -1.
          1    1    1    2  501    0  0.14421301343E+03  0.14081716824E+03 -0.44828119814E+02  0.20648590373E+03  0.00000000000E+00 0. -1.
         -2    1    1    2    0  503 -0.97095741952E+02 -0.18367819547E+03 -0.36363536294E+03  0.41880298444E+03  0.00000000000E+00 0.  1.
<mgrwt>
<rscale>  2 0.25595585E+03</rscale>
<asrwt>0</asrwt>
<pdfrwt beam="1">  1       21 0.21927518E-01 0.25595585E+03</pdfrwt>
<pdfrwt beam="2">  1       21 0.91384217E-01 0.25595585E+03</pdfrwt>
<totfact> 0.19014708E+04</totfact>
</mgrwt>
</event>
<event>
 5    1  0.1365600E-001  0.1467406E+03  0.7546771E-02  0.1204536E+00
         21   -1    0    0  503  502  0.00000000000E+00  0.00000000000E+00  0.45541496496E+03  0.45541496496E+03  0.00000000000E+00 0.  1.
         21   -1    0    0  501  503 -0.00000000000E+00 -0.00000000000E+00 -0.59504408834E+02  0.59504408834E+02  0.00000000000E+00 0. -1.
         24    1    1    2    0    0 -0.67101674470E+02 -0.97617784410E+01  0.23502703553E+03  0.25749339879E+03  0.80419002446E+02 0.  1.
          1    1    1    2  501    0  0.12149144410E+03  0.37617844943E+02  0.62745651867E+02  0.14181780592E+03  0.00000000000E+00 0. -1.
         -2    1    1    2    0  502 -0.54389769628E+02 -0.27856066502E+02  0.98137868732E+02  0.11560816909E+03  0.00000000000E+00 0.  1.
<mgrwt>
<rscale>  2 0.14674060E+03</rscale>
<asrwt>0</asrwt>
<pdfrwt beam="1">  1       21 0.70063839E-01 0.14674060E+03</pdfrwt>
<pdfrwt beam="2">  1       21 0.91545247E-02 0.14674060E+03</pdfrwt>
<totfact> 0.17785561E+05</totfact>
</mgrwt>
</event>
<event>
 5    1  0.1365600E-001  0.1592222E+03  0.7546771E-02  0.1189578E+00
         21   -1    0    0  501  502  0.00000000000E+00  0.00000000000E+00  0.44189501945E+03  0.44189501945E+03  0.00000000000E+00 0. -1.
         21   -1    0    0  502  503 -0.00000000000E+00 -0.00000000000E+00 -0.24784414699E+03  0.24784414699E+03  0.00000000000E+00 0.  1.
         24    1    1    2    0    0  0.19724073096E+02 -0.47648689979E+02  0.19002631102E+03  0.21268909598E+03  0.80419002446E+02 0.  0.
          1    1    1    2  501    0  0.79589325051E+02 -0.41229913267E+02  0.21192337437E+03  0.23009972407E+03  0.00000000000E+00 0. -1.
         -2    1    1    2    0  503 -0.99313398147E+02  0.88878603246E+02 -0.20789881293E+03  0.24695034640E+03  0.00000000000E+00 0.  1.
<mgrwt>
<rscale>  2 0.15922219E+03</rscale>
<asrwt>0</asrwt>
<pdfrwt beam="1">  1       21 0.67983849E-01 0.15922219E+03</pdfrwt>
<pdfrwt beam="2">  1       21 0.38129869E-01 0.15922219E+03</pdfrwt>
<totfact> 0.13411842E+04</totfact>
</mgrwt>
</event>
<event>
 5    1  0.1365600E-001  0.2165909E+03  0.7546771E-02  0.1136451E+00
         21   -1    0    0  501  502  0.00000000000E+00  0.00000000000E+00  0.97600021204E+03  0.97600021204E+03  0.00000000000E+00 0. -1.
         21   -1    0    0  502  503 -0.00000000000E+00 -0.00000000000E+00 -0.66507816678E+02  0.66507816678E+02  0.00000000000E+00 0.  1.
         24    1    1    2    0    0  0.47947367435E+02  0.17431022994E+02  0.14674528896E+03  0.17494052245E+03  0.80419002446E+02 0.  1.
          1    1    1    2  501    0  0.68032844223E+02 -0.14825091526E+03  0.62226790391E+03  0.64329164925E+03  0.00000000000E+00 0. -1.
         -2    1    1    2    0  503 -0.11598021166E+03  0.13081989227E+03  0.14047920250E+03  0.22427585702E+03  0.00000000000E+00 0.  1.
<mgrwt>
<rscale>  2 0.21659086E+03</rscale>
<asrwt>0</asrwt>
<pdfrwt beam="1">  1       21 0.15015387E+00 0.21659086E+03</pdfrwt>
<pdfrwt beam="2">  1       21 0.10231972E-01 0.21659086E+03</pdfrwt>
<totfact> 0.22873374E+04</totfact>
</mgrwt>
</event>
<event>
 5    1  0.1365600E-001  0.8403029E+02  0.7546771E-02  0.1317988E+00
         21   -1    0    0  501  502  0.00000000000E+00  0.00000000000E+00  0.91308127296E+02  0.91308127296E+02  0.00000000000E+00 0. -1.
         21   -1    0    0  502  503 -0.00000000000E+00 -0.00000000000E+00 -0.18720143518E+03  0.18720143518E+03  0.00000000000E+00 0.  1.
         24    1    1    2    0    0  0.14936110706E+02  0.59232282032E+02  0.44041362109E+02  0.11017444426E+03  0.80419002446E+02 0. -1.
          1    1    1    2  501    0 -0.22627358845E+02 -0.35261231592E+02 -0.21189104355E+02  0.46950292492E+02  0.00000000000E+00 0. -1.
         -2    1    1    2    0  503  0.76912481396E+01 -0.23971050440E+02 -0.11874556564E+03  0.12138482573E+03  0.00000000000E+00 0.  1.
<mgrwt>
<rscale>  2 0.84030291E+02</rscale>
<asrwt>0</asrwt>
<pdfrwt beam="1">  1       21 0.14047404E-01 0.84030291E+02</pdfrwt>
<pdfrwt beam="2">  1       21 0.28800221E-01 0.84030291E+02</pdfrwt>
<totfact> 0.51458105E+05</totfact>
</mgrwt>
</event>
<event>
 5    1  0.1365600E-001  0.9029958E+02  0.7546771E-02  0.1302128E+00
         21   -1    0    0  503  502  0.00000000000E+00  0.00000000000E+00  0.15333049548E+03  0.15333049548E+03  0.00000000000E+00 0. -1.
         21   -1    0    0  501  503 -0.00000000000E+00 -0.00000000000E+00 -0.78458852062E+02  0.78458852062E+02  0.00000000000E+00 0.  1.
         24    1    1    2    0    0 -0.35306490496E+02 -0.15638641509E+02  0.10290372797E+03  0.13618923806E+03  0.80419002446E+02 0. -1.
          1    1    1    2  501    0 -0.18701860040E+02 -0.19450945902E+02 -0.88638386193E+01  0.28401874947E+02  0.00000000000E+00 0. -1.
         -2    1    1    2    0  502  0.54008350536E+02  0.35089587412E+02 -0.19168245932E+02  0.67198234534E+02  0.00000000000E+00 0.  1.
<mgrwt>
<rscale>  2 0.90299581E+02</rscale>
<asrwt>0</asrwt>
<pdfrwt beam="1">  1       21 0.23589307E-01 0.90299581E+02</pdfrwt>
<pdfrwt beam="2">  1       21 0.12070593E-01 0.90299581E+02</pdfrwt>
<totfact> 0.97899080E+05</totfact>
</mgrwt>
</event>
<event>
 5    1  0.1365600E-001  0.7857715E+02  0.7546771E-02  0.1333138E+00
         21   -1    0    0  501  502  0.00000000000E+00  0.00000000000E+00  0.25928915179E+03  0.25928915179E+03  0.00000000000E+00 0.  1.
         21   -1    0    0  502  503 -0.00000000000E+00 -0.00000000000E+00 -0.12660356621E+03  0.12660356621E+03  0.00000000000E+00 0.  1.
         24    1    1    2    0    0 -0.14921200015E+02  0.35794678387E+02  0.21723699415E+03  0.23486810936E+03  0.80419002446E+02 0.  1.
          1    1    1    2  501    0  0.36241759249E+02 -0.20543202997E+02  0.17849152960E+02  0.45321965582E+02  0.00000000000E+00 0. -1.
         -2    1    1    2    0  503 -0.21320559234E+02 -0.15251475390E+02 -0.10240056153E+03  0.10570264305E+03  0.00000000000E+00 0.  1.
<mgrwt>
<rscale>  2 0.78577152E+02</rscale>
<asrwt>0</asrwt>
<pdfrwt beam="1">  1       21 0.39890639E-01 0.78577152E+02</pdfrwt>
<pdfrwt beam="2">  1       21 0.19477472E-01 0.78577152E+02</pdfrwt>
<totfact> 0.15271849E+05</totfact>
</mgrwt>
</event>
<event>
 5    1  0.1365600E-001  0.8937238E+02  0.7546771E-02  0.1304379E+00
         21   -1    0    0  501  502  0.00000000000E+00  0.00000000000E+00  0.80184650150E+02  0.80184650150E+02  0.00000000000E+00 0.  1.
         21   -1    0    0  502  503 -0.00000000000E+00 -0.00000000000E+00 -0.11058014146E+03  0.11058014146E+03  0.00000000000E+00 0. -1.
         24    1    1    2    0    0  0.73052208357E+01  0.16213918716E+02  0.14212061796E+02  0.83579040832E+02  0.80419002446E+02 0.  1.
          1    1    1    2  501    0  0.33896395681E+02  0.21818301872E+02 -0.26587313935E+02  0.48289638630E+02  0.00000000000E+00 0. -1.
         -2    1    1    2    0  503 -0.41201616517E+02 -0.38032220588E+02 -0.18020239174E+02  0.58896112149E+02  0.00000000000E+00 0.  1.
<mgrwt>
<rscale>  2 0.89372385E+02</rscale>
<asrwt>0</asrwt>
<pdfrwt beam="1">  1       21 0.12336100E-01 0.89372385E+02</pdfrwt>
<pdfrwt beam="2">  1       21 0.17012329E-01 0.89372385E+02</pdfrwt>
<totfact> 0.17138149E+06</totfact>
</mgrwt>
</event>
<event>
 5    1  0.2339850E-001  0.1585745E+03  0.7546771E-02  0.1190316E+00
         21   -1    0    0  503  502  0.00000000000E+00  0.00000000000E+00  0.84880715969E+03  0.84880715969E+03  0.00000000000E+00 0.  1.
         21   -1    0    0  501  503 -0.00000000000E+00 -0.00000000000E+00 -0.29783562003E+02  0.29783562003E+02  0.00000000000E+00 0. -1.
         24    1    1    2    0    0  0.51491882940E+02  0.92772145772E+01  0.26823215284E+03  0.28487398002E+03  0.80419002446E+02 0.  0.
          1    1    1    2  501    0 -0.13618328453E+03 -0.19092560243E+01  0.32065093392E+03  0.34837702804E+03  0.00000000000E+00 0. -1.
         -2    1    1    2    0  502  0.84691401589E+02 -0.73679585529E+01  0.23014051093E+03  0.24533971364E+03  0.00000000000E+00 0.  1.
<mgrwt>
<rscale>  2 0.15857454E+03</rscale>
<asrwt>0</asrwt>
<pdfrwt beam="1">  1       21 0.13058570E+00 0.15857454E+03</pdfrwt>
<pdfrwt beam="2">  1       21 0.45820871E-02 0.15857454E+03</pdfrwt>
<totfact> 0.13519889E+05</totfact>
</mgrwt>
</event>
<event>
 5    1  0.1465760E-001  0.1202953E+03  0.7546771E-02  0.1242611E+00
         21   -1    0    0  503  502  0.00000000000E+00  0.00000000000E+00  0.46914306524E+02  0.46914306524E+02  0.00000000000E+00 0.  1.
         21   -1    0    0  501  503 -0.00000000000E+00 -0.00000000000E+00 -0.31172580798E+03  0.31172580798E+03  0.00000000000E+00 0. -1.
         24    1    1    2    0    0 -0.16074525553E+01  0.47309981275E+02 -0.11340530357E+03  0.14686319166E+03  0.80419002446E+02 0. -1.
          1    1    1    2  501    0  0.31149659133E+02 -0.90068149696E+02 -0.10824355544E+03  0.14421941668E+03  0.00000000000E+00 0. -1.
         -2    1    1    2    0  502 -0.29542206578E+02  0.42758168420E+02 -0.43162642444E+02  0.67557506162E+02  0.00000000000E+00 0.  1.
<mgrwt>
<rscale>  2 0.12029528E+03</rscale>
<asrwt>0</asrwt>
<pdfrwt beam="1">  1       21 0.72175854E-02 0.12029528E+03</pdfrwt>
<pdfrwt beam="2">  1       21 0.47957818E-01 0.12029528E+03</pdfrwt>
<totfact> 0.60055566E+05</totfact>
</mgrwt>
</event>
<event>
 5    1  0.1365600E-001  0.7542759E+02  0.7546771E-02  0.1342552E+00
         21   -1    0    0  503  502  0.00000000000E+00  0.00000000000E+00  0.21158764195E+03  0.21158764195E+03  0.00000000000E+00 0. -1.
         21   -1    0    0  501  503 -0.00000000000E+00 -0.00000000000E+00 -0.78933787552E+02  0.78933787552E+02  0.00000000000E+00 0.  1.
         24    1    1    2    0    0 -0.28339162279E+02  0.23242671865E+02  0.18487537149E+03  0.20491327154E+03  0.80419002446E+02 0. -1.
          1    1    1    2  501    0  0.13385185752E+02  0.15777489900E+02 -0.34477707820E+02  0.40209510338E+02  0.00000000000E+00 0. -1.
         -2    1    1    2    0  502  0.14953976528E+02 -0.39020161766E+02 -0.17743809277E+02  0.45398647622E+02  0.00000000000E+00 0.  1.
<mgrwt>
<rscale>  2 0.75427589E+02</rscale>
<asrwt>0</asrwt>
<pdfrwt beam="1">  1       21 0.32551945E-01 0.75427589E+02</pdfrwt>
<pdfrwt beam="2">  1       21 0.12143660E-01 0.75427589E+02</pdfrwt>
<totfact> 0.52624712E+05</totfact>
</mgrwt>
</event>
<event>
 5    1  0.1365600E-001  0.9141634E+02  0.7546771E-02  0.1299458E+00
         21   -1    0    0  503  502  0.00000000000E+00  0.00000000000E+00  0.16829865618E+04  0.16829865618E+04  0.00000000000E+00 0.  1.
         21   -1    0    0  501  503 -0.00000000000E+00 -0.00000000000E+00 -0.70169435208E+01  0.70169435208E+01  0.00000000000E+00 0.  1.
         24    1    1    2    0    0  0.28007194042E+02 -0.49442603036E+02  0.13391950509E+04  0.13428103270E+04  0.80419002446E+02 0.  1.
          1    1    1    2  501    0  0.34627521958E+01  0.52619717034E+02  0.20454989386E+03  0.21123798038E+03  0.00000000000E+00 0. -1.
         -2    1    1    2    0  502 -0.31469946237E+02 -0.31771139981E+01  0.13222467349E+03  0.13595519795E+03  0.00000000000E+00 0.  1.
<mgrwt>
<rscale>  2 0.91416340E+02</rscale>
<asrwt>0</asrwt>
<pdfrwt beam="1">  1       21 0.25892069E+00 0.91416340E+02</pdfrwt>
<pdfrwt beam="2">  1       21 0.10795311E-02 0.91416340E+02</pdfrwt>
<totfact> 0.21203129E+05</totfact>
</mgrwt>
</event>
<event>
 5    1  0.1365600E-001  0.1279248E+03  0.7546771E-02  0.1230568E+00
         21   -1    0    0  501  502  0.00000000000E+00  0.00000000000E+00  0.30006463733E+02  0.30006463733E+02  0.00000000000E+00 0. -1.
         21   -1    0    0  502  503 -0.00000000000E+00 -0.00000000000E+00 -0.18868105822E+04  0.18868105822E+04  0.00000000000E+00 0.  1.
         24    1    1    2    0    0 -0.28983919110E+02 -0.77580527186E+02 -0.18463913677E+03  0.21775590129E+03  0.80419002446E+02 0. -1.
          1    1    1    2  501    0  0.59575470360E+02  0.89553924539E+02 -0.20478714697E+03  0.23131562341E+03  0.00000000000E+00 0. -1.
         -2    1    1    2    0  503 -0.30591551250E+02 -0.11973397353E+02 -0.14673778347E+04  0.14677455212E+04  0.00000000000E+00 0.  1.
<mgrwt>
<rscale>  2 0.12792480E+03</rscale>
<asrwt>0</asrwt>
<pdfrwt beam="1">  1       21 0.46163786E-02 0.12792480E+03</pdfrwt>
<pdfrwt beam="2">  1       21 0.29027858E+00 0.12792480E+03</pdfrwt>
<totfact> 0.12918523E+04</totfact>
</mgrwt>
</event>
<event>
 5    1  0.1365600E-001  0.9639805E+02  0.7546771E-02  0.1288058E+00
         21   -1    0    0  501  502  0.00000000000E+00  0.00000000000E+00  0.52251756841E+02  0.52251756841E+02  0.00000000000E+00 0. -1.
         21   -1    0    0  502  503 -0.00000000000E+00 -0.00000000000E+00 -0.36259627030E+03  0.36259627030E+03  0.00000000000E+00 0.  1.
         24    1    1    2    0    0 -0.37371710783E+01 -0.89942625763E+00 -0.43361834902E+01  0.80627500624E+02  0.80419002446E+02 0. -1.
          1    1    1    2  501    0 -0.89374782803E+01 -0.54615451256E+02 -0.59657187347E+02  0.81373865805E+02  0.00000000000E+00 0. -1.
         -2    1    1    2    0  503  0.12674649359E+02  0.55514877513E+02 -0.24635114262E+03  0.25284666071E+03  0.00000000000E+00 0.  1.
<mgrwt>
<rscale>  2 0.96398048E+02</rscale>
<asrwt>0</asrwt>
<pdfrwt beam="1">  1       21 0.80387319E-02 0.96398048E+02</pdfrwt>
<pdfrwt beam="2">  1       21 0.55784041E-01 0.96398048E+02</pdfrwt>
<totfact> 0.36638056E+05</totfact>
</mgrwt>
</event>
<event>
 5    1  0.1365600E-001  0.1289297E+03  0.7546771E-02  0.1229053E+00
         21   -1    0    0  503  502  0.00000000000E+00  0.00000000000E+00  0.12590236425E+04  0.12590236425E+04  0.00000000000E+00 0.  1.
         21   -1    0    0  501  503 -0.00000000000E+00 -0.00000000000E+00 -0.14355743392E+02  0.14355743392E+02  0.00000000000E+00 0. -1.
         24    1    1    2    0    0 -0.37581734192E+02  0.35442887291E+02  0.61886518392E+03  0.62620277612E+03  0.80419002446E+02 0.  1.
          1    1    1    2  501    0  0.97897612729E+02 -0.18531609797E+02  0.32540993263E+03  0.34032188791E+03  0.00000000000E+00 0. -1.
         -2    1    1    2    0  502 -0.60315878537E+02 -0.16911277494E+02  0.30039278261E+03  0.30685472190E+03  0.00000000000E+00 0.  1.
<mgrwt>
<rscale>  2 0.12892967E+03</rscale>
<asrwt>0</asrwt>
<pdfrwt beam="1">  1       21 0.19369586E+00 0.12892967E+03</pdfrwt>
<pdfrwt beam="2">  1       21 0.22085769E-02 0.12892967E+03</pdfrwt>
<totfact> 0.15978801E+05</totfact>
</mgrwt>
</event>
<event>
 5    1  0.1365849E-001  0.1507151E+03  0.7546771E-02  0.1199597E+00
         21   -1    0    0  503  502  0.00000000000E+00  0.00000000000E+00  0.38005274821E+03  0.38005274821E+03  0.00000000000E+00 0. -1.
         21   -1    0    0  501  503 -0.00000000000E+00 -0.00000000000E+00 -0.61611730561E+02  0.61611730561E+02  0.00000000000E+00 0.  1.
         24    1    1    2    0    0 -0.44592375394E+02 -0.59978783228E+01  0.12623229138E+03  0.15628903298E+03  0.80419002446E+02 0. -1.
          1    1    1    2  501    0  0.74918963398E+02 -0.85033781312E+02  0.86163954791E+02  0.14236510157E+03  0.00000000000E+00 0. -1.
         -2    1    1    2    0  502 -0.30326588005E+02  0.91031659635E+02  0.10604477148E+03  0.14301034422E+03  0.00000000000E+00 0.  1.
<mgrwt>
<rscale>  2 0.15071509E+03</rscale>
<asrwt>0</asrwt>
<pdfrwt beam="1">  1       21 0.58469652E-01 0.15071509E+03</pdfrwt>
<pdfrwt beam="2">  1       21 0.94787280E-02 0.15071509E+03</pdfrwt>
<totfact> 0.24693889E+05</totfact>
</mgrwt>
</event>
<event>
 5    1  0.1365600E-001  0.1516151E+03  0.7546771E-02  0.1198502E+00
         21   -1    0    0  503  502  0.00000000000E+00  0.00000000000E+00  0.23250245546E+02  0.23250245546E+02  0.00000000000E+00 0.  1.
         21   -1    0    0  501  503 -0.00000000000E+00 -0.00000000000E+00 -0.11702147342E+04  0.11702147342E+04  0.00000000000E+00 0.  1.
         24    1    1    2    0    0  0.10515035509E+03 -0.43054197702E+02 -0.30824145771E+03  0.33821631144E+03  0.80419002446E+02 0.  1.
          1    1    1    2  501    0 -0.24287144915E+02 -0.40833944150E+02 -0.32663663020E+03  0.33007387748E+03  0.00000000000E+00 0. -1.
         -2    1    1    2    0  502 -0.80863210175E+02  0.83888141851E+02 -0.51208640076E+03  0.52517479085E+03  0.00000000000E+00 0.  1.
<mgrwt>
<rscale>  2 0.15161512E+03</rscale>
<asrwt>0</asrwt>
<pdfrwt beam="1">  1       21 0.35769610E-02 0.15161512E+03</pdfrwt>
<pdfrwt beam="2">  1       21 0.18003303E+00 0.15161512E+03</pdfrwt>
<totfact> 0.87946684E+04</totfact>
</mgrwt>
</event>
<event>
 5    1  0.1365600E-001  0.2499575E+03  0.7546771E-02  0.1113332E+00
         21   -1    0    0  503  502  0.00000000000E+00  0.00000000000E+00  0.95341456280E+03  0.95341456280E+03  0.00000000000E+00 0.  1.
         21   -1    0    0  501  503 -0.00000000000E+00 -0.00000000000E+00 -0.85164414224E+02  0.85164414224E+02  0.00000000000E+00 0. -1.
         24    1    1    2    0    0 -0.50018103827E+02 -0.43851526938E+02  0.25021289767E+03  0.27110602583E+03  0.80419002446E+02 0.  1.
          1    1    1    2  501    0  0.21566077528E+03  0.72351445714E+02  0.15603263462E+03  0.27584503758E+03  0.00000000000E+00 0. -1.
         -2    1    1    2    0  502 -0.16564267145E+03 -0.28499918775E+02  0.46200461629E+03  0.49162791362E+03  0.00000000000E+00 0.  1.
<mgrwt>
<rscale>  2 0.24995750E+03</rscale>
<asrwt>0</asrwt>
<pdfrwt beam="1">  1       21 0.14667916E+00 0.24995750E+03</pdfrwt>
<pdfrwt beam="2">  1       21 0.13102218E-01 0.24995750E+03</pdfrwt>
<totfact> 0.15319520E+04</totfact>
</mgrwt>
</event>
<event>
 5    1  0.1365600E-001  0.9139570E+02  0.7546771E-02  0.1299507E+00
         21   -1    0    0  501  502  0.00000000000E+00  0.00000000000E+00  0.38402627251E+02  0.38402627251E+02  0.00000000000E+00 0. -1.
         21   -1    0    0  502  503 -0.00000000000E+00 -0.00000000000E+00 -0.41740171040E+03  0.41740171040E+03  0.00000000000E+00 0. -1.
         24    1    1    2    0    0 -0.39644058426E+02  0.45039271330E+02 -0.41958133123E+02  0.10875609509E+03  0.80419002446E+02 0. -1.
          1    1    1    2  501    0  0.15891313517E+02 -0.54588504106E+02 -0.21863666601E+03  0.22590801302E+03  0.00000000000E+00 0. -1.
         -2    1    1    2    0  503  0.23752744909E+02  0.95492327761E+01 -0.11840428402E+03  0.12114022953E+03  0.00000000000E+00 0.  1.
<mgrwt>
<rscale>  2 0.91395697E+02</rscale>
<asrwt>0</asrwt>
<pdfrwt beam="1">  1       21 0.59080970E-02 0.91395697E+02</pdfrwt>
<pdfrwt beam="2">  1       21 0.64215643E-01 0.91395697E+02</pdfrwt>
<totfact> 0.45955173E+05</totfact>
</mgrwt>
</event>
<event>
 5    1  0.1365600E-001  0.1490674E+03  0.7546771E-02  0.1201624E+00
         21   -1    0    0  501  502  0.00000000000E+00  0.00000000000E+00  0.45759094185E+02  0.45759094185E+02  0.00000000000E+00 0.  1.
         21   -1    0    0  502  503 -0.00000000000E+00 -0.00000000000E+00 -0.48972381142E+03  0.48972381142E+03  0.00000000000E+00 0. -1.
         24    1    1    2    0    0  0.78106828905E+02 -0.16027714386E+02 -0.18077205027E+03  0.21331505915E+03  0.80419002446E+02 0.  0.
          1    1    1    2  501    0 -0.10524041418E+03 -0.47759158235E+02 -0.14875603323E+03  0.18837420045E+03  0.00000000000E+00 0. -1.
         -2    1    1    2    0  503  0.27133585279E+02  0.63786872620E+02 -0.11443663373E+03  0.13379364600E+03  0.00000000000E+00 0.  1.
<mgrwt>
<rscale>  2 0.14906744E+03</rscale>
<asrwt>0</asrwt>
<pdfrwt beam="1">  1       21 0.70398606E-02 0.14906744E+03</pdfrwt>
<pdfrwt beam="2">  1       21 0.75342126E-01 0.14906744E+03</pdfrwt>
<totfact> 0.23861444E+05</totfact>
</mgrwt>
</event>
<event>
 5    1  0.1399379E-001  0.1226220E+03  0.7546771E-02  0.1238833E+00
         21   -1    0    0  501  502  0.00000000000E+00  0.00000000000E+00  0.16479584254E+03  0.16479584254E+03  0.00000000000E+00 0.  1.
         21   -1    0    0  502  503 -0.00000000000E+00 -0.00000000000E+00 -0.95442255109E+02  0.95442255109E+02  0.00000000000E+00 0. -1.
         24    1    1    2    0    0 -0.92655763905E+01  0.29608780741E+02  0.48812749451E+02  0.99057716843E+02  0.80419002446E+02 0.  0.
          1    1    1    2  501    0 -0.67825498831E+02 -0.43693394641E+02  0.18560045587E+02  0.82788201569E+02  0.00000000000E+00 0. -1.
         -2    1    1    2    0  503  0.77091075221E+02  0.14084613900E+02  0.19807923968E+01  0.78392179240E+02  0.00000000000E+00 0.  1.
<mgrwt>
<rscale>  2 0.12262203E+03</rscale>
<asrwt>0</asrwt>
<pdfrwt beam="1">  1       21 0.25353207E-01 0.12262203E+03</pdfrwt>
<pdfrwt beam="2">  1       21 0.14683424E-01 0.12262203E+03</pdfrwt>
<totfact> 0.60511311E+05</totfact>
</mgrwt>
</event>
<event>
 5    1  0.1365600E-001  0.1317826E+03  0.7546771E-02  0.1224834E+00
         21   -1    0    0  503  502  0.00000000000E+00  0.00000000000E+00  0.62691899567E+03  0.62691899567E+03  0.00000000000E+00 0.  1.
         21   -1    0    0  501  503 -0.00000000000E+00 -0.00000000000E+00 -0.25059016885E+03  0.25059016885E+03  0.00000000000E+00 0. -1.
         24    1    1    2    0    0  0.91174818232E+01 -0.58997929748E+02  0.56813278207E+03  0.57689336814E+03  0.80419002446E+02 0.  1.
          1    1    1    2  501    0 -0.63142284373E+02 -0.21292558033E+02 -0.19263856489E+03  0.20383801850E+03  0.00000000000E+00 0. -1.
         -2    1    1    2    0  502  0.54024802550E+02  0.80290487781E+02  0.83460964075E+00  0.96777777882E+02  0.00000000000E+00 0.  1.
<mgrwt>
<rscale>  2 0.13178265E+03</rscale>
<asrwt>0</asrwt>
<pdfrwt beam="1">  1       21 0.96449076E-01 0.13178265E+03</pdfrwt>
<pdfrwt beam="2">  1       21 0.38552334E-01 0.13178265E+03</pdfrwt>
<totfact> 0.61120214E+03</totfact>
</mgrwt>
</event>
<event>
 5    1  0.1365600E-001  0.1705151E+03  0.7546771E-02  0.1177312E+00
         21   -1    0    0  503  502  0.00000000000E+00  0.00000000000E+00  0.16761574722E+02  0.16761574722E+02  0.00000000000E+00 0.  1.
         21   -1    0    0  501  503 -0.00000000000E+00 -0.00000000000E+00 -0.33149122468E+04  0.33149122468E+04  0.00000000000E+00 0. -1.
         24    1    1    2    0    0  0.23587164301E+02 -0.83244071948E+01 -0.19733726332E+03  0.21455736185E+03  0.80419002446E+02 0.  1.
          1    1    1    2  501    0 -0.19853664281E+02 -0.12342361255E+03 -0.24447918874E+04  0.24479858923E+04  0.00000000000E+00 0. -1.
         -2    1    1    2    0  502 -0.37335000200E+01  0.13174801974E+03 -0.65602152132E+03  0.66913056735E+03  0.00000000000E+00 0.  1.
<mgrwt>
<rscale>  2 0.17051514E+03</rscale>
<asrwt>0</asrwt>
<pdfrwt beam="1">  1       21 0.25787036E-02 0.17051514E+03</pdfrwt>
<pdfrwt beam="2">  1       21 0.50998653E+00 0.17051514E+03</pdfrwt>
<totfact> 0.13556814E+03</totfact>
</mgrwt>
</event>
<event>
 5    1  0.1365600E-001  0.9673300E+02  0.7546771E-02  0.1287320E+00
         21   -1    0    0  503  502  0.00000000000E+00  0.00000000000E+00  0.60291329650E+02  0.60291329650E+02  0.00000000000E+00 0. -1.
         21   -1    0    0  501  503 -0.00000000000E+00 -0.00000000000E+00 -0.15772284314E+03  0.15772284314E+03  0.00000000000E+00 0.  1.
         24    1    1    2    0    0 -0.46525411354E+02  0.26909071051E+01 -0.33422024254E+02  0.98772984881E+02  0.80419002446E+02 0.  1.
          1    1    1    2  501    0  0.62350479855E+02  0.26157882238E+02 -0.40737942011E+02  0.78939198505E+02  0.00000000000E+00 0. -1.
         -2    1    1    2    0  502 -0.15825068501E+02 -0.28848789343E+02 -0.23271547224E+02  0.40301989403E+02  0.00000000000E+00 0.  1.
<mgrwt>
<rscale>  2 0.96733001E+02</rscale>
<asrwt>0</asrwt>
<pdfrwt beam="1">  1       21 0.92755891E-02 0.96733001E+02</pdfrwt>
<pdfrwt beam="2">  1       21 0.24265053E-01 0.96733001E+02</pdfrwt>
<totfact> 0.14713731E+06</totfact>
</mgrwt>
</event>
<event>
 5    1  0.1365600E-001  0.9866593E+02  0.7546771E-02  0.1283127E+00
         21   -1    0    0  503  502  0.00000000000E+00  0.00000000000E+00  0.34122361773E+03  0.34122361773E+03  0.00000000000E+00 0. -1.
         21   -1    0    0  501  503 -0.00000000000E+00 -0.00000000000E+00 -0.80302934887E+02  0.80302934887E+02  0.00000000000E+00 0.  1.
         24    1    1    2    0    0  0.37535249967E+02  0.71999851211E+02  0.29972518230E+03  0.32077293281E+03  0.80419002446E+02 0. -1.
          1    1    1    2  501    0 -0.20917959711E+01 -0.20069580192E+02 -0.31567593302E+02  0.37465672373E+02  0.00000000000E+00 0. -1.
         -2    1    1    2    0  502 -0.35443453996E+02 -0.51930271019E+02 -0.72369061582E+01  0.63287947431E+02  0.00000000000E+00 0.  1.
<mgrwt>
<rscale>  2 0.98665933E+02</rscale>
<asrwt>0</asrwt>
<pdfrwt beam="1">  1       21 0.52495940E-01 0.98665933E+02</pdfrwt>
<pdfrwt beam="2">  1       21 0.12354298E-01 0.98665933E+02</pdfrwt>
<totfact> 0.19692231E+05</totfact>
</mgrwt>
</event>
<event>
 5    1  0.1514509E-001  0.1632607E+03  0.7546771E-02  0.1185064E+00
         21   -1    0    0  501  502  0.00000000000E+00  0.00000000000E+00  0.17577556500E+03  0.17577556500E+03  0.00000000000E+00 0. -1.
         21   -1    0    0  502  503 -0.00000000000E+00 -0.00000000000E+00 -0.17953161906E+03  0.17953161906E+03  0.00000000000E+00 0.  1.
         24    1    1    2    0    0 -0.10961008205E+02 -0.26132363595E+02  0.38014125529E+02  0.93355952258E+02  0.80419002446E+02 0. -1.
          1    1    1    2  501    0  0.22926099726E+02  0.13237278762E+03  0.23940420132E+02  0.13645990131E+03  0.00000000000E+00 0. -1.
         -2    1    1    2    0  503 -0.11965091521E+02 -0.10624042402E+03 -0.65710599725E+02  0.12549133049E+03  0.00000000000E+00 0.  1.
<mgrwt>
<rscale>  2 0.16326067E+03</rscale>
<asrwt>0</asrwt>
<pdfrwt beam="1">  1       21 0.27042395E-01 0.16326067E+03</pdfrwt>
<pdfrwt beam="2">  1       21 0.27620249E-01 0.16326067E+03</pdfrwt>
<totfact> 0.16453544E+05</totfact>
</mgrwt>
</event>
<event>
 5    1  0.1365600E-001  0.9027118E+02  0.7546771E-02  0.1302196E+00
         21   -1    0    0  503  502  0.00000000000E+00  0.00000000000E+00  0.32321052138E+03  0.32321052138E+03  0.00000000000E+00 0.  1.
         21   -1    0    0  501  503 -0.00000000000E+00 -0.00000000000E+00 -0.42763365308E+02  0.42763365308E+02  0.00000000000E+00 0. -1.
         24    1    1    2    0    0  0.14132602238E+02 -0.28854534953E+01  0.22852456272E+03  0.24269064261E+03  0.80419002446E+02 0.  1.
          1    1    1    2  501    0  0.36758999088E+02  0.23829557820E+02 -0.50191076535E+01  0.44093800942E+02  0.00000000000E+00 0. -1.
         -2    1    1    2    0  502 -0.50891601327E+02 -0.20944104325E+02  0.56941701006E+02  0.79189443141E+02  0.00000000000E+00 0.  1.
<mgrwt>
<rscale>  2 0.90271183E+02</rscale>
<asrwt>0</asrwt>
<pdfrwt beam="1">  1       21 0.49724694E-01 0.90271183E+02</pdfrwt>
<pdfrwt beam="2">  1       21 0.65789795E-02 0.90271183E+02</pdfrwt>
<totfact> 0.65299057E+05</totfact>
</mgrwt>
</event>
<event>
 5    1  0.1365600E-001  0.1199228E+03  0.7546771E-02  0.1243224E+00
         21   -1    0    0  501  502  0.00000000000E+00  0.00000000000E+00  0.16583139565E+03  0.16583139565E+03  0.00000000000E+00 0.  1.
         21   -1    0    0  502  503 -0.00000000000E+00 -0.00000000000E+00 -0.17332596334E+03  0.17332596334E+03  0.00000000000E+00 0.  1.
         24    1    1    2    0    0  0.97379951757E+01  0.80031985296E+02  0.11596785802E+03  0.16252909669E+03  0.80419002446E+02 0.  1.
          1    1    1    2  501    0 -0.28615577355E+02 -0.96665440284E+02 -0.10378433009E+03  0.14468671599E+03  0.00000000000E+00 0. -1.
         -2    1    1    2    0  503  0.18877582179E+02  0.16633454988E+02 -0.19678095621E+02  0.31941546316E+02  0.00000000000E+00 0.  1.
<mgrwt>
<rscale>  2 0.11992282E+03</rscale>
<asrwt>0</asrwt>
<pdfrwt beam="1">  1       21 0.25512522E-01 0.11992282E+03</pdfrwt>
<pdfrwt beam="2">  1       21 0.26665533E-01 0.11992282E+03</pdfrwt>
<totfact> 0.19895177E+05</totfact>
</mgrwt>
</event>
<event>
 5    1  0.1365600E-001  0.1420299E+03  0.7546771E-02  0.1210623E+00
         21   -1    0    0  501  502  0.00000000000E+00  0.00000000000E+00  0.14066390004E+02  0.14066390004E+02  0.00000000000E+00 0.  1.
         21   -1    0    0  502  503 -0.00000000000E+00 -0.00000000000E+00 -0.14917796631E+04  0.14917796631E+04  0.00000000000E+00 0. -1.
         24    1    1    2    0    0 -0.83433261734E+01 -0.36730660500E+02 -0.36942408647E+03  0.37994752813E+03  0.80419002446E+02 0.  1.
          1    1    1    2  501    0  0.53032301046E+02  0.10269508295E+03 -0.55549555171E+03  0.56739229197E+03  0.00000000000E+00 0. -1.
         -2    1    1    2    0  503 -0.44688974872E+02 -0.65964422447E+02 -0.55279363496E+03  0.55850623305E+03  0.00000000000E+00 0.  1.
<mgrwt>
<rscale>  2 0.14202987E+03</rscale>
<asrwt>0</asrwt>
<pdfrwt beam="1">  1       21 0.21640609E-02 0.14202987E+03</pdfrwt>
<pdfrwt beam="2">  1       21 0.22950446E+00 0.14202987E+03</pdfrwt>
<totfact> 0.98696624E+04</totfact>
</mgrwt>
</event>
<event>
 5    1  0.1365600E-001  0.2014690E+03  0.7546771E-02  0.1148506E+00
         21   -1    0    0  501  502  0.00000000000E+00  0.00000000000E+00  0.25416470625E+03  0.25416470625E+03  0.00000000000E+00 0.  1.
         21   -1    0    0  502  503 -0.00000000000E+00 -0.00000000000E+00 -0.16034439911E+03  0.16034439911E+03  0.00000000000E+00 0.  1.
         24    1    1    2    0    0  0.13066803661E+03 -0.72524812816E+02  0.41874733977E+02  0.17479900906E+03  0.80419002446E+02 0.  1.
          1    1    1    2  501    0  0.45124256806E+02  0.72188431869E+01  0.24806467318E+01  0.45765312820E+02  0.00000000000E+00 0. -1.
         -2    1    1    2    0  503 -0.17579229342E+03  0.65305969629E+02  0.49464926436E+02  0.19394478349E+03  0.00000000000E+00 0.  1.
<mgrwt>
<rscale>  2 0.20146900E+03</rscale>
<asrwt>0</asrwt>
<pdfrwt beam="1">  1       21 0.39102263E-01 0.20146900E+03</pdfrwt>
<pdfrwt beam="2">  1       21 0.24668369E-01 0.20146900E+03</pdfrwt>
<totfact> 0.97625633E+04</totfact>
</mgrwt>
</event>
<event>
 5    1  0.1365600E-001  0.7647158E+02  0.7546771E-02  0.1339374E+00
         21   -1    0    0  503  502  0.00000000000E+00  0.00000000000E+00  0.10444030826E+04  0.10444030826E+04  0.00000000000E+00 0. -1.
         21   -1    0    0  501  503 -0.00000000000E+00 -0.00000000000E+00 -0.72216225396E+01  0.72216225396E+01  0.00000000000E+00 0. -1.
         24    1    1    2    0    0  0.12902498031E+02 -0.10096976189E+02  0.78519311886E+03  0.78947062848E+03  0.80419002446E+02 0. -1.
          1    1    1    2  501    0  0.28416163215E+02  0.34468183017E+00  0.76626254843E+02  0.81726250793E+02  0.00000000000E+00 0. -1.
         -2    1    1    2    0  502 -0.41318661246E+02  0.97522943587E+01  0.17536208631E+03  0.18042782581E+03  0.00000000000E+00 0.  1.
<mgrwt>
<rscale>  2 0.76471579E+02</rscale>
<asrwt>0</asrwt>
<pdfrwt beam="1">  1       21 0.16067728E+00 0.76471579E+02</pdfrwt>
<pdfrwt beam="2">  1       21 0.11110197E-02 0.76471579E+02</pdfrwt>
<totfact> 0.80926320E+05</totfact>
</mgrwt>
</event>
<event>
 5    1  0.1365600E-001  0.9266711E+02  0.7546771E-02  0.1296518E+00
         21   -1    0    0  503  502  0.00000000000E+00  0.00000000000E+00  0.12155233989E+03  0.12155233989E+03  0.00000000000E+00 0.  1.
         21   -1    0    0  501  503 -0.00000000000E+00 -0.00000000000E+00 -0.18730591630E+03  0.18730591630E+03  0.00000000000E+00 0. -1.
         24    1    1    2    0    0 -0.17087998724E-01 -0.37172913574E+02  0.80158548294E+02  0.11947566537E+03  0.80419002446E+02 0.  1.
          1    1    1    2  501    0 -0.39478391939E+02 -0.40065401271E+01 -0.12060264396E+03  0.12696296123E+03  0.00000000000E+00 0. -1.
         -2    1    1    2    0  502  0.39495479938E+02  0.41179453701E+02 -0.25309480747E+02  0.62419629592E+02  0.00000000000E+00 0.  1.
<mgrwt>
<rscale>  2 0.92667107E+02</rscale>
<asrwt>0</asrwt>
<pdfrwt beam="1">  1       21 0.18700360E-01 0.92667107E+02</pdfrwt>
<pdfrwt beam="2">  1       21 0.28816295E-01 0.92667107E+02</pdfrwt>
<totfact> 0.30735096E+05</totfact>
</mgrwt>
</event>
<event>
 5    1  0.1365600E-001  0.2260191E+03  0.7546771E-02  0.1129473E+00
         21   -1    0    0  503  502  0.00000000000E+00  0.00000000000E+00  0.91706888954E+03  0.91706888954E+03  0.00000000000E+00 0.  1.
         21   -1    0    0  501  503 -0.00000000000E+00 -0.00000000000E+00 -0.10839941676E+03  0.10839941676E+03  0.00000000000E+00 0. -1.
         24    1    1    2    0    0  0.32656736005E+02  0.17533671380E+03  0.68839920339E+03  0.71566060727E+03  0.80419002446E+02 0.  1.
          1    1    1    2  501    0 -0.97478076824E+02 -0.38175208159E+02 -0.15978127993E+02  0.10589911498E+03  0.00000000000E+00 0. -1.
         -2    1    1    2    0  502  0.64821340819E+02 -0.13716150564E+03  0.13624839738E+03  0.20390858404E+03  0.00000000000E+00 0.  1.
<mgrwt>
<rscale>  2 0.22601909E+03</rscale>
<asrwt>0</asrwt>
<pdfrwt beam="1">  1       21 0.14108752E+00 0.22601909E+03</pdfrwt>
<pdfrwt beam="2">  1       21 0.16676834E-01 0.22601909E+03</pdfrwt>
<totfact> 0.11073330E+04</totfact>
</mgrwt>
</event>
<event>
 5    1  0.1365600E-001  0.7414635E+02  0.7546771E-02  0.1346535E+00
         21   -1    0    0  503  502  0.00000000000E+00  0.00000000000E+00  0.29988442552E+02  0.29988442552E+02  0.00000000000E+00 0. -1.
         21   -1    0    0  501  503 -0.00000000000E+00 -0.00000000000E+00 -0.34571829035E+03  0.34571829035E+03  0.00000000000E+00 0.  1.
         24    1    1    2    0    0  0.24782053041E+02  0.42093712782E+02 -0.68108918479E+02  0.11615537671E+03  0.80419002446E+02 0. -1.
          1    1    1    2  501    0 -0.50516756521E+00 -0.23794554709E+02 -0.20923854269E+03  0.21058775789E+03  0.00000000000E+00 0. -1.
         -2    1    1    2    0  502 -0.24276885476E+02 -0.18299158073E+02 -0.38382386635E+02  0.48963598299E+02  0.00000000000E+00 0.  1.
<mgrwt>
<rscale>  2 0.74146351E+02</rscale>
<asrwt>0</asrwt>
<pdfrwt beam="1">  1       21 0.46136067E-02 0.74146351E+02</pdfrwt>
<pdfrwt beam="2">  1       21 0.53187428E-01 0.74146351E+02</pdfrwt>
<totfact> 0.10257619E+06</totfact>
</mgrwt>
</event>
<event>
 5    1  0.1365600E-001  0.9079290E+02  0.7546771E-02  0.1300943E+00
         21   -1    0    0  503  502  0.00000000000E+00  0.00000000000E+00  0.97070087251E+03  0.97070087251E+03  0.00000000000E+00 0.  1.
         21   -1    0    0  501  503 -0.00000000000E+00 -0.00000000000E+00 -0.13808828838E+02  0.13808828838E+02  0.00000000000E+00 0. -1.
         24    1    1    2    0    0  0.39083231649E+02 -0.36088866743E+02  0.80035646216E+03  0.80614365208E+03  0.80419002446E+02 0.  1.
          1    1    1    2  501    0 -0.13734669489E+02 -0.19625652183E+02  0.51457974107E+02  0.56760289541E+02  0.00000000000E+00 0. -1.
         -2    1    1    2    0  502 -0.25348562159E+02  0.55714518926E+02  0.10507760740E+03  0.12160575973E+03  0.00000000000E+00 0.  1.
<mgrwt>
<rscale>  2 0.90792901E+02</rscale>
<asrwt>0</asrwt>
<pdfrwt beam="1">  1       21 0.14933854E+00 0.90792901E+02</pdfrwt>
<pdfrwt beam="2">  1       21 0.21244360E-02 0.90792901E+02</pdfrwt>
<totfact> 0.34887621E+05</totfact>
</mgrwt>
</event>
<event>
 5    1  0.1365600E-001  0.9907829E+02  0.7546771E-02  0.1282246E+00
         21   -1    0    0  501  502  0.00000000000E+00  0.00000000000E+00  0.94043737178E+02  0.94043737178E+02  0.00000000000E+00 0. -1.
         21   -1    0    0  502  503 -0.00000000000E+00 -0.00000000000E+00 -0.24124933199E+03  0.24124933199E+03  0.00000000000E+00 0. -1.
         24    1    1    2    0    0  0.20822408302E+02  0.62917223310E+02  0.48448219701E+02  0.11491995311E+03  0.80419002446E+02 0. -1.
          1    1    1    2  501    0  0.14965886147E+02 -0.55391015582E+02 -0.75820643310E+02  0.95083712103E+02  0.00000000000E+00 0. -1.
         -2    1    1    2    0  503 -0.35788294449E+02 -0.75262077288E+01 -0.11983317121E+03  0.12528940396E+03  0.00000000000E+00 0.  1.
<mgrwt>
<rscale>  2 0.99078290E+02</rscale>
<asrwt>0</asrwt>
<pdfrwt beam="1">  1       21 0.14468267E-01 0.99078290E+02</pdfrwt>
<pdfrwt beam="2">  1       21 0.37115282E-01 0.99078290E+02</pdfrwt>
<totfact> 0.29888635E+05</totfact>
</mgrwt>
</event>
<event>
 5    1  0.1365600E-001  0.1650435E+03  0.7546771E-02  0.1183118E+00
         21   -1    0    0  501  502  0.00000000000E+00  0.00000000000E+00  0.55886059152E+03  0.55886059152E+03  0.00000000000E+00 0. -1.
         21   -1    0    0  502  503 -0.00000000000E+00 -0.00000000000E+00 -0.14669314811E+03  0.14669314811E+03  0.00000000000E+00 0.  1.
         24    1    1    2    0    0  0.13342881616E+02 -0.31523766459E+02  0.21375969360E+03  0.23093766021E+03  0.80419002446E+02 0. -1.
          1    1    1    2  501    0 -0.11002948805E+03  0.78528760337E+02  0.29852861952E+03  0.32770808827E+03  0.00000000000E+00 0. -1.
         -2    1    1    2    0  503  0.96686606436E+02 -0.47004993878E+02 -0.10012086971E+03  0.14690799116E+03  0.00000000000E+00 0.  1.
<mgrwt>
<rscale>  2 0.16504351E+03</rscale>
<asrwt>0</asrwt>
<pdfrwt beam="1">  1       21 0.85978551E-01 0.16504351E+03</pdfrwt>
<pdfrwt beam="2">  1       21 0.22568177E-01 0.16504351E+03</pdfrwt>
<totfact> 0.21843486E+04</totfact>
</mgrwt>
</event>
<event>
 5    1  0.1365600E-001  0.9294652E+02  0.7546771E-02  0.1295869E+00
         21   -1    0    0  503  502  0.00000000000E+00  0.00000000000E+00  0.27929882925E+03  0.27929882925E+03  0.00000000000E+00 0.  1.
         21   -1    0    0  501  503 -0.00000000000E+00 -0.00000000000E+00 -0.13428685809E+03  0.13428685809E+03  0.00000000000E+00 0. -1.
         24    1    1    2    0    0 -0.19257767879E+02 -0.13827463478E+02  0.22323296391E+03  0.23845803090E+03  0.80419002446E+02 0.  1.
          1    1    1    2  501    0  0.56690938280E+02 -0.10158146835E+02 -0.10745664612E+03  0.12191792823E+03  0.00000000000E+00 0. -1.
         -2    1    1    2    0  502 -0.37433170401E+02  0.23985610312E+02  0.29235653360E+02  0.53209728206E+02  0.00000000000E+00 0.  1.
<mgrwt>
<rscale>  2 0.92946524E+02</rscale>
<asrwt>0</asrwt>
<pdfrwt beam="1">  1       21 0.42969051E-01 0.92946524E+02</pdfrwt>
<pdfrwt beam="2">  1       21 0.20659517E-01 0.92946524E+02</pdfrwt>
<totfact> 0.11756291E+05</totfact>
</mgrwt>
</event>
<event>
 5    1  0.1365600E-001  0.1675213E+03  0.7546771E-02  0.1180458E+00
         21   -1    0    0  503  502  0.00000000000E+00  0.00000000000E+00  0.15625394689E+03  0.15625394689E+03  0.00000000000E+00 0.  1.
         21   -1    0    0  501  503 -0.00000000000E+00 -0.00000000000E+00 -0.38699443059E+03  0.38699443059E+03  0.00000000000E+00 0. -1.
         24    1    1    2    0    0 -0.23317862506E+02 -0.42760033324E+02  0.35915395336E+02  0.10064429809E+03  0.80419002446E+02 0.  1.
          1    1    1    2  501    0 -0.10272821217E+03  0.51036058477E+02 -0.29204146025E+03  0.31376102266E+03  0.00000000000E+00 0. -1.
         -2    1    1    2    0  502  0.12604607468E+03 -0.82760251524E+01  0.25385581204E+02  0.12884305673E+03  0.00000000000E+00 0.  1.
<mgrwt>
<rscale>  2 0.16752132E+03</rscale>
<asrwt>0</asrwt>
<pdfrwt beam="1">  1       21 0.24039069E-01 0.16752132E+03</pdfrwt>
<pdfrwt beam="2">  1       21 0.59537604E-01 0.16752132E+03</pdfrwt>
<totfact> 0.43551331E+04</totfact>
</mgrwt>
</event>
<event>
 5    1  0.1365600E-001  0.1405305E+03  0.7546771E-02  0.1212617E+00
         21   -1    0    0  503  502  0.00000000000E+00  0.00000000000E+00  0.40423938067E+03  0.40423938067E+03  0.00000000000E+00 0. -1.
         21   -1    0    0  501  503 -0.00000000000E+00 -0.00000000000E+00 -0.51741446096E+02  0.51741446096E+02  0.00000000000E+00 0.  1.
         24    1    1    2    0    0 -0.11912232051E+02  0.23087034079E+02  0.64278674296E+02  0.10617851166E+03  0.80419002446E+02 0.  0.
          1    1    1    2  501    0 -0.38381021701E+02 -0.98608431459E+02  0.17757347369E+03  0.20671009685E+03  0.00000000000E+00 0. -1.
         -2    1    1    2    0  502  0.50293253752E+02  0.75521397380E+02  0.11064578659E+03  0.14309221825E+03  0.00000000000E+00 0.  1.
<mgrwt>
<rscale>  2 0.14053049E+03</rscale>
<asrwt>0</asrwt>
<pdfrwt beam="1">  1       21 0.62190672E-01 0.14053049E+03</pdfrwt>
<pdfrwt beam="2">  1       21 0.79602227E-02 0.14053049E+03</pdfrwt>
<totfact> 0.29388355E+05</totfact>
</mgrwt>
</event>
<event>
 5    1  0.1365600E-001  0.1863849E+03  0.7546771E-02  0.1161763E+00
         21   -1    0    0  503  502  0.00000000000E+00  0.00000000000E+00  0.67142136725E+03  0.67142136725E+03  0.00000000000E+00 0. -1.
         21   -1    0    0  501  503 -0.00000000000E+00 -0.00000000000E+00 -0.52161623842E+02  0.52161623842E+02  0.00000000000E+00 0.  1.
         24    1    1    2    0    0  0.53592486508E+02  0.11460212241E+03  0.24813739991E+03  0.28990547814E+03  0.80419002446E+02 0.  1.
          1    1    1    2  501    0 -0.11612311895E+03 -0.11033713374E+03  0.24299444169E+03  0.29104150997E+03  0.00000000000E+00 0. -1.
         -2    1    1    2    0  502  0.62530632440E+02 -0.42649886696E+01  0.12812790181E+03  0.14263600298E+03  0.00000000000E+00 0.  1.
<mgrwt>
<rscale>  2 0.18638489E+03</rscale>
<asrwt>0</asrwt>
<pdfrwt beam="1">  1       21 0.10329559E+00 0.18638489E+03</pdfrwt>
<pdfrwt beam="2">  1       21 0.80248657E-02 0.18638489E+03</pdfrwt>
<totfact> 0.90933709E+04</totfact>
</mgrwt>
</event>
<event>
 5    1  0.1365600E-001  0.9792244E+02  0.7546771E-02  0.1284726E+00
         21   -1    0    0  503  502  0.00000000000E+00  0.00000000000E+00  0.25025655508E+02  0.25025655508E+02  0.00000000000E+00 0.  1.
         21   -1    0    0  501  503 -0.00000000000E+00 -0.00000000000E+00 -0.68538128192E+03  0.68538128192E+03  0.00000000000E+00 0.  1.
         24    1    1    2    0    0  0.27119934247E+02  0.24288416607E+02 -0.11328223407E+03  0.14361580179E+03  0.80419002446E+02 0.  1.
          1    1    1    2  501    0 -0.50947861289E+02  0.22009869314E+02 -0.47301476627E+03  0.47625947553E+03  0.00000000000E+00 0. -1.
         -2    1    1    2    0  502  0.23827927043E+02 -0.46298285921E+02 -0.74058626068E+02  0.90531660105E+02  0.00000000000E+00 0.  1.
<mgrwt>
<rscale>  2 0.97922437E+02</rscale>
<asrwt>0</asrwt>
<pdfrwt beam="1">  1       21 0.38501007E-02 0.97922437E+02</pdfrwt>
<pdfrwt beam="2">  1       21 0.10544328E+00 0.97922437E+02</pdfrwt>
<totfact> 0.30974210E+05</totfact>
</mgrwt>
</event>
<event>
 5    1  0.1365600E-001  0.2370744E+03  0.7546771E-02  0.1121757E+00
         21   -1    0    0  503  502  0.00000000000E+00  0.00000000000E+00  0.46296196422E+03  0.46296196422E+03  0.00000000000E+00 0. -1.
         21   -1    0    0  501  503 -0.00000000000E+00 -0.00000000000E+00 -0.13395648794E+03  0.13395648794E+03  0.00000000000E+00 0. -1.
         24    1    1    2    0    0  0.86170914317E+02 -0.18393145982E+03  0.22627494103E+03  0.31452149891E+03  0.80419002446E+02 0. -1.
          1    1    1    2  501    0 -0.12537066453E+03  0.17535896039E+03  0.59957876331E+02  0.22374877753E+03  0.00000000000E+00 0. -1.
         -2    1    1    2    0  502  0.39199750212E+02  0.85724994339E+01  0.42772658930E+02  0.58648175719E+02  0.00000000000E+00 0.  1.
<mgrwt>
<rscale>  2 0.23707438E+03</rscale>
<asrwt>0</asrwt>
<pdfrwt beam="1">  1       21 0.71224917E-01 0.23707438E+03</pdfrwt>
<pdfrwt beam="2">  1       21 0.20608691E-01 0.23707438E+03</pdfrwt>
<totfact> 0.38073618E+04</totfact>
</mgrwt>
</event>
<event>
 5    1  0.1365600E-001  0.9694436E+02  0.7546771E-02  0.1286856E+00
         21   -1    0    0  503  502  0.00000000000E+00  0.00000000000E+00  0.22032007484E+03  0.22032007484E+03  0.00000000000E+00 0. -1.
         21   -1    0    0  501  503 -0.00000000000E+00 -0.00000000000E+00 -0.54330902374E+02  0.54330902374E+02  0.00000000000E+00 0.  1.
         24    1    1    2    0    0 -0.49343874920E+02  0.30862276191E+02  0.14814421213E+03  0.17832897024E+03  0.80419002446E+02 0. -1.
          1    1    1    2  501    0  0.28360590446E+02  0.23191173346E+02  0.82004837397E+01  0.37541997085E+02  0.00000000000E+00 0. -1.
         -2    1    1    2    0  502  0.20983284474E+02 -0.54053449537E+02  0.96444765995E+01  0.58780009894E+02  0.00000000000E+00 0.  1.
<mgrwt>
<rscale>  2 0.96944355E+02</rscale>
<asrwt>0</asrwt>
<pdfrwt beam="1">  1       21 0.33895396E-01 0.96944355E+02</pdfrwt>
<pdfrwt beam="2">  1       21 0.83586005E-02 0.96944355E+02</pdfrwt>
<totfact> 0.93149107E+05</totfact>
</mgrwt>
</event>
<event>
 5    1  0.1365600E-001  0.8332539E+02  0.7546771E-02  0.1319871E+00
         21   -1    0    0  503  502  0.00000000000E+00  0.00000000000E+00  0.47706467226E+03  0.47706467226E+03  0.00000000000E+00 0. -1.
         21   -1    0    0  501  503 -0.00000000000E+00 -0.00000000000E+00 -0.18580061813E+02  0.18580061813E+02  0.00000000000E+00 0.  1.
         24    1    1    2    0    0 -0.10577768960E+02  0.24543538773E+02  0.19808673823E+03  0.21545265445E+03  0.80419002446E+02 0.  1.
          1    1    1    2  501    0 -0.18148259887E+01 -0.51870088962E+02  0.68393189685E+02  0.85857021365E+02  0.00000000000E+00 0. -1.
         -2    1    1    2    0  502  0.12392594948E+02  0.27326550189E+02  0.19200468253E+03  0.19433505826E+03  0.00000000000E+00 0.  1.
<mgrwt>
<rscale>  2 0.83325391E+02</rscale>
<asrwt>0</asrwt>
<pdfrwt beam="1">  1       21 0.73394556E-01 0.83325391E+02</pdfrwt>
<pdfrwt beam="2">  1       21 0.28584714E-02 0.83325391E+02</pdfrwt>
<totfact> 0.11401926E+06</totfact>
</mgrwt>
</event>
<event>
 5    1  0.1365600E-001  0.1974272E+03  0.7546771E-02  0.1151928E+00
         21   -1    0    0  501  502  0.00000000000E+00  0.00000000000E+00  0.71755746314E+03  0.71755746314E+03  0.00000000000E+00 0. -1.
         21   -1    0    0  502  503 -0.00000000000E+00 -0.00000000000E+00 -0.10824608877E+03  0.10824608877E+03  0.00000000000E+00 0.  1.
         24    1    1    2    0    0 -0.61685063245E+02 -0.54141748511E+02  0.38935150482E+03  0.40595342864E+03  0.80419002446E+02 0. -1.
          1    1    1    2  501    0  0.11965623093E+03  0.13503818305E+03  0.25669817939E+03  0.31376245758E+03  0.00000000000E+00 0. -1.
         -2    1    1    2    0  503 -0.57971167685E+02 -0.80896434535E+02 -0.36738309846E+02  0.10608766570E+03  0.00000000000E+00 0.  1.
<mgrwt>
<rscale>  2 0.19742724E+03</rscale>
<asrwt>0</asrwt>
<pdfrwt beam="1">  1       21 0.11039345E+00 0.19742724E+03</pdfrwt>
<pdfrwt beam="2">  1       21 0.16653245E-01 0.19742724E+03</pdfrwt>
<totfact> 0.20916981E+04</totfact>
</mgrwt>
</event>
<event>
 5    1  0.1365600E-001  0.1054395E+03  0.7546771E-02  0.1269256E+00
         21   -1    0    0  501  502  0.00000000000E+00  0.00000000000E+00  0.62847021217E+02  0.62847021217E+02  0.00000000000E+00 0. -1.
         21   -1    0    0  502  503 -0.00000000000E+00 -0.00000000000E+00 -0.31588707068E+03  0.31588707068E+03  0.00000000000E+00 0.  1.
         24    1    1    2    0    0 -0.30678732351E+02  0.67352083072E+02 -0.62011444797E+01  0.10946761101E+03  0.80419002446E+02 0. -1.
          1    1    1    2  501    0  0.38007068860E+02 -0.44580318033E+01 -0.53169943946E+02  0.65509192257E+02  0.00000000000E+00 0. -1.
         -2    1    1    2    0  503 -0.73283365096E+01 -0.62894051269E+02 -0.19366896104E+03  0.20375728863E+03  0.00000000000E+00 0.  1.
<mgrwt>
<rscale>  2 0.10543951E+03</rscale>
<asrwt>0</asrwt>
<pdfrwt beam="1">  1       21 0.96687726E-02 0.10543951E+03</pdfrwt>
<pdfrwt beam="2">  1       21 0.48598010E-01 0.10543951E+03</pdfrwt>
<totfact> 0.35367289E+05</totfact>
</mgrwt>
</event>
<event>
 5    1  0.1365600E-001  0.1291543E+03  0.7546771E-02  0.1228716E+00
         21   -1    0    0  501  502  0.00000000000E+00  0.00000000000E+00  0.59187613645E+03  0.59187613645E+03  0.00000000000E+00 0. -1.
         21   -1    0    0  502  503 -0.00000000000E+00 -0.00000000000E+00 -0.93335363141E+02  0.93335363141E+02  0.00000000000E+00 0. -1.
         24    1    1    2    0    0  0.11755286166E+02  0.51029312995E+02  0.51285354521E+03  0.52175487763E+03  0.80419002446E+02 0. -1.
          1    1    1    2  501    0 -0.25423777590E+02  0.52279697859E+02 -0.11187466781E+02  0.59200461891E+02  0.00000000000E+00 0. -1.
         -2    1    1    2    0  503  0.13668491424E+02 -0.10330901085E+03 -0.31253051188E+01  0.10425616007E+03  0.00000000000E+00 0.  1.
<mgrwt>
<rscale>  2 0.12915433E+03</rscale>
<asrwt>0</asrwt>
<pdfrwt beam="1">  1       21 0.91057865E-01 0.12915433E+03</pdfrwt>
<pdfrwt beam="2">  1       21 0.14359287E-01 0.12915433E+03</pdfrwt>
<totfact> 0.44939994E+04</totfact>
</mgrwt>
</event>
<event>
 5    1  0.1365600E-001  0.1390175E+03  0.7546771E-02  0.1214657E+00
         21   -1    0    0  501  502  0.00000000000E+00  0.00000000000E+00  0.10395926541E+04  0.10395926541E+04  0.00000000000E+00 0. -1.
         21   -1    0    0  502  503 -0.00000000000E+00 -0.00000000000E+00 -0.87438723630E+02  0.87438723630E+02  0.00000000000E+00 0.  1.
         24    1    1    2    0    0  0.12679303849E+03 -0.40367411292E+01  0.82940495322E+03  0.84289534479E+03  0.80419002446E+02 0. -1.
          1    1    1    2  501    0 -0.99047599200E+02 -0.34151364356E+01  0.18817635960E+03  0.21267917711E+03  0.00000000000E+00 0. -1.
         -2    1    1    2    0  503 -0.27745439295E+02  0.74518775648E+01 -0.65427382360E+02  0.71456855818E+02  0.00000000000E+00 0.  1.
<mgrwt>
<rscale>  2 0.13901750E+03</rscale>
<asrwt>0</asrwt>
<pdfrwt beam="1">  1       21 0.15993732E+00 0.13901750E+03</pdfrwt>
<pdfrwt beam="2">  1       21 0.13452112E-01 0.13901750E+03</pdfrwt>
<totfact> 0.12580166E+04</totfact>
</mgrwt>
</event>
<event>
 5    1  0.1365600E-001  0.7108848E+02  0.7546771E-02  0.1356430E+00
         21   -1    0    0  503  502  0.00000000000E+00  0.00000000000E+00  0.39022261469E+02  0.39022261469E+02  0.00000000000E+00 0. -1.
         21   -1    0    0  501  503 -0.00000000000E+00 -0.00000000000E+00 -0.25842432883E+03  0.25842432883E+03  0.00000000000E+00 0. -1.
         24    1    1    2    0    0 -0.29620932277E+02  0.61861017922E+01 -0.22435768784E+02  0.88804544701E+02  0.80419002446E+02 0.  0.
          1    1    1    2  501    0  0.10645020100E+02  0.20740043321E+02 -0.14671990221E+03  0.14856041046E+03  0.00000000000E+00 0. -1.
         -2    1    1    2    0  502  0.18975912177E+02 -0.26926145113E+02 -0.50246396363E+02  0.60081635139E+02  0.00000000000E+00 0.  1.
<mgrwt>
<rscale>  2 0.71088478E+02</rscale>
<asrwt>0</asrwt>
<pdfrwt beam="1">  1       21 0.60034250E-02 0.71088478E+02</pdfrwt>
<pdfrwt beam="2">  1       21 0.39757588E-01 0.71088478E+02</pdfrwt>
<totfact> 0.11862741E+06</totfact>
</mgrwt>
</event>
<event>
 5    1  0.1365600E-001  0.2156612E+03  0.7546771E-02  0.1137160E+00
         21   -1    0    0  501  502  0.00000000000E+00  0.00000000000E+00  0.46966865207E+02  0.46966865207E+02  0.00000000000E+00 0.  1.
         21   -1    0    0  502  503 -0.00000000000E+00 -0.00000000000E+00 -0.10662817719E+04  0.10662817719E+04  0.00000000000E+00 0. -1.
         24    1    1    2    0    0 -0.21674143557E+02  0.77188212663E+02 -0.15928655653E+03  0.19562006983E+03  0.80419002446E+02 0.  0.
          1    1    1    2  501    0  0.14694694162E+03 -0.11534661301E+03 -0.45138741659E+03  0.48851698500E+03  0.00000000000E+00 0. -1.
         -2    1    1    2    0  503 -0.12527279806E+03  0.38158400347E+02 -0.40864093355E+03  0.42911158225E+03  0.00000000000E+00 0.  1.
<mgrwt>
<rscale>  2 0.21566119E+03</rscale>
<asrwt>0</asrwt>
<pdfrwt beam="1">  1       21 0.72256721E-02 0.21566119E+03</pdfrwt>
<pdfrwt beam="2">  1       21 0.16404334E+00 0.21566119E+03</pdfrwt>
<totfact> 0.33206458E+04</totfact>
</mgrwt>
</event>
<event>
 5    1  0.1365600E-001  0.1743811E+03  0.7546771E-02  0.1173355E+00
         21   -1    0    0  503  502  0.00000000000E+00  0.00000000000E+00  0.10100759687E+03  0.10100759687E+03  0.00000000000E+00 0.  1.
         21   -1    0    0  501  503 -0.00000000000E+00 -0.00000000000E+00 -0.32258042240E+03  0.32258042240E+03  0.00000000000E+00 0. -1.
         24    1    1    2    0    0 -0.15316096385E+02  0.70119244999E+02 -0.69279518622E+02  0.12813336405E+03  0.80419002446E+02 0. -1.
          1    1    1    2  501    0  0.76498090703E+02 -0.13287906096E+03 -0.51181309691E+02  0.16164259706E+03  0.00000000000E+00 0. -1.
         -2    1    1    2    0  502 -0.61181994318E+02  0.62759815965E+02 -0.10111199721E+03  0.13381205816E+03  0.00000000000E+00 0.  1.
<mgrwt>
<rscale>  2 0.17438109E+03</rscale>
<asrwt>0</asrwt>
<pdfrwt beam="1">  1       21 0.15539630E-01 0.17438109E+03</pdfrwt>
<pdfrwt beam="2">  1       21 0.49627758E-01 0.17438109E+03</pdfrwt>
<totfact> 0.14322079E+05</totfact>
</mgrwt>
</event>
<event>
 5    1  0.1365600E-001  0.8161351E+02  0.7546771E-02  0.1324534E+00
         21   -1    0    0  501  502  0.00000000000E+00  0.00000000000E+00  0.73025031901E+02  0.73025031901E+02  0.00000000000E+00 0. -1.
         21   -1    0    0  502  503 -0.00000000000E+00 -0.00000000000E+00 -0.17606148282E+03  0.17606148282E+03  0.00000000000E+00 0. -1.
         24    1    1    2    0    0 -0.43072791295E+02  0.20886739460E+02  0.24686846036E+02  0.96789346298E+02  0.80419002446E+02 0. -1.
          1    1    1    2  501    0  0.24903000699E+02  0.15242885300E+02 -0.15600697369E+02  0.33104180317E+02  0.00000000000E+00 0. -1.
         -2    1    1    2    0  503  0.18169790597E+02 -0.36129624760E+02 -0.11212259958E+03  0.11919298810E+03  0.00000000000E+00 0.  1.
<mgrwt>
<rscale>  2 0.81613509E+02</rscale>
<asrwt>0</asrwt>
<pdfrwt beam="1">  1       21 0.11234620E-01 0.81613509E+02</pdfrwt>
<pdfrwt beam="2">  1       21 0.27086382E-01 0.81613509E+02</pdfrwt>
<totfact> 0.85530882E+05</totfact>
</mgrwt>
</event>
<event>
 5    1  0.1365600E-001  0.1348544E+03  0.7546771E-02  0.1220425E+00
         21   -1    0    0  503  502  0.00000000000E+00  0.00000000000E+00  0.72314749796E+03  0.72314749796E+03  0.00000000000E+00 0.  1.
         21   -1    0    0  501  503 -0.00000000000E+00 -0.00000000000E+00 -0.64020484321E+02  0.64020484321E+02  0.00000000000E+00 0. -1.
         24    1    1    2    0    0 -0.22297710452E+01  0.11542876098E+02  0.41169902926E+03  0.41964451208E+03  0.80419002446E+02 0.  1.
          1    1    1    2  501    0 -0.32404115218E+02 -0.93770329158E+02 -0.54555820738E+01  0.99361283653E+02  0.00000000000E+00 0. -1.
         -2    1    1    2    0  502  0.34633886263E+02  0.82227453060E+02  0.25288356645E+03  0.26816218655E+03  0.00000000000E+00 0.  1.
<mgrwt>
<rscale>  2 0.13485441E+03</rscale>
<asrwt>0</asrwt>
<pdfrwt beam="1">  1       21 0.11125346E+00 0.13485441E+03</pdfrwt>
<pdfrwt beam="2">  1       21 0.98493058E-02 0.13485441E+03</pdfrwt>
<totfact> 0.54597528E+04</totfact>
</mgrwt>
</event>
<event>
 5    1  0.1467986E-001  0.1558229E+03  0.7546771E-02  0.1193495E+00
         21   -1    0    0  501  502  0.00000000000E+00  0.00000000000E+00  0.65512038023E+02  0.65512038023E+02  0.00000000000E+00 0.  1.
         21   -1    0    0  502  503 -0.00000000000E+00 -0.00000000000E+00 -0.39342676214E+03  0.39342676214E+03  0.00000000000E+00 0. -1.
         24    1    1    2    0    0  0.16276242688E+02 -0.22988869199E+02 -0.52440014143E+02  0.10005286213E+03  0.80419002446E+02 0.  0.
          1    1    1    2  501    0  0.82522856158E+02  0.77831973462E+02 -0.10641042250E+03  0.15553461318E+03  0.00000000000E+00 0. -1.
         -2    1    1    2    0  503 -0.98799098846E+02 -0.54843104263E+02 -0.16906428747E+03  0.20335132484E+03  0.00000000000E+00 0.  1.
<mgrwt>
<rscale>  2 0.15582294E+03</rscale>
<asrwt>0</asrwt>
<pdfrwt beam="1">  1       21 0.10078775E-01 0.15582294E+03</pdfrwt>
<pdfrwt beam="2">  1       21 0.60527194E-01 0.15582294E+03</pdfrwt>
<totfact> 0.20573490E+05</totfact>
</mgrwt>
</event>
<event>
 5    1  0.1365600E-001  0.3383164E+03  0.7546771E-02  0.1067515E+00
         21   -1    0    0  503  502  0.00000000000E+00  0.00000000000E+00  0.18489017470E+04  0.18489017470E+04  0.00000000000E+00 0.  1.
         21   -1    0    0  501  503 -0.00000000000E+00 -0.00000000000E+00 -0.12892045617E+03  0.12892045617E+03  0.00000000000E+00 0. -1.
         24    1    1    2    0    0  0.85236035949E+02 -0.22586970208E+03  0.90440338605E+03  0.93951849625E+03  0.80419002446E+02 0.  0.
          1    1    1    2  501    0 -0.12604413557E+03  0.30671978071E+03  0.14548565716E+03  0.36211907493E+03  0.00000000000E+00 0. -1.
         -2    1    1    2    0  502  0.40808099624E+02 -0.80850078626E+02  0.67009224762E+03  0.67618463198E+03  0.00000000000E+00 0.  1.
<mgrwt>
<rscale>  2 0.33831639E+03</rscale>
<asrwt>0</asrwt>
<pdfrwt beam="1">  1       21 0.28444640E+00 0.33831639E+03</pdfrwt>
<pdfrwt beam="2">  1       21 0.19833918E-01 0.33831639E+03</pdfrwt>
<totfact> 0.85229739E+02</totfact>
</mgrwt>
</event>
<event>
 5    1  0.1365600E-001  0.6437593E+02  0.7546771E-02  0.1380334E+00
         21   -1    0    0  501  502  0.00000000000E+00  0.00000000000E+00  0.98658907204E+02  0.98658907204E+02  0.00000000000E+00 0. -1.
         21   -1    0    0  502  503 -0.00000000000E+00 -0.00000000000E+00 -0.13177838538E+03  0.13177838538E+03  0.00000000000E+00 0.  1.
         24    1    1    2    0    0  0.11696933700E+01  0.87727778339E+01  0.76176081336E+02  0.11112309002E+03  0.80419002446E+02 0. -1.
          1    1    1    2  501    0 -0.17885851760E+02 -0.20666686043E+02 -0.61198640707E+02  0.67024541994E+02  0.00000000000E+00 0. -1.
         -2    1    1    2    0  503  0.16716158390E+02  0.11893908210E+02 -0.48096918802E+02  0.52289660565E+02  0.00000000000E+00 0.  1.
<mgrwt>
<rscale>  2 0.64375930E+02</rscale>
<asrwt>0</asrwt>
<pdfrwt beam="1">  1       21 0.15178293E-01 0.64375930E+02</pdfrwt>
<pdfrwt beam="2">  1       21 0.20273598E-01 0.64375930E+02</pdfrwt>
<totfact> 0.85687855E+05</totfact>
</mgrwt>
</event>
<event>
 5    1  0.1365600E-001  0.1065314E+03  0.7546771E-02  0.1267131E+00
         21   -1    0    0  501  502  0.00000000000E+00  0.00000000000E+00  0.23165425802E+02  0.23165425802E+02  0.00000000000E+00 0. -1.
         21   -1    0    0  502  503 -0.00000000000E+00 -0.00000000000E+00 -0.78520627405E+03  0.78520627405E+03  0.00000000000E+00 0. -1.
         24    1    1    2    0    0  0.46895132106E+01 -0.84206884309E+02 -0.16233988536E+03  0.19983554547E+03  0.80419002446E+02 0. -1.
          1    1    1    2  501    0  0.18940060613E+02  0.59060439460E+02 -0.26989267118E+03  0.27692763561E+03  0.00000000000E+00 0. -1.
         -2    1    1    2    0  503 -0.23629573824E+02  0.25146444849E+02 -0.32980829171E+03  0.33160851878E+03  0.00000000000E+00 0.  1.
<mgrwt>
<rscale>  2 0.10653144E+03</rscale>
<asrwt>0</asrwt>
<pdfrwt beam="1">  1       21 0.35639116E-02 0.10653144E+03</pdfrwt>
<pdfrwt beam="2">  1       21 0.12080097E+00 0.10653144E+03</pdfrwt>
<totfact> 0.25374228E+05</totfact>
</mgrwt>
</event>
<event>
 5    1  0.1365600E-001  0.1262658E+03  0.7546771E-02  0.1233104E+00
         21   -1    0    0  501  502  0.00000000000E+00  0.00000000000E+00  0.36209485715E+03  0.36209485715E+03  0.00000000000E+00 0.  1.
         21   -1    0    0  502  503 -0.00000000000E+00 -0.00000000000E+00 -0.67297156808E+02  0.67297156808E+02  0.00000000000E+00 0.  1.
         24    1    1    2    0    0 -0.79280110208E+02  0.17323952183E+02  0.22668715446E+03  0.25384983188E+03  0.80419002446E+02 0.  1.
          1    1    1    2  501    0  0.36277228472E+02 -0.64777323961E+02  0.81363008778E+02  0.11014571350E+03  0.00000000000E+00 0. -1.
         -2    1    1    2    0  503  0.43002881737E+02  0.47453371778E+02 -0.13252462888E+02  0.65396468585E+02  0.00000000000E+00 0.  1.
<mgrwt>
<rscale>  2 0.12626583E+03</rscale>
<asrwt>0</asrwt>
<pdfrwt beam="1">  1       21 0.55706900E-01 0.12626583E+03</pdfrwt>
<pdfrwt beam="2">  1       21 0.10353409E-01 0.12626583E+03</pdfrwt>
<totfact> 0.23565030E+05</totfact>
</mgrwt>
</event>
<event>
 5    1  0.1365600E-001  0.1688004E+03  0.7546771E-02  0.1179105E+00
         21   -1    0    0  503  502  0.00000000000E+00  0.00000000000E+00  0.53601025831E+03  0.53601025831E+03  0.00000000000E+00 0.  1.
         21   -1    0    0  501  503 -0.00000000000E+00 -0.00000000000E+00 -0.54678697960E+02  0.54678697960E+02  0.00000000000E+00 0. -1.
         24    1    1    2    0    0 -0.10388898353E+03 -0.83816873811E+02  0.23082021103E+03  0.27850201976E+03  0.80419002446E+02 0. -1.
          1    1    1    2  501    0 -0.24762174755E+02  0.37681897034E+02  0.35384979952E+02  0.57316554929E+02  0.00000000000E+00 0. -1.
         -2    1    1    2    0  502  0.12865115829E+03  0.46134976777E+02  0.21512636937E+03  0.25487038158E+03  0.00000000000E+00 0.  1.
<mgrwt>
<rscale>  2 0.16880037E+03</rscale>
<asrwt>0</asrwt>
<pdfrwt beam="1">  1       21 0.82463113E-01 0.16880037E+03</pdfrwt>
<pdfrwt beam="2">  1       21 0.84121077E-02 0.16880037E+03</pdfrwt>
<totfact> 0.14237641E+05</totfact>
</mgrwt>
</event>
<event>
 5    1  0.1527323E-001  0.1824209E+03  0.7546771E-02  0.1165480E+00
         21   -1    0    0  501  502  0.00000000000E+00  0.00000000000E+00  0.33070113054E+03  0.33070113054E+03  0.00000000000E+00 0.  1.
         21   -1    0    0  502  503 -0.00000000000E+00 -0.00000000000E+00 -0.11987928186E+03  0.11987928186E+03  0.00000000000E+00 0. -1.
         24    1    1    2    0    0 -0.27612165031E+02  0.21276090107E+02  0.10558157897E+03  0.13722167992E+03  0.80419002446E+02 0.  1.
          1    1    1    2  501    0 -0.12076969550E+03  0.21719805136E+02  0.10081387867E+03  0.15880965783E+03  0.00000000000E+00 0. -1.
         -2    1    1    2    0  503  0.14838186053E+03 -0.42995895243E+02  0.44263910403E+01  0.15454907466E+03  0.00000000000E+00 0.  1.
<mgrwt>
<rscale>  2 0.18242088E+03</rscale>
<asrwt>0</asrwt>
<pdfrwt beam="1">  1       21 0.50877097E-01 0.18242088E+03</pdfrwt>
<pdfrwt beam="2">  1       21 0.18442967E-01 0.18242088E+03</pdfrwt>
<totfact> 0.99009957E+04</totfact>
</mgrwt>
</event>
<event>
 5    1  0.1452105E-001  0.4074730E+03  0.7546771E-02  0.1041222E+00
         21   -1    0    0  503  502  0.00000000000E+00  0.00000000000E+00  0.58706389723E+03  0.58706389723E+03  0.00000000000E+00 0.  1.
         21   -1    0    0  501  503 -0.00000000000E+00 -0.00000000000E+00 -0.73921990048E+03  0.73921990048E+03  0.00000000000E+00 0. -1.
         24    1    1    2    0    0  0.68595991377E+02  0.24185648298E+03  0.17459447813E+03  0.31646550545E+03  0.80419002446E+02 0. -1.
          1    1    1    2  501    0 -0.87316038333E+02 -0.39102839017E+03 -0.58615056596E+03  0.70999984397E+03  0.00000000000E+00 0. -1.
         -2    1    1    2    0  502  0.18720046957E+02  0.14917190719E+03  0.25940008457E+03  0.29981844828E+03  0.00000000000E+00 0.  1.
<mgrwt>
<rscale>  2 0.40747296E+03</rscale>
<asrwt>0</asrwt>
<pdfrwt beam="1">  1       21 0.90317523E-01 0.40747296E+03</pdfrwt>
<pdfrwt beam="2">  1       21 0.11372614E+00 0.40747296E+03</pdfrwt>
<totfact> 0.53636049E+02</totfact>
</mgrwt>
</event>
<event>
 5    1  0.1365600E-001  0.6999994E+02  0.7546771E-02  0.1360093E+00
         21   -1    0    0  501  502  0.00000000000E+00  0.00000000000E+00  0.19845352378E+03  0.19845352378E+03  0.00000000000E+00 0.  1.
         21   -1    0    0  502  503 -0.00000000000E+00 -0.00000000000E+00 -0.51065921443E+02  0.51065921443E+02  0.00000000000E+00 0.  1.
         24    1    1    2    0    0 -0.71866912564E+01 -0.15020208960E+02  0.16815104174E+03  0.18713429403E+03  0.80419002446E+02 0.  1.
          1    1    1    2  501    0 -0.53301226546E+01  0.34396820957E+02 -0.69396877125E+01  0.35492404328E+02  0.00000000000E+00 0. -1.
         -2    1    1    2    0  503  0.12516813911E+02 -0.19376611997E+02 -0.13823751695E+02  0.26892746864E+02  0.00000000000E+00 0.  1.
<mgrwt>
<rscale>  2 0.69999942E+02</rscale>
<asrwt>0</asrwt>
<pdfrwt beam="1">  1       21 0.30531311E-01 0.69999942E+02</pdfrwt>
<pdfrwt beam="2">  1       21 0.78562957E-02 0.69999942E+02</pdfrwt>
<totfact> 0.12555010E+06</totfact>
</mgrwt>
</event>
<event>
 5    1  0.1365600E-001  0.8153062E+02  0.7546771E-02  0.1324763E+00
         21   -1    0    0  501  502  0.00000000000E+00  0.00000000000E+00  0.13703213134E+03  0.13703213134E+03  0.00000000000E+00 0.  1.
         21   -1    0    0  502  503 -0.00000000000E+00 -0.00000000000E+00 -0.52532894880E+03  0.52532894880E+03  0.00000000000E+00 0.  1.
         24    1    1    2    0    0 -0.11649710494E+02  0.26218517599E+02  0.10467513104E+03  0.13508229133E+03  0.80419002446E+02 0.  1.
          1    1    1    2  501    0  0.40266906565E+02 -0.27936713830E+02 -0.19192940881E+02  0.52633190323E+02  0.00000000000E+00 0. -1.
         -2    1    1    2    0  503 -0.28617196070E+02  0.17181962317E+01 -0.47377900761E+03  0.47464559849E+03  0.00000000000E+00 0.  1.
<mgrwt>
<rscale>  2 0.81530625E+02</rscale>
<asrwt>0</asrwt>
<pdfrwt beam="1">  1       21 0.21081867E-01 0.81530625E+02</pdfrwt>
<pdfrwt beam="2">  1       21 0.80819837E-01 0.81530625E+02</pdfrwt>
<totfact> 0.30377878E+04</totfact>
</mgrwt>
</event>
<event>
 5    1  0.1365600E-001  0.1589710E+03  0.7546771E-02  0.1189863E+00
         21   -1    0    0  503  502  0.00000000000E+00  0.00000000000E+00  0.74716766575E+02  0.74716766575E+02  0.00000000000E+00 0.  1.
         21   -1    0    0  501  503 -0.00000000000E+00 -0.00000000000E+00 -0.42042827578E+03  0.42042827578E+03  0.00000000000E+00 0. -1.
         24    1    1    2    0    0  0.72386321991E+01  0.99188235987E+02 -0.38095538680E+02  0.13345107709E+03  0.80419002446E+02 0.  1.
          1    1    1    2  501    0 -0.92895982323E+01 -0.14444362884E+03 -0.24128294290E+03  0.28136758356E+03  0.00000000000E+00 0. -1.
         -2    1    1    2    0  502  0.20509660332E+01  0.45255392848E+02 -0.66333027627E+02  0.80326381704E+02  0.00000000000E+00 0.  1.
<mgrwt>
<rscale>  2 0.15897098E+03</rscale>
<asrwt>0</asrwt>
<pdfrwt beam="1">  1       21 0.11494887E-01 0.15897098E+03</pdfrwt>
<pdfrwt beam="2">  1       21 0.64681273E-01 0.15897098E+03</pdfrwt>
<totfact> 0.14127212E+05</totfact>
</mgrwt>
</event>
<event>
 5    1  0.1365600E-001  0.1086375E+03  0.7546771E-02  0.1263114E+00
         21   -1    0    0  503  502  0.00000000000E+00  0.00000000000E+00  0.81134646663E+02  0.81134646663E+02  0.00000000000E+00 0.  1.
         21   -1    0    0  501  503 -0.00000000000E+00 -0.00000000000E+00 -0.16689713437E+03  0.16689713437E+03  0.00000000000E+00 0.  1.
         24    1    1    2    0    0  0.37053735142E+01  0.35099972588E+02  0.38961375115E+01  0.87909804405E+02  0.80419002446E+02 0.  1.
          1    1    1    2  501    0 -0.32118528187E+01  0.47120402629E+02 -0.50189399374E+02  0.68917517019E+02  0.00000000000E+00 0. -1.
         -2    1    1    2    0  502 -0.49352069551E+00 -0.82220375217E+02 -0.39469225840E+02  0.91204459606E+02  0.00000000000E+00 0.  1.
<mgrwt>
<rscale>  2 0.10863751E+03</rscale>
<asrwt>0</asrwt>
<pdfrwt beam="1">  1       21 0.12482254E-01 0.10863751E+03</pdfrwt>
<pdfrwt beam="2">  1       21 0.25676482E-01 0.10863751E+03</pdfrwt>
<totfact> 0.78914933E+05</totfact>
</mgrwt>
</event>
<event>
 5    1  0.1365600E-001  0.7550760E+02  0.7546771E-02  0.1342306E+00
         21   -1    0    0  501  502  0.00000000000E+00  0.00000000000E+00  0.78775029550E+03  0.78775029550E+03  0.00000000000E+00 0.  1.
         21   -1    0    0  502  503 -0.00000000000E+00 -0.00000000000E+00 -0.18402084046E+02  0.18402084046E+02  0.00000000000E+00 0. -1.
         24    1    1    2    0    0  0.71696524477E+01 -0.19686311051E+02  0.69496022657E+03  0.69991134241E+03  0.80419002446E+02 0.  1.
          1    1    1    2  501    0  0.21342457708E+02  0.30663365214E+02  0.63748692589E+02  0.73889365095E+02  0.00000000000E+00 0. -1.
         -2    1    1    2    0  503 -0.28512110155E+02 -0.10977054163E+02  0.10639292294E+02  0.32351672045E+02  0.00000000000E+00 0.  1.
<mgrwt>
<rscale>  2 0.75507599E+02</rscale>
<asrwt>0</asrwt>
<pdfrwt beam="1">  1       21 0.12119233E+00 0.75507599E+02</pdfrwt>
<pdfrwt beam="2">  1       21 0.28310905E-02 0.75507599E+02</pdfrwt>
<totfact> 0.36982823E+05</totfact>
</mgrwt>
</event>
<event>
 5    1  0.1365600E-001  0.9047665E+02  0.7546771E-02  0.1301702E+00
         21   -1    0    0  503  502  0.00000000000E+00  0.00000000000E+00  0.11992162878E+02  0.11992162878E+02  0.00000000000E+00 0.  1.
         21   -1    0    0  501  503 -0.00000000000E+00 -0.00000000000E+00 -0.15779681705E+04  0.15779681705E+04  0.00000000000E+00 0. -1.
         24    1    1    2    0    0  0.15264080190E+02  0.54165394168E+02 -0.21541643019E+03  0.23672417794E+03  0.80419002446E+02 0.  1.
          1    1    1    2  501    0 -0.35160350441E+02 -0.13751553261E+02 -0.77363919576E+03  0.77455984964E+03  0.00000000000E+00 0. -1.
         -2    1    1    2    0  502  0.19896270251E+02 -0.40413840907E+02 -0.57692038167E+03  0.57867630580E+03  0.00000000000E+00 0.  1.
<mgrwt>
<rscale>  2 0.90476649E+02</rscale>
<asrwt>0</asrwt>
<pdfrwt beam="1">  1       21 0.18449481E-02 0.90476649E+02</pdfrwt>
<pdfrwt beam="2">  1       21 0.24276434E+00 0.90476649E+02</pdfrwt>
<totfact> 0.11207559E+05</totfact>
</mgrwt>
</event>
<event>
 5    1  0.1365600E-001  0.1587568E+03  0.7546771E-02  0.1190108E+00
         21   -1    0    0  501  502  0.00000000000E+00  0.00000000000E+00  0.78926356493E+03  0.78926356493E+03  0.00000000000E+00 0. -1.
         21   -1    0    0  502  503 -0.00000000000E+00 -0.00000000000E+00 -0.83766764489E+02  0.83766764489E+02  0.00000000000E+00 0. -1.
         24    1    1    2    0    0  0.35154703106E+02 -0.12674482741E+03  0.68948983227E+03  0.70651507357E+03  0.80419002446E+02 0. -1.
          1    1    1    2  501    0 -0.47168238975E+02  0.12941631494E+02  0.17844656714E+02  0.52064962950E+02  0.00000000000E+00 0. -1.
         -2    1    1    2    0  503  0.12013535869E+02  0.11380319592E+03 -0.18376885458E+01  0.11445029290E+03  0.00000000000E+00 0.  1.
<mgrwt>
<rscale>  2 0.15875675E+03</rscale>
<asrwt>0</asrwt>
<pdfrwt beam="1">  1       21 0.12142516E+00 0.15875675E+03</pdfrwt>
<pdfrwt beam="2">  1       21 0.12887195E-01 0.15875675E+03</pdfrwt>
<totfact> 0.27051586E+04</totfact>
</mgrwt>
</event>
<event>
 5    1  0.1365600E-001  0.1187701E+03  0.7546771E-02  0.1245140E+00
         21   -1    0    0  503  502  0.00000000000E+00  0.00000000000E+00  0.18399157834E+03  0.18399157834E+03  0.00000000000E+00 0. -1.
         21   -1    0    0  501  503 -0.00000000000E+00 -0.00000000000E+00 -0.36902463522E+03  0.36902463522E+03  0.00000000000E+00 0. -1.
         24    1    1    2    0    0 -0.46395175937E+02 -0.20400280096E+02  0.13358852175E+03  0.16395667988E+03  0.80419002446E+02 0. -1.
          1    1    1    2  501    0  0.84213622981E+02 -0.20607870136E+02 -0.32171207782E+03  0.33318955509E+03  0.00000000000E+00 0. -1.
         -2    1    1    2    0  502 -0.37818447044E+02  0.41008150232E+02  0.30904991841E+01  0.55869978588E+02  0.00000000000E+00 0.  1.
<mgrwt>
<rscale>  2 0.11877011E+03</rscale>
<asrwt>0</asrwt>
<pdfrwt beam="1">  1       21 0.28306397E-01 0.11877011E+03</pdfrwt>
<pdfrwt beam="2">  1       21 0.56773021E-01 0.11877011E+03</pdfrwt>
<totfact> 0.36280948E+04</totfact>
</mgrwt>
</event>
<event>
 5    1  0.1365600E-001  0.7068262E+02  0.7546771E-02  0.1357787E+00
         21   -1    0    0  501  502  0.00000000000E+00  0.00000000000E+00  0.21225397415E+02  0.21225397415E+02  0.00000000000E+00 0.  1.
         21   -1    0    0  502  503 -0.00000000000E+00 -0.00000000000E+00 -0.36227304336E+03  0.36227304336E+03  0.00000000000E+00 0. -1.
         24    1    1    2    0    0  0.51389393112E+01 -0.32523558030E+02 -0.84949479121E+02  0.12152292163E+03  0.80419002446E+02 0.  1.
          1    1    1    2  501    0 -0.24414085550E+02  0.18025024122E+02 -0.16318665820E+03  0.16598444048E+03  0.00000000000E+00 0. -1.
         -2    1    1    2    0  503  0.19275146239E+02  0.14498533907E+02 -0.92911508623E+02  0.95991078661E+02  0.00000000000E+00 0.  1.
<mgrwt>
<rscale>  2 0.70682616E+02</rscale>
<asrwt>0</asrwt>
<pdfrwt beam="1">  1       21 0.32654460E-02 0.70682616E+02</pdfrwt>
<pdfrwt beam="2">  1       21 0.55734310E-01 0.70682616E+02</pdfrwt>
<totfact> 0.16367202E+06</totfact>
</mgrwt>
</event>
<event>
 5    1  0.1365600E-001  0.7282789E+02  0.7546771E-02  0.1350732E+00
         21   -1    0    0  501  502  0.00000000000E+00  0.00000000000E+00  0.33503318039E+02  0.33503318039E+02  0.00000000000E+00 0.  1.
         21   -1    0    0  502  503 -0.00000000000E+00 -0.00000000000E+00 -0.50727643057E+03  0.50727643057E+03  0.00000000000E+00 0.  1.
         24    1    1    2    0    0  0.25122679782E+02  0.19220601381E+02 -0.32561743509E+02  0.92347515676E+02  0.80419002446E+02 0.  1.
          1    1    1    2  501    0 -0.64828292288E+01 -0.34520786320E+02 -0.93404262664E+02  0.99790119986E+02  0.00000000000E+00 0. -1.
         -2    1    1    2    0  503 -0.18639850553E+02  0.15300184939E+02 -0.34780710635E+03  0.34864211294E+03  0.00000000000E+00 0.  1.
<mgrwt>
<rscale>  2 0.72827890E+02</rscale>
<asrwt>0</asrwt>
<pdfrwt beam="1">  1       21 0.51543568E-02 0.72827890E+02</pdfrwt>
<pdfrwt beam="2">  1       21 0.78042525E-01 0.72827890E+02</pdfrwt>
<totfact> 0.37966874E+05</totfact>
</mgrwt>
</event>
<event>
 5    1  0.1365600E-001  0.8427243E+02  0.7546771E-02  0.1317346E+00
         21   -1    0    0  503  502  0.00000000000E+00  0.00000000000E+00  0.70652399956E+02  0.70652399956E+02  0.00000000000E+00 0.  1.
         21   -1    0    0  501  503 -0.00000000000E+00 -0.00000000000E+00 -0.14093387881E+03  0.14093387881E+03  0.00000000000E+00 0. -1.
         24    1    1    2    0    0  0.30895802030E+01  0.31205814347E+02  0.12191439272E+02  0.87173364629E+02  0.80419002446E+02 0.  1.
          1    1    1    2  501    0  0.35393175749E+02 -0.51779542151E+01 -0.66092943266E+02  0.75151615080E+02  0.00000000000E+00 0. -1.
         -2    1    1    2    0  502 -0.38482755952E+02 -0.26027860132E+02 -0.16379974863E+02  0.49261299062E+02  0.00000000000E+00 0.  1.
<mgrwt>
<rscale>  2 0.84272433E+02</rscale>
<asrwt>0</asrwt>
<pdfrwt beam="1">  1       21 0.10869600E-01 0.84272433E+02</pdfrwt>
<pdfrwt beam="2">  1       21 0.21682135E-01 0.84272433E+02</pdfrwt>
<totfact> 0.13717115E+06</totfact>
</mgrwt>
</event>
<event>
 5    1  0.1365600E-001  0.9490299E+02  0.7546771E-02  0.1291395E+00
         21   -1    0    0  501  502  0.00000000000E+00  0.00000000000E+00  0.53414087995E+02  0.53414087995E+02  0.00000000000E+00 0. -1.
         21   -1    0    0  502  503 -0.00000000000E+00 -0.00000000000E+00 -0.49704452249E+03  0.49704452249E+03  0.00000000000E+00 0.  1.
         24    1    1    2    0    0  0.48230244479E+02  0.11990145703E+02 -0.13780410936E+02  0.95535520915E+02  0.80419002446E+02 0. -1.
          1    1    1    2  501    0 -0.49495731228E+02 -0.42193707176E+02 -0.77051968311E+02  0.10083224760E+03  0.00000000000E+00 0. -1.
         -2    1    1    2    0  503  0.12654867486E+01  0.30203561473E+02 -0.35279805525E+03  0.35409084197E+03  0.00000000000E+00 0.  1.
<mgrwt>
<rscale>  2 0.94902993E+02</rscale>
<asrwt>0</asrwt>
<pdfrwt beam="1">  1       21 0.82175518E-02 0.94902993E+02</pdfrwt>
<pdfrwt beam="2">  1       21 0.76468390E-01 0.94902993E+02</pdfrwt>
<totfact> 0.17995294E+05</totfact>
</mgrwt>
</event>
<event>
 5    1  0.1365600E-001  0.6974569E+02  0.7546771E-02  0.1360960E+00
         21   -1    0    0  503  502  0.00000000000E+00  0.00000000000E+00  0.12709237844E+04  0.12709237844E+04  0.00000000000E+00 0. -1.
         21   -1    0    0  501  503 -0.00000000000E+00 -0.00000000000E+00 -0.13535583291E+02  0.13535583291E+02  0.00000000000E+00 0. -1.
         24    1    1    2    0    0  0.36191243524E+01  0.32256924042E+02  0.12085207985E+04  0.12116283851E+04  0.80419002446E+02 0. -1.
          1    1    1    2  501    0  0.18623479107E+02 -0.20174745695E+02  0.17646442457E+02  0.32638187286E+02  0.00000000000E+00 0. -1.
         -2    1    1    2    0  502 -0.22242603459E+02 -0.12082178346E+02  0.31220960170E+02  0.40192795327E+02  0.00000000000E+00 0.  1.
<mgrwt>
<rscale>  2 0.69745693E+02</rscale>
<asrwt>0</asrwt>
<pdfrwt beam="1">  1       21 0.19552664E+00 0.69745693E+02</pdfrwt>
<pdfrwt beam="2">  1       21 0.20823984E-02 0.69745693E+02</pdfrwt>
<totfact> 0.17860310E+05</totfact>
</mgrwt>
</event>
<event>
 5    1  0.1365600E-001  0.1268970E+03  0.7546771E-02  0.1232134E+00
         21   -1    0    0  501  502  0.00000000000E+00  0.00000000000E+00  0.30818108745E+02  0.30818108745E+02  0.00000000000E+00 0.  1.
         21   -1    0    0  502  503 -0.00000000000E+00 -0.00000000000E+00 -0.52641892570E+03  0.52641892570E+03  0.00000000000E+00 0. -1.
         24    1    1    2    0    0  0.66637546849E+02 -0.31860777632E+02 -0.18983349081E+03  0.21899689950E+03  0.80419002446E+02 0.  1.
          1    1    1    2  501    0 -0.10702553956E+01 -0.44181976625E+02 -0.91593089476E+02  0.10169801643E+03  0.00000000000E+00 0. -1.
         -2    1    1    2    0  503 -0.65567291454E+02  0.76042754256E+02 -0.21417423667E+03  0.23654211852E+03  0.00000000000E+00 0.  1.
<mgrwt>
<rscale>  2 0.12689697E+03</rscale>
<asrwt>0</asrwt>
<pdfrwt beam="1">  1       21 0.47412476E-02 0.12689697E+03</pdfrwt>
<pdfrwt beam="2">  1       21 0.80987525E-01 0.12689697E+03</pdfrwt>
<totfact> 0.39881570E+05</totfact>
</mgrwt>
</event>
<event>
 5    1  0.1365600E-001  0.7411266E+02  0.7546771E-02  0.1346641E+00
         21   -1    0    0  503  502  0.00000000000E+00  0.00000000000E+00  0.35216468815E+02  0.35216468815E+02  0.00000000000E+00 0.  1.
         21   -1    0    0  501  503 -0.00000000000E+00 -0.00000000000E+00 -0.25012238517E+03  0.25012238517E+03  0.00000000000E+00 0. -1.
         24    1    1    2    0    0  0.16468104154E+02  0.19919607845E+01 -0.30513690988E+02  0.87598331344E+02  0.80419002446E+02 0.  1.
          1    1    1    2  501    0 -0.24878092865E+02  0.26534457120E+02 -0.13735975401E+03  0.14209397926E+03  0.00000000000E+00 0. -1.
         -2    1    1    2    0  502  0.84099887114E+01 -0.28526417905E+02 -0.47032471348E+02  0.55646543376E+02  0.00000000000E+00 0.  1.
<mgrwt>
<rscale>  2 0.74112659E+02</rscale>
<asrwt>0</asrwt>
<pdfrwt beam="1">  1       21 0.54179184E-02 0.74112659E+02</pdfrwt>
<pdfrwt beam="2">  1       21 0.38480366E-01 0.74112659E+02</pdfrwt>
<totfact> 0.15025751E+06</totfact>
</mgrwt>
</event>
<event>
 5    1  0.1365600E-001  0.6699604E+02  0.7546771E-02  0.1370617E+00
         21   -1    0    0  503  502  0.00000000000E+00  0.00000000000E+00  0.42514795604E+01  0.42514795604E+01  0.00000000000E+00 0.  1.
         21   -1    0    0  501  503 -0.00000000000E+00 -0.00000000000E+00 -0.11945436917E+04  0.11945436917E+04  0.00000000000E+00 0. -1.
         24    1    1    2    0    0  0.15157965087E+02  0.81206184888E+01 -0.51889900552E+03  0.52537520139E+03  0.80419002446E+02 0.  0.
          1    1    1    2  501    0 -0.48157010560E+01 -0.28498724368E+02 -0.41819494761E+03  0.41919253628E+03  0.00000000000E+00 0. -1.
         -2    1    1    2    0  502 -0.10342264031E+02  0.20378105879E+02 -0.25319825899E+03  0.25422743357E+03  0.00000000000E+00 0.  1.
<mgrwt>
<rscale>  2 0.66996041E+02</rscale>
<asrwt>0</asrwt>
<pdfrwt beam="1">  1       21 0.65407251E-03 0.66996041E+02</pdfrwt>
<pdfrwt beam="2">  1       21 0.18377631E+00 0.66996041E+02</pdfrwt>
<totfact> 0.12900530E+06</totfact>
</mgrwt>
</event>
<event>
 5    1  0.1365600E-001  0.8469608E+02  0.7546771E-02  0.1316229E+00
         21   -1    0    0  503  502  0.00000000000E+00  0.00000000000E+00  0.94925715787E+01  0.94925715787E+01  0.00000000000E+00 0. -1.
         21   -1    0    0  501  503 -0.00000000000E+00 -0.00000000000E+00 -0.12598977281E+04  0.12598977281E+04  0.00000000000E+00 0. -1.
         24    1    1    2    0    0  0.20138326864E+02  0.45751211697E+02 -0.27157201837E+03  0.28760615900E+03  0.80419002446E+02 0. -1.
          1    1    1    2  501    0 -0.34315006149E+02 -0.92409926389E+01 -0.55882354972E+03  0.55995238665E+03  0.00000000000E+00 0. -1.
         -2    1    1    2    0  502  0.14176679285E+02 -0.36510219058E+02 -0.42000958844E+03  0.42183175404E+03  0.00000000000E+00 0.  1.
<mgrwt>
<rscale>  2 0.84696082E+02</rscale>
<asrwt>0</asrwt>
<pdfrwt beam="1">  1       21 0.14603970E-02 0.84696082E+02</pdfrwt>
<pdfrwt beam="2">  1       21 0.19383024E+00 0.84696082E+02</pdfrwt>
<totfact> 0.31755548E+05</totfact>
</mgrwt>
</event>
<event>
 5    1  0.1365600E-001  0.9534989E+02  0.7546771E-02  0.1290390E+00
         21   -1    0    0  501  502  0.00000000000E+00  0.00000000000E+00  0.48482586704E+01  0.48482586704E+01  0.00000000000E+00 0. -1.
         21   -1    0    0  502  503 -0.00000000000E+00 -0.00000000000E+00 -0.19016255339E+04  0.19016255339E+04  0.00000000000E+00 0.  1.
         24    1    1    2    0    0  0.25412883182E+02 -0.30689231460E+02 -0.83068654509E+03  0.83552079311E+03  0.80419002446E+02 0.  0.
          1    1    1    2  501    0  0.32477083405E+02 -0.51237270259E+01 -0.42047512435E+03  0.42175863206E+03  0.00000000000E+00 0. -1.
         -2    1    1    2    0  503 -0.57889966587E+02  0.35812958486E+02 -0.64561560582E+03  0.64919436743E+03  0.00000000000E+00 0.  1.
<mgrwt>
<rscale>  2 0.95349890E+02</rscale>
<asrwt>0</asrwt>
<pdfrwt beam="1">  1       21 0.74588659E-03 0.95349890E+02</pdfrwt>
<pdfrwt beam="2">  1       21 0.29255752E+00 0.95349890E+02</pdfrwt>
<totfact> 0.24502071E+05</totfact>
</mgrwt>
</event>
<event>
 5    1  0.1365600E-001  0.6682252E+02  0.7546771E-02  0.1371244E+00
         21   -1    0    0  501  502  0.00000000000E+00  0.00000000000E+00  0.28123845075E+03  0.28123845075E+03  0.00000000000E+00 0. -1.
         21   -1    0    0  502  503 -0.00000000000E+00 -0.00000000000E+00 -0.31886040661E+02  0.31886040661E+02  0.00000000000E+00 0.  1.
         24    1    1    2    0    0 -0.81558038873E+01 -0.63146335145E+01  0.24700603189E+03  0.25997228213E+03  0.80419002446E+02 0.  0.
          1    1    1    2  501    0 -0.19583195527E+02  0.13654547491E+02  0.48087745891E+01  0.24353080447E+02  0.00000000000E+00 0. -1.
         -2    1    1    2    0  503  0.27738999414E+02 -0.73399139764E+01 -0.24623963848E+01  0.28799128835E+02  0.00000000000E+00 0.  1.
<mgrwt>
<rscale>  2 0.66822521E+02</rscale>
<asrwt>0</asrwt>
<pdfrwt beam="1">  1       21 0.43267452E-01 0.66822521E+02</pdfrwt>
<pdfrwt beam="2">  1       21 0.49055449E-02 0.66822521E+02</pdfrwt>
<totfact> 0.14004662E+06</totfact>
</mgrwt>
</event>
<event>
 5    1  0.1365600E-001  0.1422557E+03  0.7546771E-02  0.1210326E+00
         21   -1    0    0  503  502  0.00000000000E+00  0.00000000000E+00  0.46640530735E+02  0.46640530735E+02  0.00000000000E+00 0.  1.
         21   -1    0    0  501  503 -0.00000000000E+00 -0.00000000000E+00 -0.54318406545E+03  0.54318406545E+03  0.00000000000E+00 0.  1.
         24    1    1    2    0    0 -0.42708507878E+02  0.11993043834E+03 -0.12872062741E+03  0.19809982978E+03  0.80419002446E+02 0.  1.
          1    1    1    2  501    0  0.20846216884E+02 -0.12517770205E+02 -0.84762728586E+02  0.88181514427E+02  0.00000000000E+00 0. -1.
         -2    1    1    2    0  502  0.21862290994E+02 -0.10741266813E+03 -0.28306017873E+03  0.30354325198E+03  0.00000000000E+00 0.  1.
<mgrwt>
<rscale>  2 0.14225574E+03</rscale>
<asrwt>0</asrwt>
<pdfrwt beam="1">  1       21 0.71754663E-02 0.14225574E+03</pdfrwt>
<pdfrwt beam="2">  1       21 0.83566779E-01 0.14225574E+03</pdfrwt>
<totfact> 0.18345206E+05</totfact>
</mgrwt>
</event>
<event>
 5    1  0.1365600E-001  0.1005798E+03  0.7546771E-02  0.1279081E+00
         21   -1    0    0  501  502  0.00000000000E+00  0.00000000000E+00  0.42980427408E+03  0.42980427408E+03  0.00000000000E+00 0. -1.
         21   -1    0    0  502  503 -0.00000000000E+00 -0.00000000000E+00 -0.24155936937E+02  0.24155936937E+02  0.00000000000E+00 0.  1.
         24    1    1    2    0    0  0.34763911621E+02  0.69033065769E+01  0.18905196578E+03  0.20848032740E+03  0.80419002446E+02 0. -1.
          1    1    1    2  501    0  0.37154215072E+02  0.11770017034E+02  0.98774852381E+02  0.10618587694E+03  0.00000000000E+00 0. -1.
         -2    1    1    2    0  503 -0.71918126692E+02 -0.18673323611E+02  0.11782151899E+03  0.13929400668E+03  0.00000000000E+00 0.  1.
<mgrwt>
<rscale>  2 0.10057983E+03</rscale>
<asrwt>0</asrwt>
<pdfrwt beam="1">  1       21 0.66123729E-01 0.10057983E+03</pdfrwt>
<pdfrwt beam="2">  1       21 0.37162983E-02 0.10057983E+03</pdfrwt>
<totfact> 0.93276536E+05</totfact>
</mgrwt>
</event>
<event>
 5    1  0.1365600E-001  0.8617159E+02  0.7546771E-02  0.1312397E+00
         21   -1    0    0  501  502  0.00000000000E+00  0.00000000000E+00  0.40316583015E+02  0.40316583015E+02  0.00000000000E+00 0.  1.
         21   -1    0    0  502  503 -0.00000000000E+00 -0.00000000000E+00 -0.19044589925E+03  0.19044589925E+03  0.00000000000E+00 0.  1.
         24    1    1    2    0    0 -0.15288803793E+02 -0.39146516653E+02 -0.58077142054E+02  0.10773285326E+03  0.80419002446E+02 0.  1.
          1    1    1    2  501    0 -0.25585209690E+02  0.30529041803E+02 -0.46302777062E+02  0.61078412815E+02  0.00000000000E+00 0. -1.
         -2    1    1    2    0  503  0.40874013483E+02  0.86174748495E+01 -0.45749397116E+02  0.61951216191E+02  0.00000000000E+00 0.  1.
<mgrwt>
<rscale>  2 0.86171586E+02</rscale>
<asrwt>0</asrwt>
<pdfrwt beam="1">  1       21 0.62025511E-02 0.86171586E+02</pdfrwt>
<pdfrwt beam="2">  1       21 0.29299370E-01 0.86171586E+02</pdfrwt>
<totfact> 0.20389900E+06</totfact>
</mgrwt>
</event>
<event>
 5    1  0.1365600E-001  0.1488699E+03  0.7546771E-02  0.1201869E+00
         21   -1    0    0  503  502  0.00000000000E+00  0.00000000000E+00  0.16786567144E+02  0.16786567144E+02  0.00000000000E+00 0. -1.
         21   -1    0    0  501  503 -0.00000000000E+00 -0.00000000000E+00 -0.18514809221E+04  0.18514809221E+04  0.00000000000E+00 0. -1.
         24    1    1    2    0    0  0.41565537717E+02 -0.85375005777E+00 -0.26056393298E+03  0.27584271231E+03  0.80419002446E+02 0. -1.
          1    1    1    2  501    0 -0.10333723728E+03  0.61821777991E+02 -0.12828347815E+04  0.12884741338E+04  0.00000000000E+00 0. -1.
         -2    1    1    2    0  502  0.61771699560E+02 -0.60968027934E+02 -0.29129564048E+03  0.30395064313E+03  0.00000000000E+00 0.  1.
<mgrwt>
<rscale>  2 0.14886991E+03</rscale>
<asrwt>0</asrwt>
<pdfrwt beam="1">  1       21 0.25825487E-02 0.14886991E+03</pdfrwt>
<pdfrwt beam="2">  1       21 0.28484323E+00 0.14886991E+03</pdfrwt>
<totfact> 0.35292621E+04</totfact>
</mgrwt>
</event>
<event>
 5    1  0.1365600E-001  0.8598853E+02  0.7546771E-02  0.1312867E+00
         21   -1    0    0  501  502  0.00000000000E+00  0.00000000000E+00  0.57732985565E+02  0.57732985565E+02  0.00000000000E+00 0.  1.
         21   -1    0    0  502  503 -0.00000000000E+00 -0.00000000000E+00 -0.81004687237E+03  0.81004687237E+03  0.00000000000E+00 0.  1.
         24    1    1    2    0    0  0.22923469185E+02  0.21906394573E+02  0.21468085998E+02  0.89070029940E+02  0.80419002446E+02 0.  1.
          1    1    1    2  501    0 -0.14914091397E+02  0.29739513831E+02 -0.22525390078E+03  0.22769758150E+03  0.00000000000E+00 0. -1.
         -2    1    1    2    0  503 -0.80093777885E+01 -0.51645908404E+02 -0.54852807202E+03  0.55101224649E+03  0.00000000000E+00 0.  1.
<mgrwt>
<rscale>  2 0.85988533E+02</rscale>
<asrwt>0</asrwt>
<pdfrwt beam="1">  1       21 0.88819976E-02 0.85988533E+02</pdfrwt>
<pdfrwt beam="2">  1       21 0.12462260E+00 0.85988533E+02</pdfrwt>
<totfact> 0.51418786E+04</totfact>
</mgrwt>
</event>
<event>
 5    1  0.1694442E-001  0.3162934E+03  0.7546771E-02  0.1077368E+00
         21   -1    0    0  503  502  0.00000000000E+00  0.00000000000E+00  0.16035734693E+03  0.16035734693E+03  0.00000000000E+00 0.  1.
         21   -1    0    0  501  503 -0.00000000000E+00 -0.00000000000E+00 -0.68626695444E+03  0.68626695444E+03  0.00000000000E+00 0. -1.
         24    1    1    2    0    0 -0.11854524159E+03  0.62460337017E+02 -0.16138972848E+03  0.22465112601E+03  0.80419002446E+02 0. -1.
          1    1    1    2  501    0  0.25496746792E+03  0.91240841098E+02 -0.30530930808E+03  0.40810179414E+03  0.00000000000E+00 0. -1.
         -2    1    1    2    0  502 -0.13642222633E+03 -0.15370117812E+03 -0.59210570957E+02  0.21387138122E+03  0.00000000000E+00 0.  1.
<mgrwt>
<rscale>  2 0.31629335E+03</rscale>
<asrwt>0</asrwt>
<pdfrwt beam="1">  1       21 0.24670361E-01 0.31629335E+03</pdfrwt>
<pdfrwt beam="2">  1       21 0.10557953E+00 0.31629335E+03</pdfrwt>
<totfact> 0.10454419E+04</totfact>
</mgrwt>
</event>
<event>
 5    1  0.1365600E-001  0.9615191E+02  0.7546771E-02  0.1288603E+00
         21   -1    0    0  501  502  0.00000000000E+00  0.00000000000E+00  0.18234190951E+02  0.18234190951E+02  0.00000000000E+00 0. -1.
         21   -1    0    0  502  503 -0.00000000000E+00 -0.00000000000E+00 -0.53859132957E+03  0.53859132957E+03  0.00000000000E+00 0. -1.
         24    1    1    2    0    0 -0.30254924427E+02 -0.89945175799E+01 -0.16829747496E+03  0.18917589126E+03  0.80419002446E+02 0. -1.
          1    1    1    2  501    0  0.26640776853E+02  0.54289316224E+02 -0.19813378520E+03  0.20715708456E+03  0.00000000000E+00 0. -1.
         -2    1    1    2    0  503  0.36141475739E+01 -0.45294798644E+02 -0.15392587846E+03  0.16049254471E+03  0.00000000000E+00 0.  1.
<mgrwt>
<rscale>  2 0.96151909E+02</rscale>
<asrwt>0</asrwt>
<pdfrwt beam="1">  1       21 0.28052598E-02 0.96151909E+02</pdfrwt>
<pdfrwt beam="2">  1       21 0.82860214E-01 0.96151909E+02</pdfrwt>
<totfact> 0.90191863E+05</totfact>
</mgrwt>
</event>
<event>
 5    1  0.1365600E-001  0.1097936E+03  0.7546771E-02  0.1260953E+00
         21   -1    0    0  501  502  0.00000000000E+00  0.00000000000E+00  0.70639312619E+03  0.70639312619E+03  0.00000000000E+00 0.  1.
         21   -1    0    0  502  503 -0.00000000000E+00 -0.00000000000E+00 -0.38023457934E+02  0.38023457934E+02  0.00000000000E+00 0. -1.
         24    1    1    2    0    0  0.71262570051E+02  0.28807722871E+00  0.60532503547E+03  0.61478781006E+03  0.80419002446E+02 0.  1.
          1    1    1    2  501    0 -0.70622588613E+02 -0.34026241586E+02  0.52212617421E+02  0.94188600992E+02  0.00000000000E+00 0. -1.
         -2    1    1    2    0  503 -0.63998143808E+00  0.33738164357E+02  0.10832015367E+02  0.35440173071E+02  0.00000000000E+00 0.  1.
<mgrwt>
<rscale>  2 0.10979356E+03</rscale>
<asrwt>0</asrwt>
<pdfrwt beam="1">  1       21 0.10867586E+00 0.10979356E+03</pdfrwt>
<pdfrwt beam="2">  1       21 0.58497633E-02 0.10979356E+03</pdfrwt>
<totfact> 0.14305753E+05</totfact>
</mgrwt>
</event>
<event>
 5    1  0.1365600E-001  0.4901823E+03  0.7546771E-02  0.1016374E+00
         21   -1    0    0  501  502  0.00000000000E+00  0.00000000000E+00  0.20884057439E+03  0.20884057439E+03  0.00000000000E+00 0. -1.
         21   -1    0    0  502  503 -0.00000000000E+00 -0.00000000000E+00 -0.12841175666E+04  0.12841175666E+04  0.00000000000E+00 0.  1.
         24    1    1    2    0    0 -0.76157875894E+01 -0.10706185533E+03 -0.97980385291E+02  0.16609519241E+03  0.80419002446E+02 0. -1.
          1    1    1    2  501    0 -0.34638353441E+03 -0.18011308177E+03 -0.23471915983E+03  0.45553853748E+03  0.00000000000E+00 0. -1.
         -2    1    1    2    0  503  0.35399932200E+03  0.28717493710E+03 -0.74257744712E+03  0.87132441113E+03  0.00000000000E+00 0.  1.
<mgrwt>
<rscale>  2 0.49018232E+03</rscale>
<asrwt>0</asrwt>
<pdfrwt beam="1">  1       21 0.32129318E-01 0.49018232E+03</pdfrwt>
<pdfrwt beam="2">  1       21 0.19755655E+00 0.49018232E+03</pdfrwt>
<totfact> 0.10661218E+03</totfact>
</mgrwt>
</event>
<event>
 5    1  0.1365600E-001  0.1148223E+03  0.7546771E-02  0.1251892E+00
         21   -1    0    0  503  502  0.00000000000E+00  0.00000000000E+00  0.15046452965E+04  0.15046452965E+04  0.00000000000E+00 0.  1.
         21   -1    0    0  501  503 -0.00000000000E+00 -0.00000000000E+00 -0.16488536254E+03  0.16488536254E+03  0.00000000000E+00 0. -1.
         24    1    1    2    0    0  0.41620699824E+02 -0.53138718169E+02  0.56002589821E+03  0.56978261525E+03  0.80419002446E+02 0.  0.
          1    1    1    2  501    0 -0.76122442899E+01 -0.32042269029E+02 -0.15604617239E+03  0.15948373329E+03  0.00000000000E+00 0. -1.
         -2    1    1    2    0  502 -0.34008455534E+02  0.85180987198E+02  0.93578020813E+03  0.94026431048E+03  0.00000000000E+00 0.  1.
<mgrwt>
<rscale>  2 0.11482231E+03</rscale>
<asrwt>0</asrwt>
<pdfrwt beam="1">  1       21 0.23148388E+00 0.11482231E+03</pdfrwt>
<pdfrwt beam="2">  1       21 0.25366980E-01 0.11482231E+03</pdfrwt>
<totfact> 0.14108974E+03</totfact>
</mgrwt>
</event>
<event>
 5    1  0.1365600E-001  0.1030654E+03  0.7546771E-02  0.1273979E+00
         21   -1    0    0  501  502  0.00000000000E+00  0.00000000000E+00  0.30026846059E+03  0.30026846059E+03  0.00000000000E+00 0. -1.
         21   -1    0    0  502  503 -0.00000000000E+00 -0.00000000000E+00 -0.13767628133E+03  0.13767628133E+03  0.00000000000E+00 0. -1.
         24    1    1    2    0    0 -0.59416892110E+02 -0.14754610188E+02  0.24989481617E+03  0.26956019864E+03  0.80419002446E+02 0. -1.
          1    1    1    2  501    0  0.77332042530E+02 -0.60937687026E+01 -0.75387747736E+00  0.77575428778E+02  0.00000000000E+00 0. -1.
         -2    1    1    2    0  503 -0.17915150419E+02  0.20848378890E+02 -0.86548759434E+02  0.90809114501E+02  0.00000000000E+00 0.  1.
<mgrwt>
<rscale>  2 0.10306538E+03</rscale>
<asrwt>0</asrwt>
<pdfrwt beam="1">  1       21 0.46195148E-01 0.10306538E+03</pdfrwt>
<pdfrwt beam="2">  1       21 0.21180966E-01 0.10306538E+03</pdfrwt>
<totfact> 0.96581617E+04</totfact>
</mgrwt>
</event>
<event>
 5    1  0.1365600E-001  0.1041407E+03  0.7546771E-02  0.1271822E+00
         21   -1    0    0  501  502  0.00000000000E+00  0.00000000000E+00  0.38331740581E+02  0.38331740581E+02  0.00000000000E+00 0. -1.
         21   -1    0    0  502  503 -0.00000000000E+00 -0.00000000000E+00 -0.30258844641E+03  0.30258844641E+03  0.00000000000E+00 0.  1.
         24    1    1    2    0    0 -0.25332903439E+02 -0.48936159023E+02 -0.86849471706E+02  0.13056243850E+03  0.80419002446E+02 0.  0.
          1    1    1    2  501    0  0.89812675609E+01 -0.29414737639E+02 -0.32039547170E+02  0.44411963931E+02  0.00000000000E+00 0. -1.
         -2    1    1    2    0  503  0.16351635878E+02  0.78350896662E+02 -0.14536768695E+03  0.16594578456E+03  0.00000000000E+00 0.  1.
<mgrwt>
<rscale>  2 0.10414067E+03</rscale>
<asrwt>0</asrwt>
<pdfrwt beam="1">  1       21 0.58971910E-02 0.10414067E+03</pdfrwt>
<pdfrwt beam="2">  1       21 0.46552067E-01 0.10414067E+03</pdfrwt>
<totfact> 0.89893841E+05</totfact>
</mgrwt>
</event>
<event>
 5    1  0.1365600E-001  0.1031077E+03  0.7546771E-02  0.1273893E+00
         21   -1    0    0  503  502  0.00000000000E+00  0.00000000000E+00  0.26669518522E+02  0.26669518522E+02  0.00000000000E+00 0.  1.
         21   -1    0    0  501  503 -0.00000000000E+00 -0.00000000000E+00 -0.70443328488E+03  0.70443328488E+03  0.00000000000E+00 0.  1.
         24    1    1    2    0    0 -0.25709344512E+02 -0.81872431444E+02 -0.14231624534E+03  0.18462176217E+03  0.80419002446E+02 0.  1.
          1    1    1    2  501    0  0.20058774310E+02  0.28014351032E+02 -0.38581676908E+03  0.38735221388E+03  0.00000000000E+00 0. -1.
         -2    1    1    2    0  502  0.56505702023E+01  0.53858080412E+02 -0.14963075194E+03  0.15912882736E+03  0.00000000000E+00 0.  1.
<mgrwt>
<rscale>  2 0.10310766E+03</rscale>
<asrwt>0</asrwt>
<pdfrwt beam="1">  1       21 0.41030020E-02 0.10310766E+03</pdfrwt>
<pdfrwt beam="2">  1       21 0.10837437E+00 0.10310766E+03</pdfrwt>
<totfact> 0.26102914E+05</totfact>
</mgrwt>
</event>
<event>
 5    1  0.1365600E-001  0.1905048E+03  0.7546771E-02  0.1158007E+00
         21   -1    0    0  503  502  0.00000000000E+00  0.00000000000E+00  0.43657611831E+02  0.43657611831E+02  0.00000000000E+00 0. -1.
         21   -1    0    0  501  503 -0.00000000000E+00 -0.00000000000E+00 -0.95342875538E+03  0.95342875538E+03  0.00000000000E+00 0. -1.
         24    1    1    2    0    0 -0.62697497590E+02 -0.58226153639E+02 -0.16552991373E+03  0.20294982006E+03  0.80419002446E+02 0. -1.
          1    1    1    2  501    0  0.13792160248E+03  0.10645611575E+03 -0.59698236401E+03  0.62188681924E+03  0.00000000000E+00 0. -1.
         -2    1    1    2    0  502 -0.75224104889E+02 -0.48229962111E+02 -0.14725886582E+03  0.17224972791E+03  0.00000000000E+00 0.  1.
<mgrwt>
<rscale>  2 0.19050484E+03</rscale>
<asrwt>0</asrwt>
<pdfrwt beam="1">  1       21 0.67165552E-02 0.19050484E+03</pdfrwt>
<pdfrwt beam="2">  1       21 0.14668136E+00 0.19050484E+03</pdfrwt>
<totfact> 0.51553123E+04</totfact>
</mgrwt>
</event>
<event>
 5    1  0.1365600E-001  0.1172041E+03  0.7546771E-02  0.1247782E+00
         21   -1    0    0  501  502  0.00000000000E+00  0.00000000000E+00  0.79105659714E+03  0.79105659714E+03  0.00000000000E+00 0. -1.
         21   -1    0    0  502  503 -0.00000000000E+00 -0.00000000000E+00 -0.14595727513E+03  0.14595727513E+03  0.00000000000E+00 0.  1.
         24    1    1    2    0    0 -0.46681283948E+02  0.35135923096E+02  0.74909681942E+03  0.75566324258E+03  0.80419002446E+02 0. -1.
          1    1    1    2  501    0  0.26071346068E+02 -0.80802096205E+02 -0.26270331903E+02  0.88875329396E+02  0.00000000000E+00 0. -1.
         -2    1    1    2    0  503  0.20609937880E+02  0.45666173109E+02 -0.77727165517E+02  0.92475300298E+02  0.00000000000E+00 0.  1.
<mgrwt>
<rscale>  2 0.11720414E+03</rscale>
<asrwt>0</asrwt>
<pdfrwt beam="1">  1       21 0.12170101E+00 0.11720414E+03</pdfrwt>
<pdfrwt beam="2">  1       21 0.22454966E-01 0.11720414E+03</pdfrwt>
<totfact> 0.10090984E+04</totfact>
</mgrwt>
</event>
<event>
 5    1  0.1365600E-001  0.7542213E+02  0.7546771E-02  0.1342569E+00
         21   -1    0    0  501  502  0.00000000000E+00  0.00000000000E+00  0.46474310532E+02  0.46474310532E+02  0.00000000000E+00 0.  1.
         21   -1    0    0  502  503 -0.00000000000E+00 -0.00000000000E+00 -0.14210831980E+03  0.14210831980E+03  0.00000000000E+00 0. -1.
         24    1    1    2    0    0 -0.16566407102E+02 -0.11002161309E+02 -0.17699463335E+02  0.84711158382E+02  0.80419002446E+02 0.  0.
          1    1    1    2  501    0 -0.22920136453E+02 -0.78759215565E+01 -0.21070410454E+02  0.32114249050E+02  0.00000000000E+00 0. -1.
         -2    1    1    2    0  503  0.39486543555E+02  0.18878082865E+02 -0.56864135480E+02  0.71757222901E+02  0.00000000000E+00 0.  1.
<mgrwt>
<rscale>  2 0.75422128E+02</rscale>
<asrwt>0</asrwt>
<pdfrwt beam="1">  1       21 0.71498940E-02 0.75422128E+02</pdfrwt>
<pdfrwt beam="2">  1       21 0.21862818E-01 0.75422128E+02</pdfrwt>
<totfact> 0.27557225E+06</totfact>
</mgrwt>
</event>
<event>
 5    1  0.1365600E-001  0.6765758E+02  0.7546771E-02  0.1368245E+00
         21   -1    0    0  503  502  0.00000000000E+00  0.00000000000E+00  0.43320478475E+01  0.43320478475E+01  0.00000000000E+00 0. -1.
         21   -1    0    0  501  503 -0.00000000000E+00 -0.00000000000E+00 -0.10996393792E+04  0.10996393792E+04  0.00000000000E+00 0.  1.
         24    1    1    2    0    0 -0.16133198596E+02  0.33659396975E+01 -0.55488572732E+03  0.56092512511E+03  0.80419002446E+02 0. -1.
          1    1    1    2  501    0  0.27410361375E+01  0.23259817963E+02 -0.22124271828E+03  0.22247892665E+03  0.00000000000E+00 0. -1.
         -2    1    1    2    0  502  0.13392162459E+02 -0.26625757661E+02 -0.31917888572E+03  0.32056737525E+03  0.00000000000E+00 0.  1.
<mgrwt>
<rscale>  2 0.67657581E+02</rscale>
<asrwt>0</asrwt>
<pdfrwt beam="1">  1       21 0.66646853E-03 0.67657581E+02</pdfrwt>
<pdfrwt beam="2">  1       21 0.16917538E+00 0.67657581E+02</pdfrwt>
<totfact> 0.15611843E+06</totfact>
</mgrwt>
</event>
<event>
 5    1  0.1365600E-001  0.1001773E+03  0.7546771E-02  0.1279924E+00
         21   -1    0    0  503  502  0.00000000000E+00  0.00000000000E+00  0.16675520419E+02  0.16675520419E+02  0.00000000000E+00 0. -1.
         21   -1    0    0  501  503 -0.00000000000E+00 -0.00000000000E+00 -0.68234939337E+03  0.68234939337E+03  0.00000000000E+00 0.  1.
         24    1    1    2    0    0 -0.12513889987E+02  0.33505458484E+02 -0.17974789466E+03  0.20013928845E+03  0.80419002446E+02 0. -1.
          1    1    1    2  501    0 -0.58519008558E+00  0.38827228276E+02 -0.19387272641E+03  0.19772336773E+03  0.00000000000E+00 0. -1.
         -2    1    1    2    0  502  0.13099080072E+02 -0.72332686759E+02 -0.29205325188E+03  0.30116225760E+03  0.00000000000E+00 0.  1.
<mgrwt>
<rscale>  2 0.10017732E+03</rscale>
<asrwt>0</asrwt>
<pdfrwt beam="1">  1       21 0.25654648E-02 0.10017732E+03</pdfrwt>
<pdfrwt beam="2">  1       21 0.10497682E+00 0.10017732E+03</pdfrwt>
<totfact> 0.60704250E+05</totfact>
</mgrwt>
</event>
<event>
 5    1  0.1365600E-001  0.8500055E+02  0.7546771E-02  0.1315431E+00
         21   -1    0    0  503  502  0.00000000000E+00  0.00000000000E+00  0.54380610490E+03  0.54380610490E+03  0.00000000000E+00 0. -1.
         21   -1    0    0  501  503 -0.00000000000E+00 -0.00000000000E+00 -0.20382443614E+02  0.20382443614E+02  0.00000000000E+00 0.  1.
         24    1    1    2    0    0 -0.40439204312E+01 -0.40785425590E+02  0.42282682437E+03  0.43235349379E+03  0.80419002446E+02 0. -1.
          1    1    1    2  501    0 -0.31301619487E+02  0.99790781516E+01  0.19627489810E+02  0.38270246138E+02  0.00000000000E+00 0. -1.
         -2    1    1    2    0  502  0.35345539918E+02  0.30806347438E+02  0.80969347108E+02  0.93564808586E+02  0.00000000000E+00 0.  1.
<mgrwt>
<rscale>  2 0.85000552E+02</rscale>
<asrwt>0</asrwt>
<pdfrwt beam="1">  1       21 0.83662467E-01 0.85000552E+02</pdfrwt>
<pdfrwt beam="2">  1       21 0.31357610E-02 0.85000552E+02</pdfrwt>
<totfact> 0.73612469E+05</totfact>
</mgrwt>
</event>
<event>
 5    1  0.1365600E-001  0.1015943E+03  0.7546771E-02  0.1276979E+00
         21   -1    0    0  503  502  0.00000000000E+00  0.00000000000E+00  0.10062233078E+03  0.10062233078E+03  0.00000000000E+00 0.  1.
         21   -1    0    0  501  503 -0.00000000000E+00 -0.00000000000E+00 -0.45426916212E+03  0.45426916212E+03  0.00000000000E+00 0. -1.
         24    1    1    2    0    0  0.40417624993E+02  0.50814240034E+02  0.65960722195E+02  0.12261200686E+03  0.80419002446E+02 0.  1.
          1    1    1    2  501    0 -0.14766718115E+02  0.19800933219E+02 -0.16432580949E+03  0.16617191274E+03  0.00000000000E+00 0. -1.
         -2    1    1    2    0  502 -0.25650906878E+02 -0.70615173253E+02 -0.25528174406E+03  0.26610757330E+03  0.00000000000E+00 0.  1.
<mgrwt>
<rscale>  2 0.10159431E+03</rscale>
<asrwt>0</asrwt>
<pdfrwt beam="1">  1       21 0.15480359E-01 0.10159431E+03</pdfrwt>
<pdfrwt beam="2">  1       21 0.69887563E-01 0.10159431E+03</pdfrwt>
<totfact> 0.71942092E+04</totfact>
</mgrwt>
</event>
<event>
 5    1  0.1365600E-001  0.1215162E+03  0.7546771E-02  0.1240616E+00
         21   -1    0    0  501  502  0.00000000000E+00  0.00000000000E+00  0.17168553660E+03  0.17168553660E+03  0.00000000000E+00 0. -1.
         21   -1    0    0  502  503 -0.00000000000E+00 -0.00000000000E+00 -0.11454736875E+03  0.11454736875E+03  0.00000000000E+00 0. -1.
         24    1    1    2    0    0 -0.95042747893E+02 -0.27056721944E+02  0.10030794722E+03  0.16215452617E+03  0.80419002446E+02 0. -1.
          1    1    1    2  501    0  0.79190709213E+02  0.45480178724E+02 -0.28389548750E+02  0.95632534007E+02  0.00000000000E+00 0. -1.
         -2    1    1    2    0  503  0.15852038680E+02 -0.18423456780E+02 -0.14780230625E+02  0.28445845169E+02  0.00000000000E+00 0.  1.
<mgrwt>
<rscale>  2 0.12151625E+03</rscale>
<asrwt>0</asrwt>
<pdfrwt beam="1">  1       21 0.26413159E-01 0.12151625E+03</pdfrwt>
<pdfrwt beam="2">  1       21 0.17622672E-01 0.12151625E+03</pdfrwt>
<totfact> 0.40245462E+05</totfact>
</mgrwt>
</event>
<event>
 5    1  0.1365600E-001  0.1180838E+03  0.7546771E-02  0.1246292E+00
         21   -1    0    0  501  502  0.00000000000E+00  0.00000000000E+00  0.93011348586E+02  0.93011348586E+02  0.00000000000E+00 0.  1.
         21   -1    0    0  502  503 -0.00000000000E+00 -0.00000000000E+00 -0.15736409024E+03  0.15736409024E+03  0.00000000000E+00 0. -1.
         24    1    1    2    0    0  0.47570563984E+02 -0.25340315171E+02 -0.22548255025E+01  0.96836926444E+02  0.80419002446E+02 0.  1.
          1    1    1    2  501    0 -0.85900462653E+02  0.44237117166E+02 -0.51582853363E+02  0.10952900429E+03  0.00000000000E+00 0. -1.
         -2    1    1    2    0  503  0.38329898669E+02 -0.18896801996E+02 -0.10515062793E+02  0.44009508099E+02  0.00000000000E+00 0.  1.
<mgrwt>
<rscale>  2 0.11808378E+03</rscale>
<asrwt>0</asrwt>
<pdfrwt beam="1">  1       21 0.14309438E-01 0.11808378E+03</pdfrwt>
<pdfrwt beam="2">  1       21 0.24209860E-01 0.11808378E+03</pdfrwt>
<totfact> 0.69140024E+05</totfact>
</mgrwt>
</event>
<event>
 5    1  0.1365600E-001  0.1429555E+03  0.7546771E-02  0.1209406E+00
         21   -1    0    0  501  502  0.00000000000E+00  0.00000000000E+00  0.15005233741E+03  0.15005233741E+03  0.00000000000E+00 0. -1.
         21   -1    0    0  502  503 -0.00000000000E+00 -0.00000000000E+00 -0.19985337323E+03  0.19985337323E+03  0.00000000000E+00 0. -1.
         24    1    1    2    0    0  0.12419878836E+02  0.92674254347E+02  0.15224383851E+02  0.12426491310E+03  0.80419002446E+02 0. -1.
          1    1    1    2  501    0 -0.19401879187E+02 -0.12653266773E+03  0.23907471924E+02  0.13022486757E+03  0.00000000000E+00 0. -1.
         -2    1    1    2    0  503  0.69820003512E+01  0.33858413385E+02 -0.88932891593E+02  0.95415929975E+02  0.00000000000E+00 0.  1.
<mgrwt>
<rscale>  2 0.14295555E+03</rscale>
<asrwt>0</asrwt>
<pdfrwt beam="1">  1       21 0.23084975E-01 0.14295555E+03</pdfrwt>
<pdfrwt beam="2">  1       21 0.30746673E-01 0.14295555E+03</pdfrwt>
<totfact> 0.18162371E+05</totfact>
</mgrwt>
</event>
<event>
 5    1  0.1365600E-001  0.9252772E+02  0.7546771E-02  0.1296843E+00
         21   -1    0    0  503  502  0.00000000000E+00  0.00000000000E+00  0.11205707713E+04  0.11205707713E+04  0.00000000000E+00 0. -1.
         21   -1    0    0  501  503 -0.00000000000E+00 -0.00000000000E+00 -0.72272835481E+02  0.72272835481E+02  0.00000000000E+00 0. -1.
         24    1    1    2    0    0 -0.56348960142E+02  0.47666950522E+02  0.99300015344E+03  0.99898141333E+03  0.80419002446E+02 0. -1.
          1    1    1    2  501    0  0.26534512780E+02 -0.33933295350E+02 -0.60068202799E+02  0.73917101467E+02  0.00000000000E+00 0. -1.
         -2    1    1    2    0  502  0.29814447362E+02 -0.13733655172E+02  0.11536598515E+03  0.11994509196E+03  0.00000000000E+00 0.  1.
<mgrwt>
<rscale>  2 0.92527717E+02</rscale>
<asrwt>0</asrwt>
<pdfrwt beam="1">  1       21 0.17239549E+00 0.92527717E+02</pdfrwt>
<pdfrwt beam="2">  1       21 0.11118899E-01 0.92527717E+02</pdfrwt>
<totfact> 0.15182276E+04</totfact>
</mgrwt>
</event>
<event>
 5    1  0.1365600E-001  0.8433221E+02  0.7546771E-02  0.1317188E+00
         21   -1    0    0  503  502  0.00000000000E+00  0.00000000000E+00  0.87340824693E+03  0.87340824693E+03  0.00000000000E+00 0.  1.
         21   -1    0    0  501  503 -0.00000000000E+00 -0.00000000000E+00 -0.24200542657E+02  0.24200542657E+02  0.00000000000E+00 0.  1.
         24    1    1    2    0    0 -0.56000680694E+00 -0.15701787084E+02  0.78505951944E+03  0.78932409361E+03  0.80419002446E+02 0.  1.
          1    1    1    2  501    0 -0.17012739499E+02 -0.31806648312E+02  0.20959437617E+02  0.41718032160E+02  0.00000000000E+00 0. -1.
         -2    1    1    2    0  502  0.17572746305E+02  0.47508435396E+02  0.43188747216E+02  0.66566663824E+02  0.00000000000E+00 0.  1.
<mgrwt>
<rscale>  2 0.84332211E+02</rscale>
<asrwt>0</asrwt>
<pdfrwt beam="1">  1       21 0.13437048E+00 0.84332211E+02</pdfrwt>
<pdfrwt beam="2">  1       21 0.37231611E-02 0.84332211E+02</pdfrwt>
<totfact> 0.18371015E+05</totfact>
</mgrwt>
</event>
<event>
 5    1  0.1365600E-001  0.1145367E+03  0.7546771E-02  0.1252392E+00
         21   -1    0    0  503  502  0.00000000000E+00  0.00000000000E+00  0.22802701555E+03  0.22802701555E+03  0.00000000000E+00 0. -1.
         21   -1    0    0  501  503 -0.00000000000E+00 -0.00000000000E+00 -0.15224739386E+03  0.15224739386E+03  0.00000000000E+00 0. -1.
         24    1    1    2    0    0  0.66201739476E+01 -0.13828225647E+02  0.12265636316E+03  0.14746811827E+03  0.80419002446E+02 0. -1.
          1    1    1    2  501    0  0.58404876913E+02  0.46293894026E+02 -0.11245885951E+03  0.13491200597E+03  0.00000000000E+00 0. -1.
         -2    1    1    2    0  502 -0.65025050861E+02 -0.32465668379E+02  0.65582118034E+02  0.97894285168E+02  0.00000000000E+00 0.  1.
<mgrwt>
<rscale>  2 0.11453675E+03</rscale>
<asrwt>0</asrwt>
<pdfrwt beam="1">  1       21 0.35081080E-01 0.11453675E+03</pdfrwt>
<pdfrwt beam="2">  1       21 0.23422676E-01 0.11453675E+03</pdfrwt>
<totfact> 0.13790647E+05</totfact>
</mgrwt>
</event>
<event>
 5    1  0.1365600E-001  0.1144234E+03  0.7546771E-02  0.1252591E+00
         21   -1    0    0  503  502  0.00000000000E+00  0.00000000000E+00  0.16838538240E+02  0.16838538240E+02  0.00000000000E+00 0. -1.
         21   -1    0    0  501  503 -0.00000000000E+00 -0.00000000000E+00 -0.13797919875E+04  0.13797919875E+04  0.00000000000E+00 0. -1.
         24    1    1    2    0    0  0.70287192301E+02  0.30105973299E+02 -0.21358461611E+03  0.24069121967E+03  0.80419002446E+02 0. -1.
          1    1    1    2  501    0 -0.81583636376E+02 -0.49506315680E+02 -0.10348536780E+04  0.10392443889E+04  0.00000000000E+00 0. -1.
         -2    1    1    2    0  502  0.11296444075E+02  0.19400342381E+02 -0.11451515519E+03  0.11669491721E+03  0.00000000000E+00 0.  1.
<mgrwt>
<rscale>  2 0.11442342E+03</rscale>
<asrwt>0</asrwt>
<pdfrwt beam="1">  1       21 0.25905449E-02 0.11442342E+03</pdfrwt>
<pdfrwt beam="2">  1       21 0.21227565E+00 0.11442342E+03</pdfrwt>
<totfact> 0.95506363E+04</totfact>
</mgrwt>
</event>
<event>
 5    1  0.1365600E-001  0.2128251E+03  0.7546771E-02  0.1139348E+00
         21   -1    0    0  503  502  0.00000000000E+00  0.00000000000E+00  0.90730324257E+02  0.90730324257E+02  0.00000000000E+00 0.  1.
         21   -1    0    0  501  503 -0.00000000000E+00 -0.00000000000E+00 -0.76530195697E+03  0.76530195697E+03  0.00000000000E+00 0. -1.
         24    1    1    2    0    0 -0.67886163030E+01 -0.14303116920E+03 -0.89962800901E+02  0.18725523270E+03  0.80419002446E+02 0.  0.
          1    1    1    2  501    0  0.52869752132E+02  0.18904573858E+03 -0.56886219367E+03  0.60177877775E+03  0.00000000000E+00 0. -1.
         -2    1    1    2    0  502 -0.46081135829E+02 -0.46014569378E+02 -0.15746638145E+02  0.66998270778E+02  0.00000000000E+00 0.  1.
<mgrwt>
<rscale>  2 0.21282510E+03</rscale>
<asrwt>0</asrwt>
<pdfrwt beam="1">  1       21 0.13958511E-01 0.21282510E+03</pdfrwt>
<pdfrwt beam="2">  1       21 0.11773876E+00 0.21282510E+03</pdfrwt>
<totfact> 0.24444565E+04</totfact>
</mgrwt>
</event>
<event>
 5    1  0.1365600E-001  0.1575184E+03  0.7546771E-02  0.1191527E+00
         21   -1    0    0  503  502  0.00000000000E+00  0.00000000000E+00  0.80083558035E+03  0.80083558035E+03  0.00000000000E+00 0. -1.
         21   -1    0    0  501  503 -0.00000000000E+00 -0.00000000000E+00 -0.40018190686E+02  0.40018190686E+02  0.00000000000E+00 0. -1.
         24    1    1    2    0    0  0.87418026033E+02 -0.59646537980E+02  0.53227841888E+03  0.54862295971E+03  0.80419002446E+02 0. -1.
          1    1    1    2  501    0 -0.12697817933E+03  0.64224046375E+02  0.17789626834E+03  0.22780533016E+03  0.00000000000E+00 0. -1.
         -2    1    1    2    0  502  0.39560153299E+02 -0.45775083943E+01  0.50642702454E+02  0.64425481170E+02  0.00000000000E+00 0.  1.
<mgrwt>
<rscale>  2 0.15751844E+03</rscale>
<asrwt>0</asrwt>
<pdfrwt beam="1">  1       21 0.12320546E+00 0.15751844E+03</pdfrwt>
<pdfrwt beam="2">  1       21 0.61566453E-02 0.15751844E+03</pdfrwt>
<totfact> 0.94832195E+04</totfact>
</mgrwt>
</event>
<event>
 5    1  0.1365600E-001  0.1085242E+03  0.7546771E-02  0.1263328E+00
         21   -1    0    0  503  502  0.00000000000E+00  0.00000000000E+00  0.36380885727E+02  0.36380885727E+02  0.00000000000E+00 0. -1.
         21   -1    0    0  501  503 -0.00000000000E+00 -0.00000000000E+00 -0.11864044506E+04  0.11864044506E+04  0.00000000000E+00 0. -1.
         24    1    1    2    0    0  0.13465485950E+02  0.60601722330E+02 -0.68411300996E+02  0.12247942733E+03  0.80419002446E+02 0. -1.
          1    1    1    2  501    0  0.10474700176E+02  0.24715284676E+02 -0.87600881095E+03  0.87641999150E+03  0.00000000000E+00 0. -1.
         -2    1    1    2    0  502 -0.23940186125E+02 -0.85317007006E+02 -0.20560345291E+03  0.22388591748E+03  0.00000000000E+00 0.  1.
<mgrwt>
<rscale>  2 0.10852419E+03</rscale>
<asrwt>0</asrwt>
<pdfrwt beam="1">  1       21 0.55970602E-02 0.10852419E+03</pdfrwt>
<pdfrwt beam="2">  1       21 0.18252373E+00 0.10852419E+03</pdfrwt>
<totfact> 0.41361294E+04</totfact>
</mgrwt>
</event>
<event>
 5    1  0.1365600E-001  0.1628061E+03  0.7546771E-02  0.1185565E+00
         21   -1    0    0  503  502  0.00000000000E+00  0.00000000000E+00  0.42873681246E+02  0.42873681246E+02  0.00000000000E+00 0.  1.
         21   -1    0    0  501  503 -0.00000000000E+00 -0.00000000000E+00 -0.18330913041E+04  0.18330913041E+04  0.00000000000E+00 0. -1.
         24    1    1    2    0    0 -0.10060440305E+03 -0.96028811266E+02 -0.12760953467E+03  0.20516868133E+03  0.80419002446E+02 0.  1.
          1    1    1    2  501    0  0.86232730737E+02  0.11336745093E+03 -0.14655912457E+04  0.14724965067E+04  0.00000000000E+00 0. -1.
         -2    1    1    2    0  502  0.14371672313E+02 -0.17338639665E+02 -0.19701684254E+03  0.19829979737E+03  0.00000000000E+00 0.  1.
<mgrwt>
<rscale>  2 0.16280614E+03</rscale>
<asrwt>0</asrwt>
<pdfrwt beam="1">  1       21 0.65959511E-02 0.16280614E+03</pdfrwt>
<pdfrwt beam="2">  1       21 0.28201404E+00 0.16280614E+03</pdfrwt>
<totfact> 0.75135483E+03</totfact>
</mgrwt>
</event>
<event>
 5    1  0.1365600E-001  0.1946848E+03  0.7546771E-02  0.1154303E+00
         21   -1    0    0  503  502  0.00000000000E+00  0.00000000000E+00  0.46351412072E+03  0.46351412072E+03  0.00000000000E+00 0. -1.
         21   -1    0    0  501  503 -0.00000000000E+00 -0.00000000000E+00 -0.83157614900E+02  0.83157614900E+02  0.00000000000E+00 0.  1.
         24    1    1    2    0    0 -0.92531601603E+02 -0.19897442556E+02  0.12494173816E+03  0.17616940542E+03  0.80419002446E+02 0.  0.
          1    1    1    2  501    0  0.91721371763E+02  0.12777696941E+03  0.12280206875E+03  0.19954977334E+03  0.00000000000E+00 0. -1.
         -2    1    1    2    0  502  0.81022983951E+00 -0.10787952686E+03  0.13261269891E+03  0.17095255687E+03  0.00000000000E+00 0.  1.
<mgrwt>
<rscale>  2 0.19468484E+03</rscale>
<asrwt>0</asrwt>
<pdfrwt beam="1">  1       21 0.71309863E-01 0.19468484E+03</pdfrwt>
<pdfrwt beam="2">  1       21 0.12793479E-01 0.19468484E+03</pdfrwt>
<totfact> 0.92973932E+04</totfact>
</mgrwt>
</event>
<event>
 5    1  0.1365600E-001  0.1175282E+03  0.7546771E-02  0.1247231E+00
         21   -1    0    0  503  502  0.00000000000E+00  0.00000000000E+00  0.46458199313E+02  0.46458199313E+02  0.00000000000E+00 0.  1.
         21   -1    0    0  501  503 -0.00000000000E+00 -0.00000000000E+00 -0.32957820747E+03  0.32957820747E+03  0.00000000000E+00 0. -1.
         24    1    1    2    0    0 -0.35835922712E+02 -0.44408467725E+02 -0.68285920668E+02  0.11994377132E+03  0.80419002446E+02 0.  0.
          1    1    1    2  501    0  0.67493602010E+02  0.68879584134E+02 -0.17390932957E+03  0.19885733160E+03  0.00000000000E+00 0. -1.
         -2    1    1    2    0  502 -0.31657679298E+02 -0.24471116410E+02 -0.40924757921E+02  0.57235303858E+02  0.00000000000E+00 0.  1.
<mgrwt>
<rscale>  2 0.11752823E+03</rscale>
<asrwt>0</asrwt>
<pdfrwt beam="1">  1       21 0.71474157E-02 0.11752823E+03</pdfrwt>
<pdfrwt beam="2">  1       21 0.50704337E-01 0.11752823E+03</pdfrwt>
<totfact> 0.54474436E+05</totfact>
</mgrwt>
</event>
<event>
 5    1  0.1365600E-001  0.8530752E+02  0.7546771E-02  0.1314630E+00
         21   -1    0    0  501  502  0.00000000000E+00  0.00000000000E+00  0.20339412482E+03  0.20339412482E+03  0.00000000000E+00 0. -1.
         21   -1    0    0  502  503 -0.00000000000E+00 -0.00000000000E+00 -0.38851325173E+02  0.38851325173E+02  0.00000000000E+00 0.  1.
         24    1    1    2    0    0  0.23266461406E+02 -0.27996435003E+02  0.11857887865E+03  0.14782860012E+03  0.80419002446E+02 0. -1.
          1    1    1    2  501    0  0.93046085052E+01 -0.21307065422E+02  0.15420785690E+02  0.27899236686E+02  0.00000000000E+00 0. -1.
         -2    1    1    2    0  503 -0.32571069912E+02  0.49303500425E+02  0.30543135314E+02  0.66517613188E+02  0.00000000000E+00 0.  1.
<mgrwt>
<rscale>  2 0.85307520E+02</rscale>
<asrwt>0</asrwt>
<pdfrwt beam="1">  1       21 0.31291403E-01 0.85307520E+02</pdfrwt>
<pdfrwt beam="2">  1       21 0.59771270E-02 0.85307520E+02</pdfrwt>
<totfact> 0.19129581E+06</totfact>
</mgrwt>
</event>
<event>
 5    1  0.1365600E-001  0.1062264E+03  0.7546771E-02  0.1267722E+00
         21   -1    0    0  503  502  0.00000000000E+00  0.00000000000E+00  0.13968684350E+03  0.13968684350E+03  0.00000000000E+00 0. -1.
         21   -1    0    0  501  503 -0.00000000000E+00 -0.00000000000E+00 -0.15068794309E+03  0.15068794309E+03  0.00000000000E+00 0.  1.
         24    1    1    2    0    0  0.19643057512E+02 -0.96338188293E+01  0.92155425688E+02  0.12425175496E+03  0.80419002446E+02 0. -1.
          1    1    1    2  501    0 -0.73813844529E+02  0.12497993633E+02 -0.70327005505E+02  0.10271597340E+03  0.00000000000E+00 0. -1.
         -2    1    1    2    0  502  0.54170787017E+02 -0.28641748033E+01 -0.32829519771E+02  0.63407058217E+02  0.00000000000E+00 0.  1.
<mgrwt>
<rscale>  2 0.10622641E+03</rscale>
<asrwt>0</asrwt>
<pdfrwt beam="1">  1       21 0.21490284E-01 0.10622641E+03</pdfrwt>
<pdfrwt beam="2">  1       21 0.23182760E-01 0.10622641E+03</pdfrwt>
<totfact> 0.35790840E+05</totfact>
</mgrwt>
</event>
<event>
 5    1  0.1365600E-001  0.9987767E+02  0.7546771E-02  0.1280553E+00
         21   -1    0    0  503  502  0.00000000000E+00  0.00000000000E+00  0.50854231383E+02  0.50854231383E+02  0.00000000000E+00 0. -1.
         21   -1    0    0  501  503 -0.00000000000E+00 -0.00000000000E+00 -0.44812279828E+03  0.44812279828E+03  0.00000000000E+00 0. -1.
         24    1    1    2    0    0 -0.63002240141E+02  0.24199226093E+01 -0.24633631485E+02  0.10511503243E+03  0.80419002446E+02 0. -1.
          1    1    1    2  501    0  0.42183400708E+02  0.34955894550E+02 -0.32601664090E+03  0.33058766463E+03  0.00000000000E+00 0. -1.
         -2    1    1    2    0  502  0.20818839433E+02 -0.37375817160E+02 -0.46618294514E+02  0.63274332609E+02  0.00000000000E+00 0.  1.
<mgrwt>
<rscale>  2 0.99877671E+02</rscale>
<asrwt>0</asrwt>
<pdfrwt beam="1">  1       21 0.78237280E-02 0.99877671E+02</pdfrwt>
<pdfrwt beam="2">  1       21 0.68941968E-01 0.99877671E+02</pdfrwt>
<totfact> 0.24485087E+05</totfact>
</mgrwt>
</event>
<event>
 5    1  0.1365600E-001  0.9810019E+02  0.7546771E-02  0.1284342E+00
         21   -1    0    0  501  502  0.00000000000E+00  0.00000000000E+00  0.10375849366E+03  0.10375849366E+03  0.00000000000E+00 0.  1.
         21   -1    0    0  502  503 -0.00000000000E+00 -0.00000000000E+00 -0.15853003789E+03  0.15853003789E+03  0.00000000000E+00 0. -1.
         24    1    1    2    0    0 -0.46938600743E+02  0.38910908116E+02  0.55232329975E+02  0.11504397959E+03  0.80419002446E+02 0.  1.
          1    1    1    2  501    0  0.40133391537E+02 -0.60524942698E+02 -0.67849318239E+02  0.99385551215E+02  0.00000000000E+00 0. -1.
         -2    1    1    2    0  503  0.68052092061E+01  0.21614034581E+02 -0.42154555973E+02  0.47859000747E+02  0.00000000000E+00 0.  1.
<mgrwt>
<rscale>  2 0.98100189E+02</rscale>
<asrwt>0</asrwt>
<pdfrwt beam="1">  1       21 0.15962845E-01 0.98100189E+02</pdfrwt>
<pdfrwt beam="2">  1       21 0.24389236E-01 0.98100189E+02</pdfrwt>
<totfact> 0.56028363E+05</totfact>
</mgrwt>
</event>
<event>
 5    1  0.1365600E-001  0.1233982E+03  0.7546771E-02  0.1237594E+00
         21   -1    0    0  503  502  0.00000000000E+00  0.00000000000E+00  0.20658223471E+03  0.20658223471E+03  0.00000000000E+00 0. -1.
         21   -1    0    0  501  503 -0.00000000000E+00 -0.00000000000E+00 -0.11135384823E+03  0.11135384823E+03  0.00000000000E+00 0.  1.
         24    1    1    2    0    0  0.10344845394E+02  0.10422835414E+03  0.99756779395E+02  0.16549681756E+03  0.80419002446E+02 0. -1.
          1    1    1    2  501    0  0.17255787733E+02 -0.21710255879E+02 -0.47799496040E+02  0.55262005413E+02  0.00000000000E+00 0. -1.
         -2    1    1    2    0  502 -0.27600633127E+02 -0.82518098261E+02  0.43271103129E+02  0.97177259971E+02  0.00000000000E+00 0.  1.
<mgrwt>
<rscale>  2 0.12339824E+03</rscale>
<asrwt>0</asrwt>
<pdfrwt beam="1">  1       21 0.31781882E-01 0.12339824E+03</pdfrwt>
<pdfrwt beam="2">  1       21 0.17131361E-01 0.12339824E+03</pdfrwt>
<totfact> 0.29702849E+05</totfact>
</mgrwt>
</event>
<event>
 5    1  0.1365600E-001  0.2299425E+03  0.7546771E-02  0.1126680E+00
         21   -1    0    0  503  502  0.00000000000E+00  0.00000000000E+00  0.18079842855E+03  0.18079842855E+03  0.00000000000E+00 0. -1.
         21   -1    0    0  501  503 -0.00000000000E+00 -0.00000000000E+00 -0.29380306944E+03  0.29380306944E+03  0.00000000000E+00 0.  1.
         24    1    1    2    0    0  0.23949049833E-02 -0.96854230895E+01 -0.16907685849E+02  0.82745955921E+02  0.80419002446E+02 0.  0.
          1    1    1    2  501    0  0.11361039766E+03  0.15640922523E+03 -0.34788591038E+02  0.19642152188E+03  0.00000000000E+00 0. -1.
         -2    1    1    2    0  502 -0.11361279257E+03 -0.14672380214E+03 -0.61308364006E+02  0.19543402018E+03  0.00000000000E+00 0.  1.
<mgrwt>
<rscale>  2 0.22994254E+03</rscale>
<asrwt>0</asrwt>
<pdfrwt beam="1">  1       21 0.27815143E-01 0.22994254E+03</pdfrwt>
<pdfrwt beam="2">  1       21 0.45200472E-01 0.22994254E+03</pdfrwt>
<totfact> 0.56984038E+04</totfact>
</mgrwt>
</event>
<event>
 5    1  0.1365600E-001  0.8188361E+02  0.7546771E-02  0.1323789E+00
         21   -1    0    0  501  502  0.00000000000E+00  0.00000000000E+00  0.61663476641E+03  0.61663476641E+03  0.00000000000E+00 0.  1.
         21   -1    0    0  502  503 -0.00000000000E+00 -0.00000000000E+00 -0.73001935367E+02  0.73001935367E+02  0.00000000000E+00 0.  1.
         24    1    1    2    0    0 -0.18291511422E+02  0.86116935962E+01  0.58700451592E+03  0.59283240323E+03  0.80419002446E+02 0.  1.
          1    1    1    2  501    0  0.43179861070E+02 -0.26074851238E+02 -0.95721594216E+01  0.51342229257E+02  0.00000000000E+00 0. -1.
         -2    1    1    2    0  503 -0.24888349648E+02  0.17463157642E+02 -0.33799525455E+02  0.45462069289E+02  0.00000000000E+00 0.  1.
<mgrwt>
<rscale>  2 0.81883615E+02</rscale>
<asrwt>0</asrwt>
<pdfrwt beam="1">  1       21 0.94866884E-01 0.81883615E+02</pdfrwt>
<pdfrwt beam="2">  1       21 0.11231067E-01 0.81883615E+02</pdfrwt>
<totfact> 0.65266334E+04</totfact>
</mgrwt>
</event>
<event>
 5    1  0.1365600E-001  0.6424193E+02  0.7546771E-02  0.1380846E+00
         21   -1    0    0  503  502  0.00000000000E+00  0.00000000000E+00  0.58975641559E+03  0.58975641559E+03  0.00000000000E+00 0. -1.
         21   -1    0    0  501  503 -0.00000000000E+00 -0.00000000000E+00 -0.15035841582E+02  0.15035841582E+02  0.00000000000E+00 0.  1.
         24    1    1    2    0    0 -0.33693108975E+02 -0.14028706286E+02  0.55091833381E+03  0.55795184082E+03  0.80419002446E+02 0. -1.
          1    1    1    2  501    0  0.13604867701E+02  0.14753992181E+02  0.97345489005E+01  0.22305473605E+02  0.00000000000E+00 0. -1.
         -2    1    1    2    0  502  0.20088241274E+02 -0.72528589547E+00  0.14067691294E+02  0.24534942744E+02  0.00000000000E+00 0.  1.
<mgrwt>
<rscale>  2 0.64241934E+02</rscale>
<asrwt>0</asrwt>
<pdfrwt beam="1">  1       21 0.90731738E-01 0.64241934E+02</pdfrwt>
<pdfrwt beam="2">  1       21 0.23132069E-02 0.64241934E+02</pdfrwt>
<totfact> 0.99882513E+05</totfact>
</mgrwt>
</event>
<event>
 5    1  0.1365600E-001  0.1546195E+03  0.7546771E-02  0.1194909E+00
         21   -1    0    0  501  502  0.00000000000E+00  0.00000000000E+00  0.24236853836E+02  0.24236853836E+02  0.00000000000E+00 0. -1.
         21   -1    0    0  502  503 -0.00000000000E+00 -0.00000000000E+00 -0.12679371919E+04  0.12679371919E+04  0.00000000000E+00 0.  1.
         24    1    1    2    0    0 -0.25140261872E+02  0.13267596219E+03 -0.33132178196E+03  0.36671008012E+03  0.80419002446E+02 0. -1.
          1    1    1    2  501    0 -0.18823781336E+02 -0.91032712212E+01 -0.74378633401E+02  0.77261797787E+02  0.00000000000E+00 0. -1.
         -2    1    1    2    0  503  0.43964043208E+02 -0.12357269097E+03 -0.83799992274E+03  0.84820216786E+03  0.00000000000E+00 0.  1.
<mgrwt>
<rscale>  2 0.15461951E+03</rscale>
<asrwt>0</asrwt>
<pdfrwt beam="1">  1       21 0.37287460E-02 0.15461951E+03</pdfrwt>
<pdfrwt beam="2">  1       21 0.19506730E+00 0.15461951E+03</pdfrwt>
<totfact> 0.65260393E+04</totfact>
</mgrwt>
</event>
<event>
 5    1  0.1365600E-001  0.1762285E+03  0.7546771E-02  0.1171504E+00
         21   -1    0    0  503  502  0.00000000000E+00  0.00000000000E+00  0.69010852657E+03  0.69010852657E+03  0.00000000000E+00 0.  1.
         21   -1    0    0  501  503 -0.00000000000E+00 -0.00000000000E+00 -0.45296160844E+02  0.45296160844E+02  0.00000000000E+00 0. -1.
         24    1    1    2    0    0  0.99630502318E+02 -0.12805509133E+03  0.31176109230E+03  0.36053645867E+03  0.80419002446E+02 0. -1.
          1    1    1    2  501    0 -0.30485959167E+02  0.59673830207E+01  0.48325734757E+02  0.57448933900E+02  0.00000000000E+00 0. -1.
         -2    1    1    2    0  502 -0.69144543152E+02  0.12208770830E+03  0.28472553867E+03  0.31741929484E+03  0.00000000000E+00 0.  1.
<mgrwt>
<rscale>  2 0.17622852E+03</rscale>
<asrwt>0</asrwt>
<pdfrwt beam="1">  1       21 0.10617053E+00 0.17622852E+03</pdfrwt>
<pdfrwt beam="2">  1       21 0.69686406E-02 0.17622852E+03</pdfrwt>
<totfact> 0.10918045E+05</totfact>
</mgrwt>
</event>
<event>
 5    1  0.1365600E-001  0.8164977E+02  0.7546771E-02  0.1324434E+00
         21   -1    0    0  501  502  0.00000000000E+00  0.00000000000E+00  0.68063229864E+03  0.68063229864E+03  0.00000000000E+00 0. -1.
         21   -1    0    0  502  503 -0.00000000000E+00 -0.00000000000E+00 -0.15809620554E+02  0.15809620554E+02  0.00000000000E+00 0. -1.
         24    1    1    2    0    0 -0.12089443165E+02  0.55709485866E+01  0.53113572787E+03  0.53735422905E+03  0.80419002446E+02 0. -1.
          1    1    1    2  501    0 -0.35386811260E+01  0.36621738081E+02  0.85921772144E+02  0.93467774621E+02  0.00000000000E+00 0. -1.
         -2    1    1    2    0  503  0.15628124291E+02 -0.42192686667E+02  0.47765178075E+02  0.65619915525E+02  0.00000000000E+00 0.  1.
<mgrwt>
<rscale>  2 0.81649773E+02</rscale>
<asrwt>0</asrwt>
<pdfrwt beam="1">  1       21 0.10471264E+00 0.81649773E+02</pdfrwt>
<pdfrwt beam="2">  1       21 0.24322498E-02 0.81649773E+02</pdfrwt>
<totfact> 0.66620123E+05</totfact>
</mgrwt>
</event>
<event>
 5    1  0.1365600E-001  0.7952691E+02  0.7546771E-02  0.1330399E+00
         21   -1    0    0  501  502  0.00000000000E+00  0.00000000000E+00  0.12597841779E+03  0.12597841779E+03  0.00000000000E+00 0.  1.
         21   -1    0    0  502  503 -0.00000000000E+00 -0.00000000000E+00 -0.10109979531E+03  0.10109979531E+03  0.00000000000E+00 0.  1.
         24    1    1    2    0    0  0.52422946176E+02 -0.20677766585E+02  0.90589614239E+02  0.13360175702E+03  0.80419002446E+02 0.  1.
          1    1    1    2  501    0 -0.28954367597E+02 -0.90890814633E+00 -0.12734980799E+02  0.31644292580E+02  0.00000000000E+00 0. -1.
         -2    1    1    2    0  503 -0.23468578579E+02  0.21586674731E+02 -0.52976010958E+02  0.61832163503E+02  0.00000000000E+00 0.  1.
<mgrwt>
<rscale>  2 0.79526907E+02</rscale>
<asrwt>0</asrwt>
<pdfrwt beam="1">  1       21 0.19381295E-01 0.79526907E+02</pdfrwt>
<pdfrwt beam="2">  1       21 0.15553815E-01 0.79526907E+02</pdfrwt>
<totfact> 0.89486117E+05</totfact>
</mgrwt>
</event>
<event>
 5    1  0.1365600E-001  0.9969026E+02  0.7546771E-02  0.1280949E+00
         21   -1    0    0  503  502  0.00000000000E+00  0.00000000000E+00  0.40987916378E+03  0.40987916378E+03  0.00000000000E+00 0.  1.
         21   -1    0    0  501  503 -0.00000000000E+00 -0.00000000000E+00 -0.87073172814E+02  0.87073172814E+02  0.00000000000E+00 0. -1.
         24    1    1    2    0    0 -0.45144114527E+02  0.53746255401E+02  0.16622714321E+03  0.19754829825E+03  0.80419002446E+02 0.  1.
          1    1    1    2  501    0 -0.10757719730E+02 -0.30057477715E+02 -0.63516506656E+02  0.71088164402E+02  0.00000000000E+00 0. -1.
         -2    1    1    2    0  502  0.55901834257E+02 -0.23688777686E+02  0.22009535441E+03  0.22831587394E+03  0.00000000000E+00 0.  1.
<mgrwt>
<rscale>  2 0.99690264E+02</rscale>
<asrwt>0</asrwt>
<pdfrwt beam="1">  1       21 0.63058332E-01 0.99690264E+02</pdfrwt>
<pdfrwt beam="2">  1       21 0.13395873E-01 0.99690264E+02</pdfrwt>
<totfact> 0.11622741E+05</totfact>
</mgrwt>
</event>
<event>
 5    1  0.1365600E-001  0.7388442E+02  0.7546771E-02  0.1347361E+00
         21   -1    0    0  501  502  0.00000000000E+00  0.00000000000E+00  0.10567764892E+03  0.10567764892E+03  0.00000000000E+00 0.  1.
         21   -1    0    0  502  503 -0.00000000000E+00 -0.00000000000E+00 -0.55743754197E+02  0.55743754197E+02  0.00000000000E+00 0. -1.
         24    1    1    2    0    0 -0.64874839158E+01 -0.17697351630E+02  0.49304967064E+02  0.96195007323E+02  0.80419002446E+02 0. -1.
          1    1    1    2  501    0 -0.27363066171E+02  0.89144152997E+00 -0.10326666506E+01  0.27397052007E+02  0.00000000000E+00 0. -1.
         -2    1    1    2    0  503  0.33850550087E+02  0.16805910100E+02  0.16615943072E+01  0.37829343784E+02  0.00000000000E+00 0.  1.
<mgrwt>
<rscale>  2 0.73884421E+02</rscale>
<asrwt>0</asrwt>
<pdfrwt beam="1">  1       21 0.16258100E-01 0.73884421E+02</pdfrwt>
<pdfrwt beam="2">  1       21 0.85759622E-02 0.73884421E+02</pdfrwt>
<totfact> 0.34561003E+06</totfact>
</mgrwt>
</event>
<event>
 5    1  0.1365600E-001  0.1699490E+03  0.7546771E-02  0.1177901E+00
         21   -1    0    0  503  502  0.00000000000E+00  0.00000000000E+00  0.29280219127E+03  0.29280219127E+03  0.00000000000E+00 0.  1.
         21   -1    0    0  501  503 -0.00000000000E+00 -0.00000000000E+00 -0.25027350288E+03  0.25027350288E+03  0.00000000000E+00 0. -1.
         24    1    1    2    0    0  0.13024191764E+03  0.39945814145E+02  0.20574109270E+03  0.25952887769E+03  0.80419002446E+02 0.  1.
          1    1    1    2  501    0 -0.55125611416E+02 -0.79551282069E+02 -0.17283157857E+03  0.19808582499E+03  0.00000000000E+00 0. -1.
         -2    1    1    2    0  502 -0.75116306220E+02  0.39605467925E+02  0.96191742563E+01  0.85460991470E+02  0.00000000000E+00 0.  1.
<mgrwt>
<rscale>  2 0.16994900E+03</rscale>
<asrwt>0</asrwt>
<pdfrwt beam="1">  1       21 0.45046491E-01 0.16994900E+03</pdfrwt>
<pdfrwt beam="2">  1       21 0.38503616E-01 0.16994900E+03</pdfrwt>
<totfact> 0.31141690E+04</totfact>
</mgrwt>
</event>
<event>
 5    1  0.1365600E-001  0.1028466E+03  0.7546771E-02  0.1274421E+00
         21   -1    0    0  503  502  0.00000000000E+00  0.00000000000E+00  0.85755062428E+02  0.85755062428E+02  0.00000000000E+00 0. -1.
         21   -1    0    0  501  503 -0.00000000000E+00 -0.00000000000E+00 -0.16172348210E+03  0.16172348210E+03  0.00000000000E+00 0. -1.
         24    1    1    2    0    0 -0.39967727809E+02  0.64689730208E+02 -0.99413278180E+01  0.11112257383E+03  0.80419002446E+02 0. -1.
          1    1    1    2  501    0  0.39964346255E+02 -0.11169469518E+02 -0.71383627876E+02  0.82568325341E+02  0.00000000000E+00 0. -1.
         -2    1    1    2    0  502  0.33815532866E-02 -0.53520260690E+02  0.53565360176E+01  0.53787645364E+02  0.00000000000E+00 0.  1.
<mgrwt>
<rscale>  2 0.10284655E+03</rscale>
<asrwt>0</asrwt>
<pdfrwt beam="1">  1       21 0.13193087E-01 0.10284655E+03</pdfrwt>
<pdfrwt beam="2">  1       21 0.24880535E-01 0.10284655E+03</pdfrwt>
<totfact> 0.75872056E+05</totfact>
</mgrwt>
</event>
<event>
 5    1  0.1365600E-001  0.1040376E+03  0.7546771E-02  0.1272028E+00
         21   -1    0    0  503  502  0.00000000000E+00  0.00000000000E+00  0.70214897462E+02  0.70214897462E+02  0.00000000000E+00 0.  1.
         21   -1    0    0  501  503 -0.00000000000E+00 -0.00000000000E+00 -0.18381881532E+03  0.18381881532E+03  0.00000000000E+00 0. -1.
         24    1    1    2    0    0 -0.43490161883E+01 -0.58031597222E+02 -0.29707417404E+02  0.10361624786E+03  0.80419002446E+02 0.  1.
          1    1    1    2  501    0 -0.41773407111E+02  0.11580072198E+02 -0.71767411351E+02  0.83843168748E+02  0.00000000000E+00 0. -1.
         -2    1    1    2    0  502  0.46122423299E+02  0.46451525024E+02 -0.12129089102E+02  0.66574296170E+02  0.00000000000E+00 0.  1.
<mgrwt>
<rscale>  2 0.10403757E+03</rscale>
<asrwt>0</asrwt>
<pdfrwt beam="1">  1       21 0.10802292E-01 0.10403757E+03</pdfrwt>
<pdfrwt beam="2">  1       21 0.28279817E-01 0.10403757E+03</pdfrwt>
<totfact> 0.84697624E+05</totfact>
</mgrwt>
</event>
<event>
 5    1  0.1365600E-001  0.1186704E+03  0.7546771E-02  0.1245307E+00
         21   -1    0    0  503  502  0.00000000000E+00  0.00000000000E+00  0.71772986235E+03  0.71772986235E+03  0.00000000000E+00 0.  1.
         21   -1    0    0  501  503 -0.00000000000E+00 -0.00000000000E+00 -0.68010559486E+02  0.68010559486E+02  0.00000000000E+00 0. -1.
         24    1    1    2    0    0  0.25691575472E+02  0.49447455495E+02  0.59684204077E+03  0.60480802367E+03  0.80419002446E+02 0.  1.
          1    1    1    2  501    0 -0.13981551959E+02  0.43566144110E+02 -0.30895056966E+02  0.55208670087E+02  0.00000000000E+00 0. -1.
         -2    1    1    2    0  502 -0.11710023513E+02 -0.93013599605E+02  0.83772319055E+02  0.12572372808E+03  0.00000000000E+00 0.  1.
<mgrwt>
<rscale>  2 0.11867039E+03</rscale>
<asrwt>0</asrwt>
<pdfrwt beam="1">  1       21 0.11041997E+00 0.11867039E+03</pdfrwt>
<pdfrwt beam="2">  1       21 0.10463164E-01 0.11867039E+03</pdfrwt>
<totfact> 0.50499955E+04</totfact>
</mgrwt>
</event>
<event>
 5    1  0.1365600E-001  0.1577983E+03  0.7546771E-02  0.1191205E+00
         21   -1    0    0  501  502  0.00000000000E+00  0.00000000000E+00  0.69824976890E+03  0.69824976890E+03  0.00000000000E+00 0. -1.
         21   -1    0    0  502  503 -0.00000000000E+00 -0.00000000000E+00 -0.67534369587E+02  0.67534369587E+02  0.00000000000E+00 0.  1.
         24    1    1    2    0    0  0.11310307909E+03 -0.68063086250E+01  0.45237767420E+03  0.47323504562E+03  0.80419002446E+02 0. -1.
          1    1    1    2  501    0 -0.13062696205E+03 -0.31635838262E+02  0.20312598993E+03  0.24356600186E+03  0.00000000000E+00 0. -1.
         -2    1    1    2    0  503  0.17523882962E+02  0.38442146887E+02 -0.24788264820E+02  0.48983091002E+02  0.00000000000E+00 0.  1.
<mgrwt>
<rscale>  2 0.15779831E+03</rscale>
<asrwt>0</asrwt>
<pdfrwt beam="1">  1       21 0.10742304E+00 0.15779831E+03</pdfrwt>
<pdfrwt beam="2">  1       21 0.10389903E-01 0.15779831E+03</pdfrwt>
<totfact> 0.53408345E+04</totfact>
</mgrwt>
</event>
<event>
 5    1  0.1365600E-001  0.8197040E+02  0.7546771E-02  0.1323551E+00
         21   -1    0    0  503  502  0.00000000000E+00  0.00000000000E+00  0.45854726805E+03  0.45854726805E+03  0.00000000000E+00 0. -1.
         21   -1    0    0  501  503 -0.00000000000E+00 -0.00000000000E+00 -0.25655988787E+02  0.25655988787E+02  0.00000000000E+00 0.  1.
         24    1    1    2    0    0  0.47222319452E+02 -0.84447773576E+01  0.39147999007E+03  0.40252336615E+03  0.80419002446E+02 0. -1.
          1    1    1    2  501    0 -0.10378403596E+02 -0.20810234276E+02  0.15799815516E+02  0.28114254075E+02  0.00000000000E+00 0. -1.
         -2    1    1    2    0  502 -0.36843915856E+02  0.29255011634E+02  0.25611473674E+02  0.53565636606E+02  0.00000000000E+00 0.  1.
<mgrwt>
<rscale>  2 0.81970402E+02</rscale>
<asrwt>0</asrwt>
<pdfrwt beam="1">  1       21 0.70545728E-01 0.81970402E+02</pdfrwt>
<pdfrwt beam="2">  1       21 0.39470755E-02 0.81970402E+02</pdfrwt>
<totfact> 0.73390611E+05</totfact>
</mgrwt>
</event>
<event>
 5    1  0.1365600E-001  0.2042117E+03  0.7546771E-02  0.1146233E+00
         21   -1    0    0  503  502  0.00000000000E+00  0.00000000000E+00  0.31331009344E+02  0.31331009344E+02  0.00000000000E+00 0.  1.
         21   -1    0    0  501  503 -0.00000000000E+00 -0.00000000000E+00 -0.18671296090E+04  0.18671296090E+04  0.00000000000E+00 0. -1.
         24    1    1    2    0    0  0.15257477843E+02  0.31186271630E+02 -0.10616772061E+03  0.13763784008E+03  0.80419002446E+02 0. -1.
          1    1    1    2  501    0  0.14852340147E+03  0.18517556548E+02 -0.10153073661E+04  0.10262802484E+04  0.00000000000E+00 0. -1.
         -2    1    1    2    0  502 -0.16378087932E+03 -0.49703828178E+02 -0.71432351292E+03  0.73454252979E+03  0.00000000000E+00 0.  1.
<mgrwt>
<rscale>  2 0.20421171E+03</rscale>
<asrwt>0</asrwt>
<pdfrwt beam="1">  1       21 0.48201547E-02 0.20421171E+03</pdfrwt>
<pdfrwt beam="2">  1       21 0.28725074E+00 0.20421171E+03</pdfrwt>
<totfact> 0.11434391E+04</totfact>
</mgrwt>
</event>
<event>
 5    1  0.1365600E-001  0.9043410E+02  0.7546771E-02  0.1301804E+00
         21   -1    0    0  501  502  0.00000000000E+00  0.00000000000E+00  0.42019774940E+03  0.42019774940E+03  0.00000000000E+00 0.  1.
         21   -1    0    0  502  503 -0.00000000000E+00 -0.00000000000E+00 -0.23420605397E+02  0.23420605397E+02  0.00000000000E+00 0. -1.
         24    1    1    2    0    0  0.26437816514E+02  0.37770846025E+02  0.28915394593E+03  0.30364916491E+03  0.80419002446E+02 0.  1.
          1    1    1    2  501    0 -0.52873843754E+02 -0.29078472562E+02  0.84232086180E+02  0.10361585430E+03  0.00000000000E+00 0. -1.
         -2    1    1    2    0  503  0.26436027240E+02 -0.86923734631E+01  0.23391111897E+02  0.36353335589E+02  0.00000000000E+00 0.  1.
<mgrwt>
<rscale>  2 0.90434099E+02</rscale>
<asrwt>0</asrwt>
<pdfrwt beam="1">  1       21 0.64645802E-01 0.90434099E+02</pdfrwt>
<pdfrwt beam="2">  1       21 0.36031704E-02 0.90434099E+02</pdfrwt>
<totfact> 0.10286676E+06</totfact>
</mgrwt>
</event>
<event>
 5    1  0.1365600E-001  0.1559049E+03  0.7546771E-02  0.1193399E+00
         21   -1    0    0  503  502  0.00000000000E+00  0.00000000000E+00  0.32242032766E+03  0.32242032766E+03  0.00000000000E+00 0.  1.
         21   -1    0    0  501  503 -0.00000000000E+00 -0.00000000000E+00 -0.32340754234E+03  0.32340754234E+03  0.00000000000E+00 0. -1.
         24    1    1    2    0    0  0.14434247787E+03 -0.22633988344E+01  0.25718660884E+03  0.30569926662E+03  0.80419002446E+02 0.  1.
          1    1    1    2  501    0 -0.34975055633E+02 -0.10336278331E+02 -0.22091292609E+03  0.22390313549E+03  0.00000000000E+00 0. -1.
         -2    1    1    2    0  502 -0.10936742223E+03  0.12599677165E+02 -0.37260897421E+02  0.11622546789E+03  0.00000000000E+00 0.  1.
<mgrwt>
<rscale>  2 0.15590491E+03</rscale>
<asrwt>0</asrwt>
<pdfrwt beam="1">  1       21 0.49603127E-01 0.15590491E+03</pdfrwt>
<pdfrwt beam="2">  1       21 0.49755007E-01 0.15590491E+03</pdfrwt>
<totfact> 0.15284439E+04</totfact>
</mgrwt>
</event>
<event>
 5    1  0.1365600E-001  0.1219117E+03  0.7546771E-02  0.1239976E+00
         21   -1    0    0  503  502  0.00000000000E+00  0.00000000000E+00  0.27000492306E+03  0.27000492306E+03  0.00000000000E+00 0. -1.
         21   -1    0    0  501  503 -0.00000000000E+00 -0.00000000000E+00 -0.15941131687E+03  0.15941131687E+03  0.00000000000E+00 0. -1.
         24    1    1    2    0    0  0.28843398940E+02 -0.59758295537E+02  0.21549428257E+03  0.23939088814E+03  0.80419002446E+02 0. -1.
          1    1    1    2  501    0 -0.66636290934E+02  0.73628602557E+02 -0.11141086486E+03  0.14924458849E+03  0.00000000000E+00 0. -1.
         -2    1    1    2    0  502  0.37792891994E+02 -0.13870307020E+02  0.65101884695E+01  0.40780763309E+02  0.00000000000E+00 0.  1.
<mgrwt>
<rscale>  2 0.12191175E+03</rscale>
<asrwt>0</asrwt>
<pdfrwt beam="1">  1       21 0.41539219E-01 0.12191175E+03</pdfrwt>
<pdfrwt beam="2">  1       21 0.24524818E-01 0.12191175E+03</pdfrwt>
<totfact> 0.90228907E+04</totfact>
</mgrwt>
</event>
<event>
 5    1  0.1365600E-001  0.6997745E+02  0.7546771E-02  0.1360170E+00
         21   -1    0    0  501  502  0.00000000000E+00  0.00000000000E+00  0.48971534872E+03  0.48971534872E+03  0.00000000000E+00 0. -1.
         21   -1    0    0  502  503 -0.00000000000E+00 -0.00000000000E+00 -0.22133788206E+02  0.22133788206E+02  0.00000000000E+00 0. -1.
         24    1    1    2    0    0  0.12615738245E+02 -0.13785698180E+02  0.44022249742E+03  0.44789760606E+03  0.80419002446E+02 0. -1.
          1    1    1    2  501    0 -0.33770460193E+02  0.13115699188E+02  0.20891493035E+02  0.41820091202E+02  0.00000000000E+00 0. -1.
         -2    1    1    2    0  503  0.21154721948E+02  0.66999899231E+00  0.64675700653E+01  0.22131439671E+02  0.00000000000E+00 0.  1.
<mgrwt>
<rscale>  2 0.69977449E+02</rscale>
<asrwt>0</asrwt>
<pdfrwt beam="1">  1       21 0.75340815E-01 0.69977449E+02</pdfrwt>
<pdfrwt beam="2">  1       21 0.34051985E-02 0.69977449E+02</pdfrwt>
<totfact> 0.80872051E+05</totfact>
</mgrwt>
</event>
<event>
 5    1  0.1365600E-001  0.6647505E+02  0.7546771E-02  0.1372507E+00
         21   -1    0    0  503  502  0.00000000000E+00  0.00000000000E+00  0.22529406051E+02  0.22529406051E+02  0.00000000000E+00 0.  1.
         21   -1    0    0  501  503 -0.00000000000E+00 -0.00000000000E+00 -0.31954687416E+03  0.31954687416E+03  0.00000000000E+00 0.  1.
         24    1    1    2    0    0  0.23641526059E+02  0.39103474675E+00 -0.69221210130E+02  0.10871001126E+03  0.80419002446E+02 0.  1.
          1    1    1    2  501    0 -0.18054232446E+02 -0.21046551562E+02 -0.15614730833E+03  0.15859033558E+03  0.00000000000E+00 0. -1.
         -2    1    1    2    0  502 -0.55872936132E+01  0.20655516815E+02 -0.71648949652E+02  0.74775933368E+02  0.00000000000E+00 0.  1.
<mgrwt>
<rscale>  2 0.66475051E+02</rscale>
<asrwt>0</asrwt>
<pdfrwt beam="1">  1       21 0.34660620E-02 0.66475051E+02</pdfrwt>
<pdfrwt beam="2">  1       21 0.49161064E-01 0.66475051E+02</pdfrwt>
<totfact> 0.19140902E+06</totfact>
</mgrwt>
</event>
<event>
 5    1  0.1365600E-001  0.1260568E+03  0.7546771E-02  0.1233427E+00
         21   -1    0    0  501  502  0.00000000000E+00  0.00000000000E+00  0.12191234051E+04  0.12191234051E+04  0.00000000000E+00 0. -1.
         21   -1    0    0  502  503 -0.00000000000E+00 -0.00000000000E+00 -0.65426932626E+02  0.65426932626E+02  0.00000000000E+00 0.  1.
         24    1    1    2    0    0  0.44858458424E+02 -0.59498232623E+02  0.83015378603E+03  0.83736183660E+03  0.80419002446E+02 0. -1.
          1    1    1    2  501    0 -0.82768109107E+02  0.63554647798E+02  0.37152547165E+03  0.38590274581E+03  0.00000000000E+00 0. -1.
         -2    1    1    2    0  503  0.37909650684E+02 -0.40564151756E+01 -0.47982785248E+02  0.61285755272E+02  0.00000000000E+00 0.  1.
<mgrwt>
<rscale>  2 0.12605684E+03</rscale>
<asrwt>0</asrwt>
<pdfrwt beam="1">  1       21 0.18755743E+00 0.12605684E+03</pdfrwt>
<pdfrwt beam="2">  1       21 0.10065683E-01 0.12605684E+03</pdfrwt>
<totfact> 0.13777588E+04</totfact>
</mgrwt>
</event>
<event>
 5    1  0.1365600E-001  0.9901781E+02  0.7546771E-02  0.1282375E+00
         21   -1    0    0  503  502  0.00000000000E+00  0.00000000000E+00  0.62333709159E+02  0.62333709159E+02  0.00000000000E+00 0. -1.
         21   -1    0    0  501  503 -0.00000000000E+00 -0.00000000000E+00 -0.21083287580E+03  0.21083287580E+03  0.00000000000E+00 0. -1.
         24    1    1    2    0    0 -0.11796315241E+02 -0.81589000905E+02 -0.21911743043E+02  0.11723164487E+03  0.80419002446E+02 0. -1.
          1    1    1    2  501    0  0.22765427706E+01  0.45168572927E+02 -0.10028817733E+03  0.11001409519E+03  0.00000000000E+00 0. -1.
         -2    1    1    2    0  502  0.95197724702E+01  0.36420427978E+02 -0.26299246264E+02  0.45920844897E+02  0.00000000000E+00 0.  1.
<mgrwt>
<rscale>  2 0.99017813E+02</rscale>
<asrwt>0</asrwt>
<pdfrwt beam="1">  1       21 0.95898015E-02 0.99017813E+02</pdfrwt>
<pdfrwt beam="2">  1       21 0.32435827E-01 0.99017813E+02</pdfrwt>
<totfact> 0.80060141E+05</totfact>
</mgrwt>
</event>
<event>
 5    1  0.1365600E-001  0.9593203E+02  0.7546771E-02  0.1289091E+00
         21   -1    0    0  501  502  0.00000000000E+00  0.00000000000E+00  0.13106007898E+03  0.13106007898E+03  0.00000000000E+00 0. -1.
         21   -1    0    0  502  503 -0.00000000000E+00 -0.00000000000E+00 -0.10531628699E+03  0.10531628699E+03  0.00000000000E+00 0.  1.
         24    1    1    2    0    0  0.24479180379E+02 -0.23281418837E+02  0.27184425383E+02  0.91364455194E+02  0.80419002446E+02 0.  1.
          1    1    1    2  501    0 -0.20971324424E+02 -0.37921571425E+02  0.49152715334E+02  0.65527333626E+02  0.00000000000E+00 0. -1.
         -2    1    1    2    0  503 -0.35078559548E+01  0.61202990262E+02 -0.50593348722E+02  0.79484577154E+02  0.00000000000E+00 0.  1.
<mgrwt>
<rscale>  2 0.95932029E+02</rscale>
<asrwt>0</asrwt>
<pdfrwt beam="1">  1       21 0.20163089E-01 0.95932029E+02</pdfrwt>
<pdfrwt beam="2">  1       21 0.16202506E-01 0.95932029E+02</pdfrwt>
<totfact> 0.77595662E+05</totfact>
</mgrwt>
</event>
<event>
 5    1  0.1365600E-001  0.1354427E+03  0.7546771E-02  0.1219596E+00
         21   -1    0    0  503  502  0.00000000000E+00  0.00000000000E+00  0.24451695221E+03  0.24451695221E+03  0.00000000000E+00 0.  1.
         21   -1    0    0  501  503 -0.00000000000E+00 -0.00000000000E+00 -0.13010521069E+03  0.13010521069E+03  0.00000000000E+00 0. -1.
         24    1    1    2    0    0  0.12299204234E+02 -0.41688571754E+02  0.14790429976E+03  0.17387382000E+03  0.80419002446E+02 0.  1.
          1    1    1    2  501    0 -0.86149590891E+02 -0.13602618342E+02 -0.58676551864E+02  0.10511765301E+03  0.00000000000E+00 0. -1.
         -2    1    1    2    0  502  0.73850386657E+02  0.55291190096E+02  0.25183993620E+02  0.95630689877E+02  0.00000000000E+00 0.  1.
<mgrwt>
<rscale>  2 0.13544270E+03</rscale>
<asrwt>0</asrwt>
<pdfrwt beam="1">  1       21 0.37617993E-01 0.13544270E+03</pdfrwt>
<pdfrwt beam="2">  1       21 0.20016186E-01 0.13544270E+03</pdfrwt>
<totfact> 0.15989345E+05</totfact>
</mgrwt>
</event>
<event>
 5    1  0.1365600E-001  0.1292870E+03  0.7546771E-02  0.1228518E+00
         21   -1    0    0  503  502  0.00000000000E+00  0.00000000000E+00  0.13344791101E+03  0.13344791101E+03  0.00000000000E+00 0. -1.
         21   -1    0    0  501  503 -0.00000000000E+00 -0.00000000000E+00 -0.17860352769E+03  0.17860352769E+03  0.00000000000E+00 0. -1.
         24    1    1    2    0    0 -0.24688549623E+02 -0.60230804346E+02  0.64474452171E+02  0.12190752730E+03  0.80419002446E+02 0. -1.
          1    1    1    2  501    0  0.83154623806E+02  0.45623216134E+02 -0.72213094729E+02  0.11920948100E+03  0.00000000000E+00 0. -1.
         -2    1    1    2    0  502 -0.58466074183E+02  0.14607588212E+02 -0.37416974122E+02  0.70934430400E+02  0.00000000000E+00 0.  1.
<mgrwt>
<rscale>  2 0.12928696E+03</rscale>
<asrwt>0</asrwt>
<pdfrwt beam="1">  1       21 0.20530448E-01 0.12928696E+03</pdfrwt>
<pdfrwt beam="2">  1       21 0.27477466E-01 0.12928696E+03</pdfrwt>
<totfact> 0.28157746E+05</totfact>
</mgrwt>
</event>
<event>
 5    1  0.1365600E-001  0.9620193E+02  0.7546771E-02  0.1288492E+00
         21   -1    0    0  501  502  0.00000000000E+00  0.00000000000E+00  0.34402539624E+03  0.34402539624E+03  0.00000000000E+00 0.  1.
         21   -1    0    0  502  503 -0.00000000000E+00 -0.00000000000E+00 -0.28574836270E+02  0.28574836270E+02  0.00000000000E+00 0. -1.
         24    1    1    2    0    0  0.10517178161E+02  0.21695573304E+02  0.17584801141E+03  0.19486161246E+03  0.80419002446E+02 0.  1.
          1    1    1    2  501    0 -0.13187262548E+02 -0.64361683957E+02  0.69564432360E+02  0.95684588649E+02  0.00000000000E+00 0. -1.
         -2    1    1    2    0  503  0.26700843872E+01  0.42666110653E+02  0.70038116197E+02  0.82054031402E+02  0.00000000000E+00 0.  1.
<mgrwt>
<rscale>  2 0.96201927E+02</rscale>
<asrwt>0</asrwt>
<pdfrwt beam="1">  1       21 0.52926981E-01 0.96201927E+02</pdfrwt>
<pdfrwt beam="2">  1       21 0.43961289E-02 0.96201927E+02</pdfrwt>
<totfact> 0.11280830E+06</totfact>
</mgrwt>
</event>
<event>
 5    1  0.1365600E-001  0.5636853E+03  0.7546771E-02  0.9983750E-01
         21   -1    0    0  501  502  0.00000000000E+00  0.00000000000E+00  0.88787506616E+03  0.88787506616E+03  0.00000000000E+00 0.  1.
         21   -1    0    0  502  503 -0.00000000000E+00 -0.00000000000E+00 -0.36136604790E+03  0.36136604790E+03  0.00000000000E+00 0. -1.
         24    1    1    2    0    0 -0.22418190877E+02 -0.30985376826E+03  0.10623653444E+03  0.33803158165E+03  0.80419002446E+02 0.  0.
          1    1    1    2  501    0 -0.29977810383E+03 -0.70533682891E+02  0.19212593081E+03  0.36297973118E+03  0.00000000000E+00 0. -1.
         -2    1    1    2    0  503  0.32219629471E+03  0.38038745115E+03  0.22814655301E+03  0.54822980124E+03  0.00000000000E+00 0.  1.
<mgrwt>
<rscale>  2 0.56368530E+03</rscale>
<asrwt>0</asrwt>
<pdfrwt beam="1">  1       21 0.13659616E+00 0.56368530E+03</pdfrwt>
<pdfrwt beam="2">  1       21 0.55594777E-01 0.56368530E+03</pdfrwt>
<totfact> 0.94278752E+02</totfact>
</mgrwt>
</event>
<event>
 5    1  0.1365600E-001  0.9317815E+02  0.7546771E-02  0.1295333E+00
         21   -1    0    0  503  502  0.00000000000E+00  0.00000000000E+00  0.15137233153E+03  0.15137233153E+03  0.00000000000E+00 0. -1.
         21   -1    0    0  501  503 -0.00000000000E+00 -0.00000000000E+00 -0.63172564426E+02  0.63172564426E+02  0.00000000000E+00 0.  1.
         24    1    1    2    0    0  0.16139061318E+02 -0.55283356468E+02  0.71106364460E+02  0.12181974316E+03  0.80419002446E+02 0. -1.
          1    1    1    2  501    0  0.19972100523E+02 -0.16312487452E+01 -0.68770833594E+01  0.21185845447E+02  0.00000000000E+00 0. -1.
         -2    1    1    2    0  502 -0.36111161841E+02  0.56914605213E+02  0.23970485999E+02  0.71539307343E+02  0.00000000000E+00 0.  1.
<mgrwt>
<rscale>  2 0.93178150E+02</rscale>
<asrwt>0</asrwt>
<pdfrwt beam="1">  1       21 0.23288051E-01 0.93178150E+02</pdfrwt>
<pdfrwt beam="2">  1       21 0.97188561E-02 0.93178150E+02</pdfrwt>
<totfact> 0.14638807E+06</totfact>
</mgrwt>
</event>
<event>
 5    1  0.1365600E-001  0.7204827E+02  0.7546771E-02  0.1353263E+00
         21   -1    0    0  503  502  0.00000000000E+00  0.00000000000E+00  0.92771750445E+02  0.92771750445E+02  0.00000000000E+00 0.  1.
         21   -1    0    0  501  503 -0.00000000000E+00 -0.00000000000E+00 -0.12120149717E+03  0.12120149717E+03  0.00000000000E+00 0.  1.
         24    1    1    2    0    0  0.92941911062E+01 -0.35914194016E+02  0.60711971635E+02  0.10737490756E+03  0.80419002446E+02 0.  1.
          1    1    1    2  501    0  0.15636694660E+02  0.21974529946E+02 -0.60049393120E+02  0.65827925688E+02  0.00000000000E+00 0. -1.
         -2    1    1    2    0  502 -0.24930885766E+02  0.13939664070E+02 -0.29092325236E+02  0.40770414360E+02  0.00000000000E+00 0.  1.
<mgrwt>
<rscale>  2 0.72048272E+02</rscale>
<asrwt>0</asrwt>
<pdfrwt beam="1">  1       21 0.14272577E-01 0.72048272E+02</pdfrwt>
<pdfrwt beam="2">  1       21 0.18646384E-01 0.72048272E+02</pdfrwt>
<totfact> 0.11152281E+06</totfact>
</mgrwt>
</event>
<event>
 5    1  0.1365600E-001  0.1742870E+03  0.7546771E-02  0.1173449E+00
         21   -1    0    0  503  502  0.00000000000E+00  0.00000000000E+00  0.78414994043E+02  0.78414994043E+02  0.00000000000E+00 0. -1.
         21   -1    0    0  501  503 -0.00000000000E+00 -0.00000000000E+00 -0.12881780932E+04  0.12881780932E+04  0.00000000000E+00 0. -1.
         24    1    1    2    0    0  0.67127440887E+02 -0.71851718717E+01 -0.22718668445E+02  0.10742939014E+03  0.80419002446E+02 0. -1.
          1    1    1    2  501    0 -0.80004621640E+02  0.11218356417E+03 -0.11311659224E+04  0.11395271982E+04  0.00000000000E+00 0. -1.
         -2    1    1    2    0  502  0.12877180753E+02 -0.10499839230E+03 -0.55878508325E+02  0.11963649887E+03  0.00000000000E+00 0.  1.
<mgrwt>
<rscale>  2 0.17428704E+03</rscale>
<asrwt>0</asrwt>
<pdfrwt beam="1">  1       21 0.12063845E-01 0.17428704E+03</pdfrwt>
<pdfrwt beam="2">  1       21 0.19818125E+00 0.17428704E+03</pdfrwt>
<totfact> 0.81506007E+03</totfact>
</mgrwt>
</event>
<event>
 5    1  0.1365600E-001  0.6838916E+02  0.7546771E-02  0.1365658E+00
         21   -1    0    0  501  502  0.00000000000E+00  0.00000000000E+00  0.43551355440E+02  0.43551355440E+02  0.00000000000E+00 0. -1.
         21   -1    0    0  502  503 -0.00000000000E+00 -0.00000000000E+00 -0.14481922654E+03  0.14481922654E+03  0.00000000000E+00 0.  1.
         24    1    1    2    0    0  0.14005098393E+02  0.69775293514E+01 -0.10924072743E+02  0.82652162806E+02  0.80419002446E+02 0. -1.
          1    1    1    2  501    0 -0.19209526315E+02  0.19791524127E+02 -0.43124403887E+02  0.51190082430E+02  0.00000000000E+00 0. -1.
         -2    1    1    2    0  503  0.52044279226E+01 -0.26769053479E+02 -0.47219394474E+02  0.54528336749E+02  0.00000000000E+00 0.  1.
<mgrwt>
<rscale>  2 0.68389165E+02</rscale>
<asrwt>0</asrwt>
<pdfrwt beam="1">  1       21 0.67002084E-02 0.68389165E+02</pdfrwt>
<pdfrwt beam="2">  1       21 0.22279881E-01 0.68389165E+02</pdfrwt>
<totfact> 0.29517761E+06</totfact>
</mgrwt>
</event>
<event>
 5    1  0.1365600E-001  0.7884321E+02  0.7546771E-02  0.1332367E+00
         21   -1    0    0  501  502  0.00000000000E+00  0.00000000000E+00  0.50502839435E+02  0.50502839435E+02  0.00000000000E+00 0. -1.
         21   -1    0    0  502  503 -0.00000000000E+00 -0.00000000000E+00 -0.25576820426E+03  0.25576820426E+03  0.00000000000E+00 0. -1.
         24    1    1    2    0    0  0.35810152690E+02 -0.56778173428E+01 -0.86406315703E+00  0.88218859690E+02  0.80419002446E+02 0. -1.
          1    1    1    2  501    0 -0.44953322610E+02 -0.14569821678E+02 -0.91460835755E+02  0.10294739139E+03  0.00000000000E+00 0. -1.
         -2    1    1    2    0  503  0.91431699195E+01  0.20247639021E+02 -0.11294046592E+03  0.11510479262E+03  0.00000000000E+00 0.  1.
<mgrwt>
<rscale>  2 0.78843212E+02</rscale>
<asrwt>0</asrwt>
<pdfrwt beam="1">  1       21 0.77696677E-02 0.78843212E+02</pdfrwt>
<pdfrwt beam="2">  1       21 0.39348954E-01 0.78843212E+02</pdfrwt>
<totfact> 0.78610571E+05</totfact>
</mgrwt>
</event>
<event>
 5    1  0.1365600E-001  0.6874090E+02  0.7546771E-02  0.1364428E+00
         21   -1    0    0  503  502  0.00000000000E+00  0.00000000000E+00  0.17764345052E+03  0.17764345052E+03  0.00000000000E+00 0. -1.
         21   -1    0    0  501  503 -0.00000000000E+00 -0.00000000000E+00 -0.34133987115E+02  0.34133987115E+02  0.00000000000E+00 0.  1.
         24    1    1    2    0    0 -0.43857090088E+01  0.13501977441E+02  0.12830680189E+03  0.15209006938E+03  0.80419002446E+02 0. -1.
          1    1    1    2  501    0  0.23891206297E+02  0.94556547804E+01 -0.53366305092E+00  0.25699882138E+02  0.00000000000E+00 0. -1.
         -2    1    1    2    0  502 -0.19505497289E+02 -0.22957632221E+02  0.15736324568E+02  0.33987486118E+02  0.00000000000E+00 0.  1.
<mgrwt>
<rscale>  2 0.68740903E+02</rscale>
<asrwt>0</asrwt>
<pdfrwt beam="1">  1       21 0.27329761E-01 0.68740903E+02</pdfrwt>
<pdfrwt beam="2">  1       21 0.52513828E-02 0.68740903E+02</pdfrwt>
<totfact> 0.30346293E+06</totfact>
</mgrwt>
</event>
<event>
 5    1  0.1365600E-001  0.1217695E+03  0.7546771E-02  0.1240206E+00
         21   -1    0    0  503  502  0.00000000000E+00  0.00000000000E+00  0.10161227135E+03  0.10161227135E+03  0.00000000000E+00 0. -1.
         21   -1    0    0  501  503 -0.00000000000E+00 -0.00000000000E+00 -0.24160137324E+03  0.24160137324E+03  0.00000000000E+00 0. -1.
         24    1    1    2    0    0  0.43856649104E+02  0.64807269722E+02  0.40183593451E+02  0.11918609406E+03  0.80419002446E+02 0. -1.
          1    1    1    2  501    0 -0.64536982382E+02 -0.82061040209E+02 -0.15675448834E+03  0.18833747909E+03  0.00000000000E+00 0. -1.
         -2    1    1    2    0  502  0.20680333278E+02  0.17253770487E+02 -0.23418206999E+02  0.35690071442E+02  0.00000000000E+00 0.  1.
<mgrwt>
<rscale>  2 0.12176949E+03</rscale>
<asrwt>0</asrwt>
<pdfrwt beam="1">  1       21 0.15632657E-01 0.12176949E+03</pdfrwt>
<pdfrwt beam="2">  1       21 0.37169441E-01 0.12176949E+03</pdfrwt>
<totfact> 0.25817269E+05</totfact>
</mgrwt>
</event>
<event>
 5    1  0.1365600E-001  0.1399487E+03  0.7546771E-02  0.1213398E+00
         21   -1    0    0  501  502  0.00000000000E+00  0.00000000000E+00  0.54106159315E+03  0.54106159315E+03  0.00000000000E+00 0.  1.
         21   -1    0    0  502  503 -0.00000000000E+00 -0.00000000000E+00 -0.51377833671E+02  0.51377833671E+02  0.00000000000E+00 0. -1.
         24    1    1    2    0    0 -0.61452927611E+02 -0.19282023473E+01  0.35348488272E+03  0.36769411002E+03  0.80419002446E+02 0.  1.
          1    1    1    2  501    0  0.58347851813E+02  0.80838709061E+02  0.72136370334E+02  0.12305699744E+03  0.00000000000E+00 0. -1.
         -2    1    1    2    0  503  0.31050757982E+01 -0.78910506714E+02  0.64062506424E+02  0.10168831936E+03  0.00000000000E+00 0.  1.
<mgrwt>
<rscale>  2 0.13994869E+03</rscale>
<asrwt>0</asrwt>
<pdfrwt beam="1">  1       21 0.83240241E-01 0.13994869E+03</pdfrwt>
<pdfrwt beam="2">  1       21 0.79042825E-02 0.13994869E+03</pdfrwt>
<totfact> 0.15679922E+05</totfact>
</mgrwt>
</event>
<event>
 5    1  0.1365600E-001  0.8198061E+02  0.7546771E-02  0.1323523E+00
         21   -1    0    0  501  502  0.00000000000E+00  0.00000000000E+00  0.12825844053E+04  0.12825844053E+04  0.00000000000E+00 0. -1.
         21   -1    0    0  502  503 -0.00000000000E+00 -0.00000000000E+00 -0.13127118125E+02  0.13127118125E+02  0.00000000000E+00 0.  1.
         24    1    1    2    0    0 -0.11301890054E+02  0.27729109432E+01  0.11086301454E+04  0.11116039929E+04  0.80419002446E+02 0. -1.
          1    1    1    2  501    0 -0.14292512903E+02  0.34583969237E+02  0.10920400203E+03  0.11543760614E+03  0.00000000000E+00 0. -1.
         -2    1    1    2    0  503  0.25594402956E+02 -0.37356880180E+02  0.51623139757E+02  0.68669924405E+02  0.00000000000E+00 0.  1.
<mgrwt>
<rscale>  2 0.81980609E+02</rscale>
<asrwt>0</asrwt>
<pdfrwt beam="1">  1       21 0.19732058E+00 0.81980609E+02</pdfrwt>
<pdfrwt beam="2">  1       21 0.20195577E-02 0.81980609E+02</pdfrwt>
<totfact> 0.18090423E+05</totfact>
</mgrwt>
</event>
<event>
 5    1  0.1365600E-001  0.1568632E+03  0.7546771E-02  0.1192284E+00
         21   -1    0    0  501  502  0.00000000000E+00  0.00000000000E+00  0.19222874427E+04  0.19222874427E+04  0.00000000000E+00 0. -1.
         21   -1    0    0  502  503 -0.00000000000E+00 -0.00000000000E+00 -0.12863974333E+02  0.12863974333E+02  0.00000000000E+00 0.  1.
         24    1    1    2    0    0  0.24247585017E+02 -0.31620051442E+02  0.48841200134E+03  0.49658964149E+03  0.80419002446E+02 0.  0.
          1    1    1    2  501    0  0.66461426032E+02 -0.63936510809E+02  0.57074479043E+03  0.57814757145E+03  0.00000000000E+00 0. -1.
         -2    1    1    2    0  503 -0.90709011049E+02  0.95556562251E+02  0.85026667656E+03  0.86041420406E+03  0.00000000000E+00 0.  1.
<mgrwt>
<rscale>  2 0.15686319E+03</rscale>
<asrwt>0</asrwt>
<pdfrwt beam="1">  1       21 0.29573630E+00 0.15686319E+03</pdfrwt>
<pdfrwt beam="2">  1       21 0.19790745E-02 0.15686319E+03</pdfrwt>
<totfact> 0.46809289E+04</totfact>
</mgrwt>
</event>
<event>
 5    1  0.1365600E-001  0.7764075E+02  0.7546771E-02  0.1335883E+00
         21   -1    0    0  501  502  0.00000000000E+00  0.00000000000E+00  0.12886003965E+02  0.12886003965E+02  0.00000000000E+00 0. -1.
         21   -1    0    0  502  503 -0.00000000000E+00 -0.00000000000E+00 -0.47998884105E+03  0.47998884105E+03  0.00000000000E+00 0.  1.
         24    1    1    2    0    0  0.77319048232E+01  0.65251594835E+01 -0.23669503489E+03  0.25018816030E+03  0.80419002446E+02 0. -1.
          1    1    1    2  501    0 -0.11493847433E+02 -0.39449610842E+02 -0.15429671109E+03  0.15967421638E+03  0.00000000000E+00 0. -1.
         -2    1    1    2    0  503  0.37619426095E+01  0.32924451358E+02 -0.76111091105E+02  0.83012468332E+02  0.00000000000E+00 0.  1.
<mgrwt>
<rscale>  2 0.77640750E+02</rscale>
<asrwt>0</asrwt>
<pdfrwt beam="1">  1       21 0.19824620E-02 0.77640750E+02</pdfrwt>
<pdfrwt beam="2">  1       21 0.73844442E-01 0.77640750E+02</pdfrwt>
<totfact> 0.20210852E+06</totfact>
</mgrwt>
</event>
<event>
 5    1  0.1365600E-001  0.1380446E+03  0.7546771E-02  0.1215985E+00
         21   -1    0    0  503  502  0.00000000000E+00  0.00000000000E+00  0.59039143886E+02  0.59039143886E+02  0.00000000000E+00 0.  1.
         21   -1    0    0  501  503 -0.00000000000E+00 -0.00000000000E+00 -0.81774169094E+03  0.81774169094E+03  0.00000000000E+00 0. -1.
         24    1    1    2    0    0 -0.70795908546E+02  0.30356326924E+02 -0.13263147496E+02  0.11214586166E+03  0.80419002446E+02 0.  1.
          1    1    1    2  501    0  0.64352950453E+02  0.51622037351E+02 -0.46988873294E+03  0.47707605087E+03  0.00000000000E+00 0. -1.
         -2    1    1    2    0  502  0.64429580932E+01 -0.81978364275E+02 -0.27555066662E+03  0.28755892229E+03  0.00000000000E+00 0.  1.
<mgrwt>
<rscale>  2 0.13804464E+03</rscale>
<asrwt>0</asrwt>
<pdfrwt beam="1">  1       21 0.90829453E-02 0.13804464E+03</pdfrwt>
<pdfrwt beam="2">  1       21 0.12580641E+00 0.13804464E+03</pdfrwt>
<totfact> 0.46535878E+04</totfact>
</mgrwt>
</event>
<event>
 5    1  0.1365600E-001  0.1014138E+03  0.7546771E-02  0.1277351E+00
         21   -1    0    0  501  502  0.00000000000E+00  0.00000000000E+00  0.74271744963E+03  0.74271744963E+03  0.00000000000E+00 0. -1.
         21   -1    0    0  502  503 -0.00000000000E+00 -0.00000000000E+00 -0.58573931718E+02  0.58573931718E+02  0.00000000000E+00 0. -1.
         24    1    1    2    0    0  0.36995511015E+02  0.76688433753E+02  0.70037464027E+03  0.71009973693E+03  0.80419002446E+02 0. -1.
          1    1    1    2  501    0 -0.24375136042E+02 -0.39282436127E+02  0.47693649207E+01  0.46475841971E+02  0.00000000000E+00 0. -1.
         -2    1    1    2    0  503 -0.12620374973E+02 -0.37405997625E+02 -0.21000487274E+02  0.44715802448E+02  0.00000000000E+00 0.  1.
<mgrwt>
<rscale>  2 0.10141385E+03</rscale>
<asrwt>0</asrwt>
<pdfrwt beam="1">  1       21 0.11426422E+00 0.10141385E+03</pdfrwt>
<pdfrwt beam="2">  1       21 0.90113746E-02 0.10141385E+03</pdfrwt>
<totfact> 0.61056248E+04</totfact>
</mgrwt>
</event>
<event>
 5    1  0.1365600E-001  0.1086432E+03  0.7546771E-02  0.1263103E+00
         21   -1    0    0  501  502  0.00000000000E+00  0.00000000000E+00  0.55089767851E+01  0.55089767851E+01  0.00000000000E+00 0.  1.
         21   -1    0    0  502  503 -0.00000000000E+00 -0.00000000000E+00 -0.22939419817E+04  0.22939419817E+04  0.00000000000E+00 0. -1.
         24    1    1    2    0    0  0.30296472945E+02  0.44671927833E+01 -0.63807996466E+03  0.64385641982E+03  0.80419002446E+02 0.  1.
          1    1    1    2  501    0 -0.25052264518E+02 -0.65421625076E+02 -0.94516832669E+03  0.94776092490E+03  0.00000000000E+00 0. -1.
         -2    1    1    2    0  503 -0.52442084272E+01  0.60954432292E+02 -0.70518471359E+03  0.70783361379E+03  0.00000000000E+00 0.  1.
<mgrwt>
<rscale>  2 0.10864325E+03</rscale>
<asrwt>0</asrwt>
<pdfrwt beam="1">  1       21 0.84753437E-03 0.10864325E+03</pdfrwt>
<pdfrwt beam="2">  1       21 0.35291437E+00 0.10864325E+03</pdfrwt>
<totfact> 0.90658161E+04</totfact>
</mgrwt>
</event>
<event>
 5    1  0.1365600E-001  0.2255717E+03  0.7546771E-02  0.1129796E+00
         21   -1    0    0  501  502  0.00000000000E+00  0.00000000000E+00  0.10372400344E+04  0.10372400344E+04  0.00000000000E+00 0.  1.
         21   -1    0    0  502  503 -0.00000000000E+00 -0.00000000000E+00 -0.80099724724E+02  0.80099724724E+02  0.00000000000E+00 0.  1.
         24    1    1    2    0    0 -0.97777781113E+01  0.57859735146E+02  0.51199572362E+03  0.52158430848E+03  0.80419002446E+02 0.  1.
          1    1    1    2  501    0 -0.10006165646E+03  0.11144726228E+03  0.33239307919E+03  0.36457919093E+03  0.00000000000E+00 0. -1.
         -2    1    1    2    0  503  0.10983943457E+03 -0.16930699742E+03  0.11275150690E+03  0.23117625975E+03  0.00000000000E+00 0.  1.
<mgrwt>
<rscale>  2 0.22557171E+03</rscale>
<asrwt>0</asrwt>
<pdfrwt beam="1">  1       21 0.15957538E+00 0.22557171E+03</pdfrwt>
<pdfrwt beam="2">  1       21 0.12323035E-01 0.22557171E+03</pdfrwt>
<totfact> 0.13862214E+04</totfact>
</mgrwt>
</event>
<event>
 5    1  0.1365600E-001  0.1523698E+03  0.7546771E-02  0.1197591E+00
         21   -1    0    0  501  502  0.00000000000E+00  0.00000000000E+00  0.16181395750E+03  0.16181395750E+03  0.00000000000E+00 0.  1.
         21   -1    0    0  502  503 -0.00000000000E+00 -0.00000000000E+00 -0.24113242781E+03  0.24113242781E+03  0.00000000000E+00 0. -1.
         24    1    1    2    0    0  0.34861071180E+02 -0.13663144822E+02  0.66754132486E+02  0.11101939456E+03  0.80419002446E+02 0.  0.
          1    1    1    2  501    0  0.26704033002E+00  0.11179813835E+03  0.83115609717E+00  0.11180154682E+03  0.00000000000E+00 0. -1.
         -2    1    1    2    0  503 -0.35128111510E+02 -0.98134993532E+02 -0.14690375890E+03  0.18012544393E+03  0.00000000000E+00 0.  1.
<mgrwt>
<rscale>  2 0.15236982E+03</rscale>
<asrwt>0</asrwt>
<pdfrwt beam="1">  1       21 0.24894455E-01 0.15236982E+03</pdfrwt>
<pdfrwt beam="2">  1       21 0.37097296E-01 0.15236982E+03</pdfrwt>
<totfact> 0.10863249E+05</totfact>
</mgrwt>
</event>
<event>
 5    1  0.1365600E-001  0.7663113E+02  0.7546771E-02  0.1338893E+00
         21   -1    0    0  501  502  0.00000000000E+00  0.00000000000E+00  0.25306645611E+02  0.25306645611E+02  0.00000000000E+00 0. -1.
         21   -1    0    0  502  503 -0.00000000000E+00 -0.00000000000E+00 -0.23391792862E+03  0.23391792862E+03  0.00000000000E+00 0.  1.
         24    1    1    2    0    0 -0.16083416786E+02  0.15473661966E+02 -0.10694173168E+03  0.13565345716E+03  0.80419002446E+02 0. -1.
          1    1    1    2  501    0 -0.15928631236E+02 -0.30524052196E+02 -0.43310911739E+02  0.55328782123E+02  0.00000000000E+00 0. -1.
         -2    1    1    2    0  503  0.32012048021E+02  0.15050390231E+02 -0.58358639593E+02  0.68242334952E+02  0.00000000000E+00 0.  1.
<mgrwt>
<rscale>  2 0.76631125E+02</rscale>
<asrwt>0</asrwt>
<pdfrwt beam="1">  1       21 0.38933302E-02 0.76631125E+02</pdfrwt>
<pdfrwt beam="2">  1       21 0.35987373E-01 0.76631125E+02</pdfrwt>
<totfact> 0.29572254E+06</totfact>
</mgrwt>
</event>
<event>
 5    1  0.1365600E-001  0.8580564E+02  0.7546771E-02  0.1313339E+00
         21   -1    0    0  503  502  0.00000000000E+00  0.00000000000E+00  0.44633097774E+03  0.44633097774E+03  0.00000000000E+00 0. -1.
         21   -1    0    0  501  503 -0.00000000000E+00 -0.00000000000E+00 -0.18245918350E+02  0.18245918350E+02  0.00000000000E+00 0. -1.
         24    1    1    2    0    0  0.20642201829E+02 -0.25429162104E+02  0.26744947866E+03  0.28119242943E+03  0.80419002446E+02 0.  0.
          1    1    1    2  501    0 -0.44933236112E+02 -0.56998319012E+01  0.59233373709E+02  0.74565919509E+02  0.00000000000E+00 0. -1.
         -2    1    1    2    0  502  0.24291034283E+02  0.31128994006E+02  0.10140220703E+03  0.10881854715E+03  0.00000000000E+00 0.  1.
<mgrwt>
<rscale>  2 0.85805644E+02</rscale>
<asrwt>0</asrwt>
<pdfrwt beam="1">  1       21 0.68666296E-01 0.85805644E+02</pdfrwt>
<pdfrwt beam="2">  1       21 0.28070647E-02 0.85805644E+02</pdfrwt>
<totfact> 0.13564810E+06</totfact>
</mgrwt>
</event>
<event>
 5    1  0.1365600E-001  0.1481628E+03  0.7546771E-02  0.1202749E+00
         21   -1    0    0  501  502  0.00000000000E+00  0.00000000000E+00  0.83452278789E+02  0.83452278789E+02  0.00000000000E+00 0.  1.
         21   -1    0    0  502  503 -0.00000000000E+00 -0.00000000000E+00 -0.38851059970E+03  0.38851059970E+03  0.00000000000E+00 0.  1.
         24    1    1    2    0    0 -0.95285493084E+02 -0.47116305640E+02 -0.86758416093E+01  0.13357304231E+03  0.80419002446E+02 0.  1.
          1    1    1    2  501    0 -0.30374287570E+02  0.76467601126E+01 -0.49705871466E+02  0.58751544182E+02  0.00000000000E+00 0. -1.
         -2    1    1    2    0  503  0.12565978065E+03  0.39469545528E+02 -0.24667660784E+03  0.27963829200E+03  0.00000000000E+00 0.  1.
<mgrwt>
<rscale>  2 0.14816285E+03</rscale>
<asrwt>0</asrwt>
<pdfrwt beam="1">  1       21 0.12838812E-01 0.14816285E+03</pdfrwt>
<pdfrwt beam="2">  1       21 0.59770861E-01 0.14816285E+03</pdfrwt>
<totfact> 0.13791089E+05</totfact>
</mgrwt>
</event>
<event>
 5    1  0.1365600E-001  0.1992988E+03  0.7546771E-02  0.1150332E+00
         21   -1    0    0  501  502  0.00000000000E+00  0.00000000000E+00  0.22169176215E+03  0.22169176215E+03  0.00000000000E+00 0.  1.
         21   -1    0    0  502  503 -0.00000000000E+00 -0.00000000000E+00 -0.30692316789E+03  0.30692316789E+03  0.00000000000E+00 0. -1.
         24    1    1    2    0    0 -0.87984445194E+00  0.84991355471E+02  0.12618697239E+03  0.17208914140E+03  0.80419002446E+02 0.  1.
          1    1    1    2  501    0  0.84627268627E+02 -0.15224047171E+03 -0.96084226307E+02  0.19892489630E+03  0.00000000000E+00 0. -1.
         -2    1    1    2    0  503 -0.83747424175E+02  0.67249116244E+02 -0.11533415182E+03  0.15760089234E+03  0.00000000000E+00 0.  1.
<mgrwt>
<rscale>  2 0.19929882E+03</rscale>
<asrwt>0</asrwt>
<pdfrwt beam="1">  1       21 0.34106425E-01 0.19929882E+03</pdfrwt>
<pdfrwt beam="2">  1       21 0.47218948E-01 0.19929882E+03</pdfrwt>
<totfact> 0.35419894E+04</totfact>
</mgrwt>
</event>
<event>
 5    1  0.1365600E-001  0.6743752E+02  0.7546771E-02  0.1369030E+00
         21   -1    0    0  501  502  0.00000000000E+00  0.00000000000E+00  0.14185516542E+02  0.14185516542E+02  0.00000000000E+00 0.  1.
         21   -1    0    0  502  503 -0.00000000000E+00 -0.00000000000E+00 -0.36427401469E+03  0.36427401469E+03  0.00000000000E+00 0.  1.
         24    1    1    2    0    0 -0.41712484136E+01 -0.26117468528E+01 -0.14113622074E+03  0.16251421259E+03  0.80419002446E+02 0.  1.
          1    1    1    2  501    0  0.75964181441E+01 -0.25181365761E+02 -0.91893428180E+02  0.95583517893E+02  0.00000000000E+00 0. -1.
         -2    1    1    2    0  503 -0.34251697305E+01  0.27793112614E+02 -0.11705884923E+03  0.12036180075E+03  0.00000000000E+00 0.  1.
<mgrwt>
<rscale>  2 0.67437522E+02</rscale>
<asrwt>0</asrwt>
<pdfrwt beam="1">  1       21 0.21823871E-02 0.67437522E+02</pdfrwt>
<pdfrwt beam="2">  1       21 0.56042158E-01 0.67437522E+02</pdfrwt>
<totfact> 0.30846799E+06</totfact>
</mgrwt>
</event>
<event>
 5    1  0.1365600E-001  0.1624795E+03  0.7546771E-02  0.1185926E+00
         21   -1    0    0  501  502  0.00000000000E+00  0.00000000000E+00  0.31673525168E+03  0.31673525168E+03  0.00000000000E+00 0. -1.
         21   -1    0    0  502  503 -0.00000000000E+00 -0.00000000000E+00 -0.13910055697E+03  0.13910055697E+03  0.00000000000E+00 0.  1.
         24    1    1    2    0    0  0.51228176568E+02  0.46318857971E+02  0.15054417397E+03  0.18412095738E+03  0.80419002446E+02 0.  0.
          1    1    1    2  501    0  0.81243549445E+02 -0.12150921875E+02  0.89378923834E+02  0.12139502154E+03  0.00000000000E+00 0. -1.
         -2    1    1    2    0  503 -0.13247172601E+03 -0.34167936096E+02 -0.62288403089E+02  0.15031982973E+03  0.00000000000E+00 0.  1.
<mgrwt>
<rscale>  2 0.16247949E+03</rscale>
<asrwt>0</asrwt>
<pdfrwt beam="1">  1       21 0.48728500E-01 0.16247949E+03</pdfrwt>
<pdfrwt beam="2">  1       21 0.21400086E-01 0.16247949E+03</pdfrwt>
<totfact> 0.82794894E+04</totfact>
</mgrwt>
</event>
<event>
 5    1  0.1365600E-001  0.1758449E+03  0.7546771E-02  0.1171886E+00
         21   -1    0    0  501  502  0.00000000000E+00  0.00000000000E+00  0.22352798357E+03  0.22352798357E+03  0.00000000000E+00 0.  1.
         21   -1    0    0  502  503 -0.00000000000E+00 -0.00000000000E+00 -0.21770197963E+03  0.21770197963E+03  0.00000000000E+00 0.  1.
         24    1    1    2    0    0 -0.43428761914E+02 -0.65746036516E+02  0.99492007001E+02  0.15024804189E+03  0.80419002446E+02 0.  1.
          1    1    1    2  501    0 -0.57385375964E+02 -0.56579846909E+02  0.33982761436E+02  0.87459639409E+02  0.00000000000E+00 0. -1.
         -2    1    1    2    0  503  0.10081413788E+03  0.12232588342E+03 -0.12764876450E+03  0.20352228190E+03  0.00000000000E+00 0.  1.
<mgrwt>
<rscale>  2 0.17584493E+03</rscale>
<asrwt>0</asrwt>
<pdfrwt beam="1">  1       21 0.34388921E-01 0.17584493E+03</pdfrwt>
<pdfrwt beam="2">  1       21 0.33492612E-01 0.17584493E+03</pdfrwt>
<totfact> 0.70470742E+04</totfact>
</mgrwt>
</event>
<event>
 5    1  0.1365600E-001  0.1353950E+03  0.7546771E-02  0.1219663E+00
         21   -1    0    0  501  502  0.00000000000E+00  0.00000000000E+00  0.39621959529E+02  0.39621959529E+02  0.00000000000E+00 0. -1.
         21   -1    0    0  502  503 -0.00000000000E+00 -0.00000000000E+00 -0.51411319079E+03  0.51411319079E+03  0.00000000000E+00 0. -1.
         24    1    1    2    0    0  0.10000328977E+03 -0.26258580648E+02 -0.17448706800E+03  0.21818140131E+03  0.80419002446E+02 0. -1.
          1    1    1    2  501    0 -0.90059024011E+02 -0.20196781182E+02 -0.13274168503E+03  0.16167526935E+03  0.00000000000E+00 0. -1.
         -2    1    1    2    0  503 -0.99442657622E+01  0.46455361830E+02 -0.16726247824E+03  0.17387847966E+03  0.00000000000E+00 0.  1.
<mgrwt>
<rscale>  2 0.13539496E+03</rscale>
<asrwt>0</asrwt>
<pdfrwt beam="1">  1       21 0.60956863E-02 0.13539496E+03</pdfrwt>
<pdfrwt beam="2">  1       21 0.79094334E-01 0.13539496E+03</pdfrwt>
<totfact> 0.27476879E+05</totfact>
</mgrwt>
</event>
<event>
 5    1  0.1365600E-001  0.1813130E+03  0.7546771E-02  0.1166538E+00
         21   -1    0    0  501  502  0.00000000000E+00  0.00000000000E+00  0.61209101170E+02  0.61209101170E+02  0.00000000000E+00 0. -1.
         21   -1    0    0  502  503 -0.00000000000E+00 -0.00000000000E+00 -0.14706058006E+04  0.14706058006E+04  0.00000000000E+00 0.  1.
         24    1    1    2    0    0  0.18082703040E+02  0.32159906795E+02 -0.92436344282E+02  0.12795677963E+03  0.80419002446E+02 0.  1.
          1    1    1    2  501    0 -0.14254261255E+03 -0.43862376837E+02 -0.97889771757E+02  0.17839482030E+03  0.00000000000E+00 0. -1.
         -2    1    1    2    0  503  0.12445990951E+03  0.11702470042E+02 -0.12190705834E+04  0.12254633019E+04  0.00000000000E+00 0.  1.
<mgrwt>
<rscale>  2 0.18131300E+03</rscale>
<asrwt>0</asrwt>
<pdfrwt beam="1">  1       21 0.94167858E-02 0.18131300E+03</pdfrwt>
<pdfrwt beam="2">  1       21 0.22624702E+00 0.18131300E+03</pdfrwt>
<totfact> 0.84020345E+03</totfact>
</mgrwt>
</event>
<event>
 5    1  0.1365600E-001  0.9783657E+02  0.7546771E-02  0.1284912E+00
         21   -1    0    0  501  502  0.00000000000E+00  0.00000000000E+00  0.15883050939E+03  0.15883050939E+03  0.00000000000E+00 0. -1.
         21   -1    0    0  502  503 -0.00000000000E+00 -0.00000000000E+00 -0.69848825091E+02  0.69848825091E+02  0.00000000000E+00 0.  1.
         24    1    1    2    0    0  0.37107506666E+02  0.41555259575E+02  0.33640275546E+02  0.10345380971E+03  0.80419002446E+02 0. -1.
          1    1    1    2  501    0 -0.37570115931E+02 -0.64632976582E+02  0.66070970977E+02  0.99771280831E+02  0.00000000000E+00 0. -1.
         -2    1    1    2    0  503  0.46260926479E+00  0.23077717007E+02 -0.10729562219E+02  0.25454243948E+02  0.00000000000E+00 0.  1.
<mgrwt>
<rscale>  2 0.97836569E+02</rscale>
<asrwt>0</asrwt>
<pdfrwt beam="1">  1       21 0.24435463E-01 0.97836569E+02</pdfrwt>
<pdfrwt beam="2">  1       21 0.10745973E-01 0.97836569E+02</pdfrwt>
<totfact> 0.11251193E+06</totfact>
</mgrwt>
</event>
<event>
 5    1  0.1365600E-001  0.1117453E+03  0.7546771E-02  0.1257372E+00
         21   -1    0    0  501  502  0.00000000000E+00  0.00000000000E+00  0.50062591239E+03  0.50062591239E+03  0.00000000000E+00 0. -1.
         21   -1    0    0  502  503 -0.00000000000E+00 -0.00000000000E+00 -0.35595266227E+02  0.35595266227E+02  0.00000000000E+00 0.  1.
         24    1    1    2    0    0 -0.45258859789E+02  0.58955597622E+02  0.37553867311E+03  0.39117852426E+03  0.80419002446E+02 0. -1.
          1    1    1    2  501    0 -0.85100482978E+01  0.18113792280E+02  0.18690633383E+02  0.27383757394E+02  0.00000000000E+00 0. -1.
         -2    1    1    2    0  503  0.53768908087E+02 -0.77069389902E+02  0.70801339665E+02  0.11765889697E+03  0.00000000000E+00 0.  1.
<mgrwt>
<rscale>  2 0.11174525E+03</rscale>
<asrwt>0</asrwt>
<pdfrwt beam="1">  1       21 0.77019366E-01 0.11174525E+03</pdfrwt>
<pdfrwt beam="2">  1       21 0.54761952E-02 0.11174525E+03</pdfrwt>
<totfact> 0.35110106E+05</totfact>
</mgrwt>
</event>
<event>
 5    1  0.1438026E-001  0.2593969E+03  0.7546771E-02  0.1107506E+00
         21   -1    0    0  503  502  0.00000000000E+00  0.00000000000E+00  0.12489788408E+03  0.12489788408E+03  0.00000000000E+00 0. -1.
         21   -1    0    0  501  503 -0.00000000000E+00 -0.00000000000E+00 -0.64185330124E+03  0.64185330124E+03  0.00000000000E+00 0.  1.
         24    1    1    2    0    0  0.54523150602E+01  0.26889232081E+02 -0.79732918962E+02  0.11652172700E+03  0.80419002446E+02 0.  1.
          1    1    1    2  501    0  0.21036219384E+03 -0.51601541814E+02 -0.35913447449E+03  0.41939544881E+03  0.00000000000E+00 0. -1.
         -2    1    1    2    0  502 -0.21581450890E+03  0.24712309733E+02 -0.78088023709E+02  0.23083400952E+03  0.00000000000E+00 0.  1.
<mgrwt>
<rscale>  2 0.25939692E+03</rscale>
<asrwt>0</asrwt>
<pdfrwt beam="1">  1       21 0.19215060E-01 0.25939692E+03</pdfrwt>
<pdfrwt beam="2">  1       21 0.98746659E-01 0.25939692E+03</pdfrwt>
<totfact> 0.20278686E+04</totfact>
</mgrwt>
</event>
