<event>
 5    1  0.1994521E+000  0.7846419E+02  0.7546771E-02  0.1333467E+00
         21   -1    0    0  503  502  0.00000000000E+00  0.00000000000E+00  0.21937337218E+02  0.21937337218E+02  0.00000000000E+00 0. -1.
         21   -1    0    0  501  503 -0.00000000000E+00 -0.00000000000E+00 -0.48551463631E+03  0.48551463631E+03  0.00000000000E+00 0. -1.
         24    1    1    2    0    0  0.14059118330E+02 -0.34047993753E+02 -0.92179284854E+02  0.12775430011E+03  0.80419002446E+02 0. -1.
          1    1    1    2  501    0 -0.36473636314E+02  0.25413285302E+02 -0.31867644619E+03  0.32176208380E+03  0.00000000000E+00 0. -1.
         -2    1    1    2    0  502  0.22414517985E+02  0.86347084509E+01 -0.52721568055E+02  0.57935589621E+02  0.00000000000E+00 0.  1.
<mgrwt>
<rscale>  2 0.78464191E+02</rscale>
<asrwt>0</asrwt>
<pdfrwt beam="1">  1       21 0.33749747E-02 0.78464191E+02</pdfrwt>
<pdfrwt beam="2">  1       21 0.74694565E-01 0.78464191E+02</pdfrwt>
<totfact> 0.83738373E+05</totfact>
</mgrwt>
</event>
<event>
 5    1  0.1994521E+000  0.8860852E+02  0.7546771E-02  0.1306257E+00
         21   -1    0    0  503  502  0.00000000000E+00  0.00000000000E+00  0.62349006578E+03  0.62349006578E+03  0.00000000000E+00 0. -1.
         21   -1    0    0  501  503 -0.00000000000E+00 -0.00000000000E+00 -0.13687471959E+02  0.13687471959E+02  0.00000000000E+00 0.  1.
         24    1    1    2    0    0  0.24020019145E+02 -0.17613109134E+02  0.34718018953E+03  0.35761499254E+03  0.80419002446E+02 0.  0.
          1    1    1    2  501    0 -0.27076715376E+02  0.51101446381E+02  0.12255033680E+03  0.13551048442E+03  0.00000000000E+00 0. -1.
         -2    1    1    2    0  502  0.30566962316E+01 -0.33488337246E+02  0.14007206750E+03  0.14405206078E+03  0.00000000000E+00 0.  1.
<mgrwt>
<rscale>  2 0.88608525E+02</rscale>
<asrwt>0</asrwt>
<pdfrwt beam="1">  1       21 0.95921527E-01 0.88608525E+02</pdfrwt>
<pdfrwt beam="2">  1       21 0.21057654E-02 0.88608525E+02</pdfrwt>
<totfact> 0.10285722E+06</totfact>
</mgrwt>
</event>
<event>
 5    1  0.1994521E+000  0.7179164E+02  0.7546771E-02  0.1354104E+00
         21   -1    0    0  503  502  0.00000000000E+00  0.00000000000E+00  0.71989477000E+03  0.71989477000E+03  0.00000000000E+00 0.  1.
         21   -1    0    0  501  503 -0.00000000000E+00 -0.00000000000E+00 -0.95425044059E+01  0.95425044059E+01  0.00000000000E+00 0.  1.
         24    1    1    2    0    0  0.34295031367E+02  0.34442414273E+02  0.35302689882E+03  0.36531854089E+03  0.80419002446E+02 0.  1.
          1    1    1    2  501    0 -0.16481049844E+02 -0.23525501796E+02  0.65196042583E+02  0.71243232712E+02  0.00000000000E+00 0. -1.
         -2    1    1    2    0  502 -0.17813981523E+02 -0.10916912478E+02  0.29212932419E+03  0.29287550080E+03  0.00000000000E+00 0.  1.
<mgrwt>
<rscale>  2 0.71791642E+02</rscale>
<asrwt>0</asrwt>
<pdfrwt beam="1">  1       21 0.11075300E+00 0.71791642E+02</pdfrwt>
<pdfrwt beam="2">  1       21 0.14680782E-02 0.71791642E+02</pdfrwt>
<totfact> 0.13024995E+06</totfact>
</mgrwt>
</event>
<event>
 5    1  0.1994521E+000  0.1168642E+03  0.7546771E-02  0.1248362E+00
         21   -1    0    0  503  502  0.00000000000E+00  0.00000000000E+00  0.12200985638E+04  0.12200985638E+04  0.00000000000E+00 0.  1.
         21   -1    0    0  501  503 -0.00000000000E+00 -0.00000000000E+00 -0.26512073890E+02  0.26512073890E+02  0.00000000000E+00 0. -1.
         24    1    1    2    0    0  0.51444635844E+02 -0.83807859367E+02  0.10100957219E+04  0.10180524993E+04  0.80419002446E+02 0.  0.
          1    1    1    2  501    0 -0.50289476272E+02  0.43855412330E+02  0.36143234191E+02  0.75885848431E+02  0.00000000000E+00 0. -1.
         -2    1    1    2    0  502 -0.11551595712E+01  0.39952447037E+02  0.14734753380E+03  0.15267229000E+03  0.00000000000E+00 0.  1.
<mgrwt>
<rscale>  2 0.11686423E+03</rscale>
<asrwt>0</asrwt>
<pdfrwt beam="1">  1       21 0.18770743E+00 0.11686423E+03</pdfrwt>
<pdfrwt beam="2">  1       21 0.40787816E-02 0.11686423E+03</pdfrwt>
<totfact> 0.64447590E+04</totfact>
</mgrwt>
</event>
<event>
 5    1  0.1994521E+000  0.6790040E+02  0.7546771E-02  0.1367382E+00
         21   -1    0    0  501  502  0.00000000000E+00  0.00000000000E+00  0.80720943174E+03  0.80720943174E+03  0.00000000000E+00 0.  1.
         21   -1    0    0  502  503 -0.00000000000E+00 -0.00000000000E+00 -0.69524229149E+01  0.69524229149E+01  0.00000000000E+00 0.  1.
         24    1    1    2    0    0 -0.39588223931E+02 -0.48247612274E+01  0.63019334351E+03  0.63655429615E+03  0.80419002446E+02 0.  1.
          1    1    1    2  501    0  0.22118702299E+02 -0.88775920661E+01  0.12635538170E+03  0.12858355694E+03  0.00000000000E+00 0. -1.
         -2    1    1    2    0  503  0.17469521632E+02  0.13702353294E+02  0.43708283621E+02  0.49024001560E+02  0.00000000000E+00 0.  1.
<mgrwt>
<rscale>  2 0.67900403E+02</rscale>
<asrwt>0</asrwt>
<pdfrwt beam="1">  1       21 0.12418599E+00 0.67900403E+02</pdfrwt>
<pdfrwt beam="2">  1       21 0.10696042E-02 0.67900403E+02</pdfrwt>
<totfact> 0.16276075E+06</totfact>
</mgrwt>
</event>
<event>
 5    1  0.1994521E+000  0.1068349E+03  0.7546771E-02  0.1266546E+00
         21   -1    0    0  501  502  0.00000000000E+00  0.00000000000E+00  0.33680313696E+03  0.33680313696E+03  0.00000000000E+00 0.  1.
         21   -1    0    0  502  503 -0.00000000000E+00 -0.00000000000E+00 -0.40600598737E+02  0.40600598737E+02  0.00000000000E+00 0.  1.
         24    1    1    2    0    0  0.77753317811E+02 -0.46406340294E+02  0.21814423604E+03  0.24950601299E+03  0.80419002446E+02 0.  1.
          1    1    1    2  501    0 -0.14710337826E+02  0.18463264404E+02  0.46314731003E+02  0.51984040621E+02  0.00000000000E+00 0. -1.
         -2    1    1    2    0  503 -0.63042979985E+02  0.27943075889E+02  0.31743571182E+02  0.75913682080E+02  0.00000000000E+00 0.  1.
<mgrwt>
<rscale>  2 0.10683489E+03</rscale>
<asrwt>0</asrwt>
<pdfrwt beam="1">  1       21 0.51815865E-01 0.10683489E+03</pdfrwt>
<pdfrwt beam="2">  1       21 0.62462462E-02 0.10683489E+03</pdfrwt>
<totfact> 0.65531463E+05</totfact>
</mgrwt>
</event>
<event>
 5    1  0.1994521E+000  0.1076081E+03  0.7546771E-02  0.1265065E+00
         21   -1    0    0  501  502  0.00000000000E+00  0.00000000000E+00  0.36803938021E+02  0.36803938021E+02  0.00000000000E+00 0.  1.
         21   -1    0    0  502  503 -0.00000000000E+00 -0.00000000000E+00 -0.42490062651E+03  0.42490062651E+03  0.00000000000E+00 0.  1.
         24    1    1    2    0    0  0.56492525560E+02 -0.57597605587E+01 -0.25874769449E+03  0.27684321492E+03  0.80419002446E+02 0.  1.
          1    1    1    2  501    0  0.29670682567E+02  0.74415716636E+01 -0.14330793160E+01  0.30623195606E+02  0.00000000000E+00 0. -1.
         -2    1    1    2    0  503 -0.86163208127E+02 -0.16818111049E+01 -0.12791591468E+03  0.15423815401E+03  0.00000000000E+00 0.  1.
<mgrwt>
<rscale>  2 0.10760809E+03</rscale>
<asrwt>0</asrwt>
<pdfrwt beam="1">  1       21 0.56621440E-02 0.10760809E+03</pdfrwt>
<pdfrwt beam="2">  1       21 0.65369330E-01 0.10760809E+03</pdfrwt>
<totfact> 0.47450051E+05</totfact>
</mgrwt>
</event>
<event>
 5    1  0.1994521E+000  0.8604054E+02  0.7546771E-02  0.1312734E+00
         21   -1    0    0  503  502  0.00000000000E+00  0.00000000000E+00  0.21130767661E+03  0.21130767661E+03  0.00000000000E+00 0.  1.
         21   -1    0    0  501  503 -0.00000000000E+00 -0.00000000000E+00 -0.39899994681E+02  0.39899994681E+02  0.00000000000E+00 0.  1.
         24    1    1    2    0    0 -0.54864210690E+02  0.11510894072E+02  0.59800112783E+02  0.11482966403E+03  0.80419002446E+02 0.  0.
          1    1    1    2  501    0  0.51800921018E+02  0.96311773168E+01  0.56403123201E+02  0.77184242573E+02  0.00000000000E+00 0. -1.
         -2    1    1    2    0  502  0.30632896720E+01 -0.21142071389E+02  0.55204445945E+02  0.59193764691E+02  0.00000000000E+00 0.  1.
<mgrwt>
<rscale>  2 0.86040540E+02</rscale>
<asrwt>0</asrwt>
<pdfrwt beam="1">  1       21 0.32508873E-01 0.86040540E+02</pdfrwt>
<pdfrwt beam="2">  1       21 0.61384608E-02 0.86040540E+02</pdfrwt>
<totfact> 0.17005945E+06</totfact>
</mgrwt>
</event>
<event>
 5    1  0.1994521E+000  0.9567388E+02  0.7546771E-02  0.1289666E+00
         21   -1    0    0  503  502  0.00000000000E+00  0.00000000000E+00  0.22679463335E+02  0.22679463335E+02  0.00000000000E+00 0.  1.
         21   -1    0    0  501  503 -0.00000000000E+00 -0.00000000000E+00 -0.61758482702E+03  0.61758482702E+03  0.00000000000E+00 0.  1.
         24    1    1    2    0    0  0.60967821220E+02 -0.20934385569E+02 -0.49981717691E+03  0.51033297955E+03  0.80419002446E+02 0.  1.
          1    1    1    2  501    0 -0.21071716883E+02 -0.21454006708E+02 -0.37232012821E+02  0.47859319206E+02  0.00000000000E+00 0. -1.
         -2    1    1    2    0  502 -0.39896104337E+02  0.42388392277E+02 -0.57856173957E+02  0.82071991605E+02  0.00000000000E+00 0.  1.
<mgrwt>
<rscale>  2 0.95673878E+02</rscale>
<asrwt>0</asrwt>
<pdfrwt beam="1">  1       21 0.34891477E-02 0.95673878E+02</pdfrwt>
<pdfrwt beam="2">  1       21 0.95013065E-01 0.95673878E+02</pdfrwt>
<totfact> 0.46386482E+05</totfact>
</mgrwt>
</event>
<event>
 5    1  0.1994521E+000  0.6538276E+02  0.7546771E-02  0.1376537E+00
         21   -1    0    0  501  502  0.00000000000E+00  0.00000000000E+00  0.49523886225E+03  0.49523886225E+03  0.00000000000E+00 0. -1.
         21   -1    0    0  502  503 -0.00000000000E+00 -0.00000000000E+00 -0.11143012977E+02  0.11143012977E+02  0.00000000000E+00 0. -1.
         24    1    1    2    0    0  0.10236522482E+01  0.84832663735E+00  0.17819561924E+03  0.19550616919E+03  0.80419002446E+02 0. -1.
          1    1    1    2  501    0 -0.15122965515E+02 -0.20915670516E+02  0.22106295146E+03  0.22256459257E+03  0.00000000000E+00 0. -1.
         -2    1    1    2    0  503  0.14099313267E+02  0.20067343878E+02  0.84837278572E+02  0.88311113460E+02  0.00000000000E+00 0.  1.
<mgrwt>
<rscale>  2 0.65382760E+02</rscale>
<asrwt>0</asrwt>
<pdfrwt beam="1">  1       21 0.76190577E-01 0.65382760E+02</pdfrwt>
<pdfrwt beam="2">  1       21 0.17143101E-02 0.65382760E+02</pdfrwt>
<totfact> 0.23607632E+06</totfact>
</mgrwt>
</event>
<event>
 5    1  0.1994521E+000  0.6941907E+02  0.7546771E-02  0.1362080E+00
         21   -1    0    0  501  502  0.00000000000E+00  0.00000000000E+00  0.93693763024E+02  0.93693763024E+02  0.00000000000E+00 0. -1.
         21   -1    0    0  502  503 -0.00000000000E+00 -0.00000000000E+00 -0.12980997713E+03  0.12980997713E+03  0.00000000000E+00 0. -1.
         24    1    1    2    0    0  0.70076855179E+01  0.33098516103E+02 -0.99480126096E+02  0.13231829377E+03  0.80419002446E+02 0. -1.
          1    1    1    2  501    0 -0.21589598254E+02 -0.89257789562E+01  0.57894157576E+02  0.62430070993E+02  0.00000000000E+00 0. -1.
         -2    1    1    2    0  503  0.14581912737E+02 -0.24172737147E+02  0.54697544146E+01  0.28755375386E+02  0.00000000000E+00 0.  1.
<mgrwt>
<rscale>  2 0.69419069E+02</rscale>
<asrwt>0</asrwt>
<pdfrwt beam="1">  1       21 0.14414425E-01 0.69419069E+02</pdfrwt>
<pdfrwt beam="2">  1       21 0.19970766E-01 0.69419069E+02</pdfrwt>
<totfact> 0.96671238E+05</totfact>
</mgrwt>
</event>
<event>
 5    1  0.1994521E+000  0.8564375E+02  0.7546771E-02  0.1313758E+00
         21   -1    0    0  501  502  0.00000000000E+00  0.00000000000E+00  0.38262585713E+01  0.38262585713E+01  0.00000000000E+00 0. -1.
         21   -1    0    0  502  503 -0.00000000000E+00 -0.00000000000E+00 -0.29958740627E+04  0.29958740627E+04  0.00000000000E+00 0.  1.
         24    1    1    2    0    0 -0.37393619493E+02 -0.14082765120E+02 -0.14792072680E+04  0.14819304858E+04  0.80419002446E+02 0. -1.
          1    1    1    2  501    0  0.15185146480E+02  0.42668349499E+02 -0.22989134793E+03  0.23431006930E+03  0.00000000000E+00 0. -1.
         -2    1    1    2    0  503  0.22208473012E+02 -0.28585584379E+02 -0.12829491882E+04  0.12834597662E+04  0.00000000000E+00 0.  1.
<mgrwt>
<rscale>  2 0.85643747E+02</rscale>
<asrwt>0</asrwt>
<pdfrwt beam="1">  1       21 0.58865362E-03 0.85643747E+02</pdfrwt>
<pdfrwt beam="2">  1       21 0.46090491E+00 0.85643747E+02</pdfrwt>
<totfact> 0.36817967E+04</totfact>
</mgrwt>
</event>
<event>
 5    1  0.1994521E+000  0.6762346E+02  0.7546771E-02  0.1368366E+00
         21   -1    0    0  501  502  0.00000000000E+00  0.00000000000E+00  0.15145814477E+02  0.15145814477E+02  0.00000000000E+00 0.  1.
         21   -1    0    0  502  503 -0.00000000000E+00 -0.00000000000E+00 -0.34942804445E+03  0.34942804445E+03  0.00000000000E+00 0.  1.
         24    1    1    2    0    0  0.81042218436E+01 -0.15715732546E+02 -0.13793578096E+03  0.16064295280E+03  0.80419002446E+02 0.  1.
          1    1    1    2  501    0 -0.17415873130E+02 -0.13632473218E+02 -0.55215273540E+02  0.59480109239E+02  0.00000000000E+00 0. -1.
         -2    1    1    2    0  503  0.93116512868E+01  0.29348205764E+02 -0.14113117547E+03  0.14445079689E+03  0.00000000000E+00 0.  1.
<mgrwt>
<rscale>  2 0.67623455E+02</rscale>
<asrwt>0</asrwt>
<pdfrwt beam="1">  1       21 0.23301253E-02 0.67623455E+02</pdfrwt>
<pdfrwt beam="2">  1       21 0.53758161E-01 0.67623455E+02</pdfrwt>
<totfact> 0.30268445E+06</totfact>
</mgrwt>
</event>
<event>
 5    1  0.1994521E+000  0.8270926E+02  0.7546771E-02  0.1321534E+00
         21   -1    0    0  501  502  0.00000000000E+00  0.00000000000E+00  0.50246111557E+02  0.50246111557E+02  0.00000000000E+00 0. -1.
         21   -1    0    0  502  503 -0.00000000000E+00 -0.00000000000E+00 -0.16206965955E+03  0.16206965955E+03  0.00000000000E+00 0. -1.
         24    1    1    2    0    0 -0.46701279513E+02 -0.20628515810E+02 -0.88320063490E+02  0.12990071109E+03  0.80419002446E+02 0. -1.
          1    1    1    2  501    0  0.15579989875E+01  0.24779572025E+02  0.92408896863E+01  0.26492425196E+02  0.00000000000E+00 0. -1.
         -2    1    1    2    0  503  0.45143280525E+02 -0.41510562152E+01 -0.32744374193E+02  0.55922634823E+02  0.00000000000E+00 0.  1.
<mgrwt>
<rscale>  2 0.82709262E+02</rscale>
<asrwt>0</asrwt>
<pdfrwt beam="1">  1       21 0.77301708E-02 0.82709262E+02</pdfrwt>
<pdfrwt beam="2">  1       21 0.24933794E-01 0.82709262E+02</pdfrwt>
<totfact> 0.19010667E+06</totfact>
</mgrwt>
</event>
<event>
 5    1  0.1994521E+000  0.9345760E+02  0.7546771E-02  0.1294688E+00
         21   -1    0    0  503  502  0.00000000000E+00  0.00000000000E+00  0.37671921553E+02  0.37671921553E+02  0.00000000000E+00 0.  1.
         21   -1    0    0  501  503 -0.00000000000E+00 -0.00000000000E+00 -0.30678916909E+03  0.30678916909E+03  0.00000000000E+00 0.  1.
         24    1    1    2    0    0 -0.22677185486E+02  0.63862583003E+02 -0.13700599261E+03  0.17271520551E+03  0.80419002446E+02 0.  1.
          1    1    1    2  501    0  0.27008489153E+02 -0.11744725973E+02 -0.11184696343E+03  0.11565958803E+03  0.00000000000E+00 0. -1.
         -2    1    1    2    0  502 -0.43313036678E+01 -0.52117857030E+02 -0.20264291496E+02  0.56086297102E+02  0.00000000000E+00 0.  1.
<mgrwt>
<rscale>  2 0.93457596E+02</rscale>
<asrwt>0</asrwt>
<pdfrwt beam="1">  1       21 0.57956804E-02 0.93457596E+02</pdfrwt>
<pdfrwt beam="2">  1       21 0.47198332E-01 0.93457596E+02</pdfrwt>
<totfact> 0.89901368E+05</totfact>
</mgrwt>
</event>
<event>
 5    1  0.1994521E+000  0.7962365E+02  0.7546771E-02  0.1330123E+00
         21   -1    0    0  501  502  0.00000000000E+00  0.00000000000E+00  0.29592766645E+02  0.29592766645E+02  0.00000000000E+00 0. -1.
         21   -1    0    0  502  503 -0.00000000000E+00 -0.00000000000E+00 -0.63062276979E+03  0.63062276979E+03  0.00000000000E+00 0. -1.
         24    1    1    2    0    0  0.28907704150E+02  0.53378957887E+01 -0.41230015054E+03  0.42109711300E+03  0.80419002446E+02 0. -1.
          1    1    1    2  501    0 -0.48327730351E+02  0.94142419024E+01 -0.42204154526E+00  0.49237948684E+02  0.00000000000E+00 0. -1.
         -2    1    1    2    0  503  0.19420026201E+02 -0.14752137691E+02 -0.18830781106E+03  0.18988047475E+03  0.00000000000E+00 0.  1.
<mgrwt>
<rscale>  2 0.79623645E+02</rscale>
<asrwt>0</asrwt>
<pdfrwt beam="1">  1       21 0.45527337E-02 0.79623645E+02</pdfrwt>
<pdfrwt beam="2">  1       21 0.97018880E-01 0.79623645E+02</pdfrwt>
<totfact> 0.28637744E+05</totfact>
</mgrwt>
</event>
<event>
 5    1  0.1994521E+000  0.9741020E+02  0.7546771E-02  0.1285838E+00
         21   -1    0    0  503  502  0.00000000000E+00  0.00000000000E+00  0.17464769453E+03  0.17464769453E+03  0.00000000000E+00 0.  1.
         21   -1    0    0  501  503 -0.00000000000E+00 -0.00000000000E+00 -0.79932532560E+02  0.79932532560E+02  0.00000000000E+00 0. -1.
         24    1    1    2    0    0 -0.38561079580E+02  0.85786183428E+01  0.16016948301E+02  0.91018174769E+02  0.80419002446E+02 0.  0.
          1    1    1    2  501    0 -0.66193845062E+01  0.39030593304E+02 -0.20527041767E+02  0.44593305648E+02  0.00000000000E+00 0. -1.
         -2    1    1    2    0  502  0.45180464087E+02 -0.47609211647E+02  0.99225255439E+02  0.11896874668E+03  0.00000000000E+00 0.  1.
<mgrwt>
<rscale>  2 0.97410200E+02</rscale>
<asrwt>0</asrwt>
<pdfrwt beam="1">  1       21 0.26868876E-01 0.97410200E+02</pdfrwt>
<pdfrwt beam="2">  1       21 0.12297313E-01 0.97410200E+02</pdfrwt>
<totfact> 0.74300217E+05</totfact>
</mgrwt>
</event>
<event>
 5    1  0.1994521E+000  0.7124715E+02  0.7546771E-02  0.1355903E+00
         21   -1    0    0  501  502  0.00000000000E+00  0.00000000000E+00  0.17734726286E+03  0.17734726286E+03  0.00000000000E+00 0.  1.
         21   -1    0    0  502  503 -0.00000000000E+00 -0.00000000000E+00 -0.31492415308E+02  0.31492415308E+02  0.00000000000E+00 0. -1.
         24    1    1    2    0    0  0.92289980710E+01  0.44097760253E+02  0.11290090869E+03  0.14575190566E+03  0.80419002446E+02 0.  1.
          1    1    1    2  501    0  0.51025796431E+01 -0.29201885672E+02  0.30054827392E+02  0.42214678672E+02  0.00000000000E+00 0. -1.
         -2    1    1    2    0  503 -0.14331577714E+02 -0.14895874581E+02  0.28991114731E+01  0.20873093844E+02  0.00000000000E+00 0.  1.
<mgrwt>
<rscale>  2 0.71247151E+02</rscale>
<asrwt>0</asrwt>
<pdfrwt beam="1">  1       21 0.27284194E-01 0.71247151E+02</pdfrwt>
<pdfrwt beam="2">  1       21 0.48449871E-02 0.71247151E+02</pdfrwt>
<totfact> 0.34856732E+06</totfact>
</mgrwt>
</event>
<event>
 5    1  0.1994521E+000  0.7217611E+02  0.7546771E-02  0.1352846E+00
         21   -1    0    0  503  502  0.00000000000E+00  0.00000000000E+00  0.24865509034E+03  0.24865509034E+03  0.00000000000E+00 0. -1.
         21   -1    0    0  501  503 -0.00000000000E+00 -0.00000000000E+00 -0.24805729104E+02  0.24805729104E+02  0.00000000000E+00 0. -1.
         24    1    1    2    0    0 -0.63785075171E+01  0.25794705601E+02  0.12021682819E+03  0.14705561509E+03  0.80419002446E+02 0. -1.
          1    1    1    2  501    0 -0.16237277341E+02 -0.32276613366E+02  0.24013179053E+02  0.43382735207E+02  0.00000000000E+00 0. -1.
         -2    1    1    2    0  502  0.22615784858E+02  0.64819077648E+01  0.79619353991E+02  0.83022469145E+02  0.00000000000E+00 0.  1.
<mgrwt>
<rscale>  2 0.72176106E+02</rscale>
<asrwt>0</asrwt>
<pdfrwt beam="1">  1       21 0.38254628E-01 0.72176106E+02</pdfrwt>
<pdfrwt beam="2">  1       21 0.38162662E-02 0.72176106E+02</pdfrwt>
<totfact> 0.27037729E+06</totfact>
</mgrwt>
</event>
<event>
 5    1  0.1994521E+000  0.8291753E+02  0.7546771E-02  0.1320970E+00
         21   -1    0    0  501  502  0.00000000000E+00  0.00000000000E+00  0.66699394165E+01  0.66699394165E+01  0.00000000000E+00 0. -1.
         21   -1    0    0  502  503 -0.00000000000E+00 -0.00000000000E+00 -0.16276698747E+04  0.16276698747E+04  0.00000000000E+00 0.  1.
         24    1    1    2    0    0 -0.12443017873E+02 -0.18196174516E+02 -0.10969914886E+04  0.11001561123E+04  0.80419002446E+02 0.  0.
          1    1    1    2  501    0 -0.30992151070E+02 -0.76283761107E+01 -0.65118123787E+02  0.72519484248E+02  0.00000000000E+00 0. -1.
         -2    1    1    2    0  503  0.43435168944E+02  0.25824550626E+02 -0.45889032290E+03  0.46166421755E+03  0.00000000000E+00 0.  1.
<mgrwt>
<rscale>  2 0.82917534E+02</rscale>
<asrwt>0</asrwt>
<pdfrwt beam="1">  1       21 0.10261446E-02 0.82917534E+02</pdfrwt>
<pdfrwt beam="2">  1       21 0.25041072E+00 0.82917534E+02</pdfrwt>
<totfact> 0.25839259E+05</totfact>
</mgrwt>
</event>
<event>
 5    1  0.1994521E+000  0.7670801E+02  0.7546771E-02  0.1338662E+00
         21   -1    0    0  501  502  0.00000000000E+00  0.00000000000E+00  0.14297618837E+03  0.14297618837E+03  0.00000000000E+00 0. -1.
         21   -1    0    0  502  503 -0.00000000000E+00 -0.00000000000E+00 -0.10939649580E+03  0.10939649580E+03  0.00000000000E+00 0.  1.
         24    1    1    2    0    0  0.75633124142E+01  0.37876587929E+02 -0.13113855708E+02  0.90172217305E+02  0.80419002446E+02 0. -1.
          1    1    1    2  501    0  0.17760639082E+02 -0.34302258009E+02  0.97745226523E+02  0.10510097294E+03  0.00000000000E+00 0. -1.
         -2    1    1    2    0  503 -0.25323951497E+02 -0.35743299209E+01 -0.51051678245E+02  0.57099493916E+02  0.00000000000E+00 0.  1.
<mgrwt>
<rscale>  2 0.76708007E+02</rscale>
<asrwt>0</asrwt>
<pdfrwt beam="1">  1       21 0.21996337E-01 0.76708007E+02</pdfrwt>
<pdfrwt beam="2">  1       21 0.16830230E-01 0.76708007E+02</pdfrwt>
<totfact> 0.61625321E+05</totfact>
</mgrwt>
</event>
<event>
 5    1  0.1994521E+000  0.9491365E+02  0.7546771E-02  0.1291371E+00
         21   -1    0    0  501  502  0.00000000000E+00  0.00000000000E+00  0.14877060147E+04  0.14877060147E+04  0.00000000000E+00 0. -1.
         21   -1    0    0  502  503 -0.00000000000E+00 -0.00000000000E+00 -0.11099991511E+02  0.11099991511E+02  0.00000000000E+00 0.  1.
         24    1    1    2    0    0 -0.59170066327E+02  0.49075697643E+02  0.56146132759E+03  0.57237711273E+03  0.80419002446E+02 0. -1.
          1    1    1    2  501    0  0.40341223375E+02 -0.23075806170E+02  0.86885591779E+03  0.87009799046E+03  0.00000000000E+00 0. -1.
         -2    1    1    2    0  503  0.18828842952E+02 -0.25999891473E+02  0.46288777831E+02  0.56330903033E+02  0.00000000000E+00 0.  1.
<mgrwt>
<rscale>  2 0.94913646E+02</rscale>
<asrwt>0</asrwt>
<pdfrwt beam="1">  1       21 0.22887769E+00 0.94913646E+02</pdfrwt>
<pdfrwt beam="2">  1       21 0.17076922E-02 0.94913646E+02</pdfrwt>
<totfact> 0.15151662E+05</totfact>
</mgrwt>
</event>
<event>
 5    1  0.1994521E+000  0.8104787E+02  0.7546771E-02  0.1326104E+00
         21   -1    0    0  501  502  0.00000000000E+00  0.00000000000E+00  0.11524231060E+02  0.11524231060E+02  0.00000000000E+00 0.  1.
         21   -1    0    0  502  503 -0.00000000000E+00 -0.00000000000E+00 -0.85508013180E+03  0.85508013180E+03  0.00000000000E+00 0. -1.
         24    1    1    2    0    0  0.38048700721E+02 -0.82412595389E+01 -0.28315885478E+03  0.29692048595E+03  0.80419002446E+02 0.  0.
          1    1    1    2  501    0 -0.16130185772E+02  0.34774502033E+02 -0.87406196805E+02  0.95442611682E+02  0.00000000000E+00 0. -1.
         -2    1    1    2    0  503 -0.21918514949E+02 -0.26533242495E+02 -0.47299084916E+03  0.47424126522E+03  0.00000000000E+00 0.  1.
<mgrwt>
<rscale>  2 0.81047865E+02</rscale>
<asrwt>0</asrwt>
<pdfrwt beam="1">  1       21 0.17729584E-02 0.81047865E+02</pdfrwt>
<pdfrwt beam="2">  1       21 0.13155081E+00 0.81047865E+02</pdfrwt>
<totfact> 0.64064536E+05</totfact>
</mgrwt>
</event>
<event>
 5    1  0.1994521E+000  0.8945045E+02  0.7546771E-02  0.1304188E+00
         21   -1    0    0  501  502  0.00000000000E+00  0.00000000000E+00  0.34714180967E+02  0.34714180967E+02  0.00000000000E+00 0. -1.
         21   -1    0    0  502  503 -0.00000000000E+00 -0.00000000000E+00 -0.58846728575E+03  0.58846728575E+03  0.00000000000E+00 0. -1.
         24    1    1    2    0    0  0.41559615489E+02 -0.21976487129E+02 -0.24248255368E+03  0.25975983604E+03  0.80419002446E+02 0. -1.
          1    1    1    2  501    0 -0.36552379927E+02  0.47388561080E+02 -0.95660824241E+01  0.60607442880E+02  0.00000000000E+00 0. -1.
         -2    1    1    2    0  503 -0.50072355627E+01 -0.25412073951E+02 -0.30170446868E+03  0.30281418780E+03  0.00000000000E+00 0.  1.
<mgrwt>
<rscale>  2 0.89450455E+02</rscale>
<asrwt>0</asrwt>
<pdfrwt beam="1">  1       21 0.53406433E-02 0.89450455E+02</pdfrwt>
<pdfrwt beam="2">  1       21 0.90533427E-01 0.89450455E+02</pdfrwt>
<totfact> 0.25644360E+05</totfact>
</mgrwt>
</event>
<event>
 5    1  0.1994521E+000  0.9378709E+02  0.7546771E-02  0.1293931E+00
         21   -1    0    0  501  502  0.00000000000E+00  0.00000000000E+00  0.12736819653E+03  0.12736819653E+03  0.00000000000E+00 0. -1.
         21   -1    0    0  502  503 -0.00000000000E+00 -0.00000000000E+00 -0.10117334699E+03  0.10117334699E+03  0.00000000000E+00 0.  1.
         24    1    1    2    0    0 -0.87095093111E+01  0.36857414541E+02  0.59708563910E+01  0.89090917828E+02  0.80419002446E+02 0. -1.
          1    1    1    2  501    0  0.87916068193E+01 -0.67485308241E+02  0.58977626720E+02  0.90055092207E+02  0.00000000000E+00 0. -1.
         -2    1    1    2    0  503 -0.82097508196E-01  0.30627893700E+02 -0.38753633581E+02  0.49395533485E+02  0.00000000000E+00 0.  1.
<mgrwt>
<rscale>  2 0.93787087E+02</rscale>
<asrwt>0</asrwt>
<pdfrwt beam="1">  1       21 0.19595107E-01 0.93787087E+02</pdfrwt>
<pdfrwt beam="2">  1       21 0.15565130E-01 0.93787087E+02</pdfrwt>
<totfact> 0.87856625E+05</totfact>
</mgrwt>
</event>
<event>
 5    1  0.1994521E+000  0.7758005E+02  0.7546771E-02  0.1336063E+00
         21   -1    0    0  501  502  0.00000000000E+00  0.00000000000E+00  0.19323176175E+03  0.19323176175E+03  0.00000000000E+00 0. -1.
         21   -1    0    0  502  503 -0.00000000000E+00 -0.00000000000E+00 -0.44562222108E+02  0.44562222108E+02  0.00000000000E+00 0. -1.
         24    1    1    2    0    0 -0.41017260577E+02  0.32145105872E+02  0.48792027650E+02  0.10753418718E+03  0.80419002446E+02 0. -1.
          1    1    1    2  501    0  0.17655540334E+02 -0.31323064172E+02  0.10064090431E+03  0.10687115642E+03  0.00000000000E+00 0. -1.
         -2    1    1    2    0  503  0.23361720244E+02 -0.82204170005E+00 -0.76339231641E+00  0.23388640258E+02  0.00000000000E+00 0.  1.
<mgrwt>
<rscale>  2 0.77580046E+02</rscale>
<asrwt>0</asrwt>
<pdfrwt beam="1">  1       21 0.29727963E-01 0.77580046E+02</pdfrwt>
<pdfrwt beam="2">  1       21 0.68557266E-02 0.77580046E+02</pdfrwt>
<totfact> 0.16689773E+06</totfact>
</mgrwt>
</event>
<event>
 5    1  0.1994521E+000  0.7275584E+02  0.7546771E-02  0.1350965E+00
         21   -1    0    0  503  502  0.00000000000E+00  0.00000000000E+00  0.12013105420E+02  0.12013105420E+02  0.00000000000E+00 0. -1.
         21   -1    0    0  501  503 -0.00000000000E+00 -0.00000000000E+00 -0.12612625610E+04  0.12612625610E+04  0.00000000000E+00 0. -1.
         24    1    1    2    0    0  0.72798013432E+01 -0.38002096781E+02 -0.24574953533E+03  0.26145210831E+03  0.80419002446E+02 0. -1.
          1    1    1    2  501    0  0.16890850373E+02  0.19703138529E+02 -0.94982015282E+03  0.95017463511E+03  0.00000000000E+00 0. -1.
         -2    1    1    2    0  502 -0.24170651716E+02  0.18298958252E+02 -0.53679767448E+02  0.61648923030E+02  0.00000000000E+00 0.  1.
<mgrwt>
<rscale>  2 0.72755843E+02</rscale>
<asrwt>0</asrwt>
<pdfrwt beam="1">  1       21 0.18481706E-02 0.72755843E+02</pdfrwt>
<pdfrwt beam="2">  1       21 0.19404034E+00 0.72755843E+02</pdfrwt>
<totfact> 0.21991797E+05</totfact>
</mgrwt>
</event>
<event>
 5    1  0.1994521E+000  0.1883128E+03  0.7546771E-02  0.1159992E+00
         21   -1    0    0  501  502  0.00000000000E+00  0.00000000000E+00  0.83844488271E+02  0.83844488271E+02  0.00000000000E+00 0. -1.
         21   -1    0    0  502  503 -0.00000000000E+00 -0.00000000000E+00 -0.81646770677E+03  0.81646770677E+03  0.00000000000E+00 0. -1.
         24    1    1    2    0    0 -0.18542810626E+02 -0.16466580622E+03 -0.22564385309E+03  0.29127483234E+03  0.80419002446E+02 0. -1.
          1    1    1    2  501    0  0.39627375237E+02  0.16661381963E+03 -0.93704586389E+02  0.19522049911E+03  0.00000000000E+00 0. -1.
         -2    1    1    2    0  503 -0.21084564611E+02 -0.19480134176E+01 -0.41327477901E+03  0.41381686359E+03  0.00000000000E+00 0.  1.
<mgrwt>
<rscale>  2 0.18831282E+03</rscale>
<asrwt>0</asrwt>
<pdfrwt beam="1">  1       21 0.12899152E-01 0.18831282E+03</pdfrwt>
<pdfrwt beam="2">  1       21 0.12561041E+00 0.18831282E+03</pdfrwt>
<totfact> 0.24356648E+04</totfact>
</mgrwt>
</event>
<event>
 5    1  0.2098648E+000  0.6553922E+02  0.7546771E-02  0.1375955E+00
         21   -1    0    0  501  502  0.00000000000E+00  0.00000000000E+00  0.20189828050E+03  0.20189828050E+03  0.00000000000E+00 0. -1.
         21   -1    0    0  502  503 -0.00000000000E+00 -0.00000000000E+00 -0.32635272172E+03  0.32635272172E+03  0.00000000000E+00 0.  1.
         24    1    1    2    0    0 -0.22710646827E+01  0.38552175669E+01  0.65897686247E+02  0.10406604367E+03  0.80419002446E+02 0.  0.
          1    1    1    2  501    0 -0.19534141331E+02  0.12575849283E+02  0.11514746110E+03  0.11746775072E+03  0.00000000000E+00 0. -1.
         -2    1    1    2    0  503  0.21805206014E+02 -0.16431066850E+02 -0.30549958856E+03  0.30671720783E+03  0.00000000000E+00 0.  1.
<mgrwt>
<rscale>  2 0.65539223E+02</rscale>
<asrwt>0</asrwt>
<pdfrwt beam="1">  1       21 0.31061274E-01 0.65539223E+02</pdfrwt>
<pdfrwt beam="2">  1       21 0.50208111E-01 0.65539223E+02</pdfrwt>
<totfact> 0.40942357E+04</totfact>
</mgrwt>
</event>
<event>
 5    1  0.1994521E+000  0.1116529E+03  0.7546771E-02  0.1257539E+00
         21   -1    0    0  503  502  0.00000000000E+00  0.00000000000E+00  0.50257327891E+03  0.50257327891E+03  0.00000000000E+00 0.  1.
         21   -1    0    0  501  503 -0.00000000000E+00 -0.00000000000E+00 -0.49535080759E+02  0.49535080759E+02  0.00000000000E+00 0.  1.
         24    1    1    2    0    0 -0.61028586889E+02 -0.53243789911E+02  0.35461464321E+02  0.11951619550E+03  0.80419002446E+02 0.  1.
          1    1    1    2  501    0 -0.12343678430E+02  0.29621601220E+02  0.77342514223E+02  0.83735716169E+02  0.00000000000E+00 0. -1.
         -2    1    1    2    0  502  0.73372265319E+02  0.23622188691E+02  0.34023421961E+03  0.34885644800E+03  0.00000000000E+00 0.  1.
<mgrwt>
<rscale>  2 0.11165292E+03</rscale>
<asrwt>0</asrwt>
<pdfrwt beam="1">  1       21 0.77318962E-01 0.11165292E+03</pdfrwt>
<pdfrwt beam="2">  1       21 0.76207820E-02 0.11165292E+03</pdfrwt>
<totfact> 0.19870132E+05</totfact>
</mgrwt>
</event>
<event>
 5    1  0.1994521E+000  0.7234706E+02  0.7546771E-02  0.1352289E+00
         21   -1    0    0  501  502  0.00000000000E+00  0.00000000000E+00  0.15165676097E+03  0.15165676097E+03  0.00000000000E+00 0. -1.
         21   -1    0    0  502  503 -0.00000000000E+00 -0.00000000000E+00 -0.22177193633E+03  0.22177193633E+03  0.00000000000E+00 0.  1.
         24    1    1    2    0    0  0.29374309612E+01 -0.87797695452E+01 -0.98652260144E+01  0.81549074137E+02  0.80419002446E+02 0. -1.
          1    1    1    2  501    0 -0.29498330272E+02 -0.10074767911E+02  0.11216450473E+03  0.11641532785E+03  0.00000000000E+00 0. -1.
         -2    1    1    2    0  503  0.26560899311E+02  0.18854537456E+02 -0.17241445408E+03  0.17546429531E+03  0.00000000000E+00 0.  1.
<mgrwt>
<rscale>  2 0.72347056E+02</rscale>
<asrwt>0</asrwt>
<pdfrwt beam="1">  1       21 0.23331809E-01 0.72347056E+02</pdfrwt>
<pdfrwt beam="2">  1       21 0.34118759E-01 0.72347056E+02</pdfrwt>
<totfact> 0.14911107E+05</totfact>
</mgrwt>
</event>
<event>
 5    1  0.1994521E+000  0.1179403E+03  0.7546771E-02  0.1246534E+00
         21   -1    0    0  503  502  0.00000000000E+00  0.00000000000E+00  0.27749953278E+03  0.27749953278E+03  0.00000000000E+00 0.  1.
         21   -1    0    0  501  503 -0.00000000000E+00 -0.00000000000E+00 -0.21510737934E+03  0.21510737934E+03  0.00000000000E+00 0. -1.
         24    1    1    2    0    0 -0.15549768621E+02  0.17293947045E+02 -0.35307702141E+02  0.90855520985E+02  0.80419002446E+02 0.  1.
          1    1    1    2  501    0 -0.23347864252E+02  0.60686446306E+02 -0.13686318360E+03  0.15152392074E+03  0.00000000000E+00 0. -1.
         -2    1    1    2    0  502  0.38897632873E+02 -0.77980393351E+02  0.23456303918E+03  0.25022747039E+03  0.00000000000E+00 0.  1.
<mgrwt>
<rscale>  2 0.11794027E+03</rscale>
<asrwt>0</asrwt>
<pdfrwt beam="1">  1       21 0.42692236E-01 0.11794027E+03</pdfrwt>
<pdfrwt beam="2">  1       21 0.33093443E-01 0.11794027E+03</pdfrwt>
<totfact> 0.48226911E+04</totfact>
</mgrwt>
</event>
<event>
 5    1  0.1994521E+000  0.7157865E+02  0.7546771E-02  0.1354806E+00
         21   -1    0    0  501  502  0.00000000000E+00  0.00000000000E+00  0.47158113518E+03  0.47158113518E+03  0.00000000000E+00 0. -1.
         21   -1    0    0  502  503 -0.00000000000E+00 -0.00000000000E+00 -0.13267314826E+02  0.13267314826E+02  0.00000000000E+00 0. -1.
         24    1    1    2    0    0 -0.46766919598E+02 -0.11980196540E+02  0.38387025466E+03  0.39516358416E+03  0.80419002446E+02 0. -1.
          1    1    1    2  501    0  0.28040008153E+02  0.19285667921E+01  0.49420048617E+02  0.56853343195E+02  0.00000000000E+00 0. -1.
         -2    1    1    2    0  503  0.18726911445E+02  0.10051629748E+02  0.25023517083E+02  0.32831522658E+02  0.00000000000E+00 0.  1.
<mgrwt>
<rscale>  2 0.71578649E+02</rscale>
<asrwt>0</asrwt>
<pdfrwt beam="1">  1       21 0.72550931E-01 0.71578649E+02</pdfrwt>
<pdfrwt beam="2">  1       21 0.20411257E-02 0.71578649E+02</pdfrwt>
<totfact> 0.19982030E+06</totfact>
</mgrwt>
</event>
<event>
 5    1  0.1994521E+000  0.6446980E+02  0.7546771E-02  0.1379977E+00
         21   -1    0    0  501  502  0.00000000000E+00  0.00000000000E+00  0.67260791904E+02  0.67260791904E+02  0.00000000000E+00 0.  1.
         21   -1    0    0  502  503 -0.00000000000E+00 -0.00000000000E+00 -0.11196992094E+03  0.11196992094E+03  0.00000000000E+00 0. -1.
         24    1    1    2    0    0  0.57067716528E+01 -0.11727769123E+02 -0.42635765070E+02  0.91951792961E+02  0.80419002446E+02 0. -1.
          1    1    1    2  501    0 -0.14296845052E+02 -0.14203436776E+02  0.35502089640E+02  0.40823225785E+02  0.00000000000E+00 0. -1.
         -2    1    1    2    0  503  0.85900733987E+01  0.25931205899E+02 -0.37575453608E+02  0.46455694099E+02  0.00000000000E+00 0.  1.
<mgrwt>
<rscale>  2 0.64469796E+02</rscale>
<asrwt>0</asrwt>
<pdfrwt beam="1">  1       21 0.10347814E-01 0.64469796E+02</pdfrwt>
<pdfrwt beam="2">  1       21 0.17226142E-01 0.64469796E+02</pdfrwt>
<totfact> 0.22408722E+06</totfact>
</mgrwt>
</event>
<event>
 5    1  0.1994521E+000  0.8885039E+02  0.7546771E-02  0.1305660E+00
         21   -1    0    0  501  502  0.00000000000E+00  0.00000000000E+00  0.17361917389E+03  0.17361917389E+03  0.00000000000E+00 0.  1.
         21   -1    0    0  502  503 -0.00000000000E+00 -0.00000000000E+00 -0.17770043652E+03  0.17770043652E+03  0.00000000000E+00 0. -1.
         24    1    1    2    0    0  0.24613834873E+02 -0.27573808536E+01 -0.14626141863E+03  0.16873962946E+03  0.80419002446E+02 0. -1.
          1    1    1    2  501    0  0.34403467843E+02  0.30251512131E+01  0.11013585336E+03  0.11542381182E+03  0.00000000000E+00 0. -1.
         -2    1    1    2    0  503 -0.59017302716E+02 -0.26777035948E+00  0.32044302641E+02  0.67156169132E+02  0.00000000000E+00 0.  1.
<mgrwt>
<rscale>  2 0.88850391E+02</rscale>
<asrwt>0</asrwt>
<pdfrwt beam="1">  1       21 0.26710642E-01 0.88850391E+02</pdfrwt>
<pdfrwt beam="2">  1       21 0.27338529E-01 0.88850391E+02</pdfrwt>
<totfact> 0.17570418E+05</totfact>
</mgrwt>
</event>
<event>
 5    1  0.1994521E+000  0.7724400E+02  0.7546771E-02  0.1337060E+00
         21   -1    0    0  501  502  0.00000000000E+00  0.00000000000E+00  0.30139623678E+02  0.30139623678E+02  0.00000000000E+00 0.  1.
         21   -1    0    0  502  503 -0.00000000000E+00 -0.00000000000E+00 -0.55202510219E+03  0.55202510219E+03  0.00000000000E+00 0.  1.
         24    1    1    2    0    0 -0.34885643871E+01 -0.52644251748E+02 -0.11012066281E+03  0.14620999848E+03  0.80419002446E+02 0.  1.
          1    1    1    2  501    0  0.13097270112E+02  0.17412599173E+02  0.77451521376E+00  0.21802223928E+02  0.00000000000E+00 0. -1.
         -2    1    1    2    0  503 -0.96087057253E+01  0.35231652574E+02 -0.41253933092E+03  0.41415250346E+03  0.00000000000E+00 0.  1.
<mgrwt>
<rscale>  2 0.77244000E+02</rscale>
<asrwt>0</asrwt>
<pdfrwt beam="1">  1       21 0.46368656E-02 0.77244000E+02</pdfrwt>
<pdfrwt beam="2">  1       21 0.84926932E-01 0.77244000E+02</pdfrwt>
<totfact> 0.37522975E+05</totfact>
</mgrwt>
</event>
<event>
 5    1  0.1994521E+000  0.8599135E+02  0.7546771E-02  0.1312860E+00
         21   -1    0    0  503  502  0.00000000000E+00  0.00000000000E+00  0.13376523420E+03  0.13376523420E+03  0.00000000000E+00 0.  1.
         21   -1    0    0  501  503 -0.00000000000E+00 -0.00000000000E+00 -0.13356796253E+03  0.13356796253E+03  0.00000000000E+00 0.  1.
         24    1    1    2    0    0  0.21490373969E+02  0.25195292321E+02 -0.96062164514E+02  0.12958315606E+03  0.80419002446E+02 0.  1.
          1    1    1    2  501    0  0.27498886424E+02  0.42940510048E+01  0.25183305851E+01  0.27945833634E+02  0.00000000000E+00 0. -1.
         -2    1    1    2    0  502 -0.48989260392E+02 -0.29489343326E+02  0.93741105606E+02  0.10980420704E+03  0.00000000000E+00 0.  1.
<mgrwt>
<rscale>  2 0.85991352E+02</rscale>
<asrwt>0</asrwt>
<pdfrwt beam="1">  1       21 0.20579267E-01 0.85991352E+02</pdfrwt>
<pdfrwt beam="2">  1       21 0.20548917E-01 0.85991352E+02</pdfrwt>
<totfact> 0.48519583E+05</totfact>
</mgrwt>
</event>
<event>
 5    1  0.1994521E+000  0.1486374E+03  0.7546771E-02  0.1202157E+00
         21   -1    0    0  501  502  0.00000000000E+00  0.00000000000E+00  0.23875173514E+03  0.23875173514E+03  0.00000000000E+00 0. -1.
         21   -1    0    0  502  503 -0.00000000000E+00 -0.00000000000E+00 -0.10237629767E+03  0.10237629767E+03  0.00000000000E+00 0.  1.
         24    1    1    2    0    0 -0.44043793773E+01 -0.46957945943E+02  0.78915565758E+01  0.93562491761E+02  0.80419002446E+02 0. -1.
          1    1    1    2  501    0  0.62886253737E+02  0.10452500318E+03  0.10814771660E+03  0.16302173415E+03  0.00000000000E+00 0. -1.
         -2    1    1    2    0  503 -0.58481874359E+02 -0.57567057237E+02  0.20336164289E+02  0.84543806902E+02  0.00000000000E+00 0.  1.
<mgrwt>
<rscale>  2 0.14863744E+03</rscale>
<asrwt>0</asrwt>
<pdfrwt beam="1">  1       21 0.36731036E-01 0.14863744E+03</pdfrwt>
<pdfrwt beam="2">  1       21 0.15750200E-01 0.14863744E+03</pdfrwt>
<totfact> 0.25928886E+05</totfact>
</mgrwt>
</event>
<event>
 5    1  0.1994521E+000  0.1160100E+03  0.7546771E-02  0.1249828E+00
         21   -1    0    0  503  502  0.00000000000E+00  0.00000000000E+00  0.91119865692E+02  0.91119865692E+02  0.00000000000E+00 0. -1.
         21   -1    0    0  501  503 -0.00000000000E+00 -0.00000000000E+00 -0.24759520025E+03  0.24759520025E+03  0.00000000000E+00 0. -1.
         24    1    1    2    0    0  0.49802465050E+02 -0.44848018190E+02 -0.16483572137E+02  0.10597430993E+03  0.80419002446E+02 0. -1.
          1    1    1    2  501    0 -0.81836824159E+02  0.48443231551E+02 -0.16600682650E+03  0.19131722065E+03  0.00000000000E+00 0. -1.
         -2    1    1    2    0  502  0.32034359110E+02 -0.35952133615E+01  0.26015064081E+02  0.41423535361E+02  0.00000000000E+00 0.  1.
<mgrwt>
<rscale>  2 0.11601000E+03</rscale>
<asrwt>0</asrwt>
<pdfrwt beam="1">  1       21 0.14018441E-01 0.11601000E+03</pdfrwt>
<pdfrwt beam="2">  1       21 0.38091569E-01 0.11601000E+03</pdfrwt>
<totfact> 0.29952248E+05</totfact>
</mgrwt>
</event>
<event>
 5    1  0.1994521E+000  0.8495738E+02  0.7546771E-02  0.1315544E+00
         21   -1    0    0  501  502  0.00000000000E+00  0.00000000000E+00  0.65910647160E+02  0.65910647160E+02  0.00000000000E+00 0. -1.
         21   -1    0    0  502  503 -0.00000000000E+00 -0.00000000000E+00 -0.17341565169E+03  0.17341565169E+03  0.00000000000E+00 0. -1.
         24    1    1    2    0    0 -0.34281424148E+02 -0.10439982879E+02 -0.12758914863E+03  0.15501747026E+03  0.80419002446E+02 0. -1.
          1    1    1    2  501    0  0.27202713176E+02  0.41718078515E+02  0.12829745117E+02  0.51429447196E+02  0.00000000000E+00 0. -1.
         -2    1    1    2    0  503  0.70787109723E+01 -0.31278095636E+02  0.72543989879E+01  0.32879381386E+02  0.00000000000E+00 0.  1.
<mgrwt>
<rscale>  2 0.84957377E+02</rscale>
<asrwt>0</asrwt>
<pdfrwt beam="1">  1       21 0.10140100E-01 0.84957377E+02</pdfrwt>
<pdfrwt beam="2">  1       21 0.26679331E-01 0.84957377E+02</pdfrwt>
<totfact> 0.10523149E+06</totfact>
</mgrwt>
</event>
<event>
 5    1  0.1994521E+000  0.7392778E+02  0.7546771E-02  0.1347224E+00
         21   -1    0    0  503  502  0.00000000000E+00  0.00000000000E+00  0.97871565887E+01  0.97871565887E+01  0.00000000000E+00 0. -1.
         21   -1    0    0  501  503 -0.00000000000E+00 -0.00000000000E+00 -0.61249466257E+03  0.61249466257E+03  0.00000000000E+00 0.  1.
         24    1    1    2    0    0 -0.27094646183E+02 -0.19515888039E+02 -0.31213725527E+03  0.32405535301E+03  0.80419002446E+02 0.  1.
          1    1    1    2  501    0 -0.23702741059E+01  0.29556210406E+02 -0.20573056171E+03  0.20785632489E+03  0.00000000000E+00 0. -1.
         -2    1    1    2    0  502  0.29464920289E+02 -0.10040322368E+02 -0.84839689007E+02  0.90370141262E+02  0.00000000000E+00 0.  1.
<mgrwt>
<rscale>  2 0.73927780E+02</rscale>
<asrwt>0</asrwt>
<pdfrwt beam="1">  1       21 0.15057160E-02 0.73927780E+02</pdfrwt>
<pdfrwt beam="2">  1       21 0.94229970E-01 0.73927780E+02</pdfrwt>
<totfact> 0.18181918E+06</totfact>
</mgrwt>
</event>
<event>
 5    1  0.1994521E+000  0.1732911E+03  0.7546771E-02  0.1174459E+00
         21   -1    0    0  501  502  0.00000000000E+00  0.00000000000E+00  0.44158363950E+03  0.44158363950E+03  0.00000000000E+00 0.  1.
         21   -1    0    0  502  503 -0.00000000000E+00 -0.00000000000E+00 -0.98756919069E+03  0.98756919069E+03  0.00000000000E+00 0.  1.
         24    1    1    2    0    0  0.12233836793E+03 -0.96740182319E+02  0.13932493916E+03  0.22406247738E+03  0.80419002446E+02 0.  1.
          1    1    1    2  501    0  0.28246380913E+01  0.28320854086E+02  0.25370802404E+03  0.25529945323E+03  0.00000000000E+00 0. -1.
         -2    1    1    2    0  503 -0.12516300602E+03  0.68419328234E+02 -0.93901851439E+03  0.94979089957E+03  0.00000000000E+00 0.  1.
<mgrwt>
<rscale>  2 0.17329115E+03</rscale>
<asrwt>0</asrwt>
<pdfrwt beam="1">  1       21 0.67935945E-01 0.17329115E+03</pdfrwt>
<pdfrwt beam="2">  1       21 0.15193372E+00 0.17329115E+03</pdfrwt>
<totfact> 0.58507502E+02</totfact>
</mgrwt>
</event>
<event>
 5    1  0.1994521E+000  0.1212437E+03  0.7546771E-02  0.1241059E+00
         21   -1    0    0  501  502  0.00000000000E+00  0.00000000000E+00  0.16254562481E+03  0.16254562481E+03  0.00000000000E+00 0.  1.
         21   -1    0    0  502  503 -0.00000000000E+00 -0.00000000000E+00 -0.11535864911E+03  0.11535864911E+03  0.00000000000E+00 0.  1.
         24    1    1    2    0    0  0.38738087197E+02  0.74545894442E+02 -0.12207658177E+02  0.11693576292E+03  0.80419002446E+02 0.  1.
          1    1    1    2  501    0 -0.37585220441E+01  0.22614808231E+02  0.52718535293E+02  0.57487389945E+02  0.00000000000E+00 0. -1.
         -2    1    1    2    0  503 -0.34979565153E+02 -0.97160702673E+02  0.66760985856E+01  0.10348112105E+03  0.00000000000E+00 0.  1.
<mgrwt>
<rscale>  2 0.12124368E+03</rscale>
<asrwt>0</asrwt>
<pdfrwt beam="1">  1       21 0.25007019E-01 0.12124368E+03</pdfrwt>
<pdfrwt beam="2">  1       21 0.17747484E-01 0.12124368E+03</pdfrwt>
<totfact> 0.44064482E+05</totfact>
</mgrwt>
</event>
<event>
 5    1  0.1994521E+000  0.6738379E+02  0.7546771E-02  0.1369223E+00
         21   -1    0    0  501  502  0.00000000000E+00  0.00000000000E+00  0.42531126515E+03  0.42531126515E+03  0.00000000000E+00 0.  1.
         21   -1    0    0  502  503 -0.00000000000E+00 -0.00000000000E+00 -0.20810971523E+02  0.20810971523E+02  0.00000000000E+00 0. -1.
         24    1    1    2    0    0  0.17965135677E+02 -0.61729687471E+01  0.27111522520E+03  0.28342817950E+03  0.80419002446E+02 0.  0.
          1    1    1    2  501    0  0.12412880826E+02  0.15960868298E+02  0.12888624124E+03  0.13046260808E+03  0.00000000000E+00 0. -1.
         -2    1    1    2    0  503 -0.30378016502E+02 -0.97878995507E+01  0.44988271822E+01  0.32231449087E+02  0.00000000000E+00 0.  1.
<mgrwt>
<rscale>  2 0.67383787E+02</rscale>
<asrwt>0</asrwt>
<pdfrwt beam="1">  1       21 0.65432496E-01 0.67383787E+02</pdfrwt>
<pdfrwt beam="2">  1       21 0.32016882E-02 0.67383787E+02</pdfrwt>
<totfact> 0.12072362E+06</totfact>
</mgrwt>
</event>
<event>
 5    1  0.1994521E+000  0.8713390E+02  0.7546771E-02  0.1309945E+00
         21   -1    0    0  503  502  0.00000000000E+00  0.00000000000E+00  0.86470051428E+03  0.86470051428E+03  0.00000000000E+00 0.  1.
         21   -1    0    0  501  503 -0.00000000000E+00 -0.00000000000E+00 -0.40276554227E+02  0.40276554227E+02  0.00000000000E+00 0. -1.
         24    1    1    2    0    0 -0.16584436065E+02 -0.23361788720E+02  0.26899274844E+03  0.28221469019E+03  0.80419002446E+02 0.  0.
          1    1    1    2  501    0  0.37126254719E+02 -0.19083030292E+02 -0.19378161875E+02  0.46022103301E+02  0.00000000000E+00 0. -1.
         -2    1    1    2    0  502 -0.20541818654E+02  0.42444819012E+02  0.57480937349E+03  0.57674027501E+03  0.00000000000E+00 0.  1.
<mgrwt>
<rscale>  2 0.87133899E+02</rscale>
<asrwt>0</asrwt>
<pdfrwt beam="1">  1       21 0.13303083E+00 0.87133899E+02</pdfrwt>
<pdfrwt beam="2">  1       21 0.61963936E-02 0.87133899E+02</pdfrwt>
<totfact> 0.80735763E+04</totfact>
</mgrwt>
</event>
<event>
 5    1  0.1994521E+000  0.1230330E+03  0.7546771E-02  0.1238176E+00
         21   -1    0    0  503  502  0.00000000000E+00  0.00000000000E+00  0.20002473544E+02  0.20002473544E+02  0.00000000000E+00 0. -1.
         21   -1    0    0  501  503 -0.00000000000E+00 -0.00000000000E+00 -0.13743047976E+04  0.13743047976E+04  0.00000000000E+00 0. -1.
         24    1    1    2    0    0 -0.10950778620E+03 -0.91038700940E+01 -0.43034978139E+03  0.45137898266E+03  0.80419002446E+02 0. -1.
          1    1    1    2  501    0  0.81460463162E+02  0.74609886005E+01 -0.90578377846E+03  0.90947002520E+03  0.00000000000E+00 0. -1.
         -2    1    1    2    0  502  0.28047323041E+02  0.16428814935E+01 -0.18168764201E+02  0.33458263284E+02  0.00000000000E+00 0.  1.
<mgrwt>
<rscale>  2 0.12303301E+03</rscale>
<asrwt>0</asrwt>
<pdfrwt beam="1">  1       21 0.30773038E-02 0.12303301E+03</pdfrwt>
<pdfrwt beam="2">  1       21 0.21143150E+00 0.12303301E+03</pdfrwt>
<totfact> 0.72441399E+04</totfact>
</mgrwt>
</event>
<event>
 5    1  0.1994521E+000  0.8398148E+02  0.7546771E-02  0.1318118E+00
         21   -1    0    0  501  502  0.00000000000E+00  0.00000000000E+00  0.12988773641E+03  0.12988773641E+03  0.00000000000E+00 0. -1.
         21   -1    0    0  502  503 -0.00000000000E+00 -0.00000000000E+00 -0.21518292131E+03  0.21518292131E+03  0.00000000000E+00 0.  1.
         24    1    1    2    0    0 -0.27394475981E+02 -0.18126772221E+02  0.58541487332E+02  0.10475380126E+03  0.80419002446E+02 0.  1.
          1    1    1    2  501    0 -0.21812854703E+02 -0.10453839883E+02  0.40622998830E+02  0.47279080285E+02  0.00000000000E+00 0. -1.
         -2    1    1    2    0  503  0.49207330684E+02  0.28580612104E+02 -0.18445967107E+03  0.19303777618E+03  0.00000000000E+00 0.  1.
<mgrwt>
<rscale>  2 0.83981483E+02</rscale>
<asrwt>0</asrwt>
<pdfrwt beam="1">  1       21 0.19982729E-01 0.83981483E+02</pdfrwt>
<pdfrwt beam="2">  1       21 0.33105065E-01 0.83981483E+02</pdfrwt>
<totfact> 0.20918209E+05</totfact>
</mgrwt>
</event>
<event>
 5    1  0.1994521E+000  0.1000482E+03  0.7546771E-02  0.1280195E+00
         21   -1    0    0  501  502  0.00000000000E+00  0.00000000000E+00  0.15812531593E+03  0.15812531593E+03  0.00000000000E+00 0. -1.
         21   -1    0    0  502  503 -0.00000000000E+00 -0.00000000000E+00 -0.13518889106E+03  0.13518889106E+03  0.00000000000E+00 0.  1.
         24    1    1    2    0    0 -0.71688307641E+02  0.43351178052E+02  0.79978786379E+02  0.14100482373E+03  0.80419002446E+02 0.  0.
          1    1    1    2  501    0  0.17234428272E+02 -0.13323162431E+02  0.35002554764E+02  0.41227551650E+02  0.00000000000E+00 0. -1.
         -2    1    1    2    0  503  0.54453879369E+02 -0.30028015622E+02 -0.92044916275E+02  0.11108183160E+03  0.00000000000E+00 0.  1.
<mgrwt>
<rscale>  2 0.10004820E+03</rscale>
<asrwt>0</asrwt>
<pdfrwt beam="1">  1       21 0.24326972E-01 0.10004820E+03</pdfrwt>
<pdfrwt beam="2">  1       21 0.20798291E-01 0.10004820E+03</pdfrwt>
<totfact> 0.34775969E+05</totfact>
</mgrwt>
</event>
<event>
 5    1  0.2458882E+000  0.7187726E+02  0.7546771E-02  0.1353823E+00
         21   -1    0    0  501  502  0.00000000000E+00  0.00000000000E+00  0.42824727004E+03  0.42824727004E+03  0.00000000000E+00 0.  1.
         21   -1    0    0  502  503 -0.00000000000E+00 -0.00000000000E+00 -0.89017655211E+02  0.89017655211E+02  0.00000000000E+00 0.  1.
         24    1    1    2    0    0 -0.29308743725E+02 -0.36263421266E+02  0.39012874674E+03  0.40105073640E+03  0.80419002446E+02 0.  1.
          1    1    1    2  501    0  0.23926997525E+02  0.13640746438E+02  0.24776370748E+02  0.37046453560E+02  0.00000000000E+00 0. -1.
         -2    1    1    2    0  503  0.53817462005E+01  0.22622674828E+02 -0.75675502658E+02  0.79167735291E+02  0.00000000000E+00 0.  1.
<mgrwt>
<rscale>  2 0.71877260E+02</rscale>
<asrwt>0</asrwt>
<pdfrwt beam="1">  1       21 0.65884194E-01 0.71877260E+02</pdfrwt>
<pdfrwt beam="2">  1       21 0.13695024E-01 0.71877260E+02</pdfrwt>
<totfact> 0.10335380E+05</totfact>
</mgrwt>
</event>
<event>
 5    1  0.1994521E+000  0.8045945E+02  0.7546771E-02  0.1327753E+00
         21   -1    0    0  503  502  0.00000000000E+00  0.00000000000E+00  0.11731261580E+02  0.11731261580E+02  0.00000000000E+00 0.  1.
         21   -1    0    0  501  503 -0.00000000000E+00 -0.00000000000E+00 -0.55484030950E+03  0.55484030950E+03  0.00000000000E+00 0.  1.
         24    1    1    2    0    0  0.30381652600E+02  0.43065860326E+02 -0.32642360223E+03  0.34029001923E+03  0.80419002446E+02 0.  1.
          1    1    1    2  501    0  0.41769367862E+01 -0.25801365416E+02 -0.10044295534E+03  0.10378797876E+03  0.00000000000E+00 0. -1.
         -2    1    1    2    0  502 -0.34558589386E+02 -0.17264494910E+02 -0.11624249036E+03  0.12249357309E+03  0.00000000000E+00 0.  1.
<mgrwt>
<rscale>  2 0.80459446E+02</rscale>
<asrwt>0</asrwt>
<pdfrwt beam="1">  1       21 0.18048096E-02 0.80459446E+02</pdfrwt>
<pdfrwt beam="2">  1       21 0.85360040E-01 0.80459446E+02</pdfrwt>
<totfact> 0.17087022E+06</totfact>
</mgrwt>
</event>
<event>
 5    1  0.3503975E+000  0.8477097E+02  0.7546771E-02  0.1316033E+00
         21   -1    0    0  501  502  0.00000000000E+00  0.00000000000E+00  0.37951991204E+03  0.37951991204E+03  0.00000000000E+00 0. -1.
         21   -1    0    0  502  503 -0.00000000000E+00 -0.00000000000E+00 -0.14404264840E+03  0.14404264840E+03  0.00000000000E+00 0.  1.
         24    1    1    2    0    0 -0.14371839151E+02 -0.21363311576E+01  0.19753498175E+03  0.21377183781E+03  0.80419002446E+02 0. -1.
          1    1    1    2  501    0 -0.36277781559E+02 -0.51794278164E+01  0.16699140318E+03  0.17096500415E+03  0.00000000000E+00 0. -1.
         -2    1    1    2    0  503  0.50649620710E+02  0.73157589740E+01 -0.12904912128E+03  0.13882571848E+03  0.00000000000E+00 0.  1.
<mgrwt>
<rscale>  2 0.84770967E+02</rscale>
<asrwt>0</asrwt>
<pdfrwt beam="1">  1       21 0.58387678E-01 0.84770967E+02</pdfrwt>
<pdfrwt beam="2">  1       21 0.22160408E-01 0.84770967E+02</pdfrwt>
<totfact> 0.55508332E+04</totfact>
</mgrwt>
</event>
<event>
 5    1  0.1994521E+000  0.7801347E+02  0.7546771E-02  0.1334785E+00
         21   -1    0    0  503  502  0.00000000000E+00  0.00000000000E+00  0.38077013803E+02  0.38077013803E+02  0.00000000000E+00 0. -1.
         21   -1    0    0  501  503 -0.00000000000E+00 -0.00000000000E+00 -0.17279691239E+03  0.17279691239E+03  0.00000000000E+00 0.  1.
         24    1    1    2    0    0  0.39998958460E+01 -0.11687959911E+02 -0.98885644739E+02  0.12805543434E+03  0.80419002446E+02 0.  1.
          1    1    1    2  501    0 -0.28028348020E+01  0.43119408579E+02 -0.20735841757E+02  0.47928221462E+02  0.00000000000E+00 0. -1.
         -2    1    1    2    0  502 -0.11970610440E+01 -0.31431448668E+02 -0.15098412095E+02  0.34890270396E+02  0.00000000000E+00 0.  1.
<mgrwt>
<rscale>  2 0.78013470E+02</rscale>
<asrwt>0</asrwt>
<pdfrwt beam="1">  1       21 0.58580022E-02 0.78013470E+02</pdfrwt>
<pdfrwt beam="2">  1       21 0.26584140E-01 0.78013470E+02</pdfrwt>
<totfact> 0.26841650E+06</totfact>
</mgrwt>
</event>
<event>
 5    1  0.1994521E+000  0.1151560E+03  0.7546771E-02  0.1251309E+00
         21   -1    0    0  503  502  0.00000000000E+00  0.00000000000E+00  0.60256963649E+02  0.60256963649E+02  0.00000000000E+00 0. -1.
         21   -1    0    0  501  503 -0.00000000000E+00 -0.00000000000E+00 -0.26376879143E+03  0.26376879143E+03  0.00000000000E+00 0.  1.
         24    1    1    2    0    0  0.62200491341E+02 -0.46522068559E+02 -0.42846306194E+02  0.11973397970E+03  0.80419002446E+02 0.  0.
          1    1    1    2  501    0 -0.83719872994E+02  0.48738608275E+02 -0.15348191316E+03  0.18149701578E+03  0.00000000000E+00 0. -1.
         -2    1    1    2    0  502  0.21519381653E+02 -0.22165397160E+01 -0.71836084286E+01  0.22794759597E+02  0.00000000000E+00 0.  1.
<mgrwt>
<rscale>  2 0.11515599E+03</rscale>
<asrwt>0</asrwt>
<pdfrwt beam="1">  1       21 0.92703020E-02 0.11515599E+03</pdfrwt>
<pdfrwt beam="2">  1       21 0.40579814E-01 0.11515599E+03</pdfrwt>
<totfact> 0.54709660E+05</totfact>
</mgrwt>
</event>
<event>
 5    1  0.1994521E+000  0.7423361E+02  0.7546771E-02  0.1346261E+00
         21   -1    0    0  501  502  0.00000000000E+00  0.00000000000E+00  0.58376403874E+03  0.58376403874E+03  0.00000000000E+00 0.  1.
         21   -1    0    0  502  503 -0.00000000000E+00 -0.00000000000E+00 -0.18881484014E+02  0.18881484014E+02  0.00000000000E+00 0. -1.
         24    1    1    2    0    0  0.33037474710E+02  0.12229333573E+02  0.12767173383E+03  0.15494618068E+03  0.80419002446E+02 0. -1.
          1    1    1    2  501    0 -0.17552636137E+02 -0.31432870497E+02  0.40747745778E+03  0.40906478580E+03  0.00000000000E+00 0. -1.
         -2    1    1    2    0  503 -0.15484838573E+02  0.19203536924E+02  0.29733363117E+02  0.38634556271E+02  0.00000000000E+00 0.  1.
<mgrwt>
<rscale>  2 0.74233613E+02</rscale>
<asrwt>0</asrwt>
<pdfrwt beam="1">  1       21 0.89809838E-01 0.74233613E+02</pdfrwt>
<pdfrwt beam="2">  1       21 0.29048441E-02 0.74233613E+02</pdfrwt>
<totfact> 0.71066533E+05</totfact>
</mgrwt>
</event>
<event>
 5    1  0.1994521E+000  0.7641125E+02  0.7546771E-02  0.1339556E+00
         21   -1    0    0  503  502  0.00000000000E+00  0.00000000000E+00  0.55751863775E+02  0.55751863775E+02  0.00000000000E+00 0.  1.
         21   -1    0    0  501  503 -0.00000000000E+00 -0.00000000000E+00 -0.10478001807E+03  0.10478001807E+03  0.00000000000E+00 0. -1.
         24    1    1    2    0    0 -0.24939914422E+02 -0.55154242106E+01 -0.25289463452E+02  0.88086276750E+02  0.80419002446E+02 0.  0.
          1    1    1    2  501    0 -0.15397952190E+02  0.20303066334E+02 -0.86203721825E+01  0.26900227708E+02  0.00000000000E+00 0. -1.
         -2    1    1    2    0  502  0.40337866612E+02 -0.14787642123E+02 -0.15118318663E+02  0.45545377389E+02  0.00000000000E+00 0.  1.
<mgrwt>
<rscale>  2 0.76411252E+02</rscale>
<asrwt>0</asrwt>
<pdfrwt beam="1">  1       21 0.85772100E-02 0.76411252E+02</pdfrwt>
<pdfrwt beam="2">  1       21 0.16120002E-01 0.76411252E+02</pdfrwt>
<totfact> 0.35158403E+06</totfact>
</mgrwt>
</event>
<event>
 5    1  0.2722361E+000  0.8587216E+02  0.7546771E-02  0.1313167E+00
         21   -1    0    0  501  502  0.00000000000E+00  0.00000000000E+00  0.12850877013E+03  0.12850877013E+03  0.00000000000E+00 0. -1.
         21   -1    0    0  502  503 -0.00000000000E+00 -0.00000000000E+00 -0.31625079462E+03  0.31625079462E+03  0.00000000000E+00 0.  1.
         24    1    1    2    0    0  0.14685988752E+02  0.51924680922E+01  0.54771754736E+02  0.98538322808E+02  0.80419002446E+02 0.  0.
          1    1    1    2  501    0  0.25286563515E+02  0.28105164870E+02  0.42278210299E+02  0.56716467210E+02  0.00000000000E+00 0. -1.
         -2    1    1    2    0  503 -0.39972552267E+02 -0.33297632962E+02 -0.28479198952E+03  0.28950477473E+03  0.00000000000E+00 0.  1.
<mgrwt>
<rscale>  2 0.85872163E+02</rscale>
<asrwt>0</asrwt>
<pdfrwt beam="1">  1       21 0.19770580E-01 0.85872163E+02</pdfrwt>
<pdfrwt beam="2">  1       21 0.48653968E-01 0.85872163E+02</pdfrwt>
<totfact> 0.99552107E+04</totfact>
</mgrwt>
</event>
<event>
 5    1  0.1994521E+000  0.8354860E+02  0.7546771E-02  0.1319272E+00
         21   -1    0    0  503  502  0.00000000000E+00  0.00000000000E+00  0.20916766087E+03  0.20916766087E+03  0.00000000000E+00 0.  1.
         21   -1    0    0  501  503 -0.00000000000E+00 -0.00000000000E+00 -0.80761214215E+02  0.80761214215E+02  0.00000000000E+00 0. -1.
         24    1    1    2    0    0  0.29971915660E+02  0.20720218065E+02  0.55301072599E+02  0.10417805791E+03  0.80419002446E+02 0. -1.
          1    1    1    2  501    0 -0.38106036670E+02 -0.41591404226E+02 -0.40829703894E+02  0.69634615360E+02  0.00000000000E+00 0. -1.
         -2    1    1    2    0  502  0.81341210106E+01  0.20871186161E+02  0.11393507795E+03  0.11611620181E+03  0.00000000000E+00 0.  1.
<mgrwt>
<rscale>  2 0.83548598E+02</rscale>
<asrwt>0</asrwt>
<pdfrwt beam="1">  1       21 0.32179640E-01 0.83548598E+02</pdfrwt>
<pdfrwt beam="2">  1       21 0.12424802E-01 0.83548598E+02</pdfrwt>
<totfact> 0.51701196E+05</totfact>
</mgrwt>
</event>
<event>
 5    1  0.1994521E+000  0.9002491E+02  0.7546771E-02  0.1302791E+00
         21   -1    0    0  501  502  0.00000000000E+00  0.00000000000E+00  0.10581217581E+02  0.10581217581E+02  0.00000000000E+00 0.  1.
         21   -1    0    0  502  503 -0.00000000000E+00 -0.00000000000E+00 -0.11051692326E+04  0.11051692326E+04  0.00000000000E+00 0.  1.
         24    1    1    2    0    0 -0.65956409177E+02  0.42272418628E+01 -0.40165041427E+03  0.41491973768E+03  0.80419002446E+02 0.  1.
          1    1    1    2  501    0  0.33946642394E+02 -0.20900708380E+02 -0.11400137707E+03  0.12077055980E+03  0.00000000000E+00 0. -1.
         -2    1    1    2    0  503  0.32009766783E+02  0.16673466517E+02 -0.57893622369E+03  0.58006015271E+03  0.00000000000E+00 0.  1.
<mgrwt>
<rscale>  2 0.90024909E+02</rscale>
<asrwt>0</asrwt>
<pdfrwt beam="1">  1       21 0.16278805E-02 0.90024909E+02</pdfrwt>
<pdfrwt beam="2">  1       21 0.17002594E+00 0.90024909E+02</pdfrwt>
<totfact> 0.38082401E+05</totfact>
</mgrwt>
</event>
<event>
 5    1  0.1994521E+000  0.9431897E+02  0.7546771E-02  0.1292717E+00
         21   -1    0    0  503  502  0.00000000000E+00  0.00000000000E+00  0.80866801315E+02  0.80866801315E+02  0.00000000000E+00 0.  1.
         21   -1    0    0  501  503 -0.00000000000E+00 -0.00000000000E+00 -0.76989105319E+03  0.76989105319E+03  0.00000000000E+00 0. -1.
         24    1    1    2    0    0  0.76201402672E+02 -0.25262332339E+01 -0.19121502055E+02  0.11245391687E+03  0.80419002446E+02 0.  0.
          1    1    1    2  501    0 -0.31875741112E+02 -0.66354766655E+01 -0.68857268999E+03  0.68934203544E+03  0.00000000000E+00 0. -1.
         -2    1    1    2    0  502 -0.44325661559E+02  0.91617098994E+01  0.18669940170E+02  0.48961902199E+02  0.00000000000E+00 0.  1.
<mgrwt>
<rscale>  2 0.94318969E+02</rscale>
<asrwt>0</asrwt>
<pdfrwt beam="1">  1       21 0.12441046E-01 0.94318969E+02</pdfrwt>
<pdfrwt beam="2">  1       21 0.11844478E+00 0.94318969E+02</pdfrwt>
<totfact> 0.32120569E+04</totfact>
</mgrwt>
</event>
<event>
 5    1  0.1994521E+000  0.9151074E+02  0.7546771E-02  0.1299234E+00
         21   -1    0    0  503  502  0.00000000000E+00  0.00000000000E+00  0.29310388108E+03  0.29310388108E+03  0.00000000000E+00 0.  1.
         21   -1    0    0  501  503 -0.00000000000E+00 -0.00000000000E+00 -0.48650000620E+03  0.48650000620E+03  0.00000000000E+00 0. -1.
         24    1    1    2    0    0 -0.17658961178E+02 -0.22891467884E+02 -0.19872704646E+03  0.21632270607E+03  0.80419002446E+02 0.  0.
          1    1    1    2  501    0 -0.27302888058E+02  0.40861286716E+02 -0.27471712091E+03  0.27907810550E+03  0.00000000000E+00 0. -1.
         -2    1    1    2    0  502  0.44961849236E+02 -0.17969818833E+02  0.28004804225E+03  0.28420307571E+03  0.00000000000E+00 0.  1.
<mgrwt>
<rscale>  2 0.91510735E+02</rscale>
<asrwt>0</asrwt>
<pdfrwt beam="1">  1       21 0.45092905E-01 0.91510735E+02</pdfrwt>
<pdfrwt beam="2">  1       21 0.74846155E-01 0.91510735E+02</pdfrwt>
<totfact> 0.82763673E+03</totfact>
</mgrwt>
</event>
<event>
 5    1  0.1994521E+000  0.8321511E+02  0.7546771E-02  0.1320167E+00
         21   -1    0    0  501  502  0.00000000000E+00  0.00000000000E+00  0.45184260838E+02  0.45184260838E+02  0.00000000000E+00 0.  1.
         21   -1    0    0  502  503 -0.00000000000E+00 -0.00000000000E+00 -0.21012376938E+03  0.21012376938E+03  0.00000000000E+00 0.  1.
         24    1    1    2    0    0  0.42050084666E+02 -0.47780024547E+02 -0.41808300496E+02  0.11075328578E+03  0.80419002446E+02 0.  1.
          1    1    1    2  501    0 -0.14502661410E+02  0.20415513395E+02 -0.13930544682E+02  0.28656246270E+02  0.00000000000E+00 0. -1.
         -2    1    1    2    0  503 -0.27547423255E+02  0.27364511152E+02 -0.10920066337E+03  0.11589849817E+03  0.00000000000E+00 0.  1.
<mgrwt>
<rscale>  2 0.83215113E+02</rscale>
<asrwt>0</asrwt>
<pdfrwt beam="1">  1       21 0.69514248E-02 0.83215113E+02</pdfrwt>
<pdfrwt beam="2">  1       21 0.32326734E-01 0.83215113E+02</pdfrwt>
<totfact> 0.13924538E+06</totfact>
</mgrwt>
</event>
<event>
 5    1  0.1994521E+000  0.6929595E+02  0.7546771E-02  0.1362504E+00
         21   -1    0    0  503  502  0.00000000000E+00  0.00000000000E+00  0.19860172346E+04  0.19860172346E+04  0.00000000000E+00 0.  1.
         21   -1    0    0  501  503 -0.00000000000E+00 -0.00000000000E+00 -0.42559218176E+01  0.42559218176E+01  0.00000000000E+00 0.  1.
         24    1    1    2    0    0  0.41129753403E+02  0.19704613348E+02  0.15679246788E+04  0.15706479372E+04  0.80419002446E+02 0.  1.
          1    1    1    2  501    0 -0.19279948741E+02 -0.53877431187E+01  0.38616567443E+02  0.43496936448E+02  0.00000000000E+00 0. -1.
         -2    1    1    2    0  502 -0.21849804663E+02 -0.14316870230E+02  0.37522006655E+03  0.37612828274E+03  0.00000000000E+00 0.  1.
<mgrwt>
<rscale>  2 0.69295948E+02</rscale>
<asrwt>0</asrwt>
<pdfrwt beam="1">  1       21 0.30554037E+00 0.69295948E+02</pdfrwt>
<pdfrwt beam="2">  1       21 0.65475879E-03 0.69295948E+02</pdfrwt>
<totfact> 0.26451105E+05</totfact>
</mgrwt>
</event>
<event>
 5    1  0.1994521E+000  0.8823844E+02  0.7546771E-02  0.1307175E+00
         21   -1    0    0  503  502  0.00000000000E+00  0.00000000000E+00  0.66820165019E+02  0.66820165019E+02  0.00000000000E+00 0.  1.
         21   -1    0    0  501  503 -0.00000000000E+00 -0.00000000000E+00 -0.33886145628E+03  0.33886145628E+03  0.00000000000E+00 0. -1.
         24    1    1    2    0    0  0.27983608458E+02  0.63416111137E+02 -0.24815453633E+03  0.26991216228E+03  0.80419002446E+02 0. -1.
          1    1    1    2  501    0 -0.19446826733E+02 -0.29495751353E+02 -0.69692450445E+02  0.78135882070E+02  0.00000000000E+00 0. -1.
         -2    1    1    2    0  502 -0.85367817247E+01 -0.33920359784E+02  0.45805695513E+02  0.57633576945E+02  0.00000000000E+00 0.  1.
<mgrwt>
<rscale>  2 0.88238440E+02</rscale>
<asrwt>0</asrwt>
<pdfrwt beam="1">  1       21 0.10280025E-01 0.88238440E+02</pdfrwt>
<pdfrwt beam="2">  1       21 0.52132531E-01 0.88238440E+02</pdfrwt>
<totfact> 0.27623920E+05</totfact>
</mgrwt>
</event>
<event>
 5    1  0.1994521E+000  0.9895095E+02  0.7546771E-02  0.1282518E+00
         21   -1    0    0  503  502  0.00000000000E+00  0.00000000000E+00  0.97537122674E+02  0.97537122674E+02  0.00000000000E+00 0. -1.
         21   -1    0    0  501  503 -0.00000000000E+00 -0.00000000000E+00 -0.16125263696E+03  0.16125263696E+03  0.00000000000E+00 0.  1.
         24    1    1    2    0    0  0.25499786676E+02 -0.48731594841E+02 -0.24434045214E+02  0.10044523869E+03  0.80419002446E+02 0.  1.
          1    1    1    2  501    0 -0.90756834389E+01  0.71680764509E+02 -0.80640572494E+02  0.10827465984E+03  0.00000000000E+00 0. -1.
         -2    1    1    2    0  502 -0.16424103237E+02 -0.22949169668E+02  0.41359103419E+02  0.50069861107E+02  0.00000000000E+00 0.  1.
<mgrwt>
<rscale>  2 0.98950953E+02</rscale>
<asrwt>0</asrwt>
<pdfrwt beam="1">  1       21 0.15005711E-01 0.98950953E+02</pdfrwt>
<pdfrwt beam="2">  1       21 0.24808098E-01 0.98950953E+02</pdfrwt>
<totfact> 0.60637844E+05</totfact>
</mgrwt>
</event>
<event>
 5    1  0.1994521E+000  0.8699198E+02  0.7546771E-02  0.1310304E+00
         21   -1    0    0  501  502  0.00000000000E+00  0.00000000000E+00  0.10568124586E+03  0.10568124586E+03  0.00000000000E+00 0.  1.
         21   -1    0    0  502  503 -0.00000000000E+00 -0.00000000000E+00 -0.81375349166E+02  0.81375349166E+02  0.00000000000E+00 0. -1.
         24    1    1    2    0    0 -0.14411663030E+02 -0.37886518573E+02 -0.20275311809E+01  0.90080026409E+02  0.80419002446E+02 0.  0.
          1    1    1    2  501    0  0.26565930082E+02 -0.14419627927E+02  0.30720643762E+02  0.43097938046E+02  0.00000000000E+00 0. -1.
         -2    1    1    2    0  503 -0.12154267052E+02  0.52306146499E+02 -0.43872158852E+01  0.53878630573E+02  0.00000000000E+00 0.  1.
<mgrwt>
<rscale>  2 0.86991982E+02</rscale>
<asrwt>0</asrwt>
<pdfrwt beam="1">  1       21 0.16258653E-01 0.86991982E+02</pdfrwt>
<pdfrwt beam="2">  1       21 0.12519284E-01 0.86991982E+02</pdfrwt>
<totfact> 0.18099336E+06</totfact>
</mgrwt>
</event>
<event>
 5    1  0.1994521E+000  0.9962256E+02  0.7546771E-02  0.1281092E+00
         21   -1    0    0  501  502  0.00000000000E+00  0.00000000000E+00  0.80547636277E+02  0.80547636277E+02  0.00000000000E+00 0.  1.
         21   -1    0    0  502  503 -0.00000000000E+00 -0.00000000000E+00 -0.31849413339E+03  0.31849413339E+03  0.00000000000E+00 0.  1.
         24    1    1    2    0    0  0.37941602510E+02 -0.39136600887E+02 -0.13178419376E+02  0.98041447468E+02  0.80419002446E+02 0.  1.
          1    1    1    2  501    0 -0.16270056645E+02 -0.27537984272E+02  0.25620870559E+02  0.40981512042E+02  0.00000000000E+00 0. -1.
         -2    1    1    2    0  503 -0.21671545865E+02  0.66674585159E+02 -0.25038894830E+03  0.26001881016E+03  0.00000000000E+00 0.  1.
<mgrwt>
<rscale>  2 0.99622560E+02</rscale>
<asrwt>0</asrwt>
<pdfrwt beam="1">  1       21 0.12391944E-01 0.99622560E+02</pdfrwt>
<pdfrwt beam="2">  1       21 0.48999096E-01 0.99622560E+02</pdfrwt>
<totfact> 0.22556591E+05</totfact>
</mgrwt>
</event>
<event>
 5    1  0.1994521E+000  0.1417635E+03  0.7546771E-02  0.1210976E+00
         21   -1    0    0  501  502  0.00000000000E+00  0.00000000000E+00  0.40084035882E+02  0.40084035882E+02  0.00000000000E+00 0.  1.
         21   -1    0    0  502  503 -0.00000000000E+00 -0.00000000000E+00 -0.51604461611E+03  0.51604461611E+03  0.00000000000E+00 0. -1.
         24    1    1    2    0    0 -0.19687805467E+02  0.11011316146E+03 -0.20459015426E+03  0.24665130283E+03  0.80419002446E+02 0.  1.
          1    1    1    2  501    0  0.47296318224E+02 -0.10819988202E+03 -0.19185053652E+03  0.22527934781E+03  0.00000000000E+00 0. -1.
         -2    1    1    2    0  503 -0.27608512757E+02 -0.19132794387E+01 -0.79519889447E+02  0.84198001357E+02  0.00000000000E+00 0.  1.
<mgrwt>
<rscale>  2 0.14176353E+03</rscale>
<asrwt>0</asrwt>
<pdfrwt beam="1">  1       21 0.61667749E-02 0.14176353E+03</pdfrwt>
<pdfrwt beam="2">  1       21 0.79391477E-01 0.14176353E+03</pdfrwt>
<totfact> 0.26675874E+05</totfact>
</mgrwt>
</event>
<event>
 5    1  0.1994521E+000  0.7027376E+02  0.7546771E-02  0.1359165E+00
         21   -1    0    0  503  502  0.00000000000E+00  0.00000000000E+00  0.13323292413E+03  0.13323292413E+03  0.00000000000E+00 0.  1.
         21   -1    0    0  501  503 -0.00000000000E+00 -0.00000000000E+00 -0.21544450518E+03  0.21544450518E+03  0.00000000000E+00 0.  1.
         24    1    1    2    0    0  0.49512004391E+01 -0.15899934129E+02 -0.19207629423E+03  0.20889672341E+03  0.80419002446E+02 0.  1.
          1    1    1    2  501    0 -0.18773983998E+02 -0.15350874774E+02 -0.49053328531E+00  0.24255977704E+02  0.00000000000E+00 0. -1.
         -2    1    1    2    0  502  0.13822783559E+02  0.31250808903E+02  0.11035524646E+03  0.11552472820E+03  0.00000000000E+00 0.  1.
<mgrwt>
<rscale>  2 0.70273762E+02</rscale>
<asrwt>0</asrwt>
<pdfrwt beam="1">  1       21 0.20497373E-01 0.70273762E+02</pdfrwt>
<pdfrwt beam="2">  1       21 0.33145308E-01 0.70273762E+02</pdfrwt>
<totfact> 0.20003779E+05</totfact>
</mgrwt>
</event>
<event>
 5    1  0.2841889E+000  0.1094487E+03  0.7546771E-02  0.1261594E+00
         21   -1    0    0  503  502  0.00000000000E+00  0.00000000000E+00  0.95663996301E+03  0.95663996301E+03  0.00000000000E+00 0.  1.
         21   -1    0    0  501  503 -0.00000000000E+00 -0.00000000000E+00 -0.14896055747E+03  0.14896055747E+03  0.00000000000E+00 0. -1.
         24    1    1    2    0    0 -0.44269938179E+02  0.21520440512E+02  0.46562503955E+03  0.47507562576E+03  0.80419002446E+02 0.  1.
          1    1    1    2  501    0  0.43204534814E+01 -0.65242165295E+02 -0.13489834584E+03  0.14990920639E+03  0.00000000000E+00 0. -1.
         -2    1    1    2    0  502  0.39949484698E+02  0.43721724783E+02  0.47695271183E+03  0.48061568833E+03  0.00000000000E+00 0.  1.
<mgrwt>
<rscale>  2 0.10944868E+03</rscale>
<asrwt>0</asrwt>
<pdfrwt beam="1">  1       21 0.14717538E+00 0.10944868E+03</pdfrwt>
<pdfrwt beam="2">  1       21 0.22917009E-01 0.10944868E+03</pdfrwt>
<totfact> 0.60986299E+03</totfact>
</mgrwt>
</event>
<event>
 5    1  0.1994521E+000  0.6709620E+02  0.7546771E-02  0.1370256E+00
         21   -1    0    0  503  502  0.00000000000E+00  0.00000000000E+00  0.79510312178E+01  0.79510312178E+01  0.00000000000E+00 0.  1.
         21   -1    0    0  501  503 -0.00000000000E+00 -0.00000000000E+00 -0.79549691055E+03  0.79549691055E+03  0.00000000000E+00 0. -1.
         24    1    1    2    0    0 -0.11053553188E+02 -0.86329203250E+01 -0.27733955636E+03  0.28910405364E+03  0.80419002446E+02 0.  1.
          1    1    1    2  501    0 -0.23197310837E+01 -0.20433209910E+02 -0.36837401561E+03  0.36894757432E+03  0.00000000000E+00 0. -1.
         -2    1    1    2    0  502  0.13373284272E+02  0.29066130235E+02 -0.14183230736E+03  0.14539631381E+03  0.00000000000E+00 0.  1.
<mgrwt>
<rscale>  2 0.67096200E+02</rscale>
<asrwt>0</asrwt>
<pdfrwt beam="1">  1       21 0.12232355E-02 0.67096200E+02</pdfrwt>
<pdfrwt beam="2">  1       21 0.12238415E+00 0.67096200E+02</pdfrwt>
<totfact> 0.13672440E+06</totfact>
</mgrwt>
</event>
<event>
 5    1  0.1994521E+000  0.7676630E+02  0.7546771E-02  0.1338487E+00
         21   -1    0    0  503  502  0.00000000000E+00  0.00000000000E+00  0.42063587175E+02  0.42063587175E+02  0.00000000000E+00 0.  1.
         21   -1    0    0  501  503 -0.00000000000E+00 -0.00000000000E+00 -0.14372658507E+03  0.14372658507E+03  0.00000000000E+00 0.  1.
         24    1    1    2    0    0  0.88605950354E+01 -0.11089520059E+02 -0.45470832016E+02  0.93468177034E+02  0.80419002446E+02 0.  1.
          1    1    1    2  501    0  0.22784340633E+02 -0.17884206996E+02 -0.31608393280E+02  0.42872620210E+02  0.00000000000E+00 0. -1.
         -2    1    1    2    0  502 -0.31644935668E+02  0.28973727055E+02 -0.24583772601E+02  0.49449375003E+02  0.00000000000E+00 0.  1.
<mgrwt>
<rscale>  2 0.76766295E+02</rscale>
<asrwt>0</asrwt>
<pdfrwt beam="1">  1       21 0.64713211E-02 0.76766295E+02</pdfrwt>
<pdfrwt beam="2">  1       21 0.22111782E-01 0.76766295E+02</pdfrwt>
<totfact> 0.31955019E+06</totfact>
</mgrwt>
</event>
<event>
 5    1  0.1994521E+000  0.7913806E+02  0.7546771E-02  0.1331515E+00
         21   -1    0    0  501  502  0.00000000000E+00  0.00000000000E+00  0.67844421395E+02  0.67844421395E+02  0.00000000000E+00 0.  1.
         21   -1    0    0  502  503 -0.00000000000E+00 -0.00000000000E+00 -0.15132460751E+03  0.15132460751E+03  0.00000000000E+00 0.  1.
         24    1    1    2    0    0 -0.45482768942E+02 -0.30869564159E+02 -0.21438377465E+02  0.99741827960E+02  0.80419002446E+02 0.  1.
          1    1    1    2  501    0  0.12243787308E+02  0.23972876185E+02  0.18069022647E+02  0.32420652363E+02  0.00000000000E+00 0. -1.
         -2    1    1    2    0  503  0.33238981634E+02  0.68966879740E+01 -0.80110831302E+02  0.87006548587E+02  0.00000000000E+00 0.  1.
<mgrwt>
<rscale>  2 0.79138057E+02</rscale>
<asrwt>0</asrwt>
<pdfrwt beam="1">  1       21 0.10437604E-01 0.79138057E+02</pdfrwt>
<pdfrwt beam="2">  1       21 0.23280708E-01 0.79138057E+02</pdfrwt>
<totfact> 0.12881622E+06</totfact>
</mgrwt>
</event>
<event>
 5    1  0.1994521E+000  0.8002958E+02  0.7546771E-02  0.1328968E+00
         21   -1    0    0  503  502  0.00000000000E+00  0.00000000000E+00  0.16421488032E+03  0.16421488032E+03  0.00000000000E+00 0. -1.
         21   -1    0    0  501  503 -0.00000000000E+00 -0.00000000000E+00 -0.52540316542E+02  0.52540316542E+02  0.00000000000E+00 0.  1.
         24    1    1    2    0    0  0.22565808914E+02 -0.29383000750E+01  0.73599190462E+02  0.11136384571E+03  0.80419002446E+02 0. -1.
          1    1    1    2  501    0  0.21385394255E+02  0.20053058169E+02 -0.16192574749E+02  0.33491188488E+02  0.00000000000E+00 0. -1.
         -2    1    1    2    0  502 -0.43951203169E+02 -0.17114758094E+02  0.54267948063E+02  0.71900162667E+02  0.00000000000E+00 0.  1.
<mgrwt>
<rscale>  2 0.80029583E+02</rscale>
<asrwt>0</asrwt>
<pdfrwt beam="1">  1       21 0.25263827E-01 0.80029583E+02</pdfrwt>
<pdfrwt beam="2">  1       21 0.80831257E-02 0.80029583E+02</pdfrwt>
<totfact> 0.17170610E+06</totfact>
</mgrwt>
</event>
<event>
 5    1  0.1994521E+000  0.7840229E+02  0.7546771E-02  0.1333648E+00
         21   -1    0    0  503  502  0.00000000000E+00  0.00000000000E+00  0.56857705443E+02  0.56857705443E+02  0.00000000000E+00 0.  1.
         21   -1    0    0  501  503 -0.00000000000E+00 -0.00000000000E+00 -0.24507188965E+03  0.24507188965E+03  0.00000000000E+00 0. -1.
         24    1    1    2    0    0 -0.17700114691E+02 -0.62820186157E+01 -0.60258580724E+02  0.10223047649E+03  0.80419002446E+02 0.  0.
          1    1    1    2  501    0  0.42540875669E+02  0.18676667568E+02 -0.15447277792E+03  0.16130834799E+03  0.00000000000E+00 0. -1.
         -2    1    1    2    0  502 -0.24840760978E+02 -0.12394648952E+02  0.26517174432E+02  0.38390770616E+02  0.00000000000E+00 0.  1.
<mgrwt>
<rscale>  2 0.78402292E+02</rscale>
<asrwt>0</asrwt>
<pdfrwt beam="1">  1       21 0.87473390E-02 0.78402292E+02</pdfrwt>
<pdfrwt beam="2">  1       21 0.37703369E-01 0.78402292E+02</pdfrwt>
<totfact> 0.69836225E+05</totfact>
</mgrwt>
</event>
<event>
 5    1  0.1994521E+000  0.6830018E+02  0.7546771E-02  0.1365971E+00
         21   -1    0    0  503  502  0.00000000000E+00  0.00000000000E+00  0.68254227572E+03  0.68254227572E+03  0.00000000000E+00 0.  1.
         21   -1    0    0  501  503 -0.00000000000E+00 -0.00000000000E+00 -0.24953091200E+02  0.24953091200E+02  0.00000000000E+00 0. -1.
         24    1    1    2    0    0  0.35322718727E+02 -0.12191678716E+02  0.24134370095E+03  0.25711929027E+03  0.80419002446E+02 0. -1.
          1    1    1    2  501    0 -0.12954213169E+02  0.20342051297E+02 -0.80412961058E+01  0.25421902621E+02  0.00000000000E+00 0. -1.
         -2    1    1    2    0  502 -0.22368505558E+02 -0.81503725811E+01  0.42428677967E+03  0.42495417402E+03  0.00000000000E+00 0.  1.
<mgrwt>
<rscale>  2 0.68300182E+02</rscale>
<asrwt>0</asrwt>
<pdfrwt beam="1">  1       21 0.10500649E+00 0.68300182E+02</pdfrwt>
<pdfrwt beam="2">  1       21 0.38389376E-02 0.68300182E+02</pdfrwt>
<totfact> 0.31662000E+05</totfact>
</mgrwt>
</event>
<event>
 5    1  0.1994521E+000  0.1678628E+03  0.7546771E-02  0.1180095E+00
         21   -1    0    0  501  502  0.00000000000E+00  0.00000000000E+00  0.27650341850E+03  0.27650341850E+03  0.00000000000E+00 0.  1.
         21   -1    0    0  502  503 -0.00000000000E+00 -0.00000000000E+00 -0.10336307236E+03  0.10336307236E+03  0.00000000000E+00 0. -1.
         24    1    1    2    0    0 -0.10200712285E+03  0.52739958598E+02  0.54979291232E+02  0.15058849479E+03  0.80419002446E+02 0.  0.
          1    1    1    2  501    0  0.10240203573E+03 -0.10301687633E+03  0.97371101580E+02  0.17487076701E+03  0.00000000000E+00 0. -1.
         -2    1    1    2    0  503 -0.39491288217E+00  0.50276917737E+02  0.20789953330E+02  0.54407229049E+02  0.00000000000E+00 0.  1.
<mgrwt>
<rscale>  2 0.16786278E+03</rscale>
<asrwt>0</asrwt>
<pdfrwt beam="1">  1       21 0.42538987E-01 0.16786278E+03</pdfrwt>
<pdfrwt beam="2">  1       21 0.15902011E-01 0.16786278E+03</pdfrwt>
<totfact> 0.18887006E+05</totfact>
</mgrwt>
</event>
<event>
 5    1  0.1994521E+000  0.8659586E+02  0.7546771E-02  0.1311311E+00
         21   -1    0    0  501  502  0.00000000000E+00  0.00000000000E+00  0.10563752999E+04  0.10563752999E+04  0.00000000000E+00 0. -1.
         21   -1    0    0  502  503 -0.00000000000E+00 -0.00000000000E+00 -0.19670329975E+02  0.19670329975E+02  0.00000000000E+00 0. -1.
         24    1    1    2    0    0 -0.33345276528E+02 -0.57706668074E+02  0.17061721269E+03  0.20004853468E+03  0.80419002446E+02 0. -1.
          1    1    1    2  501    0  0.18595687160E+02  0.16085927552E+02  0.76839589676E+03  0.76878918489E+03  0.00000000000E+00 0. -1.
         -2    1    1    2    0  503  0.14749589368E+02  0.41620740523E+02  0.97691860430E+02  0.10720791026E+03  0.00000000000E+00 0.  1.
<mgrwt>
<rscale>  2 0.86595860E+02</rscale>
<asrwt>0</asrwt>
<pdfrwt beam="1">  1       21 0.16251923E+00 0.86595860E+02</pdfrwt>
<pdfrwt beam="2">  1       21 0.30262054E-02 0.86595860E+02</pdfrwt>
<totfact> 0.15881557E+05</totfact>
</mgrwt>
</event>
<event>
 5    1  0.1994521E+000  0.9060155E+02  0.7546771E-02  0.1301401E+00
         21   -1    0    0  503  502  0.00000000000E+00  0.00000000000E+00  0.53987917143E+03  0.53987917143E+03  0.00000000000E+00 0.  1.
         21   -1    0    0  501  503 -0.00000000000E+00 -0.00000000000E+00 -0.11360082076E+03  0.11360082076E+03  0.00000000000E+00 0. -1.
         24    1    1    2    0    0  0.29235682000E+01 -0.55866312509E+02 -0.26448489629E+02  0.10147083661E+03  0.80419002446E+02 0.  1.
          1    1    1    2  501    0 -0.21753321664E+02 -0.25138632053E+01 -0.45249095121E+02  0.50269345738E+02  0.00000000000E+00 0. -1.
         -2    1    1    2    0  502  0.18829753464E+02  0.58380175715E+02  0.49797593542E+03  0.50173980985E+03  0.00000000000E+00 0.  1.
<mgrwt>
<rscale>  2 0.90601548E+02</rscale>
<asrwt>0</asrwt>
<pdfrwt beam="1">  1       21 0.83058333E-01 0.90601548E+02</pdfrwt>
<pdfrwt beam="2">  1       21 0.17477050E-01 0.90601548E+02</pdfrwt>
<totfact> 0.39895810E+04</totfact>
</mgrwt>
</event>
<event>
 5    1  0.1994521E+000  0.7358192E+02  0.7546771E-02  0.1348319E+00
         21   -1    0    0  503  502  0.00000000000E+00  0.00000000000E+00  0.35275263029E+03  0.35275263029E+03  0.00000000000E+00 0.  1.
         21   -1    0    0  501  503 -0.00000000000E+00 -0.00000000000E+00 -0.27328245862E+02  0.27328245862E+02  0.00000000000E+00 0. -1.
         24    1    1    2    0    0  0.99934097214E+01 -0.33237920234E+01  0.18873412753E+03  0.20542322819E+03  0.80419002446E+02 0.  0.
          1    1    1    2  501    0 -0.34170307240E+02 -0.13353846852E+02  0.19342592248E+01  0.36737943347E+02  0.00000000000E+00 0. -1.
         -2    1    1    2    0  502  0.24176897519E+02  0.16677638876E+02  0.13475599767E+03  0.13791970461E+03  0.00000000000E+00 0.  1.
<mgrwt>
<rscale>  2 0.73581924E+02</rscale>
<asrwt>0</asrwt>
<pdfrwt beam="1">  1       21 0.54269632E-01 0.73581924E+02</pdfrwt>
<pdfrwt beam="2">  1       21 0.42043458E-02 0.73581924E+02</pdfrwt>
<totfact> 0.11465098E+06</totfact>
</mgrwt>
</event>
<event>
 5    1  0.1994521E+000  0.9694298E+02  0.7546771E-02  0.1286859E+00
         21   -1    0    0  501  502  0.00000000000E+00  0.00000000000E+00  0.22606548694E+03  0.22606548694E+03  0.00000000000E+00 0.  1.
         21   -1    0    0  502  503 -0.00000000000E+00 -0.00000000000E+00 -0.44957452292E+02  0.44957452292E+02  0.00000000000E+00 0. -1.
         24    1    1    2    0    0 -0.57048760367E+02  0.47239035693E+02  0.13687829962E+03  0.17518268297E+03  0.80419002446E+02 0.  0.
          1    1    1    2  501    0  0.48308582002E+02 -0.14160753573E+02  0.31222857290E+02  0.59237765439E+02  0.00000000000E+00 0. -1.
         -2    1    1    2    0  503  0.87401783651E+01 -0.33078282120E+02  0.13006877742E+02  0.36602490823E+02  0.00000000000E+00 0.  1.
<mgrwt>
<rscale>  2 0.96942979E+02</rscale>
<asrwt>0</asrwt>
<pdfrwt beam="1">  1       21 0.34779305E-01 0.96942979E+02</pdfrwt>
<pdfrwt beam="2">  1       21 0.69165312E-02 0.96942979E+02</pdfrwt>
<totfact> 0.12239693E+06</totfact>
</mgrwt>
</event>
<event>
 5    1  0.1994521E+000  0.1768327E+03  0.7546771E-02  0.1170904E+00
         21   -1    0    0  503  502  0.00000000000E+00  0.00000000000E+00  0.36462992706E+03  0.36462992706E+03  0.00000000000E+00 0. -1.
         21   -1    0    0  501  503 -0.00000000000E+00 -0.00000000000E+00 -0.13964639805E+03  0.13964639805E+03  0.00000000000E+00 0.  1.
         24    1    1    2    0    0  0.13992885560E+03  0.16289144966E+00 -0.17439735219E+02  0.16233136321E+03  0.80419002446E+02 0.  1.
          1    1    1    2  501    0 -0.13564277740E+03  0.48026427296E+02  0.64729252032E+02  0.15778268869E+03  0.00000000000E+00 0. -1.
         -2    1    1    2    0  502 -0.42860781931E+01 -0.48189318745E+02  0.17769401219E+03  0.18416227322E+03  0.00000000000E+00 0.  1.
<mgrwt>
<rscale>  2 0.17683273E+03</rscale>
<asrwt>0</asrwt>
<pdfrwt beam="1">  1       21 0.56096911E-01 0.17683273E+03</pdfrwt>
<pdfrwt beam="2">  1       21 0.21484061E-01 0.17683273E+03</pdfrwt>
<totfact> 0.60812031E+04</totfact>
</mgrwt>
</event>
<event>
 5    1  0.1994521E+000  0.9125736E+02  0.7546771E-02  0.1299835E+00
         21   -1    0    0  503  502  0.00000000000E+00  0.00000000000E+00  0.81282792507E+02  0.81282792507E+02  0.00000000000E+00 0.  1.
         21   -1    0    0  501  503 -0.00000000000E+00 -0.00000000000E+00 -0.10560892567E+03  0.10560892567E+03  0.00000000000E+00 0. -1.
         24    1    1    2    0    0  0.17700844331E+02  0.33238397567E+02 -0.23288383727E+02  0.91802373247E+02  0.80419002446E+02 0. -1.
          1    1    1    2  501    0 -0.52507434440E+02 -0.16114652305E+02 -0.85260696353E+01  0.55582430262E+02  0.00000000000E+00 0. -1.
         -2    1    1    2    0  502  0.34806590109E+02 -0.17123745262E+02  0.74883202029E+01  0.39506914664E+02  0.00000000000E+00 0.  1.
<mgrwt>
<rscale>  2 0.91257355E+02</rscale>
<asrwt>0</asrwt>
<pdfrwt beam="1">  1       21 0.12505045E-01 0.91257355E+02</pdfrwt>
<pdfrwt beam="2">  1       21 0.16247527E-01 0.91257355E+02</pdfrwt>
<totfact> 0.18192086E+06</totfact>
</mgrwt>
</event>
<event>
 5    1  0.1994521E+000  0.8347170E+02  0.7546771E-02  0.1319478E+00
         21   -1    0    0  501  502  0.00000000000E+00  0.00000000000E+00  0.68907775802E+03  0.68907775802E+03  0.00000000000E+00 0.  1.
         21   -1    0    0  502  503 -0.00000000000E+00 -0.00000000000E+00 -0.28356294191E+02  0.28356294191E+02  0.00000000000E+00 0.  1.
         24    1    1    2    0    0 -0.12365939136E+02 -0.23637137237E+02  0.45548622420E+03  0.46329962994E+03  0.80419002446E+02 0.  1.
          1    1    1    2  501    0  0.97290806119E+01 -0.28446886563E+02  0.19940511255E+03  0.20165881899E+03  0.00000000000E+00 0. -1.
         -2    1    1    2    0  503  0.26368585246E+01  0.52084023801E+02  0.58301270733E+01  0.52475603282E+02  0.00000000000E+00 0.  1.
<mgrwt>
<rscale>  2 0.83471704E+02</rscale>
<asrwt>0</asrwt>
<pdfrwt beam="1">  1       21 0.10601195E+00 0.83471704E+02</pdfrwt>
<pdfrwt beam="2">  1       21 0.43625073E-02 0.83471704E+02</pdfrwt>
<totfact> 0.25000597E+05</totfact>
</mgrwt>
</event>
<event>
 5    1  0.1994521E+000  0.9869098E+02  0.7546771E-02  0.1283073E+00
         21   -1    0    0  503  502  0.00000000000E+00  0.00000000000E+00  0.76841108635E+02  0.76841108635E+02  0.00000000000E+00 0.  1.
         21   -1    0    0  501  503 -0.00000000000E+00 -0.00000000000E+00 -0.43858237917E+03  0.43858237917E+03  0.00000000000E+00 0. -1.
         24    1    1    2    0    0 -0.13242419481E+02  0.12637953655E+02 -0.94543163052E+02  0.12546196707E+03  0.80419002446E+02 0. -1.
          1    1    1    2  501    0 -0.31836660769E+02 -0.48009376054E+02 -0.31197023565E+03  0.31724422940E+03  0.00000000000E+00 0. -1.
         -2    1    1    2    0  502  0.45079080249E+02  0.35371422400E+02  0.44772128166E+02  0.72717291336E+02  0.00000000000E+00 0.  1.
<mgrwt>
<rscale>  2 0.98690984E+02</rscale>
<asrwt>0</asrwt>
<pdfrwt beam="1">  1       21 0.11821709E-01 0.98690984E+02</pdfrwt>
<pdfrwt beam="2">  1       21 0.67474211E-01 0.98690984E+02</pdfrwt>
<totfact> 0.12546869E+05</totfact>
</mgrwt>
</event>
<event>
 5    1  0.1994521E+000  0.2483397E+03  0.7546771E-02  0.1114359E+00
         21   -1    0    0  503  502  0.00000000000E+00  0.00000000000E+00  0.69160233660E+03  0.69160233660E+03  0.00000000000E+00 0.  1.
         21   -1    0    0  501  503 -0.00000000000E+00 -0.00000000000E+00 -0.45463052244E+03  0.45463052244E+03  0.00000000000E+00 0. -1.
         24    1    1    2    0    0 -0.15530320584E+03 -0.66587972162E+02  0.92873239299E+02  0.20891552913E+03  0.80419002446E+02 0.  1.
          1    1    1    2  501    0 -0.66850799248E+01 -0.86442435475E+02 -0.36840139093E+03  0.37846607481E+03  0.00000000000E+00 0. -1.
         -2    1    1    2    0  502  0.16198828576E+03  0.15303040764E+03  0.51249996579E+03  0.55885125510E+03  0.00000000000E+00 0.  1.
<mgrwt>
<rscale>  2 0.24833973E+03</rscale>
<asrwt>0</asrwt>
<pdfrwt beam="1">  1       21 0.10640036E+00 0.24833973E+03</pdfrwt>
<pdfrwt beam="2">  1       21 0.69943157E-01 0.24833973E+03</pdfrwt>
<totfact> 0.12510489E+03</totfact>
</mgrwt>
</event>
<event>
 5    1  0.1994521E+000  0.7400869E+02  0.7546771E-02  0.1346969E+00
         21   -1    0    0  501  502  0.00000000000E+00  0.00000000000E+00  0.71780885427E+03  0.71780885427E+03  0.00000000000E+00 0. -1.
         21   -1    0    0  502  503 -0.00000000000E+00 -0.00000000000E+00 -0.19404054787E+02  0.19404054787E+02  0.00000000000E+00 0.  1.
         24    1    1    2    0    0  0.26458175781E+02 -0.34368991608E+02  0.39250677323E+03  0.40300129731E+03  0.80419002446E+02 0. -1.
          1    1    1    2  501    0 -0.37760232297E+01  0.33746067727E+02  0.30939517015E+03  0.31125299476E+03  0.00000000000E+00 0. -1.
         -2    1    1    2    0  503 -0.22682152552E+02  0.62292388180E+00 -0.34971438901E+01  0.22958616986E+02  0.00000000000E+00 0.  1.
<mgrwt>
<rscale>  2 0.74008692E+02</rscale>
<asrwt>0</asrwt>
<pdfrwt beam="1">  1       21 0.11043211E+00 0.74008692E+02</pdfrwt>
<pdfrwt beam="2">  1       21 0.29852397E-02 0.74008692E+02</pdfrwt>
<totfact> 0.42312940E+05</totfact>
</mgrwt>
</event>
<event>
 5    1  0.1994521E+000  0.1408844E+03  0.7546771E-02  0.1212144E+00
         21   -1    0    0  503  502  0.00000000000E+00  0.00000000000E+00  0.92238879670E+02  0.92238879670E+02  0.00000000000E+00 0.  1.
         21   -1    0    0  501  503 -0.00000000000E+00 -0.00000000000E+00 -0.25545251176E+03  0.25545251176E+03  0.00000000000E+00 0. -1.
         24    1    1    2    0    0  0.26253517849E+02  0.99534313267E+02 -0.14546749866E+03  0.19551044943E+03  0.80419002446E+02 0. -1.
          1    1    1    2  501    0 -0.26290221718E+02  0.19106968488E+02 -0.35493212885E+01  0.32693266652E+02  0.00000000000E+00 0. -1.
         -2    1    1    2    0  502  0.36703868825E-01 -0.11864128175E+03 -0.14196812137E+02  0.11948767534E+03  0.00000000000E+00 0.  1.
<mgrwt>
<rscale>  2 0.14088441E+03</rscale>
<asrwt>0</asrwt>
<pdfrwt beam="1">  1       21 0.14190597E-01 0.14088441E+03</pdfrwt>
<pdfrwt beam="2">  1       21 0.39300386E-01 0.14088441E+03</pdfrwt>
<totfact> 0.27406773E+05</totfact>
</mgrwt>
</event>
<event>
 5    1  0.1994521E+000  0.1067779E+03  0.7546771E-02  0.1266656E+00
         21   -1    0    0  501  502  0.00000000000E+00  0.00000000000E+00  0.31573620928E+03  0.31573620928E+03  0.00000000000E+00 0. -1.
         21   -1    0    0  502  503 -0.00000000000E+00 -0.00000000000E+00 -0.38568480819E+02  0.38568480819E+02  0.00000000000E+00 0.  1.
         24    1    1    2    0    0  0.38535435721E+01 -0.85989809032E+02  0.12829079675E+03  0.17416900281E+03  0.80419002446E+02 0.  1.
          1    1    1    2  501    0  0.17782767639E+02  0.22476144790E+02  0.75240518371E+02  0.80514219330E+02  0.00000000000E+00 0. -1.
         -2    1    1    2    0  503 -0.21636311212E+02  0.63513664242E+02  0.73636413338E+02  0.99621467956E+02  0.00000000000E+00 0.  1.
<mgrwt>
<rscale>  2 0.10677786E+03</rscale>
<asrwt>0</asrwt>
<pdfrwt beam="1">  1       21 0.48574800E-01 0.10677786E+03</pdfrwt>
<pdfrwt beam="2">  1       21 0.59336127E-02 0.10677786E+03</pdfrwt>
<totfact> 0.81602547E+05</totfact>
</mgrwt>
</event>
<event>
 5    1  0.1994521E+000  0.1487766E+03  0.7546771E-02  0.1201984E+00
         21   -1    0    0  503  502  0.00000000000E+00  0.00000000000E+00  0.12994119947E+03  0.12994119947E+03  0.00000000000E+00 0.  1.
         21   -1    0    0  501  503 -0.00000000000E+00 -0.00000000000E+00 -0.41104561402E+03  0.41104561402E+03  0.00000000000E+00 0. -1.
         24    1    1    2    0    0 -0.51420517661E+02  0.12686368074E+03 -0.43113944169E+01  0.15882149478E+03  0.80419002446E+02 0.  1.
          1    1    1    2  501    0  0.17235598233E+02 -0.19064295766E+02 -0.26745895618E+03  0.26869091250E+03  0.00000000000E+00 0. -1.
         -2    1    1    2    0  502  0.34184919428E+02 -0.10779938497E+03 -0.93340639635E+01  0.11347440622E+03  0.00000000000E+00 0.  1.
<mgrwt>
<rscale>  2 0.14877664E+03</rscale>
<asrwt>0</asrwt>
<pdfrwt beam="1">  1       21 0.19990954E-01 0.14877664E+03</pdfrwt>
<pdfrwt beam="2">  1       21 0.63237786E-01 0.14877664E+03</pdfrwt>
<totfact> 0.54589392E+04</totfact>
</mgrwt>
</event>
<event>
 5    1  0.1994521E+000  0.9785694E+02  0.7546771E-02  0.1284868E+00
         21   -1    0    0  503  502  0.00000000000E+00  0.00000000000E+00  0.43164499853E+03  0.43164499853E+03  0.00000000000E+00 0.  1.
         21   -1    0    0  501  503 -0.00000000000E+00 -0.00000000000E+00 -0.53167096028E+02  0.53167096028E+02  0.00000000000E+00 0. -1.
         24    1    1    2    0    0  0.35869303354E+02  0.16729524802E+02  0.23224278147E+03  0.24893856556E+03  0.80419002446E+02 0.  1.
          1    1    1    2  501    0  0.18937715997E+02  0.29045952153E+02 -0.29917756115E+02  0.45797123868E+02  0.00000000000E+00 0. -1.
         -2    1    1    2    0  502 -0.54807019351E+02 -0.45775476955E+02  0.17615287715E+03  0.19007640513E+03  0.00000000000E+00 0.  1.
<mgrwt>
<rscale>  2 0.97856940E+02</rscale>
<asrwt>0</asrwt>
<pdfrwt beam="1">  1       21 0.66406921E-01 0.97856940E+02</pdfrwt>
<pdfrwt beam="2">  1       21 0.81795535E-02 0.97856940E+02</pdfrwt>
<totfact> 0.24606473E+05</totfact>
</mgrwt>
</event>
<event>
 5    1  0.1994521E+000  0.1220893E+03  0.7546771E-02  0.1239690E+00
         21   -1    0    0  501  502  0.00000000000E+00  0.00000000000E+00  0.30863960854E+02  0.30863960854E+02  0.00000000000E+00 0.  1.
         21   -1    0    0  502  503 -0.00000000000E+00 -0.00000000000E+00 -0.70118749599E+03  0.70118749599E+03  0.00000000000E+00 0.  1.
         24    1    1    2    0    0  0.42517103753E+02  0.96423708866E+02 -0.24597405450E+03  0.27942026982E+03  0.80419002446E+02 0.  1.
          1    1    1    2  501    0  0.63329102084E+01 -0.19414168377E+02 -0.19666926439E+01  0.20515446996E+02  0.00000000000E+00 0. -1.
         -2    1    1    2    0  503 -0.48850013961E+02 -0.77009540489E+02 -0.42238278799E+03  0.43211574003E+03  0.00000000000E+00 0.  1.
<mgrwt>
<rscale>  2 0.12208927E+03</rscale>
<asrwt>0</asrwt>
<pdfrwt beam="1">  1       21 0.47483016E-02 0.12208927E+03</pdfrwt>
<pdfrwt beam="2">  1       21 0.10787500E+00 0.12208927E+03</pdfrwt>
<totfact> 0.20568968E+05</totfact>
</mgrwt>
</event>
<event>
 5    1  0.1994521E+000  0.7351967E+02  0.7546771E-02  0.1348517E+00
         21   -1    0    0  501  502  0.00000000000E+00  0.00000000000E+00  0.20843879417E+02  0.20843879417E+02  0.00000000000E+00 0.  1.
         21   -1    0    0  502  503 -0.00000000000E+00 -0.00000000000E+00 -0.54632267422E+03  0.54632267422E+03  0.00000000000E+00 0.  1.
         24    1    1    2    0    0  0.17502153735E+02 -0.13041799933E+02 -0.10194975103E+03  0.13167149130E+03  0.80419002446E+02 0.  1.
          1    1    1    2  501    0 -0.39797053683E+02  0.11184206819E+02 -0.70265508454E+02  0.81523822544E+02  0.00000000000E+00 0. -1.
         -2    1    1    2    0  503  0.22294899948E+02  0.18575931133E+01 -0.35326353532E+03  0.35397123980E+03  0.00000000000E+00 0.  1.
<mgrwt>
<rscale>  2 0.73519673E+02</rscale>
<asrwt>0</asrwt>
<pdfrwt beam="1">  1       21 0.32067514E-02 0.73519673E+02</pdfrwt>
<pdfrwt beam="2">  1       21 0.84049622E-01 0.73519673E+02</pdfrwt>
<totfact> 0.70195833E+05</totfact>
</mgrwt>
</event>
<event>
 5    1  0.1994521E+000  0.9235462E+02  0.7546771E-02  0.1297248E+00
         21   -1    0    0  501  502  0.00000000000E+00  0.00000000000E+00  0.21553245603E+03  0.21553245603E+03  0.00000000000E+00 0. -1.
         21   -1    0    0  502  503 -0.00000000000E+00 -0.00000000000E+00 -0.75027409990E+02  0.75027409990E+02  0.00000000000E+00 0. -1.
         24    1    1    2    0    0  0.49872207707E+02 -0.30516283999E+02 -0.26545714046E+02  0.10290953104E+03  0.80419002446E+02 0. -1.
          1    1    1    2  501    0 -0.40557272921E+01  0.38553556595E+02  0.82306898568E+02  0.90979399877E+02  0.00000000000E+00 0. -1.
         -2    1    1    2    0  503 -0.45816480415E+02 -0.80372725960E+01  0.84743861519E+02  0.96670935102E+02  0.00000000000E+00 0.  1.
<mgrwt>
<rscale>  2 0.92354618E+02</rscale>
<asrwt>0</asrwt>
<pdfrwt beam="1">  1       21 0.33158839E-01 0.92354618E+02</pdfrwt>
<pdfrwt beam="2">  1       21 0.11542679E-01 0.92354618E+02</pdfrwt>
<totfact> 0.55539082E+05</totfact>
</mgrwt>
</event>
<event>
 5    1  0.1994521E+000  0.8104904E+02  0.7546771E-02  0.1326101E+00
         21   -1    0    0  503  502  0.00000000000E+00  0.00000000000E+00  0.17858996642E+02  0.17858996642E+02  0.00000000000E+00 0.  1.
         21   -1    0    0  501  503 -0.00000000000E+00 -0.00000000000E+00 -0.73865540136E+03  0.73865540136E+03  0.00000000000E+00 0. -1.
         24    1    1    2    0    0  0.55339857976E+02  0.24196978330E+02 -0.39083354134E+03  0.40356668177E+03  0.80419002446E+02 0.  1.
          1    1    1    2  501    0 -0.26088415815E+02 -0.17795901128E+02 -0.31975688689E+03  0.32131256784E+03  0.00000000000E+00 0. -1.
         -2    1    1    2    0  502 -0.29251442161E+02 -0.64010772027E+01 -0.10205976483E+02  0.31635148393E+02  0.00000000000E+00 0.  1.
<mgrwt>
<rscale>  2 0.81049036E+02</rscale>
<asrwt>0</asrwt>
<pdfrwt beam="1">  1       21 0.27475388E-02 0.81049036E+02</pdfrwt>
<pdfrwt beam="2">  1       21 0.11363926E+00 0.81049036E+02</pdfrwt>
<totfact> 0.45182927E+05</totfact>
</mgrwt>
</event>
<event>
 5    1  0.1994521E+000  0.8734828E+02  0.7546771E-02  0.1309403E+00
         21   -1    0    0  501  502  0.00000000000E+00  0.00000000000E+00  0.25774543672E+03  0.25774543672E+03  0.00000000000E+00 0. -1.
         21   -1    0    0  502  503 -0.00000000000E+00 -0.00000000000E+00 -0.51918226345E+02  0.51918226345E+02  0.00000000000E+00 0.  1.
         24    1    1    2    0    0 -0.35598857511E+02  0.33472088457E+02  0.14680336379E+03  0.17437345823E+03  0.80419002446E+02 0.  1.
          1    1    1    2  501    0  0.67985936474E+01  0.19307877194E+02  0.71078489217E+02  0.73967334863E+02  0.00000000000E+00 0. -1.
         -2    1    1    2    0  503  0.28800263863E+02 -0.52779965651E+02 -0.12054642629E+02  0.61322869973E+02  0.00000000000E+00 0.  1.
<mgrwt>
<rscale>  2 0.87348285E+02</rscale>
<asrwt>0</asrwt>
<pdfrwt beam="1">  1       21 0.39653144E-01 0.87348285E+02</pdfrwt>
<pdfrwt beam="2">  1       21 0.79874195E-02 0.87348285E+02</pdfrwt>
<totfact> 0.73965976E+05</totfact>
</mgrwt>
</event>
<event>
 5    1  0.1994521E+000  0.1208023E+03  0.7546771E-02  0.1241779E+00
         21   -1    0    0  501  502  0.00000000000E+00  0.00000000000E+00  0.48007384269E+02  0.48007384269E+02  0.00000000000E+00 0. -1.
         21   -1    0    0  502  503 -0.00000000000E+00 -0.00000000000E+00 -0.11481705168E+04  0.11481705168E+04  0.00000000000E+00 0.  1.
         24    1    1    2    0    0 -0.40639222428E+02  0.58333652767E+02 -0.45170809908E+03  0.46428631702E+03  0.80419002446E+02 0.  1.
          1    1    1    2  501    0  0.78192710013E+02 -0.20230946006E+02  0.46616667473E+00  0.80768857779E+02  0.00000000000E+00 0. -1.
         -2    1    1    2    0  503 -0.37553487586E+02 -0.38102706761E+02 -0.64892120017E+03  0.65112272632E+03  0.00000000000E+00 0.  1.
<mgrwt>
<rscale>  2 0.12080227E+03</rscale>
<asrwt>0</asrwt>
<pdfrwt beam="1">  1       21 0.73857522E-02 0.12080227E+03</pdfrwt>
<pdfrwt beam="2">  1       21 0.17664160E+00 0.12080227E+03</pdfrwt>
<totfact> 0.27945964E+04</totfact>
</mgrwt>
</event>
<event>
 5    1  0.1994521E+000  0.7978434E+02  0.7546771E-02  0.1329665E+00
         21   -1    0    0  501  502  0.00000000000E+00  0.00000000000E+00  0.89206092771E+02  0.89206092771E+02  0.00000000000E+00 0.  1.
         21   -1    0    0  502  503 -0.00000000000E+00 -0.00000000000E+00 -0.10757448511E+03  0.10757448511E+03  0.00000000000E+00 0.  1.
         24    1    1    2    0    0  0.15993627249E+02  0.45495640278E+02 -0.33094535146E+02  0.99438994403E+02  0.80419002446E+02 0.  0.
          1    1    1    2  501    0  0.15744339429E+02 -0.13644245010E+02  0.40477991617E+02  0.45524910228E+02  0.00000000000E+00 0. -1.
         -2    1    1    2    0  503 -0.31737966678E+02 -0.31851395269E+02 -0.25751848807E+02  0.51816673247E+02  0.00000000000E+00 0.  1.
<mgrwt>
<rscale>  2 0.79784339E+02</rscale>
<asrwt>0</asrwt>
<pdfrwt beam="1">  1       21 0.13724014E-01 0.79784339E+02</pdfrwt>
<pdfrwt beam="2">  1       21 0.16549921E-01 0.79784339E+02</pdfrwt>
<totfact> 0.14863420E+06</totfact>
</mgrwt>
</event>
<event>
 5    1  0.1994521E+000  0.9481830E+02  0.7546771E-02  0.1291586E+00
         21   -1    0    0  503  502  0.00000000000E+00  0.00000000000E+00  0.17781621182E+04  0.17781621182E+04  0.00000000000E+00 0. -1.
         21   -1    0    0  501  503 -0.00000000000E+00 -0.00000000000E+00 -0.57057543643E+01  0.57057543643E+01  0.00000000000E+00 0.  1.
         24    1    1    2    0    0 -0.44616281588E+02 -0.36790391925E+02  0.65681732983E+03  0.66424420678E+03  0.80419002446E+02 0.  1.
          1    1    1    2  501    0  0.30700888122E+02  0.57763112139E+02  0.64406797601E+03  0.64738140178E+03  0.00000000000E+00 0. -1.
         -2    1    1    2    0  502  0.13915393467E+02 -0.20972720214E+02  0.47157105799E+03  0.47224226400E+03  0.00000000000E+00 0.  1.
<mgrwt>
<rscale>  2 0.94818301E+02</rscale>
<asrwt>0</asrwt>
<pdfrwt beam="1">  1       21 0.27356296E+00 0.94818301E+02</pdfrwt>
<pdfrwt beam="2">  1       21 0.87780978E-03 0.94818301E+02</pdfrwt>
<totfact> 0.24216400E+05</totfact>
</mgrwt>
</event>
<event>
 5    1  0.1994521E+000  0.6519793E+02  0.7546771E-02  0.1377228E+00
         21   -1    0    0  501  502  0.00000000000E+00  0.00000000000E+00  0.29836994972E+04  0.29836994972E+04  0.00000000000E+00 0.  1.
         21   -1    0    0  502  503 -0.00000000000E+00 -0.00000000000E+00 -0.15358422941E+01  0.15358422941E+01  0.00000000000E+00 0. -1.
         24    1    1    2    0    0 -0.18768549862E+02  0.94673975333E+01  0.15109417058E+04  0.15132263362E+04  0.80419002446E+02 0. -1.
          1    1    1    2  501    0 -0.41838022857E+00 -0.23500177544E+02  0.86971420654E+03  0.87003174336E+03  0.00000000000E+00 0. -1.
         -2    1    1    2    0  503  0.19186930091E+02  0.14032780011E+02  0.60150774255E+03  0.60197725999E+03  0.00000000000E+00 0.  1.
<mgrwt>
<rscale>  2 0.65197933E+02</rscale>
<asrwt>0</asrwt>
<pdfrwt beam="1">  1       21 0.45902605E+00 0.65197933E+02</pdfrwt>
<pdfrwt beam="2">  1       21 0.23628582E-03 0.65197933E+02</pdfrwt>
<totfact> 0.16057493E+05</totfact>
</mgrwt>
</event>
<event>
 5    1  0.1994521E+000  0.6625594E+02  0.7546771E-02  0.1373308E+00
         21   -1    0    0  503  502  0.00000000000E+00  0.00000000000E+00  0.10130663708E+04  0.10130663708E+04  0.00000000000E+00 0.  1.
         21   -1    0    0  501  503 -0.00000000000E+00 -0.00000000000E+00 -0.19390132211E+02  0.19390132211E+02  0.00000000000E+00 0.  1.
         24    1    1    2    0    0 -0.41549893317E+02  0.10252643696E+01  0.17264804539E+03  0.19494103809E+03  0.80419002446E+02 0.  1.
          1    1    1    2  501    0  0.20764520655E+02  0.24678880157E+01  0.53755658864E+01  0.21590565020E+02  0.00000000000E+00 0. -1.
         -2    1    1    2    0  502  0.20785372662E+02 -0.34931523853E+01  0.81565262736E+03  0.81592489995E+03  0.00000000000E+00 0.  1.
<mgrwt>
<rscale>  2 0.66255941E+02</rscale>
<asrwt>0</asrwt>
<pdfrwt beam="1">  1       21 0.15585632E+00 0.66255941E+02</pdfrwt>
<pdfrwt beam="2">  1       21 0.29830981E-02 0.66255941E+02</pdfrwt>
<totfact> 0.18357010E+05</totfact>
</mgrwt>
</event>
<event>
 5    1  0.1994521E+000  0.1006619E+03  0.7546771E-02  0.1278910E+00
         21   -1    0    0  501  502  0.00000000000E+00  0.00000000000E+00  0.23487750558E+03  0.23487750558E+03  0.00000000000E+00 0.  1.
         21   -1    0    0  502  503 -0.00000000000E+00 -0.00000000000E+00 -0.56584324758E+02  0.56584324758E+02  0.00000000000E+00 0. -1.
         24    1    1    2    0    0 -0.62072032475E+02 -0.57479782092E+02  0.66945856623E+02  0.13455789177E+03  0.80419002446E+02 0. -1.
          1    1    1    2  501    0  0.16307908058E+02  0.14658675454E+02  0.86911477386E+02  0.89634979403E+02  0.00000000000E+00 0. -1.
         -2    1    1    2    0  503  0.45764124417E+02  0.42821106638E+02  0.24435846817E+02  0.67268959165E+02  0.00000000000E+00 0.  1.
<mgrwt>
<rscale>  2 0.10066186E+03</rscale>
<asrwt>0</asrwt>
<pdfrwt beam="1">  1       21 0.36135000E-01 0.10066186E+03</pdfrwt>
<pdfrwt beam="2">  1       21 0.87052809E-02 0.10066186E+03</pdfrwt>
<totfact> 0.76706673E+05</totfact>
</mgrwt>
</event>
<event>
 5    1  0.1994521E+000  0.9544876E+02  0.7546771E-02  0.1290169E+00
         21   -1    0    0  503  502  0.00000000000E+00  0.00000000000E+00  0.52567324593E+02  0.52567324593E+02  0.00000000000E+00 0.  1.
         21   -1    0    0  501  503 -0.00000000000E+00 -0.00000000000E+00 -0.17422865596E+03  0.17422865596E+03  0.00000000000E+00 0.  1.
         24    1    1    2    0    0 -0.26101489738E+01  0.50485166811E+02 -0.65829257741E+02  0.11556933882E+03  0.80419002446E+02 0.  1.
          1    1    1    2  501    0  0.35759132046E+02 -0.29523421896E+00 -0.16691216193E+02  0.39463899781E+02  0.00000000000E+00 0. -1.
         -2    1    1    2    0  502 -0.33148983072E+02 -0.50189932592E+02 -0.39140857437E+02  0.71762741957E+02  0.00000000000E+00 0.  1.
<mgrwt>
<rscale>  2 0.95448761E+02</rscale>
<asrwt>0</asrwt>
<pdfrwt beam="1">  1       21 0.80872808E-02 0.95448761E+02</pdfrwt>
<pdfrwt beam="2">  1       21 0.26804408E-01 0.95448761E+02</pdfrwt>
<totfact> 0.15443540E+06</totfact>
</mgrwt>
</event>
<event>
 5    1  0.1994521E+000  0.7833696E+02  0.7546771E-02  0.1333838E+00
         21   -1    0    0  501  502  0.00000000000E+00  0.00000000000E+00  0.14576863045E+03  0.14576863045E+03  0.00000000000E+00 0. -1.
         21   -1    0    0  502  503 -0.00000000000E+00 -0.00000000000E+00 -0.53855772508E+02  0.53855772508E+02  0.00000000000E+00 0.  1.
         24    1    1    2    0    0 -0.48260525085E+02  0.29334025477E+02  0.12223793188E+02  0.99026261196E+02  0.80419002446E+02 0.  1.
          1    1    1    2  501    0  0.30890558109E+02 -0.10126111556E+02  0.59346811559E+02  0.67666895582E+02  0.00000000000E+00 0. -1.
         -2    1    1    2    0  503  0.17369966975E+02 -0.19207913921E+02  0.20342253198E+02  0.32931246182E+02  0.00000000000E+00 0.  1.
<mgrwt>
<rscale>  2 0.78336965E+02</rscale>
<asrwt>0</asrwt>
<pdfrwt beam="1">  1       21 0.22425943E-01 0.78336965E+02</pdfrwt>
<pdfrwt beam="2">  1       21 0.82855035E-02 0.78336965E+02</pdfrwt>
<totfact> 0.20515677E+06</totfact>
</mgrwt>
</event>
<event>
 5    1  0.1994521E+000  0.9484945E+02  0.7546771E-02  0.1291516E+00
         21   -1    0    0  503  502  0.00000000000E+00  0.00000000000E+00  0.21488793259E+02  0.21488793259E+02  0.00000000000E+00 0.  1.
         21   -1    0    0  501  503 -0.00000000000E+00 -0.00000000000E+00 -0.44483599536E+03  0.44483599536E+03  0.00000000000E+00 0.  1.
         24    1    1    2    0    0  0.32109736051E+02 -0.43857791784E+02 -0.23990055385E+03  0.25879341711E+03  0.80419002446E+02 0.  0.
          1    1    1    2  501    0  0.24422155359E+02  0.80489367851E+01 -0.82531530267E+02  0.86444667527E+02  0.00000000000E+00 0. -1.
         -2    1    1    2    0  502 -0.56531891410E+02  0.35808854999E+02 -0.10091511799E+03  0.12108670398E+03  0.00000000000E+00 0.  1.
<mgrwt>
<rscale>  2 0.94849447E+02</rscale>
<asrwt>0</asrwt>
<pdfrwt beam="1">  1       21 0.33059681E-02 0.94849447E+02</pdfrwt>
<pdfrwt beam="2">  1       21 0.68436310E-01 0.94849447E+02</pdfrwt>
<totfact> 0.10489956E+06</totfact>
</mgrwt>
</event>
<event>
 5    1  0.1994521E+000  0.8311782E+02  0.7546771E-02  0.1320429E+00
         21   -1    0    0  501  502  0.00000000000E+00  0.00000000000E+00  0.43152820887E+03  0.43152820887E+03  0.00000000000E+00 0. -1.
         21   -1    0    0  502  503 -0.00000000000E+00 -0.00000000000E+00 -0.10298734765E+03  0.10298734765E+03  0.00000000000E+00 0.  1.
         24    1    1    2    0    0  0.73147623158E+01 -0.73112462670E+01  0.47564061898E+01  0.81220683474E+02  0.80419002446E+02 0.  0.
          1    1    1    2  501    0 -0.45586478636E+02 -0.24671664857E+01  0.38102353961E+03  0.38374881327E+03  0.00000000000E+00 0. -1.
         -2    1    1    2    0  503  0.38271716320E+02  0.97784127527E+01 -0.57239084584E+02  0.69546059773E+02  0.00000000000E+00 0.  1.
<mgrwt>
<rscale>  2 0.83117822E+02</rscale>
<asrwt>0</asrwt>
<pdfrwt beam="1">  1       21 0.66388954E-01 0.83117822E+02</pdfrwt>
<pdfrwt beam="2">  1       21 0.15844208E-01 0.83117822E+02</pdfrwt>
<totfact> 0.77950346E+04</totfact>
</mgrwt>
</event>
<event>
 5    1  0.1994521E+000  0.8836664E+02  0.7546771E-02  0.1306856E+00
         21   -1    0    0  501  502  0.00000000000E+00  0.00000000000E+00  0.10450525125E+03  0.10450525125E+03  0.00000000000E+00 0. -1.
         21   -1    0    0  502  503 -0.00000000000E+00 -0.00000000000E+00 -0.15208041999E+03  0.15208041999E+03  0.00000000000E+00 0.  1.
         24    1    1    2    0    0 -0.33086818148E+02  0.20839233459E+02  0.43245148493E+02  0.99329602883E+02  0.80419002446E+02 0.  1.
          1    1    1    2  501    0  0.60698930160E+01  0.29533670818E+02  0.17440382102E+02  0.34831713151E+02  0.00000000000E+00 0. -1.
         -2    1    1    2    0  503  0.27016925132E+02 -0.50372904277E+02 -0.10826069933E+03  0.12242435521E+03  0.00000000000E+00 0.  1.
<mgrwt>
<rscale>  2 0.88366642E+02</rscale>
<asrwt>0</asrwt>
<pdfrwt beam="1">  1       21 0.16077731E-01 0.88366642E+02</pdfrwt>
<pdfrwt beam="2">  1       21 0.23396988E-01 0.88366642E+02</pdfrwt>
<totfact> 0.59749113E+05</totfact>
</mgrwt>
</event>
<event>
 5    1  0.1994521E+000  0.7241349E+02  0.7546771E-02  0.1352073E+00
         21   -1    0    0  501  502  0.00000000000E+00  0.00000000000E+00  0.14858968747E+03  0.14858968747E+03  0.00000000000E+00 0. -1.
         21   -1    0    0  502  503 -0.00000000000E+00 -0.00000000000E+00 -0.45863279123E+02  0.45863279123E+02  0.00000000000E+00 0.  1.
         24    1    1    2    0    0 -0.10401807521E+02 -0.36159851381E+01  0.11917722840E+02  0.82039752683E+02  0.80419002446E+02 0.  1.
          1    1    1    2  501    0 -0.21924462023E+02  0.17911972962E+02  0.56285439706E+02  0.63004535815E+02  0.00000000000E+00 0. -1.
         -2    1    1    2    0  503  0.32326269543E+02 -0.14295987824E+02  0.34523245800E+02  0.49408678094E+02  0.00000000000E+00 0.  1.
<mgrwt>
<rscale>  2 0.72413490E+02</rscale>
<asrwt>0</asrwt>
<pdfrwt beam="1">  1       21 0.22859952E-01 0.72413490E+02</pdfrwt>
<pdfrwt beam="2">  1       21 0.70558892E-02 0.72413490E+02</pdfrwt>
<totfact> 0.25898490E+06</totfact>
</mgrwt>
</event>
<event>
 5    1  0.1994521E+000  0.8289473E+02  0.7546771E-02  0.1321032E+00
         21   -1    0    0  501  502  0.00000000000E+00  0.00000000000E+00  0.24751535073E+03  0.24751535073E+03  0.00000000000E+00 0. -1.
         21   -1    0    0  502  503 -0.00000000000E+00 -0.00000000000E+00 -0.37306977863E+02  0.37306977863E+02  0.00000000000E+00 0. -1.
         24    1    1    2    0    0  0.30813632369E+02 -0.48245700735E+02  0.10035658784E+03  0.14076856274E+03  0.80419002446E+02 0. -1.
          1    1    1    2  501    0 -0.10486962178E+02  0.45346869193E+02  0.11397438823E+03  0.12311164077E+03  0.00000000000E+00 0. -1.
         -2    1    1    2    0  503 -0.20326670192E+02  0.28988315419E+01 -0.41226032086E+01  0.20942125074E+02  0.00000000000E+00 0.  1.
<mgrwt>
<rscale>  2 0.82894732E+02</rscale>
<asrwt>0</asrwt>
<pdfrwt beam="1">  1       21 0.38079284E-01 0.82894732E+02</pdfrwt>
<pdfrwt beam="2">  1       21 0.57395352E-02 0.82894732E+02</pdfrwt>
<totfact> 0.13982013E+06</totfact>
</mgrwt>
</event>
<event>
 5    1  0.1994521E+000  0.7679289E+02  0.7546771E-02  0.1338407E+00
         21   -1    0    0  501  502  0.00000000000E+00  0.00000000000E+00  0.17607339946E+03  0.17607339946E+03  0.00000000000E+00 0.  1.
         21   -1    0    0  502  503 -0.00000000000E+00 -0.00000000000E+00 -0.51840515603E+02  0.51840515603E+02  0.00000000000E+00 0.  1.
         24    1    1    2    0    0  0.35442361542E+01 -0.11777812391E+02  0.12281463453E+03  0.14731574554E+03  0.80419002446E+02 0.  1.
          1    1    1    2  501    0  0.27990388598E+02 -0.14189428332E+02  0.18378514523E+02  0.36367176496E+02  0.00000000000E+00 0. -1.
         -2    1    1    2    0  503 -0.31534624752E+02  0.25967240723E+02 -0.16960265193E+02  0.44230993030E+02  0.00000000000E+00 0.  1.
<mgrwt>
<rscale>  2 0.76792887E+02</rscale>
<asrwt>0</asrwt>
<pdfrwt beam="1">  1       21 0.27088215E-01 0.76792887E+02</pdfrwt>
<pdfrwt beam="2">  1       21 0.79754640E-02 0.76792887E+02</pdfrwt>
<totfact> 0.15394322E+06</totfact>
</mgrwt>
</event>
<event>
 5    1  0.1994521E+000  0.1008094E+03  0.7546771E-02  0.1278603E+00
         21   -1    0    0  501  502  0.00000000000E+00  0.00000000000E+00  0.48419985437E+02  0.48419985437E+02  0.00000000000E+00 0.  1.
         21   -1    0    0  502  503 -0.00000000000E+00 -0.00000000000E+00 -0.45660340022E+03  0.45660340022E+03  0.00000000000E+00 0.  1.
         24    1    1    2    0    0  0.37804983530E+02  0.23491979018E+02 -0.15171377121E+03  0.17738481949E+03  0.80419002446E+02 0.  1.
          1    1    1    2  501    0  0.33535451289E+02  0.28487343631E+01  0.21177683259E+02  0.39764758881E+02  0.00000000000E+00 0. -1.
         -2    1    1    2    0  503 -0.71340434819E+02 -0.26340713381E+02 -0.27764732683E+03  0.28787380728E+03  0.00000000000E+00 0.  1.
<mgrwt>
<rscale>  2 0.10080942E+03</rscale>
<asrwt>0</asrwt>
<pdfrwt beam="1">  1       21 0.74492288E-02 0.10080942E+03</pdfrwt>
<pdfrwt beam="2">  1       21 0.70246674E-01 0.10080942E+03</pdfrwt>
<totfact> 0.25561255E+05</totfact>
</mgrwt>
</event>
<event>
 5    1  0.1994521E+000  0.1220947E+03  0.7546771E-02  0.1239681E+00
         21   -1    0    0  501  502  0.00000000000E+00  0.00000000000E+00  0.22616454383E+02  0.22616454383E+02  0.00000000000E+00 0.  1.
         21   -1    0    0  502  503 -0.00000000000E+00 -0.00000000000E+00 -0.85352361257E+03  0.85352361257E+03  0.00000000000E+00 0.  1.
         24    1    1    2    0    0 -0.10831345823E+03 -0.96020686759E+01 -0.62999798103E+03  0.64435136145E+03  0.80419002446E+02 0.  1.
          1    1    1    2  501    0  0.47312729028E+02  0.75317825951E+01 -0.51217241025E+02  0.70131504014E+02  0.00000000000E+00 0. -1.
         -2    1    1    2    0  503  0.61000729201E+02  0.20702860808E+01 -0.14969193613E+03  0.16165720148E+03  0.00000000000E+00 0.  1.
<mgrwt>
<rscale>  2 0.12209468E+03</rscale>
<asrwt>0</asrwt>
<pdfrwt beam="1">  1       21 0.34794543E-02 0.12209468E+03</pdfrwt>
<pdfrwt beam="2">  1       21 0.13131133E+00 0.12209468E+03</pdfrwt>
<totfact> 0.21379522E+05</totfact>
</mgrwt>
</event>
<event>
 5    1  0.1994521E+000  0.7826492E+02  0.7546771E-02  0.1334049E+00
         21   -1    0    0  501  502  0.00000000000E+00  0.00000000000E+00  0.70352865242E+03  0.70352865242E+03  0.00000000000E+00 0.  1.
         21   -1    0    0  502  503 -0.00000000000E+00 -0.00000000000E+00 -0.14143671533E+02  0.14143671533E+02  0.00000000000E+00 0.  1.
         24    1    1    2    0    0  0.24902399025E+02 -0.75793902229E+01  0.20788013020E+03  0.22440797918E+03  0.80419002446E+02 0.  1.
          1    1    1    2  501    0  0.11844602979E+02 -0.21896553153E+02  0.38571545365E+03  0.38651800067E+03  0.00000000000E+00 0. -1.
         -2    1    1    2    0  503 -0.36747002004E+02  0.29475943376E+02  0.95789397035E+02  0.10674634410E+03  0.00000000000E+00 0.  1.
<mgrwt>
<rscale>  2 0.78264915E+02</rscale>
<asrwt>0</asrwt>
<pdfrwt beam="1">  1       21 0.10823515E+00 0.78264915E+02</pdfrwt>
<pdfrwt beam="2">  1       21 0.21759500E-02 0.78264915E+02</pdfrwt>
<totfact> 0.73716954E+05</totfact>
</mgrwt>
</event>
<event>
 5    1  0.1994521E+000  0.7125874E+02  0.7546771E-02  0.1355864E+00
         21   -1    0    0  503  502  0.00000000000E+00  0.00000000000E+00  0.13798592677E+03  0.13798592677E+03  0.00000000000E+00 0. -1.
         21   -1    0    0  501  503 -0.00000000000E+00 -0.00000000000E+00 -0.42410803026E+02  0.42410803026E+02  0.00000000000E+00 0. -1.
         24    1    1    2    0    0  0.15011829489E+01  0.18690795713E+02  0.78957102066E+02  0.11424989854E+03  0.80419002446E+02 0.  0.
          1    1    1    2  501    0 -0.18928859684E+01  0.20580873116E+02 -0.50730693150E+01  0.21281244977E+02  0.00000000000E+00 0. -1.
         -2    1    1    2    0  502  0.39170301952E+00 -0.39271668829E+02  0.21691090991E+02  0.44865586280E+02  0.00000000000E+00 0.  1.
<mgrwt>
<rscale>  2 0.71258739E+02</rscale>
<asrwt>0</asrwt>
<pdfrwt beam="1">  1       21 0.21228604E-01 0.71258739E+02</pdfrwt>
<pdfrwt beam="2">  1       21 0.65247390E-02 0.71258739E+02</pdfrwt>
<totfact> 0.33805522E+06</totfact>
</mgrwt>
</event>
<event>
 5    1  0.1994521E+000  0.8036462E+02  0.7546771E-02  0.1328020E+00
         21   -1    0    0  503  502  0.00000000000E+00  0.00000000000E+00  0.22590678661E+02  0.22590678661E+02  0.00000000000E+00 0.  1.
         21   -1    0    0  501  503 -0.00000000000E+00 -0.00000000000E+00 -0.38912392101E+03  0.38912392101E+03  0.00000000000E+00 0. -1.
         24    1    1    2    0    0  0.25586263946E+02  0.27323957821E+02 -0.21379304583E+03  0.23146476616E+03  0.80419002446E+02 0.  0.
          1    1    1    2  501    0  0.12055707186E+01 -0.41633577556E+02 -0.14208068615E+03  0.14805988503E+03  0.00000000000E+00 0. -1.
         -2    1    1    2    0  502 -0.26791834665E+02  0.14309619736E+02 -0.10659510377E+02  0.32189948481E+02  0.00000000000E+00 0.  1.
<mgrwt>
<rscale>  2 0.80364616E+02</rscale>
<asrwt>0</asrwt>
<pdfrwt beam="1">  1       21 0.34754890E-02 0.80364616E+02</pdfrwt>
<pdfrwt beam="2">  1       21 0.59865220E-01 0.80364616E+02</pdfrwt>
<totfact> 0.12800995E+06</totfact>
</mgrwt>
</event>
<event>
 5    1  0.1994521E+000  0.1174609E+03  0.7546771E-02  0.1247346E+00
         21   -1    0    0  501  502  0.00000000000E+00  0.00000000000E+00  0.10538895088E+03  0.10538895088E+03  0.00000000000E+00 0. -1.
         21   -1    0    0  502  503 -0.00000000000E+00 -0.00000000000E+00 -0.51024199140E+03  0.51024199140E+03  0.00000000000E+00 0.  1.
         24    1    1    2    0    0 -0.14560493902E+02  0.24387574104E+02 -0.20331589322E+03  0.22047977264E+03  0.80419002446E+02 0.  0.
          1    1    1    2  501    0  0.65656216221E+02 -0.58712942118E+02  0.72627827105E+02  0.11416106854E+03  0.00000000000E+00 0. -1.
         -2    1    1    2    0  503 -0.51095722319E+02  0.34325368014E+02 -0.27416497440E+03  0.28099010110E+03  0.00000000000E+00 0.  1.
<mgrwt>
<rscale>  2 0.11746086E+03</rscale>
<asrwt>0</asrwt>
<pdfrwt beam="1">  1       21 0.16213685E-01 0.11746086E+03</pdfrwt>
<pdfrwt beam="2">  1       21 0.78498766E-01 0.11746086E+03</pdfrwt>
<totfact> 0.50812895E+04</totfact>
</mgrwt>
</event>
<event>
 5    1  0.1994521E+000  0.8951101E+02  0.7546771E-02  0.1304040E+00
         21   -1    0    0  503  502  0.00000000000E+00  0.00000000000E+00  0.18514793008E+02  0.18514793008E+02  0.00000000000E+00 0. -1.
         21   -1    0    0  501  503 -0.00000000000E+00 -0.00000000000E+00 -0.44239786572E+03  0.44239786572E+03  0.00000000000E+00 0. -1.
         24    1    1    2    0    0 -0.36396902188E+01  0.50640401680E+02 -0.21089596572E+03  0.23134826980E+03  0.80419002446E+02 0. -1.
          1    1    1    2  501    0  0.35276622888E+02 -0.26395564485E+02 -0.13456763247E+03  0.14159665834E+03  0.00000000000E+00 0. -1.
         -2    1    1    2    0  502 -0.31636932669E+02 -0.24244837195E+02 -0.78419474528E+02  0.87967730587E+02  0.00000000000E+00 0.  1.
<mgrwt>
<rscale>  2 0.89511005E+02</rscale>
<asrwt>0</asrwt>
<pdfrwt beam="1">  1       21 0.28484299E-02 0.89511005E+02</pdfrwt>
<pdfrwt beam="2">  1       21 0.68061205E-01 0.89511005E+02</pdfrwt>
<totfact> 0.13514651E+06</totfact>
</mgrwt>
</event>
<event>
 5    1  0.1994521E+000  0.1162000E+03  0.7546771E-02  0.1249501E+00
         21   -1    0    0  503  502  0.00000000000E+00  0.00000000000E+00  0.10682336582E+04  0.10682336582E+04  0.00000000000E+00 0.  1.
         21   -1    0    0  501  503 -0.00000000000E+00 -0.00000000000E+00 -0.20632950964E+02  0.20632950964E+02  0.00000000000E+00 0. -1.
         24    1    1    2    0    0  0.78613136829E+02  0.21776849915E+02  0.43570233953E+03  0.45050860270E+03  0.80419002446E+02 0. -1.
          1    1    1    2  501    0 -0.49735544408E+02 -0.54785340811E+02  0.99043015484E+02  0.12363080871E+03  0.00000000000E+00 0. -1.
         -2    1    1    2    0  502 -0.28877592421E+02  0.33008490896E+02  0.51285535222E+03  0.51472719776E+03  0.00000000000E+00 0.  1.
<mgrwt>
<rscale>  2 0.11620004E+03</rscale>
<asrwt>0</asrwt>
<pdfrwt beam="1">  1       21 0.16434360E+00 0.11620004E+03</pdfrwt>
<pdfrwt beam="2">  1       21 0.31743010E-02 0.11620004E+03</pdfrwt>
<totfact> 0.14007174E+05</totfact>
</mgrwt>
</event>
<event>
 5    1  0.1994521E+000  0.6761002E+02  0.7546771E-02  0.1368414E+00
         21   -1    0    0  501  502  0.00000000000E+00  0.00000000000E+00  0.75846068088E+03  0.75846068088E+03  0.00000000000E+00 0.  1.
         21   -1    0    0  502  503 -0.00000000000E+00 -0.00000000000E+00 -0.89633573499E+01  0.89633573499E+01  0.00000000000E+00 0. -1.
         24    1    1    2    0    0  0.59510797866E+01  0.16172381734E+02  0.62975119205E+03  0.63509900104E+03  0.80419002446E+02 0.  1.
          1    1    1    2  501    0  0.88923554114E+01 -0.30846712139E+02  0.93085360630E+02  0.98465618356E+02  0.00000000000E+00 0. -1.
         -2    1    1    2    0  503 -0.14843435198E+02  0.14674330405E+02  0.26660770848E+02  0.33859418830E+02  0.00000000000E+00 0.  1.
<mgrwt>
<rscale>  2 0.67610017E+02</rscale>
<asrwt>0</asrwt>
<pdfrwt beam="1">  1       21 0.11668621E+00 0.67610017E+02</pdfrwt>
<pdfrwt beam="2">  1       21 0.13789786E-02 0.67610017E+02</pdfrwt>
<totfact> 0.12698260E+06</totfact>
</mgrwt>
</event>
<event>
 5    1  0.1994521E+000  0.1524847E+03  0.7546771E-02  0.1197453E+00
         21   -1    0    0  503  502  0.00000000000E+00  0.00000000000E+00  0.11678795963E+03  0.11678795963E+03  0.00000000000E+00 0.  1.
         21   -1    0    0  501  503 -0.00000000000E+00 -0.00000000000E+00 -0.26975104740E+03  0.26975104740E+03  0.00000000000E+00 0. -1.
         24    1    1    2    0    0  0.42274056592E+02  0.16781934895E+02 -0.92575964894E+02  0.13079088053E+03  0.80419002446E+02 0. -1.
          1    1    1    2  501    0 -0.11230432665E+03 -0.62907802710E+02 -0.10000429334E+03  0.16300463832E+03  0.00000000000E+00 0. -1.
         -2    1    1    2    0  502  0.70030270057E+02  0.46125867815E+02  0.39617170467E+02  0.92743488190E+02  0.00000000000E+00 0.  1.
<mgrwt>
<rscale>  2 0.15248469E+03</rscale>
<asrwt>0</asrwt>
<pdfrwt beam="1">  1       21 0.17967378E-01 0.15248469E+03</pdfrwt>
<pdfrwt beam="2">  1       21 0.41500161E-01 0.15248469E+03</pdfrwt>
<totfact> 0.15951894E+05</totfact>
</mgrwt>
</event>
<event>
 5    1  0.1994521E+000  0.6333199E+02  0.7546771E-02  0.1384358E+00
         21   -1    0    0  501  502  0.00000000000E+00  0.00000000000E+00  0.99796904391E+02  0.99796904391E+02  0.00000000000E+00 0. -1.
         21   -1    0    0  502  503 -0.00000000000E+00 -0.00000000000E+00 -0.45315820989E+02  0.45315820989E+02  0.00000000000E+00 0. -1.
         24    1    1    2    0    0 -0.89189222417E+01  0.67085305892E+00  0.13232789858E+02  0.81989754845E+02  0.80419002446E+02 0. -1.
          1    1    1    2  501    0 -0.10620680764E+02 -0.17160672113E+02  0.27447426511E+02  0.34068295370E+02  0.00000000000E+00 0. -1.
         -2    1    1    2    0  503  0.19539603006E+02  0.16489819055E+02  0.13800867033E+02  0.29054675165E+02  0.00000000000E+00 0.  1.
<mgrwt>
<rscale>  2 0.63331987E+02</rscale>
<asrwt>0</asrwt>
<pdfrwt beam="1">  1       21 0.15353370E-01 0.63331987E+02</pdfrwt>
<pdfrwt beam="2">  1       21 0.69716648E-02 0.63331987E+02</pdfrwt>
<totfact> 0.53702255E+06</totfact>
</mgrwt>
</event>
<event>
 5    1  0.1994521E+000  0.1132949E+03  0.7546771E-02  0.1254587E+00
         21   -1    0    0  501  502  0.00000000000E+00  0.00000000000E+00  0.78903832772E+02  0.78903832772E+02  0.00000000000E+00 0. -1.
         21   -1    0    0  502  503 -0.00000000000E+00 -0.00000000000E+00 -0.35243815490E+03  0.35243815490E+03  0.00000000000E+00 0. -1.
         24    1    1    2    0    0  0.88202697148E+02  0.44395109663E+02 -0.18724843565E+03  0.22645051149E+03  0.80419002446E+02 0. -1.
          1    1    1    2  501    0 -0.28815976211E+02 -0.19795593930E+02  0.46022214470E+02  0.57795071146E+02  0.00000000000E+00 0. -1.
         -2    1    1    2    0  503 -0.59386720937E+02 -0.24599515733E+02 -0.13230810094E+03  0.14709640503E+03  0.00000000000E+00 0.  1.
<mgrwt>
<rscale>  2 0.11329485E+03</rscale>
<asrwt>0</asrwt>
<pdfrwt beam="1">  1       21 0.12139051E-01 0.11329485E+03</pdfrwt>
<pdfrwt beam="2">  1       21 0.54221254E-01 0.11329485E+03</pdfrwt>
<totfact> 0.18911977E+05</totfact>
</mgrwt>
</event>
<event>
 5    1  0.1994521E+000  0.9176661E+02  0.7546771E-02  0.1298629E+00
         21   -1    0    0  501  502  0.00000000000E+00  0.00000000000E+00  0.40611783919E+02  0.40611783919E+02  0.00000000000E+00 0.  1.
         21   -1    0    0  502  503 -0.00000000000E+00 -0.00000000000E+00 -0.41696690471E+03  0.41696690471E+03  0.00000000000E+00 0. -1.
         24    1    1    2    0    0  0.48441602305E+02  0.92845101038E+01 -0.52944256398E+02  0.10818087262E+03  0.80419002446E+02 0.  0.
          1    1    1    2  501    0  0.20126553178E+02 -0.14413341517E+01 -0.15686128750E+01  0.20238975599E+02  0.00000000000E+00 0. -1.
         -2    1    1    2    0  503 -0.68568155482E+02 -0.78431759521E+01 -0.32184225152E+03  0.32915884040E+03  0.00000000000E+00 0.  1.
<mgrwt>
<rscale>  2 0.91766607E+02</rscale>
<asrwt>0</asrwt>
<pdfrwt beam="1">  1       21 0.62479667E-02 0.91766607E+02</pdfrwt>
<pdfrwt beam="2">  1       21 0.64148755E-01 0.91766607E+02</pdfrwt>
<totfact> 0.41920353E+05</totfact>
</mgrwt>
</event>
<event>
 5    1  0.1994521E+000  0.7733975E+02  0.7546771E-02  0.1336775E+00
         21   -1    0    0  501  502  0.00000000000E+00  0.00000000000E+00  0.28362041001E+03  0.28362041001E+03  0.00000000000E+00 0. -1.
         21   -1    0    0  502  503 -0.00000000000E+00 -0.00000000000E+00 -0.16424991336E+03  0.16424991336E+03  0.00000000000E+00 0.  1.
         24    1    1    2    0    0 -0.93290741205E+01  0.22978147112E+02  0.48298758580E+02  0.97030989397E+02  0.80419002446E+02 0. -1.
          1    1    1    2  501    0  0.24140636627E+02 -0.40765198410E+02  0.20730700370E+03  0.21265174704E+03  0.00000000000E+00 0. -1.
         -2    1    1    2    0  503 -0.14811562506E+02  0.17787051298E+02 -0.13623526564E+03  0.13818758693E+03  0.00000000000E+00 0.  1.
<mgrwt>
<rscale>  2 0.77339749E+02</rscale>
<asrwt>0</asrwt>
<pdfrwt beam="1">  1       21 0.43633909E-01 0.77339749E+02</pdfrwt>
<pdfrwt beam="2">  1       21 0.25269217E-01 0.77339749E+02</pdfrwt>
<totfact> 0.79219273E+04</totfact>
</mgrwt>
</event>
<event>
 5    1  0.1994521E+000  0.9557132E+02  0.7546771E-02  0.1289894E+00
         21   -1    0    0  501  502  0.00000000000E+00  0.00000000000E+00  0.28620064405E+02  0.28620064405E+02  0.00000000000E+00 0. -1.
         21   -1    0    0  502  503 -0.00000000000E+00 -0.00000000000E+00 -0.56587896583E+03  0.56587896583E+03  0.00000000000E+00 0.  1.
         24    1    1    2    0    0 -0.55049983030E+02  0.33006783370E+02 -0.84845673107E+02  0.13336398532E+03  0.80419002446E+02 0. -1.
          1    1    1    2  501    0  0.43324855771E+02  0.93301736162E+01 -0.19252607582E+03  0.19756109216E+03  0.00000000000E+00 0. -1.
         -2    1    1    2    0  503  0.11725127259E+02 -0.42336956986E+02 -0.25988715250E+03  0.26357395276E+03  0.00000000000E+00 0.  1.
<mgrwt>
<rscale>  2 0.95571325E+02</rscale>
<asrwt>0</asrwt>
<pdfrwt beam="1">  1       21 0.44030869E-02 0.95571325E+02</pdfrwt>
<pdfrwt beam="2">  1       21 0.87058301E-01 0.95571325E+02</pdfrwt>
<totfact> 0.38560005E+05</totfact>
</mgrwt>
</event>
<event>
 5    1  0.1994521E+000  0.1166652E+03  0.7546771E-02  0.1248702E+00
         21   -1    0    0  501  502  0.00000000000E+00  0.00000000000E+00  0.50418094764E+03  0.50418094764E+03  0.00000000000E+00 0. -1.
         21   -1    0    0  502  503 -0.00000000000E+00 -0.00000000000E+00 -0.87789438396E+02  0.87789438396E+02  0.00000000000E+00 0.  1.
         24    1    1    2    0    0 -0.19015086379E+02 -0.40255612036E+02  0.97589669228E+02  0.13406359426E+03  0.80419002446E+02 0. -1.
          1    1    1    2  501    0 -0.28535328074E+02  0.76482403399E+02  0.37018576560E+03  0.37907957481E+03  0.00000000000E+00 0. -1.
         -2    1    1    2    0  503  0.47550414453E+02 -0.36226791363E+02 -0.51383925589E+02  0.78827216975E+02  0.00000000000E+00 0.  1.
<mgrwt>
<rscale>  2 0.11666522E+03</rscale>
<asrwt>0</asrwt>
<pdfrwt beam="1">  1       21 0.77566298E-01 0.11666522E+03</pdfrwt>
<pdfrwt beam="2">  1       21 0.13506068E-01 0.11666522E+03</pdfrwt>
<totfact> 0.72480337E+04</totfact>
</mgrwt>
</event>
<event>
 5    1  0.1994521E+000  0.1274445E+03  0.7546771E-02  0.1231298E+00
         21   -1    0    0  501  502  0.00000000000E+00  0.00000000000E+00  0.21613696956E+02  0.21613696956E+02  0.00000000000E+00 0. -1.
         21   -1    0    0  502  503 -0.00000000000E+00 -0.00000000000E+00 -0.18615940698E+04  0.18615940698E+04  0.00000000000E+00 0.  1.
         24    1    1    2    0    0 -0.10941731875E+03 -0.25366845142E+02 -0.42629628897E+03  0.44811981480E+03  0.80419002446E+02 0.  1.
          1    1    1    2  501    0  0.25273661079E+02  0.20362731593E+02 -0.18497067362E+02  0.37356930860E+02  0.00000000000E+00 0. -1.
         -2    1    1    2    0  503  0.84143657673E+02  0.50041135487E+01 -0.13951870165E+04  0.13977310211E+04  0.00000000000E+00 0.  1.
<mgrwt>
<rscale>  2 0.12744455E+03</rscale>
<asrwt>0</asrwt>
<pdfrwt beam="1">  1       21 0.33251843E-02 0.12744455E+03</pdfrwt>
<pdfrwt beam="2">  1       21 0.28639908E+00 0.12744455E+03</pdfrwt>
<totfact> 0.23427281E+04</totfact>
</mgrwt>
</event>
<event>
 5    1  0.1994521E+000  0.9034703E+02  0.7546771E-02  0.1302013E+00
         21   -1    0    0  503  502  0.00000000000E+00  0.00000000000E+00  0.25761862561E+03  0.25761862561E+03  0.00000000000E+00 0. -1.
         21   -1    0    0  501  503 -0.00000000000E+00 -0.00000000000E+00 -0.69370609548E+02  0.69370609548E+02  0.00000000000E+00 0. -1.
         24    1    1    2    0    0 -0.20053546270E+02 -0.13592177064E+02  0.12813015818E+03  0.15320393397E+03  0.80419002446E+02 0. -1.
          1    1    1    2  501    0  0.51486186336E+02  0.31668132625E+02 -0.36483740496E+02  0.70602842209E+02  0.00000000000E+00 0. -1.
         -2    1    1    2    0  502 -0.31432640066E+02 -0.18075955561E+02  0.96601598375E+02  0.10318245897E+03  0.00000000000E+00 0.  1.
<mgrwt>
<rscale>  2 0.90347030E+02</rscale>
<asrwt>0</asrwt>
<pdfrwt beam="1">  1       21 0.39633634E-01 0.90347030E+02</pdfrwt>
<pdfrwt beam="2">  1       21 0.10672402E-01 0.90347030E+02</pdfrwt>
<totfact> 0.44944331E+05</totfact>
</mgrwt>
</event>
<event>
 5    1  0.1994521E+000  0.7707463E+02  0.7546771E-02  0.1337564E+00
         21   -1    0    0  501  502  0.00000000000E+00  0.00000000000E+00  0.10902241203E+04  0.10902241203E+04  0.00000000000E+00 0. -1.
         21   -1    0    0  502  503 -0.00000000000E+00 -0.00000000000E+00 -0.51598080755E+02  0.51598080755E+02  0.00000000000E+00 0. -1.
         24    1    1    2    0    0 -0.76497367018E+01 -0.53829723483E+02  0.68402090110E+01  0.97314757440E+02  0.80419002446E+02 0. -1.
          1    1    1    2  501    0  0.11210244397E+02  0.18974751406E+02  0.98882771862E+03  0.98907328742E+03  0.00000000000E+00 0. -1.
         -2    1    1    2    0  503 -0.35605076953E+01  0.34854972077E+02  0.42958111886E+02  0.55434156171E+02  0.00000000000E+00 0.  1.
<mgrwt>
<rscale>  2 0.77074633E+02</rscale>
<asrwt>0</asrwt>
<pdfrwt beam="1">  1       21 0.16772677E+00 0.77074633E+02</pdfrwt>
<pdfrwt beam="2">  1       21 0.79381671E-02 0.77074633E+02</pdfrwt>
<totfact> 0.29787725E+04</totfact>
</mgrwt>
</event>
<event>
 5    1  0.1994521E+000  0.1170170E+03  0.7546771E-02  0.1248101E+00
         21   -1    0    0  503  502  0.00000000000E+00  0.00000000000E+00  0.81222730485E+02  0.81222730485E+02  0.00000000000E+00 0. -1.
         21   -1    0    0  501  503 -0.00000000000E+00 -0.00000000000E+00 -0.67106140734E+03  0.67106140734E+03  0.00000000000E+00 0.  1.
         24    1    1    2    0    0 -0.92212158616E+02  0.41661277566E+02  0.21899769319E+02  0.13109370731E+03  0.80419002446E+02 0. -1.
          1    1    1    2  501    0  0.26369511120E+02 -0.26150469717E+02 -0.29363191133E+03  0.29597110929E+03  0.00000000000E+00 0. -1.
         -2    1    1    2    0  502  0.65842647496E+02 -0.15510807849E+02 -0.31810653484E+03  0.32521932123E+03  0.00000000000E+00 0.  1.
<mgrwt>
<rscale>  2 0.11701702E+03</rscale>
<asrwt>0</asrwt>
<pdfrwt beam="1">  1       21 0.12495805E-01 0.11701702E+03</pdfrwt>
<pdfrwt beam="2">  1       21 0.10324022E+00 0.11701702E+03</pdfrwt>
<totfact> 0.43365875E+04</totfact>
</mgrwt>
</event>
<event>
 5    1  0.1994521E+000  0.8664640E+02  0.7546771E-02  0.1311182E+00
         21   -1    0    0  503  502  0.00000000000E+00  0.00000000000E+00  0.12815891799E+03  0.12815891799E+03  0.00000000000E+00 0. -1.
         21   -1    0    0  501  503 -0.00000000000E+00 -0.00000000000E+00 -0.16361128563E+03  0.16361128563E+03  0.00000000000E+00 0. -1.
         24    1    1    2    0    0 -0.39599578086E+02  0.49287931451E+02  0.86398074029E+02  0.13390022375E+03  0.80419002446E+02 0. -1.
          1    1    1    2  501    0  0.40561217243E+02 -0.27086852127E+02 -0.12613693096E+03  0.13523843853E+03  0.00000000000E+00 0. -1.
         -2    1    1    2    0  502 -0.96163915662E+00 -0.22201079324E+02  0.42864892916E+01  0.22631541341E+02  0.00000000000E+00 0.  1.
<mgrwt>
<rscale>  2 0.86646401E+02</rscale>
<asrwt>0</asrwt>
<pdfrwt beam="1">  1       21 0.19716757E-01 0.86646401E+02</pdfrwt>
<pdfrwt beam="2">  1       21 0.25170967E-01 0.86646401E+02</pdfrwt>
<totfact> 0.36043276E+05</totfact>
</mgrwt>
</event>
<event>
 5    1  0.1994521E+000  0.9661916E+02  0.7546771E-02  0.1287570E+00
         21   -1    0    0  503  502  0.00000000000E+00  0.00000000000E+00  0.14869312135E+02  0.14869312135E+02  0.00000000000E+00 0.  1.
         21   -1    0    0  501  503 -0.00000000000E+00 -0.00000000000E+00 -0.75207343499E+03  0.75207343499E+03  0.00000000000E+00 0.  1.
         24    1    1    2    0    0  0.79283404453E+01 -0.57812135762E+02 -0.43367307013E+03  0.44490970919E+03  0.80419002446E+02 0.  1.
          1    1    1    2  501    0 -0.37748181677E+02  0.50723207273E+02 -0.26681709588E+03  0.27420636687E+03  0.00000000000E+00 0. -1.
         -2    1    1    2    0  502  0.29819841231E+02  0.70889284889E+01 -0.36713956846E+02  0.47826671068E+02  0.00000000000E+00 0.  1.
<mgrwt>
<rscale>  2 0.96619160E+02</rscale>
<asrwt>0</asrwt>
<pdfrwt beam="1">  1       21 0.22875862E-02 0.96619160E+02</pdfrwt>
<pdfrwt beam="2">  1       21 0.11570362E+00 0.96619160E+02</pdfrwt>
<totfact> 0.58049875E+05</totfact>
</mgrwt>
</event>
<event>
 5    1  0.1994521E+000  0.7159377E+02  0.7546771E-02  0.1354756E+00
         21   -1    0    0  501  502  0.00000000000E+00  0.00000000000E+00  0.14098309433E+04  0.14098309433E+04  0.00000000000E+00 0.  1.
         21   -1    0    0  502  503 -0.00000000000E+00 -0.00000000000E+00 -0.78200411752E+01  0.78200411752E+01  0.00000000000E+00 0. -1.
         24    1    1    2    0    0 -0.30859021985E+02 -0.34552856598E+02  0.11473678507E+04  0.11511152765E+04  0.80419002446E+02 0.  1.
          1    1    1    2  501    0  0.11346675027E+02  0.27297091291E+02  0.23814638830E+03  0.23997412463E+03  0.00000000000E+00 0. -1.
         -2    1    1    2    0  503  0.19512346958E+02  0.72557653072E+01  0.16496663160E+02  0.26561583338E+02  0.00000000000E+00 0.  1.
<mgrwt>
<rscale>  2 0.71593769E+02</rscale>
<asrwt>0</asrwt>
<pdfrwt beam="1">  1       21 0.21689687E+00 0.71593769E+02</pdfrwt>
<pdfrwt beam="2">  1       21 0.12030844E-02 0.71593769E+02</pdfrwt>
<totfact> 0.31566303E+05</totfact>
</mgrwt>
</event>
<event>
 5    1  0.1994521E+000  0.7523591E+02  0.7546771E-02  0.1343142E+00
         21   -1    0    0  501  502  0.00000000000E+00  0.00000000000E+00  0.71133027561E+02  0.71133027561E+02  0.00000000000E+00 0.  1.
         21   -1    0    0  502  503 -0.00000000000E+00 -0.00000000000E+00 -0.82170072366E+02  0.82170072366E+02  0.00000000000E+00 0.  1.
         24    1    1    2    0    0 -0.23562120764E+02 -0.24776104172E+02  0.13986328294E+01  0.87396802007E+02  0.80419002446E+02 0.  1.
          1    1    1    2  501    0  0.12051436803E+02  0.41258373482E+02 -0.14727291463E+01  0.43007667253E+02  0.00000000000E+00 0. -1.
         -2    1    1    2    0  503  0.11510683961E+02 -0.16482269311E+02 -0.10962948488E+02  0.22898630667E+02  0.00000000000E+00 0.  1.
<mgrwt>
<rscale>  2 0.75235906E+02</rscale>
<asrwt>0</asrwt>
<pdfrwt beam="1">  1       21 0.10943543E-01 0.75235906E+02</pdfrwt>
<pdfrwt beam="2">  1       21 0.12641550E-01 0.75235906E+02</pdfrwt>
<totfact> 0.35509728E+06</totfact>
</mgrwt>
</event>
<event>
 5    1  0.1994521E+000  0.6319165E+02  0.7546771E-02  0.1384906E+00
         21   -1    0    0  503  502  0.00000000000E+00  0.00000000000E+00  0.38633880646E+02  0.38633880646E+02  0.00000000000E+00 0. -1.
         21   -1    0    0  501  503 -0.00000000000E+00 -0.00000000000E+00 -0.47535544498E+03  0.47535544498E+03  0.00000000000E+00 0. -1.
         24    1    1    2    0    0  0.84681530565E+00  0.72516867794E+01 -0.50848144222E+02  0.95425645308E+02  0.80419002446E+02 0. -1.
          1    1    1    2  501    0  0.18879843847E+02  0.81921302847E+01 -0.39218761556E+03  0.39272724033E+03  0.00000000000E+00 0. -1.
         -2    1    1    2    0  502 -0.19726659153E+02 -0.15443817064E+02  0.63141954484E+01  0.25836439983E+02  0.00000000000E+00 0.  1.
<mgrwt>
<rscale>  2 0.63191647E+02</rscale>
<asrwt>0</asrwt>
<pdfrwt beam="1">  1       21 0.59436740E-02 0.63191647E+02</pdfrwt>
<pdfrwt beam="2">  1       21 0.73131606E-01 0.63191647E+02</pdfrwt>
<totfact> 0.34533389E+05</totfact>
</mgrwt>
</event>
<event>
 5    1  0.1994521E+000  0.8185425E+02  0.7546771E-02  0.1323870E+00
         21   -1    0    0  503  502  0.00000000000E+00  0.00000000000E+00  0.63730801212E+03  0.63730801212E+03  0.00000000000E+00 0. -1.
         21   -1    0    0  501  503 -0.00000000000E+00 -0.00000000000E+00 -0.11956138494E+02  0.11956138494E+02  0.00000000000E+00 0. -1.
         24    1    1    2    0    0 -0.50181384566E+02 -0.19345512970E+02  0.25637065607E+03  0.27401742550E+03  0.80419002446E+02 0. -1.
          1    1    1    2  501    0  0.44928349375E+02 -0.20079415337E+01  0.27998678860E+03  0.28357572216E+03  0.00000000000E+00 0. -1.
         -2    1    1    2    0  502  0.52530351908E+01  0.21353454503E+02  0.88994428959E+02  0.91671002960E+02  0.00000000000E+00 0.  1.
<mgrwt>
<rscale>  2 0.81854253E+02</rscale>
<asrwt>0</asrwt>
<pdfrwt beam="1">  1       21 0.98047360E-01 0.81854253E+02</pdfrwt>
<pdfrwt beam="2">  1       21 0.18394064E-02 0.81854253E+02</pdfrwt>
<totfact> 0.12126490E+06</totfact>
</mgrwt>
</event>
<event>
 5    1  0.1994521E+000  0.7364010E+02  0.7546771E-02  0.1348135E+00
         21   -1    0    0  501  502  0.00000000000E+00  0.00000000000E+00  0.37698080627E+03  0.37698080627E+03  0.00000000000E+00 0. -1.
         21   -1    0    0  502  503 -0.00000000000E+00 -0.00000000000E+00 -0.48887840114E+02  0.48887840114E+02  0.00000000000E+00 0.  1.
         24    1    1    2    0    0  0.67663266019E+01  0.32709266868E+02  0.27357305869E+03  0.28709774243E+03  0.80419002446E+02 0. -1.
          1    1    1    2  501    0 -0.28131488135E+02 -0.24526055624E+02  0.89501926851E+02  0.96971660495E+02  0.00000000000E+00 0. -1.
         -2    1    1    2    0  503  0.21365161533E+02 -0.81832112445E+01 -0.34982019383E+02  0.41799243458E+02  0.00000000000E+00 0.  1.
<mgrwt>
<rscale>  2 0.73640104E+02</rscale>
<asrwt>0</asrwt>
<pdfrwt beam="1">  1       21 0.57997045E-01 0.73640104E+02</pdfrwt>
<pdfrwt beam="2">  1       21 0.75212064E-02 0.73640104E+02</pdfrwt>
<totfact> 0.37940856E+05</totfact>
</mgrwt>
</event>
<event>
 5    1  0.1994521E+000  0.1286173E+03  0.7546771E-02  0.1229522E+00
         21   -1    0    0  501  502  0.00000000000E+00  0.00000000000E+00  0.18583172273E+02  0.18583172273E+02  0.00000000000E+00 0. -1.
         21   -1    0    0  502  503 -0.00000000000E+00 -0.00000000000E+00 -0.11606017830E+04  0.11606017830E+04  0.00000000000E+00 0. -1.
         24    1    1    2    0    0  0.78872301884E+02 -0.17221824850E+01 -0.33746651767E+03  0.35577334417E+03  0.80419002446E+02 0. -1.
          1    1    1    2  501    0 -0.79367843087E+02  0.51621408019E+02 -0.26222962688E+03  0.27879813754E+03  0.00000000000E+00 0. -1.
         -2    1    1    2    0  503  0.49554120275E+00 -0.49899225534E+02 -0.54232246617E+03  0.54461347356E+03  0.00000000000E+00 0.  1.
<mgrwt>
<rscale>  2 0.12861733E+03</rscale>
<asrwt>0</asrwt>
<pdfrwt beam="1">  1       21 0.28589498E-02 0.12861733E+03</pdfrwt>
<pdfrwt beam="2">  1       21 0.17855411E+00 0.12861733E+03</pdfrwt>
<totfact> 0.13189414E+05</totfact>
</mgrwt>
</event>
<event>
 5    1  0.1994521E+000  0.6494867E+02  0.7546771E-02  0.1378165E+00
         21   -1    0    0  503  502  0.00000000000E+00  0.00000000000E+00  0.47517883549E+01  0.47517883549E+01  0.00000000000E+00 0.  1.
         21   -1    0    0  501  503 -0.00000000000E+00 -0.00000000000E+00 -0.96483365262E+03  0.96483365262E+03  0.00000000000E+00 0. -1.
         24    1    1    2    0    0 -0.20567466799E+02  0.39222047434E+01 -0.59952394560E+03  0.60525579856E+03  0.80419002446E+02 0. -1.
          1    1    1    2  501    0  0.13653800514E+02  0.18693203152E+02 -0.25999609980E+03  0.26102458510E+03  0.00000000000E+00 0. -1.
         -2    1    1    2    0  502  0.69136662852E+01 -0.22615407896E+02 -0.10056181886E+03  0.10330505732E+03  0.00000000000E+00 0.  1.
<mgrwt>
<rscale>  2 0.64948670E+02</rscale>
<asrwt>0</asrwt>
<pdfrwt beam="1">  1       21 0.73104438E-03 0.64948670E+02</pdfrwt>
<pdfrwt beam="2">  1       21 0.14843594E+00 0.64948670E+02</pdfrwt>
<totfact> 0.18913064E+06</totfact>
</mgrwt>
</event>
<event>
 5    1  0.1994521E+000  0.6390720E+02  0.7546771E-02  0.1382130E+00
         21   -1    0    0  501  502  0.00000000000E+00  0.00000000000E+00  0.70273449876E+03  0.70273449876E+03  0.00000000000E+00 0. -1.
         21   -1    0    0  502  503 -0.00000000000E+00 -0.00000000000E+00 -0.62035563588E+01  0.62035563588E+01  0.00000000000E+00 0.  1.
         24    1    1    2    0    0 -0.11230971370E+02  0.10118162840E+02  0.41128791242E+03  0.41934887003E+03  0.80419002446E+02 0. -1.
          1    1    1    2  501    0 -0.74778689647E+01 -0.22394494247E+02  0.20257176625E+03  0.20394301257E+03  0.00000000000E+00 0. -1.
         -2    1    1    2    0  503  0.18708840335E+02  0.12276331407E+02  0.82671263741E+02  0.85646172524E+02  0.00000000000E+00 0.  1.
<mgrwt>
<rscale>  2 0.63907199E+02</rscale>
<asrwt>0</asrwt>
<pdfrwt beam="1">  1       21 0.10811294E+00 0.63907199E+02</pdfrwt>
<pdfrwt beam="2">  1       21 0.95439384E-03 0.63907199E+02</pdfrwt>
<totfact> 0.26873751E+06</totfact>
</mgrwt>
</event>
<event>
 5    1  0.1994521E+000  0.8041594E+02  0.7546771E-02  0.1327875E+00
         21   -1    0    0  501  502  0.00000000000E+00  0.00000000000E+00  0.53248592250E+02  0.53248592250E+02  0.00000000000E+00 0.  1.
         21   -1    0    0  502  503 -0.00000000000E+00 -0.00000000000E+00 -0.14905545850E+03  0.14905545850E+03  0.00000000000E+00 0. -1.
         24    1    1    2    0    0 -0.25738481886E+02  0.47206222845E+02 -0.51749519502E+02  0.10970927786E+03  0.80419002446E+02 0.  1.
          1    1    1    2  501    0 -0.72384359758E+01 -0.20241227892E+02  0.10051125947E+02  0.23730305408E+02  0.00000000000E+00 0. -1.
         -2    1    1    2    0  503  0.32976917862E+02 -0.26964994953E+02 -0.54108472698E+02  0.68864467487E+02  0.00000000000E+00 0.  1.
<mgrwt>
<rscale>  2 0.80415943E+02</rscale>
<asrwt>0</asrwt>
<pdfrwt beam="1">  1       21 0.81920911E-02 0.80415943E+02</pdfrwt>
<pdfrwt beam="2">  1       21 0.22931609E-01 0.80415943E+02</pdfrwt>
<totfact> 0.20095092E+06</totfact>
</mgrwt>
</event>
<event>
 5    1  0.1994521E+000  0.8043184E+02  0.7546771E-02  0.1327830E+00
         21   -1    0    0  501  502  0.00000000000E+00  0.00000000000E+00  0.38463490439E+03  0.38463490439E+03  0.00000000000E+00 0. -1.
         21   -1    0    0  502  503 -0.00000000000E+00 -0.00000000000E+00 -0.44263956268E+02  0.44263956268E+02  0.00000000000E+00 0.  1.
         24    1    1    2    0    0  0.37577919417E+02  0.24171903775E+02  0.15139954239E+03  0.17715930219E+03  0.80419002446E+02 0.  1.
          1    1    1    2  501    0 -0.11793485982E+02  0.16757691693E+02  0.20087885812E+03  0.20192132672E+03  0.00000000000E+00 0. -1.
         -2    1    1    2    0  503 -0.25784433435E+02 -0.40929595468E+02 -0.11907452392E+02  0.49818231756E+02  0.00000000000E+00 0.  1.
<mgrwt>
<rscale>  2 0.80431844E+02</rscale>
<asrwt>0</asrwt>
<pdfrwt beam="1">  1       21 0.59174598E-01 0.80431844E+02</pdfrwt>
<pdfrwt beam="2">  1       21 0.68098397E-02 0.80431844E+02</pdfrwt>
<totfact> 0.43015185E+05</totfact>
</mgrwt>
</event>
<event>
 5    1  0.1994521E+000  0.8900744E+02  0.7546771E-02  0.1305273E+00
         21   -1    0    0  503  502  0.00000000000E+00  0.00000000000E+00  0.16708228659E+03  0.16708228659E+03  0.00000000000E+00 0.  1.
         21   -1    0    0  501  503 -0.00000000000E+00 -0.00000000000E+00 -0.63967265093E+02  0.63967265093E+02  0.00000000000E+00 0.  1.
         24    1    1    2    0    0  0.25546979189E+02 -0.65703397010E+02  0.40142121056E+02  0.11422867574E+03  0.80419002446E+02 0.  1.
          1    1    1    2  501    0 -0.11649117371E+02  0.18473703662E+02 -0.13642767050E+02  0.25750820478E+02  0.00000000000E+00 0. -1.
         -2    1    1    2    0  502 -0.13897861817E+02  0.47229693348E+02  0.76615667487E+02  0.91070055459E+02  0.00000000000E+00 0.  1.
<mgrwt>
<rscale>  2 0.89007445E+02</rscale>
<asrwt>0</asrwt>
<pdfrwt beam="1">  1       21 0.25704967E-01 0.89007445E+02</pdfrwt>
<pdfrwt beam="2">  1       21 0.98411178E-02 0.89007445E+02</pdfrwt>
<totfact> 0.11898602E+06</totfact>
</mgrwt>
</event>
<event>
 5    1  0.1994521E+000  0.1484689E+03  0.7546771E-02  0.1202367E+00
         21   -1    0    0  503  502  0.00000000000E+00  0.00000000000E+00  0.71027131372E+02  0.71027131372E+02  0.00000000000E+00 0. -1.
         21   -1    0    0  501  503 -0.00000000000E+00 -0.00000000000E+00 -0.40091327593E+03  0.40091327593E+03  0.00000000000E+00 0. -1.
         24    1    1    2    0    0 -0.55244079083E+02 -0.12062607264E+03 -0.89010197366E+02  0.17886472224E+03  0.80419002446E+02 0. -1.
          1    1    1    2  501    0  0.29714495810E+02  0.11033769541E+03 -0.23967925786E+03  0.26552496105E+03  0.00000000000E+00 0. -1.
         -2    1    1    2    0  502  0.25529583274E+02  0.10288377226E+02 -0.11966893279E+01  0.27550724009E+02  0.00000000000E+00 0.  1.
<mgrwt>
<rscale>  2 0.14846894E+03</rscale>
<asrwt>0</asrwt>
<pdfrwt beam="1">  1       21 0.10927251E-01 0.14846894E+03</pdfrwt>
<pdfrwt beam="2">  1       21 0.61678964E-01 0.14846894E+03</pdfrwt>
<totfact> 0.17169501E+05</totfact>
</mgrwt>
</event>
<event>
 5    1  0.1994521E+000  0.7633248E+02  0.7546771E-02  0.1339794E+00
         21   -1    0    0  501  502  0.00000000000E+00  0.00000000000E+00  0.23332328032E+03  0.23332328032E+03  0.00000000000E+00 0. -1.
         21   -1    0    0  502  503 -0.00000000000E+00 -0.00000000000E+00 -0.42907571179E+02  0.42907571179E+02  0.00000000000E+00 0.  1.
         24    1    1    2    0    0 -0.26052483694E+02  0.36200094114E+01  0.12851065199E+03  0.15386370593E+03  0.80419002446E+02 0. -1.
          1    1    1    2  501    0  0.89958083758E+01  0.29477566333E+02  0.76422492564E+02  0.82402966300E+02  0.00000000000E+00 0. -1.
         -2    1    1    2    0  503  0.17056675318E+02 -0.33097575744E+02 -0.14517435415E+02  0.39964179262E+02  0.00000000000E+00 0.  1.
<mgrwt>
<rscale>  2 0.76332482E+02</rscale>
<asrwt>0</asrwt>
<pdfrwt beam="1">  1       21 0.35895889E-01 0.76332482E+02</pdfrwt>
<pdfrwt beam="2">  1       21 0.66011649E-02 0.76332482E+02</pdfrwt>
<totfact> 0.12379810E+06</totfact>
</mgrwt>
</event>
<event>
 5    1  0.1994521E+000  0.7943013E+02  0.7546771E-02  0.1330676E+00
         21   -1    0    0  503  502  0.00000000000E+00  0.00000000000E+00  0.40201008734E+02  0.40201008734E+02  0.00000000000E+00 0. -1.
         21   -1    0    0  501  503 -0.00000000000E+00 -0.00000000000E+00 -0.20895108298E+03  0.20895108298E+03  0.00000000000E+00 0.  1.
         24    1    1    2    0    0 -0.14471667453E+02  0.51881184410E+02 -0.75726506500E+02  0.12289347499E+03  0.80419002446E+02 0. -1.
          1    1    1    2  501    0 -0.97026297084E+01 -0.18007275803E+02 -0.80118188822E+02  0.82688132070E+02  0.00000000000E+00 0. -1.
         -2    1    1    2    0  502  0.24174297162E+02 -0.33873908607E+02 -0.12905378924E+02  0.43570484652E+02  0.00000000000E+00 0.  1.
<mgrwt>
<rscale>  2 0.79430127E+02</rscale>
<asrwt>0</asrwt>
<pdfrwt beam="1">  1       21 0.61847707E-02 0.79430127E+02</pdfrwt>
<pdfrwt beam="2">  1       21 0.32146320E-01 0.79430127E+02</pdfrwt>
<totfact> 0.17108767E+06</totfact>
</mgrwt>
</event>
<event>
 5    1  0.1994521E+000  0.1367506E+03  0.7546771E-02  0.1217769E+00
         21   -1    0    0  501  502  0.00000000000E+00  0.00000000000E+00  0.59318050040E+02  0.59318050040E+02  0.00000000000E+00 0. -1.
         21   -1    0    0  502  503 -0.00000000000E+00 -0.00000000000E+00 -0.34092175525E+03  0.34092175525E+03  0.00000000000E+00 0. -1.
         24    1    1    2    0    0  0.11936121533E+03 -0.26296574876E+02 -0.19933425963E+03  0.24726498456E+03  0.80419002446E+02 0. -1.
          1    1    1    2  501    0 -0.61134676312E+02 -0.45453590697E+01 -0.27052760973E+02  0.67007169863E+02  0.00000000000E+00 0. -1.
         -2    1    1    2    0  503 -0.58226539020E+02  0.30841933946E+02 -0.55216684614E+02  0.85967650867E+02  0.00000000000E+00 0.  1.
<mgrwt>
<rscale>  2 0.13675060E+03</rscale>
<asrwt>0</asrwt>
<pdfrwt beam="1">  1       21 0.91258538E-02 0.13675060E+03</pdfrwt>
<pdfrwt beam="2">  1       21 0.52449501E-01 0.13675060E+03</pdfrwt>
<totfact> 0.33245960E+05</totfact>
</mgrwt>
</event>
<event>
 5    1  0.1994521E+000  0.1161428E+03  0.7546771E-02  0.1249599E+00
         21   -1    0    0  503  502  0.00000000000E+00  0.00000000000E+00  0.32148513289E+02  0.32148513289E+02  0.00000000000E+00 0.  1.
         21   -1    0    0  501  503 -0.00000000000E+00 -0.00000000000E+00 -0.18472458461E+04  0.18472458461E+04  0.00000000000E+00 0. -1.
         24    1    1    2    0    0 -0.79332327653E+02 -0.64304990686E+02 -0.12060401525E+03  0.17731693232E+03  0.80419002446E+02 0.  1.
          1    1    1    2  501    0  0.37626468166E+02  0.26615986773E+02 -0.14676354135E+04  0.14683589033E+04  0.00000000000E+00 0. -1.
         -2    1    1    2    0  502  0.41705859487E+02  0.37689003913E+02 -0.22685790407E+03  0.23371852381E+03  0.00000000000E+00 0.  1.
<mgrwt>
<rscale>  2 0.11614278E+03</rscale>
<asrwt>0</asrwt>
<pdfrwt beam="1">  1       21 0.49459263E-02 0.11614278E+03</pdfrwt>
<pdfrwt beam="2">  1       21 0.28419160E+00 0.11614278E+03</pdfrwt>
<totfact> 0.12674478E+04</totfact>
</mgrwt>
</event>
<event>
 5    1  0.1994521E+000  0.9695368E+02  0.7546771E-02  0.1286836E+00
         21   -1    0    0  501  502  0.00000000000E+00  0.00000000000E+00  0.34829009559E+02  0.34829009559E+02  0.00000000000E+00 0.  1.
         21   -1    0    0  502  503 -0.00000000000E+00 -0.00000000000E+00 -0.50352068581E+03  0.50352068581E+03  0.00000000000E+00 0. -1.
         24    1    1    2    0    0 -0.56430033466E+02  0.32487025841E+02 -0.80786298935E+02  0.13127603580E+03  0.80419002446E+02 0.  1.
          1    1    1    2  501    0  0.39089400493E+02 -0.51529365630E+02 -0.10727864215E+03  0.12526756889E+03  0.00000000000E+00 0. -1.
         -2    1    1    2    0  503  0.17340632973E+02  0.19042339789E+02 -0.28062673517E+03  0.28180609069E+03  0.00000000000E+00 0.  1.
<mgrwt>
<rscale>  2 0.96953685E+02</rscale>
<asrwt>0</asrwt>
<pdfrwt beam="1">  1       21 0.53583093E-02 0.96953685E+02</pdfrwt>
<pdfrwt beam="2">  1       21 0.77464719E-01 0.96953685E+02</pdfrwt>
<totfact> 0.36049650E+05</totfact>
</mgrwt>
</event>
<event>
 5    1  0.1994521E+000  0.6933850E+02  0.7546771E-02  0.1362357E+00
         21   -1    0    0  501  502  0.00000000000E+00  0.00000000000E+00  0.15233203917E+02  0.15233203917E+02  0.00000000000E+00 0.  1.
         21   -1    0    0  502  503 -0.00000000000E+00 -0.00000000000E+00 -0.99493893101E+03  0.99493893101E+03  0.00000000000E+00 0. -1.
         24    1    1    2    0    0  0.98894527785E+01  0.23637065475E+02 -0.30241367003E+03  0.31397094757E+03  0.80419002446E+02 0.  0.
          1    1    1    2  501    0 -0.24782140848E+02  0.17479246604E+01 -0.77669269054E+01  0.26029500556E+02  0.00000000000E+00 0. -1.
         -2    1    1    2    0  503  0.14892688070E+02 -0.25384990136E+02 -0.66952513015E+03  0.67017168680E+03  0.00000000000E+00 0.  1.
<mgrwt>
<rscale>  2 0.69338495E+02</rscale>
<asrwt>0</asrwt>
<pdfrwt beam="1">  1       21 0.23435685E-02 0.69338495E+02</pdfrwt>
<pdfrwt beam="2">  1       21 0.15306762E+00 0.69338495E+02</pdfrwt>
<totfact> 0.28254853E+05</totfact>
</mgrwt>
</event>
<event>
 5    1  0.1994521E+000  0.9401400E+02  0.7546771E-02  0.1293412E+00
         21   -1    0    0  501  502  0.00000000000E+00  0.00000000000E+00  0.25946659233E+03  0.25946659233E+03  0.00000000000E+00 0. -1.
         21   -1    0    0  502  503 -0.00000000000E+00 -0.00000000000E+00 -0.43479491289E+03  0.43479491289E+03  0.00000000000E+00 0.  1.
         24    1    1    2    0    0  0.55276318287E+02  0.22854181248E+02 -0.36775115541E+02  0.10675865324E+03  0.80419002446E+02 0.  0.
          1    1    1    2  501    0 -0.17806773248E+02  0.22679524193E+02  0.22113799726E+03  0.22300999041E+03  0.00000000000E+00 0. -1.
         -2    1    1    2    0  503 -0.37469545040E+02 -0.45533705441E+02 -0.35969120228E+03  0.36449286157E+03  0.00000000000E+00 0.  1.
<mgrwt>
<rscale>  2 0.94013999E+02</rscale>
<asrwt>0</asrwt>
<pdfrwt beam="1">  1       21 0.39917938E-01 0.94013999E+02</pdfrwt>
<pdfrwt beam="2">  1       21 0.66891525E-01 0.94013999E+02</pdfrwt>
<totfact> 0.13420161E+04</totfact>
</mgrwt>
</event>
<event>
 5    1  0.1994521E+000  0.7515439E+02  0.7546771E-02  0.1343394E+00
         21   -1    0    0  501  502  0.00000000000E+00  0.00000000000E+00  0.28979376092E+03  0.28979376092E+03  0.00000000000E+00 0. -1.
         21   -1    0    0  502  503 -0.00000000000E+00 -0.00000000000E+00 -0.54312327916E+02  0.54312327916E+02  0.00000000000E+00 0.  1.
         24    1    1    2    0    0  0.13135584155E+02 -0.51826018088E+02  0.16034285989E+03  0.18717779888E+03  0.80419002446E+02 0.  0.
          1    1    1    2  501    0 -0.55097927528E+01  0.32487038033E+02  0.11082977273E+03  0.11562440910E+03  0.00000000000E+00 0. -1.
         -2    1    1    2    0  503 -0.76257914023E+01  0.19338980055E+02 -0.35691199613E+02  0.41303880858E+02  0.00000000000E+00 0.  1.
<mgrwt>
<rscale>  2 0.75154393E+02</rscale>
<asrwt>0</asrwt>
<pdfrwt beam="1">  1       21 0.44583655E-01 0.75154393E+02</pdfrwt>
<pdfrwt beam="2">  1       21 0.83557429E-02 0.75154393E+02</pdfrwt>
<totfact> 0.54207413E+05</totfact>
</mgrwt>
</event>
<event>
 5    1  0.1994521E+000  0.2995095E+03  0.7546771E-02  0.1085486E+00
         21   -1    0    0  503  502  0.00000000000E+00  0.00000000000E+00  0.81243898659E+02  0.81243898659E+02  0.00000000000E+00 0.  1.
         21   -1    0    0  501  503 -0.00000000000E+00 -0.00000000000E+00 -0.11172989508E+04  0.11172989508E+04  0.00000000000E+00 0.  1.
         24    1    1    2    0    0 -0.16758862940E+03  0.22128697280E+03 -0.54872122830E+03  0.62017422986E+03  0.80419002446E+02 0.  1.
          1    1    1    2  501    0  0.84527760521E+02 -0.12666702895E+02 -0.16035710963E+03  0.18171348401E+03  0.00000000000E+00 0. -1.
         -2    1    1    2    0  502  0.83060868876E+02 -0.20862026991E+03 -0.32697671417E+03  0.39665513556E+03  0.00000000000E+00 0.  1.
<mgrwt>
<rscale>  2 0.29950955E+03</rscale>
<asrwt>0</asrwt>
<pdfrwt beam="1">  1       21 0.12499063E-01 0.29950955E+03</pdfrwt>
<pdfrwt beam="2">  1       21 0.17189213E+00 0.29950955E+03</pdfrwt>
<totfact> 0.10545018E+04</totfact>
</mgrwt>
</event>
<event>
 5    1  0.1994521E+000  0.8934517E+02  0.7546771E-02  0.1304445E+00
         21   -1    0    0  501  502  0.00000000000E+00  0.00000000000E+00  0.16139116206E+04  0.16139116206E+04  0.00000000000E+00 0.  1.
         21   -1    0    0  502  503 -0.00000000000E+00 -0.00000000000E+00 -0.61247052124E+01  0.61247052124E+01  0.00000000000E+00 0.  1.
         24    1    1    2    0    0  0.15990916746E+02  0.57559639917E+02  0.10930629587E+04  0.10976441450E+04  0.80419002446E+02 0.  1.
          1    1    1    2  501    0  0.50108176303E+01 -0.57288092844E+02  0.46313312272E+03  0.46668975052E+03  0.00000000000E+00 0. -1.
         -2    1    1    2    0  503 -0.21001734377E+02 -0.27154707298E+00  0.51590834045E+02  0.55702430307E+02  0.00000000000E+00 0.  1.
<mgrwt>
<rscale>  2 0.89345166E+02</rscale>
<asrwt>0</asrwt>
<pdfrwt beam="1">  1       21 0.24829376E+00 0.89345166E+02</pdfrwt>
<pdfrwt beam="2">  1       21 0.94226362E-03 0.89345166E+02</pdfrwt>
<totfact> 0.30133512E+05</totfact>
</mgrwt>
</event>
<event>
 5    1  0.2588385E+000  0.1562677E+03  0.7546771E-02  0.1192976E+00
         21   -1    0    0  503  502  0.00000000000E+00  0.00000000000E+00  0.47588148795E+03  0.47588148795E+03  0.00000000000E+00 0. -1.
         21   -1    0    0  501  503 -0.00000000000E+00 -0.00000000000E+00 -0.25859906225E+03  0.25859906225E+03  0.00000000000E+00 0. -1.
         24    1    1    2    0    0  0.32686311547E+02 -0.11931736600E+03  0.35000059226E+03  0.37983240953E+03  0.80419002446E+02 0. -1.
          1    1    1    2  501    0 -0.72255345955E+02  0.61301176823E+02 -0.22181287797E+03  0.24120452345E+03  0.00000000000E+00 0. -1.
         -2    1    1    2    0  502  0.39569034408E+02  0.58016189173E+02  0.89094711399E+02  0.11344361723E+03  0.00000000000E+00 0.  1.
<mgrwt>
<rscale>  2 0.15626765E+03</rscale>
<asrwt>0</asrwt>
<pdfrwt beam="1">  1       21 0.73212536E-01 0.15626765E+03</pdfrwt>
<pdfrwt beam="2">  1       21 0.39784471E-01 0.15626765E+03</pdfrwt>
<totfact> 0.10490509E+04</totfact>
</mgrwt>
</event>
<event>
 5    1  0.1994521E+000  0.7528992E+02  0.7546771E-02  0.1342976E+00
         21   -1    0    0  503  502  0.00000000000E+00  0.00000000000E+00  0.10931947078E+03  0.10931947078E+03  0.00000000000E+00 0. -1.
         21   -1    0    0  501  503 -0.00000000000E+00 -0.00000000000E+00 -0.68660726710E+02  0.68660726710E+02  0.00000000000E+00 0.  1.
         24    1    1    2    0    0  0.65598516841E+01 -0.47090164266E+02  0.47084061223E+02  0.10461663348E+03  0.80419002446E+02 0.  0.
          1    1    1    2  501    0 -0.18851357110E+02  0.20419751663E+02 -0.26011314333E+02  0.38064792081E+02  0.00000000000E+00 0. -1.
         -2    1    1    2    0  502  0.12291505426E+02  0.26670412603E+02  0.19585997176E+02  0.35298771925E+02  0.00000000000E+00 0.  1.
<mgrwt>
<rscale>  2 0.75289922E+02</rscale>
<asrwt>0</asrwt>
<pdfrwt beam="1">  1       21 0.16818380E-01 0.75289922E+02</pdfrwt>
<pdfrwt beam="2">  1       21 0.10563189E-01 0.75289922E+02</pdfrwt>
<totfact> 0.22764819E+06</totfact>
</mgrwt>
</event>
<event>
 5    1  0.1994521E+000  0.6686023E+02  0.7546771E-02  0.1371108E+00
         21   -1    0    0  503  502  0.00000000000E+00  0.00000000000E+00  0.46566244989E+02  0.46566244989E+02  0.00000000000E+00 0. -1.
         21   -1    0    0  501  503 -0.00000000000E+00 -0.00000000000E+00 -0.13920204620E+03  0.13920204620E+03  0.00000000000E+00 0.  1.
         24    1    1    2    0    0 -0.12499063074E+02  0.11914780591E+02 -0.53903341284E+02  0.98341114139E+02  0.80419002446E+02 0.  0.
          1    1    1    2  501    0  0.15358819372E+02  0.16712828001E+02 -0.51250291150E+02  0.56051800107E+02  0.00000000000E+00 0. -1.
         -2    1    1    2    0  502 -0.28597562979E+01 -0.28627608592E+02  0.12517831223E+02  0.31375376943E+02  0.00000000000E+00 0.  1.
<mgrwt>
<rscale>  2 0.66860226E+02</rscale>
<asrwt>0</asrwt>
<pdfrwt beam="1">  1       21 0.71640378E-02 0.66860226E+02</pdfrwt>
<pdfrwt beam="2">  1       21 0.21415699E-01 0.66860226E+02</pdfrwt>
<totfact> 0.28319730E+06</totfact>
</mgrwt>
</event>
<event>
 5    1  0.1994521E+000  0.7205443E+02  0.7546771E-02  0.1353243E+00
         21   -1    0    0  501  502  0.00000000000E+00  0.00000000000E+00  0.44446266014E+03  0.44446266014E+03  0.00000000000E+00 0. -1.
         21   -1    0    0  502  503 -0.00000000000E+00 -0.00000000000E+00 -0.11822144652E+02  0.11822144652E+02  0.00000000000E+00 0. -1.
         24    1    1    2    0    0 -0.10903236553E+02  0.38032015199E+02  0.24604155684E+03  0.26185678985E+03  0.80419002446E+02 0. -1.
          1    1    1    2  501    0 -0.13398066945E+02 -0.20614687952E+02  0.90997622634E+02  0.94260494812E+02  0.00000000000E+00 0. -1.
         -2    1    1    2    0  503  0.24301303498E+02 -0.17417327247E+02  0.95601336021E+02  0.10016752013E+03  0.00000000000E+00 0.  1.
<mgrwt>
<rscale>  2 0.72054435E+02</rscale>
<asrwt>0</asrwt>
<pdfrwt beam="1">  1       21 0.68378858E-01 0.72054435E+02</pdfrwt>
<pdfrwt beam="2">  1       21 0.18187918E-02 0.72054435E+02</pdfrwt>
<totfact> 0.27254734E+06</totfact>
</mgrwt>
</event>
<event>
 5    1  0.1994521E+000  0.9035575E+02  0.7546771E-02  0.1301992E+00
         21   -1    0    0  503  502  0.00000000000E+00  0.00000000000E+00  0.28225460292E+02  0.28225460292E+02  0.00000000000E+00 0.  1.
         21   -1    0    0  501  503 -0.00000000000E+00 -0.00000000000E+00 -0.82748232877E+03  0.82748232877E+03  0.00000000000E+00 0.  1.
         24    1    1    2    0    0  0.45293709893E+02 -0.84627756925E+01 -0.72985776094E+03  0.73571917597E+03  0.80419002446E+02 0.  1.
          1    1    1    2  501    0  0.21059334811E+02  0.46388282691E+01 -0.43698207249E+02  0.48729330255E+02  0.00000000000E+00 0. -1.
         -2    1    1    2    0  502 -0.66353044704E+02  0.38239474234E+01 -0.25700900295E+02  0.71259282843E+02  0.00000000000E+00 0.  1.
<mgrwt>
<rscale>  2 0.90355749E+02</rscale>
<asrwt>0</asrwt>
<pdfrwt beam="1">  1       21 0.43423795E-02 0.90355749E+02</pdfrwt>
<pdfrwt beam="2">  1       21 0.12730495E+00 0.90355749E+02</pdfrwt>
<totfact> 0.16232260E+05</totfact>
</mgrwt>
</event>
<event>
 5    1  0.1994521E+000  0.9627927E+02  0.7546771E-02  0.1288321E+00
         21   -1    0    0  503  502  0.00000000000E+00  0.00000000000E+00  0.34909207114E+02  0.34909207114E+02  0.00000000000E+00 0.  1.
         21   -1    0    0  501  503 -0.00000000000E+00 -0.00000000000E+00 -0.12040872181E+04  0.12040872181E+04  0.00000000000E+00 0. -1.
         24    1    1    2    0    0  0.37671499940E+02 -0.24742436338E+02 -0.81287625820E+02  0.12290738029E+03  0.80419002446E+02 0.  1.
          1    1    1    2  501    0  0.23827850031E+02 -0.14047486696E+02 -0.10067770404E+04  0.10071569428E+04  0.00000000000E+00 0. -1.
         -2    1    1    2    0  502 -0.61499349971E+02  0.38789923034E+02 -0.81113344726E+02  0.10893210210E+03  0.00000000000E+00 0.  1.
<mgrwt>
<rscale>  2 0.96279274E+02</rscale>
<asrwt>0</asrwt>
<pdfrwt beam="1">  1       21 0.53706469E-02 0.96279274E+02</pdfrwt>
<pdfrwt beam="2">  1       21 0.18524420E+00 0.96279274E+02</pdfrwt>
<totfact> 0.43084031E+04</totfact>
</mgrwt>
</event>
<event>
 5    1  0.1994521E+000  0.8750318E+02  0.7546771E-02  0.1309013E+00
         21   -1    0    0  503  502  0.00000000000E+00  0.00000000000E+00  0.44036280694E+03  0.44036280694E+03  0.00000000000E+00 0.  1.
         21   -1    0    0  501  503 -0.00000000000E+00 -0.00000000000E+00 -0.64209742702E+02  0.64209742702E+02  0.00000000000E+00 0.  1.
         24    1    1    2    0    0 -0.33641188724E+01  0.61070731171E+02 -0.37773113342E+01  0.10110606083E+03  0.80419002446E+02 0.  1.
          1    1    1    2  501    0  0.20674554150E+02 -0.17497311280E+02  0.75106383236E+01  0.28106988088E+02  0.00000000000E+00 0. -1.
         -2    1    1    2    0  502 -0.17310435278E+02 -0.43573419891E+02  0.37241973725E+03  0.37535950073E+03  0.00000000000E+00 0.  1.
<mgrwt>
<rscale>  2 0.87503184E+02</rscale>
<asrwt>0</asrwt>
<pdfrwt beam="1">  1       21 0.67748122E-01 0.87503184E+02</pdfrwt>
<pdfrwt beam="2">  1       21 0.98784222E-02 0.87503184E+02</pdfrwt>
<totfact> 0.17090742E+05</totfact>
</mgrwt>
</event>
<event>
 5    1  0.1994521E+000  0.8190952E+02  0.7546771E-02  0.1323718E+00
         21   -1    0    0  501  502  0.00000000000E+00  0.00000000000E+00  0.58915161952E+03  0.58915161952E+03  0.00000000000E+00 0. -1.
         21   -1    0    0  502  503 -0.00000000000E+00 -0.00000000000E+00 -0.61071836150E+02  0.61071836150E+02  0.00000000000E+00 0. -1.
         24    1    1    2    0    0  0.20054441139E+02  0.49069789812E+02  0.11693263006E+02  0.97025631849E+02  0.80419002446E+02 0. -1.
          1    1    1    2  501    0  0.12615198349E+01 -0.45938569019E+02  0.52712552537E+03  0.52912499756E+03  0.00000000000E+00 0. -1.
         -2    1    1    2    0  503 -0.21315960974E+02 -0.31312207934E+01 -0.10739004997E+02  0.24072826261E+02  0.00000000000E+00 0.  1.
<mgrwt>
<rscale>  2 0.81909518E+02</rscale>
<asrwt>0</asrwt>
<pdfrwt beam="1">  1       21 0.90638707E-01 0.81909518E+02</pdfrwt>
<pdfrwt beam="2">  1       21 0.93956675E-02 0.81909518E+02</pdfrwt>
<totfact> 0.98561929E+04</totfact>
</mgrwt>
</event>
<event>
 5    1  0.1994521E+000  0.8445956E+02  0.7546771E-02  0.1316852E+00
         21   -1    0    0  501  502  0.00000000000E+00  0.00000000000E+00  0.69602456071E+02  0.69602456071E+02  0.00000000000E+00 0. -1.
         21   -1    0    0  502  503 -0.00000000000E+00 -0.00000000000E+00 -0.12817307566E+03  0.12817307566E+03  0.00000000000E+00 0.  1.
         24    1    1    2    0    0 -0.25502756674E+02 -0.47587243800E+01  0.14898414599E+02  0.85803349396E+02  0.80419002446E+02 0. -1.
          1    1    1    2  501    0  0.60892770547E+01 -0.37459523449E+02 -0.35456344390E+02  0.51936957454E+02  0.00000000000E+00 0. -1.
         -2    1    1    2    0  503  0.19413479619E+02  0.42218247829E+02 -0.38012689796E+02  0.60035224878E+02  0.00000000000E+00 0.  1.
<mgrwt>
<rscale>  2 0.84459555E+02</rscale>
<asrwt>0</asrwt>
<pdfrwt beam="1">  1       21 0.10708070E-01 0.84459555E+02</pdfrwt>
<pdfrwt beam="2">  1       21 0.19718935E-01 0.84459555E+02</pdfrwt>
<totfact> 0.16755210E+06</totfact>
</mgrwt>
</event>
<event>
 5    1  0.1994521E+000  0.9199533E+02  0.7546771E-02  0.1298090E+00
         21   -1    0    0  501  502  0.00000000000E+00  0.00000000000E+00  0.11306347555E+02  0.11306347555E+02  0.00000000000E+00 0. -1.
         21   -1    0    0  502  503 -0.00000000000E+00 -0.00000000000E+00 -0.14095301752E+04  0.14095301752E+04  0.00000000000E+00 0.  1.
         24    1    1    2    0    0 -0.12049671410E+01 -0.57548741551E+01 -0.47508622223E+03  0.48188038457E+03  0.80419002446E+02 0.  0.
          1    1    1    2  501    0  0.40516273598E+02 -0.29844949639E+02 -0.82423109162E+02  0.96570483944E+02  0.00000000000E+00 0. -1.
         -2    1    1    2    0  503 -0.39311306457E+02  0.35599823794E+02 -0.84071449623E+03  0.84238565422E+03  0.00000000000E+00 0.  1.
<mgrwt>
<rscale>  2 0.91995328E+02</rscale>
<asrwt>0</asrwt>
<pdfrwt beam="1">  1       21 0.17394395E-02 0.91995328E+02</pdfrwt>
<pdfrwt beam="2">  1       21 0.21685062E+00 0.91995328E+02</pdfrwt>
<totfact> 0.17346074E+05</totfact>
</mgrwt>
</event>
<event>
 5    1  0.1994521E+000  0.1125492E+03  0.7546771E-02  0.1255921E+00
         21   -1    0    0  503  502  0.00000000000E+00  0.00000000000E+00  0.25279176049E+03  0.25279176049E+03  0.00000000000E+00 0. -1.
         21   -1    0    0  501  503 -0.00000000000E+00 -0.00000000000E+00 -0.55026483473E+02  0.55026483473E+02  0.00000000000E+00 0. -1.
         24    1    1    2    0    0  0.93023226832E+02 -0.16279218650E+02  0.83386107252E+02  0.14946167578E+03  0.80419002446E+02 0. -1.
          1    1    1    2  501    0 -0.75678069779E+02 -0.22072238184E+01  0.54362107480E+02  0.93205583589E+02  0.00000000000E+00 0. -1.
         -2    1    1    2    0  502 -0.17345157053E+02  0.18486442469E+02  0.60017062285E+02  0.65150984595E+02  0.00000000000E+00 0.  1.
<mgrwt>
<rscale>  2 0.11254918E+03</rscale>
<asrwt>0</asrwt>
<pdfrwt beam="1">  1       21 0.38891039E-01 0.11254918E+03</pdfrwt>
<pdfrwt beam="2">  1       21 0.84656130E-02 0.11254918E+03</pdfrwt>
<totfact> 0.69671027E+05</totfact>
</mgrwt>
</event>
<event>
 5    1  0.1994521E+000  0.6885516E+02  0.7546771E-02  0.1364030E+00
         21   -1    0    0  501  502  0.00000000000E+00  0.00000000000E+00  0.19203396387E+02  0.19203396387E+02  0.00000000000E+00 0.  1.
         21   -1    0    0  502  503 -0.00000000000E+00 -0.00000000000E+00 -0.89793155314E+03  0.89793155314E+03  0.00000000000E+00 0.  1.
         24    1    1    2    0    0  0.27236264597E+02  0.35742911781E+02 -0.14241098699E+03  0.16960977278E+03  0.80419002446E+02 0.  1.
          1    1    1    2  501    0 -0.11981649148E+02 -0.22020643409E+02 -0.23338544278E+02  0.34251369337E+02  0.00000000000E+00 0. -1.
         -2    1    1    2    0  503 -0.15254615450E+02 -0.13722268371E+02 -0.71297862549E+03  0.71327380741E+03  0.00000000000E+00 0.  1.
<mgrwt>
<rscale>  2 0.68855162E+02</rscale>
<asrwt>0</asrwt>
<pdfrwt beam="1">  1       21 0.29543693E-02 0.68855162E+02</pdfrwt>
<pdfrwt beam="2">  1       21 0.13814329E+00 0.68855162E+02</pdfrwt>
<totfact> 0.25178481E+05</totfact>
</mgrwt>
</event>
<event>
 5    1  0.1994521E+000  0.1280569E+03  0.7546771E-02  0.1230368E+00
         21   -1    0    0  501  502  0.00000000000E+00  0.00000000000E+00  0.11573236369E+04  0.11573236369E+04  0.00000000000E+00 0.  1.
         21   -1    0    0  502  503 -0.00000000000E+00 -0.00000000000E+00 -0.42372080925E+02  0.42372080925E+02  0.00000000000E+00 0.  1.
         24    1    1    2    0    0  0.17888326784E+02  0.73379621411E+02  0.93148613519E+03  0.93799690675E+03  0.80419002446E+02 0.  1.
          1    1    1    2  501    0 -0.25816300195E+02  0.31433192773E+02  0.14365093989E+03  0.14929875919E+03  0.00000000000E+00 0. -1.
         -2    1    1    2    0  503  0.79279734109E+01 -0.10481281418E+03  0.39814480928E+02  0.11240005192E+03  0.00000000000E+00 0.  1.
<mgrwt>
<rscale>  2 0.12805694E+03</rscale>
<asrwt>0</asrwt>
<pdfrwt beam="1">  1       21 0.17804977E+00 0.12805694E+03</pdfrwt>
<pdfrwt beam="2">  1       21 0.65187825E-02 0.12805694E+03</pdfrwt>
<totfact> 0.33627867E+04</totfact>
</mgrwt>
</event>
<event>
 5    1  0.1994521E+000  0.7920871E+02  0.7546771E-02  0.1331312E+00
         21   -1    0    0  503  502  0.00000000000E+00  0.00000000000E+00  0.26640100392E+02  0.26640100392E+02  0.00000000000E+00 0.  1.
         21   -1    0    0  501  503 -0.00000000000E+00 -0.00000000000E+00 -0.23625272795E+03  0.23625272795E+03  0.00000000000E+00 0. -1.
         24    1    1    2    0    0 -0.14441682807E+02  0.41710087706E+02 -0.12037051845E+03  0.15134256270E+03  0.80419002446E+02 0.  1.
          1    1    1    2  501    0 -0.18377126386E+02 -0.94606093758E+01 -0.32211745786E+02  0.38272946980E+02  0.00000000000E+00 0. -1.
         -2    1    1    2    0  502  0.32818809193E+02 -0.32249478330E+02 -0.57030363324E+02  0.73277318662E+02  0.00000000000E+00 0.  1.
<mgrwt>
<rscale>  2 0.79208711E+02</rscale>
<asrwt>0</asrwt>
<pdfrwt beam="1">  1       21 0.40984771E-02 0.79208711E+02</pdfrwt>
<pdfrwt beam="2">  1       21 0.36346572E-01 0.79208711E+02</pdfrwt>
<totfact> 0.26708582E+06</totfact>
</mgrwt>
</event>
<event>
 5    1  0.1994521E+000  0.9869924E+02  0.7546771E-02  0.1283055E+00
         21   -1    0    0  501  502  0.00000000000E+00  0.00000000000E+00  0.30689218164E+04  0.30689218164E+04  0.00000000000E+00 0. -1.
         21   -1    0    0  502  503 -0.00000000000E+00 -0.00000000000E+00 -0.35801292568E+01  0.35801292568E+01  0.00000000000E+00 0.  1.
         24    1    1    2    0    0 -0.55540216745E+02 -0.15914491788E+00  0.20307452884E+04  0.20330957634E+04  0.80419002446E+02 0.  1.
          1    1    1    2  501    0  0.67802464755E+02 -0.24525478720E+02  0.71712078362E+03  0.72073635376E+03  0.00000000000E+00 0. -1.
         -2    1    1    2    0  503 -0.12262248010E+02  0.24684623638E+02  0.31747561516E+03  0.31866982850E+03  0.00000000000E+00 0.  1.
<mgrwt>
<rscale>  2 0.98699238E+02</rscale>
<asrwt>0</asrwt>
<pdfrwt beam="1">  1       21 0.47213971E+00 0.98699238E+02</pdfrwt>
<pdfrwt beam="2">  1       21 0.55079157E-03 0.98699238E+02</pdfrwt>
<totfact> 0.33203946E+04</totfact>
</mgrwt>
</event>
<event>
 5    1  0.1994521E+000  0.1011790E+03  0.7546771E-02  0.1277836E+00
         21   -1    0    0  503  502  0.00000000000E+00  0.00000000000E+00  0.50526217688E+02  0.50526217688E+02  0.00000000000E+00 0. -1.
         21   -1    0    0  501  503 -0.00000000000E+00 -0.00000000000E+00 -0.27497213938E+03  0.27497213938E+03  0.00000000000E+00 0.  1.
         24    1    1    2    0    0 -0.21076255621E+01 -0.23424261568E+02 -0.16875396513E+03  0.18840980552E+03  0.80419002446E+02 0.  1.
          1    1    1    2  501    0  0.31874776652E+02  0.62078073821E+02 -0.54061182009E+02  0.88274005438E+02  0.00000000000E+00 0. -1.
         -2    1    1    2    0  502 -0.29767151090E+02 -0.38653812253E+02 -0.16307745503E+01  0.48814546104E+02  0.00000000000E+00 0.  1.
<mgrwt>
<rscale>  2 0.10117900E+03</rscale>
<asrwt>0</asrwt>
<pdfrwt beam="1">  1       21 0.77732641E-02 0.10117900E+03</pdfrwt>
<pdfrwt beam="2">  1       21 0.42303407E-01 0.10117900E+03</pdfrwt>
<totfact> 0.68197044E+05</totfact>
</mgrwt>
</event>
<event>
 5    1  0.1994521E+000  0.6902632E+02  0.7546771E-02  0.1363436E+00
         21   -1    0    0  503  502  0.00000000000E+00  0.00000000000E+00  0.11880181160E+03  0.11880181160E+03  0.00000000000E+00 0. -1.
         21   -1    0    0  501  503 -0.00000000000E+00 -0.00000000000E+00 -0.48305591809E+02  0.48305591809E+02  0.00000000000E+00 0.  1.
         24    1    1    2    0    0  0.98190695648E+01 -0.20792440963E+02  0.29500494554E+02  0.88691797037E+02  0.80419002446E+02 0. -1.
          1    1    1    2  501    0 -0.20843463266E+02 -0.89553933165E+01 -0.43248996726E+01  0.23094453610E+02  0.00000000000E+00 0. -1.
         -2    1    1    2    0  502  0.11024393701E+02  0.29747834279E+02  0.45320624911E+02  0.55321152764E+02  0.00000000000E+00 0.  1.
<mgrwt>
<rscale>  2 0.69026316E+02</rscale>
<asrwt>0</asrwt>
<pdfrwt beam="1">  1       21 0.18277202E-01 0.69026316E+02</pdfrwt>
<pdfrwt beam="2">  1       21 0.74316295E-02 0.69026316E+02</pdfrwt>
<totfact> 0.35558645E+06</totfact>
</mgrwt>
</event>
<event>
 5    1  0.1994521E+000  0.6590249E+02  0.7546771E-02  0.1374609E+00
         21   -1    0    0  503  502  0.00000000000E+00  0.00000000000E+00  0.23469419674E+03  0.23469419674E+03  0.00000000000E+00 0. -1.
         21   -1    0    0  501  503 -0.00000000000E+00 -0.00000000000E+00 -0.24893582833E+02  0.24893582833E+02  0.00000000000E+00 0.  1.
         24    1    1    2    0    0  0.11821430978E+01 -0.78937450019E+00  0.89730378457E+02  0.12050218814E+03  0.80419002446E+02 0.  1.
          1    1    1    2  501    0  0.16190081670E+02  0.19829247232E+02  0.12532602564E+02  0.28502349330E+02  0.00000000000E+00 0. -1.
         -2    1    1    2    0  502 -0.17372224768E+02 -0.19039872732E+02  0.10753763288E+03  0.11058324210E+03  0.00000000000E+00 0.  1.
<mgrwt>
<rscale>  2 0.65902485E+02</rscale>
<asrwt>0</asrwt>
<pdfrwt beam="1">  1       21 0.36106798E-01 0.65902485E+02</pdfrwt>
<pdfrwt beam="2">  1       21 0.38297821E-02 0.65902485E+02</pdfrwt>
<totfact> 0.29918896E+06</totfact>
</mgrwt>
</event>
<event>
 5    1  0.1994521E+000  0.1032850E+03  0.7546771E-02  0.1273536E+00
         21   -1    0    0  503  502  0.00000000000E+00  0.00000000000E+00  0.16571409548E+03  0.16571409548E+03  0.00000000000E+00 0. -1.
         21   -1    0    0  501  503 -0.00000000000E+00 -0.00000000000E+00 -0.87648336932E+02  0.87648336932E+02  0.00000000000E+00 0. -1.
         24    1    1    2    0    0 -0.49771163420E+02  0.32933541157E+02 -0.18228657877E+02  0.10179040605E+03  0.80419002446E+02 0. -1.
          1    1    1    2  501    0  0.30534563575E+02 -0.63413722013E+02  0.30823965741E+02  0.76836036963E+02  0.00000000000E+00 0. -1.
         -2    1    1    2    0  502  0.19236599845E+02  0.30480180855E+02  0.65470450681E+02  0.74735989396E+02  0.00000000000E+00 0.  1.
<mgrwt>
<rscale>  2 0.10328501E+03</rscale>
<asrwt>0</asrwt>
<pdfrwt beam="1">  1       21 0.25494476E-01 0.10328501E+03</pdfrwt>
<pdfrwt beam="2">  1       21 0.13484360E-01 0.10328501E+03</pdfrwt>
<totfact> 0.69719968E+05</totfact>
</mgrwt>
</event>
<event>
 5    1  0.1994521E+000  0.1082440E+03  0.7546771E-02  0.1263857E+00
         21   -1    0    0  503  502  0.00000000000E+00  0.00000000000E+00  0.12269490606E+03  0.12269490606E+03  0.00000000000E+00 0. -1.
         21   -1    0    0  501  503 -0.00000000000E+00 -0.00000000000E+00 -0.14804041743E+03  0.14804041743E+03  0.00000000000E+00 0.  1.
         24    1    1    2    0    0  0.73055240676E+02  0.57492462867E+02  0.44989789475E+02  0.13089594565E+03  0.80419002446E+02 0. -1.
          1    1    1    2  501    0 -0.19316819848E+02 -0.21420757021E+02 -0.69350195227E+02  0.75109506311E+02  0.00000000000E+00 0. -1.
         -2    1    1    2    0  502 -0.53738420828E+02 -0.36071705846E+02 -0.98510561746E+00  0.64729871534E+02  0.00000000000E+00 0.  1.
<mgrwt>
<rscale>  2 0.10824399E+03</rscale>
<asrwt>0</asrwt>
<pdfrwt beam="1">  1       21 0.18876139E-01 0.10824399E+03</pdfrwt>
<pdfrwt beam="2">  1       21 0.22775449E-01 0.10824399E+03</pdfrwt>
<totfact> 0.46963017E+05</totfact>
</mgrwt>
</event>
<event>
 5    1  0.1994521E+000  0.7136060E+02  0.7546771E-02  0.1355526E+00
         21   -1    0    0  503  502  0.00000000000E+00  0.00000000000E+00  0.50045931632E+01  0.50045931632E+01  0.00000000000E+00 0.  1.
         21   -1    0    0  501  503 -0.00000000000E+00 -0.00000000000E+00 -0.10396472990E+04  0.10396472990E+04  0.00000000000E+00 0.  1.
         24    1    1    2    0    0  0.31797852477E+02  0.29700025941E+02 -0.64429632627E+03  0.65075200112E+03  0.80419002446E+02 0.  1.
          1    1    1    2  501    0 -0.20469751153E+02 -0.10716622108E+01 -0.20400165468E+03  0.20502886207E+03  0.00000000000E+00 0. -1.
         -2    1    1    2    0  502 -0.11328101323E+02 -0.28628363730E+02 -0.18634472485E+03  0.18887102893E+03  0.00000000000E+00 0.  1.
<mgrwt>
<rscale>  2 0.71360600E+02</rscale>
<asrwt>0</asrwt>
<pdfrwt beam="1">  1       21 0.76993739E-03 0.71360600E+02</pdfrwt>
<pdfrwt beam="2">  1       21 0.15994574E+00 0.71360600E+02</pdfrwt>
<totfact> 0.14467791E+06</totfact>
</mgrwt>
</event>
<event>
 5    1  0.1994521E+000  0.9120366E+02  0.7546771E-02  0.1299963E+00
         21   -1    0    0  501  502  0.00000000000E+00  0.00000000000E+00  0.46833823160E+03  0.46833823160E+03  0.00000000000E+00 0. -1.
         21   -1    0    0  502  503 -0.00000000000E+00 -0.00000000000E+00 -0.55546038389E+03  0.55546038389E+03  0.00000000000E+00 0.  1.
         24    1    1    2    0    0 -0.18003603580E+02 -0.19897916758E+02 -0.20723185500E+03  0.22390246652E+03  0.80419002446E+02 0.  0.
          1    1    1    2  501    0  0.47132766902E+02 -0.17455220223E+02  0.45696798282E+03  0.45972374286E+03  0.00000000000E+00 0. -1.
         -2    1    1    2    0  503 -0.29129163322E+02  0.37353136981E+02 -0.33685828011E+03  0.34017240611E+03  0.00000000000E+00 0.  1.
<mgrwt>
<rscale>  2 0.91203662E+02</rscale>
<asrwt>0</asrwt>
<pdfrwt beam="1">  1       21 0.72052036E-01 0.91203662E+02</pdfrwt>
<pdfrwt beam="2">  1       21 0.85455443E-01 0.91203662E+02</pdfrwt>
<totfact> 0.23231490E+03</totfact>
</mgrwt>
</event>
<event>
 5    1  0.1994521E+000  0.1035569E+03  0.7546771E-02  0.1272989E+00
         21   -1    0    0  503  502  0.00000000000E+00  0.00000000000E+00  0.30599205532E+03  0.30599205532E+03  0.00000000000E+00 0.  1.
         21   -1    0    0  501  503 -0.00000000000E+00 -0.00000000000E+00 -0.75448166035E+02  0.75448166035E+02  0.00000000000E+00 0. -1.
         24    1    1    2    0    0  0.73405539803E+02  0.38281588198E+02  0.11573282859E+03  0.16344771897E+03  0.80419002446E+02 0.  1.
          1    1    1    2  501    0 -0.10638091764E+02 -0.25515498674E+02 -0.41045805818E+02  0.49487047237E+02  0.00000000000E+00 0. -1.
         -2    1    1    2    0  502 -0.62767448039E+02 -0.12766089524E+02  0.15585686651E+03  0.16850545514E+03  0.00000000000E+00 0.  1.
<mgrwt>
<rscale>  2 0.10355690E+03</rscale>
<asrwt>0</asrwt>
<pdfrwt beam="1">  1       21 0.47075700E-01 0.10355690E+03</pdfrwt>
<pdfrwt beam="2">  1       21 0.11607410E-01 0.10355690E+03</pdfrwt>
<totfact> 0.27434195E+05</totfact>
</mgrwt>
</event>
<event>
 5    1  0.2447407E+000  0.1496191E+03  0.7546771E-02  0.1200942E+00
         21   -1    0    0  503  502  0.00000000000E+00  0.00000000000E+00  0.18098471963E+03  0.18098471963E+03  0.00000000000E+00 0.  1.
         21   -1    0    0  501  503 -0.00000000000E+00 -0.00000000000E+00 -0.25764653891E+03  0.25764653891E+03  0.00000000000E+00 0. -1.
         24    1    1    2    0    0 -0.40816749138E+02  0.50935957409E+02  0.43850038860E+02  0.11247453325E+03  0.80419002446E+02 0.  0.
          1    1    1    2  501    0  0.25830675417E+02 -0.12114748203E+03 -0.18962792406E+03  0.22650096198E+03  0.00000000000E+00 0. -1.
         -2    1    1    2    0  502  0.14986073721E+02  0.70211524619E+02  0.69116065919E+02  0.99655763321E+02  0.00000000000E+00 0.  1.
<mgrwt>
<rscale>  2 0.14961913E+03</rscale>
<asrwt>0</asrwt>
<pdfrwt beam="1">  1       21 0.27843803E-01 0.14961913E+03</pdfrwt>
<pdfrwt beam="2">  1       21 0.39637929E-01 0.14961913E+03</pdfrwt>
<totfact> 0.76950462E+04</totfact>
</mgrwt>
</event>
<event>
 5    1  0.1994521E+000  0.6720117E+02  0.7546771E-02  0.1369878E+00
         21   -1    0    0  503  502  0.00000000000E+00  0.00000000000E+00  0.35019261464E+03  0.35019261464E+03  0.00000000000E+00 0.  1.
         21   -1    0    0  501  503 -0.00000000000E+00 -0.00000000000E+00 -0.10647933107E+03  0.10647933107E+03  0.00000000000E+00 0. -1.
         24    1    1    2    0    0  0.16435867980E+02 -0.38608271186E+02  0.51399663219E+02  0.10425870560E+03  0.80419002446E+02 0. -1.
          1    1    1    2  501    0 -0.13971953105E+02  0.17269601902E+02 -0.78074532791E+02  0.81173193198E+02  0.00000000000E+00 0. -1.
         -2    1    1    2    0  502 -0.24639148743E+01  0.21338669285E+02  0.27038815314E+03  0.27124004690E+03  0.00000000000E+00 0.  1.
<mgrwt>
<rscale>  2 0.67201174E+02</rscale>
<asrwt>0</asrwt>
<pdfrwt beam="1">  1       21 0.53875786E-01 0.67201174E+02</pdfrwt>
<pdfrwt beam="2">  1       21 0.16381436E-01 0.67201174E+02</pdfrwt>
<totfact> 0.11472176E+05</totfact>
</mgrwt>
</event>
<event>
 5    1  0.1994521E+000  0.8513205E+02  0.7546771E-02  0.1315088E+00
         21   -1    0    0  503  502  0.00000000000E+00  0.00000000000E+00  0.30369873826E+03  0.30369873826E+03  0.00000000000E+00 0.  1.
         21   -1    0    0  501  503 -0.00000000000E+00 -0.00000000000E+00 -0.50220523542E+02  0.50220523542E+02  0.00000000000E+00 0. -1.
         24    1    1    2    0    0  0.21358217261E+02 -0.13319470797E+02  0.20728855249E+03  0.22376179677E+03  0.80419002446E+02 0.  1.
          1    1    1    2  501    0  0.23514440052E+02 -0.19382690259E+02 -0.25321816045E+02  0.39620852343E+02  0.00000000000E+00 0. -1.
         -2    1    1    2    0  502 -0.44872657312E+02  0.32702161056E+02  0.71511478273E+02  0.90536612687E+02  0.00000000000E+00 0.  1.
<mgrwt>
<rscale>  2 0.85132054E+02</rscale>
<asrwt>0</asrwt>
<pdfrwt beam="1">  1       21 0.46722882E-01 0.85132054E+02</pdfrwt>
<pdfrwt beam="2">  1       21 0.77262345E-02 0.85132054E+02</pdfrwt>
<totfact> 0.56403278E+05</totfact>
</mgrwt>
</event>
<event>
 5    1  0.1994521E+000  0.9898584E+02  0.7546771E-02  0.1282443E+00
         21   -1    0    0  501  502  0.00000000000E+00  0.00000000000E+00  0.44593430116E+02  0.44593430116E+02  0.00000000000E+00 0. -1.
         21   -1    0    0  502  503 -0.00000000000E+00 -0.00000000000E+00 -0.60186959643E+03  0.60186959643E+03  0.00000000000E+00 0.  1.
         24    1    1    2    0    0 -0.51190514164E+02 -0.33723280863E+00 -0.62103790114E+02  0.11377468597E+03  0.80419002446E+02 0.  1.
          1    1    1    2  501    0 -0.17861552131E+02  0.23760275395E+02  0.23809997277E+01  0.29820377112E+02  0.00000000000E+00 0. -1.
         -2    1    1    2    0  503  0.69052066295E+02 -0.23423042587E+02 -0.49755337593E+03  0.50286796346E+03  0.00000000000E+00 0.  1.
<mgrwt>
<rscale>  2 0.98985845E+02</rscale>
<asrwt>0</asrwt>
<pdfrwt beam="1">  1       21 0.68605274E-02 0.98985845E+02</pdfrwt>
<pdfrwt beam="2">  1       21 0.92595326E-01 0.98985845E+02</pdfrwt>
<totfact> 0.15931185E+05</totfact>
</mgrwt>
</event>
<event>
 5    1  0.1994521E+000  0.8718271E+02  0.7546771E-02  0.1309821E+00
         21   -1    0    0  503  502  0.00000000000E+00  0.00000000000E+00  0.13711037649E+03  0.13711037649E+03  0.00000000000E+00 0. -1.
         21   -1    0    0  501  503 -0.00000000000E+00 -0.00000000000E+00 -0.59575366342E+02  0.59575366342E+02  0.00000000000E+00 0. -1.
         24    1    1    2    0    0  0.10450752540E+02 -0.57702654623E+02  0.42344723136E+02  0.10816240618E+03  0.80419002446E+02 0. -1.
          1    1    1    2  501    0 -0.29052266774E+02  0.35223981836E+02  0.40322344410E+01  0.45836906699E+02  0.00000000000E+00 0. -1.
         -2    1    1    2    0  502  0.18601514234E+02  0.22478672786E+02  0.31158052573E+02  0.42686429953E+02  0.00000000000E+00 0.  1.
<mgrwt>
<rscale>  2 0.87182708E+02</rscale>
<asrwt>0</asrwt>
<pdfrwt beam="1">  1       21 0.21093904E-01 0.87182708E+02</pdfrwt>
<pdfrwt beam="2">  1       21 0.91654410E-02 0.87182708E+02</pdfrwt>
<totfact> 0.19404620E+06</totfact>
</mgrwt>
</event>
<event>
 5    1  0.1994521E+000  0.7263452E+02  0.7546771E-02  0.1351357E+00
         21   -1    0    0  501  502  0.00000000000E+00  0.00000000000E+00  0.20492705055E+02  0.20492705055E+02  0.00000000000E+00 0.  1.
         21   -1    0    0  502  503 -0.00000000000E+00 -0.00000000000E+00 -0.32547076962E+03  0.32547076962E+03  0.00000000000E+00 0. -1.
         24    1    1    2    0    0 -0.25415968746E+02  0.19377759713E+02 -0.23584028611E+03  0.25121569526E+03  0.80419002446E+02 0. -1.
          1    1    1    2  501    0  0.31007558326E+02  0.69833771805E+01 -0.16969317483E+02  0.36030458865E+02  0.00000000000E+00 0. -1.
         -2    1    1    2    0  503 -0.55915895792E+01 -0.26361136893E+02 -0.52168460971E+02  0.58717320548E+02  0.00000000000E+00 0.  1.
<mgrwt>
<rscale>  2 0.72634522E+02</rscale>
<asrwt>0</asrwt>
<pdfrwt beam="1">  1       21 0.31527239E-02 0.72634522E+02</pdfrwt>
<pdfrwt beam="2">  1       21 0.50072425E-01 0.72634522E+02</pdfrwt>
<totfact> 0.21592527E+06</totfact>
</mgrwt>
</event>
<event>
 5    1  0.1994521E+000  0.9822805E+02  0.7546771E-02  0.1284067E+00
         21   -1    0    0  503  502  0.00000000000E+00  0.00000000000E+00  0.62428339944E+03  0.62428339944E+03  0.00000000000E+00 0. -1.
         21   -1    0    0  501  503 -0.00000000000E+00 -0.00000000000E+00 -0.17751556855E+02  0.17751556855E+02  0.00000000000E+00 0.  1.
         24    1    1    2    0    0  0.20887239525E+02 -0.22480456156E+02  0.29488845299E+03  0.30719385304E+03  0.80419002446E+02 0. -1.
          1    1    1    2  501    0  0.42351126784E+01  0.62763674666E+02  0.10158978272E+03  0.11948932584E+03  0.00000000000E+00 0. -1.
         -2    1    1    2    0  502 -0.25122352204E+02 -0.40283218510E+02  0.21005360687E+03  0.21535177741E+03  0.00000000000E+00 0.  1.
<mgrwt>
<rscale>  2 0.98228049E+02</rscale>
<asrwt>0</asrwt>
<pdfrwt beam="1">  1       21 0.96043583E-01 0.98228049E+02</pdfrwt>
<pdfrwt beam="2">  1       21 0.27310092E-02 0.98228049E+02</pdfrwt>
<totfact> 0.67458076E+05</totfact>
</mgrwt>
</event>
<event>
 5    1  0.1994521E+000  0.2527067E+03  0.7546771E-02  0.1111606E+00
         21   -1    0    0  501  502  0.00000000000E+00  0.00000000000E+00  0.74333933043E+03  0.74333933043E+03  0.00000000000E+00 0.  1.
         21   -1    0    0  502  503 -0.00000000000E+00 -0.00000000000E+00 -0.90886953493E+02  0.90886953493E+02  0.00000000000E+00 0.  1.
         24    1    1    2    0    0 -0.97527913618E+02  0.20246690379E+03  0.24779129272E+03  0.34405273109E+03  0.80419002446E+02 0.  1.
          1    1    1    2  501    0 -0.37047188575E+02 -0.61792486396E+02  0.17407734384E+03  0.18839778978E+03  0.00000000000E+00 0. -1.
         -2    1    1    2    0  503  0.13457510219E+03 -0.14067441740E+03  0.23058374037E+03  0.30177576305E+03  0.00000000000E+00 0.  1.
<mgrwt>
<rscale>  2 0.25270670E+03</rscale>
<asrwt>0</asrwt>
<pdfrwt beam="1">  1       21 0.11435989E+00 0.25270670E+03</pdfrwt>
<pdfrwt beam="2">  1       21 0.13982609E-01 0.25270670E+03</pdfrwt>
<totfact> 0.25630919E+04</totfact>
</mgrwt>
</event>
<event>
 5    1  0.1994521E+000  0.7609528E+02  0.7546771E-02  0.1340512E+00
         21   -1    0    0  501  502  0.00000000000E+00  0.00000000000E+00  0.57019932308E+02  0.57019932308E+02  0.00000000000E+00 0. -1.
         21   -1    0    0  502  503 -0.00000000000E+00 -0.00000000000E+00 -0.21093474669E+03  0.21093474669E+03  0.00000000000E+00 0.  1.
         24    1    1    2    0    0  0.28476083189E+00  0.28817248198E+02 -0.24080777911E+02  0.88755927698E+02  0.80419002446E+02 0.  1.
          1    1    1    2  501    0 -0.29432700753E+02 -0.22220648043E+02  0.83565142186E+01  0.37813653658E+02  0.00000000000E+00 0. -1.
         -2    1    1    2    0  503  0.29147939921E+02 -0.65966001548E+01 -0.13819055069E+03  0.14138509764E+03  0.00000000000E+00 0.  1.
<mgrwt>
<rscale>  2 0.76095282E+02</rscale>
<asrwt>0</asrwt>
<pdfrwt beam="1">  1       21 0.87722973E-02 0.76095282E+02</pdfrwt>
<pdfrwt beam="2">  1       21 0.32451499E-01 0.76095282E+02</pdfrwt>
<totfact> 0.92867571E+05</totfact>
</mgrwt>
</event>
<event>
 5    1  0.1994521E+000  0.9581060E+02  0.7546771E-02  0.1289361E+00
         21   -1    0    0  503  502  0.00000000000E+00  0.00000000000E+00  0.11736651274E+04  0.11736651274E+04  0.00000000000E+00 0.  1.
         21   -1    0    0  501  503 -0.00000000000E+00 -0.00000000000E+00 -0.11814062373E+02  0.11814062373E+02  0.00000000000E+00 0.  1.
         24    1    1    2    0    0 -0.94441387228E+00  0.40346198036E+02  0.81620469250E+03  0.82114920911E+03  0.80419002446E+02 0.  1.
          1    1    1    2  501    0  0.39824030817E+02  0.69420242449E+01  0.61028396276E+02  0.73202529213E+02  0.00000000000E+00 0. -1.
         -2    1    1    2    0  502 -0.38879616944E+02 -0.47288222281E+02  0.28461797623E+03  0.29112745143E+03  0.00000000000E+00 0.  1.
<mgrwt>
<rscale>  2 0.95810597E+02</rscale>
<asrwt>0</asrwt>
<pdfrwt beam="1">  1       21 0.18056377E+00 0.95810597E+02</pdfrwt>
<pdfrwt beam="2">  1       21 0.18175490E-02 0.95810597E+02</pdfrwt>
<totfact> 0.27100700E+05</totfact>
</mgrwt>
</event>
<event>
 5    1  0.1994521E+000  0.7553209E+02  0.7546771E-02  0.1342231E+00
         21   -1    0    0  501  502  0.00000000000E+00  0.00000000000E+00  0.83732745041E+02  0.83732745041E+02  0.00000000000E+00 0. -1.
         21   -1    0    0  502  503 -0.00000000000E+00 -0.00000000000E+00 -0.13840322978E+03  0.13840322978E+03  0.00000000000E+00 0.  1.
         24    1    1    2    0    0 -0.27284880360E+02 -0.16632631852E+02 -0.43819897779E+02  0.96997466638E+02  0.80419002446E+02 0.  0.
          1    1    1    2  501    0  0.22883585757E+02  0.37102211165E+02  0.46708358826E+02  0.63889775040E+02  0.00000000000E+00 0. -1.
         -2    1    1    2    0  503  0.44012946027E+01 -0.20469579314E+02 -0.57558945786E+02  0.61248733141E+02  0.00000000000E+00 0.  1.
<mgrwt>
<rscale>  2 0.75532087E+02</rscale>
<asrwt>0</asrwt>
<pdfrwt beam="1">  1       21 0.12881961E-01 0.75532087E+02</pdfrwt>
<pdfrwt beam="2">  1       21 0.21292804E-01 0.75532087E+02</pdfrwt>
<totfact> 0.10508640E+06</totfact>
</mgrwt>
</event>
<event>
 5    1  0.1994521E+000  0.7690516E+02  0.7546771E-02  0.1338071E+00
         21   -1    0    0  501  502  0.00000000000E+00  0.00000000000E+00  0.42508093149E+02  0.42508093149E+02  0.00000000000E+00 0. -1.
         21   -1    0    0  502  503 -0.00000000000E+00 -0.00000000000E+00 -0.20873521015E+03  0.20873521015E+03  0.00000000000E+00 0.  1.
         24    1    1    2    0    0  0.30845863591E+01  0.98984916599E+00 -0.10344345299E+03  0.13106585519E+03  0.80419002446E+02 0.  0.
          1    1    1    2  501    0  0.25295039621E+02  0.24474305472E+02  0.11208686372E+02  0.36938669548E+02  0.00000000000E+00 0. -1.
         -2    1    1    2    0  503 -0.28379625980E+02 -0.25464154638E+02 -0.73992350379E+02  0.83238778564E+02  0.00000000000E+00 0.  1.
<mgrwt>
<rscale>  2 0.76905163E+02</rscale>
<asrwt>0</asrwt>
<pdfrwt beam="1">  1       21 0.65397068E-02 0.76905163E+02</pdfrwt>
<pdfrwt beam="2">  1       21 0.32113109E-01 0.76905163E+02</pdfrwt>
<totfact> 0.15591592E+06</totfact>
</mgrwt>
</event>
<event>
 5    1  0.1994521E+000  0.8071073E+02  0.7546771E-02  0.1327047E+00
         21   -1    0    0  503  502  0.00000000000E+00  0.00000000000E+00  0.10471615699E+03  0.10471615699E+03  0.00000000000E+00 0. -1.
         21   -1    0    0  501  503 -0.00000000000E+00 -0.00000000000E+00 -0.65559931098E+02  0.65559931098E+02  0.00000000000E+00 0.  1.
         24    1    1    2    0    0  0.16183658163E+02 -0.25559236056E+02  0.19794451176E+01  0.85943699575E+02  0.80419002446E+02 0.  1.
          1    1    1    2  501    0 -0.29747097712E+01  0.48734550548E+02  0.21120281641E+02  0.53197477496E+02  0.00000000000E+00 0. -1.
         -2    1    1    2    0  502 -0.13208948392E+02 -0.23175314492E+02  0.16056499129E+02  0.31134911012E+02  0.00000000000E+00 0.  1.
<mgrwt>
<rscale>  2 0.80710726E+02</rscale>
<asrwt>0</asrwt>
<pdfrwt beam="1">  1       21 0.16110178E-01 0.80710726E+02</pdfrwt>
<pdfrwt beam="2">  1       21 0.10086143E-01 0.80710726E+02</pdfrwt>
<totfact> 0.26724700E+06</totfact>
</mgrwt>
</event>
<event>
 5    1  0.1994521E+000  0.7893251E+02  0.7546771E-02  0.1332108E+00
         21   -1    0    0  501  502  0.00000000000E+00  0.00000000000E+00  0.25989213514E+03  0.25989213514E+03  0.00000000000E+00 0. -1.
         21   -1    0    0  502  503 -0.00000000000E+00 -0.00000000000E+00 -0.57992443204E+02  0.57992443204E+02  0.00000000000E+00 0.  1.
         24    1    1    2    0    0  0.73838688956E+01 -0.10587726296E+02  0.53056469772E+02  0.97205073978E+02  0.80419002446E+02 0. -1.
          1    1    1    2  501    0 -0.17736476614E+01  0.43244813393E+02  0.17385653839E+03  0.17916293046E+03  0.00000000000E+00 0. -1.
         -2    1    1    2    0  503 -0.56102212341E+01 -0.32657087097E+02 -0.25013316226E+02  0.41516573902E+02  0.00000000000E+00 0.  1.
<mgrwt>
<rscale>  2 0.78932511E+02</rscale>
<asrwt>0</asrwt>
<pdfrwt beam="1">  1       21 0.39983405E-01 0.78932511E+02</pdfrwt>
<pdfrwt beam="2">  1       21 0.89219145E-02 0.78932511E+02</pdfrwt>
<totfact> 0.60169170E+05</totfact>
</mgrwt>
</event>
<event>
 5    1  0.2016008E+000  0.1006550E+03  0.7546771E-02  0.1278925E+00
         21   -1    0    0  501  502  0.00000000000E+00  0.00000000000E+00  0.12146656435E+03  0.12146656435E+03  0.00000000000E+00 0.  1.
         21   -1    0    0  502  503 -0.00000000000E+00 -0.00000000000E+00 -0.24559789404E+03  0.24559789404E+03  0.00000000000E+00 0.  1.
         24    1    1    2    0    0  0.29667019482E+02 -0.50679155726E+02  0.73470287743E+02  0.12374816364E+03  0.80419002446E+02 0.  1.
          1    1    1    2  501    0 -0.26265857061E+02 -0.18717221728E+02  0.16534563016E+01  0.32294946263E+02  0.00000000000E+00 0. -1.
         -2    1    1    2    0  503 -0.34011624203E+01  0.69396377454E+02 -0.19925507374E+03  0.21102134849E+03  0.00000000000E+00 0.  1.
<mgrwt>
<rscale>  2 0.10065500E+03</rscale>
<asrwt>0</asrwt>
<pdfrwt beam="1">  1       21 0.18687164E-01 0.10065500E+03</pdfrwt>
<pdfrwt beam="2">  1       21 0.37784291E-01 0.10065500E+03</pdfrwt>
<totfact> 0.18180199E+05</totfact>
</mgrwt>
</event>
<event>
 5    1  0.1994521E+000  0.6506512E+02  0.7546771E-02  0.1377727E+00
         21   -1    0    0  503  502  0.00000000000E+00  0.00000000000E+00  0.10699073121E+03  0.10699073121E+03  0.00000000000E+00 0. -1.
         21   -1    0    0  501  503 -0.00000000000E+00 -0.00000000000E+00 -0.45146477450E+02  0.45146477450E+02  0.00000000000E+00 0.  1.
         24    1    1    2    0    0 -0.73582463850E+01 -0.68293440639E+01  0.25787843167E+02  0.85047119527E+02  0.80419002446E+02 0.  1.
          1    1    1    2  501    0  0.22981321247E+02 -0.10917890296E+02  0.18536200519E+01  0.25510338337E+02  0.00000000000E+00 0. -1.
         -2    1    1    2    0  502 -0.15623074862E+02  0.17747234360E+02  0.34202790543E+02  0.41579750799E+02  0.00000000000E+00 0.  1.
<mgrwt>
<rscale>  2 0.65065115E+02</rscale>
<asrwt>0</asrwt>
<pdfrwt beam="1">  1       21 0.16460112E-01 0.65065115E+02</pdfrwt>
<pdfrwt beam="2">  1       21 0.69456120E-02 0.65065115E+02</pdfrwt>
<totfact> 0.47859773E+06</totfact>
</mgrwt>
</event>
<event>
 5    1  0.1994521E+000  0.6258317E+02  0.7546771E-02  0.1387300E+00
         21   -1    0    0  503  502  0.00000000000E+00  0.00000000000E+00  0.36369369008E+02  0.36369369008E+02  0.00000000000E+00 0.  1.
         21   -1    0    0  501  503 -0.00000000000E+00 -0.00000000000E+00 -0.27344383708E+03  0.27344383708E+03  0.00000000000E+00 0. -1.
         24    1    1    2    0    0  0.70124438018E+01  0.53550841986E+00 -0.15653296721E+02  0.82229573694E+02  0.80419002446E+02 0.  0.
          1    1    1    2  501    0 -0.25491604301E+01 -0.22187353939E+02 -0.17199274982E+03  0.17343668264E+03  0.00000000000E+00 0. -1.
         -2    1    1    2    0  502 -0.44632833717E+01  0.21651845519E+02 -0.49428421525E+02  0.54146949750E+02  0.00000000000E+00 0.  1.
<mgrwt>
<rscale>  2 0.62583170E+02</rscale>
<asrwt>0</asrwt>
<pdfrwt beam="1">  1       21 0.55952875E-02 0.62583170E+02</pdfrwt>
<pdfrwt beam="2">  1       21 0.42068283E-01 0.62583170E+02</pdfrwt>
<totfact> 0.11884112E+06</totfact>
</mgrwt>
</event>
<event>
 5    1  0.1994521E+000  0.1406908E+03  0.7546771E-02  0.1212403E+00
         21   -1    0    0  501  502  0.00000000000E+00  0.00000000000E+00  0.38710349918E+02  0.38710349918E+02  0.00000000000E+00 0. -1.
         21   -1    0    0  502  503 -0.00000000000E+00 -0.00000000000E+00 -0.67707141075E+03  0.67707141075E+03  0.00000000000E+00 0.  1.
         24    1    1    2    0    0  0.60642357948E+02 -0.75156196178E+02 -0.12777408710E+03  0.17921881232E+03  0.80419002446E+02 0. -1.
          1    1    1    2  501    0 -0.98090048926E+02  0.46484067045E+02 -0.26292821272E+03  0.28445328480E+03  0.00000000000E+00 0. -1.
         -2    1    1    2    0  503  0.37447690978E+02  0.28672129133E+02 -0.24765876101E+03  0.25210966355E+03  0.00000000000E+00 0.  1.
<mgrwt>
<rscale>  2 0.14069075E+03</rscale>
<asrwt>0</asrwt>
<pdfrwt beam="1">  1       21 0.59554388E-02 0.14069075E+03</pdfrwt>
<pdfrwt beam="2">  1       21 0.10416483E+00 0.14069075E+03</pdfrwt>
<totfact> 0.15159019E+05</totfact>
</mgrwt>
</event>
<event>
 5    1  0.1994521E+000  0.7830326E+02  0.7546771E-02  0.1333937E+00
         21   -1    0    0  503  502  0.00000000000E+00  0.00000000000E+00  0.17245083145E+04  0.17245083145E+04  0.00000000000E+00 0.  1.
         21   -1    0    0  501  503 -0.00000000000E+00 -0.00000000000E+00 -0.68766010258E+01  0.68766010258E+01  0.00000000000E+00 0. -1.
         24    1    1    2    0    0  0.88039572917E+01  0.24023617960E+01  0.92015819782E+03  0.92371078048E+03  0.80419002446E+02 0.  0.
          1    1    1    2  501    0 -0.29452086400E+01  0.36354796791E+02  0.68137839947E+02  0.77285902572E+02  0.00000000000E+00 0. -1.
         -2    1    1    2    0  502 -0.58587486517E+01 -0.38757158587E+02  0.72933567572E+03  0.73038823248E+03  0.00000000000E+00 0.  1.
<mgrwt>
<rscale>  2 0.78303260E+02</rscale>
<asrwt>0</asrwt>
<pdfrwt beam="1">  1       21 0.26530863E+00 0.78303260E+02</pdfrwt>
<pdfrwt beam="2">  1       21 0.10579400E-02 0.78303260E+02</pdfrwt>
<totfact> 0.20499187E+05</totfact>
</mgrwt>
</event>
<event>
 5    1  0.1994521E+000  0.9008746E+02  0.7546771E-02  0.1302640E+00
         21   -1    0    0  501  502  0.00000000000E+00  0.00000000000E+00  0.12698103844E+03  0.12698103844E+03  0.00000000000E+00 0. -1.
         21   -1    0    0  502  503 -0.00000000000E+00 -0.00000000000E+00 -0.89211508114E+02  0.89211508114E+02  0.00000000000E+00 0.  1.
         24    1    1    2    0    0  0.16085411528E+01 -0.35155742076E+02  0.55484337062E+02  0.10384720131E+03  0.80419002446E+02 0.  0.
          1    1    1    2  501    0  0.36806909941E+02 -0.46188473279E+01  0.23025786902E+02  0.43660843241E+02  0.00000000000E+00 0. -1.
         -2    1    1    2    0  503 -0.38415451094E+02  0.39774589404E+02 -0.40740593642E+02  0.68684502003E+02  0.00000000000E+00 0.  1.
<mgrwt>
<rscale>  2 0.90087465E+02</rscale>
<asrwt>0</asrwt>
<pdfrwt beam="1">  1       21 0.19535545E-01 0.90087465E+02</pdfrwt>
<pdfrwt beam="2">  1       21 0.13724847E-01 0.90087465E+02</pdfrwt>
<totfact> 0.11048409E+06</totfact>
</mgrwt>
</event>
<event>
 5    1  0.1994521E+000  0.6891578E+02  0.7546771E-02  0.1363819E+00
         21   -1    0    0  503  502  0.00000000000E+00  0.00000000000E+00  0.10280679781E+03  0.10280679781E+03  0.00000000000E+00 0.  1.
         21   -1    0    0  501  503 -0.00000000000E+00 -0.00000000000E+00 -0.36018024297E+03  0.36018024297E+03  0.00000000000E+00 0. -1.
         24    1    1    2    0    0 -0.26997795610E+02  0.10162532186E+01 -0.28262388216E+03  0.29508200294E+03  0.80419002446E+02 0.  1.
          1    1    1    2  501    0  0.14893807982E+02  0.22246789068E+02 -0.66920084662E+02  0.72076645810E+02  0.00000000000E+00 0. -1.
         -2    1    1    2    0  502  0.12103987629E+02 -0.23263042286E+02  0.92170521667E+02  0.95828392021E+02  0.00000000000E+00 0.  1.
<mgrwt>
<rscale>  2 0.68915783E+02</rscale>
<asrwt>0</asrwt>
<pdfrwt beam="1">  1       21 0.15816431E-01 0.68915783E+02</pdfrwt>
<pdfrwt beam="2">  1       21 0.55412344E-01 0.68915783E+02</pdfrwt>
<totfact> 0.11516404E+05</totfact>
</mgrwt>
</event>
<event>
 5    1  0.1994521E+000  0.1054568E+03  0.7546771E-02  0.1269222E+00
         21   -1    0    0  503  502  0.00000000000E+00  0.00000000000E+00  0.21311419643E+03  0.21311419643E+03  0.00000000000E+00 0.  1.
         21   -1    0    0  501  503 -0.00000000000E+00 -0.00000000000E+00 -0.51224783697E+03  0.51224783697E+03  0.00000000000E+00 0. -1.
         24    1    1    2    0    0 -0.50798241188E+02 -0.74331794212E+02 -0.14026169491E+03  0.18505738557E+03  0.80419002446E+02 0.  1.
          1    1    1    2  501    0  0.12585110636E+02  0.22777954779E+02 -0.34368429993E+03  0.34466812770E+03  0.00000000000E+00 0. -1.
         -2    1    1    2    0  502  0.38213130553E+02  0.51553839433E+02  0.18481235430E+03  0.19563652014E+03  0.00000000000E+00 0.  1.
<mgrwt>
<rscale>  2 0.10545683E+03</rscale>
<asrwt>0</asrwt>
<pdfrwt beam="1">  1       21 0.32786800E-01 0.10545683E+03</pdfrwt>
<pdfrwt beam="2">  1       21 0.78807359E-01 0.10545683E+03</pdfrwt>
<totfact> 0.13637573E+04</totfact>
</mgrwt>
</event>
<event>
 5    1  0.1994521E+000  0.7359116E+02  0.7546771E-02  0.1348290E+00
         21   -1    0    0  501  502  0.00000000000E+00  0.00000000000E+00  0.53169254114E+02  0.53169254114E+02  0.00000000000E+00 0.  1.
         21   -1    0    0  502  503 -0.00000000000E+00 -0.00000000000E+00 -0.11825815462E+03  0.11825815462E+03  0.00000000000E+00 0. -1.
         24    1    1    2    0    0 -0.12478598613E+02 -0.14993027818E+02 -0.30538016695E+02  0.88205967624E+02  0.80419002446E+02 0.  0.
          1    1    1    2  501    0 -0.24321718442E+02  0.12997853195E+02  0.62122394554E+01  0.28268040164E+02  0.00000000000E+00 0. -1.
         -2    1    1    2    0  503  0.36800317055E+02  0.19951746232E+01 -0.40763123271E+02  0.54953400950E+02  0.00000000000E+00 0.  1.
<mgrwt>
<rscale>  2 0.73591157E+02</rscale>
<asrwt>0</asrwt>
<pdfrwt beam="1">  1       21 0.81798853E-02 0.73591157E+02</pdfrwt>
<pdfrwt beam="2">  1       21 0.18193562E-01 0.73591157E+02</pdfrwt>
<totfact> 0.30603475E+06</totfact>
</mgrwt>
</event>
<event>
 5    1  0.1994521E+000  0.6871403E+02  0.7546771E-02  0.1364521E+00
         21   -1    0    0  501  502  0.00000000000E+00  0.00000000000E+00  0.14950118748E+03  0.14950118748E+03  0.00000000000E+00 0. -1.
         21   -1    0    0  502  503 -0.00000000000E+00 -0.00000000000E+00 -0.10856550559E+03  0.10856550559E+03  0.00000000000E+00 0. -1.
         24    1    1    2    0    0  0.84764908076E+01  0.67554905699E+01 -0.33856590290E+02  0.87925947306E+02  0.80419002446E+02 0. -1.
          1    1    1    2  501    0  0.23323064147E+02  0.16769506871E+01  0.11547603977E+03  0.11781974896E+03  0.00000000000E+00 0. -1.
         -2    1    1    2    0  503 -0.31799554954E+02 -0.84324412569E+01 -0.40683767592E+02  0.52320996802E+02  0.00000000000E+00 0.  1.
<mgrwt>
<rscale>  2 0.68714029E+02</rscale>
<asrwt>0</asrwt>
<pdfrwt beam="1">  1       21 0.23000183E-01 0.68714029E+02</pdfrwt>
<pdfrwt beam="2">  1       21 0.16702385E-01 0.68714029E+02</pdfrwt>
<totfact> 0.57469511E+05</totfact>
</mgrwt>
</event>
<event>
 5    1  0.1994521E+000  0.1071197E+03  0.7546771E-02  0.1265999E+00
         21   -1    0    0  503  502  0.00000000000E+00  0.00000000000E+00  0.76341427870E+02  0.76341427870E+02  0.00000000000E+00 0. -1.
         21   -1    0    0  501  503 -0.00000000000E+00 -0.00000000000E+00 -0.17495050323E+03  0.17495050323E+03  0.00000000000E+00 0.  1.
         24    1    1    2    0    0 -0.11112084264E+02 -0.63516361399E+02 -0.47926645450E+02  0.11367491315E+03  0.80419002446E+02 0. -1.
          1    1    1    2  501    0 -0.24056217698E+02 -0.12714521237E+02 -0.46111045834E+02  0.53540537989E+02  0.00000000000E+00 0. -1.
         -2    1    1    2    0  502  0.35168301962E+02  0.76230882636E+02 -0.45713840808E+01  0.84076479962E+02  0.00000000000E+00 0.  1.
<mgrwt>
<rscale>  2 0.10711972E+03</rscale>
<asrwt>0</asrwt>
<pdfrwt beam="1">  1       21 0.11744835E-01 0.10711972E+03</pdfrwt>
<pdfrwt beam="2">  1       21 0.26915462E-01 0.10711972E+03</pdfrwt>
<totfact> 0.80365671E+05</totfact>
</mgrwt>
</event>
<event>
 5    1  0.1994521E+000  0.1024288E+03  0.7546771E-02  0.1275270E+00
         21   -1    0    0  501  502  0.00000000000E+00  0.00000000000E+00  0.25301766145E+04  0.25301766145E+04  0.00000000000E+00 0.  1.
         21   -1    0    0  502  503 -0.00000000000E+00 -0.00000000000E+00 -0.68274372047E+01  0.68274372047E+01  0.00000000000E+00 0.  1.
         24    1    1    2    0    0  0.57447370771E+02  0.19148305257E+02  0.46314966454E+03  0.47396380212E+03  0.80419002446E+02 0.  1.
          1    1    1    2  501    0  0.11062468048E+02  0.21749222728E+02  0.76238235337E+03  0.76277274441E+03  0.00000000000E+00 0. -1.
         -2    1    1    2    0  503 -0.68509838819E+02 -0.40897527985E+02  0.12978171594E+04  0.13002675052E+04  0.00000000000E+00 0.  1.
<mgrwt>
<rscale>  2 0.10242880E+03</rscale>
<asrwt>0</asrwt>
<pdfrwt beam="1">  1       21 0.38925719E+00 0.10242880E+03</pdfrwt>
<pdfrwt beam="2">  1       21 0.10503770E-02 0.10242880E+03</pdfrwt>
<totfact> 0.40232014E+04</totfact>
</mgrwt>
</event>
<event>
 5    1  0.2330558E+000  0.9060471E+02  0.7546771E-02  0.1301394E+00
         21   -1    0    0  501  502  0.00000000000E+00  0.00000000000E+00  0.20142173643E+03  0.20142173643E+03  0.00000000000E+00 0. -1.
         21   -1    0    0  502  503 -0.00000000000E+00 -0.00000000000E+00 -0.17871600803E+03  0.17871600803E+03  0.00000000000E+00 0.  1.
         24    1    1    2    0    0 -0.12144546282E+01 -0.68459405663E+00  0.66725789944E+02  0.10450593556E+03  0.80419002446E+02 0.  0.
          1    1    1    2  501    0  0.47994665396E+02  0.17473729809E+02  0.10596158931E+03  0.11762940767E+03  0.00000000000E+00 0. -1.
         -2    1    1    2    0  503 -0.46780210768E+02 -0.16789135752E+02 -0.14998165085E+03  0.15800240122E+03  0.00000000000E+00 0.  1.
<mgrwt>
<rscale>  2 0.90604714E+02</rscale>
<asrwt>0</asrwt>
<pdfrwt beam="1">  1       21 0.30987959E-01 0.90604714E+02</pdfrwt>
<pdfrwt beam="2">  1       21 0.27494771E-01 0.90604714E+02</pdfrwt>
<totfact> 0.13098881E+05</totfact>
</mgrwt>
</event>
<event>
 5    1  0.1994521E+000  0.6202897E+02  0.7546771E-02  0.1389509E+00
         21   -1    0    0  503  502  0.00000000000E+00  0.00000000000E+00  0.13917145178E+03  0.13917145178E+03  0.00000000000E+00 0.  1.
         21   -1    0    0  501  503 -0.00000000000E+00 -0.00000000000E+00 -0.57897973957E+02  0.57897973957E+02  0.00000000000E+00 0.  1.
         24    1    1    2    0    0  0.34201018380E+01 -0.14026828308E+01 -0.20023357385E+02  0.82956708053E+02  0.80419002446E+02 0.  1.
          1    1    1    2  501    0 -0.23094573079E+02 -0.32897929038E+01  0.21268266209E+02  0.31567723874E+02  0.00000000000E+00 0. -1.
         -2    1    1    2    0  502  0.19674471241E+02  0.46924757346E+01  0.80028569001E+02  0.82544993812E+02  0.00000000000E+00 0.  1.
<mgrwt>
<rscale>  2 0.62028975E+02</rscale>
<asrwt>0</asrwt>
<pdfrwt beam="1">  1       21 0.21410992E-01 0.62028975E+02</pdfrwt>
<pdfrwt beam="2">  1       21 0.89073807E-02 0.62028975E+02</pdfrwt>
<totfact> 0.19518024E+06</totfact>
</mgrwt>
</event>
<event>
 5    1  0.1994521E+000  0.8741652E+02  0.7546771E-02  0.1309231E+00
         21   -1    0    0  501  502  0.00000000000E+00  0.00000000000E+00  0.16383934824E+03  0.16383934824E+03  0.00000000000E+00 0. -1.
         21   -1    0    0  502  503 -0.00000000000E+00 -0.00000000000E+00 -0.19718167728E+03  0.19718167728E+03  0.00000000000E+00 0.  1.
         24    1    1    2    0    0 -0.24322609422E+02 -0.52682643962E+02 -0.36471907703E+02  0.10566203817E+03  0.80419002446E+02 0. -1.
          1    1    1    2  501    0  0.33879278740E+02  0.15468470394E+02  0.12350614755E+03  0.12899940925E+03  0.00000000000E+00 0. -1.
         -2    1    1    2    0  503 -0.95566693182E+01  0.37214173569E+02 -0.12037656888E+03  0.12635957810E+03  0.00000000000E+00 0.  1.
<mgrwt>
<rscale>  2 0.87416524E+02</rscale>
<asrwt>0</asrwt>
<pdfrwt beam="1">  1       21 0.25206054E-01 0.87416524E+02</pdfrwt>
<pdfrwt beam="2">  1       21 0.30335643E-01 0.87416524E+02</pdfrwt>
<totfact> 0.16085582E+05</totfact>
</mgrwt>
</event>
<event>
 5    1  0.1994521E+000  0.8091289E+02  0.7546771E-02  0.1326481E+00
         21   -1    0    0  501  502  0.00000000000E+00  0.00000000000E+00  0.18718073656E+04  0.18718073656E+04  0.00000000000E+00 0. -1.
         21   -1    0    0  502  503 -0.00000000000E+00 -0.00000000000E+00 -0.15957396098E+02  0.15957396098E+02  0.00000000000E+00 0.  1.
         24    1    1    2    0    0 -0.49704382960E+01  0.28215694304E+02  0.11765848917E+03  0.14536700688E+03  0.80419002446E+02 0.  1.
          1    1    1    2  501    0  0.86191172360E+01 -0.51839834233E+02  0.16551541688E+04  0.16559882185E+04  0.00000000000E+00 0. -1.
         -2    1    1    2    0  503 -0.36486789400E+01  0.23624139930E+02  0.83037311603E+02  0.86409536301E+02  0.00000000000E+00 0.  1.
<mgrwt>
<rscale>  2 0.80912888E+02</rscale>
<asrwt>0</asrwt>
<pdfrwt beam="1">  1       21 0.28797019E+00 0.80912888E+02</pdfrwt>
<pdfrwt beam="2">  1       21 0.24549855E-02 0.80912888E+02</pdfrwt>
<totfact> 0.40529002E+04</totfact>
</mgrwt>
</event>
<event>
 5    1  0.1994521E+000  0.1100844E+03  0.7546771E-02  0.1260414E+00
         21   -1    0    0  501  502  0.00000000000E+00  0.00000000000E+00  0.15103503627E+03  0.15103503627E+03  0.00000000000E+00 0. -1.
         21   -1    0    0  502  503 -0.00000000000E+00 -0.00000000000E+00 -0.12110675449E+03  0.12110675449E+03  0.00000000000E+00 0.  1.
         24    1    1    2    0    0  0.67024791237E+02  0.57669335454E+02  0.24095407698E+02  0.12192571311E+03  0.80419002446E+02 0.  0.
          1    1    1    2  501    0 -0.31327949881E+02 -0.56886340725E+02  0.57951779702E+02  0.87039674721E+02  0.00000000000E+00 0. -1.
         -2    1    1    2    0  503 -0.35696841356E+02 -0.78299472886E+00 -0.52118905615E+02  0.63176402921E+02  0.00000000000E+00 0.  1.
<mgrwt>
<rscale>  2 0.11008439E+03</rscale>
<asrwt>0</asrwt>
<pdfrwt beam="1">  1       21 0.23236159E-01 0.11008439E+03</pdfrwt>
<pdfrwt beam="2">  1       21 0.18631809E-01 0.11008439E+03</pdfrwt>
<totfact> 0.46327622E+05</totfact>
</mgrwt>
</event>
<event>
 5    1  0.1994521E+000  0.9330863E+02  0.7546771E-02  0.1295032E+00
         21   -1    0    0  503  502  0.00000000000E+00  0.00000000000E+00  0.44893841894E+02  0.44893841894E+02  0.00000000000E+00 0.  1.
         21   -1    0    0  501  503 -0.00000000000E+00 -0.00000000000E+00 -0.84046032676E+03  0.84046032676E+03  0.00000000000E+00 0.  1.
         24    1    1    2    0    0  0.42519849382E+02 -0.61408642086E+02 -0.39652968613E+03  0.41143889808E+03  0.80419002446E+02 0.  1.
          1    1    1    2  501    0 -0.12496033437E+02  0.33945474224E+02 -0.42441914034E+03  0.42595780631E+03  0.00000000000E+00 0. -1.
         -2    1    1    2    0  502 -0.30023815945E+02  0.27463167862E+02  0.25382341607E+02  0.47957464261E+02  0.00000000000E+00 0.  1.
<mgrwt>
<rscale>  2 0.93308629E+02</rscale>
<asrwt>0</asrwt>
<pdfrwt beam="1">  1       21 0.69067463E-02 0.93308629E+02</pdfrwt>
<pdfrwt beam="2">  1       21 0.12930156E+00 0.93308629E+02</pdfrwt>
<totfact> 0.71748053E+04</totfact>
</mgrwt>
</event>
<event>
 5    1  0.1994521E+000  0.9198449E+02  0.7546771E-02  0.1298116E+00
         21   -1    0    0  503  502  0.00000000000E+00  0.00000000000E+00  0.36904770254E+03  0.36904770254E+03  0.00000000000E+00 0.  1.
         21   -1    0    0  501  503 -0.00000000000E+00 -0.00000000000E+00 -0.55436384178E+02  0.55436384178E+02  0.00000000000E+00 0.  1.
         24    1    1    2    0    0 -0.55910661485E+01  0.73713944563E+02  0.78340284744E+01  0.10951526652E+03  0.80419002446E+02 0.  1.
          1    1    1    2  501    0 -0.32850347558E+01 -0.25425121938E+02  0.84160022178E+02  0.87978051876E+02  0.00000000000E+00 0. -1.
         -2    1    1    2    0  502  0.88761009043E+01 -0.48288822625E+02  0.22161726771E+03  0.22699076833E+03  0.00000000000E+00 0.  1.
<mgrwt>
<rscale>  2 0.91984494E+02</rscale>
<asrwt>0</asrwt>
<pdfrwt beam="1">  1       21 0.56776568E-01 0.91984494E+02</pdfrwt>
<pdfrwt beam="2">  1       21 0.85286747E-02 0.91984494E+02</pdfrwt>
<totfact> 0.31936496E+05</totfact>
</mgrwt>
</event>
<event>
 5    1  0.1994521E+000  0.7828984E+02  0.7546771E-02  0.1333976E+00
         21   -1    0    0  503  502  0.00000000000E+00  0.00000000000E+00  0.23115900200E+04  0.23115900200E+04  0.00000000000E+00 0. -1.
         21   -1    0    0  501  503 -0.00000000000E+00 -0.00000000000E+00 -0.27527469128E+01  0.27527469128E+01  0.00000000000E+00 0. -1.
         24    1    1    2    0    0  0.23820784820E+02 -0.62190364130E+01  0.13428599546E+04  0.13454910553E+04  0.80419002446E+02 0.  1.
          1    1    1    2  501    0  0.23825464208E+02  0.69713714812E+01  0.23067046161E+03  0.23200240220E+03  0.00000000000E+00 0. -1.
         -2    1    1    2    0  502 -0.47646249028E+02 -0.75233506822E+00  0.73530685687E+03  0.73684930943E+03  0.00000000000E+00 0.  1.
<mgrwt>
<rscale>  2 0.78289836E+02</rscale>
<asrwt>0</asrwt>
<pdfrwt beam="1">  1       21 0.35562768E+00 0.78289836E+02</pdfrwt>
<pdfrwt beam="2">  1       21 0.42350137E-03 0.78289836E+02</pdfrwt>
<totfact> 0.26894794E+05</totfact>
</mgrwt>
</event>
<event>
 5    1  0.1994521E+000  0.6421828E+02  0.7546771E-02  0.1380936E+00
         21   -1    0    0  501  502  0.00000000000E+00  0.00000000000E+00  0.78130772153E+02  0.78130772153E+02  0.00000000000E+00 0.  1.
         21   -1    0    0  502  503 -0.00000000000E+00 -0.00000000000E+00 -0.74460015034E+02  0.74460015034E+02  0.00000000000E+00 0. -1.
         24    1    1    2    0    0 -0.17678439877E+02 -0.29754763008E+02 -0.15330837786E+02  0.88882640036E+02  0.80419002446E+02 0.  0.
          1    1    1    2  501    0 -0.35706154668E+00  0.20703828344E+02  0.33134079473E+02  0.39072282037E+02  0.00000000000E+00 0. -1.
         -2    1    1    2    0  503  0.18035501424E+02  0.90509346637E+01 -0.14132484568E+02  0.24635865115E+02  0.00000000000E+00 0.  1.
<mgrwt>
<rscale>  2 0.64218284E+02</rscale>
<asrwt>0</asrwt>
<pdfrwt beam="1">  1       21 0.12020119E-01 0.64218284E+02</pdfrwt>
<pdfrwt beam="2">  1       21 0.11455387E-01 0.64218284E+02</pdfrwt>
<totfact> 0.35437208E+06</totfact>
</mgrwt>
</event>
<event>
 5    1  0.1994521E+000  0.8920881E+02  0.7546771E-02  0.1304779E+00
         21   -1    0    0  503  502  0.00000000000E+00  0.00000000000E+00  0.13019208241E+02  0.13019208241E+02  0.00000000000E+00 0.  1.
         21   -1    0    0  501  503 -0.00000000000E+00 -0.00000000000E+00 -0.63620627940E+03  0.63620627940E+03  0.00000000000E+00 0.  1.
         24    1    1    2    0    0  0.34916526361E+02 -0.45887491489E+02 -0.32248447253E+03  0.33732517941E+03  0.80419002446E+02 0.  1.
          1    1    1    2  501    0  0.13966012807E+02  0.19283458304E+02 -0.13548415636E+03  0.13756037912E+03  0.00000000000E+00 0. -1.
         -2    1    1    2    0  502 -0.48882539168E+02  0.26604033185E+02 -0.16521844228E+03  0.17433992912E+03  0.00000000000E+00 0.  1.
<mgrwt>
<rscale>  2 0.89208811E+02</rscale>
<asrwt>0</asrwt>
<pdfrwt beam="1">  1       21 0.20029553E-02 0.89208811E+02</pdfrwt>
<pdfrwt beam="2">  1       21 0.97877881E-01 0.89208811E+02</pdfrwt>
<totfact> 0.10640382E+06</totfact>
</mgrwt>
</event>
<event>
 5    1  0.1994521E+000  0.8266105E+02  0.7546771E-02  0.1321665E+00
         21   -1    0    0  501  502  0.00000000000E+00  0.00000000000E+00  0.67117819908E+02  0.67117819908E+02  0.00000000000E+00 0. -1.
         21   -1    0    0  502  503 -0.00000000000E+00 -0.00000000000E+00 -0.26193860541E+03  0.26193860541E+03  0.00000000000E+00 0.  1.
         24    1    1    2    0    0  0.19333235894E+02 -0.34505237859E+02 -0.12221890335E+03  0.15155547413E+03  0.80419002446E+02 0. -1.
          1    1    1    2  501    0 -0.33624863216E+01  0.51945900109E+02  0.37968147513E+02  0.64430296274E+02  0.00000000000E+00 0. -1.
         -2    1    1    2    0  503 -0.15970749572E+02 -0.17440662250E+02 -0.11057002967E+03  0.11307065492E+03  0.00000000000E+00 0.  1.
<mgrwt>
<rscale>  2 0.82661052E+02</rscale>
<asrwt>0</asrwt>
<pdfrwt beam="1">  1       21 0.10325818E-01 0.82661052E+02</pdfrwt>
<pdfrwt beam="2">  1       21 0.40298248E-01 0.82661052E+02</pdfrwt>
<totfact> 0.46064190E+05</totfact>
</mgrwt>
</event>
<event>
 5    1  0.1994521E+000  0.9081295E+02  0.7546771E-02  0.1300895E+00
         21   -1    0    0  503  502  0.00000000000E+00  0.00000000000E+00  0.11012587625E+03  0.11012587625E+03  0.00000000000E+00 0.  1.
         21   -1    0    0  501  503 -0.00000000000E+00 -0.00000000000E+00 -0.81682123177E+02  0.81682123177E+02  0.00000000000E+00 0. -1.
         24    1    1    2    0    0 -0.49018492142E+02  0.31294545479E+02  0.25544959487E+02  0.10247888591E+03  0.80419002446E+02 0.  0.
          1    1    1    2  501    0 -0.78691985423E+01 -0.23721069080E+02 -0.15079835259E+02  0.29189293164E+02  0.00000000000E+00 0. -1.
         -2    1    1    2    0  502  0.56887690685E+02 -0.75734763992E+01  0.17978628842E+02  0.60139820346E+02  0.00000000000E+00 0.  1.
<mgrwt>
<rscale>  2 0.90812951E+02</rscale>
<asrwt>0</asrwt>
<pdfrwt beam="1">  1       21 0.16942443E-01 0.90812951E+02</pdfrwt>
<pdfrwt beam="2">  1       21 0.12566480E-01 0.90812951E+02</pdfrwt>
<totfact> 0.16722942E+06</totfact>
</mgrwt>
</event>
<event>
 5    1  0.1994521E+000  0.1156760E+03  0.7546771E-02  0.1250406E+00
         21   -1    0    0  501  502  0.00000000000E+00  0.00000000000E+00  0.75057968563E+02  0.75057968563E+02  0.00000000000E+00 0.  1.
         21   -1    0    0  502  503 -0.00000000000E+00 -0.00000000000E+00 -0.18135982966E+03  0.18135982966E+03  0.00000000000E+00 0. -1.
         24    1    1    2    0    0 -0.50216572060E+02 -0.26040974523E+02 -0.33716159581E+02  0.10394148274E+03  0.80419002446E+02 0.  0.
          1    1    1    2  501    0 -0.21956107348E+02  0.51909706322E+02 -0.21383377133E+02  0.60282145598E+02  0.00000000000E+00 0. -1.
         -2    1    1    2    0  503  0.72172679408E+02 -0.25868731799E+02 -0.51202324378E+02  0.92194169878E+02  0.00000000000E+00 0.  1.
<mgrwt>
<rscale>  2 0.11567598E+03</rscale>
<asrwt>0</asrwt>
<pdfrwt beam="1">  1       21 0.11547380E-01 0.11567598E+03</pdfrwt>
<pdfrwt beam="2">  1       21 0.27901512E-01 0.11567598E+03</pdfrwt>
<totfact> 0.77358870E+05</totfact>
</mgrwt>
</event>
<event>
 5    1  0.1994521E+000  0.8648630E+02  0.7546771E-02  0.1311591E+00
         21   -1    0    0  503  502  0.00000000000E+00  0.00000000000E+00  0.20797329648E+03  0.20797329648E+03  0.00000000000E+00 0. -1.
         21   -1    0    0  501  503 -0.00000000000E+00 -0.00000000000E+00 -0.14756253402E+03  0.14756253402E+03  0.00000000000E+00 0. -1.
         24    1    1    2    0    0  0.25446474485E+02 -0.27641897580E+02  0.88394513729E+02  0.12526932417E+03  0.80419002446E+02 0. -1.
          1    1    1    2  501    0 -0.13164367391E+01 -0.25663539191E+02 -0.11917674224E+03  0.12191573377E+03  0.00000000000E+00 0. -1.
         -2    1    1    2    0  502 -0.24130037746E+02  0.53305436771E+02  0.91192990979E+02  0.10835077256E+03  0.00000000000E+00 0.  1.
<mgrwt>
<rscale>  2 0.86486298E+02</rscale>
<asrwt>0</asrwt>
<pdfrwt beam="1">  1       21 0.31995892E-01 0.86486298E+02</pdfrwt>
<pdfrwt beam="2">  1       21 0.22701928E-01 0.86486298E+02</pdfrwt>
<totfact> 0.17652080E+05</totfact>
</mgrwt>
</event>
<event>
 5    1  0.1994521E+000  0.9450393E+02  0.7546771E-02  0.1292297E+00
         21   -1    0    0  501  502  0.00000000000E+00  0.00000000000E+00  0.92979272094E+01  0.92979272094E+01  0.00000000000E+00 0. -1.
         21   -1    0    0  502  503 -0.00000000000E+00 -0.00000000000E+00 -0.33868191725E+04  0.33868191725E+04  0.00000000000E+00 0.  1.
         24    1    1    2    0    0  0.35608021048E+02 -0.29796392779E+02 -0.79940092165E+03  0.80477624572E+03  0.80419002446E+02 0.  1.
          1    1    1    2  501    0  0.24248053926E+02 -0.77905984833E+01 -0.20366502539E+02  0.32610672633E+02  0.00000000000E+00 0. -1.
         -2    1    1    2    0  503 -0.59856074974E+02  0.37586991262E+02 -0.25577538211E+04  0.25587301813E+04  0.00000000000E+00 0.  1.
<mgrwt>
<rscale>  2 0.94503935E+02</rscale>
<asrwt>0</asrwt>
<pdfrwt beam="1">  1       21 0.14304483E-02 0.94503935E+02</pdfrwt>
<pdfrwt beam="2">  1       21 0.52104984E+00 0.94503935E+02</pdfrwt>
<totfact> 0.34774622E+03</totfact>
</mgrwt>
</event>
<event>
 5    1  0.1994521E+000  0.7280779E+02  0.7546771E-02  0.1350797E+00
         21   -1    0    0  503  502  0.00000000000E+00  0.00000000000E+00  0.61177623247E+01  0.61177623247E+01  0.00000000000E+00 0. -1.
         21   -1    0    0  501  503 -0.00000000000E+00 -0.00000000000E+00 -0.11104691370E+04  0.11104691370E+04  0.00000000000E+00 0. -1.
         24    1    1    2    0    0  0.12714249759E+02  0.31301098830E+02 -0.42191830556E+03  0.43084067061E+03  0.80419002446E+02 0. -1.
          1    1    1    2  501    0 -0.27519242046E+02 -0.46618598368E+01 -0.50053882045E+03  0.50131641944E+03  0.00000000000E+00 0. -1.
         -2    1    1    2    0  502  0.14804992287E+02 -0.26639238993E+02 -0.18189424867E+03  0.18442980928E+03  0.00000000000E+00 0.  1.
<mgrwt>
<rscale>  2 0.72807793E+02</rscale>
<asrwt>0</asrwt>
<pdfrwt beam="1">  1       21 0.94119411E-03 0.72807793E+02</pdfrwt>
<pdfrwt beam="2">  1       21 0.17084142E+00 0.72807793E+02</pdfrwt>
<totfact> 0.89328291E+05</totfact>
</mgrwt>
</event>
<event>
 5    1  0.1994521E+000  0.9564829E+02  0.7546771E-02  0.1289723E+00
         21   -1    0    0  501  502  0.00000000000E+00  0.00000000000E+00  0.10227501734E+04  0.10227501734E+04  0.00000000000E+00 0.  1.
         21   -1    0    0  502  503 -0.00000000000E+00 -0.00000000000E+00 -0.24276746376E+02  0.24276746376E+02  0.00000000000E+00 0.  1.
         24    1    1    2    0    0 -0.23741646309E+02 -0.28687063929E+02  0.38098720090E+03  0.39115863356E+03  0.80419002446E+02 0.  1.
          1    1    1    2  501    0 -0.37420105137E+02  0.10444769162E+02  0.58110667919E+03  0.58240392347E+03  0.00000000000E+00 0. -1.
         -2    1    1    2    0  503  0.61161751447E+02  0.18242294767E+02  0.36379546933E+02  0.73464362744E+02  0.00000000000E+00 0.  1.
<mgrwt>
<rscale>  2 0.95648291E+02</rscale>
<asrwt>0</asrwt>
<pdfrwt beam="1">  1       21 0.15734615E+00 0.95648291E+02</pdfrwt>
<pdfrwt beam="2">  1       21 0.37348849E-02 0.95648291E+02</pdfrwt>
<totfact> 0.12178597E+05</totfact>
</mgrwt>
</event>
<event>
 5    1  0.1994521E+000  0.1005068E+03  0.7546771E-02  0.1279234E+00
         21   -1    0    0  503  502  0.00000000000E+00  0.00000000000E+00  0.90565467197E+02  0.90565467197E+02  0.00000000000E+00 0.  1.
         21   -1    0    0  501  503 -0.00000000000E+00 -0.00000000000E+00 -0.32429638861E+03  0.32429638861E+03  0.00000000000E+00 0. -1.
         24    1    1    2    0    0 -0.26100301364E+02  0.51886490253E+02 -0.30340674621E+02  0.10373623327E+03  0.80419002446E+02 0.  1.
          1    1    1    2  501    0 -0.47641304679E+01  0.21594399982E+02 -0.22694354180E+03  0.22801839008E+03  0.00000000000E+00 0. -1.
         -2    1    1    2    0  502  0.30864431832E+02 -0.73480890234E+02  0.23553295004E+02  0.83107232462E+02  0.00000000000E+00 0.  1.
<mgrwt>
<rscale>  2 0.10050675E+03</rscale>
<asrwt>0</asrwt>
<pdfrwt beam="1">  1       21 0.13933149E-01 0.10050675E+03</pdfrwt>
<pdfrwt beam="2">  1       21 0.49891752E-01 0.10050675E+03</pdfrwt>
<totfact> 0.17657008E+05</totfact>
</mgrwt>
</event>
<event>
 5    1  0.1994521E+000  0.1667884E+03  0.7546771E-02  0.1181239E+00
         21   -1    0    0  501  502  0.00000000000E+00  0.00000000000E+00  0.18439099915E+04  0.18439099915E+04  0.00000000000E+00 0. -1.
         21   -1    0    0  502  503 -0.00000000000E+00 -0.00000000000E+00 -0.46959861924E+02  0.46959861924E+02  0.00000000000E+00 0. -1.
         24    1    1    2    0    0  0.11246642604E+03 -0.96951740174E+02  0.30896752950E+03  0.35210294965E+03  0.80419002446E+02 0. -1.
          1    1    1    2  501    0 -0.11815909479E+03  0.70368864583E+02  0.15019293549E+04  0.15082125632E+04  0.00000000000E+00 0. -1.
         -2    1    1    2    0  503  0.56926687497E+01  0.26582875591E+02 -0.13946754867E+02  0.30554340502E+02  0.00000000000E+00 0.  1.
<mgrwt>
<rscale>  2 0.16678844E+03</rscale>
<asrwt>0</asrwt>
<pdfrwt beam="1">  1       21 0.28367840E+00 0.16678844E+03</pdfrwt>
<pdfrwt beam="2">  1       21 0.72245956E-02 0.16678844E+03</pdfrwt>
<totfact> 0.62553562E+03</totfact>
</mgrwt>
</event>
<event>
 5    1  0.1994521E+000  0.9492488E+02  0.7546771E-02  0.1291345E+00
         21   -1    0    0  501  502  0.00000000000E+00  0.00000000000E+00  0.59704037291E+02  0.59704037291E+02  0.00000000000E+00 0.  1.
         21   -1    0    0  502  503 -0.00000000000E+00 -0.00000000000E+00 -0.23124081565E+03  0.23124081565E+03  0.00000000000E+00 0. -1.
         24    1    1    2    0    0  0.56294448973E+02  0.50071507271E+01 -0.89206361897E+02  0.13273706152E+03  0.80419002446E+02 0.  1.
          1    1    1    2  501    0 -0.38734922177E+02  0.32228551687E+02  0.14962157250E+02  0.52563674620E+02  0.00000000000E+00 0. -1.
         -2    1    1    2    0  503 -0.17559526796E+02 -0.37235702414E+02 -0.97292573710E+02  0.10564411680E+03  0.00000000000E+00 0.  1.
<mgrwt>
<rscale>  2 0.94924885E+02</rscale>
<asrwt>0</asrwt>
<pdfrwt beam="1">  1       21 0.91852368E-02 0.94924885E+02</pdfrwt>
<pdfrwt beam="2">  1       21 0.35575509E-01 0.94924885E+02</pdfrwt>
<totfact> 0.72066057E+05</totfact>
</mgrwt>
</event>
<event>
 5    1  0.1994521E+000  0.7752823E+02  0.7546771E-02  0.1336216E+00
         21   -1    0    0  503  502  0.00000000000E+00  0.00000000000E+00  0.17821564988E+03  0.17821564988E+03  0.00000000000E+00 0.  1.
         21   -1    0    0  501  503 -0.00000000000E+00 -0.00000000000E+00 -0.30362445036E+03  0.30362445036E+03  0.00000000000E+00 0. -1.
         24    1    1    2    0    0  0.41566329398E+02  0.14589560598E+01 -0.24765067637E+02  0.93863799315E+02  0.80419002446E+02 0.  1.
          1    1    1    2  501    0 -0.28471555373E+01  0.20033143071E+02 -0.24046240221E+03  0.24131224584E+03  0.00000000000E+00 0. -1.
         -2    1    1    2    0  502 -0.38719173860E+02 -0.21492099130E+02  0.13981866937E+03  0.14666405508E+03  0.00000000000E+00 0.  1.
<mgrwt>
<rscale>  2 0.77528226E+02</rscale>
<asrwt>0</asrwt>
<pdfrwt beam="1">  1       21 0.27417792E-01 0.77528226E+02</pdfrwt>
<pdfrwt beam="2">  1       21 0.46711454E-01 0.77528226E+02</pdfrwt>
<totfact> 0.59308220E+04</totfact>
</mgrwt>
</event>
<event>
 5    1  0.1994521E+000  0.8249312E+02  0.7546771E-02  0.1322122E+00
         21   -1    0    0  501  502  0.00000000000E+00  0.00000000000E+00  0.12874038016E+02  0.12874038016E+02  0.00000000000E+00 0. -1.
         21   -1    0    0  502  503 -0.00000000000E+00 -0.00000000000E+00 -0.10032056784E+04  0.10032056784E+04  0.00000000000E+00 0. -1.
         24    1    1    2    0    0 -0.45254551949E+00  0.53288083140E+02 -0.71655065975E+03  0.72301582869E+03  0.80419002446E+02 0. -1.
          1    1    1    2  501    0  0.19521089077E+02 -0.11691947060E+02 -0.91819702170E+01  0.24537382132E+02  0.00000000000E+00 0. -1.
         -2    1    1    2    0  503 -0.19068543557E+02 -0.41596136080E+02 -0.26459901046E+03  0.26852650563E+03  0.00000000000E+00 0.  1.
<mgrwt>
<rscale>  2 0.82493123E+02</rscale>
<asrwt>0</asrwt>
<pdfrwt beam="1">  1       21 0.19806201E-02 0.82493123E+02</pdfrwt>
<pdfrwt beam="2">  1       21 0.15433942E+00 0.82493123E+02</pdfrwt>
<totfact> 0.35993758E+05</totfact>
</mgrwt>
</event>
<event>
 5    1  0.1994521E+000  0.7726335E+02  0.7546771E-02  0.1337002E+00
         21   -1    0    0  501  502  0.00000000000E+00  0.00000000000E+00  0.10054255009E+03  0.10054255009E+03  0.00000000000E+00 0. -1.
         21   -1    0    0  502  503 -0.00000000000E+00 -0.00000000000E+00 -0.70176288978E+02  0.70176288978E+02  0.00000000000E+00 0. -1.
         24    1    1    2    0    0  0.24535876752E+02  0.39561631916E+02  0.10321978391E+02  0.93492733194E+02  0.80419002446E+02 0. -1.
          1    1    1    2  501    0 -0.65313781056E+00 -0.37639914263E+02  0.32934607891E+02  0.50018777790E+02  0.00000000000E+00 0. -1.
         -2    1    1    2    0  503 -0.23882738942E+02 -0.19217176528E+01 -0.12890325175E+02  0.27207328079E+02  0.00000000000E+00 0.  1.
<mgrwt>
<rscale>  2 0.77263351E+02</rscale>
<asrwt>0</asrwt>
<pdfrwt beam="1">  1       21 0.15468085E-01 0.77263351E+02</pdfrwt>
<pdfrwt beam="2">  1       21 0.10796352E-01 0.77263351E+02</pdfrwt>
<totfact> 0.25488405E+06</totfact>
</mgrwt>
</event>
<event>
 5    1  0.1994521E+000  0.7145503E+02  0.7546771E-02  0.1355214E+00
         21   -1    0    0  503  502  0.00000000000E+00  0.00000000000E+00  0.93297515268E+01  0.93297515268E+01  0.00000000000E+00 0.  1.
         21   -1    0    0  501  503 -0.00000000000E+00 -0.00000000000E+00 -0.72278464987E+03  0.72278464987E+03  0.00000000000E+00 0. -1.
         24    1    1    2    0    0  0.15106473576E+01  0.47687836487E+02 -0.28673152464E+03  0.30159342663E+03  0.80419002446E+02 0.  1.
          1    1    1    2  501    0 -0.71967052083E+01 -0.28016660326E+02 -0.13421306854E+03  0.13729484182E+03  0.00000000000E+00 0. -1.
         -2    1    1    2    0  502  0.56860578507E+01 -0.19671176161E+02 -0.29251030516E+03  0.29322613296E+03  0.00000000000E+00 0.  1.
<mgrwt>
<rscale>  2 0.71455033E+02</rscale>
<asrwt>0</asrwt>
<pdfrwt beam="1">  1       21 0.14353457E-02 0.71455033E+02</pdfrwt>
<pdfrwt beam="2">  1       21 0.11119769E+00 0.71455033E+02</pdfrwt>
<totfact> 0.13367811E+06</totfact>
</mgrwt>
</event>
<event>
 5    1  0.1994521E+000  0.8068173E+02  0.7546771E-02  0.1327128E+00
         21   -1    0    0  501  502  0.00000000000E+00  0.00000000000E+00  0.13984405230E+03  0.13984405230E+03  0.00000000000E+00 0.  1.
         21   -1    0    0  502  503 -0.00000000000E+00 -0.00000000000E+00 -0.63766410430E+02  0.63766410430E+02  0.00000000000E+00 0. -1.
         24    1    1    2    0    0  0.10168095399E+02  0.30005639401E+02  0.92048509486E+02  0.12626904852E+03  0.80419002446E+02 0.  1.
          1    1    1    2  501    0 -0.31997871854E+02 -0.39745160583E+02 -0.57636562133E+01  0.51349404338E+02  0.00000000000E+00 0. -1.
         -2    1    1    2    0  503  0.21829776454E+02  0.97395211827E+01 -0.10207211401E+02  0.25992009878E+02  0.00000000000E+00 0.  1.
<mgrwt>
<rscale>  2 0.80681729E+02</rscale>
<asrwt>0</asrwt>
<pdfrwt beam="1">  1       21 0.21514470E-01 0.80681729E+02</pdfrwt>
<pdfrwt beam="2">  1       21 0.98102170E-02 0.80681729E+02</pdfrwt>
<totfact> 0.16594200E+06</totfact>
</mgrwt>
</event>
<event>
 5    1  0.1994521E+000  0.8597302E+02  0.7546771E-02  0.1312907E+00
         21   -1    0    0  503  502  0.00000000000E+00  0.00000000000E+00  0.19633779203E+03  0.19633779203E+03  0.00000000000E+00 0. -1.
         21   -1    0    0  501  503 -0.00000000000E+00 -0.00000000000E+00 -0.48635851099E+02  0.48635851099E+02  0.00000000000E+00 0. -1.
         24    1    1    2    0    0  0.30211083388E+02 -0.53729783290E+02  0.30880065578E+02  0.10592635921E+03  0.80419002446E+02 0. -1.
          1    1    1    2  501    0 -0.17469320086E+01  0.38114839442E+02  0.38223595481E+02  0.54007740266E+02  0.00000000000E+00 0. -1.
         -2    1    1    2    0  502 -0.28464151379E+02  0.15614943848E+02  0.78598279867E+02  0.85039543644E+02  0.00000000000E+00 0.  1.
<mgrwt>
<rscale>  2 0.85973021E+02</rscale>
<asrwt>0</asrwt>
<pdfrwt beam="1">  1       21 0.30205814E-01 0.85973021E+02</pdfrwt>
<pdfrwt beam="2">  1       21 0.74824387E-02 0.85973021E+02</pdfrwt>
<totfact> 0.14011210E+06</totfact>
</mgrwt>
</event>
<event>
 5    1  0.1994521E+000  0.6559996E+02  0.7546771E-02  0.1375729E+00
         21   -1    0    0  501  502  0.00000000000E+00  0.00000000000E+00  0.52840153086E+01  0.52840153086E+01  0.00000000000E+00 0. -1.
         21   -1    0    0  502  503 -0.00000000000E+00 -0.00000000000E+00 -0.19613197438E+04  0.19613197438E+04  0.00000000000E+00 0.  1.
         24    1    1    2    0    0 -0.30507319136E+02 -0.16814616889E+02 -0.12629187089E+04  0.12659558875E+04  0.80419002446E+02 0.  1.
          1    1    1    2  501    0  0.20287308754E+02 -0.37179526777E+01 -0.26235817017E+02  0.33372386237E+02  0.00000000000E+00 0. -1.
         -2    1    1    2    0  503  0.10220010382E+02  0.20532569567E+02 -0.66688120254E+03  0.66727548534E+03  0.00000000000E+00 0.  1.
<mgrwt>
<rscale>  2 0.65599958E+02</rscale>
<asrwt>0</asrwt>
<pdfrwt beam="1">  1       21 0.81292393E-03 0.65599958E+02</pdfrwt>
<pdfrwt beam="2">  1       21 0.30174206E+00 0.65599958E+02</pdfrwt>
<totfact> 0.20009330E+05</totfact>
</mgrwt>
</event>
<event>
 5    1  0.1994521E+000  0.8594930E+02  0.7546771E-02  0.1312969E+00
         21   -1    0    0  503  502  0.00000000000E+00  0.00000000000E+00  0.53350704990E+02  0.53350704990E+02  0.00000000000E+00 0. -1.
         21   -1    0    0  501  503 -0.00000000000E+00 -0.00000000000E+00 -0.14531196920E+03  0.14531196920E+03  0.00000000000E+00 0. -1.
         24    1    1    2    0    0  0.55816192093E+02  0.41868993782E+01 -0.33992418372E+02  0.10370958436E+03  0.80419002446E+02 0.  0.
          1    1    1    2  501    0 -0.11273695991E+02 -0.22962009635E+02 -0.28697200539E+02  0.38443197404E+02  0.00000000000E+00 0. -1.
         -2    1    1    2    0  502 -0.44542496101E+02  0.18775110257E+02 -0.29271645299E+02  0.56509892431E+02  0.00000000000E+00 0.  1.
<mgrwt>
<rscale>  2 0.85949301E+02</rscale>
<asrwt>0</asrwt>
<pdfrwt beam="1">  1       21 0.82078009E-02 0.85949301E+02</pdfrwt>
<pdfrwt beam="2">  1       21 0.22355687E-01 0.85949301E+02</pdfrwt>
<totfact> 0.21053320E+06</totfact>
</mgrwt>
</event>
<event>
 5    1  0.1994521E+000  0.7807536E+02  0.7546771E-02  0.1334604E+00
         21   -1    0    0  503  502  0.00000000000E+00  0.00000000000E+00  0.11942746797E+03  0.11942746797E+03  0.00000000000E+00 0.  1.
         21   -1    0    0  501  503 -0.00000000000E+00 -0.00000000000E+00 -0.91957007107E+02  0.91957007107E+02  0.00000000000E+00 0. -1.
         24    1    1    2    0    0  0.18507669065E+02  0.46625111396E+02 -0.52730028530E+02  0.10846246673E+03  0.80419002446E+02 0. -1.
          1    1    1    2  501    0 -0.28657611129E+02 -0.27504458852E+02  0.35574398525E+02  0.53322525847E+02  0.00000000000E+00 0. -1.
         -2    1    1    2    0  502  0.10149942064E+02 -0.19120652544E+02  0.44626090873E+02  0.49599482500E+02  0.00000000000E+00 0.  1.
<mgrwt>
<rscale>  2 0.78075361E+02</rscale>
<asrwt>0</asrwt>
<pdfrwt beam="1">  1       21 0.18373457E-01 0.78075361E+02</pdfrwt>
<pdfrwt beam="2">  1       21 0.14147232E-01 0.78075361E+02</pdfrwt>
<totfact> 0.11661956E+06</totfact>
</mgrwt>
</event>
<event>
 5    1  0.1994521E+000  0.8342751E+02  0.7546771E-02  0.1319597E+00
         21   -1    0    0  501  502  0.00000000000E+00  0.00000000000E+00  0.32595379555E+03  0.32595379555E+03  0.00000000000E+00 0.  1.
         21   -1    0    0  502  503 -0.00000000000E+00 -0.00000000000E+00 -0.26009240458E+02  0.26009240458E+02  0.00000000000E+00 0. -1.
         24    1    1    2    0    0  0.33651193716E+02 -0.88342669309E+01  0.20133046127E+03  0.21957144100E+03  0.80419002446E+02 0.  0.
          1    1    1    2  501    0  0.21222754643E+02  0.11792770423E+02  0.61391804017E+02  0.66018394023E+02  0.00000000000E+00 0. -1.
         -2    1    1    2    0  503 -0.54873948359E+02 -0.29585034919E+01  0.37222289803E+02  0.66373200990E+02  0.00000000000E+00 0.  1.
<mgrwt>
<rscale>  2 0.83427510E+02</rscale>
<asrwt>0</asrwt>
<pdfrwt beam="1">  1       21 0.50146735E-01 0.83427510E+02</pdfrwt>
<pdfrwt beam="2">  1       21 0.40014218E-02 0.83427510E+02</pdfrwt>
<totfact> 0.14667478E+06</totfact>
</mgrwt>
</event>
<event>
 5    1  0.1994521E+000  0.1163985E+03  0.7546771E-02  0.1249159E+00
         21   -1    0    0  501  502  0.00000000000E+00  0.00000000000E+00  0.40685499161E+02  0.40685499161E+02  0.00000000000E+00 0. -1.
         21   -1    0    0  502  503 -0.00000000000E+00 -0.00000000000E+00 -0.33477483744E+03  0.33477483744E+03  0.00000000000E+00 0. -1.
         24    1    1    2    0    0 -0.30243371468E+02 -0.88170689292E+02 -0.15757981597E+03  0.19996836330E+03  0.80419002446E+02 0. -1.
          1    1    1    2  501    0  0.62842923124E+01  0.85329557569E+02 -0.98501511453E+02  0.13047288409E+03  0.00000000000E+00 0. -1.
         -2    1    1    2    0  503  0.23959079155E+02  0.28411317234E+01 -0.38008010862E+02  0.45019089208E+02  0.00000000000E+00 0.  1.
<mgrwt>
<rscale>  2 0.11639855E+03</rscale>
<asrwt>0</asrwt>
<pdfrwt beam="1">  1       21 0.62593075E-02 0.11639855E+03</pdfrwt>
<pdfrwt beam="2">  1       21 0.51503822E-01 0.11639855E+03</pdfrwt>
<totfact> 0.66110524E+05</totfact>
</mgrwt>
</event>
<event>
 5    1  0.1994521E+000  0.1031288E+03  0.7546771E-02  0.1273851E+00
         21   -1    0    0  503  502  0.00000000000E+00  0.00000000000E+00  0.57985980146E+03  0.57985980146E+03  0.00000000000E+00 0.  1.
         21   -1    0    0  501  503 -0.00000000000E+00 -0.00000000000E+00 -0.29892220339E+02  0.29892220339E+02  0.00000000000E+00 0. -1.
         24    1    1    2    0    0 -0.24713365292E+02 -0.27878306820E+02  0.19987554215E+03  0.21864445733E+03  0.80419002446E+02 0.  1.
          1    1    1    2  501    0 -0.22734509655E+02 -0.33229603760E+02  0.88741212264E+01  0.41228806954E+02  0.00000000000E+00 0. -1.
         -2    1    1    2    0  502  0.47447874947E+02  0.61107910581E+02  0.34121791774E+03  0.34987875751E+03  0.00000000000E+00 0.  1.
<mgrwt>
<rscale>  2 0.10312884E+03</rscale>
<asrwt>0</asrwt>
<pdfrwt beam="1">  1       21 0.89209192E-01 0.10312884E+03</pdfrwt>
<pdfrwt beam="2">  1       21 0.45988036E-02 0.10312884E+03</pdfrwt>
<totfact> 0.33901983E+05</totfact>
</mgrwt>
</event>
<event>
 5    1  0.1994521E+000  0.1005392E+03  0.7546771E-02  0.1279166E+00
         21   -1    0    0  503  502  0.00000000000E+00  0.00000000000E+00  0.45578184081E+02  0.45578184081E+02  0.00000000000E+00 0.  1.
         21   -1    0    0  501  503 -0.00000000000E+00 -0.00000000000E+00 -0.12390748170E+04  0.12390748170E+04  0.00000000000E+00 0. -1.
         24    1    1    2    0    0 -0.46308402573E+02  0.44592973892E+02 -0.50156562594E+03  0.51202372460E+03  0.80419002446E+02 0.  1.
          1    1    1    2  501    0 -0.20547041615E+02 -0.10402299123E+02 -0.69698785259E+03  0.69736823515E+03  0.00000000000E+00 0. -1.
         -2    1    1    2    0  502  0.66855444189E+02 -0.34190674769E+02  0.50568455841E+01  0.75261041357E+02  0.00000000000E+00 0.  1.
<mgrwt>
<rscale>  2 0.10053925E+03</rscale>
<asrwt>0</asrwt>
<pdfrwt beam="1">  1       21 0.70120289E-02 0.10053925E+03</pdfrwt>
<pdfrwt beam="2">  1       21 0.19062688E+00 0.10053925E+03</pdfrwt>
<totfact> 0.25261770E+04</totfact>
</mgrwt>
</event>
<event>
 5    1  0.1994521E+000  0.7145172E+02  0.7546771E-02  0.1355225E+00
         21   -1    0    0  501  502  0.00000000000E+00  0.00000000000E+00  0.22005116381E+02  0.22005116381E+02  0.00000000000E+00 0. -1.
         21   -1    0    0  502  503 -0.00000000000E+00 -0.00000000000E+00 -0.30733927868E+03  0.30733927868E+03  0.00000000000E+00 0. -1.
         24    1    1    2    0    0 -0.79135248582E+01 -0.87009954643E+01 -0.82666627045E+02  0.11592807416E+03  0.80419002446E+02 0. -1.
          1    1    1    2  501    0  0.42988596301E+01  0.34909065065E+02 -0.72425883500E+02  0.80514791303E+02  0.00000000000E+00 0. -1.
         -2    1    1    2    0  503  0.36146652281E+01 -0.26208069601E+02 -0.13024165175E+03  0.13290152959E+03  0.00000000000E+00 0.  1.
<mgrwt>
<rscale>  2 0.71451721E+02</rscale>
<asrwt>0</asrwt>
<pdfrwt beam="1">  1       21 0.33854023E-02 0.71451721E+02</pdfrwt>
<pdfrwt beam="2">  1       21 0.47282969E-01 0.71451721E+02</pdfrwt>
<totfact> 0.21581944E+06</totfact>
</mgrwt>
</event>
<event>
 5    1  0.1994521E+000  0.9412591E+02  0.7546771E-02  0.1293157E+00
         21   -1    0    0  503  502  0.00000000000E+00  0.00000000000E+00  0.11992737853E+03  0.11992737853E+03  0.00000000000E+00 0.  1.
         21   -1    0    0  501  503 -0.00000000000E+00 -0.00000000000E+00 -0.11226584343E+03  0.11226584343E+03  0.00000000000E+00 0. -1.
         24    1    1    2    0    0  0.38433684445E+02  0.10332187316E+02 -0.19007734270E+02  0.91719202521E+02  0.80419002446E+02 0. -1.
          1    1    1    2  501    0 -0.31503610258E+02  0.38191199388E+02 -0.35781472589E+02  0.61084850419E+02  0.00000000000E+00 0. -1.
         -2    1    1    2    0  502 -0.69300741863E+01 -0.48523386704E+02  0.62450741967E+02  0.79389169020E+02  0.00000000000E+00 0.  1.
<mgrwt>
<rscale>  2 0.94125909E+02</rscale>
<asrwt>0</asrwt>
<pdfrwt beam="1">  1       21 0.18450366E-01 0.94125909E+02</pdfrwt>
<pdfrwt beam="2">  1       21 0.17271668E-01 0.94125909E+02</pdfrwt>
<totfact> 0.81309553E+05</totfact>
</mgrwt>
</event>
<event>
 5    1  0.1994521E+000  0.7721276E+02  0.7546771E-02  0.1337153E+00
         21   -1    0    0  503  502  0.00000000000E+00  0.00000000000E+00  0.26654484423E+02  0.26654484423E+02  0.00000000000E+00 0.  1.
         21   -1    0    0  501  503 -0.00000000000E+00 -0.00000000000E+00 -0.65093841767E+03  0.65093841767E+03  0.00000000000E+00 0. -1.
         24    1    1    2    0    0 -0.20989265064E+02 -0.52180409391E+02 -0.11160614437E+03  0.14861524750E+03  0.80419002446E+02 0.  1.
          1    1    1    2  501    0  0.66189800530E+01  0.19403858501E+02 -0.48023669770E+03  0.48067411667E+03  0.00000000000E+00 0. -1.
         -2    1    1    2    0  502  0.14370285011E+02  0.32776550891E+02 -0.32441091177E+02  0.48303537928E+02  0.00000000000E+00 0.  1.
<mgrwt>
<rscale>  2 0.77212755E+02</rscale>
<asrwt>0</asrwt>
<pdfrwt beam="1">  1       21 0.41006901E-02 0.77212755E+02</pdfrwt>
<pdfrwt beam="2">  1       21 0.10014437E+00 0.77212755E+02</pdfrwt>
<totfact> 0.31652754E+05</totfact>
</mgrwt>
</event>
<event>
 5    1  0.1994521E+000  0.1025147E+03  0.7546771E-02  0.1275095E+00
         21   -1    0    0  503  502  0.00000000000E+00  0.00000000000E+00  0.55011540984E+02  0.55011540984E+02  0.00000000000E+00 0.  1.
         21   -1    0    0  501  503 -0.00000000000E+00 -0.00000000000E+00 -0.27591078893E+03  0.27591078893E+03  0.00000000000E+00 0. -1.
         24    1    1    2    0    0 -0.44756883117E+02  0.54925942199E+02 -0.85622773267E+02  0.13718058525E+03  0.80419002446E+02 0.  1.
          1    1    1    2  501    0 -0.12467192309E+02 -0.35166935162E+02 -0.12732876689E+03  0.13268292690E+03  0.00000000000E+00 0. -1.
         -2    1    1    2    0  502  0.57224075426E+02 -0.19759007037E+02 -0.79477077833E+01  0.61058817762E+02  0.00000000000E+00 0.  1.
<mgrwt>
<rscale>  2 0.10251470E+03</rscale>
<asrwt>0</asrwt>
<pdfrwt beam="1">  1       21 0.84633139E-02 0.10251470E+03</pdfrwt>
<pdfrwt beam="2">  1       21 0.42447814E-01 0.10251470E+03</pdfrwt>
<totfact> 0.58541919E+05</totfact>
</mgrwt>
</event>
<event>
 5    1  0.1994521E+000  0.7998210E+02  0.7546771E-02  0.1329102E+00
         21   -1    0    0  503  502  0.00000000000E+00  0.00000000000E+00  0.13322426654E+02  0.13322426654E+02  0.00000000000E+00 0. -1.
         21   -1    0    0  501  503 -0.00000000000E+00 -0.00000000000E+00 -0.54959081163E+03  0.54959081163E+03  0.00000000000E+00 0.  1.
         24    1    1    2    0    0 -0.10029123908E+02 -0.38221740957E+02 -0.23493601404E+03  0.25144309784E+03  0.80419002446E+02 0. -1.
          1    1    1    2  501    0 -0.24181746239E+02  0.10651425829E+02 -0.18921027905E+03  0.19104643263E+03  0.00000000000E+00 0. -1.
         -2    1    1    2    0  502  0.34210870147E+02  0.27570315128E+02 -0.11212209190E+03  0.12042370782E+03  0.00000000000E+00 0.  1.
<mgrwt>
<rscale>  2 0.79982099E+02</rscale>
<asrwt>0</asrwt>
<pdfrwt beam="1">  1       21 0.20496044E-02 0.79982099E+02</pdfrwt>
<pdfrwt beam="2">  1       21 0.84552421E-01 0.79982099E+02</pdfrwt>
<totfact> 0.14250163E+06</totfact>
</mgrwt>
</event>
<event>
 5    1  0.1994521E+000  0.6548648E+02  0.7546771E-02  0.1376151E+00
         21   -1    0    0  503  502  0.00000000000E+00  0.00000000000E+00  0.57089791334E+02  0.57089791334E+02  0.00000000000E+00 0.  1.
         21   -1    0    0  501  503 -0.00000000000E+00 -0.00000000000E+00 -0.13718032338E+03  0.13718032338E+03  0.00000000000E+00 0.  1.
         24    1    1    2    0    0 -0.13639390617E+02  0.10244841676E+02 -0.86030974643E+02  0.11899384148E+03  0.80419002446E+02 0.  1.
          1    1    1    2  501    0  0.24512354529E+02  0.94475238845E+01 -0.25504245379E+02  0.36613901246E+02  0.00000000000E+00 0. -1.
         -2    1    1    2    0  502 -0.10872963913E+02 -0.19692365560E+02  0.31444687978E+02  0.38662371987E+02  0.00000000000E+00 0.  1.
<mgrwt>
<rscale>  2 0.65486477E+02</rscale>
<asrwt>0</asrwt>
<pdfrwt beam="1">  1       21 0.87830450E-02 0.65486477E+02</pdfrwt>
<pdfrwt beam="2">  1       21 0.21104665E-01 0.65486477E+02</pdfrwt>
<totfact> 0.20579998E+06</totfact>
</mgrwt>
</event>
<event>
 5    1  0.1994521E+000  0.8506086E+02  0.7546771E-02  0.1315273E+00
         21   -1    0    0  503  502  0.00000000000E+00  0.00000000000E+00  0.46273140478E+03  0.46273140478E+03  0.00000000000E+00 0.  1.
         21   -1    0    0  501  503 -0.00000000000E+00 -0.00000000000E+00 -0.26444867933E+02  0.26444867933E+02  0.00000000000E+00 0.  1.
         24    1    1    2    0    0  0.39207176800E+02  0.39574673788E+02  0.17204880151E+03  0.19791756762E+03  0.80419002446E+02 0.  0.
          1    1    1    2  501    0 -0.42129601822E+02 -0.10964024502E+02  0.24802944746E+02  0.50102886654E+02  0.00000000000E+00 0. -1.
         -2    1    1    2    0  502  0.29224250224E+01 -0.28610649286E+02  0.23943479059E+03  0.24115581843E+03  0.00000000000E+00 0.  1.
<mgrwt>
<rscale>  2 0.85060861E+02</rscale>
<asrwt>0</asrwt>
<pdfrwt beam="1">  1       21 0.71189441E-01 0.85060861E+02</pdfrwt>
<pdfrwt beam="2">  1       21 0.40684416E-02 0.85060861E+02</pdfrwt>
<totfact> 0.68491179E+05</totfact>
</mgrwt>
</event>
<event>
 5    1  0.1994521E+000  0.1153978E+03  0.7546771E-02  0.1250888E+00
         21   -1    0    0  503  502  0.00000000000E+00  0.00000000000E+00  0.76254807236E+02  0.76254807236E+02  0.00000000000E+00 0.  1.
         21   -1    0    0  501  503 -0.00000000000E+00 -0.00000000000E+00 -0.17468506222E+03  0.17468506222E+03  0.00000000000E+00 0.  1.
         24    1    1    2    0    0 -0.69541295875E+01  0.95398199743E+02 -0.51253200655E+02  0.13506769771E+03  0.80419002446E+02 0.  1.
          1    1    1    2  501    0 -0.18500945862E+02 -0.25999278674E+02 -0.14643464529E+02  0.35109522110E+02  0.00000000000E+00 0. -1.
         -2    1    1    2    0  502  0.25455075450E+02 -0.69398921068E+02 -0.32533589804E+02  0.80762649642E+02  0.00000000000E+00 0.  1.
<mgrwt>
<rscale>  2 0.11539779E+03</rscale>
<asrwt>0</asrwt>
<pdfrwt beam="1">  1       21 0.11731509E-01 0.11539779E+03</pdfrwt>
<pdfrwt beam="2">  1       21 0.26874625E-01 0.11539779E+03</pdfrwt>
<totfact> 0.80796246E+05</totfact>
</mgrwt>
</event>
<event>
 5    1  0.1994521E+000  0.7174411E+02  0.7546771E-02  0.1354261E+00
         21   -1    0    0  501  502  0.00000000000E+00  0.00000000000E+00  0.17318572311E+02  0.17318572311E+02  0.00000000000E+00 0. -1.
         21   -1    0    0  502  503 -0.00000000000E+00 -0.00000000000E+00 -0.94669287858E+03  0.94669287858E+03  0.00000000000E+00 0. -1.
         24    1    1    2    0    0 -0.18291748130E+02  0.12276364781E+02 -0.39705234909E+03  0.40571305261E+03  0.80419002446E+02 0. -1.
          1    1    1    2  501    0  0.56371761654E+01 -0.34270855864E+02 -0.11104173933E+02  0.36463296553E+02  0.00000000000E+00 0. -1.
         -2    1    1    2    0  503  0.12654571964E+02  0.21994491083E+02 -0.52121778324E+03  0.52183510173E+03  0.00000000000E+00 0.  1.
<mgrwt>
<rscale>  2 0.71744111E+02</rscale>
<asrwt>0</asrwt>
<pdfrwt beam="1">  1       21 0.26643953E-02 0.71744111E+02</pdfrwt>
<pdfrwt beam="2">  1       21 0.14564508E+00 0.71744111E+02</pdfrwt>
<totfact> 0.26037994E+05</totfact>
</mgrwt>
</event>
<event>
 5    1  0.1994521E+000  0.7796041E+02  0.7546771E-02  0.1334941E+00
         21   -1    0    0  501  502  0.00000000000E+00  0.00000000000E+00  0.70009640862E+01  0.70009640862E+01  0.00000000000E+00 0. -1.
         21   -1    0    0  502  503 -0.00000000000E+00 -0.00000000000E+00 -0.94125787274E+03  0.94125787274E+03  0.00000000000E+00 0.  1.
         24    1    1    2    0    0 -0.17831395926E+02  0.26872349150E+01 -0.38836314859E+03  0.39701175178E+03  0.80419002446E+02 0. -1.
          1    1    1    2  501    0  0.37803119668E+02 -0.23617960281E+02 -0.25002684395E+03  0.25396910560E+03  0.00000000000E+00 0. -1.
         -2    1    1    2    0  503 -0.19971723742E+02  0.20930725366E+02 -0.29586691612E+03  0.29727797945E+03  0.00000000000E+00 0.  1.
<mgrwt>
<rscale>  2 0.77960408E+02</rscale>
<asrwt>0</asrwt>
<pdfrwt beam="1">  1       21 0.10770713E-02 0.77960408E+02</pdfrwt>
<pdfrwt beam="2">  1       21 0.14480892E+00 0.77960408E+02</pdfrwt>
<totfact> 0.11067755E+06</totfact>
</mgrwt>
</event>
<event>
 5    1  0.1994521E+000  0.7373129E+02  0.7546771E-02  0.1347845E+00
         21   -1    0    0  503  502  0.00000000000E+00  0.00000000000E+00  0.30121772795E+03  0.30121772795E+03  0.00000000000E+00 0.  1.
         21   -1    0    0  501  503 -0.00000000000E+00 -0.00000000000E+00 -0.50278240622E+02  0.50278240622E+02  0.00000000000E+00 0.  1.
         24    1    1    2    0    0  0.35635149340E+02  0.34370765386E+02  0.26036746562E+02  0.97960918267E+02  0.80419002446E+02 0.  1.
          1    1    1    2  501    0 -0.12712889504E+02 -0.25411679495E+02  0.11548776179E+01  0.28437734731E+02  0.00000000000E+00 0. -1.
         -2    1    1    2    0  502 -0.22922259836E+02 -0.89590858914E+01  0.22374786314E+03  0.22509731557E+03  0.00000000000E+00 0.  1.
<mgrwt>
<rscale>  2 0.73731293E+02</rscale>
<asrwt>0</asrwt>
<pdfrwt beam="1">  1       21 0.46341188E-01 0.73731293E+02</pdfrwt>
<pdfrwt beam="2">  1       21 0.77351141E-02 0.73731293E+02</pdfrwt>
<totfact> 0.57189382E+05</totfact>
</mgrwt>
</event>
<event>
 5    1  0.1994521E+000  0.7244029E+02  0.7546771E-02  0.1351986E+00
         21   -1    0    0  503  502  0.00000000000E+00  0.00000000000E+00  0.10691789536E+02  0.10691789536E+02  0.00000000000E+00 0. -1.
         21   -1    0    0  501  503 -0.00000000000E+00 -0.00000000000E+00 -0.94633119996E+03  0.94633119996E+03  0.00000000000E+00 0. -1.
         24    1    1    2    0    0  0.13720265427E+02 -0.10898692230E+02 -0.19437441712E+03  0.21108211000E+03  0.80419002446E+02 0. -1.
          1    1    1    2  501    0  0.22475591189E+02  0.13613983628E+02 -0.58196296561E+03  0.58255590813E+03  0.00000000000E+00 0. -1.
         -2    1    1    2    0  502 -0.36195856616E+02 -0.27152913980E+01 -0.15930202769E+03  0.16338497137E+03  0.00000000000E+00 0.  1.
<mgrwt>
<rscale>  2 0.72440289E+02</rscale>
<asrwt>0</asrwt>
<pdfrwt beam="1">  1       21 0.16448903E-02 0.72440289E+02</pdfrwt>
<pdfrwt beam="2">  1       21 0.14558945E+00 0.72440289E+02</pdfrwt>
<totfact> 0.56190563E+05</totfact>
</mgrwt>
</event>
<event>
 5    1  0.2234450E+000  0.7678729E+02  0.7546771E-02  0.1338424E+00
         21   -1    0    0  503  502  0.00000000000E+00  0.00000000000E+00  0.11433364964E+04  0.11433364964E+04  0.00000000000E+00 0.  1.
         21   -1    0    0  501  503 -0.00000000000E+00 -0.00000000000E+00 -0.13739395998E+03  0.13739395998E+03  0.00000000000E+00 0. -1.
         24    1    1    2    0    0 -0.29751151992E+02  0.39474669873E+02  0.50971318521E+03  0.51838029258E+03  0.80419002446E+02 0. -1.
          1    1    1    2  501    0  0.77736986423E+01 -0.36119462866E+02 -0.13029472594E+03  0.13543175992E+03  0.00000000000E+00 0. -1.
         -2    1    1    2    0  502  0.21977453349E+02 -0.33552070073E+01  0.62652407711E+03  0.62691840384E+03  0.00000000000E+00 0.  1.
<mgrwt>
<rscale>  2 0.76787288E+02</rscale>
<asrwt>0</asrwt>
<pdfrwt beam="1">  1       21 0.17589792E+00 0.76787288E+02</pdfrwt>
<pdfrwt beam="2">  1       21 0.21137533E-01 0.76787288E+02</pdfrwt>
<totfact> 0.46899661E+03</totfact>
</mgrwt>
</event>
<event>
 5    1  0.1994521E+000  0.9245468E+02  0.7546771E-02  0.1297014E+00
         21   -1    0    0  501  502  0.00000000000E+00  0.00000000000E+00  0.11695647840E+02  0.11695647840E+02  0.00000000000E+00 0. -1.
         21   -1    0    0  502  503 -0.00000000000E+00 -0.00000000000E+00 -0.11500638927E+04  0.11500638927E+04  0.00000000000E+00 0. -1.
         24    1    1    2    0    0 -0.72169554403E+02 -0.10134278598E+02 -0.79052093145E+03  0.79793590420E+03  0.80419002446E+02 0. -1.
          1    1    1    2  501    0  0.33702470324E+02  0.16276156202E+02 -0.45219431629E+02  0.58698950276E+02  0.00000000000E+00 0. -1.
         -2    1    1    2    0  503  0.38467084079E+02 -0.61418776040E+01 -0.30262788173E+03  0.30512468602E+03  0.00000000000E+00 0.  1.
<mgrwt>
<rscale>  2 0.92454677E+02</rscale>
<asrwt>0</asrwt>
<pdfrwt beam="1">  1       21 0.17993300E-02 0.92454677E+02</pdfrwt>
<pdfrwt beam="2">  1       21 0.17693295E+00 0.92454677E+02</pdfrwt>
<totfact> 0.29153896E+05</totfact>
</mgrwt>
</event>
<event>
 5    1  0.1994521E+000  0.2331193E+03  0.7546771E-02  0.1124463E+00
         21   -1    0    0  503  502  0.00000000000E+00  0.00000000000E+00  0.19874485801E+04  0.19874485801E+04  0.00000000000E+00 0.  1.
         21   -1    0    0  501  503 -0.00000000000E+00 -0.00000000000E+00 -0.46433264835E+02  0.46433264835E+02  0.00000000000E+00 0.  1.
         24    1    1    2    0    0 -0.93117898048E+02  0.18630297901E+03  0.15561731217E+04  0.15721074211E+04  0.80419002446E+02 0.  1.
          1    1    1    2  501    0 -0.20132672076E+02  0.49257106992E+01  0.44247618254E+01  0.21193527975E+02  0.00000000000E+00 0. -1.
         -2    1    1    2    0  502  0.11325057012E+03 -0.19122868971E+03  0.38041743177E+03  0.44058089585E+03  0.00000000000E+00 0.  1.
<mgrwt>
<rscale>  2 0.23311933E+03</rscale>
<asrwt>0</asrwt>
<pdfrwt beam="1">  1       21 0.30576125E+00 0.23311933E+03</pdfrwt>
<pdfrwt beam="2">  1       21 0.71435808E-02 0.23311933E+03</pdfrwt>
<totfact> 0.44185641E+03</totfact>
</mgrwt>
</event>
<event>
 5    1  0.1994521E+000  0.8373270E+02  0.7546771E-02  0.1318780E+00
         21   -1    0    0  503  502  0.00000000000E+00  0.00000000000E+00  0.26181739434E+03  0.26181739434E+03  0.00000000000E+00 0.  1.
         21   -1    0    0  501  503 -0.00000000000E+00 -0.00000000000E+00 -0.10811467548E+03  0.10811467548E+03  0.00000000000E+00 0. -1.
         24    1    1    2    0    0 -0.28424011640E+02  0.96208030823E+01 -0.12181717069E+01  0.85843952532E+02  0.80419002446E+02 0.  0.
          1    1    1    2  501    0  0.48300448797E+02 -0.26906101791E+02 -0.51759547511E+02  0.75735872783E+02  0.00000000000E+00 0. -1.
         -2    1    1    2    0  502 -0.19876437157E+02  0.17285298709E+02  0.20668043808E+03  0.20835224450E+03  0.00000000000E+00 0.  1.
<mgrwt>
<rscale>  2 0.83732703E+02</rscale>
<asrwt>0</asrwt>
<pdfrwt beam="1">  1       21 0.40279599E-01 0.83732703E+02</pdfrwt>
<pdfrwt beam="2">  1       21 0.16633027E-01 0.83732703E+02</pdfrwt>
<totfact> 0.19891701E+05</totfact>
</mgrwt>
</event>
<event>
 5    1  0.1994521E+000  0.1164556E+03  0.7546771E-02  0.1249061E+00
         21   -1    0    0  503  502  0.00000000000E+00  0.00000000000E+00  0.23809242764E+03  0.23809242764E+03  0.00000000000E+00 0.  1.
         21   -1    0    0  501  503 -0.00000000000E+00 -0.00000000000E+00 -0.15927282828E+03  0.15927282828E+03  0.00000000000E+00 0. -1.
         24    1    1    2    0    0  0.78516700453E+02 -0.45537940255E+02  0.88200925889E+02  0.14995064366E+03  0.80419002446E+02 0. -1.
          1    1    1    2  501    0 -0.81098273189E+02  0.16837841901E+02 -0.11286361353E+03  0.13999513597E+03  0.00000000000E+00 0. -1.
         -2    1    1    2    0  502  0.25815727362E+01  0.28700098354E+02  0.10348228701E+03  0.10741947629E+03  0.00000000000E+00 0.  1.
<mgrwt>
<rscale>  2 0.11645560E+03</rscale>
<asrwt>0</asrwt>
<pdfrwt beam="1">  1       21 0.36629604E-01 0.11645560E+03</pdfrwt>
<pdfrwt beam="2">  1       21 0.24503512E-01 0.11645560E+03</pdfrwt>
<totfact> 0.11632112E+05</totfact>
</mgrwt>
</event>
<event>
 5    1  0.1994521E+000  0.6768402E+02  0.7546771E-02  0.1368151E+00
         21   -1    0    0  501  502  0.00000000000E+00  0.00000000000E+00  0.16326175477E+03  0.16326175477E+03  0.00000000000E+00 0. -1.
         21   -1    0    0  502  503 -0.00000000000E+00 -0.00000000000E+00 -0.30138804583E+02  0.30138804583E+02  0.00000000000E+00 0. -1.
         24    1    1    2    0    0 -0.33545853059E+02  0.26287537783E+02  0.11179614960E+03  0.14415947392E+03  0.80419002446E+02 0. -1.
          1    1    1    2  501    0  0.21364837830E+02 -0.89469633648E+01  0.10245923236E+02  0.25327522420E+02  0.00000000000E+00 0. -1.
         -2    1    1    2    0  503  0.12181015229E+02 -0.17340574418E+02  0.11080877343E+02  0.23913563011E+02  0.00000000000E+00 0.  1.
<mgrwt>
<rscale>  2 0.67684023E+02</rscale>
<asrwt>0</asrwt>
<pdfrwt beam="1">  1       21 0.25117192E-01 0.67684023E+02</pdfrwt>
<pdfrwt beam="2">  1       21 0.46367393E-02 0.67684023E+02</pdfrwt>
<totfact> 0.43575030E+06</totfact>
</mgrwt>
</event>
<event>
 5    1  0.1994521E+000  0.8764532E+02  0.7546771E-02  0.1308656E+00
         21   -1    0    0  503  502  0.00000000000E+00  0.00000000000E+00  0.24051258204E+03  0.24051258204E+03  0.00000000000E+00 0. -1.
         21   -1    0    0  501  503 -0.00000000000E+00 -0.00000000000E+00 -0.62919758186E+02  0.62919758186E+02  0.00000000000E+00 0.  1.
         24    1    1    2    0    0 -0.11434933402E+02 -0.68185960553E+02  0.10360248214E+03  0.14825914197E+03  0.80419002446E+02 0. -1.
          1    1    1    2  501    0  0.24361733778E+01  0.25326377031E+02 -0.31770948486E+02  0.40703236750E+02  0.00000000000E+00 0. -1.
         -2    1    1    2    0  502  0.89987600247E+01  0.42859583522E+02  0.10576129021E+03  0.11446996151E+03  0.00000000000E+00 0.  1.
<mgrwt>
<rscale>  2 0.87645321E+02</rscale>
<asrwt>0</asrwt>
<pdfrwt beam="1">  1       21 0.37001935E-01 0.87645321E+02</pdfrwt>
<pdfrwt beam="2">  1       21 0.96799629E-02 0.87645321E+02</pdfrwt>
<totfact> 0.60927374E+05</totfact>
</mgrwt>
</event>
<event>
 5    1  0.1994521E+000  0.9098436E+02  0.7546771E-02  0.1300485E+00
         21   -1    0    0  503  502  0.00000000000E+00  0.00000000000E+00  0.12065576201E+04  0.12065576201E+04  0.00000000000E+00 0. -1.
         21   -1    0    0  501  503 -0.00000000000E+00 -0.00000000000E+00 -0.32859563772E+02  0.32859563772E+02  0.00000000000E+00 0. -1.
         24    1    1    2    0    0 -0.52360936847E-01  0.55782173934E+02  0.11457584191E+04  0.11499309651E+04  0.80419002446E+02 0. -1.
          1    1    1    2  501    0  0.25082729483E+02 -0.53345698541E+02  0.13454665032E+02  0.60464327353E+02  0.00000000000E+00 0. -1.
         -2    1    1    2    0  502 -0.25030368546E+02 -0.24364753928E+01  0.14484972252E+02  0.29021891444E+02  0.00000000000E+00 0.  1.
<mgrwt>
<rscale>  2 0.90984357E+02</rscale>
<asrwt>0</asrwt>
<pdfrwt beam="1">  1       21 0.18562422E+00 0.90984357E+02</pdfrwt>
<pdfrwt beam="2">  1       21 0.50553184E-02 0.90984357E+02</pdfrwt>
<totfact> 0.47661809E+04</totfact>
</mgrwt>
</event>
<event>
 5    1  0.1994521E+000  0.1025283E+03  0.7546771E-02  0.1275067E+00
         21   -1    0    0  503  502  0.00000000000E+00  0.00000000000E+00  0.18308666785E+03  0.18308666785E+03  0.00000000000E+00 0. -1.
         21   -1    0    0  501  503 -0.00000000000E+00 -0.00000000000E+00 -0.62981299862E+02  0.62981299862E+02  0.00000000000E+00 0. -1.
         24    1    1    2    0    0 -0.59852985724E+02 -0.53717225535E+02  0.31839703802E+02  0.11810547367E+03  0.80419002446E+02 0. -1.
          1    1    1    2  501    0  0.38587395628E+02  0.57968897947E+02  0.57427217102E+02  0.90262204131E+02  0.00000000000E+00 0. -1.
         -2    1    1    2    0  502  0.21265590097E+02 -0.42516724116E+01  0.30838447081E+02  0.37700289904E+02  0.00000000000E+00 0.  1.
<mgrwt>
<rscale>  2 0.10252834E+03</rscale>
<asrwt>0</asrwt>
<pdfrwt beam="1">  1       21 0.28167179E-01 0.10252834E+03</pdfrwt>
<pdfrwt beam="2">  1       21 0.96894308E-02 0.10252834E+03</pdfrwt>
<totfact> 0.10311724E+06</totfact>
</mgrwt>
</event>
<event>
 5    1  0.1994521E+000  0.1029670E+03  0.7546771E-02  0.1274178E+00
         21   -1    0    0  503  502  0.00000000000E+00  0.00000000000E+00  0.89414864581E+03  0.89414864581E+03  0.00000000000E+00 0.  1.
         21   -1    0    0  501  503 -0.00000000000E+00 -0.00000000000E+00 -0.14202946648E+02  0.14202946648E+02  0.00000000000E+00 0. -1.
         24    1    1    2    0    0 -0.52277687869E+02 -0.40968302205E+02  0.32386355244E+03  0.34024428722E+03  0.80419002446E+02 0. -1.
          1    1    1    2  501    0  0.35176258301E+02  0.63950611114E+02  0.24318539471E+03  0.25390192203E+03  0.00000000000E+00 0. -1.
         -2    1    1    2    0  502  0.17101429568E+02 -0.22982308909E+02  0.31289675202E+03  0.31420538321E+03  0.00000000000E+00 0.  1.
<mgrwt>
<rscale>  2 0.10296698E+03</rscale>
<asrwt>0</asrwt>
<pdfrwt beam="1">  1       21 0.13756129E+00 0.10296698E+03</pdfrwt>
<pdfrwt beam="2">  1       21 0.21850694E-02 0.10296698E+03</pdfrwt>
<totfact> 0.40883418E+05</totfact>
</mgrwt>
</event>
<event>
 5    1  0.1994521E+000  0.1130732E+03  0.7546771E-02  0.1254982E+00
         21   -1    0    0  501  502  0.00000000000E+00  0.00000000000E+00  0.18675913700E+02  0.18675913700E+02  0.00000000000E+00 0. -1.
         21   -1    0    0  502  503 -0.00000000000E+00 -0.00000000000E+00 -0.35861860311E+04  0.35861860311E+04  0.00000000000E+00 0.  1.
         24    1    1    2    0    0  0.41182788707E+02 -0.86928183456E+02 -0.11463452627E+04  0.11531813424E+04  0.80419002446E+02 0.  1.
          1    1    1    2  501    0 -0.22532484345E+02  0.16541559409E+02  0.14326150154E+01  0.27989076873E+02  0.00000000000E+00 0. -1.
         -2    1    1    2    0  503 -0.18650304363E+02  0.70386624047E+02 -0.24225974697E+04  0.24236915256E+04  0.00000000000E+00 0.  1.
<mgrwt>
<rscale>  2 0.11307320E+03</rscale>
<asrwt>0</asrwt>
<pdfrwt beam="1">  1       21 0.28732241E-02 0.11307320E+03</pdfrwt>
<pdfrwt beam="2">  1       21 0.55171965E+00 0.11307320E+03</pdfrwt>
<totfact> 0.64099191E+02</totfact>
</mgrwt>
</event>
<event>
 5    1  0.1994521E+000  0.6788135E+02  0.7546771E-02  0.1367449E+00
         21   -1    0    0  501  502  0.00000000000E+00  0.00000000000E+00  0.20529988369E+03  0.20529988369E+03  0.00000000000E+00 0. -1.
         21   -1    0    0  502  503 -0.00000000000E+00 -0.00000000000E+00 -0.13651291135E+03  0.13651291135E+03  0.00000000000E+00 0.  1.
         24    1    1    2    0    0  0.18961104619E+02 -0.69761214325E+01 -0.11909077602E+03  0.14511381273E+03  0.80419002446E+02 0.  1.
          1    1    1    2  501    0 -0.12636310226E+02  0.28091295190E+02  0.14764470562E+03  0.15082359331E+03  0.00000000000E+00 0. -1.
         -2    1    1    2    0  503 -0.63247943927E+01 -0.21115173758E+02  0.40233042740E+02  0.45875388990E+02  0.00000000000E+00 0.  1.
<mgrwt>
<rscale>  2 0.67881352E+02</rscale>
<asrwt>0</asrwt>
<pdfrwt beam="1">  1       21 0.31584598E-01 0.67881352E+02</pdfrwt>
<pdfrwt beam="2">  1       21 0.21001986E-01 0.67881352E+02</pdfrwt>
<totfact> 0.20998249E+05</totfact>
</mgrwt>
</event>
<event>
 5    1  0.1994521E+000  0.6382597E+02  0.7546771E-02  0.1382443E+00
         21   -1    0    0  501  502  0.00000000000E+00  0.00000000000E+00  0.52550632902E+01  0.52550632902E+01  0.00000000000E+00 0.  1.
         21   -1    0    0  502  503 -0.00000000000E+00 -0.00000000000E+00 -0.95822685558E+03  0.95822685558E+03  0.00000000000E+00 0.  1.
         24    1    1    2    0    0 -0.21128216193E+02 -0.18996111107E+01 -0.39528473409E+03  0.40393965762E+03  0.80419002446E+02 0.  1.
          1    1    1    2  501    0  0.98489297905E+01  0.20491929163E+02 -0.22519007083E+03  0.22633490359E+03  0.00000000000E+00 0. -1.
         -2    1    1    2    0  503  0.11279286403E+02 -0.18592318052E+02 -0.33249698737E+03  0.33320735766E+03  0.00000000000E+00 0.  1.
<mgrwt>
<rscale>  2 0.63825968E+02</rscale>
<asrwt>0</asrwt>
<pdfrwt beam="1">  1       21 0.80847096E-03 0.63825968E+02</pdfrwt>
<pdfrwt beam="2">  1       21 0.14741957E+00 0.63825968E+02</pdfrwt>
<totfact> 0.16475218E+06</totfact>
</mgrwt>
</event>
<event>
 5    1  0.2964206E+000  0.8549070E+02  0.7546771E-02  0.1314154E+00
         21   -1    0    0  503  502  0.00000000000E+00  0.00000000000E+00  0.49527085615E+03  0.49527085615E+03  0.00000000000E+00 0.  1.
         21   -1    0    0  501  503 -0.00000000000E+00 -0.00000000000E+00 -0.10729222113E+03  0.10729222113E+03  0.00000000000E+00 0. -1.
         24    1    1    2    0    0 -0.42943555669E+02 -0.19500411407E+02  0.35106748705E+03  0.36323547656E+03  0.80419002446E+02 0.  1.
          1    1    1    2  501    0  0.29006648388E+02  0.42145221723E+02 -0.93311876072E+02  0.10641762815E+03  0.00000000000E+00 0. -1.
         -2    1    1    2    0  502  0.13936907280E+02 -0.22644810316E+02  0.13022302404E+03  0.13290997258E+03  0.00000000000E+00 0.  1.
<mgrwt>
<rscale>  2 0.85490697E+02</rscale>
<asrwt>0</asrwt>
<pdfrwt beam="1">  1       21 0.76195515E-01 0.85490697E+02</pdfrwt>
<pdfrwt beam="2">  1       21 0.16506496E-01 0.85490697E+02</pdfrwt>
<totfact> 0.53709178E+04</totfact>
</mgrwt>
</event>
<event>
 5    1  0.1994521E+000  0.8237201E+02  0.7546771E-02  0.1322452E+00
         21   -1    0    0  501  502  0.00000000000E+00  0.00000000000E+00  0.12475930478E+03  0.12475930478E+03  0.00000000000E+00 0. -1.
         21   -1    0    0  502  503 -0.00000000000E+00 -0.00000000000E+00 -0.20353068594E+04  0.20353068594E+04  0.00000000000E+00 0.  1.
         24    1    1    2    0    0  0.35950791463E+02 -0.88280316658E+01 -0.70240291476E+02  0.11301021215E+03  0.80419002446E+02 0.  1.
          1    1    1    2  501    0 -0.31027648183E+02  0.36615311375E+02  0.97695556673E+02  0.10884768152E+03  0.00000000000E+00 0. -1.
         -2    1    1    2    0  503 -0.49231432800E+01 -0.27787279709E+02 -0.19380028198E+04  0.19382082705E+04  0.00000000000E+00 0.  1.
<mgrwt>
<rscale>  2 0.82372008E+02</rscale>
<asrwt>0</asrwt>
<pdfrwt beam="1">  1       21 0.19193739E-01 0.82372008E+02</pdfrwt>
<pdfrwt beam="2">  1       21 0.31312413E+00 0.82372008E+02</pdfrwt>
<totfact> 0.90000822E+02</totfact>
</mgrwt>
</event>
<event>
 5    1  0.1994521E+000  0.9718710E+02  0.7546771E-02  0.1286325E+00
         21   -1    0    0  503  502  0.00000000000E+00  0.00000000000E+00  0.13591436650E+03  0.13591436650E+03  0.00000000000E+00 0. -1.
         21   -1    0    0  501  503 -0.00000000000E+00 -0.00000000000E+00 -0.84994286174E+02  0.84994286174E+02  0.00000000000E+00 0.  1.
         24    1    1    2    0    0 -0.47856112418E+02 -0.11462542630E+02  0.53872082335E+02  0.10858643833E+03  0.80419002446E+02 0.  0.
          1    1    1    2  501    0 -0.20836355566E+02 -0.15840627271E+02 -0.23950094952E+02  0.35477968288E+02  0.00000000000E+00 0. -1.
         -2    1    1    2    0  502  0.68692467985E+02  0.27303169901E+02  0.20998092941E+02  0.76844246054E+02  0.00000000000E+00 0.  1.
<mgrwt>
<rscale>  2 0.97187098E+02</rscale>
<asrwt>0</asrwt>
<pdfrwt beam="1">  1       21 0.20909903E-01 0.97187098E+02</pdfrwt>
<pdfrwt beam="2">  1       21 0.13076044E-01 0.97187098E+02</pdfrwt>
<totfact> 0.10641968E+06</totfact>
</mgrwt>
</event>
<event>
 5    1  0.1994521E+000  0.7467854E+02  0.7546771E-02  0.1344869E+00
         21   -1    0    0  503  502  0.00000000000E+00  0.00000000000E+00  0.56758641717E+02  0.56758641717E+02  0.00000000000E+00 0.  1.
         21   -1    0    0  501  503 -0.00000000000E+00 -0.00000000000E+00 -0.64691799993E+03  0.64691799993E+03  0.00000000000E+00 0.  1.
         24    1    1    2    0    0 -0.22642956332E+02  0.40279068641E+02 -0.42345521893E+03  0.43349353540E+03  0.80419002446E+02 0.  1.
          1    1    1    2  501    0  0.25794246397E+02 -0.12522116948E+02 -0.21364403462E+03  0.21555955115E+03  0.00000000000E+00 0. -1.
         -2    1    1    2    0  502 -0.31512900650E+01 -0.27756951694E+02  0.46939895343E+02  0.54623555095E+02  0.00000000000E+00 0.  1.
<mgrwt>
<rscale>  2 0.74678535E+02</rscale>
<asrwt>0</asrwt>
<pdfrwt beam="1">  1       21 0.87320987E-02 0.74678535E+02</pdfrwt>
<pdfrwt beam="2">  1       21 0.99525846E-01 0.74678535E+02</pdfrwt>
<totfact> 0.90773746E+04</totfact>
</mgrwt>
</event>
<event>
 5    1  0.1994521E+000  0.7091674E+02  0.7546771E-02  0.1357003E+00
         21   -1    0    0  501  502  0.00000000000E+00  0.00000000000E+00  0.98274186898E+02  0.98274186898E+02  0.00000000000E+00 0. -1.
         21   -1    0    0  502  503 -0.00000000000E+00 -0.00000000000E+00 -0.66314184759E+02  0.66314184759E+02  0.00000000000E+00 0. -1.
         24    1    1    2    0    0 -0.43283068541E+01  0.10021983173E+02 -0.20585125526E+02  0.83726565284E+02  0.80419002446E+02 0.  0.
          1    1    1    2  501    0  0.20957697255E+02  0.18307130586E+02  0.30575656419E+02  0.41343038954E+02  0.00000000000E+00 0. -1.
         -2    1    1    2    0  503 -0.16629390400E+02 -0.28329113759E+02  0.21969471247E+02  0.39518767419E+02  0.00000000000E+00 0.  1.
<mgrwt>
<rscale>  2 0.70916737E+02</rscale>
<asrwt>0</asrwt>
<pdfrwt beam="1">  1       21 0.15119106E-01 0.70916737E+02</pdfrwt>
<pdfrwt beam="2">  1       21 0.10202182E-01 0.70916737E+02</pdfrwt>
<totfact> 0.29128129E+06</totfact>
</mgrwt>
</event>
<event>
 5    1  0.1994521E+000  0.6959249E+02  0.7546771E-02  0.1361484E+00
         21   -1    0    0  503  502  0.00000000000E+00  0.00000000000E+00  0.19187266956E+02  0.19187266956E+02  0.00000000000E+00 0.  1.
         21   -1    0    0  501  503 -0.00000000000E+00 -0.00000000000E+00 -0.10025466828E+04  0.10025466828E+04  0.00000000000E+00 0.  1.
         24    1    1    2    0    0  0.22841863246E+02  0.28999496664E+01 -0.92713644596E+03  0.93090244698E+03  0.80419002446E+02 0.  1.
          1    1    1    2  501    0 -0.10736585196E+02 -0.26730298372E+02 -0.57244101036E+02  0.64083306845E+02  0.00000000000E+00 0. -1.
         -2    1    1    2    0  502 -0.12105278051E+02  0.23830348705E+02  0.10211311576E+01  0.26748195920E+02  0.00000000000E+00 0.  1.
<mgrwt>
<rscale>  2 0.69592488E+02</rscale>
<asrwt>0</asrwt>
<pdfrwt beam="1">  1       21 0.29518862E-02 0.69592488E+02</pdfrwt>
<pdfrwt beam="2">  1       21 0.15423801E+00 0.69592488E+02</pdfrwt>
<totfact> 0.19131337E+05</totfact>
</mgrwt>
</event>
<event>
 5    1  0.1994521E+000  0.8041771E+02  0.7546771E-02  0.1327870E+00
         21   -1    0    0  501  502  0.00000000000E+00  0.00000000000E+00  0.42012058968E+02  0.42012058968E+02  0.00000000000E+00 0. -1.
         21   -1    0    0  502  503 -0.00000000000E+00 -0.00000000000E+00 -0.17196824632E+03  0.17196824632E+03  0.00000000000E+00 0. -1.
         24    1    1    2    0    0  0.39615648596E+02 -0.26049193781E+02 -0.92655632179E+02  0.13153038523E+03  0.80419002446E+02 0. -1.
          1    1    1    2  501    0 -0.40963137442E+02 -0.43145036335E+00 -0.59581002754E+01  0.41396421795E+02  0.00000000000E+00 0. -1.
         -2    1    1    2    0  503  0.13474888456E+01  0.26480644144E+02 -0.31342454899E+02  0.41053498262E+02  0.00000000000E+00 0.  1.
<mgrwt>
<rscale>  2 0.80417711E+02</rscale>
<asrwt>0</asrwt>
<pdfrwt beam="1">  1       21 0.64633937E-02 0.80417711E+02</pdfrwt>
<pdfrwt beam="2">  1       21 0.26456653E-01 0.80417711E+02</pdfrwt>
<totfact> 0.23001215E+06</totfact>
</mgrwt>
</event>
<event>
 5    1  0.1994521E+000  0.1084710E+03  0.7546771E-02  0.1263428E+00
         21   -1    0    0  503  502  0.00000000000E+00  0.00000000000E+00  0.14055099594E+03  0.14055099594E+03  0.00000000000E+00 0. -1.
         21   -1    0    0  501  503 -0.00000000000E+00 -0.00000000000E+00 -0.10267574098E+03  0.10267574098E+03  0.00000000000E+00 0.  1.
         24    1    1    2    0    0 -0.85935737398E+02  0.74994729364E+01  0.58779935862E+02  0.13177059562E+03  0.80419002446E+02 0.  0.
          1    1    1    2  501    0  0.16315409620E+02 -0.22497262402E+02 -0.28534259788E+02  0.39831186127E+02  0.00000000000E+00 0. -1.
         -2    1    1    2    0  502  0.69620327778E+02  0.14997789465E+02  0.76295788892E+01  0.71624955168E+02  0.00000000000E+00 0.  1.
<mgrwt>
<rscale>  2 0.10847100E+03</rscale>
<asrwt>0</asrwt>
<pdfrwt beam="1">  1       21 0.21623230E-01 0.10847100E+03</pdfrwt>
<pdfrwt beam="2">  1       21 0.15796268E-01 0.10847100E+03</pdfrwt>
<totfact> 0.71467079E+05</totfact>
</mgrwt>
</event>
<event>
 5    1  0.1994521E+000  0.9631984E+02  0.7546771E-02  0.1288231E+00
         21   -1    0    0  501  502  0.00000000000E+00  0.00000000000E+00  0.23730027266E+02  0.23730027266E+02  0.00000000000E+00 0.  1.
         21   -1    0    0  502  503 -0.00000000000E+00 -0.00000000000E+00 -0.51549293723E+03  0.51549293723E+03  0.00000000000E+00 0. -1.
         24    1    1    2    0    0  0.39302798226E+02 -0.38004047079E+02 -0.13858765571E+03  0.16930083228E+03  0.80419002446E+02 0.  1.
          1    1    1    2  501    0 -0.60806041195E+02  0.12571871885E+02 -0.12764433983E+03  0.14194542648E+03  0.00000000000E+00 0. -1.
         -2    1    1    2    0  503  0.21503242969E+02  0.25432175194E+02 -0.22553091443E+03  0.22797670573E+03  0.00000000000E+00 0.  1.
<mgrwt>
<rscale>  2 0.96319839E+02</rscale>
<asrwt>0</asrwt>
<pdfrwt beam="1">  1       21 0.36507733E-02 0.96319839E+02</pdfrwt>
<pdfrwt beam="2">  1       21 0.79306609E-01 0.96319839E+02</pdfrwt>
<totfact> 0.64655567E+05</totfact>
</mgrwt>
</event>
<event>
 5    1  0.1994521E+000  0.6602504E+02  0.7546771E-02  0.1374157E+00
         21   -1    0    0  503  502  0.00000000000E+00  0.00000000000E+00  0.16979261632E+03  0.16979261632E+03  0.00000000000E+00 0. -1.
         21   -1    0    0  501  503 -0.00000000000E+00 -0.00000000000E+00 -0.58691371078E+02  0.58691371078E+02  0.00000000000E+00 0. -1.
         24    1    1    2    0    0 -0.39598105352E+02 -0.92584457433E+01  0.12920183482E+03  0.15752478802E+03  0.80419002446E+02 0. -1.
          1    1    1    2  501    0  0.19502602718E+02  0.98096679513E+01 -0.37262617818E+02  0.43186615806E+02  0.00000000000E+00 0. -1.
         -2    1    1    2    0  502  0.20095502634E+02 -0.55122220798E+00  0.19162028238E+02  0.27772583571E+02  0.00000000000E+00 0.  1.
<mgrwt>
<rscale>  2 0.66025042E+02</rscale>
<asrwt>0</asrwt>
<pdfrwt beam="1">  1       21 0.26121941E-01 0.66025042E+02</pdfrwt>
<pdfrwt beam="2">  1       21 0.90294418E-02 0.66025042E+02</pdfrwt>
<totfact> 0.13259821E+06</totfact>
</mgrwt>
</event>
<event>
 5    1  0.1994521E+000  0.7625132E+02  0.7546771E-02  0.1340039E+00
         21   -1    0    0  503  502  0.00000000000E+00  0.00000000000E+00  0.75090484419E+03  0.75090484419E+03  0.00000000000E+00 0. -1.
         21   -1    0    0  501  503 -0.00000000000E+00 -0.00000000000E+00 -0.64486046489E+02  0.64486046489E+02  0.00000000000E+00 0. -1.
         24    1    1    2    0    0 -0.32121383476E+02 -0.14863460704E+02  0.20168082951E+03  0.21998881491E+03  0.80419002446E+02 0. -1.
          1    1    1    2  501    0  0.16487692421E+01  0.30393210345E+02 -0.50558665458E+02  0.59013933338E+02  0.00000000000E+00 0. -1.
         -2    1    1    2    0  502  0.30472614234E+02 -0.15529749641E+02  0.53529663365E+03  0.53638814243E+03  0.00000000000E+00 0.  1.
<mgrwt>
<rscale>  2 0.76251320E+02</rscale>
<asrwt>0</asrwt>
<pdfrwt beam="1">  1       21 0.11552382E+00 0.76251320E+02</pdfrwt>
<pdfrwt beam="2">  1       21 0.99209307E-02 0.76251320E+02</pdfrwt>
<totfact> 0.51436110E+04</totfact>
</mgrwt>
</event>
<event>
 5    1  0.1994521E+000  0.7739166E+02  0.7546771E-02  0.1336621E+00
         21   -1    0    0  503  502  0.00000000000E+00  0.00000000000E+00  0.17793581767E+02  0.17793581767E+02  0.00000000000E+00 0.  1.
         21   -1    0    0  501  503 -0.00000000000E+00 -0.00000000000E+00 -0.46573584368E+03  0.46573584368E+03  0.00000000000E+00 0. -1.
         24    1    1    2    0    0  0.43619432671E+02 -0.24622202467E+02 -0.13568180144E+03  0.16548617754E+03  0.80419002446E+02 0.  1.
          1    1    1    2  501    0 -0.16534919022E+02  0.28231169419E+02 -0.18659310289E+03  0.18943966987E+03  0.00000000000E+00 0. -1.
         -2    1    1    2    0  502 -0.27084513650E+02 -0.36089669523E+01 -0.12566735758E+03  0.12860357803E+03  0.00000000000E+00 0.  1.
<mgrwt>
<rscale>  2 0.77391657E+02</rscale>
<asrwt>0</asrwt>
<pdfrwt beam="1">  1       21 0.27374736E-02 0.77391657E+02</pdfrwt>
<pdfrwt beam="2">  1       21 0.71651681E-01 0.77391657E+02</pdfrwt>
<totfact> 0.12859160E+06</totfact>
</mgrwt>
</event>
<event>
 5    1  0.1994521E+000  0.1416769E+03  0.7546771E-02  0.1211090E+00
         21   -1    0    0  503  502  0.00000000000E+00  0.00000000000E+00  0.18233060429E+02  0.18233060429E+02  0.00000000000E+00 0. -1.
         21   -1    0    0  501  503 -0.00000000000E+00 -0.00000000000E+00 -0.11764393684E+04  0.11764393684E+04  0.00000000000E+00 0.  1.
         24    1    1    2    0    0  0.10663549992E+03 -0.54241986071E+02 -0.47939732218E+03  0.50060196899E+03  0.80419002446E+02 0.  0.
          1    1    1    2  501    0 -0.32055375225E+02 -0.16806400127E+02 -0.27317925967E+03  0.27556652569E+03  0.00000000000E+00 0. -1.
         -2    1    1    2    0  502 -0.74580124694E+02  0.71048386197E+02 -0.40562972614E+03  0.41850393416E+03  0.00000000000E+00 0.  1.
<mgrwt>
<rscale>  2 0.14167685E+03</rscale>
<asrwt>0</asrwt>
<pdfrwt beam="1">  1       21 0.28050846E-02 0.14167685E+03</pdfrwt>
<pdfrwt beam="2">  1       21 0.18099078E+00 0.14167685E+03</pdfrwt>
<totfact> 0.13009741E+05</totfact>
</mgrwt>
</event>
<event>
 5    1  0.1994521E+000  0.1419209E+03  0.7546771E-02  0.1210767E+00
         21   -1    0    0  503  502  0.00000000000E+00  0.00000000000E+00  0.34811562046E+03  0.34811562046E+03  0.00000000000E+00 0.  1.
         21   -1    0    0  501  503 -0.00000000000E+00 -0.00000000000E+00 -0.68348595065E+02  0.68348595065E+02  0.00000000000E+00 0. -1.
         24    1    1    2    0    0 -0.67501907847E+02 -0.29823534390E+02  0.82008518035E+02  0.13652312533E+03  0.80419002446E+02 0. -1.
          1    1    1    2  501    0  0.39956873743E+02  0.95474819883E+02  0.47931720461E+02  0.11405894449E+03  0.00000000000E+00 0. -1.
         -2    1    1    2    0  502  0.27545034105E+02 -0.65651285492E+02  0.14982678690E+03  0.16588214570E+03  0.00000000000E+00 0.  1.
<mgrwt>
<rscale>  2 0.14192093E+03</rscale>
<asrwt>0</asrwt>
<pdfrwt beam="1">  1       21 0.53556248E-01 0.14192093E+03</pdfrwt>
<pdfrwt beam="2">  1       21 0.10515169E-01 0.14192093E+03</pdfrwt>
<totfact> 0.24811165E+05</totfact>
</mgrwt>
</event>
<event>
 5    1  0.1994521E+000  0.6621320E+02  0.7546771E-02  0.1373465E+00
         21   -1    0    0  501  502  0.00000000000E+00  0.00000000000E+00  0.13419670088E+03  0.13419670088E+03  0.00000000000E+00 0.  1.
         21   -1    0    0  502  503 -0.00000000000E+00 -0.00000000000E+00 -0.35619801965E+02  0.35619801965E+02  0.00000000000E+00 0. -1.
         24    1    1    2    0    0  0.26392662343E+00 -0.32903437260E+02  0.50779847585E+02  0.10064052224E+03  0.80419002446E+02 0.  0.
          1    1    1    2  501    0  0.15482963701E+02  0.13458482509E+02  0.36175228456E+02  0.41587258509E+02  0.00000000000E+00 0. -1.
         -2    1    1    2    0  503 -0.15746890325E+02  0.19444954751E+02  0.11621822873E+02  0.27588722099E+02  0.00000000000E+00 0.  1.
<mgrwt>
<rscale>  2 0.66213197E+02</rscale>
<asrwt>0</asrwt>
<pdfrwt beam="1">  1       21 0.20645646E-01 0.66213197E+02</pdfrwt>
<pdfrwt beam="2">  1       21 0.54799696E-02 0.66213197E+02</pdfrwt>
<totfact> 0.47329013E+06</totfact>
</mgrwt>
</event>
<event>
 5    1  0.1994521E+000  0.8547830E+02  0.7546771E-02  0.1314186E+00
         21   -1    0    0  503  502  0.00000000000E+00  0.00000000000E+00  0.85566896825E+01  0.85566896825E+01  0.00000000000E+00 0.  1.
         21   -1    0    0  501  503 -0.00000000000E+00 -0.00000000000E+00 -0.90726028301E+03  0.90726028301E+03  0.00000000000E+00 0.  1.
         24    1    1    2    0    0 -0.47164571510E+01  0.42743436502E+02 -0.40816705863E+03  0.41823057042E+03  0.80419002446E+02 0.  1.
          1    1    1    2  501    0 -0.31088255422E+02 -0.15297512716E+02 -0.14318657567E+03  0.14731900411E+03  0.00000000000E+00 0. -1.
         -2    1    1    2    0  502  0.35804712573E+02 -0.27445923786E+02 -0.34734995903E+03  0.35026739816E+03  0.00000000000E+00 0.  1.
<mgrwt>
<rscale>  2 0.85478296E+02</rscale>
<asrwt>0</asrwt>
<pdfrwt beam="1">  1       21 0.13164137E-02 0.85478296E+02</pdfrwt>
<pdfrwt beam="2">  1       21 0.13957851E+00 0.85478296E+02</pdfrwt>
<totfact> 0.88595556E+05</totfact>
</mgrwt>
</event>
<event>
 5    1  0.1994521E+000  0.7277992E+02  0.7546771E-02  0.1350887E+00
         21   -1    0    0  503  502  0.00000000000E+00  0.00000000000E+00  0.14271485944E+03  0.14271485944E+03  0.00000000000E+00 0. -1.
         21   -1    0    0  501  503 -0.00000000000E+00 -0.00000000000E+00 -0.41335441456E+02  0.41335441456E+02  0.00000000000E+00 0.  1.
         24    1    1    2    0    0  0.15751754346E+02  0.16779776154E+02  0.74527484102E+02  0.11203231897E+03  0.80419002446E+02 0. -1.
          1    1    1    2  501    0 -0.24547039466E+02  0.15114808851E+02 -0.89017492356E+00  0.28841064553E+02  0.00000000000E+00 0. -1.
         -2    1    1    2    0  502  0.87952851204E+01 -0.31894585005E+02  0.27742108807E+02  0.43176917375E+02  0.00000000000E+00 0.  1.
<mgrwt>
<rscale>  2 0.72779916E+02</rscale>
<asrwt>0</asrwt>
<pdfrwt beam="1">  1       21 0.21956132E-01 0.72779916E+02</pdfrwt>
<pdfrwt beam="2">  1       21 0.63592987E-02 0.72779916E+02</pdfrwt>
<totfact> 0.33225908E+06</totfact>
</mgrwt>
</event>
<event>
 5    1  0.2322931E+000  0.7326858E+02  0.7546771E-02  0.1349318E+00
         21   -1    0    0  501  502  0.00000000000E+00  0.00000000000E+00  0.17092094475E+03  0.17092094475E+03  0.00000000000E+00 0. -1.
         21   -1    0    0  502  503 -0.00000000000E+00 -0.00000000000E+00 -0.36489791220E+03  0.36489791220E+03  0.00000000000E+00 0.  1.
         24    1    1    2    0    0  0.33687910296E+01 -0.17417748774E+02  0.72429118504E+02  0.10967187373E+03  0.80419002446E+02 0.  0.
          1    1    1    2  501    0  0.29196874502E+02  0.75629042928E+01  0.76150020155E+02  0.81905314673E+02  0.00000000000E+00 0. -1.
         -2    1    1    2    0  503 -0.32565665531E+02  0.98548444814E+01 -0.34255610611E+03  0.34424166855E+03  0.00000000000E+00 0.  1.
<mgrwt>
<rscale>  2 0.73268578E+02</rscale>
<asrwt>0</asrwt>
<pdfrwt beam="1">  1       21 0.26295530E-01 0.73268578E+02</pdfrwt>
<pdfrwt beam="2">  1       21 0.56138140E-01 0.73268578E+02</pdfrwt>
<totfact> 0.44262104E+04</totfact>
</mgrwt>
</event>
<event>
 5    1  0.1994521E+000  0.1251063E+03  0.7546771E-02  0.1234903E+00
         21   -1    0    0  503  502  0.00000000000E+00  0.00000000000E+00  0.17039074979E+04  0.17039074979E+04  0.00000000000E+00 0. -1.
         21   -1    0    0  501  503 -0.00000000000E+00 -0.00000000000E+00 -0.27782621976E+02  0.27782621976E+02  0.00000000000E+00 0. -1.
         24    1    1    2    0    0  0.15316656334E+02 -0.11113228360E+03  0.99162028207E+03  0.10011807950E+04  0.80419002446E+02 0. -1.
          1    1    1    2  501    0 -0.10243066119E+02  0.73678702357E+02  0.39172056349E+02  0.84070931856E+02  0.00000000000E+00 0. -1.
         -2    1    1    2    0  502 -0.50735902144E+01  0.37453581239E+02  0.64533253753E+03  0.64643839309E+03  0.00000000000E+00 0.  1.
<mgrwt>
<rscale>  2 0.12510634E+03</rscale>
<asrwt>0</asrwt>
<pdfrwt beam="1">  1       21 0.26213953E+00 0.12510634E+03</pdfrwt>
<pdfrwt beam="2">  1       21 0.42742509E-02 0.12510634E+03</pdfrwt>
<totfact> 0.21240927E+04</totfact>
</mgrwt>
</event>
<event>
 5    1  0.1994521E+000  0.1328680E+03  0.7546771E-02  0.1223261E+00
         21   -1    0    0  503  502  0.00000000000E+00  0.00000000000E+00  0.31545186121E+03  0.31545186121E+03  0.00000000000E+00 0. -1.
         21   -1    0    0  501  503 -0.00000000000E+00 -0.00000000000E+00 -0.68504573668E+02  0.68504573668E+02  0.00000000000E+00 0. -1.
         24    1    1    2    0    0 -0.32796033305E+02 -0.71802750715E+02  0.33246365154E+02  0.11748936786E+03  0.80419002446E+02 0. -1.
          1    1    1    2  501    0 -0.18165325994E+02  0.95239547593E+02  0.97845899155E+02  0.13774748809E+03  0.00000000000E+00 0. -1.
         -2    1    1    2    0  502  0.50961359300E+02 -0.23436796878E+02  0.11585502324E+03  0.12871957892E+03  0.00000000000E+00 0.  1.
<mgrwt>
<rscale>  2 0.13286801E+03</rscale>
<asrwt>0</asrwt>
<pdfrwt beam="1">  1       21 0.48531055E-01 0.13286801E+03</pdfrwt>
<pdfrwt beam="2">  1       21 0.10539165E-01 0.13286801E+03</pdfrwt>
<totfact> 0.30368606E+05</totfact>
</mgrwt>
</event>
<event>
 5    1  0.1994521E+000  0.1276900E+03  0.7546771E-02  0.1230924E+00
         21   -1    0    0  503  502  0.00000000000E+00  0.00000000000E+00  0.12374432296E+04  0.12374432296E+04  0.00000000000E+00 0. -1.
         21   -1    0    0  501  503 -0.00000000000E+00 -0.00000000000E+00 -0.24193615823E+02  0.24193615823E+02  0.00000000000E+00 0. -1.
         24    1    1    2    0    0  0.79063102260E+02  0.15717980104E+02  0.23431879047E+03  0.26051975081E+03  0.80419002446E+02 0.  0.
          1    1    1    2  501    0  0.30743429670E+02 -0.55310237747E+01  0.22862482889E+02  0.38709737996E+02  0.00000000000E+00 0. -1.
         -2    1    1    2    0  502 -0.10980653193E+03 -0.10186956330E+02  0.95606834044E+03  0.96240735664E+03  0.00000000000E+00 0.  1.
<mgrwt>
<rscale>  2 0.12769004E+03</rscale>
<asrwt>0</asrwt>
<pdfrwt beam="1">  1       21 0.19037583E+00 0.12769004E+03</pdfrwt>
<pdfrwt beam="2">  1       21 0.37220957E-02 0.12769004E+03</pdfrwt>
<totfact> 0.71480932E+04</totfact>
</mgrwt>
</event>
<event>
 5    1  0.1994521E+000  0.8884728E+02  0.7546771E-02  0.1305667E+00
         21   -1    0    0  503  502  0.00000000000E+00  0.00000000000E+00  0.28224314796E+02  0.28224314796E+02  0.00000000000E+00 0. -1.
         21   -1    0    0  501  503 -0.00000000000E+00 -0.00000000000E+00 -0.44054486050E+03  0.44054486050E+03  0.00000000000E+00 0. -1.
         24    1    1    2    0    0 -0.26185405624E+02  0.27461830718E+02 -0.27490385771E+03  0.28892762858E+03  0.80419002446E+02 0. -1.
          1    1    1    2  501    0  0.14055983868E+01 -0.53099031546E+02 -0.13385446176E+03  0.14400867957E+03  0.00000000000E+00 0. -1.
         -2    1    1    2    0  502  0.24779807237E+02  0.25637200829E+02 -0.35622262369E+01  0.35832867158E+02  0.00000000000E+00 0.  1.
<mgrwt>
<rscale>  2 0.88847277E+02</rscale>
<asrwt>0</asrwt>
<pdfrwt beam="1">  1       21 0.43422023E-02 0.88847277E+02</pdfrwt>
<pdfrwt beam="2">  1       21 0.67776132E-01 0.88847277E+02</pdfrwt>
<totfact> 0.68395629E+05</totfact>
</mgrwt>
</event>
<event>
 5    1  0.1994521E+000  0.9813840E+02  0.7546771E-02  0.1284260E+00
         21   -1    0    0  501  502  0.00000000000E+00  0.00000000000E+00  0.70722579748E+02  0.70722579748E+02  0.00000000000E+00 0. -1.
         21   -1    0    0  502  503 -0.00000000000E+00 -0.00000000000E+00 -0.37079177997E+03  0.37079177997E+03  0.00000000000E+00 0.  1.
         24    1    1    2    0    0  0.49962394509E+02 -0.64304846821E+02 -0.79112445823E+02  0.13913069118E+03  0.80419002446E+02 0. -1.
          1    1    1    2  501    0 -0.31825282539E+02  0.46987798140E+02  0.19964793321E+02  0.60160574757E+02  0.00000000000E+00 0. -1.
         -2    1    1    2    0  503 -0.18137111970E+02  0.17317048681E+02 -0.24092154772E+03  0.24222309379E+03  0.00000000000E+00 0.  1.
<mgrwt>
<rscale>  2 0.98138397E+02</rscale>
<asrwt>0</asrwt>
<pdfrwt beam="1">  1       21 0.10880397E-01 0.98138397E+02</pdfrwt>
<pdfrwt beam="2">  1       21 0.57044890E-01 0.98138397E+02</pdfrwt>
<totfact> 0.20714408E+05</totfact>
</mgrwt>
</event>
<event>
 5    1  0.1994521E+000  0.6910224E+02  0.7546771E-02  0.1363173E+00
         21   -1    0    0  501  502  0.00000000000E+00  0.00000000000E+00  0.13178285774E+02  0.13178285774E+02  0.00000000000E+00 0. -1.
         21   -1    0    0  502  503 -0.00000000000E+00 -0.00000000000E+00 -0.38956311736E+03  0.38956311736E+03  0.00000000000E+00 0.  1.
         24    1    1    2    0    0 -0.16373931694E+02  0.11697534407E+02 -0.26723486825E+03  0.27979747804E+03  0.80419002446E+02 0.  0.
          1    1    1    2  501    0  0.14840386975E+02  0.19257901116E+02 -0.35387372223E+02  0.42934484436E+02  0.00000000000E+00 0. -1.
         -2    1    1    2    0  503  0.15335447181E+01 -0.30955435523E+02 -0.73762591108E+02  0.80009440660E+02  0.00000000000E+00 0.  1.
<mgrwt>
<rscale>  2 0.69102241E+02</rscale>
<asrwt>0</asrwt>
<pdfrwt beam="1">  1       21 0.20274288E-02 0.69102241E+02</pdfrwt>
<pdfrwt beam="2">  1       21 0.59932781E-01 0.69102241E+02</pdfrwt>
<totfact> 0.30222233E+06</totfact>
</mgrwt>
</event>
<event>
 5    1  0.1994521E+000  0.6950143E+02  0.7546771E-02  0.1361797E+00
         21   -1    0    0  503  502  0.00000000000E+00  0.00000000000E+00  0.65594645541E+02  0.65594645541E+02  0.00000000000E+00 0. -1.
         21   -1    0    0  501  503 -0.00000000000E+00 -0.00000000000E+00 -0.21928554146E+03  0.21928554146E+03  0.00000000000E+00 0. -1.
         24    1    1    2    0    0  0.15759849246E+01 -0.23298210120E+02 -0.48526139244E+01  0.83881190618E+02  0.80419002446E+02 0. -1.
          1    1    1    2  501    0  0.21061345769E+02 -0.21872847702E+01 -0.16279398776E+03  0.16416530373E+03  0.00000000000E+00 0. -1.
         -2    1    1    2    0  502 -0.22637330694E+02  0.25485494890E+02  0.13955705763E+02  0.36833692648E+02  0.00000000000E+00 0.  1.
<mgrwt>
<rscale>  2 0.69501425E+02</rscale>
<asrwt>0</asrwt>
<pdfrwt beam="1">  1       21 0.10091484E-01 0.69501425E+02</pdfrwt>
<pdfrwt beam="2">  1       21 0.33736238E-01 0.69501425E+02</pdfrwt>
<totfact> 0.67660050E+05</totfact>
</mgrwt>
</event>
<event>
 5    1  0.1994521E+000  0.7892598E+02  0.7546771E-02  0.1332127E+00
         21   -1    0    0  503  502  0.00000000000E+00  0.00000000000E+00  0.83884407305E+02  0.83884407305E+02  0.00000000000E+00 0. -1.
         21   -1    0    0  501  503 -0.00000000000E+00 -0.00000000000E+00 -0.16543228636E+03  0.16543228636E+03  0.00000000000E+00 0.  1.
         24    1    1    2    0    0 -0.25923045053E+02 -0.50752139441E+02 -0.13635970573E+03  0.16825269455E+03  0.80419002446E+02 0.  1.
          1    1    1    2  501    0  0.10147962768E+02  0.36977220945E+02  0.30648508029E+02  0.49087952305E+02  0.00000000000E+00 0. -1.
         -2    1    1    2    0  502  0.15775082285E+02  0.13774918496E+02  0.24163318654E+02  0.31976046802E+02  0.00000000000E+00 0.  1.
<mgrwt>
<rscale>  2 0.78925978E+02</rscale>
<asrwt>0</asrwt>
<pdfrwt beam="1">  1       21 0.12905294E-01 0.78925978E+02</pdfrwt>
<pdfrwt beam="2">  1       21 0.25451121E-01 0.78925978E+02</pdfrwt>
<totfact> 0.75380887E+05</totfact>
</mgrwt>
</event>
<event>
 5    1  0.1994521E+000  0.7956861E+02  0.7546771E-02  0.1330280E+00
         21   -1    0    0  503  502  0.00000000000E+00  0.00000000000E+00  0.80347313596E+02  0.80347313596E+02  0.00000000000E+00 0.  1.
         21   -1    0    0  501  503 -0.00000000000E+00 -0.00000000000E+00 -0.12478213605E+03  0.12478213605E+03  0.00000000000E+00 0. -1.
         24    1    1    2    0    0 -0.10632822945E+02  0.29249369475E+02  0.37427173590E+02  0.94003147903E+02  0.80419002446E+02 0.  1.
          1    1    1    2  501    0 -0.23133218403E+02 -0.31480807463E+02 -0.30246311333E+02  0.49406744291E+02  0.00000000000E+00 0. -1.
         -2    1    1    2    0  502  0.33766041348E+02  0.22314379880E+01 -0.51615684706E+02  0.61719557447E+02  0.00000000000E+00 0.  1.
<mgrwt>
<rscale>  2 0.79568607E+02</rscale>
<asrwt>0</asrwt>
<pdfrwt beam="1">  1       21 0.12361125E-01 0.79568607E+02</pdfrwt>
<pdfrwt beam="2">  1       21 0.19197252E-01 0.79568607E+02</pdfrwt>
<totfact> 0.13667613E+06</totfact>
</mgrwt>
</event>
<event>
 5    1  0.1994521E+000  0.1006781E+03  0.7546771E-02  0.1278877E+00
         21   -1    0    0  503  502  0.00000000000E+00  0.00000000000E+00  0.11034940503E+03  0.11034940503E+03  0.00000000000E+00 0.  1.
         21   -1    0    0  501  503 -0.00000000000E+00 -0.00000000000E+00 -0.13643107860E+03  0.13643107860E+03  0.00000000000E+00 0.  1.
         24    1    1    2    0    0  0.50479489491E+02 -0.23085367992E+02 -0.31611225347E+02  0.10270150241E+03  0.80419002446E+02 0.  1.
          1    1    1    2  501    0  0.30339729756E+01  0.45515442507E+02 -0.47224557335E+02  0.65658352965E+02  0.00000000000E+00 0. -1.
         -2    1    1    2    0  502 -0.53513462467E+02 -0.22430074515E+02  0.52754109115E+02  0.78420628258E+02  0.00000000000E+00 0.  1.
<mgrwt>
<rscale>  2 0.10067806E+03</rscale>
<asrwt>0</asrwt>
<pdfrwt beam="1">  1       21 0.16976832E-01 0.10067806E+03</pdfrwt>
<pdfrwt beam="2">  1       21 0.20989397E-01 0.10067806E+03</pdfrwt>
<totfact> 0.66267926E+05</totfact>
</mgrwt>
</event>
<event>
 5    1  0.1994521E+000  0.7432236E+02  0.7546771E-02  0.1345982E+00
         21   -1    0    0  501  502  0.00000000000E+00  0.00000000000E+00  0.18462277685E+02  0.18462277685E+02  0.00000000000E+00 0.  1.
         21   -1    0    0  502  503 -0.00000000000E+00 -0.00000000000E+00 -0.40421386080E+03  0.40421386080E+03  0.00000000000E+00 0. -1.
         24    1    1    2    0    0 -0.55532082128E+01  0.33763397759E+01 -0.24049724222E+03  0.25366981938E+03  0.80419002446E+02 0. -1.
          1    1    1    2  501    0 -0.29685337946E+02 -0.11441269320E+02 -0.17653446217E+02  0.36383596523E+02  0.00000000000E+00 0. -1.
         -2    1    1    2    0  503  0.35238546158E+02  0.80649295444E+01 -0.12760089468E+03  0.13262272259E+03  0.00000000000E+00 0.  1.
<mgrwt>
<rscale>  2 0.74322357E+02</rscale>
<asrwt>0</asrwt>
<pdfrwt beam="1">  1       21 0.28403505E-02 0.74322357E+02</pdfrwt>
<pdfrwt beam="2">  1       21 0.62186747E-01 0.74322357E+02</pdfrwt>
<totfact> 0.16359508E+06</totfact>
</mgrwt>
</event>
<event>
 5    1  0.1994521E+000  0.8857902E+02  0.7546771E-02  0.1306330E+00
         21   -1    0    0  501  502  0.00000000000E+00  0.00000000000E+00  0.21882766978E+03  0.21882766978E+03  0.00000000000E+00 0. -1.
         21   -1    0    0  502  503 -0.00000000000E+00 -0.00000000000E+00 -0.12271412560E+03  0.12271412560E+03  0.00000000000E+00 0.  1.
         24    1    1    2    0    0  0.47583135011E+02 -0.38372095148E+02  0.13372054108E+03  0.16758571385E+03  0.80419002446E+02 0. -1.
          1    1    1    2  501    0 -0.47529704172E+02  0.11017955578E+02  0.57258045038E+02  0.75226005114E+02  0.00000000000E+00 0. -1.
         -2    1    1    2    0  503 -0.53430839474E-01  0.27354139570E+02 -0.94865041942E+02  0.98730076416E+02  0.00000000000E+00 0.  1.
<mgrwt>
<rscale>  2 0.88579018E+02</rscale>
<asrwt>0</asrwt>
<pdfrwt beam="1">  1       21 0.33665795E-01 0.88579018E+02</pdfrwt>
<pdfrwt beam="2">  1       21 0.18879096E-01 0.88579018E+02</pdfrwt>
<totfact> 0.22433881E+05</totfact>
</mgrwt>
</event>
<event>
 5    1  0.1994521E+000  0.9274076E+02  0.7546771E-02  0.1296347E+00
         21   -1    0    0  503  502  0.00000000000E+00  0.00000000000E+00  0.52351472682E+03  0.52351472682E+03  0.00000000000E+00 0.  1.
         21   -1    0    0  501  503 -0.00000000000E+00 -0.00000000000E+00 -0.28263415293E+02  0.28263415293E+02  0.00000000000E+00 0.  1.
         24    1    1    2    0    0 -0.46463011585E+02  0.78992247062E+01  0.42687033496E+03  0.43692872190E+03  0.80419002446E+02 0.  1.
          1    1    1    2  501    0 -0.15835435253E+01  0.30637245729E+02  0.22239887684E+02  0.37891437557E+02  0.00000000000E+00 0. -1.
         -2    1    1    2    0  502  0.48046555110E+02 -0.38536470435E+02  0.46141088884E+02  0.76957982659E+02  0.00000000000E+00 0.  1.
<mgrwt>
<rscale>  2 0.92740756E+02</rscale>
<asrwt>0</asrwt>
<pdfrwt beam="1">  1       21 0.80540720E-01 0.92740756E+02</pdfrwt>
<pdfrwt beam="2">  1       21 0.43482181E-02 0.92740756E+02</pdfrwt>
<totfact> 0.46854133E+05</totfact>
</mgrwt>
</event>
<event>
 5    1  0.1994521E+000  0.1131646E+03  0.7546771E-02  0.1254819E+00
         21   -1    0    0  501  502  0.00000000000E+00  0.00000000000E+00  0.39274969073E+02  0.39274969073E+02  0.00000000000E+00 0. -1.
         21   -1    0    0  502  503 -0.00000000000E+00 -0.00000000000E+00 -0.57397806545E+03  0.57397806545E+03  0.00000000000E+00 0.  1.
         24    1    1    2    0    0 -0.59831353667E+02 -0.37210708993E+02 -0.27279774533E+03  0.29300213917E+03  0.80419002446E+02 0.  1.
          1    1    1    2  501    0 -0.10549500168E+02 -0.23948543578E+02  0.13531042497E+02  0.29460376854E+02  0.00000000000E+00 0. -1.
         -2    1    1    2    0  503  0.70380853835E+02  0.61159252571E+02 -0.27543639354E+03  0.29079051850E+03  0.00000000000E+00 0.  1.
<mgrwt>
<rscale>  2 0.11316460E+03</rscale>
<asrwt>0</asrwt>
<pdfrwt beam="1">  1       21 0.60423030E-02 0.11316460E+03</pdfrwt>
<pdfrwt beam="2">  1       21 0.88304317E-01 0.11316460E+03</pdfrwt>
<totfact> 0.21895352E+05</totfact>
</mgrwt>
</event>
<event>
 5    1  0.1994521E+000  0.1070835E+03  0.7546771E-02  0.1266068E+00
         21   -1    0    0  503  502  0.00000000000E+00  0.00000000000E+00  0.94590356998E+03  0.94590356998E+03  0.00000000000E+00 0. -1.
         21   -1    0    0  501  503 -0.00000000000E+00 -0.00000000000E+00 -0.12344212930E+02  0.12344212930E+02  0.00000000000E+00 0.  1.
         24    1    1    2    0    0  0.49899082640E+02 -0.10295462239E+02  0.35280527949E+03  0.36542399508E+03  0.80419002446E+02 0.  0.
          1    1    1    2  501    0  0.12622607359E+02 -0.37950162483E+02  0.18726035972E+03  0.19148364779E+03  0.00000000000E+00 0. -1.
         -2    1    1    2    0  502 -0.62521689999E+02  0.48245624722E+02  0.39349371785E+03  0.40134014005E+03  0.00000000000E+00 0.  1.
<mgrwt>
<rscale>  2 0.10708348E+03</rscale>
<asrwt>0</asrwt>
<pdfrwt beam="1">  1       21 0.14552357E+00 0.10708348E+03</pdfrwt>
<pdfrwt beam="2">  1       21 0.18991104E-02 0.10708348E+03</pdfrwt>
<totfact> 0.44373298E+05</totfact>
</mgrwt>
</event>
<event>
 5    1  0.1994521E+000  0.1210099E+03  0.7546771E-02  0.1241440E+00
         21   -1    0    0  503  502  0.00000000000E+00  0.00000000000E+00  0.16564174322E+04  0.16564174322E+04  0.00000000000E+00 0. -1.
         21   -1    0    0  501  503 -0.00000000000E+00 -0.00000000000E+00 -0.11875263724E+02  0.11875263724E+02  0.00000000000E+00 0. -1.
         24    1    1    2    0    0 -0.15945669987E+02 -0.87305388821E+02  0.43246389991E+03  0.44874127957E+03  0.80419002446E+02 0. -1.
          1    1    1    2  501    0  0.50452215725E+02  0.58951146629E+02  0.49117940948E+03  0.49727042548E+03  0.00000000000E+00 0. -1.
         -2    1    1    2    0  502 -0.34506545739E+02  0.28354242192E+02  0.72089885903E+03  0.72228099082E+03  0.00000000000E+00 0.  1.
<mgrwt>
<rscale>  2 0.12100992E+03</rscale>
<asrwt>0</asrwt>
<pdfrwt beam="1">  1       21 0.25483327E+00 0.12100992E+03</pdfrwt>
<pdfrwt beam="2">  1       21 0.18269650E-02 0.12100992E+03</pdfrwt>
<totfact> 0.94145644E+04</totfact>
</mgrwt>
</event>
<event>
 5    1  0.1994521E+000  0.1648609E+03  0.7546771E-02  0.1183316E+00
         21   -1    0    0  503  502  0.00000000000E+00  0.00000000000E+00  0.72180945001E+02  0.72180945001E+02  0.00000000000E+00 0.  1.
         21   -1    0    0  501  503 -0.00000000000E+00 -0.00000000000E+00 -0.71784054123E+03  0.71784054123E+03  0.00000000000E+00 0.  1.
         24    1    1    2    0    0  0.55409942025E+02  0.14453621802E+03 -0.43360234811E+03  0.46737478776E+03  0.80419002446E+02 0.  1.
          1    1    1    2  501    0 -0.20403867515E+02 -0.70443597815E+02 -0.22770148010E+03  0.23922078154E+03  0.00000000000E+00 0. -1.
         -2    1    1    2    0  502 -0.35006074510E+02 -0.74092620202E+02  0.15644231978E+02  0.83425916928E+02  0.00000000000E+00 0.  1.
<mgrwt>
<rscale>  2 0.16486091E+03</rscale>
<asrwt>0</asrwt>
<pdfrwt beam="1">  1       21 0.11104761E-01 0.16486091E+03</pdfrwt>
<pdfrwt beam="2">  1       21 0.11043701E+00 0.16486091E+03</pdfrwt>
<totfact> 0.44254973E+04</totfact>
</mgrwt>
</event>
<event>
 5    1  0.1994521E+000  0.6840454E+02  0.7546771E-02  0.1365604E+00
         21   -1    0    0  501  502  0.00000000000E+00  0.00000000000E+00  0.57569725405E+02  0.57569725405E+02  0.00000000000E+00 0.  1.
         21   -1    0    0  502  503 -0.00000000000E+00 -0.00000000000E+00 -0.92508284760E+02  0.92508284760E+02  0.00000000000E+00 0.  1.
         24    1    1    2    0    0  0.28902079687E+02 -0.33070968514E+02 -0.10202261010E+02  0.92197186794E+02  0.80419002446E+02 0.  1.
          1    1    1    2  501    0 -0.17265894093E+02  0.11738169256E+02  0.29023303971E+01  0.21078881328E+02  0.00000000000E+00 0. -1.
         -2    1    1    2    0  503 -0.11636185594E+02  0.21332799257E+02 -0.27638628743E+02  0.36801942043E+02  0.00000000000E+00 0.  1.
<mgrwt>
<rscale>  2 0.68404535E+02</rscale>
<asrwt>0</asrwt>
<pdfrwt beam="1">  1       21 0.88568809E-02 0.68404535E+02</pdfrwt>
<pdfrwt beam="2">  1       21 0.14232044E-01 0.68404535E+02</pdfrwt>
<totfact> 0.41207655E+06</totfact>
</mgrwt>
</event>
<event>
 5    1  0.1994521E+000  0.8044542E+02  0.7546771E-02  0.1327792E+00
         21   -1    0    0  503  502  0.00000000000E+00  0.00000000000E+00  0.43685265215E+03  0.43685265215E+03  0.00000000000E+00 0. -1.
         21   -1    0    0  501  503 -0.00000000000E+00 -0.00000000000E+00 -0.17670122031E+02  0.17670122031E+02  0.00000000000E+00 0.  1.
         24    1    1    2    0    0 -0.33905709398E+02 -0.25678710235E+02  0.16193295930E+03  0.18573769825E+03  0.80419002446E+02 0. -1.
          1    1    1    2  501    0  0.44607610766E+02  0.28430038180E+01  0.10012032965E+03  0.10964489052E+03  0.00000000000E+00 0. -1.
         -2    1    1    2    0  502 -0.10701901368E+02  0.22835706417E+02  0.15712924117E+03  0.15914018541E+03  0.00000000000E+00 0.  1.
<mgrwt>
<rscale>  2 0.80445417E+02</rscale>
<asrwt>0</asrwt>
<pdfrwt beam="1">  1       21 0.67208092E-01 0.80445417E+02</pdfrwt>
<pdfrwt beam="2">  1       21 0.27184806E-02 0.80445417E+02</pdfrwt>
<totfact> 0.14933116E+06</totfact>
</mgrwt>
</event>
<event>
 5    1  0.1994521E+000  0.7020789E+02  0.7546771E-02  0.1359388E+00
         21   -1    0    0  503  502  0.00000000000E+00  0.00000000000E+00  0.31115292812E+02  0.31115292812E+02  0.00000000000E+00 0.  1.
         21   -1    0    0  501  503 -0.00000000000E+00 -0.00000000000E+00 -0.22961406458E+03  0.22961406458E+03  0.00000000000E+00 0. -1.
         24    1    1    2    0    0 -0.24124075401E+02  0.59480599023E+01 -0.65319546449E+02  0.10654205523E+03  0.80419002446E+02 0.  0.
          1    1    1    2  501    0  0.14852683075E+02  0.22143791022E+02 -0.11792847700E+03  0.12090523299E+03  0.00000000000E+00 0. -1.
         -2    1    1    2    0  502  0.92713923264E+01 -0.28091850925E+02 -0.15250748312E+02  0.33282069168E+02  0.00000000000E+00 0.  1.
<mgrwt>
<rscale>  2 0.70207889E+02</rscale>
<asrwt>0</asrwt>
<pdfrwt beam="1">  1       21 0.47869681E-02 0.70207889E+02</pdfrwt>
<pdfrwt beam="2">  1       21 0.35325241E-01 0.70207889E+02</pdfrwt>
<totfact> 0.21728957E+06</totfact>
</mgrwt>
</event>
<event>
 5    1  0.1994521E+000  0.7782380E+02  0.7546771E-02  0.1335343E+00
         21   -1    0    0  503  502  0.00000000000E+00  0.00000000000E+00  0.14353098395E+03  0.14353098395E+03  0.00000000000E+00 0.  1.
         21   -1    0    0  501  503 -0.00000000000E+00 -0.00000000000E+00 -0.55328433625E+02  0.55328433625E+02  0.00000000000E+00 0. -1.
         24    1    1    2    0    0  0.20599759680E+02 -0.36914540867E+02  0.50706161864E+01  0.90994288443E+02  0.80419002446E+02 0. -1.
          1    1    1    2  501    0  0.21206836198E+01  0.41551780677E+02  0.34733871693E+02  0.54198612706E+02  0.00000000000E+00 0. -1.
         -2    1    1    2    0  502 -0.22720443300E+02 -0.46372398106E+01  0.48398062443E+02  0.53666516424E+02  0.00000000000E+00 0.  1.
<mgrwt>
<rscale>  2 0.77823804E+02</rscale>
<asrwt>0</asrwt>
<pdfrwt beam="1">  1       21 0.22081690E-01 0.77823804E+02</pdfrwt>
<pdfrwt beam="2">  1       21 0.85120668E-02 0.77823804E+02</pdfrwt>
<totfact> 0.20153403E+06</totfact>
</mgrwt>
</event>
<event>
 5    1  0.1994521E+000  0.9590056E+02  0.7546771E-02  0.1289161E+00
         21   -1    0    0  503  502  0.00000000000E+00  0.00000000000E+00  0.93011858214E+03  0.93011858214E+03  0.00000000000E+00 0.  1.
         21   -1    0    0  501  503 -0.00000000000E+00 -0.00000000000E+00 -0.12963995005E+02  0.12963995005E+02  0.00000000000E+00 0. -1.
         24    1    1    2    0    0  0.17964792190E+02  0.11592162562E+02  0.57987751225E+03  0.58581759718E+03  0.80419002446E+02 0.  1.
          1    1    1    2  501    0  0.40282196200E+02  0.16975706050E+02  0.72523957785E+02  0.84679125996E+02  0.00000000000E+00 0. -1.
         -2    1    1    2    0  502 -0.58246988389E+02 -0.28567868612E+02  0.26475311710E+03  0.27258585397E+03  0.00000000000E+00 0.  1.
<mgrwt>
<rscale>  2 0.95900560E+02</rscale>
<asrwt>0</asrwt>
<pdfrwt beam="1">  1       21 0.14309511E+00 0.95900560E+02</pdfrwt>
<pdfrwt beam="2">  1       21 0.19944615E-02 0.95900560E+02</pdfrwt>
<totfact> 0.42948493E+05</totfact>
</mgrwt>
</event>
<event>
 5    1  0.1994521E+000  0.8190437E+02  0.7546771E-02  0.1323732E+00
         21   -1    0    0  503  502  0.00000000000E+00  0.00000000000E+00  0.20976363725E+03  0.20976363725E+03  0.00000000000E+00 0. -1.
         21   -1    0    0  501  503 -0.00000000000E+00 -0.00000000000E+00 -0.40366505654E+02  0.40366505654E+02  0.00000000000E+00 0.  1.
         24    1    1    2    0    0  0.16026616896E+02  0.56783322947E+02  0.15523172433E+03  0.18451369165E+03  0.80419002446E+02 0.  0.
          1    1    1    2  501    0  0.49389286502E+01 -0.28142688805E+02  0.65861503734E+01  0.29322028002E+02  0.00000000000E+00 0. -1.
         -2    1    1    2    0  502 -0.20965545546E+02 -0.28640634141E+02  0.75792568934E+01  0.36294423251E+02  0.00000000000E+00 0.  1.
<mgrwt>
<rscale>  2 0.81904373E+02</rscale>
<asrwt>0</asrwt>
<pdfrwt beam="1">  1       21 0.32271328E-01 0.81904373E+02</pdfrwt>
<pdfrwt beam="2">  1       21 0.62102318E-02 0.81904373E+02</pdfrwt>
<totfact> 0.16883945E+06</totfact>
</mgrwt>
</event>
<event>
 5    1  0.1994521E+000  0.1071830E+03  0.7546771E-02  0.1265877E+00
         21   -1    0    0  501  502  0.00000000000E+00  0.00000000000E+00  0.12712129176E+02  0.12712129176E+02  0.00000000000E+00 0. -1.
         21   -1    0    0  502  503 -0.00000000000E+00 -0.00000000000E+00 -0.92540993356E+03  0.92540993356E+03  0.00000000000E+00 0. -1.
         24    1    1    2    0    0 -0.62756420650E+02  0.25666596762E+02 -0.38696529971E+03  0.40100685986E+03  0.80419002446E+02 0. -1.
          1    1    1    2  501    0  0.41687969700E+02 -0.57489550344E+02 -0.30969588734E+03  0.31773334394E+03  0.00000000000E+00 0. -1.
         -2    1    1    2    0  503  0.21068450950E+02  0.31822953583E+02 -0.21603661733E+03  0.21938185893E+03  0.00000000000E+00 0.  1.
<mgrwt>
<rscale>  2 0.10718302E+03</rscale>
<asrwt>0</asrwt>
<pdfrwt beam="1">  1       21 0.19557120E-02 0.10718302E+03</pdfrwt>
<pdfrwt beam="2">  1       21 0.14237077E+00 0.10718302E+03</pdfrwt>
<totfact> 0.44754066E+05</totfact>
</mgrwt>
</event>
<event>
 5    1  0.1994521E+000  0.1305383E+03  0.7546771E-02  0.1226659E+00
         21   -1    0    0  501  502  0.00000000000E+00  0.00000000000E+00  0.20227177266E+03  0.20227177266E+03  0.00000000000E+00 0.  1.
         21   -1    0    0  502  503 -0.00000000000E+00 -0.00000000000E+00 -0.12544354699E+03  0.12544354699E+03  0.00000000000E+00 0. -1.
         24    1    1    2    0    0  0.10942068748E+02 -0.84140220754E+02 -0.48814796911E+02  0.12668625012E+03  0.80419002446E+02 0. -1.
          1    1    1    2  501    0  0.53064502543E+02  0.38596523660E+02  0.97622351252E+02  0.11762506762E+03  0.00000000000E+00 0. -1.
         -2    1    1    2    0  503 -0.64006571292E+02  0.45543697094E+02  0.28020671327E+02  0.83404001913E+02  0.00000000000E+00 0.  1.
<mgrwt>
<rscale>  2 0.13053831E+03</rscale>
<asrwt>0</asrwt>
<pdfrwt beam="1">  1       21 0.31118734E-01 0.13053831E+03</pdfrwt>
<pdfrwt beam="2">  1       21 0.19299007E-01 0.13053831E+03</pdfrwt>
<totfact> 0.24841621E+05</totfact>
</mgrwt>
</event>
<event>
 5    1  0.1994521E+000  0.7072404E+02  0.7546771E-02  0.1357648E+00
         21   -1    0    0  501  502  0.00000000000E+00  0.00000000000E+00  0.42257113133E+03  0.42257113133E+03  0.00000000000E+00 0.  1.
         21   -1    0    0  502  503 -0.00000000000E+00 -0.00000000000E+00 -0.65203787739E+02  0.65203787739E+02  0.00000000000E+00 0.  1.
         24    1    1    2    0    0  0.18640837188E+02 -0.88842816520E+01  0.36685124890E+03  0.37612958678E+03  0.80419002446E+02 0.  1.
          1    1    1    2  501    0  0.58338367836E+01 -0.19841805529E+02  0.42583272735E+02  0.47339898765E+02  0.00000000000E+00 0. -1.
         -2    1    1    2    0  503 -0.24474673971E+02  0.28726087181E+02 -0.52067178050E+02  0.64305433525E+02  0.00000000000E+00 0.  1.
<mgrwt>
<rscale>  2 0.70724035E+02</rscale>
<asrwt>0</asrwt>
<pdfrwt beam="1">  1       21 0.65010941E-01 0.70724035E+02</pdfrwt>
<pdfrwt beam="2">  1       21 0.10031352E-01 0.70724035E+02</pdfrwt>
<totfact> 0.18285362E+05</totfact>
</mgrwt>
</event>
<event>
 5    1  0.1994521E+000  0.9783064E+02  0.7546771E-02  0.1284925E+00
         21   -1    0    0  503  502  0.00000000000E+00  0.00000000000E+00  0.39541492703E+02  0.39541492703E+02  0.00000000000E+00 0. -1.
         21   -1    0    0  501  503 -0.00000000000E+00 -0.00000000000E+00 -0.25702345537E+03  0.25702345537E+03  0.00000000000E+00 0.  1.
         24    1    1    2    0    0  0.35602406215E+02  0.31040182364E+02 -0.13384709195E+03  0.16313578463E+03  0.80419002446E+02 0. -1.
          1    1    1    2  501    0  0.15883858319E+02  0.22873796403E+02 -0.33626583301E+02  0.43660675917E+02  0.00000000000E+00 0. -1.
         -2    1    1    2    0  502 -0.51486264534E+02 -0.53913978767E+02 -0.50008287415E+02  0.89768487524E+02  0.00000000000E+00 0.  1.
<mgrwt>
<rscale>  2 0.97830643E+02</rscale>
<asrwt>0</asrwt>
<pdfrwt beam="1">  1       21 0.60833064E-02 0.97830643E+02</pdfrwt>
<pdfrwt beam="2">  1       21 0.39542071E-01 0.97830643E+02</pdfrwt>
<totfact> 0.11822160E+06</totfact>
</mgrwt>
</event>
<event>
 5    1  0.1994521E+000  0.6856553E+02  0.7546771E-02  0.1365040E+00
         21   -1    0    0  501  502  0.00000000000E+00  0.00000000000E+00  0.10344838167E+04  0.10344838167E+04  0.00000000000E+00 0.  1.
         21   -1    0    0  502  503 -0.00000000000E+00 -0.00000000000E+00 -0.50235130947E+01  0.50235130947E+01  0.00000000000E+00 0. -1.
         24    1    1    2    0    0 -0.40091498738E+01 -0.10814955061E+02  0.56541743827E+03  0.57122423967E+03  0.80419002446E+02 0.  0.
          1    1    1    2  501    0 -0.24777322934E+02  0.10982326614E+02  0.33372067929E+03  0.33481938267E+03  0.00000000000E+00 0. -1.
         -2    1    1    2    0  503  0.28786472808E+02 -0.16737155334E+00  0.13032218610E+03  0.13346370750E+03  0.00000000000E+00 0.  1.
<mgrwt>
<rscale>  2 0.68565530E+02</rscale>
<asrwt>0</asrwt>
<pdfrwt beam="1">  1       21 0.15915119E+00 0.68565530E+02</pdfrwt>
<pdfrwt beam="2">  1       21 0.77284899E-03 0.68565530E+02</pdfrwt>
<totfact> 0.14565082E+06</totfact>
</mgrwt>
</event>
<event>
 5    1  0.1994521E+000  0.6948548E+02  0.7546771E-02  0.1361851E+00
         21   -1    0    0  501  502  0.00000000000E+00  0.00000000000E+00  0.28566109373E+03  0.28566109373E+03  0.00000000000E+00 0. -1.
         21   -1    0    0  502  503 -0.00000000000E+00 -0.00000000000E+00 -0.29574550604E+02  0.29574550604E+02  0.00000000000E+00 0.  1.
         24    1    1    2    0    0  0.63922321702E+01  0.12030391317E+01  0.46777364598E+02  0.93261169456E+02  0.80419002446E+02 0.  1.
          1    1    1    2  501    0 -0.24783635325E+02 -0.20107582737E+02  0.17888512305E+03  0.18170974303E+03  0.00000000000E+00 0. -1.
         -2    1    1    2    0  503  0.18391403155E+02  0.18904543605E+02  0.30424055471E+02  0.40264731841E+02  0.00000000000E+00 0.  1.
<mgrwt>
<rscale>  2 0.69485481E+02</rscale>
<asrwt>0</asrwt>
<pdfrwt beam="1">  1       21 0.43947859E-01 0.69485481E+02</pdfrwt>
<pdfrwt beam="2">  1       21 0.45499310E-02 0.69485481E+02</pdfrwt>
<totfact> 0.15391873E+06</totfact>
</mgrwt>
</event>
<event>
 5    1  0.1994521E+000  0.9270975E+02  0.7546771E-02  0.1296419E+00
         21   -1    0    0  501  502  0.00000000000E+00  0.00000000000E+00  0.14470540921E+03  0.14470540921E+03  0.00000000000E+00 0. -1.
         21   -1    0    0  502  503 -0.00000000000E+00 -0.00000000000E+00 -0.74931005943E+02  0.74931005943E+02  0.00000000000E+00 0.  1.
         24    1    1    2    0    0 -0.34039224204E+02  0.62087140182E+02  0.66893515781E+01  0.10735662597E+03  0.80419002446E+02 0.  1.
          1    1    1    2  501    0  0.36732295806E+02 -0.33990693954E+02  0.67166109171E+02  0.83761059281E+02  0.00000000000E+00 0. -1.
         -2    1    1    2    0  503 -0.26930716021E+01 -0.28096446228E+02 -0.40810574803E+01  0.28518729906E+02  0.00000000000E+00 0.  1.
<mgrwt>
<rscale>  2 0.92709751E+02</rscale>
<asrwt>0</asrwt>
<pdfrwt beam="1">  1       21 0.22262371E-01 0.92709751E+02</pdfrwt>
<pdfrwt beam="2">  1       21 0.11527847E-01 0.92709751E+02</pdfrwt>
<totfact> 0.11821940E+06</totfact>
</mgrwt>
</event>
<event>
 5    1  0.1994521E+000  0.1318254E+03  0.7546771E-02  0.1224772E+00
         21   -1    0    0  501  502  0.00000000000E+00  0.00000000000E+00  0.58975566777E+02  0.58975566777E+02  0.00000000000E+00 0.  1.
         21   -1    0    0  502  503 -0.00000000000E+00 -0.00000000000E+00 -0.36595068258E+03  0.36595068258E+03  0.00000000000E+00 0. -1.
         24    1    1    2    0    0  0.78346415996E+02  0.84496846486E+02 -0.99489455181E+02  0.17217213948E+03  0.80419002446E+02 0. -1.
          1    1    1    2  501    0 -0.39064214444E+02 -0.12322657908E+02 -0.15277848071E+02  0.43718112833E+02  0.00000000000E+00 0. -1.
         -2    1    1    2    0  503 -0.39282201552E+02 -0.72174188578E+02 -0.19220781255E+03  0.20903599705E+03  0.00000000000E+00 0.  1.
<mgrwt>
<rscale>  2 0.13182537E+03</rscale>
<asrwt>0</asrwt>
<pdfrwt beam="1">  1       21 0.90731640E-02 0.13182537E+03</pdfrwt>
<pdfrwt beam="2">  1       21 0.56300105E-01 0.13182537E+03</pdfrwt>
<totfact> 0.28985043E+05</totfact>
</mgrwt>
</event>
<event>
 5    1  0.1994521E+000  0.1346551E+03  0.7546771E-02  0.1220707E+00
         21   -1    0    0  503  502  0.00000000000E+00  0.00000000000E+00  0.14713852387E+03  0.14713852387E+03  0.00000000000E+00 0.  1.
         21   -1    0    0  501  503 -0.00000000000E+00 -0.00000000000E+00 -0.39755793344E+03  0.39755793344E+03  0.00000000000E+00 0. -1.
         24    1    1    2    0    0 -0.50996695783E+02 -0.90136555250E+02 -0.14172980024E+03  0.19307981200E+03  0.80419002446E+02 0. -1.
          1    1    1    2  501    0  0.77094864084E+02  0.77041452761E+02 -0.21517318728E+03  0.24120220570E+03  0.00000000000E+00 0. -1.
         -2    1    1    2    0  502 -0.26098168301E+02  0.13095102490E+02  0.10648357796E+03  0.11041443960E+03  0.00000000000E+00 0.  1.
<mgrwt>
<rscale>  2 0.13465509E+03</rscale>
<asrwt>0</asrwt>
<pdfrwt beam="1">  1       21 0.22636696E-01 0.13465509E+03</pdfrwt>
<pdfrwt beam="2">  1       21 0.61162759E-01 0.13465509E+03</pdfrwt>
<totfact> 0.46844943E+04</totfact>
</mgrwt>
</event>
<event>
 5    1  0.1994521E+000  0.1076379E+03  0.7546771E-02  0.1265008E+00
         21   -1    0    0  503  502  0.00000000000E+00  0.00000000000E+00  0.38846025236E+02  0.38846025236E+02  0.00000000000E+00 0.  1.
         21   -1    0    0  501  503 -0.00000000000E+00 -0.00000000000E+00 -0.81561305059E+03  0.81561305059E+03  0.00000000000E+00 0. -1.
         24    1    1    2    0    0 -0.55321730475E+02  0.49186487109E+02 -0.13005545771E+03  0.16988655748E+03  0.80419002446E+02 0.  1.
          1    1    1    2  501    0 -0.16362731445E+02 -0.25835987605E+02 -0.58857431814E+03  0.58936827639E+03  0.00000000000E+00 0. -1.
         -2    1    1    2    0  502  0.71684461920E+02 -0.23350499503E+02 -0.58137249504E+02  0.95204241963E+02  0.00000000000E+00 0.  1.
<mgrwt>
<rscale>  2 0.10763789E+03</rscale>
<asrwt>0</asrwt>
<pdfrwt beam="1">  1       21 0.59763116E-02 0.10763789E+03</pdfrwt>
<pdfrwt beam="2">  1       21 0.12547893E+00 0.10763789E+03</pdfrwt>
<totfact> 0.97722047E+04</totfact>
</mgrwt>
</event>
<event>
 5    1  0.1994521E+000  0.9260336E+02  0.7546771E-02  0.1296667E+00
         21   -1    0    0  501  502  0.00000000000E+00  0.00000000000E+00  0.51036365147E+03  0.51036365147E+03  0.00000000000E+00 0. -1.
         21   -1    0    0  502  503 -0.00000000000E+00 -0.00000000000E+00 -0.25299404528E+02  0.25299404528E+02  0.00000000000E+00 0.  1.
         24    1    1    2    0    0 -0.16971488208E+02  0.57659903623E+02  0.36983305919E+03  0.38321848015E+03  0.80419002446E+02 0. -1.
          1    1    1    2  501    0  0.38280985112E+02 -0.24695048295E+02  0.10081238565E+03  0.11062737605E+03  0.00000000000E+00 0. -1.
         -2    1    1    2    0  503 -0.21309496904E+02 -0.32964855328E+02  0.14418802093E+02  0.41817199797E+02  0.00000000000E+00 0.  1.
<mgrwt>
<rscale>  2 0.92603360E+02</rscale>
<asrwt>0</asrwt>
<pdfrwt beam="1">  1       21 0.78517477E-01 0.92603360E+02</pdfrwt>
<pdfrwt beam="2">  1       21 0.38922165E-02 0.92603360E+02</pdfrwt>
<totfact> 0.59501386E+05</totfact>
</mgrwt>
</event>
<event>
 5    1  0.1994521E+000  0.7133195E+02  0.7546771E-02  0.1355621E+00
         21   -1    0    0  503  502  0.00000000000E+00  0.00000000000E+00  0.15540231955E+02  0.15540231955E+02  0.00000000000E+00 0. -1.
         21   -1    0    0  501  503 -0.00000000000E+00 -0.00000000000E+00 -0.41663731258E+03  0.41663731258E+03  0.00000000000E+00 0.  1.
         24    1    1    2    0    0 -0.10741646319E+02 -0.81968221067E+01 -0.16979723890E+03  0.18836371506E+03  0.80419002446E+02 0. -1.
          1    1    1    2  501    0 -0.19080829710E+02  0.21253687615E+02 -0.18512984070E+03  0.18732019436E+03  0.00000000000E+00 0. -1.
         -2    1    1    2    0  502  0.29822476028E+02 -0.13056865508E+02 -0.46170001026E+02  0.56493635111E+02  0.00000000000E+00 0.  1.
<mgrwt>
<rscale>  2 0.71331955E+02</rscale>
<asrwt>0</asrwt>
<pdfrwt beam="1">  1       21 0.23908047E-02 0.71331955E+02</pdfrwt>
<pdfrwt beam="2">  1       21 0.64098053E-01 0.71331955E+02</pdfrwt>
<totfact> 0.20212881E+06</totfact>
</mgrwt>
</event>
<event>
 5    1  0.1994521E+000  0.9592522E+02  0.7546771E-02  0.1289106E+00
         21   -1    0    0  501  502  0.00000000000E+00  0.00000000000E+00  0.15468694873E+03  0.15468694873E+03  0.00000000000E+00 0.  1.
         21   -1    0    0  502  503 -0.00000000000E+00 -0.00000000000E+00 -0.98446364272E+02  0.98446364272E+02  0.00000000000E+00 0.  1.
         24    1    1    2    0    0  0.74925952836E+02 -0.17960184233E+02 -0.16711112564E+02  0.11261857690E+03  0.80419002446E+02 0.  1.
          1    1    1    2  501    0 -0.15652270537E+02  0.14121045051E+02  0.78099160745E+02  0.80894229679E+02  0.00000000000E+00 0. -1.
         -2    1    1    2    0  503 -0.59273682299E+02  0.38391391813E+01 -0.51474637228E+01  0.59620506419E+02  0.00000000000E+00 0.  1.
<mgrwt>
<rscale>  2 0.95925220E+02</rscale>
<asrwt>0</asrwt>
<pdfrwt beam="1">  1       21 0.23797992E-01 0.95925220E+02</pdfrwt>
<pdfrwt beam="2">  1       21 0.15145595E-01 0.95925220E+02</pdfrwt>
<totfact> 0.64453422E+05</totfact>
</mgrwt>
</event>
<event>
 5    1  0.1994521E+000  0.7172232E+02  0.7546771E-02  0.1354332E+00
         21   -1    0    0  501  502  0.00000000000E+00  0.00000000000E+00  0.13572516026E+04  0.13572516026E+04  0.00000000000E+00 0.  1.
         21   -1    0    0  502  503 -0.00000000000E+00 -0.00000000000E+00 -0.40047900949E+01  0.40047900949E+01  0.00000000000E+00 0. -1.
         24    1    1    2    0    0  0.41672363324E+02 -0.21391041355E+02  0.73495203532E+03  0.74082108008E+03  0.80419002446E+02 0. -1.
          1    1    1    2  501    0 -0.11983964650E+02  0.16339297200E+02  0.31430137443E+03  0.31495387283E+03  0.00000000000E+00 0. -1.
         -2    1    1    2    0  503 -0.29688398673E+02  0.50517441545E+01  0.30399340276E+03  0.30548143979E+03  0.00000000000E+00 0.  1.
<mgrwt>
<rscale>  2 0.71722315E+02</rscale>
<asrwt>0</asrwt>
<pdfrwt beam="1">  1       21 0.20880757E+00 0.71722315E+02</pdfrwt>
<pdfrwt beam="2">  1       21 0.61612263E-03 0.71722315E+02</pdfrwt>
<totfact> 0.99175884E+05</totfact>
</mgrwt>
</event>
<event>
 5    1  0.1994521E+000  0.7715696E+02  0.7546771E-02  0.1337319E+00
         21   -1    0    0  503  502  0.00000000000E+00  0.00000000000E+00  0.12071732603E+02  0.12071732603E+02  0.00000000000E+00 0.  1.
         21   -1    0    0  501  503 -0.00000000000E+00 -0.00000000000E+00 -0.10551832297E+04  0.10551832297E+04  0.00000000000E+00 0. -1.
         24    1    1    2    0    0  0.15705927439E+02 -0.13834997679E+02 -0.34662844568E+03  0.35644996651E+03  0.80419002446E+02 0.  1.
          1    1    1    2  501    0 -0.21253102255E+02 -0.24527410017E+02 -0.64762972914E+03  0.64844240629E+03  0.00000000000E+00 0. -1.
         -2    1    1    2    0  502  0.55471748152E+01  0.38362407696E+02 -0.48853322266E+02  0.62362589500E+02  0.00000000000E+00 0.  1.
<mgrwt>
<rscale>  2 0.77156962E+02</rscale>
<asrwt>0</asrwt>
<pdfrwt beam="1">  1       21 0.18571899E-02 0.77156962E+02</pdfrwt>
<pdfrwt beam="2">  1       21 0.16233586E+00 0.77156962E+02</pdfrwt>
<totfact> 0.35076993E+05</totfact>
</mgrwt>
</event>
<event>
 5    1  0.1994521E+000  0.7103170E+02  0.7546771E-02  0.1356619E+00
         21   -1    0    0  501  502  0.00000000000E+00  0.00000000000E+00  0.28488259301E+02  0.28488259301E+02  0.00000000000E+00 0.  1.
         21   -1    0    0  502  503 -0.00000000000E+00 -0.00000000000E+00 -0.25534212665E+03  0.25534212665E+03  0.00000000000E+00 0. -1.
         24    1    1    2    0    0 -0.64436723963E+01 -0.23307441509E+02 -0.14369069392E+03  0.16643013314E+03  0.80419002446E+02 0.  1.
          1    1    1    2  501    0  0.28784433547E+02  0.20994054968E+02 -0.48812780341E+01  0.35959989348E+02  0.00000000000E+00 0. -1.
         -2    1    1    2    0  503 -0.22340761151E+02  0.23133865406E+01 -0.78281895394E+02  0.81440263461E+02  0.00000000000E+00 0.  1.
<mgrwt>
<rscale>  2 0.71031700E+02</rscale>
<asrwt>0</asrwt>
<pdfrwt beam="1">  1       21 0.43828091E-02 0.71031700E+02</pdfrwt>
<pdfrwt beam="2">  1       21 0.39283405E-01 0.71031700E+02</pdfrwt>
<totfact> 0.20446572E+06</totfact>
</mgrwt>
</event>
<event>
 5    1  0.1994521E+000  0.7878660E+02  0.7546771E-02  0.1332531E+00
         21   -1    0    0  501  502  0.00000000000E+00  0.00000000000E+00  0.11628844547E+03  0.11628844547E+03  0.00000000000E+00 0. -1.
         21   -1    0    0  502  503 -0.00000000000E+00 -0.00000000000E+00 -0.54533837258E+02  0.54533837258E+02  0.00000000000E+00 0.  1.
         24    1    1    2    0    0 -0.87738482177E+01 -0.29050516560E+01  0.33982696812E+02  0.87792137317E+02  0.80419002446E+02 0. -1.
          1    1    1    2  501    0  0.15670002389E+02  0.37871230757E+02  0.23206874506E+02  0.47099236918E+02  0.00000000000E+00 0. -1.
         -2    1    1    2    0  503 -0.68961541710E+01 -0.34966179101E+02  0.45650368933E+01  0.35930908493E+02  0.00000000000E+00 0.  1.
<mgrwt>
<rscale>  2 0.78786597E+02</rscale>
<asrwt>0</asrwt>
<pdfrwt beam="1">  1       21 0.17890530E-01 0.78786597E+02</pdfrwt>
<pdfrwt beam="2">  1       21 0.83898211E-02 0.78786597E+02</pdfrwt>
<totfact> 0.30331148E+06</totfact>
</mgrwt>
</event>
<event>
 5    1  0.1994521E+000  0.1000723E+03  0.7546771E-02  0.1280144E+00
         21   -1    0    0  501  502  0.00000000000E+00  0.00000000000E+00  0.45897050033E+03  0.45897050033E+03  0.00000000000E+00 0. -1.
         21   -1    0    0  502  503 -0.00000000000E+00 -0.00000000000E+00 -0.34063695569E+02  0.34063695569E+02  0.00000000000E+00 0.  1.
         24    1    1    2    0    0 -0.21562573964E+02  0.40013181903E+01  0.13926633507E+03  0.16230614030E+03  0.80419002446E+02 0.  1.
          1    1    1    2  501    0 -0.28730244617E+02  0.40485691015E+02  0.24966464953E+03  0.25455246091E+03  0.00000000000E+00 0. -1.
         -2    1    1    2    0  503  0.50292818581E+02 -0.44487009206E+02  0.35975820170E+02  0.76175594687E+02  0.00000000000E+00 0.  1.
<mgrwt>
<rscale>  2 0.10007234E+03</rscale>
<asrwt>0</asrwt>
<pdfrwt beam="1">  1       21 0.70610842E-01 0.10007234E+03</pdfrwt>
<pdfrwt beam="2">  1       21 0.52405689E-02 0.10007234E+03</pdfrwt>
<totfact> 0.45785292E+05</totfact>
</mgrwt>
</event>
<event>
 5    1  0.1994521E+000  0.6985047E+02  0.7546771E-02  0.1360602E+00
         21   -1    0    0  503  502  0.00000000000E+00  0.00000000000E+00  0.79205861673E+02  0.79205861673E+02  0.00000000000E+00 0. -1.
         21   -1    0    0  501  503 -0.00000000000E+00 -0.00000000000E+00 -0.72547540224E+02  0.72547540224E+02  0.00000000000E+00 0.  1.
         24    1    1    2    0    0 -0.29768436536E+02  0.27242908192E+02 -0.10986808303E+02  0.90643597521E+02  0.80419002446E+02 0.  1.
          1    1    1    2  501    0  0.28645652569E+02 -0.70485180011E+01 -0.58853934325E+01  0.30081437349E+02  0.00000000000E+00 0. -1.
         -2    1    1    2    0  502  0.11227839670E+01 -0.20194390191E+02  0.23530523184E+02  0.31028367027E+02  0.00000000000E+00 0.  1.
<mgrwt>
<rscale>  2 0.69850474E+02</rscale>
<asrwt>0</asrwt>
<pdfrwt beam="1">  1       21 0.12185517E-01 0.69850474E+02</pdfrwt>
<pdfrwt beam="2">  1       21 0.11161160E-01 0.69850474E+02</pdfrwt>
<totfact> 0.36408960E+06</totfact>
</mgrwt>
</event>
<event>
 5    1  0.1994521E+000  0.7751407E+02  0.7546771E-02  0.1336258E+00
         21   -1    0    0  503  502  0.00000000000E+00  0.00000000000E+00  0.22745382828E+02  0.22745382828E+02  0.00000000000E+00 0. -1.
         21   -1    0    0  501  503 -0.00000000000E+00 -0.00000000000E+00 -0.10881526703E+04  0.10881526703E+04  0.00000000000E+00 0. -1.
         24    1    1    2    0    0  0.82064997404E+01 -0.17365360550E+02 -0.15028539431E+03  0.17152789301E+03  0.80419002446E+02 0. -1.
          1    1    1    2  501    0 -0.32687617777E+02  0.30376866940E+02 -0.91010197116E+03  0.91119527672E+03  0.00000000000E+00 0. -1.
         -2    1    1    2    0  502  0.24481118036E+02 -0.13011506389E+02 -0.50199220305E+01  0.28174883425E+02  0.00000000000E+00 0.  1.
<mgrwt>
<rscale>  2 0.77514074E+02</rscale>
<asrwt>0</asrwt>
<pdfrwt beam="1">  1       21 0.34992889E-02 0.77514074E+02</pdfrwt>
<pdfrwt beam="2">  1       21 0.16740814E+00 0.77514074E+02</pdfrwt>
<totfact> 0.11681141E+05</totfact>
</mgrwt>
</event>
<event>
 5    1  0.1994521E+000  0.1361476E+03  0.7546771E-02  0.1218609E+00
         21   -1    0    0  501  502  0.00000000000E+00  0.00000000000E+00  0.20569620891E+02  0.20569620891E+02  0.00000000000E+00 0. -1.
         21   -1    0    0  502  503 -0.00000000000E+00 -0.00000000000E+00 -0.21978048466E+04  0.21978048466E+04  0.00000000000E+00 0.  1.
         24    1    1    2    0    0 -0.33836603396E+02 -0.94840361855E+02 -0.47131539391E+03  0.48861541775E+03  0.80419002446E+02 0. -1.
          1    1    1    2  501    0  0.67587468524E+02  0.38588647916E+02 -0.12348261740E+03  0.14596268855E+03  0.00000000000E+00 0. -1.
         -2    1    1    2    0  503 -0.33750865128E+02  0.56251713939E+02 -0.15824372144E+04  0.15837963612E+04  0.00000000000E+00 0.  1.
<mgrwt>
<rscale>  2 0.13614764E+03</rscale>
<asrwt>0</asrwt>
<pdfrwt beam="1">  1       21 0.31645581E-02 0.13614764E+03</pdfrwt>
<pdfrwt beam="2">  1       21 0.33812372E+00 0.13614764E+03</pdfrwt>
<totfact> 0.12805846E+04</totfact>
</mgrwt>
</event>
<event>
 5    1  0.1994521E+000  0.8109899E+02  0.7546771E-02  0.1325961E+00
         21   -1    0    0  503  502  0.00000000000E+00  0.00000000000E+00  0.10037695764E+02  0.10037695764E+02  0.00000000000E+00 0. -1.
         21   -1    0    0  501  503 -0.00000000000E+00 -0.00000000000E+00 -0.10828144971E+04  0.10828144971E+04  0.00000000000E+00 0. -1.
         24    1    1    2    0    0 -0.69645168493E+00 -0.42742299427E+02 -0.33056897297E+03  0.34288547804E+03  0.80419002446E+02 0. -1.
          1    1    1    2  501    0 -0.28063226129E+02  0.22150583021E+02 -0.65335127482E+03  0.65432872572E+03  0.00000000000E+00 0. -1.
         -2    1    1    2    0  502  0.28759677814E+02  0.20591716406E+02 -0.88856553544E+02  0.95637989105E+02  0.00000000000E+00 0.  1.
<mgrwt>
<rscale>  2 0.81098987E+02</rscale>
<asrwt>0</asrwt>
<pdfrwt beam="1">  1       21 0.15442608E-02 0.81098987E+02</pdfrwt>
<pdfrwt beam="2">  1       21 0.16658686E+00 0.81098987E+02</pdfrwt>
<totfact> 0.43855755E+05</totfact>
</mgrwt>
</event>
<event>
 5    1  0.1994521E+000  0.1284708E+03  0.7546771E-02  0.1229743E+00
         21   -1    0    0  503  502  0.00000000000E+00  0.00000000000E+00  0.20607846087E+03  0.20607846087E+03  0.00000000000E+00 0. -1.
         21   -1    0    0  501  503 -0.00000000000E+00 -0.00000000000E+00 -0.23816913956E+03  0.23816913956E+03  0.00000000000E+00 0. -1.
         24    1    1    2    0    0 -0.86751373657E+02  0.98378320998E+01  0.16408180359E+03  0.20251577222E+03  0.80419002446E+02 0. -1.
          1    1    1    2  501    0  0.73372067402E+01 -0.49104354815E+02 -0.95459137254E+02  0.10759888080E+03  0.00000000000E+00 0. -1.
         -2    1    1    2    0  502  0.79414166916E+02  0.39266522715E+02 -0.10071334503E+03  0.13413294741E+03  0.00000000000E+00 0.  1.
<mgrwt>
<rscale>  2 0.12847077E+03</rscale>
<asrwt>0</asrwt>
<pdfrwt beam="1">  1       21 0.31704379E-01 0.12847077E+03</pdfrwt>
<pdfrwt beam="2">  1       21 0.36641406E-01 0.12847077E+03</pdfrwt>
<totfact> 0.70686480E+04</totfact>
</mgrwt>
</event>
<event>
 5    1  0.1994521E+000  0.2144126E+03  0.7546771E-02  0.1138119E+00
         21   -1    0    0  503  502  0.00000000000E+00  0.00000000000E+00  0.16578597769E+03  0.16578597769E+03  0.00000000000E+00 0.  1.
         21   -1    0    0  501  503 -0.00000000000E+00 -0.00000000000E+00 -0.82877765184E+03  0.82877765184E+03  0.00000000000E+00 0. -1.
         24    1    1    2    0    0  0.12709003413E+03  0.11763415999E+03 -0.47763853692E+01  0.19099660254E+03  0.80419002446E+02 0.  1.
          1    1    1    2  501    0  0.20419499431E+02 -0.84195553766E+02 -0.64604266988E+03  0.65182588054E+03  0.00000000000E+00 0. -1.
         -2    1    1    2    0  502 -0.14750953356E+03 -0.33438606219E+02 -0.12172618900E+02  0.15174114645E+03  0.00000000000E+00 0.  1.
<mgrwt>
<rscale>  2 0.21441264E+03</rscale>
<asrwt>0</asrwt>
<pdfrwt beam="1">  1       21 0.25505535E-01 0.21441264E+03</pdfrwt>
<pdfrwt beam="2">  1       21 0.12750425E+00 0.21441264E+03</pdfrwt>
<totfact> 0.65076688E+03</totfact>
</mgrwt>
</event>
<event>
 5    1  0.1994521E+000  0.6280836E+02  0.7546771E-02  0.1386410E+00
         21   -1    0    0  503  502  0.00000000000E+00  0.00000000000E+00  0.18147552897E+03  0.18147552897E+03  0.00000000000E+00 0.  1.
         21   -1    0    0  501  503 -0.00000000000E+00 -0.00000000000E+00 -0.72873164789E+02  0.72873164789E+02  0.00000000000E+00 0. -1.
         24    1    1    2    0    0 -0.38609003507E+01  0.20514772077E+02  0.22616568546E+02  0.86107418682E+02  0.80419002446E+02 0.  0.
          1    1    1    2  501    0  0.19654741808E+02 -0.47570773786E+01 -0.37581104431E+02  0.42676434609E+02  0.00000000000E+00 0. -1.
         -2    1    1    2    0  502 -0.15793841457E+02 -0.15757694698E+02  0.12356690007E+03  0.12556484047E+03  0.00000000000E+00 0.  1.
<mgrwt>
<rscale>  2 0.62808358E+02</rscale>
<asrwt>0</asrwt>
<pdfrwt beam="1">  1       21 0.27919312E-01 0.62808358E+02</pdfrwt>
<pdfrwt beam="2">  1       21 0.11211256E-01 0.62808358E+02</pdfrwt>
<totfact> 0.80641759E+05</totfact>
</mgrwt>
</event>
<event>
 5    1  0.1994521E+000  0.8196238E+02  0.7546771E-02  0.1323573E+00
         21   -1    0    0  501  502  0.00000000000E+00  0.00000000000E+00  0.27131551314E+03  0.27131551314E+03  0.00000000000E+00 0.  1.
         21   -1    0    0  502  503 -0.00000000000E+00 -0.00000000000E+00 -0.43374811559E+02  0.43374811559E+02  0.00000000000E+00 0.  1.
         24    1    1    2    0    0 -0.35419432565E+02 -0.43420513199E+02  0.12215354185E+03  0.15661603018E+03  0.80419002446E+02 0.  1.
          1    1    1    2  501    0  0.78424407773E+01  0.36695044663E+02  0.12042595351E+03  0.12613659445E+03  0.00000000000E+00 0. -1.
         -2    1    1    2    0  503  0.27576991788E+02  0.67254685363E+01 -0.14638793769E+02  0.31937700076E+02  0.00000000000E+00 0.  1.
<mgrwt>
<rscale>  2 0.81962379E+02</rscale>
<asrwt>0</asrwt>
<pdfrwt beam="1">  1       21 0.41740847E-01 0.81962379E+02</pdfrwt>
<pdfrwt beam="2">  1       21 0.66730481E-02 0.81962379E+02</pdfrwt>
<totfact> 0.90557498E+05</totfact>
</mgrwt>
</event>
<event>
 5    1  0.1994521E+000  0.1076717E+03  0.7546771E-02  0.1264943E+00
         21   -1    0    0  503  502  0.00000000000E+00  0.00000000000E+00  0.13441008245E+03  0.13441008245E+03  0.00000000000E+00 0.  1.
         21   -1    0    0  501  503 -0.00000000000E+00 -0.00000000000E+00 -0.14446139974E+03  0.14446139974E+03  0.00000000000E+00 0. -1.
         24    1    1    2    0    0  0.54503146477E+02  0.64321930896E+02  0.55696056845E+02  0.12914011953E+03  0.80419002446E+02 0.  1.
          1    1    1    2  501    0 -0.54134349091E+02 -0.25208740317E+02 -0.86763801315E+02  0.10532789544E+03  0.00000000000E+00 0. -1.
         -2    1    1    2    0  502 -0.36879738619E+00 -0.39113190579E+02  0.21016427187E+02  0.44403467213E+02  0.00000000000E+00 0.  1.
<mgrwt>
<rscale>  2 0.10767165E+03</rscale>
<asrwt>0</asrwt>
<pdfrwt beam="1">  1       21 0.20678474E-01 0.10767165E+03</pdfrwt>
<pdfrwt beam="2">  1       21 0.22224831E-01 0.10767165E+03</pdfrwt>
<totfact> 0.41567260E+05</totfact>
</mgrwt>
</event>
<event>
 5    1  0.1994521E+000  0.1027484E+03  0.7546771E-02  0.1274620E+00
         21   -1    0    0  503  502  0.00000000000E+00  0.00000000000E+00  0.82577382995E+02  0.82577382995E+02  0.00000000000E+00 0.  1.
         21   -1    0    0  501  503 -0.00000000000E+00 -0.00000000000E+00 -0.13004552882E+03  0.13004552882E+03  0.00000000000E+00 0.  1.
         24    1    1    2    0    0 -0.53227397332E+02 -0.58614180037E+02 -0.31754638602E+02  0.11723630391E+03  0.80419002446E+02 0.  1.
          1    1    1    2  501    0  0.41627141234E+02  0.10200353307E+02 -0.15578790967E+02  0.45602245810E+02  0.00000000000E+00 0. -1.
         -2    1    1    2    0  502  0.11600256098E+02  0.48413826730E+02 -0.13471625316E+00  0.49784362090E+02  0.00000000000E+00 0.  1.
<mgrwt>
<rscale>  2 0.10274836E+03</rscale>
<asrwt>0</asrwt>
<pdfrwt beam="1">  1       21 0.12704213E-01 0.10274836E+03</pdfrwt>
<pdfrwt beam="2">  1       21 0.20007005E-01 0.10274836E+03</pdfrwt>
<totfact> 0.12159969E+06</totfact>
</mgrwt>
</event>
<event>
 5    1  0.1994521E+000  0.7594046E+02  0.7546771E-02  0.1340983E+00
         21   -1    0    0  503  502  0.00000000000E+00  0.00000000000E+00  0.44307666671E+03  0.44307666671E+03  0.00000000000E+00 0. -1.
         21   -1    0    0  501  503 -0.00000000000E+00 -0.00000000000E+00 -0.27334036206E+02  0.27334036206E+02  0.00000000000E+00 0. -1.
         24    1    1    2    0    0  0.31152049296E+01  0.35739375460E+02  0.27018635974E+03  0.28417405301E+03  0.80419002446E+02 0. -1.
          1    1    1    2  501    0 -0.27351089596E+02 -0.11901140118E+02 -0.64145257074E+01  0.30510086500E+02  0.00000000000E+00 0. -1.
         -2    1    1    2    0  502  0.24235884666E+02 -0.23838235342E+02  0.15197079647E+03  0.15572656341E+03  0.00000000000E+00 0.  1.
<mgrwt>
<rscale>  2 0.75940465E+02</rscale>
<asrwt>0</asrwt>
<pdfrwt beam="1">  1       21 0.68165636E-01 0.75940465E+02</pdfrwt>
<pdfrwt beam="2">  1       21 0.42052367E-02 0.75940465E+02</pdfrwt>
<totfact> 0.71147844E+05</totfact>
</mgrwt>
</event>
<event>
 5    1  0.1994521E+000  0.1140329E+03  0.7546771E-02  0.1253279E+00
         21   -1    0    0  501  502  0.00000000000E+00  0.00000000000E+00  0.14376569846E+03  0.14376569846E+03  0.00000000000E+00 0.  1.
         21   -1    0    0  502  503 -0.00000000000E+00 -0.00000000000E+00 -0.27894263530E+03  0.27894263530E+03  0.00000000000E+00 0.  1.
         24    1    1    2    0    0 -0.38219201935E+02  0.60460668552E+02  0.71052561814E+02  0.12896465536E+03  0.80419002446E+02 0.  1.
          1    1    1    2  501    0  0.50845815737E+02  0.74289859975E+01  0.21554072038E+02  0.55723108603E+02  0.00000000000E+00 0. -1.
         -2    1    1    2    0  503 -0.12626613802E+02 -0.67889654550E+02 -0.22778357069E+03  0.23802056980E+03  0.00000000000E+00 0.  1.
<mgrwt>
<rscale>  2 0.11403291E+03</rscale>
<asrwt>0</asrwt>
<pdfrwt beam="1">  1       21 0.22117800E-01 0.11403291E+03</pdfrwt>
<pdfrwt beam="2">  1       21 0.42914251E-01 0.11403291E+03</pdfrwt>
<totfact> 0.10290491E+05</totfact>
</mgrwt>
</event>
<event>
 5    1  0.1994521E+000  0.6472173E+02  0.7546771E-02  0.1379021E+00
         21   -1    0    0  503  502  0.00000000000E+00  0.00000000000E+00  0.12674553307E+02  0.12674553307E+02  0.00000000000E+00 0. -1.
         21   -1    0    0  501  503 -0.00000000000E+00 -0.00000000000E+00 -0.46709807393E+03  0.46709807393E+03  0.00000000000E+00 0. -1.
         24    1    1    2    0    0  0.91419912708E+01 -0.87327710518E+01 -0.17518021095E+03  0.19317132178E+03  0.80419002446E+02 0. -1.
          1    1    1    2  501    0  0.93985366143E+01  0.22866974161E+02 -0.23754533721E+03  0.23882842843E+03  0.00000000000E+00 0. -1.
         -2    1    1    2    0  502 -0.18540527885E+02 -0.14134203110E+02 -0.41697972463E+02  0.47772877026E+02  0.00000000000E+00 0.  1.
<mgrwt>
<rscale>  2 0.64721732E+02</rscale>
<asrwt>0</asrwt>
<pdfrwt beam="1">  1       21 0.19499314E-02 0.64721732E+02</pdfrwt>
<pdfrwt beam="2">  1       21 0.71861238E-01 0.64721732E+02</pdfrwt>
<totfact> 0.21836498E+06</totfact>
</mgrwt>
</event>
<event>
 5    1  0.1994521E+000  0.9011560E+02  0.7546771E-02  0.1302572E+00
         21   -1    0    0  501  502  0.00000000000E+00  0.00000000000E+00  0.17729277880E+02  0.17729277880E+02  0.00000000000E+00 0. -1.
         21   -1    0    0  502  503 -0.00000000000E+00 -0.00000000000E+00 -0.17192824188E+04  0.17192824188E+04  0.00000000000E+00 0.  1.
         24    1    1    2    0    0  0.85625993128E+00 -0.68234806580E+02 -0.12939497663E+04  0.12982410930E+04  0.80419002446E+02 0.  1.
          1    1    1    2  501    0  0.14838235025E+02  0.34378103886E+02 -0.91129357628E+01  0.38536642869E+02  0.00000000000E+00 0. -1.
         -2    1    1    2    0  503 -0.15694494956E+02  0.33856702694E+02 -0.39849043887E+03  0.40023396078E+03  0.00000000000E+00 0.  1.
<mgrwt>
<rscale>  2 0.90115602E+02</rscale>
<asrwt>0</asrwt>
<pdfrwt beam="1">  1       21 0.27275807E-02 0.90115602E+02</pdfrwt>
<pdfrwt beam="2">  1       21 0.26450504E+00 0.90115602E+02</pdfrwt>
<totfact> 0.45232731E+04</totfact>
</mgrwt>
</event>
<event>
 5    1  0.1994521E+000  0.1044023E+03  0.7546771E-02  0.1271302E+00
         21   -1    0    0  503  502  0.00000000000E+00  0.00000000000E+00  0.67675510404E+02  0.67675510404E+02  0.00000000000E+00 0.  1.
         21   -1    0    0  501  503 -0.00000000000E+00 -0.00000000000E+00 -0.18370169485E+03  0.18370169485E+03  0.00000000000E+00 0. -1.
         24    1    1    2    0    0  0.79416521705E+02 -0.84842706532E+01 -0.84050337130E+02  0.14110507395E+03  0.80419002446E+02 0.  1.
          1    1    1    2  501    0 -0.72614253999E+01  0.21009854260E+02 -0.29576279283E+02  0.36998629313E+02  0.00000000000E+00 0. -1.
         -2    1    1    2    0  502 -0.72155096306E+02 -0.12525583607E+02 -0.23995680363E+01  0.73273501993E+02  0.00000000000E+00 0.  1.
<mgrwt>
<rscale>  2 0.10440226E+03</rscale>
<asrwt>0</asrwt>
<pdfrwt beam="1">  1       21 0.10411617E-01 0.10440226E+03</pdfrwt>
<pdfrwt beam="2">  1       21 0.28261799E-01 0.10440226E+03</pdfrwt>
<totfact> 0.90439044E+05</totfact>
</mgrwt>
</event>
<event>
 5    1  0.1994521E+000  0.1873855E+03  0.7546771E-02  0.1160841E+00
         21   -1    0    0  503  502  0.00000000000E+00  0.00000000000E+00  0.26580996232E+03  0.26580996232E+03  0.00000000000E+00 0. -1.
         21   -1    0    0  501  503 -0.00000000000E+00 -0.00000000000E+00 -0.19959274353E+03  0.19959274353E+03  0.00000000000E+00 0. -1.
         24    1    1    2    0    0  0.41218162473E+02 -0.16131167337E+03 -0.56896424978E+02  0.19345493535E+03  0.80419002446E+02 0. -1.
          1    1    1    2  501    0 -0.69669045838E+02  0.13050936476E+03  0.65657737857E+01  0.14808639244E+03  0.00000000000E+00 0. -1.
         -2    1    1    2    0  502  0.28450883365E+02  0.30802308602E+02  0.11654786998E+03  0.12386137806E+03  0.00000000000E+00 0.  1.
<mgrwt>
<rscale>  2 0.18738550E+03</rscale>
<asrwt>0</asrwt>
<pdfrwt beam="1">  1       21 0.40893841E-01 0.18738550E+03</pdfrwt>
<pdfrwt beam="2">  1       21 0.30706576E-01 0.18738550E+03</pdfrwt>
<totfact> 0.58792222E+04</totfact>
</mgrwt>
</event>
<event>
 5    1  0.1994521E+000  0.8562260E+02  0.7546771E-02  0.1313812E+00
         21   -1    0    0  501  502  0.00000000000E+00  0.00000000000E+00  0.52093408963E+02  0.52093408963E+02  0.00000000000E+00 0.  1.
         21   -1    0    0  502  503 -0.00000000000E+00 -0.00000000000E+00 -0.14687775730E+03  0.14687775730E+03  0.00000000000E+00 0.  1.
         24    1    1    2    0    0  0.12241300721E+02 -0.64604583229E+02 -0.45257036120E+02  0.11330938571E+03  0.80419002446E+02 0.  1.
          1    1    1    2  501    0 -0.11747287125E+02  0.23631445365E+02 -0.86223293704E+01  0.27763078514E+02  0.00000000000E+00 0. -1.
         -2    1    1    2    0  503 -0.49401359624E+00  0.40973137864E+02 -0.40904982843E+02  0.57898702034E+02  0.00000000000E+00 0.  1.
<mgrwt>
<rscale>  2 0.85622600E+02</rscale>
<asrwt>0</asrwt>
<pdfrwt beam="1">  1       21 0.80143706E-02 0.85622600E+02</pdfrwt>
<pdfrwt beam="2">  1       21 0.22596578E-01 0.85622600E+02</pdfrwt>
<totfact> 0.21494335E+06</totfact>
</mgrwt>
</event>
<event>
 5    1  0.1994521E+000  0.8094600E+02  0.7546771E-02  0.1326388E+00
         21   -1    0    0  501  502  0.00000000000E+00  0.00000000000E+00  0.74373599526E+02  0.74373599526E+02  0.00000000000E+00 0.  1.
         21   -1    0    0  502  503 -0.00000000000E+00 -0.00000000000E+00 -0.18636700409E+03  0.18636700409E+03  0.00000000000E+00 0.  1.
         24    1    1    2    0    0  0.23201703739E+02 -0.25249306820E+02 -0.21141115790E+02  0.89944478888E+02  0.80419002446E+02 0.  0.
          1    1    1    2  501    0 -0.33399243238E+02  0.42727196379E+02  0.20232528170E+02  0.57883313273E+02  0.00000000000E+00 0. -1.
         -2    1    1    2    0  503  0.10197539499E+02 -0.17477889559E+02 -0.11108481694E+03  0.11291281145E+03  0.00000000000E+00 0.  1.
<mgrwt>
<rscale>  2 0.80946003E+02</rscale>
<asrwt>0</asrwt>
<pdfrwt beam="1">  1       21 0.11442092E-01 0.80946003E+02</pdfrwt>
<pdfrwt beam="2">  1       21 0.28671846E-01 0.80946003E+02</pdfrwt>
<totfact> 0.74400973E+05</totfact>
</mgrwt>
</event>
<event>
 5    1  0.1994521E+000  0.7497008E+02  0.7546771E-02  0.1343964E+00
         21   -1    0    0  501  502  0.00000000000E+00  0.00000000000E+00  0.60584193199E+01  0.60584193199E+01  0.00000000000E+00 0. -1.
         21   -1    0    0  502  503 -0.00000000000E+00 -0.00000000000E+00 -0.10600495239E+04  0.10600495239E+04  0.00000000000E+00 0. -1.
         24    1    1    2    0    0 -0.40972810687E+02 -0.15237646826E+00 -0.80035949408E+03  0.80543238708E+03  0.80419002446E+02 0. -1.
          1    1    1    2  501    0  0.13994155948E+02  0.21244760621E+02 -0.91761122370E+02  0.95222265428E+02  0.00000000000E+00 0. -1.
         -2    1    1    2    0  503  0.26978654740E+02 -0.21092384153E+02 -0.16187048808E+03  0.16545329067E+03  0.00000000000E+00 0.  1.
<mgrwt>
<rscale>  2 0.74970075E+02</rscale>
<asrwt>0</asrwt>
<pdfrwt beam="1">  1       21 0.93206399E-03 0.74970075E+02</pdfrwt>
<pdfrwt beam="2">  1       21 0.16308463E+00 0.74970075E+02</pdfrwt>
<totfact> 0.10237082E+06</totfact>
</mgrwt>
</event>
<event>
 5    1  0.1994521E+000  0.8431229E+02  0.7546771E-02  0.1317241E+00
         21   -1    0    0  501  502  0.00000000000E+00  0.00000000000E+00  0.19729835666E+03  0.19729835666E+03  0.00000000000E+00 0.  1.
         21   -1    0    0  502  503 -0.00000000000E+00 -0.00000000000E+00 -0.39879793120E+02  0.39879793120E+02  0.00000000000E+00 0. -1.
         24    1    1    2    0    0 -0.33250661271E+01  0.27665318971E+02  0.59072372142E+02  0.10360109576E+03  0.80419002446E+02 0. -1.
          1    1    1    2  501    0  0.16133963802E+02  0.24757168101E+02  0.61506285847E+02  0.68236686314E+02  0.00000000000E+00 0. -1.
         -2    1    1    2    0  503 -0.12808897675E+02 -0.52422487072E+02  0.36839905551E+02  0.65340367702E+02  0.00000000000E+00 0.  1.
<mgrwt>
<rscale>  2 0.84312292E+02</rscale>
<asrwt>0</asrwt>
<pdfrwt beam="1">  1       21 0.30353593E-01 0.84312292E+02</pdfrwt>
<pdfrwt beam="2">  1       21 0.61353529E-02 0.84312292E+02</pdfrwt>
<totfact> 0.19396856E+06</totfact>
</mgrwt>
</event>
<event>
 5    1  0.1994521E+000  0.8774825E+02  0.7546771E-02  0.1308398E+00
         21   -1    0    0  503  502  0.00000000000E+00  0.00000000000E+00  0.83982702793E+02  0.83982702793E+02  0.00000000000E+00 0. -1.
         21   -1    0    0  501  503 -0.00000000000E+00 -0.00000000000E+00 -0.10739210309E+03  0.10739210309E+03  0.00000000000E+00 0.  1.
         24    1    1    2    0    0  0.16370009299E+01 -0.43246958617E+02 -0.64159071988E+00  0.91326922617E+02  0.80419002446E+02 0.  0.
          1    1    1    2  501    0 -0.27785203669E+02 -0.59888984804E+01 -0.32802129603E+02  0.43403503942E+02  0.00000000000E+00 0. -1.
         -2    1    1    2    0  502  0.26148202739E+02  0.49235857097E+02  0.10034320026E+02  0.56644379324E+02  0.00000000000E+00 0.  1.
<mgrwt>
<rscale>  2 0.87748251E+02</rscale>
<asrwt>0</asrwt>
<pdfrwt beam="1">  1       21 0.12920416E-01 0.87748251E+02</pdfrwt>
<pdfrwt beam="2">  1       21 0.16521862E-01 0.87748251E+02</pdfrwt>
<totfact> 0.16640468E+06</totfact>
</mgrwt>
</event>
<event>
 5    1  0.1994521E+000  0.1407594E+03  0.7546771E-02  0.1212311E+00
         21   -1    0    0  501  502  0.00000000000E+00  0.00000000000E+00  0.58425807787E+03  0.58425807787E+03  0.00000000000E+00 0. -1.
         21   -1    0    0  502  503 -0.00000000000E+00 -0.00000000000E+00 -0.70679063566E+02  0.70679063566E+02  0.00000000000E+00 0. -1.
         24    1    1    2    0    0  0.18040114584E+02  0.12475277186E+03  0.86970244785E+02  0.17297323277E+03  0.80419002446E+02 0. -1.
          1    1    1    2  501    0  0.11690725711E+02 -0.20592077864E+02  0.34632836260E+03  0.34713692036E+03  0.00000000000E+00 0. -1.
         -2    1    1    2    0  503 -0.29730840295E+02 -0.10416069400E+03  0.80280406915E+02  0.13482698830E+03  0.00000000000E+00 0.  1.
<mgrwt>
<rscale>  2 0.14075945E+03</rscale>
<asrwt>0</asrwt>
<pdfrwt beam="1">  1       21 0.89885855E-01 0.14075945E+03</pdfrwt>
<pdfrwt beam="2">  1       21 0.10873702E-01 0.14075945E+03</pdfrwt>
<totfact> 0.75459959E+04</totfact>
</mgrwt>
</event>
<event>
 5    1  0.1994521E+000  0.1074384E+03  0.7546771E-02  0.1265388E+00
         21   -1    0    0  501  502  0.00000000000E+00  0.00000000000E+00  0.24242287743E+02  0.24242287743E+02  0.00000000000E+00 0.  1.
         21   -1    0    0  502  503 -0.00000000000E+00 -0.00000000000E+00 -0.10108728651E+04  0.10108728651E+04  0.00000000000E+00 0.  1.
         24    1    1    2    0    0  0.25405973967E+02 -0.87393399959E+02 -0.15411725182E+03  0.19622031784E+03  0.80419002446E+02 0.  1.
          1    1    1    2  501    0  0.22839445516E+01  0.25727681675E+02 -0.10046200129E+03  0.10372918447E+03  0.00000000000E+00 0. -1.
         -2    1    1    2    0  503 -0.27689918519E+02  0.61665718284E+02 -0.73205132420E+03  0.73516565049E+03  0.00000000000E+00 0.  1.
<mgrwt>
<rscale>  2 0.10743845E+03</rscale>
<asrwt>0</asrwt>
<pdfrwt beam="1">  1       21 0.37295831E-02 0.10743845E+03</pdfrwt>
<pdfrwt beam="2">  1       21 0.15551889E+00 0.10743845E+03</pdfrwt>
<totfact> 0.12490146E+05</totfact>
</mgrwt>
</event>
<event>
 5    1  0.1994521E+000  0.8345376E+02  0.7546771E-02  0.1319526E+00
         21   -1    0    0  501  502  0.00000000000E+00  0.00000000000E+00  0.78575039754E+03  0.78575039754E+03  0.00000000000E+00 0.  1.
         21   -1    0    0  502  503 -0.00000000000E+00 -0.00000000000E+00 -0.15674198937E+02  0.15674198937E+02  0.00000000000E+00 0.  1.
         24    1    1    2    0    0  0.10478814448E+02 -0.56662854408E+02  0.57920847424E+03  0.58759693431E+03  0.80419002446E+02 0.  1.
          1    1    1    2  501    0  0.10076383046E+02  0.40756907175E+02  0.18135429815E+03  0.18615058538E+03  0.00000000000E+00 0. -1.
         -2    1    1    2    0  503 -0.20555197494E+02  0.15905947233E+02  0.95134262067E+01  0.27677076789E+02  0.00000000000E+00 0.  1.
<mgrwt>
<rscale>  2 0.83453759E+02</rscale>
<asrwt>0</asrwt>
<pdfrwt beam="1">  1       21 0.12088465E+00 0.83453759E+02</pdfrwt>
<pdfrwt beam="2">  1       21 0.24114158E-02 0.83453759E+02</pdfrwt>
<totfact> 0.48105730E+05</totfact>
</mgrwt>
</event>
<event>
 5    1  0.1994521E+000  0.7018522E+02  0.7546771E-02  0.1359464E+00
         21   -1    0    0  503  502  0.00000000000E+00  0.00000000000E+00  0.54728127604E+03  0.54728127604E+03  0.00000000000E+00 0.  1.
         21   -1    0    0  501  503 -0.00000000000E+00 -0.00000000000E+00 -0.35361655461E+02  0.35361655461E+02  0.00000000000E+00 0.  1.
         24    1    1    2    0    0 -0.22440757220E+01  0.39900831028E+02  0.34846829707E+02  0.96325643977E+02  0.80419002446E+02 0.  1.
          1    1    1    2  501    0 -0.13882515391E+02 -0.25081953060E+02  0.42926486949E+02  0.51618910146E+02  0.00000000000E+00 0. -1.
         -2    1    1    2    0  502  0.16126591113E+02 -0.14818877968E+02  0.43414630392E+03  0.43469837738E+03  0.00000000000E+00 0.  1.
<mgrwt>
<rscale>  2 0.70185219E+02</rscale>
<asrwt>0</asrwt>
<pdfrwt beam="1">  1       21 0.84197113E-01 0.70185219E+02</pdfrwt>
<pdfrwt beam="2">  1       21 0.54402551E-02 0.70185219E+02</pdfrwt>
<totfact> 0.29392221E+05</totfact>
</mgrwt>
</event>
<event>
 5    1  0.1994521E+000  0.8592786E+02  0.7546771E-02  0.1313024E+00
         21   -1    0    0  501  502  0.00000000000E+00  0.00000000000E+00  0.62610874542E+03  0.62610874542E+03  0.00000000000E+00 0. -1.
         21   -1    0    0  502  503 -0.00000000000E+00 -0.00000000000E+00 -0.17904540532E+02  0.17904540532E+02  0.00000000000E+00 0. -1.
         24    1    1    2    0    0 -0.50101454086E+02 -0.17267285740E+02  0.44070126354E+03  0.45110213311E+03  0.80419002446E+02 0. -1.
          1    1    1    2  501    0  0.51827760129E+02 -0.60368569994E+01  0.16011604687E+03  0.16840341097E+03  0.00000000000E+00 0. -1.
         -2    1    1    2    0  503 -0.17263060429E+01  0.23304142739E+02  0.73868944777E+01  0.24507741866E+02  0.00000000000E+00 0.  1.
<mgrwt>
<rscale>  2 0.85927856E+02</rscale>
<asrwt>0</asrwt>
<pdfrwt beam="1">  1       21 0.96324406E-01 0.85927856E+02</pdfrwt>
<pdfrwt beam="2">  1       21 0.27545452E-02 0.85927856E+02</pdfrwt>
<totfact> 0.66105698E+05</totfact>
</mgrwt>
</event>
<event>
 5    1  0.1994521E+000  0.8584225E+02  0.7546771E-02  0.1313245E+00
         21   -1    0    0  501  502  0.00000000000E+00  0.00000000000E+00  0.45330109290E+03  0.45330109290E+03  0.00000000000E+00 0. -1.
         21   -1    0    0  502  503 -0.00000000000E+00 -0.00000000000E+00 -0.46715069937E+03  0.46715069937E+03  0.00000000000E+00 0. -1.
         24    1    1    2    0    0 -0.27146155986E+02 -0.37979670213E+02 -0.35950658126E+03  0.37133753791E+03  0.80419002446E+02 0. -1.
          1    1    1    2  501    0  0.47480353401E+02  0.32818195345E+02  0.44441759868E+03  0.44814999712E+03  0.00000000000E+00 0. -1.
         -2    1    1    2    0  503 -0.20334197415E+02  0.51614748679E+01 -0.98760623892E+02  0.10096425723E+03  0.00000000000E+00 0.  1.
<mgrwt>
<rscale>  2 0.85842250E+02</rscale>
<asrwt>0</asrwt>
<pdfrwt beam="1">  1       21 0.69738630E-01 0.85842250E+02</pdfrwt>
<pdfrwt beam="2">  1       21 0.71869338E-01 0.85842250E+02</pdfrwt>
<totfact> 0.36830158E+03</totfact>
</mgrwt>
</event>
<event>
 5    1  0.1994521E+000  0.1117198E+03  0.7546771E-02  0.1257418E+00
         21   -1    0    0  503  502  0.00000000000E+00  0.00000000000E+00  0.83191846650E+02  0.83191846650E+02  0.00000000000E+00 0.  1.
         21   -1    0    0  501  503 -0.00000000000E+00 -0.00000000000E+00 -0.22689023558E+03  0.22689023558E+03  0.00000000000E+00 0.  1.
         24    1    1    2    0    0  0.41924531380E+02 -0.77802782509E+02 -0.13565552516E+03  0.18077769984E+03  0.80419002446E+02 0.  1.
          1    1    1    2  501    0 -0.52989663366E+02  0.45638954090E+02 -0.41724683351E+02  0.81435666356E+02  0.00000000000E+00 0. -1.
         -2    1    1    2    0  502  0.11065131986E+02  0.32163828419E+02  0.33681819583E+02  0.47868716035E+02  0.00000000000E+00 0.  1.
<mgrwt>
<rscale>  2 0.11171979E+03</rscale>
<asrwt>0</asrwt>
<pdfrwt beam="1">  1       21 0.12798746E-01 0.11171979E+03</pdfrwt>
<pdfrwt beam="2">  1       21 0.34906190E-01 0.11171979E+03</pdfrwt>
<totfact> 0.41855307E+05</totfact>
</mgrwt>
</event>
<event>
 5    1  0.1994521E+000  0.1124903E+03  0.7546771E-02  0.1256027E+00
         21   -1    0    0  501  502  0.00000000000E+00  0.00000000000E+00  0.27560481433E+02  0.27560481433E+02  0.00000000000E+00 0. -1.
         21   -1    0    0  502  503 -0.00000000000E+00 -0.00000000000E+00 -0.81929032064E+03  0.81929032064E+03  0.00000000000E+00 0.  1.
         24    1    1    2    0    0  0.15053786021E+02 -0.16291664359E+02 -0.76913986229E+02  0.11346811020E+03  0.80419002446E+02 0.  0.
          1    1    1    2  501    0  0.59063780323E+02 -0.15261996875E+02 -0.13686336866E+03  0.14984338616E+03  0.00000000000E+00 0. -1.
         -2    1    1    2    0  503 -0.74117566345E+02  0.31553661234E+02 -0.57795248432E+03  0.58353930571E+03  0.00000000000E+00 0.  1.
<mgrwt>
<rscale>  2 0.11249025E+03</rscale>
<asrwt>0</asrwt>
<pdfrwt beam="1">  1       21 0.42400745E-02 0.11249025E+03</pdfrwt>
<pdfrwt beam="2">  1       21 0.12604465E+00 0.11249025E+03</pdfrwt>
<totfact> 0.17124038E+05</totfact>
</mgrwt>
</event>
<event>
 5    1  0.1994521E+000  0.7895108E+02  0.7546771E-02  0.1332055E+00
         21   -1    0    0  503  502  0.00000000000E+00  0.00000000000E+00  0.68258281985E+02  0.68258281985E+02  0.00000000000E+00 0. -1.
         21   -1    0    0  501  503 -0.00000000000E+00 -0.00000000000E+00 -0.17219845622E+03  0.17219845622E+03  0.00000000000E+00 0.  1.
         24    1    1    2    0    0  0.20589817667E+02  0.32894215831E+01 -0.23723050386E+01  0.83112000767E+02  0.80419002446E+02 0. -1.
          1    1    1    2  501    0 -0.13368048033E+02 -0.37525001621E+02 -0.11357072920E+03  0.12035423128E+03  0.00000000000E+00 0. -1.
         -2    1    1    2    0  502 -0.72217696339E+01  0.34235580038E+02  0.12002860010E+02  0.36990506155E+02  0.00000000000E+00 0.  1.
<mgrwt>
<rscale>  2 0.78951080E+02</rscale>
<asrwt>0</asrwt>
<pdfrwt beam="1">  1       21 0.10501274E-01 0.78951080E+02</pdfrwt>
<pdfrwt beam="2">  1       21 0.26492070E-01 0.78951080E+02</pdfrwt>
<totfact> 0.10019490E+06</totfact>
</mgrwt>
</event>
<event>
 5    1  0.1994521E+000  0.8764466E+02  0.7546771E-02  0.1308658E+00
         21   -1    0    0  501  502  0.00000000000E+00  0.00000000000E+00  0.80406483675E+02  0.80406483675E+02  0.00000000000E+00 0. -1.
         21   -1    0    0  502  503 -0.00000000000E+00 -0.00000000000E+00 -0.32316467465E+03  0.32316467465E+03  0.00000000000E+00 0.  1.
         24    1    1    2    0    0 -0.38233065023E+02  0.25412342501E+02 -0.68690586681E+02  0.11529599761E+03  0.80419002446E+02 0.  1.
          1    1    1    2  501    0 -0.19959480442E+02 -0.10783158404E+02  0.50749041300E+02  0.55588870806E+02  0.00000000000E+00 0. -1.
         -2    1    1    2    0  503  0.58192545465E+02 -0.14629184096E+02 -0.22481664559E+03  0.23268628991E+03  0.00000000000E+00 0.  1.
<mgrwt>
<rscale>  2 0.87644664E+02</rscale>
<asrwt>0</asrwt>
<pdfrwt beam="1">  1       21 0.12370228E-01 0.87644664E+02</pdfrwt>
<pdfrwt beam="2">  1       21 0.49717643E-01 0.87644664E+02</pdfrwt>
<totfact> 0.22037160E+05</totfact>
</mgrwt>
</event>
<event>
 5    1  0.1994521E+000  0.7024046E+02  0.7546771E-02  0.1359277E+00
         21   -1    0    0  501  502  0.00000000000E+00  0.00000000000E+00  0.70043018186E+02  0.70043018186E+02  0.00000000000E+00 0. -1.
         21   -1    0    0  502  503 -0.00000000000E+00 -0.00000000000E+00 -0.17161465914E+04  0.17161465914E+04  0.00000000000E+00 0.  1.
         24    1    1    2    0    0  0.46772122768E+02  0.45587110494E+01 -0.96003285360E+03  0.96454067269E+03  0.80419002446E+02 0.  1.
          1    1    1    2  501    0 -0.21047679528E+02 -0.49026189382E+01  0.65841101922E+02  0.69297122511E+02  0.00000000000E+00 0. -1.
         -2    1    1    2    0  503 -0.25724443241E+02  0.34390788873E+00 -0.75191182155E+03  0.75235181441E+03  0.00000000000E+00 0.  1.
<mgrwt>
<rscale>  2 0.70240460E+02</rscale>
<asrwt>0</asrwt>
<pdfrwt beam="1">  1       21 0.10775849E-01 0.70240460E+02</pdfrwt>
<pdfrwt beam="2">  1       21 0.26402254E+00 0.70240460E+02</pdfrwt>
<totfact> 0.48010107E+03</totfact>
</mgrwt>
</event>
<event>
 5    1  0.1994521E+000  0.1017967E+03  0.7546771E-02  0.1276562E+00
         21   -1    0    0  501  502  0.00000000000E+00  0.00000000000E+00  0.45958648234E+02  0.45958648234E+02  0.00000000000E+00 0. -1.
         21   -1    0    0  502  503 -0.00000000000E+00 -0.00000000000E+00 -0.47790683279E+03  0.47790683279E+03  0.00000000000E+00 0. -1.
         24    1    1    2    0    0 -0.20229262539E+02  0.64390769325E+02 -0.69276801190E+02  0.12578507612E+03  0.80419002446E+02 0. -1.
          1    1    1    2  501    0  0.20386845003E+02  0.11033017379E+02  0.41809263234E+01  0.23554852294E+02  0.00000000000E+00 0. -1.
         -2    1    1    2    0  503 -0.15758246343E+00 -0.75423786704E+02 -0.36685230968E+03  0.37452555260E+03  0.00000000000E+00 0.  1.
<mgrwt>
<rscale>  2 0.10179670E+03</rscale>
<asrwt>0</asrwt>
<pdfrwt beam="1">  1       21 0.70705617E-02 0.10179670E+03</pdfrwt>
<pdfrwt beam="2">  1       21 0.73524124E-01 0.10179670E+03</pdfrwt>
<totfact> 0.25293103E+05</totfact>
</mgrwt>
</event>
<event>
 5    1  0.1994521E+000  0.7576409E+02  0.7546771E-02  0.1341521E+00
         21   -1    0    0  501  502  0.00000000000E+00  0.00000000000E+00  0.46914194556E+01  0.46914194556E+01  0.00000000000E+00 0.  1.
         21   -1    0    0  502  503 -0.00000000000E+00 -0.00000000000E+00 -0.20443259403E+04  0.20443259403E+04  0.00000000000E+00 0.  1.
         24    1    1    2    0    0  0.25157011870E+02  0.11247192914E+02 -0.59796575095E+03  0.60397817001E+03  0.80419002446E+02 0.  1.
          1    1    1    2  501    0 -0.35694142881E+02 -0.28922435758E+02 -0.33026885022E+03  0.33344878550E+03  0.00000000000E+00 0. -1.
         -2    1    1    2    0  503  0.10537131011E+02  0.17675242844E+02 -0.11113999197E+04  0.11115904042E+04  0.00000000000E+00 0.  1.
<mgrwt>
<rscale>  2 0.75764091E+02</rscale>
<asrwt>0</asrwt>
<pdfrwt beam="1">  1       21 0.72175633E-03 0.75764091E+02</pdfrwt>
<pdfrwt beam="2">  1       21 0.31451191E+00 0.75764091E+02</pdfrwt>
<totfact> 0.20127873E+05</totfact>
</mgrwt>
</event>
<event>
 5    1  0.1994521E+000  0.9393182E+02  0.7546771E-02  0.1293600E+00
         21   -1    0    0  503  502  0.00000000000E+00  0.00000000000E+00  0.11776867764E+03  0.11776867764E+03  0.00000000000E+00 0. -1.
         21   -1    0    0  501  503 -0.00000000000E+00 -0.00000000000E+00 -0.76081131012E+02  0.76081131012E+02  0.00000000000E+00 0. -1.
         24    1    1    2    0    0 -0.51649794023E+02  0.55362512812E+02  0.15685603166E+02  0.11156147699E+03  0.80419002446E+02 0. -1.
          1    1    1    2  501    0  0.27720336653E+02 -0.41031792075E+02  0.21708408162E+02  0.54067365480E+02  0.00000000000E+00 0. -1.
         -2    1    1    2    0  502  0.23929457370E+02 -0.14330720737E+02  0.42935353034E+01  0.28220966183E+02  0.00000000000E+00 0.  1.
<mgrwt>
<rscale>  2 0.93931821E+02</rscale>
<asrwt>0</asrwt>
<pdfrwt beam="1">  1       21 0.18118258E-01 0.93931821E+02</pdfrwt>
<pdfrwt beam="2">  1       21 0.11704789E-01 0.93931821E+02</pdfrwt>
<totfact> 0.16797392E+06</totfact>
</mgrwt>
</event>
<event>
 5    1  0.3103746E+000  0.1229021E+03  0.7546771E-02  0.1238385E+00
         21   -1    0    0  503  502  0.00000000000E+00  0.00000000000E+00  0.14595058247E+03  0.14595058247E+03  0.00000000000E+00 0.  1.
         21   -1    0    0  501  503 -0.00000000000E+00 -0.00000000000E+00 -0.40525150549E+03  0.40525150549E+03  0.00000000000E+00 0. -1.
         24    1    1    2    0    0  0.38137141226E+02  0.80501940030E+01  0.34717571907E+01  0.89434424115E+02  0.80419002446E+02 0.  1.
          1    1    1    2  501    0 -0.93893112781E+02  0.16816894934E+02 -0.34579791662E+03  0.35871287086E+03  0.00000000000E+00 0. -1.
         -2    1    1    2    0  502  0.55755971555E+02 -0.24867088937E+02  0.83025236409E+02  0.10305479298E+03  0.00000000000E+00 0.  1.
<mgrwt>
<rscale>  2 0.12290212E+03</rscale>
<asrwt>0</asrwt>
<pdfrwt beam="1">  1       21 0.22453936E-01 0.12290212E+03</pdfrwt>
<pdfrwt beam="2">  1       21 0.62346385E-01 0.12290212E+03</pdfrwt>
<totfact> 0.45963551E+04</totfact>
</mgrwt>
</event>
<event>
 5    1  0.1994521E+000  0.9678999E+02  0.7546771E-02  0.1287195E+00
         21   -1    0    0  501  502  0.00000000000E+00  0.00000000000E+00  0.26492159647E+03  0.26492159647E+03  0.00000000000E+00 0. -1.
         21   -1    0    0  502  503 -0.00000000000E+00 -0.00000000000E+00 -0.72510769297E+02  0.72510769297E+02  0.00000000000E+00 0. -1.
         24    1    1    2    0    0 -0.27079655711E+01  0.66599875442E+02  0.21255891236E+02  0.10659223871E+03  0.80419002446E+02 0. -1.
          1    1    1    2  501    0 -0.27212442744E+02 -0.43576436504E+02  0.18394063704E+03  0.19098057705E+03  0.00000000000E+00 0. -1.
         -2    1    1    2    0  503  0.29920408315E+02 -0.23023438939E+02 -0.12785701096E+02  0.39859550008E+02  0.00000000000E+00 0.  1.
<mgrwt>
<rscale>  2 0.96789987E+02</rscale>
<asrwt>0</asrwt>
<pdfrwt beam="1">  1       21 0.40757168E-01 0.96789987E+02</pdfrwt>
<pdfrwt beam="2">  1       21 0.11155503E-01 0.96789987E+02</pdfrwt>
<totfact> 0.39337721E+05</totfact>
</mgrwt>
</event>
<event>
 5    1  0.1994521E+000  0.1454665E+03  0.7546771E-02  0.1206157E+00
         21   -1    0    0  501  502  0.00000000000E+00  0.00000000000E+00  0.23737558192E+03  0.23737558192E+03  0.00000000000E+00 0. -1.
         21   -1    0    0  502  503 -0.00000000000E+00 -0.00000000000E+00 -0.20323165819E+03  0.20323165819E+03  0.00000000000E+00 0. -1.
         24    1    1    2    0    0 -0.11222682680E+02 -0.11499829174E+03 -0.12637789386E+01  0.14078128001E+03  0.80419002446E+02 0. -1.
          1    1    1    2  501    0 -0.72346302767E+01  0.12760229434E+03  0.14192414112E+03  0.19098991395E+03  0.00000000000E+00 0. -1.
         -2    1    1    2    0  503  0.18457312957E+02 -0.12604002599E+02 -0.10651643845E+03  0.10883604616E+03  0.00000000000E+00 0.  1.
<mgrwt>
<rscale>  2 0.14546653E+03</rscale>
<asrwt>0</asrwt>
<pdfrwt beam="1">  1       21 0.36519320E-01 0.14546653E+03</pdfrwt>
<pdfrwt beam="2">  1       21 0.31266409E-01 0.14546653E+03</pdfrwt>
<totfact> 0.72540676E+04</totfact>
</mgrwt>
</event>
<event>
 5    1  0.3025957E+000  0.1009631E+03  0.7546771E-02  0.1278284E+00
         21   -1    0    0  501  502  0.00000000000E+00  0.00000000000E+00  0.99585890965E+02  0.99585890965E+02  0.00000000000E+00 0. -1.
         21   -1    0    0  502  503 -0.00000000000E+00 -0.00000000000E+00 -0.44831772321E+03  0.44831772321E+03  0.00000000000E+00 0.  1.
         24    1    1    2    0    0 -0.13121042509E+02 -0.20044302913E+01 -0.29318574464E+02  0.86619710576E+02  0.80419002446E+02 0.  0.
          1    1    1    2  501    0 -0.53617152779E+02  0.25691783996E+01  0.57410054907E+02  0.78595891459E+02  0.00000000000E+00 0. -1.
         -2    1    1    2    0  503  0.66738195289E+02 -0.56474810832E+00 -0.37682331268E+03  0.38268801214E+03  0.00000000000E+00 0.  1.
<mgrwt>
<rscale>  2 0.10096314E+03</rscale>
<asrwt>0</asrwt>
<pdfrwt beam="1">  1       21 0.15320907E-01 0.10096314E+03</pdfrwt>
<pdfrwt beam="2">  1       21 0.68971956E-01 0.10096314E+03</pdfrwt>
<totfact> 0.75438701E+04</totfact>
</mgrwt>
</event>
<event>
 5    1  0.1994521E+000  0.9339898E+02  0.7546771E-02  0.1294823E+00
         21   -1    0    0  501  502  0.00000000000E+00  0.00000000000E+00  0.14481899472E+03  0.14481899472E+03  0.00000000000E+00 0. -1.
         21   -1    0    0  502  503 -0.00000000000E+00 -0.00000000000E+00 -0.12618645680E+03  0.12618645680E+03  0.00000000000E+00 0. -1.
         24    1    1    2    0    0  0.41724173007E+02  0.56266657457E+02 -0.16329304507E+02  0.10789210117E+03  0.80419002446E+02 0. -1.
          1    1    1    2  501    0 -0.46657114710E+02 -0.35022030279E+02  0.88104998262E+02  0.10566891538E+03  0.00000000000E+00 0. -1.
         -2    1    1    2    0  503  0.49329417027E+01 -0.21244627178E+02 -0.53143155839E+02  0.57444434981E+02  0.00000000000E+00 0.  1.
<mgrwt>
<rscale>  2 0.93398983E+02</rscale>
<asrwt>0</asrwt>
<pdfrwt beam="1">  1       21 0.22279845E-01 0.93398983E+02</pdfrwt>
<pdfrwt beam="2">  1       21 0.19413301E-01 0.93398983E+02</pdfrwt>
<totfact> 0.46509642E+05</totfact>
</mgrwt>
</event>
<event>
 5    1  0.1994521E+000  0.1660265E+03  0.7546771E-02  0.1182056E+00
         21   -1    0    0  503  502  0.00000000000E+00  0.00000000000E+00  0.71074562593E+03  0.71074562593E+03  0.00000000000E+00 0. -1.
         21   -1    0    0  501  503 -0.00000000000E+00 -0.00000000000E+00 -0.71820318740E+02  0.71820318740E+02  0.00000000000E+00 0. -1.
         24    1    1    2    0    0 -0.29699990767E+02 -0.96148665784E+02  0.24319409420E+03  0.27520399487E+03  0.80419002446E+02 0. -1.
          1    1    1    2  501    0 -0.74675536910E+02  0.40644683170E+02 -0.92104158758E+01  0.85517587919E+02  0.00000000000E+00 0. -1.
         -2    1    1    2    0  502  0.10437552768E+03  0.55503982614E+02  0.40494162887E+03  0.42184436188E+03  0.00000000000E+00 0.  1.
<mgrwt>
<rscale>  2 0.16602651E+03</rscale>
<asrwt>0</asrwt>
<pdfrwt beam="1">  1       21 0.10934548E+00 0.16602651E+03</pdfrwt>
<pdfrwt beam="2">  1       21 0.11049280E-01 0.16602651E+03</pdfrwt>
<totfact> 0.45699657E+04</totfact>
</mgrwt>
</event>
<event>
 5    1  0.1994521E+000  0.7947377E+02  0.7546771E-02  0.1330551E+00
         21   -1    0    0  501  502  0.00000000000E+00  0.00000000000E+00  0.62502202817E+03  0.62502202817E+03  0.00000000000E+00 0. -1.
         21   -1    0    0  502  503 -0.00000000000E+00 -0.00000000000E+00 -0.10679201440E+02  0.10679201440E+02  0.00000000000E+00 0. -1.
         24    1    1    2    0    0 -0.38585046455E+02 -0.35258003553E+02  0.42685318507E+03  0.43749604591E+03  0.80419002446E+02 0. -1.
          1    1    1    2  501    0  0.14128099350E+02  0.35889563803E+02  0.13290502517E+03  0.13838861838E+03  0.00000000000E+00 0. -1.
         -2    1    1    2    0  503  0.24456947105E+02 -0.63156024952E+00  0.54584616487E+02  0.59816565323E+02  0.00000000000E+00 0.  1.
<mgrwt>
<rscale>  2 0.79473770E+02</rscale>
<asrwt>0</asrwt>
<pdfrwt beam="1">  1       21 0.96157207E-01 0.79473770E+02</pdfrwt>
<pdfrwt beam="2">  1       21 0.16429546E-02 0.79473770E+02</pdfrwt>
<totfact> 0.15158799E+06</totfact>
</mgrwt>
</event>
<event>
 5    1  0.1994521E+000  0.8442029E+02  0.7546771E-02  0.1316956E+00
         21   -1    0    0  503  502  0.00000000000E+00  0.00000000000E+00  0.23177188669E+02  0.23177188669E+02  0.00000000000E+00 0.  1.
         21   -1    0    0  501  503 -0.00000000000E+00 -0.00000000000E+00 -0.32653356158E+03  0.32653356158E+03  0.00000000000E+00 0.  1.
         24    1    1    2    0    0  0.52376572927E+02  0.26052225617E+02 -0.13554536895E+03  0.16811242324E+03  0.80419002446E+02 0.  1.
          1    1    1    2  501    0 -0.26713595716E+02 -0.33336387259E+02 -0.10167362170E+03  0.11028352670E+03  0.00000000000E+00 0. -1.
         -2    1    1    2    0  502 -0.25662977211E+02  0.72841616420E+01 -0.66137382265E+02  0.71314800308E+02  0.00000000000E+00 0.  1.
<mgrwt>
<rscale>  2 0.84420294E+02</rscale>
<asrwt>0</asrwt>
<pdfrwt beam="1">  1       21 0.35657214E-02 0.84420294E+02</pdfrwt>
<pdfrwt beam="2">  1       21 0.50235932E-01 0.84420294E+02</pdfrwt>
<totfact> 0.17660108E+06</totfact>
</mgrwt>
</event>
<event>
 5    1  0.1994521E+000  0.9541754E+02  0.7546771E-02  0.1290238E+00
         21   -1    0    0  501  502  0.00000000000E+00  0.00000000000E+00  0.28599033909E+03  0.28599033909E+03  0.00000000000E+00 0.  1.
         21   -1    0    0  502  503 -0.00000000000E+00 -0.00000000000E+00 -0.82808912956E+02  0.82808912956E+02  0.00000000000E+00 0. -1.
         24    1    1    2    0    0  0.38904259903E+02  0.46969677968E+02  0.18553377109E+03  0.21121005719E+03  0.80419002446E+02 0.  1.
          1    1    1    2  501    0 -0.57774907210E+02 -0.36149099475E+02  0.71943013180E+02  0.99098407865E+02  0.00000000000E+00 0. -1.
         -2    1    1    2    0  503  0.18870647307E+02 -0.10820578494E+02 -0.54295358134E+02  0.58490786998E+02  0.00000000000E+00 0.  1.
<mgrwt>
<rscale>  2 0.95417537E+02</rscale>
<asrwt>0</asrwt>
<pdfrwt beam="1">  1       21 0.43998513E-01 0.95417537E+02</pdfrwt>
<pdfrwt beam="2">  1       21 0.12739833E-01 0.95417537E+02</pdfrwt>
<totfact> 0.26740900E+05</totfact>
</mgrwt>
</event>
<event>
 5    1  0.1994521E+000  0.8346601E+02  0.7546771E-02  0.1319494E+00
         21   -1    0    0  503  502  0.00000000000E+00  0.00000000000E+00  0.69446084329E+03  0.69446084329E+03  0.00000000000E+00 0.  1.
         21   -1    0    0  501  503 -0.00000000000E+00 -0.00000000000E+00 -0.32994476027E+02  0.32994476027E+02  0.00000000000E+00 0.  1.
         24    1    1    2    0    0 -0.12221909953E+02  0.39610961121E+02  0.23239502382E+03  0.24938537723E+03  0.80419002446E+02 0.  1.
          1    1    1    2  501    0 -0.26334037491E+02 -0.11466421337E+02 -0.14335572831E+02  0.32100918947E+02  0.00000000000E+00 0. -1.
         -2    1    1    2    0  502  0.38555947444E+02 -0.28144539783E+02  0.44340691627E+03  0.44596902314E+03  0.00000000000E+00 0.  1.
<mgrwt>
<rscale>  2 0.83466008E+02</rscale>
<asrwt>0</asrwt>
<pdfrwt beam="1">  1       21 0.10684012E+00 0.83466008E+02</pdfrwt>
<pdfrwt beam="2">  1       21 0.50760738E-02 0.83466008E+02</pdfrwt>
<totfact> 0.19102979E+05</totfact>
</mgrwt>
</event>
<event>
 5    1  0.1994521E+000  0.6982853E+02  0.7546771E-02  0.1360677E+00
         21   -1    0    0  501  502  0.00000000000E+00  0.00000000000E+00  0.24960263304E+02  0.24960263304E+02  0.00000000000E+00 0. -1.
         21   -1    0    0  502  503 -0.00000000000E+00 -0.00000000000E+00 -0.27058088059E+03  0.27058088059E+03  0.00000000000E+00 0. -1.
         24    1    1    2    0    0  0.62473186725E+01  0.13379670362E+02 -0.10973584825E+03  0.13684742203E+03  0.80419002446E+02 0.  1.
          1    1    1    2  501    0  0.24642896916E+02 -0.10769251760E+02 -0.94364549525E+01  0.28500804093E+02  0.00000000000E+00 0. -1.
         -2    1    1    2    0  503 -0.30890215588E+02 -0.26104186027E+01 -0.12644831408E+03  0.13019291778E+03  0.00000000000E+00 0.  1.
<mgrwt>
<rscale>  2 0.69828526E+02</rscale>
<asrwt>0</asrwt>
<pdfrwt beam="1">  1       21 0.38400403E-02 0.69828526E+02</pdfrwt>
<pdfrwt beam="2">  1       21 0.41627830E-01 0.69828526E+02</pdfrwt>
<totfact> 0.22632651E+06</totfact>
</mgrwt>
</event>
<event>
 5    1  0.1994521E+000  0.1457508E+03  0.7546771E-02  0.1205794E+00
         21   -1    0    0  503  502  0.00000000000E+00  0.00000000000E+00  0.21959506462E+04  0.21959506462E+04  0.00000000000E+00 0.  1.
         21   -1    0    0  501  503 -0.00000000000E+00 -0.00000000000E+00 -0.25974202191E+02  0.25974202191E+02  0.00000000000E+00 0. -1.
         24    1    1    2    0    0 -0.32366233965E+02  0.48837477185E+02  0.59824285336E+03  0.60646055093E+03  0.80419002446E+02 0.  0.
          1    1    1    2  501    0  0.10900761359E+03 -0.26726011167E+02  0.13091925216E+03  0.17244358521E+03  0.00000000000E+00 0. -1.
         -2    1    1    2    0  502 -0.76641379628E+02 -0.22111466018E+02  0.14408143385E+04  0.14430207123E+04  0.00000000000E+00 0.  1.
<mgrwt>
<rscale>  2 0.14575077E+03</rscale>
<asrwt>0</asrwt>
<pdfrwt beam="1">  1       21 0.33783841E+00 0.14575077E+03</pdfrwt>
<pdfrwt beam="2">  1       21 0.39960328E-02 0.14575077E+03</pdfrwt>
<totfact> 0.86119771E+03</totfact>
</mgrwt>
</event>
<event>
 5    1  0.1994521E+000  0.9160211E+02  0.7546771E-02  0.1299018E+00
         21   -1    0    0  501  502  0.00000000000E+00  0.00000000000E+00  0.16713470073E+02  0.16713470073E+02  0.00000000000E+00 0. -1.
         21   -1    0    0  502  503 -0.00000000000E+00 -0.00000000000E+00 -0.56099295975E+03  0.56099295975E+03  0.00000000000E+00 0. -1.
         24    1    1    2    0    0  0.35249513307E+02  0.51953849070E+02 -0.39230278072E+03  0.40535221517E+03  0.80419002446E+02 0. -1.
          1    1    1    2  501    0 -0.84145665191E+01 -0.53636296087E+02 -0.97232191134E+02  0.11136317246E+03  0.00000000000E+00 0. -1.
         -2    1    1    2    0  503 -0.26834946788E+02  0.16824470172E+01 -0.54744517823E+02  0.60991042201E+02  0.00000000000E+00 0.  1.
<mgrwt>
<rscale>  2 0.91602106E+02</rscale>
<asrwt>0</asrwt>
<pdfrwt beam="1">  1       21 0.25713027E-02 0.91602106E+02</pdfrwt>
<pdfrwt beam="2">  1       21 0.86306622E-01 0.91602106E+02</pdfrwt>
<totfact> 0.94780233E+05</totfact>
</mgrwt>
</event>
<event>
 5    1  0.1994521E+000  0.1726825E+03  0.7546771E-02  0.1175079E+00
         21   -1    0    0  501  502  0.00000000000E+00  0.00000000000E+00  0.11112080526E+03  0.11112080526E+03  0.00000000000E+00 0.  1.
         21   -1    0    0  502  503 -0.00000000000E+00 -0.00000000000E+00 -0.28398906760E+03  0.28398906760E+03  0.00000000000E+00 0.  1.
         24    1    1    2    0    0 -0.58636298213E+02  0.10559698657E+03 -0.98331924310E+02  0.17528640088E+03  0.80419002446E+02 0.  1.
          1    1    1    2  501    0 -0.53354215993E+02 -0.57307577984E+02 -0.28375813543E+01  0.78351022499E+02  0.00000000000E+00 0. -1.
         -2    1    1    2    0  503  0.11199051421E+03 -0.48289408588E+02 -0.71698756677E+02  0.14147244948E+03  0.00000000000E+00 0.  1.
<mgrwt>
<rscale>  2 0.17268248E+03</rscale>
<asrwt>0</asrwt>
<pdfrwt beam="1">  1       21 0.17095508E-01 0.17268248E+03</pdfrwt>
<pdfrwt beam="2">  1       21 0.43690626E-01 0.17268248E+03</pdfrwt>
<totfact> 0.15644741E+05</totfact>
</mgrwt>
</event>
<event>
 5    1  0.1994521E+000  0.7082308E+02  0.7546771E-02  0.1357316E+00
         21   -1    0    0  503  502  0.00000000000E+00  0.00000000000E+00  0.46132811264E+02  0.46132811264E+02  0.00000000000E+00 0. -1.
         21   -1    0    0  501  503 -0.00000000000E+00 -0.00000000000E+00 -0.16974757798E+03  0.16974757798E+03  0.00000000000E+00 0.  1.
         24    1    1    2    0    0 -0.10981783792E+02 -0.31563731914E+02 -0.23493037303E+02  0.90199819865E+02  0.80419002446E+02 0.  1.
          1    1    1    2  501    0  0.27025708926E+02  0.12896736114E+02 -0.96203584615E+02  0.10075636177E+03  0.00000000000E+00 0. -1.
         -2    1    1    2    0  502 -0.16043925133E+02  0.18666995800E+02 -0.39181447946E+01  0.24924207601E+02  0.00000000000E+00 0.  1.
<mgrwt>
<rscale>  2 0.70823078E+02</rscale>
<asrwt>0</asrwt>
<pdfrwt beam="1">  1       21 0.70973556E-02 0.70823078E+02</pdfrwt>
<pdfrwt beam="2">  1       21 0.26115012E-01 0.70823078E+02</pdfrwt>
<totfact> 0.20011970E+06</totfact>
</mgrwt>
</event>
<event>
 5    1  0.1994521E+000  0.7231645E+02  0.7546771E-02  0.1352388E+00
         21   -1    0    0  503  502  0.00000000000E+00  0.00000000000E+00  0.14490263184E+03  0.14490263184E+03  0.00000000000E+00 0. -1.
         21   -1    0    0  501  503 -0.00000000000E+00 -0.00000000000E+00 -0.82812147672E+02  0.82812147672E+02  0.00000000000E+00 0. -1.
         24    1    1    2    0    0 -0.12978135351E+02  0.49773047381E+01  0.72816850375E+02  0.10937419811E+03  0.80419002446E+02 0. -1.
          1    1    1    2  501    0  0.16594958052E+02 -0.31846004938E+02 -0.55437463866E+02  0.66052048137E+02  0.00000000000E+00 0. -1.
         -2    1    1    2    0  502 -0.36168227011E+01  0.26868700200E+02  0.44711097657E+02  0.52288533261E+02  0.00000000000E+00 0.  1.
<mgrwt>
<rscale>  2 0.72316449E+02</rscale>
<asrwt>0</asrwt>
<pdfrwt beam="1">  1       21 0.22292713E-01 0.72316449E+02</pdfrwt>
<pdfrwt beam="2">  1       21 0.12740330E-01 0.72316449E+02</pdfrwt>
<totfact> 0.98363997E+05</totfact>
</mgrwt>
</event>
<event>
 5    1  0.1994521E+000  0.1196470E+03  0.7546771E-02  0.1243681E+00
         21   -1    0    0  501  502  0.00000000000E+00  0.00000000000E+00  0.13253852379E+02  0.13253852379E+02  0.00000000000E+00 0. -1.
         21   -1    0    0  502  503 -0.00000000000E+00 -0.00000000000E+00 -0.12657654439E+04  0.12657654439E+04  0.00000000000E+00 0.  1.
         24    1    1    2    0    0 -0.16803746607E+02 -0.88701666280E+02 -0.77549288536E+03  0.78486099578E+03  0.80419002446E+02 0.  1.
          1    1    1    2  501    0 -0.30061810019E+02  0.46223586672E+02 -0.12674500092E+03  0.13821949083E+03  0.00000000000E+00 0. -1.
         -2    1    1    2    0  503  0.46865556627E+02  0.42478079608E+02 -0.35027370520E+03  0.35593880963E+03  0.00000000000E+00 0.  1.
<mgrwt>
<rscale>  2 0.11964698E+03</rscale>
<asrwt>0</asrwt>
<pdfrwt beam="1">  1       21 0.20390536E-02 0.11964698E+03</pdfrwt>
<pdfrwt beam="2">  1       21 0.19473320E+00 0.11964698E+03</pdfrwt>
<totfact> 0.18005806E+05</totfact>
</mgrwt>
</event>
<event>
 5    1  0.1994521E+000  0.6723538E+02  0.7546771E-02  0.1369755E+00
         21   -1    0    0  501  502  0.00000000000E+00  0.00000000000E+00  0.69631939887E+02  0.69631939887E+02  0.00000000000E+00 0. -1.
         21   -1    0    0  502  503 -0.00000000000E+00 -0.00000000000E+00 -0.86020690244E+02  0.86020690244E+02  0.00000000000E+00 0.  1.
         24    1    1    2    0    0  0.20964552134E+02  0.19935815842E+02  0.27534434530E+02  0.89790368296E+02  0.80419002446E+02 0. -1.
          1    1    1    2  501    0 -0.18950475893E+02  0.83074190515E+01 -0.16805203380E+02  0.26656117656E+02  0.00000000000E+00 0. -1.
         -2    1    1    2    0  503 -0.20140762408E+01 -0.28243234893E+02 -0.27117981508E+02  0.39206144179E+02  0.00000000000E+00 0.  1.
<mgrwt>
<rscale>  2 0.67235380E+02</rscale>
<asrwt>0</asrwt>
<pdfrwt beam="1">  1       21 0.10712606E-01 0.67235380E+02</pdfrwt>
<pdfrwt beam="2">  1       21 0.13233952E-01 0.67235380E+02</pdfrwt>
<totfact> 0.33747144E+06</totfact>
</mgrwt>
</event>
<event>
 5    1  0.1994521E+000  0.7772325E+02  0.7546771E-02  0.1335640E+00
         21   -1    0    0  501  502  0.00000000000E+00  0.00000000000E+00  0.17602007584E+03  0.17602007584E+03  0.00000000000E+00 0. -1.
         21   -1    0    0  502  503 -0.00000000000E+00 -0.00000000000E+00 -0.53322607582E+02  0.53322607582E+02  0.00000000000E+00 0. -1.
         24    1    1    2    0    0  0.23774876523E+02 -0.44291470367E+01  0.11960959314E+02  0.84824186405E+02  0.80419002446E+02 0. -1.
          1    1    1    2  501    0 -0.31470645245E+02  0.30778589238E+02  0.10836673292E+03  0.11696611420E+03  0.00000000000E+00 0. -1.
         -2    1    1    2    0  503  0.76957687220E+01 -0.26349442202E+02  0.23697760265E+01  0.27552382818E+02  0.00000000000E+00 0.  1.
<mgrwt>
<rscale>  2 0.77723255E+02</rscale>
<asrwt>0</asrwt>
<pdfrwt beam="1">  1       21 0.27080011E-01 0.77723255E+02</pdfrwt>
<pdfrwt beam="2">  1       21 0.82034782E-02 0.77723255E+02</pdfrwt>
<totfact> 0.14687641E+06</totfact>
</mgrwt>
</event>
<event>
 5    1  0.1994521E+000  0.1098709E+03  0.7546771E-02  0.1260809E+00
         21   -1    0    0  503  502  0.00000000000E+00  0.00000000000E+00  0.87300636842E+03  0.87300636842E+03  0.00000000000E+00 0.  1.
         21   -1    0    0  501  503 -0.00000000000E+00 -0.00000000000E+00 -0.67895775471E+02  0.67895775471E+02  0.00000000000E+00 0. -1.
         24    1    1    2    0    0 -0.37357379184E+02 -0.49458655860E+02  0.36798416078E+02  0.10799570269E+03  0.80419002446E+02 0. -1.
          1    1    1    2  501    0  0.68295128100E+01  0.76874527663E+02  0.15178305582E+02  0.78655681352E+02  0.00000000000E+00 0. -1.
         -2    1    1    2    0  502  0.30527866374E+02 -0.27415871803E+02  0.75313387129E+03  0.75425075985E+03  0.00000000000E+00 0.  1.
<mgrwt>
<rscale>  2 0.10987087E+03</rscale>
<asrwt>0</asrwt>
<pdfrwt beam="1">  1       21 0.13430866E+00 0.10987087E+03</pdfrwt>
<pdfrwt beam="2">  1       21 0.10445505E-01 0.10987087E+03</pdfrwt>
<totfact> 0.31638280E+04</totfact>
</mgrwt>
</event>
<event>
 5    1  0.1994521E+000  0.9667979E+02  0.7546771E-02  0.1287437E+00
         21   -1    0    0  501  502  0.00000000000E+00  0.00000000000E+00  0.63140069690E+02  0.63140069690E+02  0.00000000000E+00 0. -1.
         21   -1    0    0  502  503 -0.00000000000E+00 -0.00000000000E+00 -0.23437289657E+03  0.23437289657E+03  0.00000000000E+00 0. -1.
         24    1    1    2    0    0 -0.79229154020E+02 -0.98566903520E+01 -0.12686580293E+03  0.17010749866E+03  0.80419002446E+02 0. -1.
          1    1    1    2  501    0  0.36284266019E+02  0.73462110630E+01  0.25784215997E+02  0.45114748942E+02  0.00000000000E+00 0. -1.
         -2    1    1    2    0  503  0.42944888001E+02  0.25104792890E+01 -0.70151239943E+02  0.82290718658E+02  0.00000000000E+00 0.  1.
<mgrwt>
<rscale>  2 0.96679790E+02</rscale>
<asrwt>0</asrwt>
<pdfrwt beam="1">  1       21 0.97138570E-02 0.96679790E+02</pdfrwt>
<pdfrwt beam="2">  1       21 0.36057368E-01 0.96679790E+02</pdfrwt>
<totfact> 0.63727805E+05</totfact>
</mgrwt>
</event>
<event>
 5    1  0.1994521E+000  0.9228916E+02  0.7546771E-02  0.1297401E+00
         21   -1    0    0  501  502  0.00000000000E+00  0.00000000000E+00  0.16315446591E+02  0.16315446591E+02  0.00000000000E+00 0.  1.
         21   -1    0    0  502  503 -0.00000000000E+00 -0.00000000000E+00 -0.14186292540E+04  0.14186292540E+04  0.00000000000E+00 0. -1.
         24    1    1    2    0    0 -0.21965226546E+02  0.32673909675E+02 -0.16611191737E+03  0.18870728814E+03  0.80419002446E+02 0.  1.
          1    1    1    2  501    0  0.48690643245E+02 -0.44362274868E+02 -0.22077937578E+03  0.23039601329E+03  0.00000000000E+00 0. -1.
         -2    1    1    2    0  503 -0.26725416699E+02  0.11688365193E+02 -0.10154225142E+04  0.10158413991E+04  0.00000000000E+00 0.  1.
<mgrwt>
<rscale>  2 0.92289157E+02</rscale>
<asrwt>0</asrwt>
<pdfrwt beam="1">  1       21 0.25100676E-02 0.92289157E+02</pdfrwt>
<pdfrwt beam="2">  1       21 0.21825075E+00 0.92289157E+02</pdfrwt>
<totfact> 0.94502252E+04</totfact>
</mgrwt>
</event>
<event>
 5    1  0.1994521E+000  0.7506820E+02  0.7546771E-02  0.1343660E+00
         21   -1    0    0  501  502  0.00000000000E+00  0.00000000000E+00  0.78535734211E+02  0.78535734211E+02  0.00000000000E+00 0. -1.
         21   -1    0    0  502  503 -0.00000000000E+00 -0.00000000000E+00 -0.15952703392E+03  0.15952703392E+03  0.00000000000E+00 0. -1.
         24    1    1    2    0    0 -0.38902601466E+01 -0.52081746661E+02 -0.11166690122E+03  0.14718816271E+03  0.80419002446E+02 0. -1.
          1    1    1    2  501    0 -0.55898828773E+01  0.22439768628E+02  0.49406990664E+02  0.54551267017E+02  0.00000000000E+00 0. -1.
         -2    1    1    2    0  503  0.94801430239E+01  0.29641978033E+02 -0.18731389156E+02  0.36323338409E+02  0.00000000000E+00 0.  1.
<mgrwt>
<rscale>  2 0.75068203E+02</rscale>
<asrwt>0</asrwt>
<pdfrwt beam="1">  1       21 0.12082421E-01 0.75068203E+02</pdfrwt>
<pdfrwt beam="2">  1       21 0.24542621E-01 0.75068203E+02</pdfrwt>
<totfact> 0.90448547E+05</totfact>
</mgrwt>
</event>
<event>
 5    1  0.1994521E+000  0.1007845E+03  0.7546771E-02  0.1278655E+00
         21   -1    0    0  501  502  0.00000000000E+00  0.00000000000E+00  0.57620828027E+02  0.57620828027E+02  0.00000000000E+00 0. -1.
         21   -1    0    0  502  503 -0.00000000000E+00 -0.00000000000E+00 -0.35186134534E+03  0.35186134534E+03  0.00000000000E+00 0.  1.
         24    1    1    2    0    0  0.69244119314E+02  0.24295685737E+02 -0.13380796559E+03  0.17250164062E+03  0.80419002446E+02 0. -1.
          1    1    1    2  501    0 -0.61991091595E+02  0.53115697924E+01  0.10719705363E+02  0.63134937189E+02  0.00000000000E+00 0. -1.
         -2    1    1    2    0  503 -0.72530277191E+01 -0.29607255529E+02 -0.17115225708E+03  0.17384559556E+03  0.00000000000E+00 0.  1.
<mgrwt>
<rscale>  2 0.10078448E+03</rscale>
<asrwt>0</asrwt>
<pdfrwt beam="1">  1       21 0.88647428E-02 0.10078448E+03</pdfrwt>
<pdfrwt beam="2">  1       21 0.54132514E-01 0.10078448E+03</pdfrwt>
<totfact> 0.32943721E+05</totfact>
</mgrwt>
</event>
<event>
 5    1  0.1994521E+000  0.8943256E+02  0.7546771E-02  0.1304232E+00
         21   -1    0    0  501  502  0.00000000000E+00  0.00000000000E+00  0.17420410844E+03  0.17420410844E+03  0.00000000000E+00 0. -1.
         21   -1    0    0  502  503 -0.00000000000E+00 -0.00000000000E+00 -0.78861883400E+02  0.78861883400E+02  0.00000000000E+00 0.  1.
         24    1    1    2    0    0  0.17399983662E+02  0.15850776115E+02  0.73177532544E+02  0.11124825283E+03  0.80419002446E+02 0. -1.
          1    1    1    2  501    0 -0.54627365528E+02 -0.18691808769E+02  0.63697531652E+02  0.85970392102E+02  0.00000000000E+00 0. -1.
         -2    1    1    2    0  503  0.37227381866E+02  0.28410326542E+01 -0.41532839160E+02  0.55847346901E+02  0.00000000000E+00 0.  1.
<mgrwt>
<rscale>  2 0.89432561E+02</rscale>
<asrwt>0</asrwt>
<pdfrwt beam="1">  1       21 0.26800632E-01 0.89432561E+02</pdfrwt>
<pdfrwt beam="2">  1       21 0.12132597E-01 0.89432561E+02</pdfrwt>
<totfact> 0.76389273E+05</totfact>
</mgrwt>
</event>
<event>
 5    1  0.1994521E+000  0.9549671E+02  0.7546771E-02  0.1290061E+00
         21   -1    0    0  501  502  0.00000000000E+00  0.00000000000E+00  0.35410114157E+03  0.35410114157E+03  0.00000000000E+00 0. -1.
         21   -1    0    0  502  503 -0.00000000000E+00 -0.00000000000E+00 -0.29241013764E+02  0.29241013764E+02  0.00000000000E+00 0.  1.
         24    1    1    2    0    0 -0.36271942164E+02 -0.23957658810E+02  0.91377819821E+02  0.12925457483E+03  0.80419002446E+02 0.  1.
          1    1    1    2  501    0  0.65740669089E+02  0.84614917434E+01  0.16860019776E+03  0.18116141725E+03  0.00000000000E+00 0. -1.
         -2    1    1    2    0  503 -0.29468726926E+02  0.15496167066E+02  0.64882110232E+02  0.72926163265E+02  0.00000000000E+00 0.  1.
<mgrwt>
<rscale>  2 0.95496711E+02</rscale>
<asrwt>0</asrwt>
<pdfrwt beam="1">  1       21 0.54477096E-01 0.95496711E+02</pdfrwt>
<pdfrwt beam="2">  1       21 0.44986178E-02 0.95496711E+02</pdfrwt>
<totfact> 0.10227871E+06</totfact>
</mgrwt>
</event>
<event>
 5    1  0.1994521E+000  0.1223316E+03  0.7546771E-02  0.1239299E+00
         21   -1    0    0  501  502  0.00000000000E+00  0.00000000000E+00  0.23078933049E+03  0.23078933049E+03  0.00000000000E+00 0.  1.
         21   -1    0    0  502  503 -0.00000000000E+00 -0.00000000000E+00 -0.98492215538E+02  0.98492215538E+02  0.00000000000E+00 0. -1.
         24    1    1    2    0    0 -0.38961436690E+02  0.10120635950E+03 -0.13211866051E+02  0.13565577802E+03  0.80419002446E+02 0.  0.
          1    1    1    2  501    0  0.19747062721E+02 -0.72256571690E+02  0.13953533103E+03  0.15837003266E+03  0.00000000000E+00 0. -1.
         -2    1    1    2    0  503  0.19214373969E+02 -0.28949787807E+02  0.59736499750E+01  0.35255735351E+02  0.00000000000E+00 0.  1.
<mgrwt>
<rscale>  2 0.12233159E+03</rscale>
<asrwt>0</asrwt>
<pdfrwt beam="1">  1       21 0.35506051E-01 0.12233159E+03</pdfrwt>
<pdfrwt beam="2">  1       21 0.15152649E-01 0.12233159E+03</pdfrwt>
<totfact> 0.29886365E+05</totfact>
</mgrwt>
</event>
<event>
 5    1  0.1994521E+000  0.8955886E+02  0.7546771E-02  0.1303924E+00
         21   -1    0    0  503  502  0.00000000000E+00  0.00000000000E+00  0.49502500874E+03  0.49502500874E+03  0.00000000000E+00 0. -1.
         21   -1    0    0  501  503 -0.00000000000E+00 -0.00000000000E+00 -0.18615995704E+02  0.18615995704E+02  0.00000000000E+00 0.  1.
         24    1    1    2    0    0  0.37856229430E+02 -0.57058121562E+01  0.14674440362E+03  0.17165892446E+03  0.80419002446E+02 0.  1.
          1    1    1    2  501    0 -0.25406981854E+01  0.40438235138E+02  0.12471623516E+03  0.13113292997E+03  0.00000000000E+00 0. -1.
         -2    1    1    2    0  502 -0.35315531245E+02 -0.34732422981E+02  0.20494837426E+03  0.21084915002E+03  0.00000000000E+00 0.  1.
<mgrwt>
<rscale>  2 0.89558855E+02</rscale>
<asrwt>0</asrwt>
<pdfrwt beam="1">  1       21 0.76157684E-01 0.89558855E+02</pdfrwt>
<pdfrwt beam="2">  1       21 0.28639997E-02 0.89558855E+02</pdfrwt>
<totfact> 0.10499738E+06</totfact>
</mgrwt>
</event>
<event>
 5    1  0.1994521E+000  0.7904975E+02  0.7546771E-02  0.1331770E+00
         21   -1    0    0  501  502  0.00000000000E+00  0.00000000000E+00  0.21589898391E+02  0.21589898391E+02  0.00000000000E+00 0. -1.
         21   -1    0    0  502  503 -0.00000000000E+00 -0.00000000000E+00 -0.41240516482E+03  0.41240516482E+03  0.00000000000E+00 0. -1.
         24    1    1    2    0    0  0.14930243376E+02 -0.33113128253E+01 -0.30854491060E+03  0.31921944610E+03  0.80419002446E+02 0. -1.
          1    1    1    2  501    0  0.22299428749E+02 -0.21916991976E+02 -0.17226556118E+02  0.35698365445E+02  0.00000000000E+00 0. -1.
         -2    1    1    2    0  503 -0.37229672124E+02  0.25228304801E+02 -0.65043799715E+02  0.79077251666E+02  0.00000000000E+00 0.  1.
<mgrwt>
<rscale>  2 0.79049747E+02</rscale>
<asrwt>0</asrwt>
<pdfrwt beam="1">  1       21 0.33215231E-02 0.79049747E+02</pdfrwt>
<pdfrwt beam="2">  1       21 0.63446944E-01 0.79049747E+02</pdfrwt>
<totfact> 0.12191644E+06</totfact>
</mgrwt>
</event>
<event>
 5    1  0.1994521E+000  0.9824356E+02  0.7546771E-02  0.1284033E+00
         21   -1    0    0  503  502  0.00000000000E+00  0.00000000000E+00  0.82121124749E+03  0.82121124749E+03  0.00000000000E+00 0.  1.
         21   -1    0    0  501  503 -0.00000000000E+00 -0.00000000000E+00 -0.58043862888E+02  0.58043862888E+02  0.00000000000E+00 0. -1.
         24    1    1    2    0    0 -0.20745412514E+02  0.63452274809E+02  0.77044567548E+02  0.12984469439E+03  0.80419002446E+02 0.  1.
          1    1    1    2  501    0  0.25493985143E+02  0.27101392854E+01 -0.24640225992E+02  0.35558808619E+02  0.00000000000E+00 0. -1.
         -2    1    1    2    0  502 -0.47485726294E+01 -0.66162414094E+02  0.71076304305E+03  0.71385160737E+03  0.00000000000E+00 0.  1.
<mgrwt>
<rscale>  2 0.98243559E+02</rscale>
<asrwt>0</asrwt>
<pdfrwt beam="1">  1       21 0.12634018E+00 0.98243559E+02</pdfrwt>
<pdfrwt beam="2">  1       21 0.89298257E-02 0.98243559E+02</pdfrwt>
<totfact> 0.48767394E+04</totfact>
</mgrwt>
</event>
<event>
 5    1  0.1994521E+000  0.7665555E+02  0.7546771E-02  0.1338820E+00
         21   -1    0    0  501  502  0.00000000000E+00  0.00000000000E+00  0.47512724233E+02  0.47512724233E+02  0.00000000000E+00 0.  1.
         21   -1    0    0  502  503 -0.00000000000E+00 -0.00000000000E+00 -0.19451547812E+03  0.19451547812E+03  0.00000000000E+00 0.  1.
         24    1    1    2    0    0  0.23964016746E+02 -0.70348456715E+01 -0.54616436785E+02  0.10036899060E+03  0.80419002446E+02 0.  1.
          1    1    1    2  501    0  0.17248603719E+02 -0.14562947772E+02  0.13288111941E+02  0.26194802863E+02  0.00000000000E+00 0. -1.
         -2    1    1    2    0  503 -0.41212620465E+02  0.21597793443E+02 -0.10567442905E+03  0.11546440890E+03  0.00000000000E+00 0.  1.
<mgrwt>
<rscale>  2 0.76655551E+02</rscale>
<asrwt>0</asrwt>
<pdfrwt beam="1">  1       21 0.73096499E-02 0.76655551E+02</pdfrwt>
<pdfrwt beam="2">  1       21 0.29925458E-01 0.76655551E+02</pdfrwt>
<totfact> 0.14784129E+06</totfact>
</mgrwt>
</event>
<event>
 5    1  0.1994521E+000  0.8160845E+02  0.7546771E-02  0.1324548E+00
         21   -1    0    0  503  502  0.00000000000E+00  0.00000000000E+00  0.60486044092E+03  0.60486044092E+03  0.00000000000E+00 0.  1.
         21   -1    0    0  501  503 -0.00000000000E+00 -0.00000000000E+00 -0.39384671727E+02  0.39384671727E+02  0.00000000000E+00 0.  1.
         24    1    1    2    0    0 -0.41253628282E+00 -0.52527946724E+02  0.39891637689E+02  0.10400920193E+03  0.80419002446E+02 0.  1.
          1    1    1    2  501    0  0.18712347426E+02  0.42167066156E+02  0.68017753011E+02  0.82186544757E+02  0.00000000000E+00 0. -1.
         -2    1    1    2    0  502 -0.18299811143E+02  0.10360880568E+02  0.45756637849E+03  0.45804936596E+03  0.00000000000E+00 0.  1.
<mgrwt>
<rscale>  2 0.81608447E+02</rscale>
<asrwt>0</asrwt>
<pdfrwt beam="1">  1       21 0.93055446E-01 0.81608447E+02</pdfrwt>
<pdfrwt beam="2">  1       21 0.60591807E-02 0.81608447E+02</pdfrwt>
<totfact> 0.19561100E+05</totfact>
</mgrwt>
</event>
<event>
 5    1  0.1994521E+000  0.7048639E+02  0.7546771E-02  0.1358447E+00
         21   -1    0    0  503  502  0.00000000000E+00  0.00000000000E+00  0.37265935986E+02  0.37265935986E+02  0.00000000000E+00 0.  1.
         21   -1    0    0  501  503 -0.00000000000E+00 -0.00000000000E+00 -0.16997422529E+03  0.16997422529E+03  0.00000000000E+00 0. -1.
         24    1    1    2    0    0  0.92394612919E+01  0.44848765518E+02 -0.37607632456E+02  0.99891588168E+02  0.80419002446E+02 0.  0.
          1    1    1    2  501    0  0.37690250132E+01 -0.20315814071E+02 -0.53301793826E+02  0.57166590558E+02  0.00000000000E+00 0. -1.
         -2    1    1    2    0  502 -0.13008486305E+02 -0.24532951447E+02 -0.41798863022E+02  0.50181982549E+02  0.00000000000E+00 0.  1.
<mgrwt>
<rscale>  2 0.70486387E+02</rscale>
<asrwt>0</asrwt>
<pdfrwt beam="1">  1       21 0.57332210E-02 0.70486387E+02</pdfrwt>
<pdfrwt beam="2">  1       21 0.26149880E-01 0.70486387E+02</pdfrwt>
<totfact> 0.28530614E+06</totfact>
</mgrwt>
</event>
<event>
 5    1  0.1994521E+000  0.6747014E+02  0.7546771E-02  0.1368914E+00
         21   -1    0    0  501  502  0.00000000000E+00  0.00000000000E+00  0.94317751722E+03  0.94317751722E+03  0.00000000000E+00 0. -1.
         21   -1    0    0  502  503 -0.00000000000E+00 -0.00000000000E+00 -0.13894241609E+02  0.13894241609E+02  0.00000000000E+00 0. -1.
         24    1    1    2    0    0  0.41785511622E+01  0.42804085078E+02  0.22725482509E+03  0.24487062190E+03  0.80419002446E+02 0. -1.
          1    1    1    2  501    0  0.19678885831E+01 -0.20926338993E+02  0.68073405520E+03  0.68105846897E+03  0.00000000000E+00 0. -1.
         -2    1    1    2    0  503 -0.61464397453E+01 -0.21877746085E+02  0.21294395319E+02  0.31142667954E+02  0.00000000000E+00 0.  1.
<mgrwt>
<rscale>  2 0.67470136E+02</rscale>
<asrwt>0</asrwt>
<pdfrwt beam="1">  1       21 0.14510418E+00 0.67470136E+02</pdfrwt>
<pdfrwt beam="2">  1       21 0.21375764E-02 0.67470136E+02</pdfrwt>
<totfact> 0.37447028E+05</totfact>
</mgrwt>
</event>
<event>
 5    1  0.1994521E+000  0.7609514E+02  0.7546771E-02  0.1340513E+00
         21   -1    0    0  503  502  0.00000000000E+00  0.00000000000E+00  0.20993557174E+03  0.20993557174E+03  0.00000000000E+00 0. -1.
         21   -1    0    0  501  503 -0.00000000000E+00 -0.00000000000E+00 -0.67668238920E+02  0.67668238920E+02  0.00000000000E+00 0. -1.
         24    1    1    2    0    0 -0.15439530707E+02 -0.18301078689E+02  0.11388117952E+03  0.14145475458E+03  0.80419002446E+02 0. -1.
          1    1    1    2  501    0 -0.11784210509E+02  0.34600570534E+02 -0.43947700833E+02  0.57161766130E+02  0.00000000000E+00 0. -1.
         -2    1    1    2    0  502  0.27223741217E+02 -0.16299491844E+02  0.72333854135E+02  0.78987289953E+02  0.00000000000E+00 0.  1.
<mgrwt>
<rscale>  2 0.76095142E+02</rscale>
<asrwt>0</asrwt>
<pdfrwt beam="1">  1       21 0.32297780E-01 0.76095142E+02</pdfrwt>
<pdfrwt beam="2">  1       21 0.10410498E-01 0.76095142E+02</pdfrwt>
<totfact> 0.69818574E+05</totfact>
</mgrwt>
</event>
<event>
 5    1  0.1994521E+000  0.9921551E+02  0.7546771E-02  0.1281954E+00
         21   -1    0    0  501  502  0.00000000000E+00  0.00000000000E+00  0.40558781816E+02  0.40558781816E+02  0.00000000000E+00 0. -1.
         21   -1    0    0  502  503 -0.00000000000E+00 -0.00000000000E+00 -0.12895434795E+04  0.12895434795E+04  0.00000000000E+00 0.  1.
         24    1    1    2    0    0 -0.28311161335E+02 -0.65554327064E+01 -0.28323920544E+03  0.29586510272E+03  0.80419002446E+02 0. -1.
          1    1    1    2  501    0  0.67894043543E+02 -0.12429168053E+02 -0.15468915859E+01  0.69039685983E+02  0.00000000000E+00 0. -1.
         -2    1    1    2    0  503 -0.39582882208E+02  0.18984600760E+02 -0.96419860064E+03  0.96519747260E+03  0.00000000000E+00 0.  1.
<mgrwt>
<rscale>  2 0.99215505E+02</rscale>
<asrwt>0</asrwt>
<pdfrwt beam="1">  1       21 0.62398133E-02 0.99215505E+02</pdfrwt>
<pdfrwt beam="2">  1       21 0.19839128E+00 0.99215505E+02</pdfrwt>
<totfact> 0.27549028E+04</totfact>
</mgrwt>
</event>
<event>
 5    1  0.1994521E+000  0.7234059E+02  0.7546771E-02  0.1352310E+00
         21   -1    0    0  503  502  0.00000000000E+00  0.00000000000E+00  0.14308601637E+03  0.14308601637E+03  0.00000000000E+00 0. -1.
         21   -1    0    0  501  503 -0.00000000000E+00 -0.00000000000E+00 -0.53320286090E+02  0.53320286090E+02  0.00000000000E+00 0.  1.
         24    1    1    2    0    0 -0.11530265463E+01  0.44877237021E+01  0.42306482632E+02  0.90986392177E+02  0.80419002446E+02 0.  0.
          1    1    1    2  501    0  0.10943747848E+02 -0.32585483709E+02 -0.14016482535E+02  0.37121976620E+02  0.00000000000E+00 0. -1.
         -2    1    1    2    0  502 -0.97907213018E+01  0.28097760007E+02  0.61475730181E+02  0.68297933661E+02  0.00000000000E+00 0.  1.
<mgrwt>
<rscale>  2 0.72340593E+02</rscale>
<asrwt>0</asrwt>
<pdfrwt beam="1">  1       21 0.22013233E-01 0.72340593E+02</pdfrwt>
<pdfrwt beam="2">  1       21 0.82031210E-02 0.72340593E+02</pdfrwt>
<totfact> 0.21511048E+06</totfact>
</mgrwt>
</event>
<event>
 5    1  0.1994521E+000  0.6371605E+02  0.7546771E-02  0.1382867E+00
         21   -1    0    0  503  502  0.00000000000E+00  0.00000000000E+00  0.22563766180E+03  0.22563766180E+03  0.00000000000E+00 0. -1.
         21   -1    0    0  501  503 -0.00000000000E+00 -0.00000000000E+00 -0.21584225791E+02  0.21584225791E+02  0.00000000000E+00 0.  1.
         24    1    1    2    0    0  0.31850861431E+02 -0.37943605189E+01  0.12171692939E+03  0.14936901084E+03  0.80419002446E+02 0.  0.
          1    1    1    2  501    0 -0.14594664180E+02  0.14477000370E+02  0.10263066762E+02  0.22976472784E+02  0.00000000000E+00 0. -1.
         -2    1    1    2    0  502 -0.17256197251E+02 -0.10682639851E+02  0.72073439863E+02  0.74876403969E+02  0.00000000000E+00 0.  1.
<mgrwt>
<rscale>  2 0.63716053E+02</rscale>
<asrwt>0</asrwt>
<pdfrwt beam="1">  1       21 0.34713485E-01 0.63716053E+02</pdfrwt>
<pdfrwt beam="2">  1       21 0.33206503E-02 0.63716053E+02</pdfrwt>
<totfact> 0.40596950E+06</totfact>
</mgrwt>
</event>
<event>
 5    1  0.1994521E+000  0.7048800E+02  0.7546771E-02  0.1358441E+00
         21   -1    0    0  501  502  0.00000000000E+00  0.00000000000E+00  0.39263820711E+03  0.39263820711E+03  0.00000000000E+00 0. -1.
         21   -1    0    0  502  503 -0.00000000000E+00 -0.00000000000E+00 -0.33932556995E+02  0.33932556995E+02  0.00000000000E+00 0. -1.
         24    1    1    2    0    0  0.93771014189E+01 -0.17071544221E+02  0.13261753018E+03  0.15631376433E+03  0.80419002446E+02 0.  0.
          1    1    1    2  501    0 -0.27760732105E+02  0.25784559073E+02  0.24167595367E+03  0.24462781591E+03  0.00000000000E+00 0. -1.
         -2    1    1    2    0  503  0.18383630686E+02 -0.87130148513E+01 -0.15587833738E+02  0.25629183866E+02  0.00000000000E+00 0.  1.
<mgrwt>
<rscale>  2 0.70488003E+02</rscale>
<asrwt>0</asrwt>
<pdfrwt beam="1">  1       21 0.60405875E-01 0.70488003E+02</pdfrwt>
<pdfrwt beam="2">  1       21 0.52203937E-02 0.70488003E+02</pdfrwt>
<totfact> 0.64220084E+05</totfact>
</mgrwt>
</event>
<event>
 5    1  0.1994521E+000  0.1604613E+03  0.7546771E-02  0.1188177E+00
         21   -1    0    0  503  502  0.00000000000E+00  0.00000000000E+00  0.66739563870E+03  0.66739563870E+03  0.00000000000E+00 0.  1.
         21   -1    0    0  501  503 -0.00000000000E+00 -0.00000000000E+00 -0.71743993065E+02  0.71743993065E+02  0.00000000000E+00 0. -1.
         24    1    1    2    0    0  0.58363709780E+01 -0.25340212316E+02  0.59688222187E+02  0.10347023441E+03  0.80419002446E+02 0.  1.
          1    1    1    2  501    0 -0.75530063961E+02 -0.80047313051E+02  0.29862676331E+02  0.11403570637E+03  0.00000000000E+00 0. -1.
         -2    1    1    2    0  502  0.69693692983E+02  0.10538752537E+03  0.50610074712E+03  0.52163369099E+03  0.00000000000E+00 0.  1.
<mgrwt>
<rscale>  2 0.16046128E+03</rscale>
<asrwt>0</asrwt>
<pdfrwt beam="1">  1       21 0.10267625E+00 0.16046128E+03</pdfrwt>
<pdfrwt beam="2">  1       21 0.11037538E-01 0.16046128E+03</pdfrwt>
<totfact> 0.53391967E+04</totfact>
</mgrwt>
</event>
<event>
 5    1  0.1994521E+000  0.7065830E+02  0.7546771E-02  0.1357869E+00
         21   -1    0    0  501  502  0.00000000000E+00  0.00000000000E+00  0.50764410614E+03  0.50764410614E+03  0.00000000000E+00 0.  1.
         21   -1    0    0  502  503 -0.00000000000E+00 -0.00000000000E+00 -0.35451435123E+02  0.35451435123E+02  0.00000000000E+00 0. -1.
         24    1    1    2    0    0 -0.21020281437E+02 -0.24802716730E+02  0.34838735915E+03  0.35902366908E+03  0.80419002446E+02 0.  1.
          1    1    1    2  501    0  0.14236820273E+01  0.33217028800E+02  0.14807593428E+03  0.15176257835E+03  0.00000000000E+00 0. -1.
         -2    1    1    2    0  503  0.19596599410E+02 -0.84143120709E+01 -0.24270622414E+02  0.32309293839E+02  0.00000000000E+00 0.  1.
<mgrwt>
<rscale>  2 0.70658300E+02</rscale>
<asrwt>0</asrwt>
<pdfrwt beam="1">  1       21 0.78099088E-01 0.70658300E+02</pdfrwt>
<pdfrwt beam="2">  1       21 0.54540673E-02 0.70658300E+02</pdfrwt>
<totfact> 0.34522478E+05</totfact>
</mgrwt>
</event>
<event>
 5    1  0.1994521E+000  0.8114106E+02  0.7546771E-02  0.1325844E+00
         21   -1    0    0  503  502  0.00000000000E+00  0.00000000000E+00  0.22794619195E+03  0.22794619195E+03  0.00000000000E+00 0.  1.
         21   -1    0    0  501  503 -0.00000000000E+00 -0.00000000000E+00 -0.68072385840E+02  0.68072385840E+02  0.00000000000E+00 0.  1.
         24    1    1    2    0    0 -0.15508545168E+02 -0.30871064732E+02 -0.28083836481E+01  0.87570774714E+02  0.80419002446E+02 0.  1.
          1    1    1    2  501    0 -0.60359819274E+01 -0.19264361552E+02 -0.13316123597E+02  0.24184041256E+02  0.00000000000E+00 0. -1.
         -2    1    1    2    0  502  0.21544527096E+02  0.50135426285E+02  0.17599831336E+03  0.18426376182E+03  0.00000000000E+00 0.  1.
<mgrwt>
<rscale>  2 0.81141063E+02</rscale>
<asrwt>0</asrwt>
<pdfrwt beam="1">  1       21 0.35068645E-01 0.81141063E+02</pdfrwt>
<pdfrwt beam="2">  1       21 0.10472675E-01 0.81141063E+02</pdfrwt>
<totfact> 0.58998236E+05</totfact>
</mgrwt>
</event>
<event>
 5    1  0.1994521E+000  0.9536641E+02  0.7546771E-02  0.1290353E+00
         21   -1    0    0  503  502  0.00000000000E+00  0.00000000000E+00  0.60308112411E+03  0.60308112411E+03  0.00000000000E+00 0. -1.
         21   -1    0    0  501  503 -0.00000000000E+00 -0.00000000000E+00 -0.50259260662E+02  0.50259260662E+02  0.00000000000E+00 0. -1.
         24    1    1    2    0    0  0.56019716987E+02  0.35846073974E+02  0.49304521794E+03  0.50396820594E+03  0.80419002446E+02 0. -1.
          1    1    1    2  501    0 -0.40315828835E+02 -0.50689445627E+02 -0.19151594896E+02  0.67539392503E+02  0.00000000000E+00 0. -1.
         -2    1    1    2    0  502 -0.15703888151E+02  0.14843371654E+02  0.78928240403E+02  0.81832786328E+02  0.00000000000E+00 0.  1.
<mgrwt>
<rscale>  2 0.95366413E+02</rscale>
<asrwt>0</asrwt>
<pdfrwt beam="1">  1       21 0.92781706E-01 0.95366413E+02</pdfrwt>
<pdfrwt beam="2">  1       21 0.77321944E-02 0.95366413E+02</pdfrwt>
<totfact> 0.12958490E+05</totfact>
</mgrwt>
</event>
<event>
 5    1  0.1994521E+000  0.8892605E+02  0.7546771E-02  0.1305473E+00
         21   -1    0    0  501  502  0.00000000000E+00  0.00000000000E+00  0.28548940918E+03  0.28548940918E+03  0.00000000000E+00 0.  1.
         21   -1    0    0  502  503 -0.00000000000E+00 -0.00000000000E+00 -0.28676635241E+02  0.28676635241E+02  0.00000000000E+00 0. -1.
         24    1    1    2    0    0  0.42579483063E+02  0.21957320190E+02  0.13660001080E+03  0.16559563760E+03  0.80419002446E+02 0.  1.
          1    1    1    2  501    0 -0.57529030529E+02  0.18360054085E+00  0.98816826051E+02  0.11434329090E+03  0.00000000000E+00 0. -1.
         -2    1    1    2    0  503  0.14949547466E+02 -0.22140920731E+02  0.21395937081E+02  0.34227115915E+02  0.00000000000E+00 0.  1.
<mgrwt>
<rscale>  2 0.88926050E+02</rscale>
<asrwt>0</asrwt>
<pdfrwt beam="1">  1       21 0.43921446E-01 0.88926050E+02</pdfrwt>
<pdfrwt beam="2">  1       21 0.44117902E-02 0.88926050E+02</pdfrwt>
<totfact> 0.16355009E+06</totfact>
</mgrwt>
</event>
<event>
 5    1  0.1994521E+000  0.7217473E+02  0.7546771E-02  0.1352850E+00
         21   -1    0    0  501  502  0.00000000000E+00  0.00000000000E+00  0.16293290761E+03  0.16293290761E+03  0.00000000000E+00 0.  1.
         21   -1    0    0  502  503 -0.00000000000E+00 -0.00000000000E+00 -0.54950995780E+02  0.54950995780E+02  0.00000000000E+00 0.  1.
         24    1    1    2    0    0  0.15179248070E+02 -0.12648963644E+02  0.11764156170E+03  0.14386507167E+03  0.80419002446E+02 0.  1.
          1    1    1    2  501    0 -0.31942928655E+02  0.25126572581E+02  0.13499996131E+02  0.42824586820E+02  0.00000000000E+00 0. -1.
         -2    1    1    2    0  503  0.16763680585E+02 -0.12477608937E+02 -0.23159646005E+02  0.31194244896E+02  0.00000000000E+00 0.  1.
<mgrwt>
<rscale>  2 0.72174731E+02</rscale>
<asrwt>0</asrwt>
<pdfrwt beam="1">  1       21 0.25066601E-01 0.72174731E+02</pdfrwt>
<pdfrwt beam="2">  1       21 0.84539994E-02 0.72174731E+02</pdfrwt>
<totfact> 0.16075307E+06</totfact>
</mgrwt>
</event>
<event>
 5    1  0.1994521E+000  0.1035410E+03  0.7546771E-02  0.1273021E+00
         21   -1    0    0  503  502  0.00000000000E+00  0.00000000000E+00  0.87567479485E+02  0.87567479485E+02  0.00000000000E+00 0.  1.
         21   -1    0    0  501  503 -0.00000000000E+00 -0.00000000000E+00 -0.22053137234E+03  0.22053137234E+03  0.00000000000E+00 0. -1.
         24    1    1    2    0    0  0.62319915041E+01 -0.29810998005E+02  0.16228340680E+02  0.87510618303E+02  0.80419002446E+02 0.  0.
          1    1    1    2  501    0 -0.61164215686E+02  0.24544705580E+02 -0.15164752445E+03  0.16534955556E+03  0.00000000000E+00 0. -1.
         -2    1    1    2    0  502  0.54932224182E+02  0.52662924243E+01  0.24552909149E+01  0.55238677962E+02  0.00000000000E+00 0.  1.
<mgrwt>
<rscale>  2 0.10354104E+03</rscale>
<asrwt>0</asrwt>
<pdfrwt beam="1">  1       21 0.13471920E-01 0.10354104E+03</pdfrwt>
<pdfrwt beam="2">  1       21 0.33927903E-01 0.10354104E+03</pdfrwt>
<totfact> 0.40424505E+05</totfact>
</mgrwt>
</event>
<event>
 5    1  0.1994521E+000  0.1040497E+03  0.7546771E-02  0.1272003E+00
         21   -1    0    0  501  502  0.00000000000E+00  0.00000000000E+00  0.66834148179E+02  0.66834148179E+02  0.00000000000E+00 0.  1.
         21   -1    0    0  502  503 -0.00000000000E+00 -0.00000000000E+00 -0.23812521544E+03  0.23812521544E+03  0.00000000000E+00 0.  1.
         24    1    1    2    0    0  0.74046825891E+02 -0.48016632745E+02 -0.23641430732E+02  0.12171549879E+03  0.80419002446E+02 0.  1.
          1    1    1    2  501    0 -0.47084215292E+02  0.35545348724E+02 -0.39277913132E+02  0.70874181516E+02  0.00000000000E+00 0. -1.
         -2    1    1    2    0  503 -0.26962610599E+02  0.12471284022E+02 -0.10837172340E+03  0.11236968331E+03  0.00000000000E+00 0.  1.
<mgrwt>
<rscale>  2 0.10404973E+03</rscale>
<asrwt>0</asrwt>
<pdfrwt beam="1">  1       21 0.10282177E-01 0.10404973E+03</pdfrwt>
<pdfrwt beam="2">  1       21 0.36634649E-01 0.10404973E+03</pdfrwt>
<totfact> 0.55966049E+05</totfact>
</mgrwt>
</event>
<event>
 5    1  0.1994521E+000  0.6516394E+02  0.7546771E-02  0.1377356E+00
         21   -1    0    0  503  502  0.00000000000E+00  0.00000000000E+00  0.28828971036E+03  0.28828971036E+03  0.00000000000E+00 0.  1.
         21   -1    0    0  501  503 -0.00000000000E+00 -0.00000000000E+00 -0.28428173525E+02  0.28428173525E+02  0.00000000000E+00 0.  1.
         24    1    1    2    0    0  0.24582917062E+02  0.56675614069E+01  0.91873229683E+02  0.12467697201E+03  0.80419002446E+02 0.  1.
          1    1    1    2  501    0 -0.11960971783E+02 -0.22216506576E+02  0.26192630713E+01  0.25367273197E+02  0.00000000000E+00 0. -1.
         -2    1    1    2    0  502 -0.12621945279E+02  0.16548945169E+02  0.16536904408E+03  0.16667363867E+03  0.00000000000E+00 0.  1.
<mgrwt>
<rscale>  2 0.65163942E+02</rscale>
<asrwt>0</asrwt>
<pdfrwt beam="1">  1       21 0.44352261E-01 0.65163942E+02</pdfrwt>
<pdfrwt beam="2">  1       21 0.43735653E-02 0.65163942E+02</pdfrwt>
<totfact> 0.16086077E+06</totfact>
</mgrwt>
</event>
<event>
 5    1  0.1994521E+000  0.6343581E+02  0.7546771E-02  0.1383954E+00
         21   -1    0    0  503  502  0.00000000000E+00  0.00000000000E+00  0.47463629330E+02  0.47463629330E+02  0.00000000000E+00 0.  1.
         21   -1    0    0  501  503 -0.00000000000E+00 -0.00000000000E+00 -0.17582384018E+03  0.17582384018E+03  0.00000000000E+00 0.  1.
         24    1    1    2    0    0 -0.91870799080E+01  0.25404665657E+02 -0.12717915685E+03  0.15287757640E+03  0.80419002446E+02 0.  1.
          1    1    1    2  501    0 -0.10374273772E+02 -0.18650772917E+02 -0.28832608487E+02  0.35871941665E+02  0.00000000000E+00 0. -1.
         -2    1    1    2    0  502  0.19561353680E+02 -0.67538927401E+01  0.27651554483E+02  0.34537951449E+02  0.00000000000E+00 0.  1.
<mgrwt>
<rscale>  2 0.63435806E+02</rscale>
<asrwt>0</asrwt>
<pdfrwt beam="1">  1       21 0.73020969E-02 0.63435806E+02</pdfrwt>
<pdfrwt beam="2">  1       21 0.27049821E-01 0.63435806E+02</pdfrwt>
<totfact> 0.17770547E+06</totfact>
</mgrwt>
</event>
<event>
 5    1  0.1994521E+000  0.6897533E+02  0.7546771E-02  0.1363613E+00
         21   -1    0    0  503  502  0.00000000000E+00  0.00000000000E+00  0.22583471096E+02  0.22583471096E+02  0.00000000000E+00 0.  1.
         21   -1    0    0  501  503 -0.00000000000E+00 -0.00000000000E+00 -0.46474446891E+03  0.46474446891E+03  0.00000000000E+00 0. -1.
         24    1    1    2    0    0  0.21082863531E+02 -0.71006025185E+01 -0.10454057187E+03  0.13375669258E+03  0.80419002446E+02 0.  1.
          1    1    1    2  501    0 -0.32352013638E+02 -0.10149302944E+02 -0.32979059913E+03  0.33152903404E+03  0.00000000000E+00 0. -1.
         -2    1    1    2    0  502  0.11269150106E+02  0.17249905463E+02 -0.78298268117E+01  0.22042213375E+02  0.00000000000E+00 0.  1.
<mgrwt>
<rscale>  2 0.68975333E+02</rscale>
<asrwt>0</asrwt>
<pdfrwt beam="1">  1       21 0.34743802E-02 0.68975333E+02</pdfrwt>
<pdfrwt beam="2">  1       21 0.71499149E-01 0.68975333E+02</pdfrwt>
<totfact> 0.87603935E+05</totfact>
</mgrwt>
</event>
<event>
 5    1  0.2443263E+000  0.9221795E+02  0.7546771E-02  0.1297568E+00
         21   -1    0    0  503  502  0.00000000000E+00  0.00000000000E+00  0.62567439031E+03  0.62567439031E+03  0.00000000000E+00 0.  1.
         21   -1    0    0  501  503 -0.00000000000E+00 -0.00000000000E+00 -0.74549270849E+02  0.74549270849E+02  0.00000000000E+00 0. -1.
         24    1    1    2    0    0  0.31676319065E+00  0.64983899879E+02  0.46648147622E+03  0.47780246043E+03  0.80419002446E+02 0.  1.
          1    1    1    2  501    0  0.23599241931E+02 -0.40099827975E+02 -0.58743884293E+02  0.74938403807E+02  0.00000000000E+00 0. -1.
         -2    1    1    2    0  502 -0.23916005121E+02 -0.24884071903E+02  0.14338752753E+03  0.14748279692E+03  0.00000000000E+00 0.  1.
<mgrwt>
<rscale>  2 0.92217948E+02</rscale>
<asrwt>0</asrwt>
<pdfrwt beam="1">  1       21 0.96257595E-01 0.92217948E+02</pdfrwt>
<pdfrwt beam="2">  1       21 0.11469119E-01 0.92217948E+02</pdfrwt>
<totfact> 0.60395495E+04</totfact>
</mgrwt>
</event>
<event>
 5    1  0.1994521E+000  0.9006879E+02  0.7546771E-02  0.1302685E+00
         21   -1    0    0  503  502  0.00000000000E+00  0.00000000000E+00  0.70598198513E+01  0.70598198513E+01  0.00000000000E+00 0. -1.
         21   -1    0    0  501  503 -0.00000000000E+00 -0.00000000000E+00 -0.12237047354E+04  0.12237047354E+04  0.00000000000E+00 0.  1.
         24    1    1    2    0    0 -0.70478997959E+01  0.31885078749E+02 -0.55952889582E+03  0.56622092185E+03  0.80419002446E+02 0.  0.
          1    1    1    2  501    0  0.22762967322E+02  0.25302045807E+02 -0.35735330163E+03  0.35897037258E+03  0.00000000000E+00 0. -1.
         -2    1    1    2    0  502 -0.15715067526E+02 -0.57187124556E+02 -0.29976271807E+03  0.30557326078E+03  0.00000000000E+00 0.  1.
<mgrwt>
<rscale>  2 0.90068790E+02</rscale>
<asrwt>0</asrwt>
<pdfrwt beam="1">  1       21 0.10861247E-02 0.90068790E+02</pdfrwt>
<pdfrwt beam="2">  1       21 0.18826252E+00 0.90068790E+02</pdfrwt>
<totfact> 0.54700104E+05</totfact>
</mgrwt>
</event>
<event>
 5    1  0.1994521E+000  0.6617425E+02  0.7546771E-02  0.1373608E+00
         21   -1    0    0  503  502  0.00000000000E+00  0.00000000000E+00  0.38489695280E+03  0.38489695280E+03  0.00000000000E+00 0. -1.
         21   -1    0    0  501  503 -0.00000000000E+00 -0.00000000000E+00 -0.14961877364E+02  0.14961877364E+02  0.00000000000E+00 0.  1.
         24    1    1    2    0    0 -0.11541622706E+02 -0.66295880718E+01  0.19711580281E+03  0.21330498392E+03  0.80419002446E+02 0.  1.
          1    1    1    2  501    0  0.29172479138E+02 -0.51609192597E+01  0.29979057292E+02  0.42147508856E+02  0.00000000000E+00 0. -1.
         -2    1    1    2    0  502 -0.17630856432E+02  0.11790507332E+02  0.14284021533E+03  0.14440633739E+03  0.00000000000E+00 0.  1.
<mgrwt>
<rscale>  2 0.66174248E+02</rscale>
<asrwt>0</asrwt>
<pdfrwt beam="1">  1       21 0.59214908E-01 0.66174248E+02</pdfrwt>
<pdfrwt beam="2">  1       21 0.23018276E-02 0.66174248E+02</pdfrwt>
<totfact> 0.25259666E+06</totfact>
</mgrwt>
</event>
<event>
 5    1  0.1994521E+000  0.8298732E+02  0.7546771E-02  0.1320781E+00
         21   -1    0    0  501  502  0.00000000000E+00  0.00000000000E+00  0.12058414416E+03  0.12058414416E+03  0.00000000000E+00 0.  1.
         21   -1    0    0  502  503 -0.00000000000E+00 -0.00000000000E+00 -0.80211051238E+02  0.80211051238E+02  0.00000000000E+00 0. -1.
         24    1    1    2    0    0 -0.13400814817E+02 -0.47654452228E+02 -0.14783932590E+02  0.95584042979E+02  0.80419002446E+02 0.  1.
          1    1    1    2  501    0 -0.83257993495E+01  0.49066980177E+02  0.64542188591E+02  0.81502034249E+02  0.00000000000E+00 0. -1.
         -2    1    1    2    0  503  0.21726614166E+02 -0.14125279485E+01 -0.93851630794E+01  0.23709118169E+02  0.00000000000E+00 0.  1.
<mgrwt>
<rscale>  2 0.82987316E+02</rscale>
<asrwt>0</asrwt>
<pdfrwt beam="1">  1       21 0.18551407E-01 0.82987316E+02</pdfrwt>
<pdfrwt beam="2">  1       21 0.12340162E-01 0.82987316E+02</pdfrwt>
<totfact> 0.14606876E+06</totfact>
</mgrwt>
</event>
<event>
 5    1  0.1994521E+000  0.9566989E+02  0.7546771E-02  0.1289674E+00
         21   -1    0    0  503  502  0.00000000000E+00  0.00000000000E+00  0.12902129648E+03  0.12902129648E+03  0.00000000000E+00 0.  1.
         21   -1    0    0  501  503 -0.00000000000E+00 -0.00000000000E+00 -0.83574514882E+02  0.83574514882E+02  0.00000000000E+00 0. -1.
         24    1    1    2    0    0  0.57135459727E+01 -0.12126483476E+01  0.13360137612E+02  0.81730192432E+02  0.80419002446E+02 0.  0.
          1    1    1    2  501    0  0.43642859329E+02  0.30567379036E+02 -0.16355332631E+02  0.55736529646E+02  0.00000000000E+00 0. -1.
         -2    1    1    2    0  502 -0.49356405302E+02 -0.29354730688E+02  0.48441976618E+02  0.75129089285E+02  0.00000000000E+00 0.  1.
<mgrwt>
<rscale>  2 0.95669890E+02</rscale>
<asrwt>0</asrwt>
<pdfrwt beam="1">  1       21 0.19849430E-01 0.95669890E+02</pdfrwt>
<pdfrwt beam="2">  1       21 0.12857618E-01 0.95669890E+02</pdfrwt>
<totfact> 0.12060334E+06</totfact>
</mgrwt>
</event>
<event>
 5    1  0.2927255E+000  0.1540845E+03  0.7546771E-02  0.1195542E+00
         21   -1    0    0  503  502  0.00000000000E+00  0.00000000000E+00  0.41402295533E+03  0.41402295533E+03  0.00000000000E+00 0.  1.
         21   -1    0    0  501  503 -0.00000000000E+00 -0.00000000000E+00 -0.22474232155E+03  0.22474232155E+03  0.00000000000E+00 0. -1.
         24    1    1    2    0    0  0.25764675067E+02  0.70013384413E+01  0.15759736574E+02  0.86188296610E+02  0.80419002446E+02 0.  1.
          1    1    1    2  501    0  0.78288883301E+02  0.60898790505E+02 -0.16469798346E+03  0.19225825779E+03  0.00000000000E+00 0. -1.
         -2    1    1    2    0  502 -0.10405355837E+03 -0.67900128947E+02  0.33821888067E+03  0.36031872247E+03  0.00000000000E+00 0.  1.
<mgrwt>
<rscale>  2 0.15408448E+03</rscale>
<asrwt>0</asrwt>
<pdfrwt beam="1">  1       21 0.63695839E-01 0.15408448E+03</pdfrwt>
<pdfrwt beam="2">  1       21 0.34575742E-01 0.15408448E+03</pdfrwt>
<totfact> 0.18819985E+04</totfact>
</mgrwt>
</event>
<event>
 5    1  0.1994521E+000  0.7657953E+02  0.7546771E-02  0.1339048E+00
         21   -1    0    0  501  502  0.00000000000E+00  0.00000000000E+00  0.52786177364E+03  0.52786177364E+03  0.00000000000E+00 0. -1.
         21   -1    0    0  502  503 -0.00000000000E+00 -0.00000000000E+00 -0.11119810556E+02  0.11119810556E+02  0.00000000000E+00 0.  1.
         24    1    1    2    0    0 -0.19177651373E+02  0.66348950789E+01  0.28314171370E+03  0.29503940438E+03  0.80419002446E+02 0.  0.
          1    1    1    2  501    0 -0.10766941782E+01  0.29112568662E+02  0.10177747169E+03  0.10586479428E+03  0.00000000000E+00 0. -1.
         -2    1    1    2    0  503  0.20254345551E+02 -0.35747463741E+02  0.13182277769E+03  0.13807738553E+03  0.00000000000E+00 0.  1.
<mgrwt>
<rscale>  2 0.76579532E+02</rscale>
<asrwt>0</asrwt>
<pdfrwt beam="1">  1       21 0.81209484E-01 0.76579532E+02</pdfrwt>
<pdfrwt beam="2">  1       21 0.17107405E-02 0.76579532E+02</pdfrwt>
<totfact> 0.20741689E+06</totfact>
</mgrwt>
</event>
<event>
 5    1  0.1994521E+000  0.8425602E+02  0.7546771E-02  0.1317390E+00
         21   -1    0    0  501  502  0.00000000000E+00  0.00000000000E+00  0.19962408098E+03  0.19962408098E+03  0.00000000000E+00 0. -1.
         21   -1    0    0  502  503 -0.00000000000E+00 -0.00000000000E+00 -0.37400756005E+02  0.37400756005E+02  0.00000000000E+00 0.  1.
         24    1    1    2    0    0 -0.32142036228E+02 -0.55745506945E+01  0.57623408366E+02  0.10417225760E+03  0.80419002446E+02 0.  1.
          1    1    1    2  501    0  0.33460977484E+02 -0.30711471659E+02  0.62453762785E+02  0.77222431920E+02  0.00000000000E+00 0. -1.
         -2    1    1    2    0  503 -0.13189412563E+01  0.36286022353E+02  0.42146153822E+02  0.55630147458E+02  0.00000000000E+00 0.  1.
<mgrwt>
<rscale>  2 0.84256021E+02</rscale>
<asrwt>0</asrwt>
<pdfrwt beam="1">  1       21 0.30711396E-01 0.84256021E+02</pdfrwt>
<pdfrwt beam="2">  1       21 0.57539626E-02 0.84256021E+02</pdfrwt>
<totfact> 0.21120868E+06</totfact>
</mgrwt>
</event>
<event>
 5    1  0.1994521E+000  0.9414962E+02  0.7546771E-02  0.1293103E+00
         21   -1    0    0  501  502  0.00000000000E+00  0.00000000000E+00  0.10481789441E+03  0.10481789441E+03  0.00000000000E+00 0. -1.
         21   -1    0    0  502  503 -0.00000000000E+00 -0.00000000000E+00 -0.18205801864E+03  0.18205801864E+03  0.00000000000E+00 0.  1.
         24    1    1    2    0    0  0.92633447123E+01  0.54361082191E+02 -0.65138779637E+02  0.11726556775E+03  0.80419002446E+02 0.  0.
          1    1    1    2  501    0 -0.26498757371E+02 -0.65234287962E+02  0.61347151374E+02  0.93387201745E+02  0.00000000000E+00 0. -1.
         -2    1    1    2    0  503  0.17235412659E+02  0.10873205771E+02 -0.73448495970E+02  0.76223143555E+02  0.00000000000E+00 0.  1.
<mgrwt>
<rscale>  2 0.94149619E+02</rscale>
<asrwt>0</asrwt>
<pdfrwt beam="1">  1       21 0.16125830E-01 0.94149619E+02</pdfrwt>
<pdfrwt beam="2">  1       21 0.28008926E-01 0.94149619E+02</pdfrwt>
<totfact> 0.42398757E+05</totfact>
</mgrwt>
</event>
<event>
 5    1  0.1994521E+000  0.7994269E+02  0.7546771E-02  0.1329214E+00
         21   -1    0    0  503  502  0.00000000000E+00  0.00000000000E+00  0.50701047923E+03  0.50701047923E+03  0.00000000000E+00 0. -1.
         21   -1    0    0  501  503 -0.00000000000E+00 -0.00000000000E+00 -0.12704115466E+02  0.12704115466E+02  0.00000000000E+00 0. -1.
         24    1    1    2    0    0  0.38039159448E+02 -0.41598056760E+02  0.32245041629E+03  0.33707397244E+03  0.80419002446E+02 0. -1.
          1    1    1    2  501    0 -0.57988510212E+01  0.24515882149E+02  0.63960110799E+02  0.68742642691E+02  0.00000000000E+00 0. -1.
         -2    1    1    2    0  502 -0.32240308427E+02  0.17082174611E+02  0.10789583667E+03  0.11389797956E+03  0.00000000000E+00 0.  1.
<mgrwt>
<rscale>  2 0.79942692E+02</rscale>
<asrwt>0</asrwt>
<pdfrwt beam="1">  1       21 0.78001597E-01 0.79942692E+02</pdfrwt>
<pdfrwt beam="2">  1       21 0.19544797E-02 0.79942692E+02</pdfrwt>
<totfact> 0.18366272E+06</totfact>
</mgrwt>
</event>
<event>
 5    1  0.1994521E+000  0.8455385E+02  0.7546771E-02  0.1316603E+00
         21   -1    0    0  501  502  0.00000000000E+00  0.00000000000E+00  0.12286833683E+03  0.12286833683E+03  0.00000000000E+00 0. -1.
         21   -1    0    0  502  503 -0.00000000000E+00 -0.00000000000E+00 -0.15026971685E+03  0.15026971685E+03  0.00000000000E+00 0.  1.
         24    1    1    2    0    0  0.37522277278E+02 -0.24762462265E+02 -0.11737696122E+03  0.14921684828E+03  0.80419002446E+02 0.  1.
          1    1    1    2  501    0  0.92853485188E+01  0.28543238210E+02  0.62949929850E+02  0.69739714746E+02  0.00000000000E+00 0. -1.
         -2    1    1    2    0  503 -0.46807625796E+02 -0.37807759449E+01  0.27025651344E+02  0.54181490659E+02  0.00000000000E+00 0.  1.
<mgrwt>
<rscale>  2 0.84553848E+02</rscale>
<asrwt>0</asrwt>
<pdfrwt beam="1">  1       21 0.18902821E-01 0.84553848E+02</pdfrwt>
<pdfrwt beam="2">  1       21 0.23118418E-01 0.84553848E+02</pdfrwt>
<totfact> 0.45602711E+05</totfact>
</mgrwt>
</event>
<event>
 5    1  0.1994521E+000  0.9234711E+02  0.7546771E-02  0.1297265E+00
         21   -1    0    0  501  502  0.00000000000E+00  0.00000000000E+00  0.16871399106E+02  0.16871399106E+02  0.00000000000E+00 0.  1.
         21   -1    0    0  502  503 -0.00000000000E+00 -0.00000000000E+00 -0.61479625096E+03  0.61479625096E+03  0.00000000000E+00 0. -1.
         24    1    1    2    0    0 -0.21400899814E+02 -0.43584381539E+02 -0.40970166364E+03  0.42033351754E+03  0.80419002446E+02 0. -1.
          1    1    1    2  501    0  0.40651722523E+02 -0.25828258194E+01 -0.50948403466E+02  0.65230156746E+02  0.00000000000E+00 0. -1.
         -2    1    1    2    0  503 -0.19250822709E+02  0.46167207359E+02 -0.13727478475E+03  0.14610397578E+03  0.00000000000E+00 0.  1.
<mgrwt>
<rscale>  2 0.92347107E+02</rscale>
<asrwt>0</asrwt>
<pdfrwt beam="1">  1       21 0.25955999E-02 0.92347107E+02</pdfrwt>
<pdfrwt beam="2">  1       21 0.94584039E-01 0.92347107E+02</pdfrwt>
<totfact> 0.75875330E+05</totfact>
</mgrwt>
</event>
<event>
 5    1  0.1994521E+000  0.1057222E+03  0.7546771E-02  0.1268703E+00
         21   -1    0    0  503  502  0.00000000000E+00  0.00000000000E+00  0.31937438342E+03  0.31937438342E+03  0.00000000000E+00 0. -1.
         21   -1    0    0  501  503 -0.00000000000E+00 -0.00000000000E+00 -0.50771456726E+02  0.50771456726E+02  0.00000000000E+00 0. -1.
         24    1    1    2    0    0  0.56562425153E+02 -0.20951204290E+02  0.20277621809E+03  0.22632647101E+03  0.80419002446E+02 0. -1.
          1    1    1    2  501    0 -0.81793649052E+02  0.70139587643E+01  0.12279903546E+02  0.83007184472E+02  0.00000000000E+00 0. -1.
         -2    1    1    2    0  502  0.25231223899E+02  0.13937245526E+02  0.53546805059E+02  0.60812184670E+02  0.00000000000E+00 0.  1.
<mgrwt>
<rscale>  2 0.10572225E+03</rscale>
<asrwt>0</asrwt>
<pdfrwt beam="1">  1       21 0.49134519E-01 0.10572225E+03</pdfrwt>
<pdfrwt beam="2">  1       21 0.78109935E-02 0.10572225E+03</pdfrwt>
<totfact> 0.49959647E+05</totfact>
</mgrwt>
</event>
<event>
 5    1  0.1994521E+000  0.8068889E+02  0.7546771E-02  0.1327108E+00
         21   -1    0    0  501  502  0.00000000000E+00  0.00000000000E+00  0.51460090371E+02  0.51460090371E+02  0.00000000000E+00 0. -1.
         21   -1    0    0  502  503 -0.00000000000E+00 -0.00000000000E+00 -0.13645327917E+04  0.13645327917E+04  0.00000000000E+00 0.  1.
         24    1    1    2    0    0 -0.53513720020E+02 -0.11660946121E+02 -0.19772652822E+02  0.99286805008E+02  0.80419002446E+02 0. -1.
          1    1    1    2  501    0  0.27666243239E+02  0.22880933142E+02 -0.16357767168E+02  0.39452942389E+02  0.00000000000E+00 0. -1.
         -2    1    1    2    0  503  0.25847476780E+02 -0.11219987020E+02 -0.12769422813E+04  0.12772531347E+04  0.00000000000E+00 0.  1.
<mgrwt>
<rscale>  2 0.80688887E+02</rscale>
<asrwt>0</asrwt>
<pdfrwt beam="1">  1       21 0.79169374E-02 0.80688887E+02</pdfrwt>
<pdfrwt beam="2">  1       21 0.20992811E+00 0.80688887E+02</pdfrwt>
<totfact> 0.16078265E+04</totfact>
</mgrwt>
</event>
<event>
 5    1  0.1994521E+000  0.9467435E+02  0.7546771E-02  0.1291911E+00
         21   -1    0    0  501  502  0.00000000000E+00  0.00000000000E+00  0.12016014291E+03  0.12016014291E+03  0.00000000000E+00 0.  1.
         21   -1    0    0  502  503 -0.00000000000E+00 -0.00000000000E+00 -0.88070658513E+02  0.88070658513E+02  0.00000000000E+00 0. -1.
         24    1    1    2    0    0  0.37128283033E+00  0.40106744289E+01  0.13377396849E+01  0.80530918672E+02  0.80419002446E+02 0.  0.
          1    1    1    2  501    0 -0.53871051565E+02  0.66416803587E+01  0.45901249862E+02  0.71085349079E+02  0.00000000000E+00 0. -1.
         -2    1    1    2    0  503  0.53499768735E+02 -0.10652354788E+02 -0.15149505147E+02  0.56614533676E+02  0.00000000000E+00 0.  1.
<mgrwt>
<rscale>  2 0.94674347E+02</rscale>
<asrwt>0</asrwt>
<pdfrwt beam="1">  1       21 0.18486176E-01 0.94674347E+02</pdfrwt>
<pdfrwt beam="2">  1       21 0.13549332E-01 0.94674347E+02</pdfrwt>
<totfact> 0.12514265E+06</totfact>
</mgrwt>
</event>
<event>
 5    1  0.1994521E+000  0.7149653E+02  0.7546771E-02  0.1355077E+00
         21   -1    0    0  501  502  0.00000000000E+00  0.00000000000E+00  0.65085308256E+03  0.65085308256E+03  0.00000000000E+00 0. -1.
         21   -1    0    0  502  503 -0.00000000000E+00 -0.00000000000E+00 -0.11250151733E+03  0.11250151733E+03  0.00000000000E+00 0.  1.
         24    1    1    2    0    0 -0.33125357993E+02  0.15291771178E+02  0.12914737758E+03  0.15645251260E+03  0.80419002446E+02 0.  1.
          1    1    1    2  501    0  0.86730000099E+01 -0.26428921279E+02  0.50583804924E+03  0.50660225115E+03  0.00000000000E+00 0. -1.
         -2    1    1    2    0  503  0.24452357983E+02  0.11137150101E+02 -0.96633861597E+02  0.10029983614E+03  0.00000000000E+00 0.  1.
<mgrwt>
<rscale>  2 0.71496526E+02</rscale>
<asrwt>0</asrwt>
<pdfrwt beam="1">  1       21 0.10013124E+00 0.71496526E+02</pdfrwt>
<pdfrwt beam="2">  1       21 0.17307926E-01 0.71496526E+02</pdfrwt>
<totfact> 0.27143677E+04</totfact>
</mgrwt>
</event>
<event>
 5    1  0.1994521E+000  0.1947515E+03  0.7546771E-02  0.1154244E+00
         21   -1    0    0  501  502  0.00000000000E+00  0.00000000000E+00  0.59372244416E+03  0.59372244416E+03  0.00000000000E+00 0. -1.
         21   -1    0    0  502  503 -0.00000000000E+00 -0.00000000000E+00 -0.19671293447E+03  0.19671293447E+03  0.00000000000E+00 0. -1.
         24    1    1    2    0    0  0.17444216956E+03 -0.21710129871E+02 -0.55682221899E+02  0.20116939640E+03  0.80419002446E+02 0. -1.
          1    1    1    2  501    0 -0.15579746283E+03  0.48840970645E+02  0.50317245172E+03  0.52899981664E+03  0.00000000000E+00 0. -1.
         -2    1    1    2    0  503 -0.18644706727E+02 -0.27130840774E+02 -0.50480720133E+02  0.60266165592E+02  0.00000000000E+00 0.  1.
<mgrwt>
<rscale>  2 0.19475151E+03</rscale>
<asrwt>0</asrwt>
<pdfrwt beam="1">  1       21 0.91341914E-01 0.19475151E+03</pdfrwt>
<pdfrwt beam="2">  1       21 0.30263529E-01 0.19475151E+03</pdfrwt>
<totfact> 0.10619683E+04</totfact>
</mgrwt>
</event>
<event>
 5    1  0.1994521E+000  0.6936869E+02  0.7546771E-02  0.1362253E+00
         21   -1    0    0  503  502  0.00000000000E+00  0.00000000000E+00  0.49875998523E+02  0.49875998523E+02  0.00000000000E+00 0.  1.
         21   -1    0    0  501  503 -0.00000000000E+00 -0.00000000000E+00 -0.25054270998E+03  0.25054270998E+03  0.00000000000E+00 0.  1.
         24    1    1    2    0    0  0.33439977409E+02  0.31316880966E+02 -0.21526090934E+03  0.23431486117E+03  0.80419002446E+02 0.  1.
          1    1    1    2  501    0 -0.15042507597E+02 -0.18078105590E+02 -0.15694199447E+02  0.28273712753E+02  0.00000000000E+00 0. -1.
         -2    1    1    2    0  502 -0.18397469811E+02 -0.13238775376E+02  0.30288397333E+02  0.37830134574E+02  0.00000000000E+00 0.  1.
<mgrwt>
<rscale>  2 0.69368685E+02</rscale>
<asrwt>0</asrwt>
<pdfrwt beam="1">  1       21 0.76732305E-02 0.69368685E+02</pdfrwt>
<pdfrwt beam="2">  1       21 0.38545033E-01 0.69368685E+02</pdfrwt>
<totfact> 0.83401752E+05</totfact>
</mgrwt>
</event>
<event>
 5    1  0.1994521E+000  0.1106122E+03  0.7546771E-02  0.1259440E+00
         21   -1    0    0  501  502  0.00000000000E+00  0.00000000000E+00  0.18651343851E+03  0.18651343851E+03  0.00000000000E+00 0.  1.
         21   -1    0    0  502  503 -0.00000000000E+00 -0.00000000000E+00 -0.68693108829E+02  0.68693108829E+02  0.00000000000E+00 0.  1.
         24    1    1    2    0    0 -0.37326637779E+02  0.12079779643E+02  0.24274606590E+02  0.92712844005E+02  0.80419002446E+02 0.  1.
          1    1    1    2  501    0 -0.42540145381E+02 -0.27155508032E+02  0.46260088686E+02  0.68462262530E+02  0.00000000000E+00 0. -1.
         -2    1    1    2    0  503  0.79866783160E+02  0.15075728389E+02  0.47285634407E+02  0.94031440806E+02  0.00000000000E+00 0.  1.
<mgrwt>
<rscale>  2 0.11061221E+03</rscale>
<asrwt>0</asrwt>
<pdfrwt beam="1">  1       21 0.28694375E-01 0.11061221E+03</pdfrwt>
<pdfrwt beam="2">  1       21 0.10568171E-01 0.11061221E+03</pdfrwt>
<totfact> 0.85650683E+05</totfact>
</mgrwt>
</event>
<event>
 5    1  0.1994521E+000  0.1138886E+03  0.7546771E-02  0.1253534E+00
         21   -1    0    0  503  502  0.00000000000E+00  0.00000000000E+00  0.26328986527E+03  0.26328986527E+03  0.00000000000E+00 0.  1.
         21   -1    0    0  501  503 -0.00000000000E+00 -0.00000000000E+00 -0.14599449472E+03  0.14599449472E+03  0.00000000000E+00 0. -1.
         24    1    1    2    0    0 -0.43283173370E+02 -0.89771551171E+02  0.17082079081E+03  0.21349314515E+03  0.80419002446E+02 0.  1.
          1    1    1    2  501    0  0.13083120650E+02  0.30738566529E+02 -0.10605766988E+03  0.11119467999E+03  0.00000000000E+00 0. -1.
         -2    1    1    2    0  502  0.30200052720E+02  0.59032984642E+02  0.52532249618E+02  0.84596534858E+02  0.00000000000E+00 0.  1.
<mgrwt>
<rscale>  2 0.11388862E+03</rscale>
<asrwt>0</asrwt>
<pdfrwt beam="1">  1       21 0.40506133E-01 0.11388862E+03</pdfrwt>
<pdfrwt beam="2">  1       21 0.22460691E-01 0.11388862E+03</pdfrwt>
<totfact> 0.11227429E+05</totfact>
</mgrwt>
</event>
<event>
 5    1  0.1994521E+000  0.1024855E+03  0.7546771E-02  0.1275154E+00
         21   -1    0    0  503  502  0.00000000000E+00  0.00000000000E+00  0.24216486403E+03  0.24216486403E+03  0.00000000000E+00 0.  1.
         21   -1    0    0  501  503 -0.00000000000E+00 -0.00000000000E+00 -0.23507279742E+03  0.23507279742E+03  0.00000000000E+00 0. -1.
         24    1    1    2    0    0 -0.46462600452E+01 -0.77164812729E+02 -0.34261518669E+02  0.11669217485E+03  0.80419002446E+02 0.  1.
          1    1    1    2  501    0  0.27717555943E+02  0.29567328102E+02 -0.15343801096E+03  0.15870007248E+03  0.00000000000E+00 0. -1.
         -2    1    1    2    0  502 -0.23071295898E+02  0.47597484626E+02  0.19479159624E+03  0.20184541412E+03  0.00000000000E+00 0.  1.
<mgrwt>
<rscale>  2 0.10248554E+03</rscale>
<asrwt>0</asrwt>
<pdfrwt beam="1">  1       21 0.37256133E-01 0.10248554E+03</pdfrwt>
<pdfrwt beam="2">  1       21 0.36165045E-01 0.10248554E+03</pdfrwt>
<totfact> 0.53691595E+04</totfact>
</mgrwt>
</event>
<event>
 5    1  0.1994521E+000  0.1055598E+03  0.7546771E-02  0.1269021E+00
         21   -1    0    0  503  502  0.00000000000E+00  0.00000000000E+00  0.11372993694E+04  0.11372993694E+04  0.00000000000E+00 0.  1.
         21   -1    0    0  501  503 -0.00000000000E+00 -0.00000000000E+00 -0.10783951631E+03  0.10783951631E+03  0.00000000000E+00 0.  1.
         24    1    1    2    0    0 -0.87586513148E+02  0.61236273211E+01 -0.35932530854E+02  0.12436743474E+03  0.80419002446E+02 0.  1.
          1    1    1    2  501    0  0.45695426592E+02 -0.17034846942E+02 -0.54351149687E+01  0.49069323375E+02  0.00000000000E+00 0. -1.
         -2    1    1    2    0  502  0.41891086555E+02  0.10911219621E+02  0.10708274990E+04  0.10717021276E+04  0.00000000000E+00 0.  1.
<mgrwt>
<rscale>  2 0.10555982E+03</rscale>
<asrwt>0</asrwt>
<pdfrwt beam="1">  1       21 0.17496913E+00 0.10555982E+03</pdfrwt>
<pdfrwt beam="2">  1       21 0.16590696E-01 0.10555982E+03</pdfrwt>
<totfact> 0.70392670E+03</totfact>
</mgrwt>
</event>
<event>
 5    1  0.1994521E+000  0.7989243E+02  0.7546771E-02  0.1329357E+00
         21   -1    0    0  503  502  0.00000000000E+00  0.00000000000E+00  0.98005221003E+02  0.98005221003E+02  0.00000000000E+00 0. -1.
         21   -1    0    0  501  503 -0.00000000000E+00 -0.00000000000E+00 -0.68002773626E+02  0.68002773626E+02  0.00000000000E+00 0.  1.
         24    1    1    2    0    0 -0.30913703777E+02 -0.50408868802E+02  0.25268511662E+02  0.10296807647E+03  0.80419002446E+02 0. -1.
          1    1    1    2  501    0  0.65652608123E+01  0.19759701143E+02 -0.73381845449E+01  0.22077078412E+02  0.00000000000E+00 0. -1.
         -2    1    1    2    0  502  0.24348442964E+02  0.30649167659E+02  0.12072120260E+02  0.40962839752E+02  0.00000000000E+00 0.  1.
<mgrwt>
<rscale>  2 0.79892428E+02</rscale>
<asrwt>0</asrwt>
<pdfrwt beam="1">  1       21 0.15077726E-01 0.79892428E+02</pdfrwt>
<pdfrwt beam="2">  1       21 0.10461965E-01 0.79892428E+02</pdfrwt>
<totfact> 0.28218392E+06</totfact>
</mgrwt>
</event>
<event>
 5    1  0.1994521E+000  0.7434879E+02  0.7546771E-02  0.1345900E+00
         21   -1    0    0  501  502  0.00000000000E+00  0.00000000000E+00  0.43651393649E+03  0.43651393649E+03  0.00000000000E+00 0. -1.
         21   -1    0    0  502  503 -0.00000000000E+00 -0.00000000000E+00 -0.12924572570E+02  0.12924572570E+02  0.00000000000E+00 0. -1.
         24    1    1    2    0    0 -0.13974069952E+02 -0.19614713200E+02  0.26219596015E+03  0.27530700877E+03  0.80419002446E+02 0. -1.
          1    1    1    2  501    0  0.35759747042E+02  0.23263247420E+02  0.11725239397E+03  0.12477204046E+03  0.00000000000E+00 0. -1.
         -2    1    1    2    0  503 -0.21785677090E+02 -0.36485342206E+01  0.44141009793E+02  0.49359459821E+02  0.00000000000E+00 0.  1.
<mgrwt>
<rscale>  2 0.74348791E+02</rscale>
<asrwt>0</asrwt>
<pdfrwt beam="1">  1       21 0.67155979E-01 0.74348791E+02</pdfrwt>
<pdfrwt beam="2">  1       21 0.19883961E-02 0.74348791E+02</pdfrwt>
<totfact> 0.24621236E+06</totfact>
</mgrwt>
</event>
<event>
 5    1  0.1994521E+000  0.7612700E+02  0.7546771E-02  0.1340416E+00
         21   -1    0    0  501  502  0.00000000000E+00  0.00000000000E+00  0.48035999153E+03  0.48035999153E+03  0.00000000000E+00 0. -1.
         21   -1    0    0  502  503 -0.00000000000E+00 -0.00000000000E+00 -0.15368696005E+02  0.15368696005E+02  0.00000000000E+00 0.  1.
         24    1    1    2    0    0 -0.36218354516E+02  0.23956708561E+00  0.37428089677E+03  0.38453248528E+03  0.80419002446E+02 0. -1.
          1    1    1    2  501    0  0.12020268822E+02 -0.26041361008E+02  0.35703902652E+02  0.45797467291E+02  0.00000000000E+00 0. -1.
         -2    1    1    2    0  503  0.24198085694E+02  0.25801793922E+02  0.55006496101E+02  0.65398734958E+02  0.00000000000E+00 0.  1.
<mgrwt>
<rscale>  2 0.76127003E+02</rscale>
<asrwt>0</asrwt>
<pdfrwt beam="1">  1       21 0.73901526E-01 0.76127003E+02</pdfrwt>
<pdfrwt beam="2">  1       21 0.23644151E-02 0.76127003E+02</pdfrwt>
<totfact> 0.15216422E+06</totfact>
</mgrwt>
</event>
<event>
 5    1  0.1994521E+000  0.6562895E+02  0.7546771E-02  0.1375621E+00
         21   -1    0    0  503  502  0.00000000000E+00  0.00000000000E+00  0.75551036295E+01  0.75551036295E+01  0.00000000000E+00 0. -1.
         21   -1    0    0  501  503 -0.00000000000E+00 -0.00000000000E+00 -0.74914265488E+03  0.74914265488E+03  0.00000000000E+00 0.  1.
         24    1    1    2    0    0  0.97804905964E+01 -0.94112014249E+01 -0.42629778241E+03  0.43402908192E+03  0.80419002446E+02 0.  1.
          1    1    1    2  501    0 -0.50775482580E+01  0.29058703576E+02 -0.28331344952E+03  0.28484504635E+03  0.00000000000E+00 0. -1.
         -2    1    1    2    0  502 -0.47029423384E+01 -0.19647502151E+02 -0.31976319308E+02  0.37823630232E+02  0.00000000000E+00 0.  1.
<mgrwt>
<rscale>  2 0.65628947E+02</rscale>
<asrwt>0</asrwt>
<pdfrwt beam="1">  1       21 0.11623233E-02 0.65628947E+02</pdfrwt>
<pdfrwt beam="2">  1       21 0.11525275E+00 0.65628947E+02</pdfrwt>
<totfact> 0.17061796E+06</totfact>
</mgrwt>
</event>
<event>
 5    1  0.1994521E+000  0.1775230E+03  0.7546771E-02  0.1170222E+00
         21   -1    0    0  503  502  0.00000000000E+00  0.00000000000E+00  0.56784350467E+03  0.56784350467E+03  0.00000000000E+00 0. -1.
         21   -1    0    0  501  503 -0.00000000000E+00 -0.00000000000E+00 -0.74728461282E+02  0.74728461282E+02  0.00000000000E+00 0. -1.
         24    1    1    2    0    0 -0.14511489936E+03 -0.26695833619E+02  0.78753888403E+02  0.18558122869E+03  0.80419002446E+02 0. -1.
          1    1    1    2  501    0  0.15642401081E+03  0.47369323214E+02  0.31503493551E+03  0.35490750137E+03  0.00000000000E+00 0. -1.
         -2    1    1    2    0  502 -0.11309111444E+02 -0.20673489595E+02  0.99326219472E+02  0.10208323588E+03  0.00000000000E+00 0.  1.
<mgrwt>
<rscale>  2 0.17752297E+03</rscale>
<asrwt>0</asrwt>
<pdfrwt beam="1">  1       21 0.87360536E-01 0.17752297E+03</pdfrwt>
<pdfrwt beam="2">  1       21 0.11496687E-01 0.17752297E+03</pdfrwt>
<totfact> 0.71766906E+04</totfact>
</mgrwt>
</event>
<event>
 5    1  0.1994521E+000  0.1177918E+03  0.7546771E-02  0.1246785E+00
         21   -1    0    0  503  502  0.00000000000E+00  0.00000000000E+00  0.75934438649E+01  0.75934438649E+01  0.00000000000E+00 0. -1.
         21   -1    0    0  501  503 -0.00000000000E+00 -0.00000000000E+00 -0.18528854482E+04  0.18528854482E+04  0.00000000000E+00 0. -1.
         24    1    1    2    0    0 -0.93711811013E+02 -0.32487072990E+02 -0.96964748954E+03  0.97801880521E+03  0.80419002446E+02 0. -1.
          1    1    1    2  501    0  0.45689530665E+02 -0.63558208172E+01 -0.44988282892E+03  0.45224162726E+03  0.00000000000E+00 0. -1.
         -2    1    1    2    0  502  0.48022280349E+02  0.38842893807E+02 -0.42576168589E+03  0.43021845960E+03  0.00000000000E+00 0.  1.
<mgrwt>
<rscale>  2 0.11779182E+03</rscale>
<asrwt>0</asrwt>
<pdfrwt beam="1">  1       21 0.11682219E-02 0.11779182E+03</pdfrwt>
<pdfrwt beam="2">  1       21 0.28505936E+00 0.11779182E+03</pdfrwt>
<totfact> 0.13016528E+05</totfact>
</mgrwt>
</event>
<event>
 5    1  0.1994521E+000  0.1332895E+03  0.7546771E-02  0.1222655E+00
         21   -1    0    0  503  502  0.00000000000E+00  0.00000000000E+00  0.13841331391E+03  0.13841331391E+03  0.00000000000E+00 0.  1.
         21   -1    0    0  501  503 -0.00000000000E+00 -0.00000000000E+00 -0.17936448901E+03  0.17936448901E+03  0.00000000000E+00 0. -1.
         24    1    1    2    0    0  0.64058968633E+02  0.64449537222E+02  0.50927039256E+02  0.13159815193E+03  0.80419002446E+02 0.  1.
          1    1    1    2  501    0  0.55794230135E+01  0.28528519182E+02 -0.58483302884E+02  0.65309287885E+02  0.00000000000E+00 0. -1.
         -2    1    1    2    0  502 -0.69638391646E+02 -0.92978056403E+02 -0.33394911479E+02  0.12087036310E+03  0.00000000000E+00 0.  1.
<mgrwt>
<rscale>  2 0.13328955E+03</rscale>
<asrwt>0</asrwt>
<pdfrwt beam="1">  1       21 0.21294356E-01 0.13328955E+03</pdfrwt>
<pdfrwt beam="2">  1       21 0.27594537E-01 0.13328955E+03</pdfrwt>
<totfact> 0.26077316E+05</totfact>
</mgrwt>
</event>
<event>
 5    1  0.1994521E+000  0.7322797E+02  0.7546771E-02  0.1349448E+00
         21   -1    0    0  501  502  0.00000000000E+00  0.00000000000E+00  0.34989144123E+02  0.34989144123E+02  0.00000000000E+00 0.  1.
         21   -1    0    0  502  503 -0.00000000000E+00 -0.00000000000E+00 -0.27339938892E+03  0.27339938892E+03  0.00000000000E+00 0.  1.
         24    1    1    2    0    0  0.42957444222E+02 -0.15629260672E+02 -0.63136947863E+02  0.11199600860E+03  0.80419002446E+02 0.  1.
          1    1    1    2  501    0 -0.27496733458E+02 -0.52288310712E+01 -0.10989212024E+02  0.30069482971E+02  0.00000000000E+00 0. -1.
         -2    1    1    2    0  503 -0.15460710764E+02  0.20858091743E+02 -0.16428408491E+03  0.16632304147E+03  0.00000000000E+00 0.  1.
<mgrwt>
<rscale>  2 0.73227969E+02</rscale>
<asrwt>0</asrwt>
<pdfrwt beam="1">  1       21 0.53829452E-02 0.73227969E+02</pdfrwt>
<pdfrwt beam="2">  1       21 0.42061445E-01 0.73227969E+02</pdfrwt>
<totfact> 0.12742514E+06</totfact>
</mgrwt>
</event>
<event>
 5    1  0.1994521E+000  0.6582123E+02  0.7546771E-02  0.1374909E+00
         21   -1    0    0  501  502  0.00000000000E+00  0.00000000000E+00  0.46465260073E+03  0.46465260073E+03  0.00000000000E+00 0. -1.
         21   -1    0    0  502  503 -0.00000000000E+00 -0.00000000000E+00 -0.31084672169E+02  0.31084672169E+02  0.00000000000E+00 0. -1.
         24    1    1    2    0    0  0.98200541721E+01 -0.73628763204E+01  0.36379883092E+02  0.89114293241E+02  0.80419002446E+02 0. -1.
          1    1    1    2  501    0 -0.11620455914E+02 -0.19860000811E+02  0.35874859383E+03  0.35948575521E+03  0.00000000000E+00 0. -1.
         -2    1    1    2    0  503  0.18004017423E+01  0.27222877132E+02  0.38439451637E+02  0.47137224440E+02  0.00000000000E+00 0.  1.
<mgrwt>
<rscale>  2 0.65821234E+02</rscale>
<asrwt>0</asrwt>
<pdfrwt beam="1">  1       21 0.71485011E-01 0.65821234E+02</pdfrwt>
<pdfrwt beam="2">  1       21 0.47822576E-02 0.65821234E+02</pdfrwt>
<totfact> 0.51954756E+05</totfact>
</mgrwt>
</event>
<event>
 5    1  0.1994521E+000  0.6524974E+02  0.7546771E-02  0.1377035E+00
         21   -1    0    0  501  502  0.00000000000E+00  0.00000000000E+00  0.74588630765E+01  0.74588630765E+01  0.00000000000E+00 0. -1.
         21   -1    0    0  502  503 -0.00000000000E+00 -0.00000000000E+00 -0.65297815409E+03  0.65297815409E+03  0.00000000000E+00 0. -1.
         24    1    1    2    0    0  0.44499649970E+01 -0.60073264867E+01 -0.42876999979E+03  0.43631046152E+03  0.80419002446E+02 0. -1.
          1    1    1    2  501    0 -0.69269996313E+01  0.27367431014E+02 -0.65061546695E+02  0.70922242369E+02  0.00000000000E+00 0. -1.
         -2    1    1    2    0  503  0.24770346343E+01 -0.21360104528E+02 -0.15168774453E+03  0.15320431328E+03  0.00000000000E+00 0.  1.
<mgrwt>
<rscale>  2 0.65249736E+02</rscale>
<asrwt>0</asrwt>
<pdfrwt beam="1">  1       21 0.11475173E-02 0.65249736E+02</pdfrwt>
<pdfrwt beam="2">  1       21 0.10045818E+00 0.65249736E+02</pdfrwt>
<totfact> 0.23940562E+06</totfact>
</mgrwt>
</event>
<event>
 5    1  0.1994521E+000  0.7524371E+02  0.7546771E-02  0.1343118E+00
         21   -1    0    0  501  502  0.00000000000E+00  0.00000000000E+00  0.18515076104E+04  0.18515076104E+04  0.00000000000E+00 0. -1.
         21   -1    0    0  502  503 -0.00000000000E+00 -0.00000000000E+00 -0.10668606077E+02  0.10668606077E+02  0.00000000000E+00 0.  1.
         24    1    1    2    0    0 -0.25016686659E+02 -0.45049962235E+02  0.68013797397E+03  0.68681162868E+03  0.80419002446E+02 0.  0.
          1    1    1    2  501    0  0.12918799023E+01  0.21527447129E+02  0.11293283365E+04  0.11295342366E+04  0.00000000000E+00 0. -1.
         -2    1    1    2    0  503  0.23724806757E+02  0.23522515107E+02  0.31372693785E+02  0.45830351166E+02  0.00000000000E+00 0.  1.
<mgrwt>
<rscale>  2 0.75243711E+02</rscale>
<asrwt>0</asrwt>
<pdfrwt beam="1">  1       21 0.28484707E+00 0.75243711E+02</pdfrwt>
<pdfrwt beam="2">  1       21 0.16413255E-02 0.75243711E+02</pdfrwt>
<totfact> 0.80908485E+04</totfact>
</mgrwt>
</event>
<event>
 5    1  0.1994521E+000  0.8165178E+02  0.7546771E-02  0.1324428E+00
         21   -1    0    0  503  502  0.00000000000E+00  0.00000000000E+00  0.27893551841E+03  0.27893551841E+03  0.00000000000E+00 0.  1.
         21   -1    0    0  501  503 -0.00000000000E+00 -0.00000000000E+00 -0.75131129020E+02  0.75131129020E+02  0.00000000000E+00 0.  1.
         24    1    1    2    0    0 -0.18182247677E+02 -0.48861662557E+02  0.48755017950E+01  0.95963757068E+02  0.80419002446E+02 0.  1.
          1    1    1    2  501    0  0.31812163285E+02  0.27121200749E+02 -0.13653734868E+02  0.43977241146E+02  0.00000000000E+00 0. -1.
         -2    1    1    2    0  502 -0.13629915609E+02  0.21740461809E+02  0.21258262246E+03  0.21412564921E+03  0.00000000000E+00 0.  1.
<mgrwt>
<rscale>  2 0.81651776E+02</rscale>
<asrwt>0</asrwt>
<pdfrwt beam="1">  1       21 0.42913156E-01 0.81651776E+02</pdfrwt>
<pdfrwt beam="2">  1       21 0.11558635E-01 0.81651776E+02</pdfrwt>
<totfact> 0.33424935E+05</totfact>
</mgrwt>
</event>
<event>
 5    1  0.1994521E+000  0.8510642E+02  0.7546771E-02  0.1315154E+00
         21   -1    0    0  503  502  0.00000000000E+00  0.00000000000E+00  0.82016428044E+03  0.82016428044E+03  0.00000000000E+00 0. -1.
         21   -1    0    0  501  503 -0.00000000000E+00 -0.00000000000E+00 -0.17806265975E+02  0.17806265975E+02  0.00000000000E+00 0. -1.
         24    1    1    2    0    0 -0.24039718883E+02 -0.53912568177E+02  0.14798677735E+03  0.17847065674E+03  0.80419002446E+02 0. -1.
          1    1    1    2  501    0  0.34429718298E+02  0.36487730821E+02  0.27179383159E+03  0.27638496141E+03  0.00000000000E+00 0. -1.
         -2    1    1    2    0  502 -0.10389999415E+02  0.17424837356E+02  0.38257740552E+03  0.38311492827E+03  0.00000000000E+00 0.  1.
<mgrwt>
<rscale>  2 0.85106417E+02</rscale>
<asrwt>0</asrwt>
<pdfrwt beam="1">  1       21 0.12617909E+00 0.85106417E+02</pdfrwt>
<pdfrwt beam="2">  1       21 0.27394262E-02 0.85106417E+02</pdfrwt>
<totfact> 0.35291087E+05</totfact>
</mgrwt>
</event>
<event>
 5    1  0.1994521E+000  0.8021987E+02  0.7546771E-02  0.1328429E+00
         21   -1    0    0  501  502  0.00000000000E+00  0.00000000000E+00  0.22712932060E+04  0.22712932060E+04  0.00000000000E+00 0. -1.
         21   -1    0    0  502  503 -0.00000000000E+00 -0.00000000000E+00 -0.65406280718E+01  0.65406280718E+01  0.00000000000E+00 0.  1.
         24    1    1    2    0    0 -0.32250307173E+01  0.14618270514E+02  0.15709646486E+04  0.15730928891E+04  0.80419002446E+02 0.  0.
          1    1    1    2  501    0  0.23411658662E+02  0.24953097931E+02  0.59988964533E+03  0.60086466815E+03  0.00000000000E+00 0. -1.
         -2    1    1    2    0  503 -0.20186627945E+02 -0.39571368445E+02  0.93898284081E+02  0.10387627690E+03  0.00000000000E+00 0.  1.
<mgrwt>
<rscale>  2 0.80219867E+02</rscale>
<asrwt>0</asrwt>
<pdfrwt beam="1">  1       21 0.34942910E+00 0.80219867E+02</pdfrwt>
<pdfrwt beam="2">  1       21 0.10062523E-02 0.80219867E+02</pdfrwt>
<totfact> 0.76608896E+04</totfact>
</mgrwt>
</event>
<event>
 5    1  0.1994521E+000  0.7251257E+02  0.7546771E-02  0.1351752E+00
         21   -1    0    0  501  502  0.00000000000E+00  0.00000000000E+00  0.82309312505E+01  0.82309312505E+01  0.00000000000E+00 0.  1.
         21   -1    0    0  502  503 -0.00000000000E+00 -0.00000000000E+00 -0.67350767523E+03  0.67350767523E+03  0.00000000000E+00 0. -1.
         24    1    1    2    0    0 -0.10192401358E+02  0.15406298643E+01 -0.40323912743E+03  0.41130921267E+03  0.80419002446E+02 0.  0.
          1    1    1    2  501    0 -0.18447552108E+02 -0.22029874220E+02 -0.79674331294E+02  0.84697264442E+02  0.00000000000E+00 0. -1.
         -2    1    1    2    0  503  0.28639953466E+02  0.20489244356E+02 -0.18236328527E+03  0.18573212937E+03  0.00000000000E+00 0.  1.
<mgrwt>
<rscale>  2 0.72512566E+02</rscale>
<asrwt>0</asrwt>
<pdfrwt beam="1">  1       21 0.12662975E-02 0.72512566E+02</pdfrwt>
<pdfrwt beam="2">  1       21 0.10361653E+00 0.72512566E+02</pdfrwt>
<totfact> 0.19188754E+06</totfact>
</mgrwt>
</event>
<event>
 5    1  0.1994521E+000  0.8705751E+02  0.7546771E-02  0.1310138E+00
         21   -1    0    0  501  502  0.00000000000E+00  0.00000000000E+00  0.20040661150E+02  0.20040661150E+02  0.00000000000E+00 0. -1.
         21   -1    0    0  502  503 -0.00000000000E+00 -0.00000000000E+00 -0.19132709375E+04  0.19132709375E+04  0.00000000000E+00 0.  1.
         24    1    1    2    0    0 -0.23256981049E+02 -0.68760059681E+01 -0.20868849666E+03  0.22495837663E+03  0.80419002446E+02 0. -1.
          1    1    1    2  501    0  0.17186223295E+02  0.46737699901E+02 -0.41517520337E+02  0.64834276105E+02  0.00000000000E+00 0. -1.
         -2    1    1    2    0  503  0.60707577548E+01 -0.39861693933E+02 -0.16430242594E+04  0.16435189459E+04  0.00000000000E+00 0.  1.
<mgrwt>
<rscale>  2 0.87057511E+02</rscale>
<asrwt>0</asrwt>
<pdfrwt beam="1">  1       21 0.30831779E-02 0.87057511E+02</pdfrwt>
<pdfrwt beam="2">  1       21 0.29434944E+00 0.87057511E+02</pdfrwt>
<totfact> 0.25569633E+04</totfact>
</mgrwt>
</event>
<event>
 5    1  0.1994521E+000  0.7794387E+02  0.7546771E-02  0.1334990E+00
         21   -1    0    0  501  502  0.00000000000E+00  0.00000000000E+00  0.53134952612E+03  0.53134952612E+03  0.00000000000E+00 0. -1.
         21   -1    0    0  502  503 -0.00000000000E+00 -0.00000000000E+00 -0.23212468674E+02  0.23212468674E+02  0.00000000000E+00 0.  1.
         24    1    1    2    0    0 -0.18986537179E+02 -0.44168755482E+01  0.77065006255E+02  0.11307620672E+03  0.80419002446E+02 0.  1.
          1    1    1    2  501    0  0.20013804548E+02 -0.31439257571E+02  0.35951167415E+03  0.36143827016E+03  0.00000000000E+00 0. -1.
         -2    1    1    2    0  503 -0.10272673696E+01  0.35856133119E+02  0.71560377038E+02  0.80047517902E+02  0.00000000000E+00 0.  1.
<mgrwt>
<rscale>  2 0.77943874E+02</rscale>
<asrwt>0</asrwt>
<pdfrwt beam="1">  1       21 0.81746071E-01 0.77943874E+02</pdfrwt>
<pdfrwt beam="2">  1       21 0.35711494E-02 0.77943874E+02</pdfrwt>
<totfact> 0.62679871E+05</totfact>
</mgrwt>
</event>
<event>
 5    1  0.1994521E+000  0.8784247E+02  0.7546771E-02  0.1308162E+00
         21   -1    0    0  503  502  0.00000000000E+00  0.00000000000E+00  0.80543882423E+03  0.80543882423E+03  0.00000000000E+00 0. -1.
         21   -1    0    0  501  503 -0.00000000000E+00 -0.00000000000E+00 -0.38577619874E+02  0.38577619874E+02  0.00000000000E+00 0. -1.
         24    1    1    2    0    0  0.47519976653E+01  0.43115847368E+02  0.19343793067E+03  0.21393224804E+03  0.80419002446E+02 0. -1.
          1    1    1    2  501    0  0.11721663122E+02 -0.59757895380E+02  0.49158934666E+01  0.61094758000E+02  0.00000000000E+00 0. -1.
         -2    1    1    2    0  502 -0.16473660788E+02  0.16642048012E+02  0.56850738022E+03  0.56898943806E+03  0.00000000000E+00 0.  1.
<mgrwt>
<rscale>  2 0.87842466E+02</rscale>
<asrwt>0</asrwt>
<pdfrwt beam="1">  1       21 0.12391365E+00 0.87842466E+02</pdfrwt>
<pdfrwt beam="2">  1       21 0.59350190E-02 0.87842466E+02</pdfrwt>
<totfact> 0.10318335E+05</totfact>
</mgrwt>
</event>
<event>
 5    1  0.1994521E+000  0.1134450E+03  0.7546771E-02  0.1254320E+00
         21   -1    0    0  501  502  0.00000000000E+00  0.00000000000E+00  0.18845393216E+03  0.18845393216E+03  0.00000000000E+00 0.  1.
         21   -1    0    0  502  503 -0.00000000000E+00 -0.00000000000E+00 -0.75275916706E+02  0.75275916706E+02  0.00000000000E+00 0. -1.
         24    1    1    2    0    0  0.41410569162E+02  0.51635785549E+02  0.30561624301E+02  0.10854638834E+03  0.80419002446E+02 0. -1.
          1    1    1    2  501    0  0.81633333698E+01 -0.69547048588E+02  0.73811626084E+02  0.10174275465E+03  0.00000000000E+00 0. -1.
         -2    1    1    2    0  503 -0.49573902532E+02  0.17911263038E+02  0.88047650631E+01  0.53440705868E+02  0.00000000000E+00 0.  1.
<mgrwt>
<rscale>  2 0.11344505E+03</rscale>
<asrwt>0</asrwt>
<pdfrwt beam="1">  1       21 0.28992912E-01 0.11344505E+03</pdfrwt>
<pdfrwt beam="2">  1       21 0.11580910E-01 0.11344505E+03</pdfrwt>
<totfact> 0.71519625E+05</totfact>
</mgrwt>
</event>
<event>
 5    1  0.1994521E+000  0.8516425E+02  0.7546771E-02  0.1315004E+00
         21   -1    0    0  501  502  0.00000000000E+00  0.00000000000E+00  0.45105056242E+02  0.45105056242E+02  0.00000000000E+00 0.  1.
         21   -1    0    0  502  503 -0.00000000000E+00 -0.00000000000E+00 -0.36230380527E+03  0.36230380527E+03  0.00000000000E+00 0. -1.
         24    1    1    2    0    0  0.17342449838E+02 -0.33183626668E+02 -0.19886674012E+03  0.21775470127E+03  0.80419002446E+02 0.  0.
          1    1    1    2  501    0  0.28563191981E+02  0.10668223706E+02  0.23752238275E+02  0.38650171490E+02  0.00000000000E+00 0. -1.
         -2    1    1    2    0  503 -0.45905641819E+02  0.22515402962E+02 -0.14208424718E+03  0.15100398875E+03  0.00000000000E+00 0.  1.
<mgrwt>
<rscale>  2 0.85164250E+02</rscale>
<asrwt>0</asrwt>
<pdfrwt beam="1">  1       21 0.69392394E-02 0.85164250E+02</pdfrwt>
<pdfrwt beam="2">  1       21 0.55739047E-01 0.85164250E+02</pdfrwt>
<totfact> 0.47181357E+05</totfact>
</mgrwt>
</event>
<event>
 5    1  0.1994521E+000  0.6868486E+02  0.7546771E-02  0.1364623E+00
         21   -1    0    0  501  502  0.00000000000E+00  0.00000000000E+00  0.57707177498E+03  0.57707177498E+03  0.00000000000E+00 0.  1.
         21   -1    0    0  502  503 -0.00000000000E+00 -0.00000000000E+00 -0.20117524479E+02  0.20117524479E+02  0.00000000000E+00 0.  1.
         24    1    1    2    0    0  0.18214338835E+02 -0.17174093470E+02  0.48392293097E+03  0.49119785291E+03  0.80419002446E+02 0.  1.
          1    1    1    2  501    0 -0.22002573687E+02 -0.11081677517E+02  0.73458701911E+02  0.77479659988E+02  0.00000000000E+00 0. -1.
         -2    1    1    2    0  503  0.37882348514E+01  0.28255770987E+02 -0.42738238155E+00  0.28511786564E+02  0.00000000000E+00 0.  1.
<mgrwt>
<rscale>  2 0.68684861E+02</rscale>
<asrwt>0</asrwt>
<pdfrwt beam="1">  1       21 0.88780260E-01 0.68684861E+02</pdfrwt>
<pdfrwt beam="2">  1       21 0.30950042E-02 0.68684861E+02</pdfrwt>
<totfact> 0.65780824E+05</totfact>
</mgrwt>
</event>
<event>
 5    1  0.1994521E+000  0.6782991E+02  0.7546771E-02  0.1367632E+00
         21   -1    0    0  501  502  0.00000000000E+00  0.00000000000E+00  0.90592280449E+02  0.90592280449E+02  0.00000000000E+00 0.  1.
         21   -1    0    0  502  503 -0.00000000000E+00 -0.00000000000E+00 -0.69318133587E+02  0.69318133587E+02  0.00000000000E+00 0.  1.
         24    1    1    2    0    0  0.15424880235E+02  0.25238563146E+02  0.36347505013E+02  0.93076683842E+02  0.80419002446E+02 0.  1.
          1    1    1    2  501    0 -0.27286721438E+02 -0.69209935188E+01  0.13221396753E+02  0.31100975069E+02  0.00000000000E+00 0. -1.
         -2    1    1    2    0  503  0.11861841203E+02 -0.18317569627E+02 -0.28294754904E+02  0.35732755125E+02  0.00000000000E+00 0.  1.
<mgrwt>
<rscale>  2 0.67829913E+02</rscale>
<asrwt>0</asrwt>
<pdfrwt beam="1">  1       21 0.13937274E-01 0.67829913E+02</pdfrwt>
<pdfrwt beam="2">  1       21 0.10664328E-01 0.67829913E+02</pdfrwt>
<totfact> 0.31072273E+06</totfact>
</mgrwt>
</event>
<event>
 5    1  0.1994521E+000  0.8001270E+02  0.7546771E-02  0.1329015E+00
         21   -1    0    0  503  502  0.00000000000E+00  0.00000000000E+00  0.95070729327E+01  0.95070729327E+01  0.00000000000E+00 0. -1.
         21   -1    0    0  501  503 -0.00000000000E+00 -0.00000000000E+00 -0.69739198900E+03  0.69739198900E+03  0.00000000000E+00 0. -1.
         24    1    1    2    0    0 -0.10168472056E+01 -0.20646866719E+02 -0.31582564103E+03  0.32655838463E+03  0.80419002446E+02 0. -1.
          1    1    1    2  501    0  0.21565992360E+02  0.42089327749E+02 -0.26736287140E+03  0.27151336715E+03  0.00000000000E+00 0. -1.
         -2    1    1    2    0  502 -0.20549145155E+02 -0.21442461030E+02 -0.10469640363E+03  0.10882731015E+03  0.00000000000E+00 0.  1.
<mgrwt>
<rscale>  2 0.80012698E+02</rscale>
<asrwt>0</asrwt>
<pdfrwt beam="1">  1       21 0.14626265E-02 0.80012698E+02</pdfrwt>
<pdfrwt beam="2">  1       21 0.10729108E+00 0.80012698E+02</pdfrwt>
<totfact> 0.14141703E+06</totfact>
</mgrwt>
</event>
<event>
 5    1  0.1994521E+000  0.7326568E+02  0.7546771E-02  0.1349327E+00
         21   -1    0    0  501  502  0.00000000000E+00  0.00000000000E+00  0.31914898308E+03  0.31914898308E+03  0.00000000000E+00 0. -1.
         21   -1    0    0  502  503 -0.00000000000E+00 -0.00000000000E+00 -0.44235503217E+02  0.44235503217E+02  0.00000000000E+00 0.  1.
         24    1    1    2    0    0  0.10207612975E+02  0.20506644149E+01  0.76196986246E+02  0.11127262581E+03  0.80419002446E+02 0. -1.
          1    1    1    2  501    0 -0.23121474355E+02 -0.28086085294E+02  0.21550166609E+03  0.21855067799E+03  0.00000000000E+00 0. -1.
         -2    1    1    2    0  503  0.12913861380E+02  0.26035420879E+02 -0.16785172467E+02  0.33561182500E+02  0.00000000000E+00 0.  1.
<mgrwt>
<rscale>  2 0.73265677E+02</rscale>
<asrwt>0</asrwt>
<pdfrwt beam="1">  1       21 0.49099842E-01 0.73265677E+02</pdfrwt>
<pdfrwt beam="2">  1       21 0.68054622E-02 0.73265677E+02</pdfrwt>
<totfact> 0.63179084E+05</totfact>
</mgrwt>
</event>
<event>
 5    1  0.1994521E+000  0.6570508E+02  0.7546771E-02  0.1375339E+00
         21   -1    0    0  503  502  0.00000000000E+00  0.00000000000E+00  0.11205523632E+04  0.11205523632E+04  0.00000000000E+00 0.  1.
         21   -1    0    0  501  503 -0.00000000000E+00 -0.00000000000E+00 -0.14603571711E+02  0.14603571711E+02  0.00000000000E+00 0. -1.
         24    1    1    2    0    0  0.40843966472E+01 -0.73913491353E+00  0.16888370419E+03  0.18709930548E+03  0.80419002446E+02 0.  1.
          1    1    1    2  501    0  0.14815871966E+02  0.19342118168E+02  0.22679156912E+02  0.33286209690E+02  0.00000000000E+00 0. -1.
         -2    1    1    2    0  502 -0.18900268613E+02 -0.18602983255E+02  0.91438593041E+03  0.91477041976E+03  0.00000000000E+00 0.  1.
<mgrwt>
<rscale>  2 0.65705080E+02</rscale>
<asrwt>0</asrwt>
<pdfrwt beam="1">  1       21 0.17239260E+00 0.65705080E+02</pdfrwt>
<pdfrwt beam="2">  1       21 0.22467042E-02 0.65705080E+02</pdfrwt>
<totfact> 0.22288413E+05</totfact>
</mgrwt>
</event>
<event>
 5    1  0.1994521E+000  0.1065776E+03  0.7546771E-02  0.1267042E+00
         21   -1    0    0  503  502  0.00000000000E+00  0.00000000000E+00  0.17445164705E+03  0.17445164705E+03  0.00000000000E+00 0. -1.
         21   -1    0    0  501  503 -0.00000000000E+00 -0.00000000000E+00 -0.13198203333E+03  0.13198203333E+03  0.00000000000E+00 0. -1.
         24    1    1    2    0    0 -0.60991787370E+02  0.23851715265E+02 -0.76499151617E+02  0.12887295527E+03  0.80419002446E+02 0. -1.
          1    1    1    2  501    0  0.83560975571E+02 -0.23762928910E+02  0.40388717421E+02  0.95803767794E+02  0.00000000000E+00 0. -1.
         -2    1    1    2    0  502 -0.22569188201E+02 -0.88786354367E-01  0.78580047912E+02  0.81756957312E+02  0.00000000000E+00 0.  1.
<mgrwt>
<rscale>  2 0.10657760E+03</rscale>
<asrwt>0</asrwt>
<pdfrwt beam="1">  1       21 0.26838715E-01 0.10657760E+03</pdfrwt>
<pdfrwt beam="2">  1       21 0.20304928E-01 0.10657760E+03</pdfrwt>
<totfact> 0.30180709E+05</totfact>
</mgrwt>
</event>
<event>
 5    1  0.1994521E+000  0.9860394E+02  0.7546771E-02  0.1283259E+00
         21   -1    0    0  503  502  0.00000000000E+00  0.00000000000E+00  0.10093941481E+04  0.10093941481E+04  0.00000000000E+00 0. -1.
         21   -1    0    0  501  503 -0.00000000000E+00 -0.00000000000E+00 -0.20821627783E+02  0.20821627783E+02  0.00000000000E+00 0. -1.
         24    1    1    2    0    0  0.11238757473E+02  0.42900354166E+01  0.72273418802E+03  0.72729405096E+03  0.80419002446E+02 0. -1.
          1    1    1    2  501    0  0.51313530269E+02 -0.12476122874E+02  0.34364402230E+02  0.63005112263E+02  0.00000000000E+00 0. -1.
         -2    1    1    2    0  502 -0.62552287742E+02  0.81860874578E+01  0.23147393005E+03  0.23991661265E+03  0.00000000000E+00 0.  1.
<mgrwt>
<rscale>  2 0.98603942E+02</rscale>
<asrwt>0</asrwt>
<pdfrwt beam="1">  1       21 0.15529137E+00 0.98603942E+02</pdfrwt>
<pdfrwt beam="2">  1       21 0.32033281E-02 0.98603942E+02</pdfrwt>
<totfact> 0.16176871E+05</totfact>
</mgrwt>
</event>
<event>
 5    1  0.1994521E+000  0.9116832E+02  0.7546771E-02  0.1300047E+00
         21   -1    0    0  501  502  0.00000000000E+00  0.00000000000E+00  0.56125656555E+03  0.56125656555E+03  0.00000000000E+00 0. -1.
         21   -1    0    0  502  503 -0.00000000000E+00 -0.00000000000E+00 -0.33927625368E+02  0.33927625368E+02  0.00000000000E+00 0.  1.
         24    1    1    2    0    0 -0.28579224721E+02  0.58712725911E+02  0.17907428833E+03  0.20687864308E+03  0.80419002446E+02 0.  1.
          1    1    1    2  501    0 -0.11696759197E+02 -0.18079329337E+02  0.32632476806E+03  0.32703444861E+03  0.00000000000E+00 0. -1.
         -2    1    1    2    0  503  0.40275983918E+02 -0.40633396574E+02  0.21929883795E+02  0.61271099231E+02  0.00000000000E+00 0.  1.
<mgrwt>
<rscale>  2 0.91168323E+02</rscale>
<asrwt>0</asrwt>
<pdfrwt beam="1">  1       21 0.86347157E-01 0.91168323E+02</pdfrwt>
<pdfrwt beam="2">  1       21 0.52196351E-02 0.91168323E+02</pdfrwt>
<totfact> 0.29629410E+05</totfact>
</mgrwt>
</event>
<event>
 5    1  0.1994521E+000  0.9830789E+02  0.7546771E-02  0.1283895E+00
         21   -1    0    0  503  502  0.00000000000E+00  0.00000000000E+00  0.28677269416E+03  0.28677269416E+03  0.00000000000E+00 0. -1.
         21   -1    0    0  501  503 -0.00000000000E+00 -0.00000000000E+00 -0.65763098939E+02  0.65763098939E+02  0.00000000000E+00 0. -1.
         24    1    1    2    0    0  0.35754511123E+02 -0.65630239561E+02 -0.49642308957E+01  0.10989801160E+03  0.80419002446E+02 0. -1.
          1    1    1    2  501    0 -0.44022224438E+02  0.38549062133E+02  0.17210819822E+03  0.18178343800E+03  0.00000000000E+00 0. -1.
         -2    1    1    2    0  502  0.82677133150E+01  0.27081177429E+02  0.53865627890E+02  0.60854343496E+02  0.00000000000E+00 0.  1.
<mgrwt>
<rscale>  2 0.98307890E+02</rscale>
<asrwt>0</asrwt>
<pdfrwt beam="1">  1       21 0.44118875E-01 0.98307890E+02</pdfrwt>
<pdfrwt beam="2">  1       21 0.10117400E-01 0.98307890E+02</pdfrwt>
<totfact> 0.39799340E+05</totfact>
</mgrwt>
</event>
<event>
 5    1  0.1994521E+000  0.9564306E+02  0.7546771E-02  0.1289734E+00
         21   -1    0    0  501  502  0.00000000000E+00  0.00000000000E+00  0.44108353801E+03  0.44108353801E+03  0.00000000000E+00 0. -1.
         21   -1    0    0  502  503 -0.00000000000E+00 -0.00000000000E+00 -0.29490015977E+02  0.29490015977E+02  0.00000000000E+00 0.  1.
         24    1    1    2    0    0 -0.18098956830E+02  0.89103992452E+01  0.85140707832E+02  0.11884074864E+03  0.80419002446E+02 0.  0.
          1    1    1    2  501    0  0.54184675187E+02  0.24253422985E+02  0.27229476228E+03  0.27869094911E+03  0.00000000000E+00 0. -1.
         -2    1    1    2    0  503 -0.36085718357E+02 -0.33163822230E+02  0.54158051918E+02  0.73041856232E+02  0.00000000000E+00 0.  1.
<mgrwt>
<rscale>  2 0.95643060E+02</rscale>
<asrwt>0</asrwt>
<pdfrwt beam="1">  1       21 0.67859001E-01 0.95643060E+02</pdfrwt>
<pdfrwt beam="2">  1       21 0.45369258E-02 0.95643060E+02</pdfrwt>
<totfact> 0.63445398E+05</totfact>
</mgrwt>
</event>
<event>
 5    1  0.1994521E+000  0.1101212E+03  0.7546771E-02  0.1260346E+00
         21   -1    0    0  503  502  0.00000000000E+00  0.00000000000E+00  0.87270205097E+02  0.87270205097E+02  0.00000000000E+00 0. -1.
         21   -1    0    0  501  503 -0.00000000000E+00 -0.00000000000E+00 -0.20037774529E+03  0.20037774529E+03  0.00000000000E+00 0. -1.
         24    1    1    2    0    0  0.91501274003E+02  0.14327641867E+02 -0.47750966876E+01  0.12275089396E+03  0.80419002446E+02 0. -1.
          1    1    1    2  501    0 -0.76429317768E+02  0.51496385431E+00 -0.11882548803E+03  0.14128411944E+03  0.00000000000E+00 0. -1.
         -2    1    1    2    0  502 -0.15071956235E+02 -0.14842605721E+02  0.10493044524E+02  0.23612936978E+02  0.00000000000E+00 0.  1.
<mgrwt>
<rscale>  2 0.11012122E+03</rscale>
<asrwt>0</asrwt>
<pdfrwt beam="1">  1       21 0.13426186E-01 0.11012122E+03</pdfrwt>
<pdfrwt beam="2">  1       21 0.30827345E-01 0.11012122E+03</pdfrwt>
<totfact> 0.48937844E+05</totfact>
</mgrwt>
</event>
<event>
 5    1  0.1994521E+000  0.7569178E+02  0.7546771E-02  0.1341742E+00
         21   -1    0    0  501  502  0.00000000000E+00  0.00000000000E+00  0.35115463115E+03  0.35115463115E+03  0.00000000000E+00 0. -1.
         21   -1    0    0  502  503 -0.00000000000E+00 -0.00000000000E+00 -0.42980067892E+02  0.42980067892E+02  0.00000000000E+00 0.  1.
         24    1    1    2    0    0 -0.15541685072E+02 -0.36763129997E+02  0.74731574942E+02  0.11681222517E+03  0.80419002446E+02 0. -1.
          1    1    1    2  501    0 -0.81722416368E+01  0.36997559182E+02  0.24707852020E+03  0.24996679792E+03  0.00000000000E+00 0. -1.
         -2    1    1    2    0  503  0.23713926709E+02 -0.23442918536E+00 -0.13635531882E+02  0.27355675950E+02  0.00000000000E+00 0.  1.
<mgrwt>
<rscale>  2 0.75691784E+02</rscale>
<asrwt>0</asrwt>
<pdfrwt beam="1">  1       21 0.54023787E-01 0.75691784E+02</pdfrwt>
<pdfrwt beam="2">  1       21 0.66123184E-02 0.75691784E+02</pdfrwt>
<totfact> 0.54590110E+05</totfact>
</mgrwt>
</event>
<event>
 5    1  0.1994521E+000  0.7761611E+02  0.7546771E-02  0.1335956E+00
         21   -1    0    0  501  502  0.00000000000E+00  0.00000000000E+00  0.13270114999E+04  0.13270114999E+04  0.00000000000E+00 0.  1.
         21   -1    0    0  502  503 -0.00000000000E+00 -0.00000000000E+00 -0.10186740935E+02  0.10186740935E+02  0.00000000000E+00 0.  1.
         24    1    1    2    0    0  0.12507188248E+02  0.27233206924E+02  0.43927003532E+03  0.44757508555E+03  0.80419002446E+02 0.  0.
          1    1    1    2  501    0 -0.14588247760E+02 -0.47165631046E+02  0.86404442306E+03  0.86545374154E+03  0.00000000000E+00 0. -1.
         -2    1    1    2    0  503  0.20810595120E+01  0.19932424122E+02  0.13510300634E+02  0.24169413797E+02  0.00000000000E+00 0.  1.
<mgrwt>
<rscale>  2 0.77616112E+02</rscale>
<asrwt>0</asrwt>
<pdfrwt beam="1">  1       21 0.20415548E+00 0.77616112E+02</pdfrwt>
<pdfrwt beam="2">  1       21 0.15671920E-02 0.77616112E+02</pdfrwt>
<totfact> 0.24668020E+05</totfact>
</mgrwt>
</event>
<event>
 5    1  0.1994521E+000  0.8333055E+02  0.7546771E-02  0.1319857E+00
         21   -1    0    0  503  502  0.00000000000E+00  0.00000000000E+00  0.21588222450E+02  0.21588222450E+02  0.00000000000E+00 0.  1.
         21   -1    0    0  501  503 -0.00000000000E+00 -0.00000000000E+00 -0.34834199858E+03  0.34834199858E+03  0.00000000000E+00 0.  1.
         24    1    1    2    0    0  0.35662709970E+02  0.31079193680E+02 -0.22234933891E+03  0.24113106318E+03  0.80419002446E+02 0.  1.
          1    1    1    2  501    0 -0.13797803775E+02  0.16194546757E+02 -0.45120326126E+02  0.49884732769E+02  0.00000000000E+00 0. -1.
         -2    1    1    2    0  502 -0.21864906195E+02 -0.47273740437E+02 -0.59284111090E+02  0.78914425079E+02  0.00000000000E+00 0.  1.
<mgrwt>
<rscale>  2 0.83330552E+02</rscale>
<asrwt>0</asrwt>
<pdfrwt beam="1">  1       21 0.33212654E-02 0.83330552E+02</pdfrwt>
<pdfrwt beam="2">  1       21 0.53591071E-01 0.83330552E+02</pdfrwt>
<totfact> 0.17362891E+06</totfact>
</mgrwt>
</event>
<event>
 5    1  0.3632072E+000  0.7488681E+02  0.7546771E-02  0.1344222E+00
         21   -1    0    0  503  502  0.00000000000E+00  0.00000000000E+00  0.53601095520E+03  0.53601095520E+03  0.00000000000E+00 0. -1.
         21   -1    0    0  501  503 -0.00000000000E+00 -0.00000000000E+00 -0.22841966129E+03  0.22841966129E+03  0.00000000000E+00 0. -1.
         24    1    1    2    0    0  0.67647343147E+01  0.37339057732E+02  0.46589103452E+03  0.47430121112E+03  0.80419002446E+02 0. -1.
          1    1    1    2  501    0  0.20555823975E+02 -0.13502061568E+02 -0.21848588467E+03  0.21986570758E+03  0.00000000000E+00 0. -1.
         -2    1    1    2    0  502 -0.27320558290E+02 -0.23836996164E+02  0.60186144064E+02  0.70263697801E+02  0.00000000000E+00 0.  1.
<mgrwt>
<rscale>  2 0.74886807E+02</rscale>
<asrwt>0</asrwt>
<pdfrwt beam="1">  1       21 0.82463223E-01 0.74886807E+02</pdfrwt>
<pdfrwt beam="2">  1       21 0.35141487E-01 0.74886807E+02</pdfrwt>
<totfact> 0.11201426E+04</totfact>
</mgrwt>
</event>
<event>
 5    1  0.1994521E+000  0.1027508E+03  0.7546771E-02  0.1274615E+00
         21   -1    0    0  501  502  0.00000000000E+00  0.00000000000E+00  0.36718172142E+02  0.36718172142E+02  0.00000000000E+00 0.  1.
         21   -1    0    0  502  503 -0.00000000000E+00 -0.00000000000E+00 -0.50676669840E+03  0.50676669840E+03  0.00000000000E+00 0.  1.
         24    1    1    2    0    0  0.56521009417E+02  0.44405415467E+02 -0.82922318759E+02  0.13605069765E+03  0.80419002446E+02 0.  1.
          1    1    1    2  501    0 -0.48668713850E+02  0.37854873789E+01 -0.63244135404E+02  0.79892391912E+02  0.00000000000E+00 0. -1.
         -2    1    1    2    0  503 -0.78522955673E+01 -0.48190902846E+02 -0.32388207209E+03  0.32754178098E+03  0.00000000000E+00 0.  1.
<mgrwt>
<rscale>  2 0.10275085E+03</rscale>
<asrwt>0</asrwt>
<pdfrwt beam="1">  1       21 0.56489496E-02 0.10275085E+03</pdfrwt>
<pdfrwt beam="2">  1       21 0.77964107E-01 0.10275085E+03</pdfrwt>
<totfact> 0.32494416E+05</totfact>
</mgrwt>
</event>
<event>
 5    1  0.1994521E+000  0.7045146E+02  0.7546771E-02  0.1358565E+00
         21   -1    0    0  501  502  0.00000000000E+00  0.00000000000E+00  0.98117559479E+02  0.98117559479E+02  0.00000000000E+00 0.  1.
         21   -1    0    0  502  503 -0.00000000000E+00 -0.00000000000E+00 -0.68308859079E+02  0.68308859079E+02  0.00000000000E+00 0. -1.
         24    1    1    2    0    0  0.20672099879E+02  0.87292286641E+01 -0.87901051364E+01  0.83952468988E+02  0.80419002446E+02 0. -1.
          1    1    1    2  501    0 -0.86771016706E+01 -0.30959209479E+02  0.46026808707E+02  0.56144740312E+02  0.00000000000E+00 0. -1.
         -2    1    1    2    0  503 -0.11994998209E+02  0.22229980814E+02 -0.74280031707E+01  0.26329209258E+02  0.00000000000E+00 0.  1.
<mgrwt>
<rscale>  2 0.70451464E+02</rscale>
<asrwt>0</asrwt>
<pdfrwt beam="1">  1       21 0.15095009E-01 0.70451464E+02</pdfrwt>
<pdfrwt beam="2">  1       21 0.10509055E-01 0.70451464E+02</pdfrwt>
<totfact> 0.27744015E+06</totfact>
</mgrwt>
</event>
<event>
 5    1  0.1994521E+000  0.1470312E+03  0.7546771E-02  0.1204169E+00
         21   -1    0    0  501  502  0.00000000000E+00  0.00000000000E+00  0.34727297562E+03  0.34727297562E+03  0.00000000000E+00 0. -1.
         21   -1    0    0  502  503 -0.00000000000E+00 -0.00000000000E+00 -0.89604349714E+02  0.89604349714E+02  0.00000000000E+00 0. -1.
         24    1    1    2    0    0  0.13458950576E+03 -0.95761059713E+01  0.22172605240E+03  0.27172724400E+03  0.80419002446E+02 0. -1.
          1    1    1    2  501    0 -0.11153855548E+03 -0.11880602606E+01  0.62921669252E+02  0.12806794020E+03  0.00000000000E+00 0. -1.
         -2    1    1    2    0  503 -0.23050950275E+02  0.10764166232E+02 -0.26979095749E+02  0.37082141129E+02  0.00000000000E+00 0.  1.
<mgrwt>
<rscale>  2 0.14703125E+03</rscale>
<asrwt>0</asrwt>
<pdfrwt beam="1">  1       21 0.53426611E-01 0.14703125E+03</pdfrwt>
<pdfrwt beam="2">  1       21 0.13785285E-01 0.14703125E+03</pdfrwt>
<totfact> 0.15390044E+05</totfact>
</mgrwt>
</event>
<event>
 5    1  0.1994521E+000  0.7205601E+02  0.7546771E-02  0.1353238E+00
         21   -1    0    0  503  502  0.00000000000E+00  0.00000000000E+00  0.70902611340E+02  0.70902611340E+02  0.00000000000E+00 0.  1.
         21   -1    0    0  501  503 -0.00000000000E+00 -0.00000000000E+00 -0.75450543733E+02  0.75450543733E+02  0.00000000000E+00 0.  1.
         24    1    1    2    0    0 -0.95925477796E+01  0.40799139352E+02 -0.13514083087E+02  0.91686602842E+02  0.80419002446E+02 0.  1.
          1    1    1    2  501    0  0.20204949966E+02 -0.13940070803E+02  0.42692012600E+00  0.24550923362E+02  0.00000000000E+00 0. -1.
         -2    1    1    2    0  502 -0.10612402187E+02 -0.26859068549E+02  0.85392305668E+01  0.30115628869E+02  0.00000000000E+00 0.  1.
<mgrwt>
<rscale>  2 0.72056010E+02</rscale>
<asrwt>0</asrwt>
<pdfrwt beam="1">  1       21 0.10908094E-01 0.72056010E+02</pdfrwt>
<pdfrwt beam="2">  1       21 0.11607776E-01 0.72056010E+02</pdfrwt>
<totfact> 0.41318792E+06</totfact>
</mgrwt>
</event>
<event>
 5    1  0.1994521E+000  0.9222626E+02  0.7546771E-02  0.1297548E+00
         21   -1    0    0  501  502  0.00000000000E+00  0.00000000000E+00  0.55950173707E+03  0.55950173707E+03  0.00000000000E+00 0. -1.
         21   -1    0    0  502  503 -0.00000000000E+00 -0.00000000000E+00 -0.55739020204E+02  0.55739020204E+02  0.00000000000E+00 0.  1.
         24    1    1    2    0    0  0.15270097982E+02  0.54394119829E+01  0.21204335431E+03  0.22735954600E+03  0.80419002446E+02 0.  0.
          1    1    1    2  501    0  0.23970674444E+02 -0.42273105554E+02  0.32232502609E+03  0.32596783757E+03  0.00000000000E+00 0. -1.
         -2    1    1    2    0  503 -0.39240772426E+02  0.36833693572E+02 -0.30605663536E+02  0.61913373703E+02  0.00000000000E+00 0.  1.
<mgrwt>
<rscale>  2 0.92226263E+02</rscale>
<asrwt>0</asrwt>
<pdfrwt beam="1">  1       21 0.86077187E-01 0.92226263E+02</pdfrwt>
<pdfrwt beam="2">  1       21 0.85752343E-02 0.92226263E+02</pdfrwt>
<totfact> 0.12879940E+05</totfact>
</mgrwt>
</event>
<event>
 5    1  0.1994521E+000  0.9887677E+02  0.7546771E-02  0.1282676E+00
         21   -1    0    0  501  502  0.00000000000E+00  0.00000000000E+00  0.45605839642E+03  0.45605839642E+03  0.00000000000E+00 0. -1.
         21   -1    0    0  502  503 -0.00000000000E+00 -0.00000000000E+00 -0.36922564960E+02  0.36922564960E+02  0.00000000000E+00 0.  1.
         24    1    1    2    0    0 -0.54786319012E+02  0.61517903799E+02  0.73207815446E+02  0.13642797893E+03  0.80419002446E+02 0.  1.
          1    1    1    2  501    0  0.27620871495E+02 -0.35857634743E+02  0.23990077199E+03  0.24413328924E+03  0.00000000000E+00 0. -1.
         -2    1    1    2    0  503  0.27165447517E+02 -0.25660269056E+02  0.10602724402E+03  0.11241969321E+03  0.00000000000E+00 0.  1.
<mgrwt>
<rscale>  2 0.98876770E+02</rscale>
<asrwt>0</asrwt>
<pdfrwt beam="1">  1       21 0.70162826E-01 0.98876770E+02</pdfrwt>
<pdfrwt beam="2">  1       21 0.56803949E-02 0.98876770E+02</pdfrwt>
<totfact> 0.40561755E+05</totfact>
</mgrwt>
</event>
<event>
 5    1  0.1994521E+000  0.8708894E+02  0.7546771E-02  0.1310058E+00
         21   -1    0    0  501  502  0.00000000000E+00  0.00000000000E+00  0.24441548457E+03  0.24441548457E+03  0.00000000000E+00 0.  1.
         21   -1    0    0  502  503 -0.00000000000E+00 -0.00000000000E+00 -0.57450591675E+02  0.57450591675E+02  0.00000000000E+00 0. -1.
         24    1    1    2    0    0 -0.49778040774E+02  0.32148857791E+02  0.17152250221E+03  0.19849077338E+03  0.80419002446E+02 0.  1.
          1    1    1    2  501    0  0.24376361441E+02 -0.40734784801E+02  0.43627064177E+02  0.64473641270E+02  0.00000000000E+00 0. -1.
         -2    1    1    2    0  503  0.25401679333E+02  0.85859270100E+01 -0.28184673485E+02  0.38901661597E+02  0.00000000000E+00 0.  1.
<mgrwt>
<rscale>  2 0.87088942E+02</rscale>
<asrwt>0</asrwt>
<pdfrwt beam="1">  1       21 0.37602382E-01 0.87088942E+02</pdfrwt>
<pdfrwt beam="2">  1       21 0.88385527E-02 0.87088942E+02</pdfrwt>
<totfact> 0.69043397E+05</totfact>
</mgrwt>
</event>
<event>
 5    1  0.1994521E+000  0.7797539E+02  0.7546771E-02  0.1334897E+00
         21   -1    0    0  501  502  0.00000000000E+00  0.00000000000E+00  0.15556616379E+02  0.15556616379E+02  0.00000000000E+00 0.  1.
         21   -1    0    0  502  503 -0.00000000000E+00 -0.00000000000E+00 -0.99603216629E+03  0.99603216629E+03  0.00000000000E+00 0.  1.
         24    1    1    2    0    0 -0.45226949792E+02  0.32181003680E+02 -0.23751468204E+03  0.25682977656E+03  0.80419002446E+02 0.  1.
          1    1    1    2  501    0  0.31148928030E+02 -0.11472050783E+02 -0.42863099927E+02  0.54213549985E+02  0.00000000000E+00 0. -1.
         -2    1    1    2    0  503  0.14078021761E+02 -0.20708952897E+02 -0.70009776794E+03  0.70054545613E+03  0.00000000000E+00 0.  1.
<mgrwt>
<rscale>  2 0.77975390E+02</rscale>
<asrwt>0</asrwt>
<pdfrwt beam="1">  1       21 0.23933256E-02 0.77975390E+02</pdfrwt>
<pdfrwt beam="2">  1       21 0.15323572E+00 0.77975390E+02</pdfrwt>
<totfact> 0.27132376E+05</totfact>
</mgrwt>
</event>
<event>
 5    1  0.1994521E+000  0.1207679E+03  0.7546771E-02  0.1241836E+00
         21   -1    0    0  501  502  0.00000000000E+00  0.00000000000E+00  0.75701930384E+02  0.75701930384E+02  0.00000000000E+00 0. -1.
         21   -1    0    0  502  503 -0.00000000000E+00 -0.00000000000E+00 -0.20185381179E+03  0.20185381179E+03  0.00000000000E+00 0.  1.
         24    1    1    2    0    0  0.88620712743E+02 -0.11762383566E+02 -0.52808498960E+02  0.13133140489E+03  0.80419002446E+02 0.  1.
          1    1    1    2  501    0 -0.45966994371E+02  0.47163355558E+02 -0.18872672887E+02  0.68509302002E+02  0.00000000000E+00 0. -1.
         -2    1    1    2    0  503 -0.42653718372E+02 -0.35400971992E+02 -0.54470709564E+02  0.77715035285E+02  0.00000000000E+00 0.  1.
<mgrwt>
<rscale>  2 0.12076785E+03</rscale>
<asrwt>0</asrwt>
<pdfrwt beam="1">  1       21 0.11646451E-01 0.12076785E+03</pdfrwt>
<pdfrwt beam="2">  1       21 0.31054432E-01 0.12076785E+03</pdfrwt>
<totfact> 0.62042761E+05</totfact>
</mgrwt>
</event>
<event>
 5    1  0.1994521E+000  0.8424699E+02  0.7546771E-02  0.1317414E+00
         21   -1    0    0  503  502  0.00000000000E+00  0.00000000000E+00  0.22536618283E+03  0.22536618283E+03  0.00000000000E+00 0.  1.
         21   -1    0    0  501  503 -0.00000000000E+00 -0.00000000000E+00 -0.47231797649E+02  0.47231797649E+02  0.00000000000E+00 0.  1.
         24    1    1    2    0    0 -0.63682106044E+02 -0.63996756170E+01  0.74501850731E+02  0.12694135731E+03  0.80419002446E+02 0.  1.
          1    1    1    2  501    0  0.19510895998E+02 -0.49087237472E+01 -0.10542596883E+02  0.22713805945E+02  0.00000000000E+00 0. -1.
         -2    1    1    2    0  502  0.44171210046E+02  0.11308399364E+02  0.11417513133E+03  0.12294281723E+03  0.00000000000E+00 0.  1.
<mgrwt>
<rscale>  2 0.84246994E+02</rscale>
<asrwt>0</asrwt>
<pdfrwt beam="1">  1       21 0.34671720E-01 0.84246994E+02</pdfrwt>
<pdfrwt beam="2">  1       21 0.72664305E-02 0.84246994E+02</pdfrwt>
<totfact> 0.11288886E+06</totfact>
</mgrwt>
</event>
<event>
 5    1  0.1994521E+000  0.6717746E+02  0.7546771E-02  0.1369963E+00
         21   -1    0    0  503  502  0.00000000000E+00  0.00000000000E+00  0.66596688991E+03  0.66596688991E+03  0.00000000000E+00 0.  1.
         21   -1    0    0  501  503 -0.00000000000E+00 -0.00000000000E+00 -0.27707771194E+02  0.27707771194E+02  0.00000000000E+00 0. -1.
         24    1    1    2    0    0 -0.22518026576E+02 -0.85659059525E+01  0.32023792237E+03  0.33105887565E+03  0.80419002446E+02 0. -1.
          1    1    1    2  501    0  0.28117329401E+02 -0.10894890953E+02 -0.11647561112E+02  0.32325663819E+02  0.00000000000E+00 0. -1.
         -2    1    1    2    0  502 -0.55993028249E+01  0.19460796906E+02  0.32966875746E+03  0.33029012164E+03  0.00000000000E+00 0.  1.
<mgrwt>
<rscale>  2 0.67177459E+02</rscale>
<asrwt>0</asrwt>
<pdfrwt beam="1">  1       21 0.10245643E+00 0.67177459E+02</pdfrwt>
<pdfrwt beam="2">  1       21 0.42627345E-02 0.67177459E+02</pdfrwt>
<totfact> 0.28249842E+05</totfact>
</mgrwt>
</event>
<event>
 5    1  0.1994521E+000  0.1519364E+03  0.7546771E-02  0.1198114E+00
         21   -1    0    0  503  502  0.00000000000E+00  0.00000000000E+00  0.25746652837E+03  0.25746652837E+03  0.00000000000E+00 0.  1.
         21   -1    0    0  501  503 -0.00000000000E+00 -0.00000000000E+00 -0.14026346944E+03  0.14026346944E+03  0.00000000000E+00 0. -1.
         24    1    1    2    0    0  0.39250578025E+02 -0.50296765398E+02  0.62935836066E+02  0.12040975002E+03  0.80419002446E+02 0. -1.
          1    1    1    2  501    0  0.77128828417E+02  0.86459492886E+01 -0.68198317700E+02  0.10331804852E+03  0.00000000000E+00 0. -1.
         -2    1    1    2    0  502 -0.11637940644E+03  0.41650816110E+02  0.12246554056E+03  0.17400219927E+03  0.00000000000E+00 0.  1.
<mgrwt>
<rscale>  2 0.15193637E+03</rscale>
<asrwt>0</asrwt>
<pdfrwt beam="1">  1       21 0.39610235E-01 0.15193637E+03</pdfrwt>
<pdfrwt beam="2">  1       21 0.21578995E-01 0.15193637E+03</pdfrwt>
<totfact> 0.12477322E+05</totfact>
</mgrwt>
</event>
<event>
 5    1  0.1994521E+000  0.8238047E+02  0.7546771E-02  0.1322429E+00
         21   -1    0    0  501  502  0.00000000000E+00  0.00000000000E+00  0.68559478454E+02  0.68559478454E+02  0.00000000000E+00 0.  1.
         21   -1    0    0  502  503 -0.00000000000E+00 -0.00000000000E+00 -0.19731604536E+03  0.19731604536E+03  0.00000000000E+00 0.  1.
         24    1    1    2    0    0  0.62075043739E+02 -0.23187280020E+01 -0.13299806737E+02  0.10248311260E+03  0.80419002446E+02 0.  1.
          1    1    1    2  501    0 -0.39252351923E+02 -0.40206089749E+01  0.57663097329E+01  0.39876844860E+02  0.00000000000E+00 0. -1.
         -2    1    1    2    0  503 -0.22822691815E+02  0.63393369768E+01 -0.12122306990E+03  0.12351556635E+03  0.00000000000E+00 0.  1.
<mgrwt>
<rscale>  2 0.82380470E+02</rscale>
<asrwt>0</asrwt>
<pdfrwt beam="1">  1       21 0.10547612E-01 0.82380470E+02</pdfrwt>
<pdfrwt beam="2">  1       21 0.30356314E-01 0.82380470E+02</pdfrwt>
<totfact> 0.76919530E+05</totfact>
</mgrwt>
</event>
<event>
 5    1  0.1994521E+000  0.6859696E+02  0.7546771E-02  0.1364930E+00
         21   -1    0    0  503  502  0.00000000000E+00  0.00000000000E+00  0.16237420808E+03  0.16237420808E+03  0.00000000000E+00 0.  1.
         21   -1    0    0  501  503 -0.00000000000E+00 -0.00000000000E+00 -0.45895834104E+02  0.45895834104E+02  0.00000000000E+00 0. -1.
         24    1    1    2    0    0  0.22208684823E+02  0.18125337764E+02  0.52144462987E+02  0.10004006460E+03  0.80419002446E+02 0.  1.
          1    1    1    2  501    0 -0.22038834243E+02  0.96383333233E+01 -0.12088131823E+02  0.26920821217E+02  0.00000000000E+00 0. -1.
         -2    1    1    2    0  502 -0.16985058031E+00 -0.27763671087E+02  0.76422042814E+02  0.81309156368E+02  0.00000000000E+00 0.  1.
<mgrwt>
<rscale>  2 0.68596959E+02</rscale>
<asrwt>0</asrwt>
<pdfrwt beam="1">  1       21 0.24980647E-01 0.68596959E+02</pdfrwt>
<pdfrwt beam="2">  1       21 0.70608977E-02 0.68596959E+02</pdfrwt>
<totfact> 0.21889445E+06</totfact>
</mgrwt>
</event>
<event>
 5    1  0.1994521E+000  0.7102231E+02  0.7546771E-02  0.1356651E+00
         21   -1    0    0  501  502  0.00000000000E+00  0.00000000000E+00  0.34010438687E+03  0.34010438687E+03  0.00000000000E+00 0. -1.
         21   -1    0    0  502  503 -0.00000000000E+00 -0.00000000000E+00 -0.15436781519E+02  0.15436781519E+02  0.00000000000E+00 0.  1.
         24    1    1    2    0    0 -0.38925090686E+02  0.81018626414E+01  0.23329180253E+03  0.24994616209E+03  0.80419002446E+02 0.  0.
          1    1    1    2  501    0  0.16761152222E+02  0.13396038752E+02  0.45371439859E+02  0.50189218293E+02  0.00000000000E+00 0. -1.
         -2    1    1    2    0  503  0.22163938464E+02 -0.21497901393E+02  0.46004362964E+02  0.55405788003E+02  0.00000000000E+00 0.  1.
<mgrwt>
<rscale>  2 0.71022314E+02</rscale>
<asrwt>0</asrwt>
<pdfrwt beam="1">  1       21 0.52323746E-01 0.71022314E+02</pdfrwt>
<pdfrwt beam="2">  1       21 0.23748897E-02 0.71022314E+02</pdfrwt>
<totfact> 0.31116363E+06</totfact>
</mgrwt>
</event>
<event>
 5    1  0.1994521E+000  0.7390879E+02  0.7546771E-02  0.1347284E+00
         21   -1    0    0  501  502  0.00000000000E+00  0.00000000000E+00  0.35662672325E+03  0.35662672325E+03  0.00000000000E+00 0. -1.
         21   -1    0    0  502  503 -0.00000000000E+00 -0.00000000000E+00 -0.18726517253E+02  0.18726517253E+02  0.00000000000E+00 0. -1.
         24    1    1    2    0    0  0.35681201194E+02  0.37701527237E+02  0.14298503460E+03  0.17206536360E+03  0.80419002446E+02 0. -1.
          1    1    1    2  501    0 -0.16967750168E+02 -0.14714558149E+02  0.12999715705E+03  0.13192302152E+03  0.00000000000E+00 0. -1.
         -2    1    1    2    0  503 -0.18713451027E+02 -0.22986969088E+02  0.64918014348E+02  0.71364855384E+02  0.00000000000E+00 0.  1.
<mgrwt>
<rscale>  2 0.73908788E+02</rscale>
<asrwt>0</asrwt>
<pdfrwt beam="1">  1       21 0.54865644E-01 0.73908788E+02</pdfrwt>
<pdfrwt beam="2">  1       21 0.28810029E-02 0.73908788E+02</pdfrwt>
<totfact> 0.20740942E+06</totfact>
</mgrwt>
</event>
<event>
 5    1  0.1994521E+000  0.1958933E+03  0.7546771E-02  0.1153251E+00
         21   -1    0    0  501  502  0.00000000000E+00  0.00000000000E+00  0.58686486681E+03  0.58686486681E+03  0.00000000000E+00 0. -1.
         21   -1    0    0  502  503 -0.00000000000E+00 -0.00000000000E+00 -0.13379794854E+03  0.13379794854E+03  0.00000000000E+00 0.  1.
         24    1    1    2    0    0 -0.66101514182E+02  0.69053301988E+02  0.15095521176E+03  0.19593994132E+03  0.80419002446E+02 0. -1.
          1    1    1    2  501    0  0.16193485354E+03 -0.44503420073E+02  0.36892214634E+03  0.40534800018E+03  0.00000000000E+00 0. -1.
         -2    1    1    2    0  503 -0.95833339355E+02 -0.24549881915E+02 -0.66810439838E+02  0.11937487384E+03  0.00000000000E+00 0.  1.
<mgrwt>
<rscale>  2 0.19589331E+03</rscale>
<asrwt>0</asrwt>
<pdfrwt beam="1">  1       21 0.90286901E-01 0.19589331E+03</pdfrwt>
<pdfrwt beam="2">  1       21 0.20584300E-01 0.19589331E+03</pdfrwt>
<totfact> 0.22766627E+04</totfact>
</mgrwt>
</event>
<event>
 5    1  0.1994521E+000  0.1478638E+03  0.7546771E-02  0.1203123E+00
         21   -1    0    0  501  502  0.00000000000E+00  0.00000000000E+00  0.22310921714E+02  0.22310921714E+02  0.00000000000E+00 0. -1.
         21   -1    0    0  502  503 -0.00000000000E+00 -0.00000000000E+00 -0.18848229261E+04  0.18848229261E+04  0.00000000000E+00 0. -1.
         24    1    1    2    0    0 -0.11522314592E+03  0.68922926905E+02 -0.56442612712E+03  0.58572247024E+03  0.80419002446E+02 0. -1.
          1    1    1    2  501    0  0.82960544803E+02 -0.67459644827E+02 -0.23894783435E+03  0.26178105969E+03  0.00000000000E+00 0. -1.
         -2    1    1    2    0  503  0.32262601117E+02 -0.14632820773E+01 -0.10591380429E+04  0.10596303178E+04  0.00000000000E+00 0.  1.
<mgrwt>
<rscale>  2 0.14786382E+03</rscale>
<asrwt>0</asrwt>
<pdfrwt beam="1">  1       21 0.34324495E-02 0.14786382E+03</pdfrwt>
<pdfrwt beam="2">  1       21 0.28997276E+00 0.14786382E+03</pdfrwt>
<totfact> 0.20694466E+04</totfact>
</mgrwt>
</event>
<event>
 5    1  0.1994521E+000  0.7635059E+02  0.7546771E-02  0.1339739E+00
         21   -1    0    0  503  502  0.00000000000E+00  0.00000000000E+00  0.48569030484E+02  0.48569030484E+02  0.00000000000E+00 0. -1.
         21   -1    0    0  501  503 -0.00000000000E+00 -0.00000000000E+00 -0.40553891656E+03  0.40553891656E+03  0.00000000000E+00 0.  1.
         24    1    1    2    0    0  0.11820336121E+02  0.24272889267E+02 -0.36846443949E+03  0.37810336236E+03  0.80419002446E+02 0.  1.
          1    1    1    2  501    0 -0.27971052258E+02 -0.37647884339E+02 -0.77560905074E+01  0.47538404470E+02  0.00000000000E+00 0. -1.
         -2    1    1    2    0  502  0.16150716136E+02  0.13374995072E+02  0.19250643923E+02  0.28466180221E+02  0.00000000000E+00 0.  1.
<mgrwt>
<rscale>  2 0.76350594E+02</rscale>
<asrwt>0</asrwt>
<pdfrwt beam="1">  1       21 0.74721586E-02 0.76350594E+02</pdfrwt>
<pdfrwt beam="2">  1       21 0.62390602E-01 0.76350594E+02</pdfrwt>
<totfact> 0.32923595E+05</totfact>
</mgrwt>
</event>
<event>
 5    1  0.1994521E+000  0.1054007E+03  0.7546771E-02  0.1269332E+00
         21   -1    0    0  503  502  0.00000000000E+00  0.00000000000E+00  0.26591936148E+02  0.26591936148E+02  0.00000000000E+00 0.  1.
         21   -1    0    0  501  503 -0.00000000000E+00 -0.00000000000E+00 -0.52691566099E+03  0.52691566099E+03  0.00000000000E+00 0. -1.
         24    1    1    2    0    0  0.19880308396E+02  0.15728304658E+02 -0.88699248246E+02  0.12238210173E+03  0.80419002446E+02 0.  0.
          1    1    1    2  501    0  0.41503108409E+02  0.28913523605E+02 -0.20016253589E+03  0.20645469388E+03  0.00000000000E+00 0. -1.
         -2    1    1    2    0  502 -0.61383416804E+02 -0.44641828264E+02 -0.21146194071E+03  0.22467080153E+03  0.00000000000E+00 0.  1.
<mgrwt>
<rscale>  2 0.10540071E+03</rscale>
<asrwt>0</asrwt>
<pdfrwt beam="1">  1       21 0.40910674E-02 0.10540071E+03</pdfrwt>
<pdfrwt beam="2">  1       21 0.81063943E-01 0.10540071E+03</pdfrwt>
<totfact> 0.51021210E+05</totfact>
</mgrwt>
</event>
<event>
 5    1  0.1994521E+000  0.7078368E+02  0.7546771E-02  0.1357448E+00
         21   -1    0    0  501  502  0.00000000000E+00  0.00000000000E+00  0.74146414338E+03  0.74146414338E+03  0.00000000000E+00 0. -1.
         21   -1    0    0  502  503 -0.00000000000E+00 -0.00000000000E+00 -0.18152855130E+02  0.18152855130E+02  0.00000000000E+00 0.  1.
         24    1    1    2    0    0 -0.95538510620E+00  0.21199303022E+02  0.12105756837E+03  0.14687570944E+03  0.80419002446E+02 0.  0.
          1    1    1    2  501    0 -0.17062145846E+02  0.11836550614E+02  0.53710259413E+03  0.53750387661E+03  0.00000000000E+00 0. -1.
         -2    1    1    2    0  503  0.18017530953E+02 -0.33035853635E+02  0.65151125754E+02  0.75237412462E+02  0.00000000000E+00 0.  1.
<mgrwt>
<rscale>  2 0.70783682E+02</rscale>
<asrwt>0</asrwt>
<pdfrwt beam="1">  1       21 0.11407138E+00 0.70783682E+02</pdfrwt>
<pdfrwt beam="2">  1       21 0.27927475E-02 0.70783682E+02</pdfrwt>
<totfact> 0.43684257E+05</totfact>
</mgrwt>
</event>
<event>
 5    1  0.2144517E+000  0.1187937E+03  0.7546771E-02  0.1245100E+00
         21   -1    0    0  503  502  0.00000000000E+00  0.00000000000E+00  0.24099707830E+03  0.24099707830E+03  0.00000000000E+00 0.  1.
         21   -1    0    0  501  503 -0.00000000000E+00 -0.00000000000E+00 -0.20147778947E+03  0.20147778947E+03  0.00000000000E+00 0. -1.
         24    1    1    2    0    0 -0.36236528167E+02  0.57223606302E+02  0.60475275107E+02  0.12129345384E+03  0.80419002446E+02 0. -1.
          1    1    1    2  501    0  0.60528315465E+02 -0.79204650580E+02 -0.15439516968E+03  0.18377954747E+03  0.00000000000E+00 0. -1.
         -2    1    1    2    0  502 -0.24291787298E+02  0.21981044278E+02  0.13343918340E+03  0.13740186645E+03  0.00000000000E+00 0.  1.
<mgrwt>
<rscale>  2 0.11879370E+03</rscale>
<asrwt>0</asrwt>
<pdfrwt beam="1">  1       21 0.37076474E-01 0.11879370E+03</pdfrwt>
<pdfrwt beam="2">  1       21 0.30996583E-01 0.11879370E+03</pdfrwt>
<totfact> 0.72488462E+04</totfact>
</mgrwt>
</event>
<event>
 5    1  0.1994521E+000  0.8022728E+02  0.7546771E-02  0.1328408E+00
         21   -1    0    0  503  502  0.00000000000E+00  0.00000000000E+00  0.38650926572E+02  0.38650926572E+02  0.00000000000E+00 0.  1.
         21   -1    0    0  501  503 -0.00000000000E+00 -0.00000000000E+00 -0.21370546379E+03  0.21370546379E+03  0.00000000000E+00 0. -1.
         24    1    1    2    0    0 -0.29589988714E+02  0.51676092853E+02 -0.14927650346E+03  0.17971276094E+03  0.80419002446E+02 0. -1.
          1    1    1    2  501    0  0.83703323687E+01 -0.24619532180E+02 -0.27968008074E+02  0.38188915988E+02  0.00000000000E+00 0. -1.
         -2    1    1    2    0  502  0.21219656346E+02 -0.27056560672E+02  0.21899743091E+01  0.34454713441E+02  0.00000000000E+00 0.  1.
<mgrwt>
<rscale>  2 0.80227284E+02</rscale>
<asrwt>0</asrwt>
<pdfrwt beam="1">  1       21 0.59462964E-02 0.80227284E+02</pdfrwt>
<pdfrwt beam="2">  1       21 0.32877764E-01 0.80227284E+02</pdfrwt>
<totfact> 0.17507457E+06</totfact>
</mgrwt>
</event>
<event>
 5    1  0.1994521E+000  0.8451110E+02  0.7546771E-02  0.1316716E+00
         21   -1    0    0  501  502  0.00000000000E+00  0.00000000000E+00  0.26477360417E+03  0.26477360417E+03  0.00000000000E+00 0.  1.
         21   -1    0    0  502  503 -0.00000000000E+00 -0.00000000000E+00 -0.47854328535E+02  0.47854328535E+02  0.00000000000E+00 0.  1.
         24    1    1    2    0    0 -0.82974210056E+01  0.49069073312E+02  0.21710215161E+03  0.23680621052E+03  0.80419002446E+02 0.  1.
          1    1    1    2  501    0 -0.20255515405E+02 -0.33252956869E+01  0.63915718796E+01  0.21498736866E+02  0.00000000000E+00 0. -1.
         -2    1    1    2    0  503  0.28552936411E+02 -0.45743777625E+02 -0.65744478604E+01  0.54322985317E+02  0.00000000000E+00 0.  1.
<mgrwt>
<rscale>  2 0.84511098E+02</rscale>
<asrwt>0</asrwt>
<pdfrwt beam="1">  1       21 0.40734400E-01 0.84511098E+02</pdfrwt>
<pdfrwt beam="2">  1       21 0.73622045E-02 0.84511098E+02</pdfrwt>
<totfact> 0.80531517E+05</totfact>
</mgrwt>
</event>
<event>
 5    1  0.1994521E+000  0.6846884E+02  0.7546771E-02  0.1365379E+00
         21   -1    0    0  501  502  0.00000000000E+00  0.00000000000E+00  0.87119965410E+03  0.87119965410E+03  0.00000000000E+00 0.  1.
         21   -1    0    0  502  503 -0.00000000000E+00 -0.00000000000E+00 -0.54111121720E+01  0.54111121720E+01  0.00000000000E+00 0. -1.
         24    1    1    2    0    0  0.40564103702E+02 -0.16708888719E+02  0.60787112459E+03  0.61473502709E+03  0.80419002446E+02 0.  0.
          1    1    1    2  501    0 -0.22486475339E+02  0.30913751666E+01  0.12445236895E+03  0.12650529756E+03  0.00000000000E+00 0. -1.
         -2    1    1    2    0  503 -0.18077628364E+02  0.13617513552E+02  0.13346504839E+03  0.13537044162E+03  0.00000000000E+00 0.  1.
<mgrwt>
<rscale>  2 0.68468838E+02</rscale>
<asrwt>0</asrwt>
<pdfrwt beam="1">  1       21 0.13403060E+00 0.68468838E+02</pdfrwt>
<pdfrwt beam="2">  1       21 0.83247949E-03 0.68468838E+02</pdfrwt>
<totfact> 0.19957530E+06</totfact>
</mgrwt>
</event>
<event>
 5    1  0.1994521E+000  0.9910038E+02  0.7546771E-02  0.1282199E+00
         21   -1    0    0  503  502  0.00000000000E+00  0.00000000000E+00  0.27020868768E+03  0.27020868768E+03  0.00000000000E+00 0.  1.
         21   -1    0    0  501  503 -0.00000000000E+00 -0.00000000000E+00 -0.63515996704E+02  0.63515996704E+02  0.00000000000E+00 0. -1.
         24    1    1    2    0    0 -0.33234820565E+02 -0.42895394940E+02  0.88878326660E+02  0.13157180971E+03  0.80419002446E+02 0. -1.
          1    1    1    2  501    0 -0.76107420115E+01  0.57354416787E+02 -0.17197162592E+02  0.60358884351E+02  0.00000000000E+00 0. -1.
         -2    1    1    2    0  502  0.40845562576E+02 -0.14459021847E+02  0.13501152691E+03  0.14179399033E+03  0.00000000000E+00 0.  1.
<mgrwt>
<rscale>  2 0.99100383E+02</rscale>
<asrwt>0</asrwt>
<pdfrwt beam="1">  1       21 0.41570567E-01 0.99100383E+02</pdfrwt>
<pdfrwt beam="2">  1       21 0.97716920E-02 0.99100383E+02</pdfrwt>
<totfact> 0.47622786E+05</totfact>
</mgrwt>
</event>
<event>
 5    1  0.1994521E+000  0.7718470E+02  0.7546771E-02  0.1337236E+00
         21   -1    0    0  501  502  0.00000000000E+00  0.00000000000E+00  0.78409768188E+02  0.78409768188E+02  0.00000000000E+00 0. -1.
         21   -1    0    0  502  503 -0.00000000000E+00 -0.00000000000E+00 -0.10137442983E+03  0.10137442983E+03  0.00000000000E+00 0. -1.
         24    1    1    2    0    0 -0.16005028321E+02  0.46410818090E+01 -0.93257843648E+01  0.82655228391E+02  0.80419002446E+02 0. -1.
          1    1    1    2  501    0  0.30476852203E+02 -0.30177680572E+02  0.24195471748E+02  0.49243799386E+02  0.00000000000E+00 0. -1.
         -2    1    1    2    0  503 -0.14471823882E+02  0.25536598763E+02 -0.37834349021E+02  0.47885170238E+02  0.00000000000E+00 0.  1.
<mgrwt>
<rscale>  2 0.77184696E+02</rscale>
<asrwt>0</asrwt>
<pdfrwt beam="1">  1       21 0.12063041E-01 0.77184696E+02</pdfrwt>
<pdfrwt beam="2">  1       21 0.15596066E-01 0.77184696E+02</pdfrwt>
<totfact> 0.20705293E+06</totfact>
</mgrwt>
</event>
<event>
 5    1  0.1994521E+000  0.9524838E+02  0.7546771E-02  0.1290618E+00
         21   -1    0    0  503  502  0.00000000000E+00  0.00000000000E+00  0.55399883535E+03  0.55399883535E+03  0.00000000000E+00 0. -1.
         21   -1    0    0  501  503 -0.00000000000E+00 -0.00000000000E+00 -0.17926626440E+02  0.17926626440E+02  0.00000000000E+00 0.  1.
         24    1    1    2    0    0  0.68791343453E+02  0.31023235327E+02  0.22367291031E+03  0.24938219028E+03  0.80419002446E+02 0.  1.
          1    1    1    2  501    0 -0.51310665616E+02 -0.89931643506E+01  0.19802446984E+03  0.20476169580E+03  0.00000000000E+00 0. -1.
         -2    1    1    2    0  502 -0.17480677836E+02 -0.22030070976E+02  0.11437482875E+03  0.11778157571E+03  0.00000000000E+00 0.  1.
<mgrwt>
<rscale>  2 0.95248379E+02</rscale>
<asrwt>0</asrwt>
<pdfrwt beam="1">  1       21 0.85230577E-01 0.95248379E+02</pdfrwt>
<pdfrwt beam="2">  1       21 0.27579430E-02 0.95248379E+02</pdfrwt>
<totfact> 0.87049265E+05</totfact>
</mgrwt>
</event>
<event>
 5    1  0.1994521E+000  0.1001604E+03  0.7546771E-02  0.1279959E+00
         21   -1    0    0  501  502  0.00000000000E+00  0.00000000000E+00  0.16961701243E+03  0.16961701243E+03  0.00000000000E+00 0. -1.
         21   -1    0    0  502  503 -0.00000000000E+00 -0.00000000000E+00 -0.16606121724E+03  0.16606121724E+03  0.00000000000E+00 0. -1.
         24    1    1    2    0    0 -0.24432164893E+02 -0.77142550725E+02 -0.13143650022E+03  0.17404215972E+03  0.80419002446E+02 0. -1.
          1    1    1    2  501    0  0.21221489533E+02  0.20507779691E+02  0.66144830152E+02  0.72429684534E+02  0.00000000000E+00 0. -1.
         -2    1    1    2    0  503  0.32106753604E+01  0.56634771034E+02  0.68847465267E+02  0.89206385422E+02  0.00000000000E+00 0.  1.
<mgrwt>
<rscale>  2 0.10016045E+03</rscale>
<asrwt>0</asrwt>
<pdfrwt beam="1">  1       21 0.26094925E-01 0.10016045E+03</pdfrwt>
<pdfrwt beam="2">  1       21 0.25547880E-01 0.10016045E+03</pdfrwt>
<totfact> 0.20785721E+05</totfact>
</mgrwt>
</event>
<event>
 5    1  0.1994521E+000  0.6901392E+02  0.7546771E-02  0.1363479E+00
         21   -1    0    0  501  502  0.00000000000E+00  0.00000000000E+00  0.38265079043E+03  0.38265079043E+03  0.00000000000E+00 0.  1.
         21   -1    0    0  502  503 -0.00000000000E+00 -0.00000000000E+00 -0.11425397407E+03  0.11425397407E+03  0.00000000000E+00 0.  1.
         24    1    1    2    0    0  0.12672481665E+02  0.18474808764E+02  0.24474588377E+03  0.25859171280E+03  0.80419002446E+02 0.  1.
          1    1    1    2  501    0 -0.28049519740E+02  0.29177519246E+01  0.12780460159E+03  0.13087897089E+03  0.00000000000E+00 0. -1.
         -2    1    1    2    0  503  0.15377038074E+02 -0.21392560689E+02 -0.10415366900E+03  0.10743408081E+03  0.00000000000E+00 0.  1.
<mgrwt>
<rscale>  2 0.69013920E+02</rscale>
<asrwt>0</asrwt>
<pdfrwt beam="1">  1       21 0.58869352E-01 0.69013920E+02</pdfrwt>
<pdfrwt beam="2">  1       21 0.17577535E-01 0.69013920E+02</pdfrwt>
<totfact> 0.84150756E+04</totfact>
</mgrwt>
</event>
<event>
 5    1  0.1994521E+000  0.7201948E+02  0.7546771E-02  0.1353357E+00
         21   -1    0    0  503  502  0.00000000000E+00  0.00000000000E+00  0.67196576524E+03  0.67196576524E+03  0.00000000000E+00 0. -1.
         21   -1    0    0  501  503 -0.00000000000E+00 -0.00000000000E+00 -0.11053253395E+02  0.11053253395E+02  0.00000000000E+00 0.  1.
         24    1    1    2    0    0  0.45520095340E+02 -0.10212668544E+02  0.48334913752E+03  0.49220928717E+03  0.80419002446E+02 0. -1.
          1    1    1    2  501    0 -0.26135328994E+02 -0.47712409916E+01  0.25634967980E+02  0.36918447226E+02  0.00000000000E+00 0. -1.
         -2    1    1    2    0  502 -0.19384766346E+02  0.14983909536E+02  0.15192840635E+03  0.15389128424E+03  0.00000000000E+00 0.  1.
<mgrwt>
<rscale>  2 0.72019477E+02</rscale>
<asrwt>0</asrwt>
<pdfrwt beam="1">  1       21 0.10337932E+00 0.72019477E+02</pdfrwt>
<pdfrwt beam="2">  1       21 0.17005011E-02 0.72019477E+02</pdfrwt>
<totfact> 0.12128481E+06</totfact>
</mgrwt>
</event>
<event>
 5    1  0.1994521E+000  0.8248016E+02  0.7546771E-02  0.1322157E+00
         21   -1    0    0  501  502  0.00000000000E+00  0.00000000000E+00  0.64528272922E+02  0.64528272922E+02  0.00000000000E+00 0.  1.
         21   -1    0    0  502  503 -0.00000000000E+00 -0.00000000000E+00 -0.20589309866E+03  0.20589309866E+03  0.00000000000E+00 0.  1.
         24    1    1    2    0    0 -0.47561757862E+02 -0.10503009558E+02  0.15187780245E+01  0.94031679033E+02  0.80419002446E+02 0.  1.
          1    1    1    2  501    0  0.92073366184E+01  0.27491576674E+02 -0.16292471595E+01  0.29038186615E+02  0.00000000000E+00 0. -1.
         -2    1    1    2    0  503  0.38354421244E+02 -0.16988567115E+02 -0.14125435661E+03  0.14735150594E+03  0.00000000000E+00 0.  1.
<mgrwt>
<rscale>  2 0.82480157E+02</rscale>
<asrwt>0</asrwt>
<pdfrwt beam="1">  1       21 0.99274265E-02 0.82480157E+02</pdfrwt>
<pdfrwt beam="2">  1       21 0.31675862E-01 0.82480157E+02</pdfrwt>
<totfact> 0.78753864E+05</totfact>
</mgrwt>
</event>
<event>
 5    1  0.1994521E+000  0.8867025E+02  0.7546771E-02  0.1306104E+00
         21   -1    0    0  503  502  0.00000000000E+00  0.00000000000E+00  0.21808317053E+03  0.21808317053E+03  0.00000000000E+00 0.  1.
         21   -1    0    0  501  503 -0.00000000000E+00 -0.00000000000E+00 -0.13072944833E+03  0.13072944833E+03  0.00000000000E+00 0. -1.
         24    1    1    2    0    0 -0.22696192598E+02  0.46371107529E+02  0.47320621575E+02  0.10663889512E+03  0.80419002446E+02 0. -1.
          1    1    1    2  501    0  0.36477671482E+02 -0.33848571599E+01 -0.93923723223E+02  0.10081539346E+03  0.00000000000E+00 0. -1.
         -2    1    1    2    0  502 -0.13781478883E+02 -0.42986250369E+02  0.13395682386E+03  0.14135833028E+03  0.00000000000E+00 0.  1.
<mgrwt>
<rscale>  2 0.88670247E+02</rscale>
<asrwt>0</asrwt>
<pdfrwt beam="1">  1       21 0.33551257E-01 0.88670247E+02</pdfrwt>
<pdfrwt beam="2">  1       21 0.20112223E-01 0.88670247E+02</pdfrwt>
<totfact> 0.20118399E+05</totfact>
</mgrwt>
</event>
<event>
 5    1  0.1994521E+000  0.7473096E+02  0.7546771E-02  0.1344706E+00
         21   -1    0    0  503  502  0.00000000000E+00  0.00000000000E+00  0.52163317708E+02  0.52163317708E+02  0.00000000000E+00 0.  1.
         21   -1    0    0  501  503 -0.00000000000E+00 -0.00000000000E+00 -0.19780204073E+03  0.19780204073E+03  0.00000000000E+00 0. -1.
         24    1    1    2    0    0  0.20090128602E+01 -0.14705275117E+01 -0.64717596520E+01  0.80717397203E+02  0.80419002446E+02 0.  1.
          1    1    1    2  501    0 -0.33745876485E+02 -0.10098772024E+02 -0.12936479647E+03  0.13407468046E+03  0.00000000000E+00 0. -1.
         -2    1    1    2    0  502  0.31736863624E+02  0.11569299535E+02 -0.98021669062E+01  0.35173280775E+02  0.00000000000E+00 0.  1.
<mgrwt>
<rscale>  2 0.74730962E+02</rscale>
<asrwt>0</asrwt>
<pdfrwt beam="1">  1       21 0.80251258E-02 0.74730962E+02</pdfrwt>
<pdfrwt beam="2">  1       21 0.30431083E-01 0.74730962E+02</pdfrwt>
<totfact> 0.12213840E+06</totfact>
</mgrwt>
</event>
<event>
 5    1  0.1994521E+000  0.1175621E+03  0.7546771E-02  0.1247174E+00
         21   -1    0    0  501  502  0.00000000000E+00  0.00000000000E+00  0.18266123901E+03  0.18266123901E+03  0.00000000000E+00 0.  1.
         21   -1    0    0  502  503 -0.00000000000E+00 -0.00000000000E+00 -0.92737802227E+02  0.92737802227E+02  0.00000000000E+00 0. -1.
         24    1    1    2    0    0  0.31613236152E+02 -0.61124999332E+01  0.92011920351E+02  0.12637313321E+03  0.80419002446E+02 0.  1.
          1    1    1    2  501    0  0.56083958711E+02 -0.15482695443E+02 -0.68491955340E+01  0.58583579289E+02  0.00000000000E+00 0. -1.
         -2    1    1    2    0  503 -0.87697194863E+02  0.21595195377E+02  0.47607119687E+01  0.90442328744E+02  0.00000000000E+00 0.  1.
<mgrwt>
<rscale>  2 0.11756213E+03</rscale>
<asrwt>0</asrwt>
<pdfrwt beam="1">  1       21 0.28101729E-01 0.11756213E+03</pdfrwt>
<pdfrwt beam="2">  1       21 0.14267354E-01 0.11756213E+03</pdfrwt>
<totfact> 0.52410387E+05</totfact>
</mgrwt>
</event>
<event>
 5    1  0.1994521E+000  0.1129563E+03  0.7546771E-02  0.1255191E+00
         21   -1    0    0  501  502  0.00000000000E+00  0.00000000000E+00  0.39526642114E+03  0.39526642114E+03  0.00000000000E+00 0. -1.
         21   -1    0    0  502  503 -0.00000000000E+00 -0.00000000000E+00 -0.70197004749E+02  0.70197004749E+02  0.00000000000E+00 0.  1.
         24    1    1    2    0    0  0.62015030377E+02  0.18665000130E+02  0.13415746223E+01  0.10326307181E+03  0.80419002446E+02 0.  0.
          1    1    1    2  501    0 -0.90351568655E+02 -0.32721825051E+01  0.31649020607E+03  0.32915067018E+03  0.00000000000E+00 0. -1.
         -2    1    1    2    0  503  0.28336538277E+02 -0.15392817625E+02  0.72376357009E+01  0.33049683910E+02  0.00000000000E+00 0.  1.
<mgrwt>
<rscale>  2 0.11295631E+03</rscale>
<asrwt>0</asrwt>
<pdfrwt beam="1">  1       21 0.60810217E-01 0.11295631E+03</pdfrwt>
<pdfrwt beam="2">  1       21 0.10799539E-01 0.11295631E+03</pdfrwt>
<totfact> 0.18260893E+05</totfact>
</mgrwt>
</event>
<event>
 5    1  0.1994521E+000  0.1062945E+03  0.7546771E-02  0.1267590E+00
         21   -1    0    0  503  502  0.00000000000E+00  0.00000000000E+00  0.12990727625E+03  0.12990727625E+03  0.00000000000E+00 0.  1.
         21   -1    0    0  501  503 -0.00000000000E+00 -0.00000000000E+00 -0.10560287664E+03  0.10560287664E+03  0.00000000000E+00 0. -1.
         24    1    1    2    0    0  0.10782240726E+02 -0.40726943571E+02  0.11373560045E+02  0.91495980623E+02  0.80419002446E+02 0.  1.
          1    1    1    2  501    0 -0.45501978290E+02 -0.21668460308E+02 -0.31953640501E+02  0.59674008930E+02  0.00000000000E+00 0. -1.
         -2    1    1    2    0  502  0.34719737564E+02  0.62395403880E+02  0.44884480062E+02  0.84340163340E+02  0.00000000000E+00 0.  1.
<mgrwt>
<rscale>  2 0.10629454E+03</rscale>
<asrwt>0</asrwt>
<pdfrwt beam="1">  1       21 0.19985735E-01 0.10629454E+03</pdfrwt>
<pdfrwt beam="2">  1       21 0.16246596E-01 0.10629454E+03</pdfrwt>
<totfact> 0.78554403E+05</totfact>
</mgrwt>
</event>
<event>
 5    1  0.1994521E+000  0.8533545E+02  0.7546771E-02  0.1314558E+00
         21   -1    0    0  501  502  0.00000000000E+00  0.00000000000E+00  0.14896883356E+03  0.14896883356E+03  0.00000000000E+00 0. -1.
         21   -1    0    0  502  503 -0.00000000000E+00 -0.00000000000E+00 -0.96827453359E+02  0.96827453359E+02  0.00000000000E+00 0.  1.
         24    1    1    2    0    0  0.51592724809E+02  0.15921726500E+02 -0.58166390061E+02  0.11298608549E+03  0.80419002446E+02 0.  1.
          1    1    1    2  501    0 -0.27139578818E+02 -0.33922702373E+02  0.69142510727E+02  0.81657781408E+02  0.00000000000E+00 0. -1.
         -2    1    1    2    0  503 -0.24453145992E+02  0.18000975874E+02  0.41165259539E+02  0.51152420023E+02  0.00000000000E+00 0.  1.
<mgrwt>
<rscale>  2 0.85335448E+02</rscale>
<asrwt>0</asrwt>
<pdfrwt beam="1">  1       21 0.22918282E-01 0.85335448E+02</pdfrwt>
<pdfrwt beam="2">  1       21 0.14896531E-01 0.85335448E+02</pdfrwt>
<totfact> 0.71134412E+05</totfact>
</mgrwt>
</event>
<event>
 5    1  0.1994521E+000  0.7547331E+02  0.7546771E-02  0.1342412E+00
         21   -1    0    0  501  502  0.00000000000E+00  0.00000000000E+00  0.48861955683E+02  0.48861955683E+02  0.00000000000E+00 0. -1.
         21   -1    0    0  502  503 -0.00000000000E+00 -0.00000000000E+00 -0.16758450758E+03  0.16758450758E+03  0.00000000000E+00 0.  1.
         24    1    1    2    0    0 -0.47567501457E+00  0.12294646312E+01 -0.82484406064E+02  0.11520690538E+03  0.80419002446E+02 0.  0.
          1    1    1    2  501    0  0.13925367503E+02 -0.33107903393E+02  0.15401594075E+02  0.39080151320E+02  0.00000000000E+00 0. -1.
         -2    1    1    2    0  503 -0.13449692488E+02  0.31878438762E+02 -0.51639739904E+02  0.62159406555E+02  0.00000000000E+00 0.  1.
<mgrwt>
<rscale>  2 0.75473307E+02</rscale>
<asrwt>0</asrwt>
<pdfrwt beam="1">  1       21 0.75172239E-02 0.75473307E+02</pdfrwt>
<pdfrwt beam="2">  1       21 0.25782232E-01 0.75473307E+02</pdfrwt>
<totfact> 0.18657914E+06</totfact>
</mgrwt>
</event>
<event>
 5    1  0.1994521E+000  0.7367801E+02  0.7546771E-02  0.1348014E+00
         21   -1    0    0  503  502  0.00000000000E+00  0.00000000000E+00  0.76189341023E+02  0.76189341023E+02  0.00000000000E+00 0.  1.
         21   -1    0    0  501  503 -0.00000000000E+00 -0.00000000000E+00 -0.19924768676E+03  0.19924768676E+03  0.00000000000E+00 0. -1.
         24    1    1    2    0    0 -0.14794461658E+02  0.23322511222E+02 -0.10740272103E+03  0.13698677332E+03  0.80419002446E+02 0. -1.
          1    1    1    2  501    0 -0.21000865592E+02 -0.14313517498E+02 -0.69027685367E+02  0.73557694947E+02  0.00000000000E+00 0. -1.
         -2    1    1    2    0  502  0.35795327250E+02 -0.90089937239E+01  0.53372060663E+02  0.64892559514E+02  0.00000000000E+00 0.  1.
<mgrwt>
<rscale>  2 0.73678015E+02</rscale>
<asrwt>0</asrwt>
<pdfrwt beam="1">  1       21 0.11721437E-01 0.73678015E+02</pdfrwt>
<pdfrwt beam="2">  1       21 0.30653490E-01 0.73678015E+02</pdfrwt>
<totfact> 0.62765755E+05</totfact>
</mgrwt>
</event>
<event>
 5    1  0.1994521E+000  0.1007252E+03  0.7546771E-02  0.1278778E+00
         21   -1    0    0  503  502  0.00000000000E+00  0.00000000000E+00  0.68149462208E+03  0.68149462208E+03  0.00000000000E+00 0.  1.
         21   -1    0    0  501  503 -0.00000000000E+00 -0.00000000000E+00 -0.23928188127E+02  0.23928188127E+02  0.00000000000E+00 0.  1.
         24    1    1    2    0    0  0.10955472508E+02 -0.83960483874E+02  0.15662362180E+03  0.19536519672E+03  0.80419002446E+02 0.  1.
          1    1    1    2  501    0 -0.36633516774E+01  0.25851306477E+02  0.62702046158E+02  0.67920959832E+02  0.00000000000E+00 0. -1.
         -2    1    1    2    0  502 -0.72921208303E+01  0.58109177397E+02  0.43824076599E+03  0.44213665365E+03  0.00000000000E+00 0.  1.
<mgrwt>
<rscale>  2 0.10072519E+03</rscale>
<asrwt>0</asrwt>
<pdfrwt beam="1">  1       21 0.10484531E+00 0.10072519E+03</pdfrwt>
<pdfrwt beam="2">  1       21 0.36812602E-02 0.10072519E+03</pdfrwt>
<totfact> 0.33771110E+05</totfact>
</mgrwt>
</event>
<event>
 5    1  0.1994521E+000  0.9448182E+02  0.7546771E-02  0.1292347E+00
         21   -1    0    0  503  502  0.00000000000E+00  0.00000000000E+00  0.53331671341E+03  0.53331671341E+03  0.00000000000E+00 0.  1.
         21   -1    0    0  501  503 -0.00000000000E+00 -0.00000000000E+00 -0.17736703983E+03  0.17736703983E+03  0.00000000000E+00 0. -1.
         24    1    1    2    0    0  0.37450169859E+02  0.32830546757E+02 -0.64320572978E+02  0.11438842636E+03  0.80419002446E+02 0. -1.
          1    1    1    2  501    0 -0.47566682519E+02 -0.53361138624E+02 -0.73188430177E+02  0.10230614211E+03  0.00000000000E+00 0. -1.
         -2    1    1    2    0  502  0.10116512660E+02  0.20530591867E+02  0.49345867673E+03  0.49398918477E+03  0.00000000000E+00 0.  1.
<mgrwt>
<rscale>  2 0.94481821E+02</rscale>
<asrwt>0</asrwt>
<pdfrwt beam="1">  1       21 0.82048725E-01 0.94481821E+02</pdfrwt>
<pdfrwt beam="2">  1       21 0.27287237E-01 0.94481821E+02</pdfrwt>
<totfact> 0.17928271E+04</totfact>
</mgrwt>
</event>
<event>
 5    1  0.1994521E+000  0.8073375E+02  0.7546771E-02  0.1326982E+00
         21   -1    0    0  503  502  0.00000000000E+00  0.00000000000E+00  0.37449196775E+02  0.37449196775E+02  0.00000000000E+00 0.  1.
         21   -1    0    0  501  503 -0.00000000000E+00 -0.00000000000E+00 -0.22940315738E+03  0.22940315738E+03  0.00000000000E+00 0. -1.
         24    1    1    2    0    0  0.16234038368E+01  0.16932305085E+02 -0.93102652934E+02  0.12419604798E+03  0.80419002446E+02 0.  1.
          1    1    1    2  501    0  0.24503631136E+02  0.21633258345E+02 -0.89314201744E+02  0.95107583497E+02  0.00000000000E+00 0. -1.
         -2    1    1    2    0  502 -0.26127034972E+02 -0.38565563430E+02 -0.95371059277E+01  0.47548722681E+02  0.00000000000E+00 0.  1.
<mgrwt>
<rscale>  2 0.80733748E+02</rscale>
<asrwt>0</asrwt>
<pdfrwt beam="1">  1       21 0.57614151E-02 0.80733748E+02</pdfrwt>
<pdfrwt beam="2">  1       21 0.35292792E-01 0.80733748E+02</pdfrwt>
<totfact> 0.16098976E+06</totfact>
</mgrwt>
</event>
<event>
 5    1  0.1994521E+000  0.9014903E+02  0.7546771E-02  0.1302491E+00
         21   -1    0    0  501  502  0.00000000000E+00  0.00000000000E+00  0.38255130420E+03  0.38255130420E+03  0.00000000000E+00 0.  1.
         21   -1    0    0  502  503 -0.00000000000E+00 -0.00000000000E+00 -0.58626449841E+02  0.58626449841E+02  0.00000000000E+00 0.  1.
         24    1    1    2    0    0 -0.60568153830E+02 -0.42154656214E+01  0.33386472352E+03  0.34873935966E+03  0.80419002446E+02 0.  1.
          1    1    1    2  501    0  0.34725417127E+02  0.27849396850E+02  0.17620457903E+02  0.47874043450E+02  0.00000000000E+00 0. -1.
         -2    1    1    2    0  503  0.25842736704E+02 -0.23633931229E+02 -0.27560327068E+02  0.44564350929E+02  0.00000000000E+00 0.  1.
<mgrwt>
<rscale>  2 0.90149028E+02</rscale>
<asrwt>0</asrwt>
<pdfrwt beam="1">  1       21 0.58854045E-01 0.90149028E+02</pdfrwt>
<pdfrwt beam="2">  1       21 0.90194541E-02 0.90149028E+02</pdfrwt>
<totfact> 0.26920857E+05</totfact>
</mgrwt>
</event>
<event>
 5    1  0.1994521E+000  0.8237023E+02  0.7546771E-02  0.1322457E+00
         21   -1    0    0  503  502  0.00000000000E+00  0.00000000000E+00  0.75386847419E+03  0.75386847419E+03  0.00000000000E+00 0. -1.
         21   -1    0    0  501  503 -0.00000000000E+00 -0.00000000000E+00 -0.31180101440E+02  0.31180101440E+02  0.00000000000E+00 0. -1.
         24    1    1    2    0    0  0.56986581014E+02  0.21322940881E+02  0.35265010265E+03  0.36678529016E+03  0.80419002446E+02 0. -1.
          1    1    1    2  501    0 -0.31065683840E+02 -0.12115386665E+01 -0.13090155806E+02  0.33732724726E+02  0.00000000000E+00 0. -1.
         -2    1    1    2    0  502 -0.25920897174E+02 -0.20111402215E+02  0.38312842590E+03  0.38453056074E+03  0.00000000000E+00 0.  1.
<mgrwt>
<rscale>  2 0.82370231E+02</rscale>
<asrwt>0</asrwt>
<pdfrwt beam="1">  1       21 0.11597975E+00 0.82370231E+02</pdfrwt>
<pdfrwt beam="2">  1       21 0.47969392E-02 0.82370231E+02</pdfrwt>
<totfact> 0.17302393E+05</totfact>
</mgrwt>
</event>
<event>
 5    1  0.1994521E+000  0.9267879E+02  0.7546771E-02  0.1296491E+00
         21   -1    0    0  501  502  0.00000000000E+00  0.00000000000E+00  0.63247090041E+02  0.63247090041E+02  0.00000000000E+00 0. -1.
         21   -1    0    0  502  503 -0.00000000000E+00 -0.00000000000E+00 -0.25066104226E+03  0.25066104226E+03  0.00000000000E+00 0.  1.
         24    1    1    2    0    0  0.80722279733E+01  0.28211165142E+02  0.12797946740E+02  0.86556537005E+02  0.80419002446E+02 0. -1.
          1    1    1    2  501    0 -0.20185451479E+02  0.32273808600E+02 -0.37914635181E+02  0.53726815780E+02  0.00000000000E+00 0. -1.
         -2    1    1    2    0  503  0.12113223506E+02 -0.60484973743E+02 -0.16229726377E+03  0.17362477951E+03  0.00000000000E+00 0.  1.
<mgrwt>
<rscale>  2 0.92678790E+02</rscale>
<asrwt>0</asrwt>
<pdfrwt beam="1">  1       21 0.97303217E-02 0.92678790E+02</pdfrwt>
<pdfrwt beam="2">  1       21 0.38563237E-01 0.92678790E+02</pdfrwt>
<totfact> 0.55688677E+05</totfact>
</mgrwt>
</event>
<event>
 5    1  0.1994521E+000  0.8282588E+02  0.7546771E-02  0.1321218E+00
         21   -1    0    0  501  502  0.00000000000E+00  0.00000000000E+00  0.65362948004E+03  0.65362948004E+03  0.00000000000E+00 0. -1.
         21   -1    0    0  502  503 -0.00000000000E+00 -0.00000000000E+00 -0.23480075827E+02  0.23480075827E+02  0.00000000000E+00 0. -1.
         24    1    1    2    0    0 -0.51761929330E+02 -0.12627790322E+02  0.10779733057E+03  0.14465904344E+03  0.80419002446E+02 0. -1.
          1    1    1    2  501    0  0.17806509898E+02  0.26975023195E+02  0.45083726634E+03  0.45199442961E+03  0.00000000000E+00 0. -1.
         -2    1    1    2    0  503  0.33955419431E+02 -0.14347232873E+02  0.71514807301E+02  0.80456082823E+02  0.00000000000E+00 0.  1.
<mgrwt>
<rscale>  2 0.82825876E+02</rscale>
<asrwt>0</asrwt>
<pdfrwt beam="1">  1       21 0.10055837E+00 0.82825876E+02</pdfrwt>
<pdfrwt beam="2">  1       21 0.36123199E-02 0.82825876E+02</pdfrwt>
<totfact> 0.38544578E+05</totfact>
</mgrwt>
</event>
<event>
 5    1  0.1994521E+000  0.7085743E+02  0.7546771E-02  0.1357201E+00
         21   -1    0    0  503  502  0.00000000000E+00  0.00000000000E+00  0.59139776841E+02  0.59139776841E+02  0.00000000000E+00 0. -1.
         21   -1    0    0  501  503 -0.00000000000E+00 -0.00000000000E+00 -0.92339692984E+02  0.92339692984E+02  0.00000000000E+00 0. -1.
         24    1    1    2    0    0 -0.34964051685E+02 -0.69756361405E+00 -0.17821454248E+01  0.87711820765E+02  0.80419002446E+02 0. -1.
          1    1    1    2  501    0  0.17033320724E+02 -0.20240936164E+02 -0.22690288037E+02  0.34852240716E+02  0.00000000000E+00 0. -1.
         -2    1    1    2    0  502  0.17930730961E+02  0.20938499778E+02 -0.87274826816E+01  0.28915408344E+02  0.00000000000E+00 0.  1.
<mgrwt>
<rscale>  2 0.70857433E+02</rscale>
<asrwt>0</asrwt>
<pdfrwt beam="1">  1       21 0.90984272E-02 0.70857433E+02</pdfrwt>
<pdfrwt beam="2">  1       21 0.14206107E-01 0.70857433E+02</pdfrwt>
<totfact> 0.39583767E+06</totfact>
</mgrwt>
</event>
<event>
 5    1  0.1994521E+000  0.8926061E+02  0.7546771E-02  0.1304652E+00
         21   -1    0    0  501  502  0.00000000000E+00  0.00000000000E+00  0.11036767235E+03  0.11036767235E+03  0.00000000000E+00 0. -1.
         21   -1    0    0  502  503 -0.00000000000E+00 -0.00000000000E+00 -0.33607237106E+03  0.33607237106E+03  0.00000000000E+00 0.  1.
         24    1    1    2    0    0 -0.68352624685E+02 -0.28560137349E+01 -0.86035322830E+02  0.13619666238E+03  0.80419002446E+02 0.  1.
          1    1    1    2  501    0  0.50190050235E+02 -0.93542964770E+01  0.77045666317E+02  0.92426071557E+02  0.00000000000E+00 0. -1.
         -2    1    1    2    0  503  0.18162574450E+02  0.12210310212E+02 -0.21671504220E+03  0.21781730946E+03  0.00000000000E+00 0.  1.
<mgrwt>
<rscale>  2 0.89260615E+02</rscale>
<asrwt>0</asrwt>
<pdfrwt beam="1">  1       21 0.16979642E-01 0.89260615E+02</pdfrwt>
<pdfrwt beam="2">  1       21 0.51703442E-01 0.89260615E+02</pdfrwt>
<totfact> 0.11569851E+05</totfact>
</mgrwt>
</event>
<event>
 5    1  0.1994521E+000  0.7195103E+02  0.7546771E-02  0.1353581E+00
         21   -1    0    0  503  502  0.00000000000E+00  0.00000000000E+00  0.70915148703E+02  0.70915148703E+02  0.00000000000E+00 0.  1.
         21   -1    0    0  501  503 -0.00000000000E+00 -0.00000000000E+00 -0.12791872338E+03  0.12791872338E+03  0.00000000000E+00 0. -1.
         24    1    1    2    0    0  0.23735191967E+01 -0.41573719133E+02  0.16319709404E+00  0.90560754765E+02  0.80419002446E+02 0.  1.
          1    1    1    2  501    0  0.15267434743E+02  0.14693377188E+02 -0.70388432262E+02  0.73508647744E+02  0.00000000000E+00 0. -1.
         -2    1    1    2    0  502 -0.17640953939E+02  0.26880341945E+02  0.13221660488E+02  0.34764469578E+02  0.00000000000E+00 0.  1.
<mgrwt>
<rscale>  2 0.71951033E+02</rscale>
<asrwt>0</asrwt>
<pdfrwt beam="1">  1       21 0.10910023E-01 0.71951033E+02</pdfrwt>
<pdfrwt beam="2">  1       21 0.19679803E-01 0.71951033E+02</pdfrwt>
<totfact> 0.16178019E+06</totfact>
</mgrwt>
</event>
<event>
 5    1  0.1994521E+000  0.6777110E+02  0.7546771E-02  0.1367841E+00
         21   -1    0    0  503  502  0.00000000000E+00  0.00000000000E+00  0.51122426167E+03  0.51122426167E+03  0.00000000000E+00 0. -1.
         21   -1    0    0  501  503 -0.00000000000E+00 -0.00000000000E+00 -0.31406004354E+02  0.31406004354E+02  0.00000000000E+00 0.  1.
         24    1    1    2    0    0  0.18464014216E+01 -0.33309729605E+02  0.27823015521E+03  0.29153418755E+03  0.80419002446E+02 0. -1.
          1    1    1    2  501    0 -0.17859069207E+02  0.10856691072E+02 -0.19326812088E+02  0.28466467281E+02  0.00000000000E+00 0. -1.
         -2    1    1    2    0  502  0.16012667786E+02  0.22453038533E+02  0.22091491419E+03  0.22262961119E+03  0.00000000000E+00 0.  1.
<mgrwt>
<rscale>  2 0.67771101E+02</rscale>
<asrwt>0</asrwt>
<pdfrwt beam="1">  1       21 0.78649880E-01 0.67771101E+02</pdfrwt>
<pdfrwt beam="2">  1       21 0.48316934E-02 0.67771101E+02</pdfrwt>
<totfact> 0.41552320E+05</totfact>
</mgrwt>
</event>
<event>
 5    1  0.1994521E+000  0.1027897E+03  0.7546771E-02  0.1274537E+00
         21   -1    0    0  503  502  0.00000000000E+00  0.00000000000E+00  0.37602274751E+02  0.37602274751E+02  0.00000000000E+00 0. -1.
         21   -1    0    0  501  503 -0.00000000000E+00 -0.00000000000E+00 -0.31339759696E+03  0.31339759696E+03  0.00000000000E+00 0. -1.
         24    1    1    2    0    0  0.45009470643E+02  0.58008856387E+02 -0.10986793001E+03  0.15469019965E+03  0.80419002446E+02 0. -1.
          1    1    1    2  501    0 -0.34419435032E+02  0.31984529018E+01 -0.99642252152E+02  0.10546803318E+03  0.00000000000E+00 0. -1.
         -2    1    1    2    0  502 -0.10590035611E+02 -0.61207309289E+02 -0.66285140039E+02  0.90841638881E+02  0.00000000000E+00 0.  1.
<mgrwt>
<rscale>  2 0.10278965E+03</rscale>
<asrwt>0</asrwt>
<pdfrwt beam="1">  1       21 0.57849654E-02 0.10278965E+03</pdfrwt>
<pdfrwt beam="2">  1       21 0.48215014E-01 0.10278965E+03</pdfrwt>
<totfact> 0.86440268E+05</totfact>
</mgrwt>
</event>
<event>
 5    1  0.1994521E+000  0.8063891E+02  0.7546771E-02  0.1327248E+00
         21   -1    0    0  503  502  0.00000000000E+00  0.00000000000E+00  0.57402065885E+02  0.57402065885E+02  0.00000000000E+00 0.  1.
         21   -1    0    0  501  503 -0.00000000000E+00 -0.00000000000E+00 -0.25085005290E+03  0.25085005290E+03  0.00000000000E+00 0.  1.
         24    1    1    2    0    0 -0.26725268777E+02  0.45958374426E+02 -0.20777899551E+03  0.22905400913E+03  0.80419002446E+02 0.  1.
          1    1    1    2  501    0 -0.26001996126E+01 -0.32507325494E+02 -0.14723295353E+02  0.35780758444E+02  0.00000000000E+00 0. -1.
         -2    1    1    2    0  502  0.29325468389E+02 -0.13451048933E+02  0.29054303849E+02  0.43417351206E+02  0.00000000000E+00 0.  1.
<mgrwt>
<rscale>  2 0.80638907E+02</rscale>
<asrwt>0</asrwt>
<pdfrwt beam="1">  1       21 0.88310872E-02 0.80638907E+02</pdfrwt>
<pdfrwt beam="2">  1       21 0.38592315E-01 0.80638907E+02</pdfrwt>
<totfact> 0.65659800E+05</totfact>
</mgrwt>
</event>
<event>
 5    1  0.1994521E+000  0.9191129E+02  0.7546771E-02  0.1298288E+00
         21   -1    0    0  501  502  0.00000000000E+00  0.00000000000E+00  0.40073086942E+03  0.40073086942E+03  0.00000000000E+00 0. -1.
         21   -1    0    0  502  503 -0.00000000000E+00 -0.00000000000E+00 -0.24276490560E+02  0.24276490560E+02  0.00000000000E+00 0. -1.
         24    1    1    2    0    0  0.95976010480E+01 -0.59341710268E+02  0.22285027207E+03  0.24442383730E+03  0.80419002446E+02 0. -1.
          1    1    1    2  501    0  0.21875512812E+02  0.42317218967E+02  0.12801953046E+03  0.13659533397E+03  0.00000000000E+00 0. -1.
         -2    1    1    2    0  503 -0.31473113860E+02  0.17024491301E+02  0.25584576318E+02  0.43988188704E+02  0.00000000000E+00 0.  1.
<mgrwt>
<rscale>  2 0.91911292E+02</rscale>
<asrwt>0</asrwt>
<pdfrwt beam="1">  1       21 0.61650898E-01 0.91911292E+02</pdfrwt>
<pdfrwt beam="2">  1       21 0.37348450E-02 0.91911292E+02</pdfrwt>
<totfact> 0.10727246E+06</totfact>
</mgrwt>
</event>
<event>
 5    1  0.1994521E+000  0.7656051E+02  0.7546771E-02  0.1339106E+00
         21   -1    0    0  501  502  0.00000000000E+00  0.00000000000E+00  0.14923650726E+03  0.14923650726E+03  0.00000000000E+00 0.  1.
         21   -1    0    0  502  503 -0.00000000000E+00 -0.00000000000E+00 -0.54407141393E+02  0.54407141393E+02  0.00000000000E+00 0. -1.
         24    1    1    2    0    0  0.23079081023E+02 -0.98095287940E+01  0.51184904847E+02  0.98569677257E+02  0.80419002446E+02 0. -1.
          1    1    1    2  501    0  0.27817755705E+01 -0.25202437342E+02  0.54590436769E+02  0.60191501974E+02  0.00000000000E+00 0. -1.
         -2    1    1    2    0  503 -0.25860856594E+02  0.35011966136E+02 -0.10945975747E+02  0.44882469423E+02  0.00000000000E+00 0.  1.
<mgrwt>
<rscale>  2 0.76560510E+02</rscale>
<asrwt>0</asrwt>
<pdfrwt beam="1">  1       21 0.22959462E-01 0.76560510E+02</pdfrwt>
<pdfrwt beam="2">  1       21 0.83703295E-02 0.76560510E+02</pdfrwt>
<totfact> 0.19288148E+06</totfact>
</mgrwt>
</event>
<event>
 5    1  0.1994521E+000  0.8217132E+02  0.7546771E-02  0.1323000E+00
         21   -1    0    0  503  502  0.00000000000E+00  0.00000000000E+00  0.29102488756E+03  0.29102488756E+03  0.00000000000E+00 0. -1.
         21   -1    0    0  501  503 -0.00000000000E+00 -0.00000000000E+00 -0.26420631341E+02  0.26420631341E+02  0.00000000000E+00 0.  1.
         24    1    1    2    0    0  0.33762976002E+02  0.44439575812E+02  0.10279715960E+03  0.14194818217E+03  0.80419002446E+02 0.  1.
          1    1    1    2  501    0  0.43200147318E+01 -0.21643439290E+02  0.37608319351E+02  0.43606039444E+02  0.00000000000E+00 0. -1.
         -2    1    1    2    0  502 -0.38082990733E+02 -0.22796136521E+02  0.12419877727E+03  0.13189129728E+03  0.00000000000E+00 0.  1.
<mgrwt>
<rscale>  2 0.82171323E+02</rscale>
<asrwt>0</asrwt>
<pdfrwt beam="1">  1       21 0.44773057E-01 0.82171323E+02</pdfrwt>
<pdfrwt beam="2">  1       21 0.40647127E-02 0.82171323E+02</pdfrwt>
<totfact> 0.17964595E+06</totfact>
</mgrwt>
</event>
<event>
 5    1  0.1994521E+000  0.1336986E+03  0.7546771E-02  0.1222069E+00
         21   -1    0    0  503  502  0.00000000000E+00  0.00000000000E+00  0.20466139331E+02  0.20466139331E+02  0.00000000000E+00 0.  1.
         21   -1    0    0  501  503 -0.00000000000E+00 -0.00000000000E+00 -0.10360247942E+04  0.10360247942E+04  0.00000000000E+00 0.  1.
         24    1    1    2    0    0  0.48118613231E+02 -0.74564251150E+02 -0.39837099506E+03  0.41598304550E+03  0.80419002446E+02 0.  1.
          1    1    1    2  501    0 -0.21975313336E+02 -0.31494799737E+02 -0.34633897321E+03  0.34846164949E+03  0.00000000000E+00 0. -1.
         -2    1    1    2    0  502 -0.26143299895E+02  0.10605905089E+03 -0.27084868659E+03  0.29204623852E+03  0.00000000000E+00 0.  1.
<mgrwt>
<rscale>  2 0.13369861E+03</rscale>
<asrwt>0</asrwt>
<pdfrwt beam="1">  1       21 0.31486369E-02 0.13369861E+03</pdfrwt>
<pdfrwt beam="2">  1       21 0.15938842E+00 0.13369861E+03</pdfrwt>
<totfact> 0.15256905E+05</totfact>
</mgrwt>
</event>
<event>
 5    1  0.1994521E+000  0.1452163E+03  0.7546771E-02  0.1206478E+00
         21   -1    0    0  501  502  0.00000000000E+00  0.00000000000E+00  0.12703122410E+03  0.12703122410E+03  0.00000000000E+00 0. -1.
         21   -1    0    0  502  503 -0.00000000000E+00 -0.00000000000E+00 -0.40763527015E+03  0.40763527015E+03  0.00000000000E+00 0.  1.
         24    1    1    2    0    0 -0.32762578092E+02 -0.11035883039E+03 -0.69565009949E+01  0.14059895742E+03  0.80419002446E+02 0. -1.
          1    1    1    2  501    0  0.67073983405E+02  0.68316850667E+02  0.17997589514E+02  0.97416757096E+02  0.00000000000E+00 0. -1.
         -2    1    1    2    0  503 -0.34311405313E+02  0.42041979719E+02 -0.29164513458E+03  0.29665077973E+03  0.00000000000E+00 0.  1.
<mgrwt>
<rscale>  2 0.14521629E+03</rscale>
<asrwt>0</asrwt>
<pdfrwt beam="1">  1       21 0.19543266E-01 0.14521629E+03</pdfrwt>
<pdfrwt beam="2">  1       21 0.62713117E-01 0.14521629E+03</pdfrwt>
<totfact> 0.58056501E+04</totfact>
</mgrwt>
</event>
<event>
 5    1  0.1994521E+000  0.8677113E+02  0.7546771E-02  0.1310865E+00
         21   -1    0    0  503  502  0.00000000000E+00  0.00000000000E+00  0.11882025649E+04  0.11882025649E+04  0.00000000000E+00 0.  1.
         21   -1    0    0  501  503 -0.00000000000E+00 -0.00000000000E+00 -0.17997819456E+02  0.17997819456E+02  0.00000000000E+00 0.  1.
         24    1    1    2    0    0 -0.52192935960E+02  0.28048455674E+02  0.36387438464E+03  0.37733619252E+03  0.80419002446E+02 0.  1.
          1    1    1    2  501    0  0.11478910862E+01 -0.22249133413E+02  0.14284469935E+01  0.22324472051E+02  0.00000000000E+00 0. -1.
         -2    1    1    2    0  502  0.51045044873E+02 -0.57993222611E+01  0.80490191384E+03  0.80653971982E+03  0.00000000000E+00 0.  1.
<mgrwt>
<rscale>  2 0.86771131E+02</rscale>
<asrwt>0</asrwt>
<pdfrwt beam="1">  1       21 0.18280033E+00 0.86771131E+02</pdfrwt>
<pdfrwt beam="2">  1       21 0.27688962E-02 0.86771131E+02</pdfrwt>
<totfact> 0.13403185E+05</totfact>
</mgrwt>
</event>
<event>
 5    1  0.1994521E+000  0.7554198E+02  0.7546771E-02  0.1342201E+00
         21   -1    0    0  503  502  0.00000000000E+00  0.00000000000E+00  0.48656710696E+03  0.48656710696E+03  0.00000000000E+00 0.  1.
         21   -1    0    0  501  503 -0.00000000000E+00 -0.00000000000E+00 -0.14425564134E+02  0.14425564134E+02  0.00000000000E+00 0.  1.
         24    1    1    2    0    0  0.14254207558E+02 -0.13561477560E+02  0.26138430000E+03  0.27418253838E+03  0.80419002446E+02 0.  1.
          1    1    1    2  501    0  0.60223188352E+01 -0.24466716214E+02  0.22819184292E+02  0.33994171533E+02  0.00000000000E+00 0. -1.
         -2    1    1    2    0  502 -0.20276526393E+02  0.38028193774E+02  0.18793805852E+03  0.19281596118E+03  0.00000000000E+00 0.  1.
<mgrwt>
<rscale>  2 0.75541975E+02</rscale>
<asrwt>0</asrwt>
<pdfrwt beam="1">  1       21 0.74856465E-01 0.75541975E+02</pdfrwt>
<pdfrwt beam="2">  1       21 0.22193179E-02 0.75541975E+02</pdfrwt>
<totfact> 0.16373999E+06</totfact>
</mgrwt>
</event>
<event>
 5    1  0.1994521E+000  0.7405176E+02  0.7546771E-02  0.1346833E+00
         21   -1    0    0  501  502  0.00000000000E+00  0.00000000000E+00  0.15946834464E+03  0.15946834464E+03  0.00000000000E+00 0. -1.
         21   -1    0    0  502  503 -0.00000000000E+00 -0.00000000000E+00 -0.65258056400E+02  0.65258056400E+02  0.00000000000E+00 0.  1.
         24    1    1    2    0    0 -0.10941765841E+02  0.16058317892E+01  0.35951456262E+02  0.88780764230E+02  0.80419002446E+02 0.  1.
          1    1    1    2  501    0 -0.65804033630E+01 -0.31552532445E+02  0.85795496744E+02  0.91650047865E+02  0.00000000000E+00 0. -1.
         -2    1    1    2    0  503  0.17522169204E+02  0.29946700656E+02 -0.27536664764E+02  0.44295588947E+02  0.00000000000E+00 0.  1.
<mgrwt>
<rscale>  2 0.74051762E+02</rscale>
<asrwt>0</asrwt>
<pdfrwt beam="1">  1       21 0.24533591E-01 0.74051762E+02</pdfrwt>
<pdfrwt beam="2">  1       21 0.10039701E-01 0.74051762E+02</pdfrwt>
<totfact> 0.12474953E+06</totfact>
</mgrwt>
</event>
<event>
 5    1  0.1994521E+000  0.6899708E+02  0.7546771E-02  0.1363537E+00
         21   -1    0    0  501  502  0.00000000000E+00  0.00000000000E+00  0.14319171871E+03  0.14319171871E+03  0.00000000000E+00 0. -1.
         21   -1    0    0  502  503 -0.00000000000E+00 -0.00000000000E+00 -0.35602654173E+02  0.35602654173E+02  0.00000000000E+00 0.  1.
         24    1    1    2    0    0 -0.29732963047E+01 -0.14226981175E+02  0.53282660400E+02  0.97557702607E+02  0.80419002446E+02 0.  0.
          1    1    1    2  501    0  0.22056073723E+02 -0.10995057100E+02  0.38916214230E+02  0.46063362868E+02  0.00000000000E+00 0. -1.
         -2    1    1    2    0  503 -0.19082777418E+02  0.25222038276E+02  0.15390189910E+02  0.35173307411E+02  0.00000000000E+00 0.  1.
<mgrwt>
<rscale>  2 0.68997076E+02</rscale>
<asrwt>0</asrwt>
<pdfrwt beam="1">  1       21 0.22029495E-01 0.68997076E+02</pdfrwt>
<pdfrwt beam="2">  1       21 0.54773315E-02 0.68997076E+02</pdfrwt>
<totfact> 0.42203344E+06</totfact>
</mgrwt>
</event>
<event>
 5    1  0.1994521E+000  0.7783763E+02  0.7546771E-02  0.1335302E+00
         21   -1    0    0  503  502  0.00000000000E+00  0.00000000000E+00  0.66172860464E+03  0.66172860464E+03  0.00000000000E+00 0.  1.
         21   -1    0    0  501  503 -0.00000000000E+00 -0.00000000000E+00 -0.10574081272E+03  0.10574081272E+03  0.00000000000E+00 0.  1.
         24    1    1    2    0    0  0.25767540918E+02  0.21755456251E+02 -0.81223216980E+02  0.11917085622E+03  0.80419002446E+02 0.  1.
          1    1    1    2  501    0  0.71163694435E+01 -0.32969015582E+02  0.51523158373E+02  0.61581121711E+02  0.00000000000E+00 0. -1.
         -2    1    1    2    0  502 -0.32883910361E+02  0.11213559331E+02  0.58568785052E+03  0.58671743942E+03  0.00000000000E+00 0.  1.
<mgrwt>
<rscale>  2 0.77837634E+02</rscale>
<asrwt>0</asrwt>
<pdfrwt beam="1">  1       21 0.10180440E+00 0.77837634E+02</pdfrwt>
<pdfrwt beam="2">  1       21 0.16267818E-01 0.77837634E+02</pdfrwt>
<totfact> 0.28977785E+04</totfact>
</mgrwt>
</event>
<event>
 5    1  0.1994521E+000  0.1097981E+03  0.7546771E-02  0.1260944E+00
         21   -1    0    0  503  502  0.00000000000E+00  0.00000000000E+00  0.74043220533E+02  0.74043220533E+02  0.00000000000E+00 0. -1.
         21   -1    0    0  501  503 -0.00000000000E+00 -0.00000000000E+00 -0.23828523544E+03  0.23828523544E+03  0.00000000000E+00 0.  1.
         24    1    1    2    0    0  0.69796334053E+02  0.51296645119E+01 -0.93389100329E+02  0.14172713826E+03  0.80419002446E+02 0.  1.
          1    1    1    2  501    0 -0.86164518074E+02 -0.22569519720E+02 -0.99326850570E+02  0.13341488163E+03  0.00000000000E+00 0. -1.
         -2    1    1    2    0  502  0.16368184020E+02  0.17439855208E+02  0.28473935992E+02  0.37186436085E+02  0.00000000000E+00 0.  1.
<mgrwt>
<rscale>  2 0.10979814E+03</rscale>
<asrwt>0</asrwt>
<pdfrwt beam="1">  1       21 0.11391265E-01 0.10979814E+03</pdfrwt>
<pdfrwt beam="2">  1       21 0.36659267E-01 0.10979814E+03</pdfrwt>
<totfact> 0.46710122E+05</totfact>
</mgrwt>
</event>
<event>
 5    1  0.1994521E+000  0.6681910E+02  0.7546771E-02  0.1371257E+00
         21   -1    0    0  503  502  0.00000000000E+00  0.00000000000E+00  0.32056168391E+03  0.32056168391E+03  0.00000000000E+00 0. -1.
         21   -1    0    0  501  503 -0.00000000000E+00 -0.00000000000E+00 -0.14789082711E+02  0.14789082711E+02  0.00000000000E+00 0. -1.
         24    1    1    2    0    0 -0.97803241591E+01  0.33994283435E+02  0.16568234162E+03  0.18753431773E+03  0.80419002446E+02 0. -1.
          1    1    1    2  501    0  0.17769216283E+02 -0.97749746928E+01  0.44874441022E+02  0.49244396987E+02  0.00000000000E+00 0. -1.
         -2    1    1    2    0  502 -0.79888921243E+01 -0.24219308742E+02  0.95215818554E+02  0.98572051902E+02  0.00000000000E+00 0.  1.
<mgrwt>
<rscale>  2 0.66819097E+02</rscale>
<asrwt>0</asrwt>
<pdfrwt beam="1">  1       21 0.49317177E-01 0.66819097E+02</pdfrwt>
<pdfrwt beam="2">  1       21 0.22752437E-02 0.66819097E+02</pdfrwt>
<totfact> 0.37435965E+06</totfact>
</mgrwt>
</event>
<event>
 5    1  0.1994521E+000  0.6707439E+02  0.7546771E-02  0.1370334E+00
         21   -1    0    0  503  502  0.00000000000E+00  0.00000000000E+00  0.25139064333E+04  0.25139064333E+04  0.00000000000E+00 0.  1.
         21   -1    0    0  501  503 -0.00000000000E+00 -0.00000000000E+00 -0.91679154734E+01  0.91679154734E+01  0.00000000000E+00 0. -1.
         24    1    1    2    0    0  0.38991079517E+01 -0.17439777483E+02  0.12691448517E+04  0.12718157175E+04  0.80419002446E+02 0.  1.
          1    1    1    2  501    0 -0.26177645957E+02  0.12204134599E+02  0.19272796484E+02  0.34722481672E+02  0.00000000000E+00 0. -1.
         -2    1    1    2    0  502  0.22278538006E+02  0.52356428845E+01  0.12163208697E+04  0.12165361496E+04  0.00000000000E+00 0.  1.
<mgrwt>
<rscale>  2 0.67074392E+02</rscale>
<asrwt>0</asrwt>
<pdfrwt beam="1">  1       21 0.38675429E+00 0.67074392E+02</pdfrwt>
<pdfrwt beam="2">  1       21 0.14104505E-02 0.67074392E+02</pdfrwt>
<totfact> 0.28761878E+04</totfact>
</mgrwt>
</event>
<event>
 5    1  0.1994521E+000  0.1620036E+03  0.7546771E-02  0.1186453E+00
         21   -1    0    0  501  502  0.00000000000E+00  0.00000000000E+00  0.24773129227E+03  0.24773129227E+03  0.00000000000E+00 0.  1.
         21   -1    0    0  502  503 -0.00000000000E+00 -0.00000000000E+00 -0.29262284174E+03  0.29262284174E+03  0.00000000000E+00 0.  1.
         24    1    1    2    0    0 -0.28726735991E+02 -0.14513666923E+03  0.38636503351E+02  0.17277115923E+03  0.80419002446E+02 0.  1.
          1    1    1    2  501    0  0.17387650916E+02  0.10117506176E+02  0.12077176013E+03  0.12243574797E+03  0.00000000000E+00 0. -1.
         -2    1    1    2    0  503  0.11339085075E+02  0.13501916305E+03 -0.20429981296E+03  0.24514722682E+03  0.00000000000E+00 0.  1.
<mgrwt>
<rscale>  2 0.16200356E+03</rscale>
<asrwt>0</asrwt>
<pdfrwt beam="1">  1       21 0.38112506E-01 0.16200356E+03</pdfrwt>
<pdfrwt beam="2">  1       21 0.45018899E-01 0.16200356E+03</pdfrwt>
<totfact> 0.31973578E+04</totfact>
</mgrwt>
</event>
<event>
 5    1  0.1994521E+000  0.7263543E+02  0.7546771E-02  0.1351354E+00
         21   -1    0    0  501  502  0.00000000000E+00  0.00000000000E+00  0.13213576915E+04  0.13213576915E+04  0.00000000000E+00 0.  1.
         21   -1    0    0  502  503 -0.00000000000E+00 -0.00000000000E+00 -0.70125256714E+01  0.70125256714E+01  0.00000000000E+00 0. -1.
         24    1    1    2    0    0  0.23415091245E+02  0.21660292424E+02  0.42560519776E+03  0.43430914690E+03  0.80419002446E+02 0. -1.
          1    1    1    2  501    0  0.49620090766E+01 -0.29019892156E+02  0.80123959929E+03  0.80178031351E+03  0.00000000000E+00 0. -1.
         -2    1    1    2    0  503 -0.28377100321E+02  0.73595997328E+01  0.87500368798E+02  0.92280756773E+02  0.00000000000E+00 0.  1.
<mgrwt>
<rscale>  2 0.72635428E+02</rscale>
<asrwt>0</asrwt>
<pdfrwt beam="1">  1       21 0.20328560E+00 0.72635428E+02</pdfrwt>
<pdfrwt beam="2">  1       21 0.10788512E-02 0.72635428E+02</pdfrwt>
<totfact> 0.45009545E+05</totfact>
</mgrwt>
</event>
<event>
 5    1  0.1994521E+000  0.9171516E+02  0.7546771E-02  0.1298751E+00
         21   -1    0    0  503  502  0.00000000000E+00  0.00000000000E+00  0.17470678294E+03  0.17470678294E+03  0.00000000000E+00 0.  1.
         21   -1    0    0  501  503 -0.00000000000E+00 -0.00000000000E+00 -0.19218378318E+03  0.19218378318E+03  0.00000000000E+00 0. -1.
         24    1    1    2    0    0  0.38714988594E+02 -0.62292905157E+02 -0.15131605513E+03  0.18639479840E+03  0.80419002446E+02 0. -1.
          1    1    1    2  501    0 -0.22800337905E+02  0.48243572757E+02  0.93050290804E+01  0.54165314428E+02  0.00000000000E+00 0. -1.
         -2    1    1    2    0  502 -0.15914650690E+02  0.14049332400E+02  0.12453402581E+03  0.12633045330E+03  0.00000000000E+00 0.  1.
<mgrwt>
<rscale>  2 0.91715164E+02</rscale>
<asrwt>0</asrwt>
<pdfrwt beam="1">  1       21 0.26877967E-01 0.91715164E+02</pdfrwt>
<pdfrwt beam="2">  1       21 0.29566736E-01 0.91715164E+02</pdfrwt>
<totfact> 0.14949769E+05</totfact>
</mgrwt>
</event>
<event>
 5    1  0.1994521E+000  0.9055339E+02  0.7546771E-02  0.1301517E+00
         21   -1    0    0  501  502  0.00000000000E+00  0.00000000000E+00  0.43216406629E+03  0.43216406629E+03  0.00000000000E+00 0.  1.
         21   -1    0    0  502  503 -0.00000000000E+00 -0.00000000000E+00 -0.20892968517E+02  0.20892968517E+02  0.00000000000E+00 0. -1.
         24    1    1    2    0    0  0.18399681024E+02 -0.35183683298E+02  0.14733573275E+03  0.17248615577E+03  0.80419002446E+02 0. -1.
          1    1    1    2  501    0  0.12058080452E+02 -0.22874436153E+02  0.11453952615E+03  0.11742206004E+03  0.00000000000E+00 0. -1.
         -2    1    1    2    0  503 -0.30457761476E+02  0.58058119451E+02  0.14939583888E+03  0.16314881900E+03  0.00000000000E+00 0.  1.
<mgrwt>
<rscale>  2 0.90553395E+02</rscale>
<asrwt>0</asrwt>
<pdfrwt beam="1">  1       21 0.66486773E-01 0.90553395E+02</pdfrwt>
<pdfrwt beam="2">  1       21 0.32143032E-02 0.90553395E+02</pdfrwt>
<totfact> 0.11677342E+06</totfact>
</mgrwt>
</event>
<event>
 5    1  0.1994521E+000  0.7302519E+02  0.7546771E-02  0.1350098E+00
         21   -1    0    0  501  502  0.00000000000E+00  0.00000000000E+00  0.10830982581E+02  0.10830982581E+02  0.00000000000E+00 0.  1.
         21   -1    0    0  502  503 -0.00000000000E+00 -0.00000000000E+00 -0.65000713559E+03  0.65000713559E+03  0.00000000000E+00 0. -1.
         24    1    1    2    0    0  0.10026546195E+02  0.18768024140E+02 -0.46091670987E+03  0.46836332025E+03  0.80419002446E+02 0. -1.
          1    1    1    2  501    0 -0.14042846401E+02 -0.39408790323E+02 -0.65140163036E+02  0.77417666783E+02  0.00000000000E+00 0. -1.
         -2    1    1    2    0  503  0.40163002053E+01  0.20640766183E+02 -0.11311928010E+03  0.11505713114E+03  0.00000000000E+00 0.  1.
<mgrwt>
<rscale>  2 0.73025190E+02</rscale>
<asrwt>0</asrwt>
<pdfrwt beam="1">  1       21 0.16663047E-02 0.73025190E+02</pdfrwt>
<pdfrwt beam="2">  1       21 0.10000112E+00 0.73025190E+02</pdfrwt>
<totfact> 0.13526930E+06</totfact>
</mgrwt>
</event>
<event>
 5    1  0.1994521E+000  0.1258257E+03  0.7546771E-02  0.1233784E+00
         21   -1    0    0  501  502  0.00000000000E+00  0.00000000000E+00  0.21271011781E+02  0.21271011781E+02  0.00000000000E+00 0. -1.
         21   -1    0    0  502  503 -0.00000000000E+00 -0.00000000000E+00 -0.13393752733E+04  0.13393752733E+04  0.00000000000E+00 0. -1.
         24    1    1    2    0    0 -0.69739592208E+02  0.79358357163E+02 -0.81640562759E+03  0.82713162453E+03  0.80419002446E+02 0. -1.
          1    1    1    2  501    0  0.73602693634E+02 -0.49334095982E+02 -0.11280200749E+03  0.14344163423E+03  0.00000000000E+00 0. -1.
         -2    1    1    2    0  503 -0.38631014255E+01 -0.30024261180E+02 -0.38889662640E+03  0.39007302629E+03  0.00000000000E+00 0.  1.
<mgrwt>
<rscale>  2 0.12582573E+03</rscale>
<asrwt>0</asrwt>
<pdfrwt beam="1">  1       21 0.32724634E-02 0.12582573E+03</pdfrwt>
<pdfrwt beam="2">  1       21 0.20605773E+00 0.12582573E+03</pdfrwt>
<totfact> 0.70482670E+04</totfact>
</mgrwt>
</event>
<event>
 5    1  0.1994521E+000  0.6902782E+02  0.7546771E-02  0.1363431E+00
         21   -1    0    0  503  502  0.00000000000E+00  0.00000000000E+00  0.48178293349E+02  0.48178293349E+02  0.00000000000E+00 0.  1.
         21   -1    0    0  501  503 -0.00000000000E+00 -0.00000000000E+00 -0.35241571569E+03  0.35241571569E+03  0.00000000000E+00 0. -1.
         24    1    1    2    0    0  0.71241736651E+01  0.16678068050E+02 -0.26495517244E+03  0.27748400163E+03  0.80419002446E+02 0.  0.
          1    1    1    2  501    0  0.18661788106E+02 -0.22449356935E+02 -0.73959527372E+02  0.79512562851E+02  0.00000000000E+00 0. -1.
         -2    1    1    2    0  502 -0.25785961771E+02  0.57712888850E+01  0.34677277466E+02  0.43597444562E+02  0.00000000000E+00 0.  1.
<mgrwt>
<rscale>  2 0.69027816E+02</rscale>
<asrwt>0</asrwt>
<pdfrwt beam="1">  1       21 0.74120449E-02 0.69027816E+02</pdfrwt>
<pdfrwt beam="2">  1       21 0.54217804E-01 0.69027816E+02</pdfrwt>
<totfact> 0.44690529E+05</totfact>
</mgrwt>
</event>
<event>
 5    1  0.1994521E+000  0.7274915E+02  0.7546771E-02  0.1350986E+00
         21   -1    0    0  501  502  0.00000000000E+00  0.00000000000E+00  0.21139831124E+03  0.21139831124E+03  0.00000000000E+00 0. -1.
         21   -1    0    0  502  503 -0.00000000000E+00 -0.00000000000E+00 -0.62873860553E+02  0.62873860553E+02  0.00000000000E+00 0.  1.
         24    1    1    2    0    0  0.23794881408E+02 -0.22686588639E+01  0.35276456736E+02  0.91010919941E+02  0.80419002446E+02 0.  1.
          1    1    1    2  501    0  0.49198993097E+01  0.24687030191E+02  0.13731260763E+03  0.13960088497E+03  0.00000000000E+00 0. -1.
         -2    1    1    2    0  503 -0.28714780718E+02 -0.22418371327E+02 -0.24064613683E+02  0.43660366883E+02  0.00000000000E+00 0.  1.
<mgrwt>
<rscale>  2 0.72749155E+02</rscale>
<asrwt>0</asrwt>
<pdfrwt beam="1">  1       21 0.32522817E-01 0.72749155E+02</pdfrwt>
<pdfrwt beam="2">  1       21 0.96729017E-02 0.72749155E+02</pdfrwt>
<totfact> 0.78136382E+05</totfact>
</mgrwt>
</event>
<event>
 5    1  0.1994521E+000  0.1012970E+03  0.7546771E-02  0.1277592E+00
         21   -1    0    0  503  502  0.00000000000E+00  0.00000000000E+00  0.36376904794E+02  0.36376904794E+02  0.00000000000E+00 0. -1.
         21   -1    0    0  501  503 -0.00000000000E+00 -0.00000000000E+00 -0.39430406048E+03  0.39430406048E+03  0.00000000000E+00 0.  1.
         24    1    1    2    0    0 -0.55526078874E+01  0.28882606463E+02 -0.27222959429E+03  0.28537905384E+03  0.80419002446E+02 0.  1.
          1    1    1    2  501    0 -0.53892619110E+02 -0.13156567637E+02 -0.46448183794E+02  0.72352909025E+02  0.00000000000E+00 0. -1.
         -2    1    1    2    0  502  0.59445226998E+02 -0.15726038826E+02 -0.39249377600E+02  0.72949002405E+02  0.00000000000E+00 0.  1.
<mgrwt>
<rscale>  2 0.10129703E+03</rscale>
<asrwt>0</asrwt>
<pdfrwt beam="1">  1       21 0.55964473E-02 0.10129703E+03</pdfrwt>
<pdfrwt beam="2">  1       21 0.60662159E-01 0.10129703E+03</pdfrwt>
<totfact> 0.56752104E+05</totfact>
</mgrwt>
</event>
<event>
 5    1  0.1994521E+000  0.9200831E+02  0.7546771E-02  0.1298060E+00
         21   -1    0    0  503  502  0.00000000000E+00  0.00000000000E+00  0.17252794416E+03  0.17252794416E+03  0.00000000000E+00 0.  1.
         21   -1    0    0  501  503 -0.00000000000E+00 -0.00000000000E+00 -0.49953241189E+02  0.49953241189E+02  0.00000000000E+00 0. -1.
         24    1    1    2    0    0 -0.48486949263E+00  0.49561443649E+02  0.71243406735E+02  0.11831910561E+03  0.80419002446E+02 0.  0.
          1    1    1    2  501    0 -0.18821368534E+02 -0.63180509920E+02  0.30394312651E+02  0.72593629119E+02  0.00000000000E+00 0. -1.
         -2    1    1    2    0  502  0.19306238026E+02  0.13619066271E+02  0.20936983585E+02  0.31568450618E+02  0.00000000000E+00 0.  1.
<mgrwt>
<rscale>  2 0.92008311E+02</rscale>
<asrwt>0</asrwt>
<pdfrwt beam="1">  1       21 0.26542760E-01 0.92008311E+02</pdfrwt>
<pdfrwt beam="2">  1       21 0.76851141E-02 0.92008311E+02</pdfrwt>
<totfact> 0.17145882E+06</totfact>
</mgrwt>
</event>
<event>
 5    1  0.1994521E+000  0.7713555E+02  0.7546771E-02  0.1337383E+00
         21   -1    0    0  503  502  0.00000000000E+00  0.00000000000E+00  0.25009518576E+02  0.25009518576E+02  0.00000000000E+00 0.  1.
         21   -1    0    0  501  503 -0.00000000000E+00 -0.00000000000E+00 -0.39924972790E+03  0.39924972790E+03  0.00000000000E+00 0. -1.
         24    1    1    2    0    0 -0.42881271359E+01 -0.16681465457E+02 -0.16072430511E+03  0.18054411519E+03  0.80419002446E+02 0.  1.
          1    1    1    2  501    0 -0.32086687032E+02  0.18406159866E+00 -0.19844952950E+03  0.20102687661E+03  0.00000000000E+00 0. -1.
         -2    1    1    2    0  502  0.36374814168E+02  0.16497403858E+02 -0.15066374724E+02  0.42688254674E+02  0.00000000000E+00 0.  1.
<mgrwt>
<rscale>  2 0.77135549E+02</rscale>
<asrwt>0</asrwt>
<pdfrwt beam="1">  1       21 0.38476184E-02 0.77135549E+02</pdfrwt>
<pdfrwt beam="2">  1       21 0.61423032E-01 0.77135549E+02</pdfrwt>
<totfact> 0.10263583E+06</totfact>
</mgrwt>
</event>
<event>
 5    1  0.1994521E+000  0.1123443E+03  0.7546771E-02  0.1256289E+00
         21   -1    0    0  503  502  0.00000000000E+00  0.00000000000E+00  0.72207831774E+03  0.72207831774E+03  0.00000000000E+00 0.  1.
         21   -1    0    0  501  503 -0.00000000000E+00 -0.00000000000E+00 -0.19809818938E+02  0.19809818938E+02  0.00000000000E+00 0. -1.
         24    1    1    2    0    0 -0.51539692012E+02 -0.31313949264E+02  0.23758293536E+03  0.25797242178E+03  0.80419002446E+02 0.  0.
          1    1    1    2  501    0 -0.28329096543E+01 -0.36859580489E+02  0.64531348155E+02  0.74370349910E+02  0.00000000000E+00 0. -1.
         -2    1    1    2    0  502  0.54372601666E+02  0.68173529753E+02  0.40015421528E+03  0.40954536498E+03  0.00000000000E+00 0.  1.
<mgrwt>
<rscale>  2 0.11234425E+03</rscale>
<asrwt>0</asrwt>
<pdfrwt beam="1">  1       21 0.11108895E+00 0.11234425E+03</pdfrwt>
<pdfrwt beam="2">  1       21 0.30476650E-02 0.11234425E+03</pdfrwt>
<totfact> 0.40043774E+05</totfact>
</mgrwt>
</event>
<event>
 5    1  0.1994521E+000  0.9320339E+02  0.7546771E-02  0.1295275E+00
         21   -1    0    0  501  502  0.00000000000E+00  0.00000000000E+00  0.41483311421E+02  0.41483311421E+02  0.00000000000E+00 0. -1.
         21   -1    0    0  502  503 -0.00000000000E+00 -0.00000000000E+00 -0.30957144827E+03  0.30957144827E+03  0.00000000000E+00 0. -1.
         24    1    1    2    0    0  0.60490315422E+02  0.38431809721E+02 -0.15039677520E+03  0.18499321123E+03  0.80419002446E+02 0. -1.
          1    1    1    2  501    0 -0.52019949613E+02 -0.15558379449E+02 -0.94586821088E+01  0.55114471748E+02  0.00000000000E+00 0. -1.
         -2    1    1    2    0  503 -0.84703658080E+01 -0.22873430272E+02 -0.10823267954E+03  0.11094707671E+03  0.00000000000E+00 0.  1.
<mgrwt>
<rscale>  2 0.93203389E+02</rscale>
<asrwt>0</asrwt>
<pdfrwt beam="1">  1       21 0.63820481E-02 0.93203389E+02</pdfrwt>
<pdfrwt beam="2">  1       21 0.47626376E-01 0.93203389E+02</pdfrwt>
<totfact> 0.75052650E+05</totfact>
</mgrwt>
</event>
<event>
 5    1  0.1994521E+000  0.8006097E+02  0.7546771E-02  0.1328879E+00
         21   -1    0    0  503  502  0.00000000000E+00  0.00000000000E+00  0.28289254721E+02  0.28289254721E+02  0.00000000000E+00 0.  1.
         21   -1    0    0  501  503 -0.00000000000E+00 -0.00000000000E+00 -0.49468827941E+03  0.49468827941E+03  0.00000000000E+00 0. -1.
         24    1    1    2    0    0  0.48843208629E+02 -0.31470723912E+02 -0.21993388885E+03  0.24127618389E+03  0.80419002446E+02 0.  0.
          1    1    1    2  501    0 -0.29170115402E+02  0.79282297693E+01 -0.24908212396E+03  0.25090965892E+03  0.00000000000E+00 0. -1.
         -2    1    1    2    0  502 -0.19673093227E+02  0.23542494142E+02  0.26169881283E+01  0.30791691321E+02  0.00000000000E+00 0.  1.
<mgrwt>
<rscale>  2 0.80060966E+02</rscale>
<asrwt>0</asrwt>
<pdfrwt beam="1">  1       21 0.43521930E-02 0.80060966E+02</pdfrwt>
<pdfrwt beam="2">  1       21 0.76105890E-01 0.80060966E+02</pdfrwt>
<totfact> 0.53020300E+05</totfact>
</mgrwt>
</event>
<event>
 5    1  0.1994521E+000  0.1719010E+03  0.7546771E-02  0.1175880E+00
         21   -1    0    0  501  502  0.00000000000E+00  0.00000000000E+00  0.11532463561E+03  0.11532463561E+03  0.00000000000E+00 0. -1.
         21   -1    0    0  502  503 -0.00000000000E+00 -0.00000000000E+00 -0.49898745205E+03  0.49898745205E+03  0.00000000000E+00 0.  1.
         24    1    1    2    0    0 -0.30534768203E+02 -0.15369670806E+03 -0.37646422707E+03  0.41562913800E+03  0.80419002446E+02 0.  1.
          1    1    1    2  501    0  0.19527182572E+01  0.13141527566E+03  0.41638615567E+02  0.13786791539E+03  0.00000000000E+00 0. -1.
         -2    1    1    2    0  503  0.28582049946E+02  0.22281432392E+02 -0.48837204935E+02  0.60815034280E+02  0.00000000000E+00 0.  1.
<mgrwt>
<rscale>  2 0.17190099E+03</rscale>
<asrwt>0</asrwt>
<pdfrwt beam="1">  1       21 0.17742252E-01 0.17190099E+03</pdfrwt>
<pdfrwt beam="2">  1       21 0.76767300E-01 0.17190099E+03</pdfrwt>
<totfact> 0.43977101E+04</totfact>
</mgrwt>
</event>
<event>
 5    1  0.1994521E+000  0.7922959E+02  0.7546771E-02  0.1331252E+00
         21   -1    0    0  501  502  0.00000000000E+00  0.00000000000E+00  0.23980792933E+03  0.23980792933E+03  0.00000000000E+00 0. -1.
         21   -1    0    0  502  503 -0.00000000000E+00 -0.00000000000E+00 -0.34438672966E+03  0.34438672966E+03  0.00000000000E+00 0.  1.
         24    1    1    2    0    0  0.21081524307E+02  0.54901395253E+02  0.15805868752E+02  0.10087435407E+03  0.80419002446E+02 0.  1.
          1    1    1    2  501    0 -0.96024059202E+01 -0.22841795585E+02  0.17965438243E+03  0.18135504115E+03  0.00000000000E+00 0. -1.
         -2    1    1    2    0  503 -0.11479118386E+02 -0.32059599668E+02 -0.30003905151E+03  0.30196526377E+03  0.00000000000E+00 0.  1.
<mgrwt>
<rscale>  2 0.79229588E+02</rscale>
<asrwt>0</asrwt>
<pdfrwt beam="1">  1       21 0.36893528E-01 0.79229588E+02</pdfrwt>
<pdfrwt beam="2">  1       21 0.52982574E-01 0.79229588E+02</pdfrwt>
<totfact> 0.25965355E+04</totfact>
</mgrwt>
</event>
<event>
 5    1  0.1994521E+000  0.1008740E+03  0.7546771E-02  0.1278469E+00
         21   -1    0    0  503  502  0.00000000000E+00  0.00000000000E+00  0.42726790212E+02  0.42726790212E+02  0.00000000000E+00 0.  1.
         21   -1    0    0  501  503 -0.00000000000E+00 -0.00000000000E+00 -0.32944948500E+03  0.32944948500E+03  0.00000000000E+00 0.  1.
         24    1    1    2    0    0  0.71848255988E+02  0.37675904126E+02 -0.11345029633E+03  0.16099637055E+03  0.80419002446E+02 0.  1.
          1    1    1    2  501    0 -0.41243904189E+02 -0.39163814866E+02 -0.17127816133E+03  0.18047457599E+03  0.00000000000E+00 0. -1.
         -2    1    1    2    0  502 -0.30604351799E+02  0.14879107399E+01 -0.19942371325E+01  0.30705328677E+02  0.00000000000E+00 0.  1.
<mgrwt>
<rscale>  2 0.10087399E+03</rscale>
<asrwt>0</asrwt>
<pdfrwt beam="1">  1       21 0.65733524E-02 0.10087399E+03</pdfrwt>
<pdfrwt beam="2">  1       21 0.50684536E-01 0.10087399E+03</pdfrwt>
<totfact> 0.62897095E+05</totfact>
</mgrwt>
</event>
<event>
 5    1  0.1994521E+000  0.6232748E+02  0.7546771E-02  0.1388316E+00
         21   -1    0    0  501  502  0.00000000000E+00  0.00000000000E+00  0.30458682613E+03  0.30458682613E+03  0.00000000000E+00 0. -1.
         21   -1    0    0  502  503 -0.00000000000E+00 -0.00000000000E+00 -0.26563950883E+03  0.26563950883E+03  0.00000000000E+00 0. -1.
         24    1    1    2    0    0  0.24102181180E+01 -0.19523789682E+01 -0.99738462813E+02  0.12815848725E+03  0.80419002446E+02 0. -1.
          1    1    1    2  501    0 -0.60998367169E+01 -0.20517667101E+02  0.28912437951E+03  0.28991565928E+03  0.00000000000E+00 0. -1.
         -2    1    1    2    0  503  0.36896185989E+01  0.22470046070E+02 -0.15043859940E+03  0.15215218843E+03  0.00000000000E+00 0.  1.
<mgrwt>
<rscale>  2 0.62327476E+02</rscale>
<asrwt>0</asrwt>
<pdfrwt beam="1">  1       21 0.46859512E-01 0.62327476E+02</pdfrwt>
<pdfrwt beam="2">  1       21 0.40867617E-01 0.62327476E+02</pdfrwt>
<totfact> 0.27813686E+04</totfact>
</mgrwt>
</event>
<event>
 5    1  0.1994521E+000  0.7994449E+02  0.7546771E-02  0.1329209E+00
         21   -1    0    0  503  502  0.00000000000E+00  0.00000000000E+00  0.23927953378E+02  0.23927953378E+02  0.00000000000E+00 0.  1.
         21   -1    0    0  501  503 -0.00000000000E+00 -0.00000000000E+00 -0.29553515375E+03  0.29553515375E+03  0.00000000000E+00 0.  1.
         24    1    1    2    0    0  0.37656057521E+02  0.25062853558E+02 -0.17932567947E+03  0.20167062396E+03  0.80419002446E+02 0.  1.
          1    1    1    2  501    0  0.41814203466E+01 -0.25440684692E+02 -0.58806306457E+02  0.64209768671E+02  0.00000000000E+00 0. -1.
         -2    1    1    2    0  502 -0.41837477868E+02  0.37783113478E+00 -0.33475214443E+02  0.53582714496E+02  0.00000000000E+00 0.  1.
<mgrwt>
<rscale>  2 0.79944488E+02</rscale>
<asrwt>0</asrwt>
<pdfrwt beam="1">  1       21 0.36812234E-02 0.79944488E+02</pdfrwt>
<pdfrwt beam="2">  1       21 0.45466949E-01 0.79944488E+02</pdfrwt>
<totfact> 0.20469625E+06</totfact>
</mgrwt>
</event>
<event>
 5    1  0.1994521E+000  0.9376410E+02  0.7546771E-02  0.1293984E+00
         21   -1    0    0  503  502  0.00000000000E+00  0.00000000000E+00  0.26027480315E+02  0.26027480315E+02  0.00000000000E+00 0.  1.
         21   -1    0    0  501  503 -0.00000000000E+00 -0.00000000000E+00 -0.38730357150E+03  0.38730357150E+03  0.00000000000E+00 0.  1.
         24    1    1    2    0    0 -0.37598594650E+02  0.66605991586E+02 -0.15110856213E+03  0.18748606865E+03  0.80419002446E+02 0.  1.
          1    1    1    2  501    0  0.22148994159E+02 -0.42219728109E+02 -0.85657176752E+02  0.98031807659E+02  0.00000000000E+00 0. -1.
         -2    1    1    2    0  502  0.15449600490E+02 -0.24386263477E+02 -0.12451035231E+03  0.12781317551E+03  0.00000000000E+00 0.  1.
<mgrwt>
<rscale>  2 0.93764098E+02</rscale>
<asrwt>0</asrwt>
<pdfrwt beam="1">  1       21 0.40042276E-02 0.93764098E+02</pdfrwt>
<pdfrwt beam="2">  1       21 0.59585167E-01 0.93764098E+02</pdfrwt>
<totfact> 0.10281117E+06</totfact>
</mgrwt>
</event>
<event>
 5    1  0.1994521E+000  0.7007321E+02  0.7546771E-02  0.1359844E+00
         21   -1    0    0  501  502  0.00000000000E+00  0.00000000000E+00  0.82845928683E+02  0.82845928683E+02  0.00000000000E+00 0.  1.
         21   -1    0    0  502  503 -0.00000000000E+00 -0.00000000000E+00 -0.14539761200E+03  0.14539761200E+03  0.00000000000E+00 0.  1.
         24    1    1    2    0    0  0.37350157954E+02 -0.46834155462E+01  0.12409258906E+02  0.89655866185E+02  0.80419002446E+02 0.  1.
          1    1    1    2  501    0 -0.16564442542E+02  0.19679545608E+02  0.24713241128E+02  0.35670850272E+02  0.00000000000E+00 0. -1.
         -2    1    1    2    0  503 -0.20785715412E+02 -0.14996130062E+02 -0.99674183356E+02  0.10291682423E+03  0.00000000000E+00 0.  1.
<mgrwt>
<rscale>  2 0.70073215E+02</rscale>
<asrwt>0</asrwt>
<pdfrwt beam="1">  1       21 0.12745528E-01 0.70073215E+02</pdfrwt>
<pdfrwt beam="2">  1       21 0.22368863E-01 0.70073215E+02</pdfrwt>
<totfact> 0.97591656E+05</totfact>
</mgrwt>
</event>
<event>
 5    1  0.1994521E+000  0.1000467E+03  0.7546771E-02  0.1280198E+00
         21   -1    0    0  503  502  0.00000000000E+00  0.00000000000E+00  0.46567553523E+03  0.46567553523E+03  0.00000000000E+00 0. -1.
         21   -1    0    0  501  503 -0.00000000000E+00 -0.00000000000E+00 -0.54202851555E+02  0.54202851555E+02  0.00000000000E+00 0. -1.
         24    1    1    2    0    0 -0.96855655160E+00  0.14775593810E+02  0.37360162069E+03  0.38244560818E+03  0.80419002446E+02 0. -1.
          1    1    1    2  501    0 -0.29253761116E+02 -0.58362058349E+02 -0.99269690116E+01  0.66033757336E+02  0.00000000000E+00 0. -1.
         -2    1    1    2    0  502  0.30222317668E+02  0.43586464538E+02  0.47798031992E+02  0.71399021271E+02  0.00000000000E+00 0.  1.
<mgrwt>
<rscale>  2 0.10004674E+03</rscale>
<asrwt>0</asrwt>
<pdfrwt beam="1">  1       21 0.71642387E-01 0.10004674E+03</pdfrwt>
<pdfrwt beam="2">  1       21 0.83389006E-02 0.10004674E+03</pdfrwt>
<totfact> 0.20197123E+05</totfact>
</mgrwt>
</event>
<event>
 5    1  0.1994521E+000  0.1057969E+03  0.7546771E-02  0.1268557E+00
         21   -1    0    0  503  502  0.00000000000E+00  0.00000000000E+00  0.34511454420E+03  0.34511454420E+03  0.00000000000E+00 0.  1.
         21   -1    0    0  501  503 -0.00000000000E+00 -0.00000000000E+00 -0.35231139356E+02  0.35231139356E+02  0.00000000000E+00 0.  1.
         24    1    1    2    0    0  0.61233078741E+02  0.56187231649E+02  0.11517953682E+03  0.16321775819E+03  0.80419002446E+02 0.  1.
          1    1    1    2  501    0 -0.30966333994E+02  0.12863999445E+01  0.57337569348E+02  0.65177952749E+02  0.00000000000E+00 0. -1.
         -2    1    1    2    0  502 -0.30266744747E+02 -0.57473631594E+02  0.13736629868E+03  0.15194997262E+03  0.00000000000E+00 0.  1.
<mgrwt>
<rscale>  2 0.10579695E+03</rscale>
<asrwt>0</asrwt>
<pdfrwt beam="1">  1       21 0.53094543E-01 0.10579695E+03</pdfrwt>
<pdfrwt beam="2">  1       21 0.54201755E-02 0.10579695E+03</pdfrwt>
<totfact> 0.79128586E+05</totfact>
</mgrwt>
</event>
<event>
 5    1  0.1994521E+000  0.9915500E+02  0.7546771E-02  0.1282083E+00
         21   -1    0    0  501  502  0.00000000000E+00  0.00000000000E+00  0.26981511811E+03  0.26981511811E+03  0.00000000000E+00 0.  1.
         21   -1    0    0  502  503 -0.00000000000E+00 -0.00000000000E+00 -0.36489454907E+02  0.36489454907E+02  0.00000000000E+00 0. -1.
         24    1    1    2    0    0  0.49059331613E+02  0.24183393554E+02  0.10916983151E+03  0.14620849021E+03  0.80419002446E+02 0.  1.
          1    1    1    2  501    0  0.21779841168E+02  0.80572115329E+01  0.27160535032E+02  0.35734784206E+02  0.00000000000E+00 0. -1.
         -2    1    1    2    0  503 -0.70839172781E+02 -0.32240605087E+02  0.96995296666E+02  0.12436129861E+03  0.00000000000E+00 0.  1.
<mgrwt>
<rscale>  2 0.99155003E+02</rscale>
<asrwt>0</asrwt>
<pdfrwt beam="1">  1       21 0.41510017E-01 0.99155003E+02</pdfrwt>
<pdfrwt beam="2">  1       21 0.56137625E-02 0.99155003E+02</pdfrwt>
<totfact> 0.12289646E+06</totfact>
</mgrwt>
</event>
<event>
 5    1  0.1994521E+000  0.8719892E+02  0.7546771E-02  0.1309780E+00
         21   -1    0    0  501  502  0.00000000000E+00  0.00000000000E+00  0.11548206143E+03  0.11548206143E+03  0.00000000000E+00 0. -1.
         21   -1    0    0  502  503 -0.00000000000E+00 -0.00000000000E+00 -0.77398197157E+02  0.77398197157E+02  0.00000000000E+00 0. -1.
         24    1    1    2    0    0 -0.52281714178E+02  0.22995285549E+02  0.12823502062E+02  0.99467677938E+02  0.80419002446E+02 0. -1.
          1    1    1    2  501    0  0.47911677507E+02  0.43121453154E+01  0.39557148098E+02  0.62280746659E+02  0.00000000000E+00 0. -1.
         -2    1    1    2    0  503  0.43700366714E+01 -0.27307430864E+02 -0.14296785887E+02  0.31131833990E+02  0.00000000000E+00 0.  1.
<mgrwt>
<rscale>  2 0.87198916E+02</rscale>
<asrwt>0</asrwt>
<pdfrwt beam="1">  1       21 0.17766471E-01 0.87198916E+02</pdfrwt>
<pdfrwt beam="2">  1       21 0.11907415E-01 0.87198916E+02</pdfrwt>
<totfact> 0.16845892E+06</totfact>
</mgrwt>
</event>
<event>
 5    1  0.1994521E+000  0.9747314E+02  0.7546771E-02  0.1285701E+00
         21   -1    0    0  501  502  0.00000000000E+00  0.00000000000E+00  0.33468044354E+03  0.33468044354E+03  0.00000000000E+00 0. -1.
         21   -1    0    0  502  503 -0.00000000000E+00 -0.00000000000E+00 -0.36182305600E+02  0.36182305600E+02  0.00000000000E+00 0.  1.
         24    1    1    2    0    0 -0.32234058111E+02  0.23503019814E+02  0.88759381641E+02  0.12624131743E+03  0.80419002446E+02 0.  1.
          1    1    1    2  501    0 -0.14550688141E+02 -0.49541204141E+02  0.17075390920E+03  0.17838988463E+03  0.00000000000E+00 0. -1.
         -2    1    1    2    0  503  0.46784746252E+02  0.26038184327E+02  0.38984847104E+02  0.66231547080E+02  0.00000000000E+00 0.  1.
<mgrwt>
<rscale>  2 0.97473142E+02</rscale>
<asrwt>0</asrwt>
<pdfrwt beam="1">  1       21 0.51489297E-01 0.97473142E+02</pdfrwt>
<pdfrwt beam="2">  1       21 0.55665088E-02 0.97473142E+02</pdfrwt>
<totfact> 0.80573513E+05</totfact>
</mgrwt>
</event>
<event>
 5    1  0.1994521E+000  0.7260892E+02  0.7546771E-02  0.1351439E+00
         21   -1    0    0  501  502  0.00000000000E+00  0.00000000000E+00  0.39623259201E+02  0.39623259201E+02  0.00000000000E+00 0. -1.
         21   -1    0    0  502  503 -0.00000000000E+00 -0.00000000000E+00 -0.23477121460E+03  0.23477121460E+03  0.00000000000E+00 0. -1.
         24    1    1    2    0    0  0.81694788119E+01 -0.23286000201E+02 -0.11132229087E+03  0.13953080874E+03  0.80419002446E+02 0. -1.
          1    1    1    2  501    0 -0.30893995530E+02  0.22750363995E+02  0.89057533550E+01  0.39386932662E+02  0.00000000000E+00 0. -1.
         -2    1    1    2    0  503  0.22724516718E+02  0.53563620632E+00 -0.92731417885E+02  0.95476732397E+02  0.00000000000E+00 0.  1.
<mgrwt>
<rscale>  2 0.72608916E+02</rscale>
<asrwt>0</asrwt>
<pdfrwt beam="1">  1       21 0.60958862E-02 0.72608916E+02</pdfrwt>
<pdfrwt beam="2">  1       21 0.36118648E-01 0.72608916E+02</pdfrwt>
<totfact> 0.13955389E+06</totfact>
</mgrwt>
</event>
<event>
 5    1  0.1994521E+000  0.9850013E+02  0.7546771E-02  0.1283482E+00
         21   -1    0    0  503  502  0.00000000000E+00  0.00000000000E+00  0.15956762110E+02  0.15956762110E+02  0.00000000000E+00 0. -1.
         21   -1    0    0  501  503 -0.00000000000E+00 -0.00000000000E+00 -0.11768777034E+04  0.11768777034E+04  0.00000000000E+00 0. -1.
         24    1    1    2    0    0  0.37806582007E+02  0.46457583127E+02 -0.21109704324E+03  0.23370242252E+03  0.80419002446E+02 0. -1.
          1    1    1    2  501    0 -0.61316553477E+02 -0.34324408277E+02 -0.89982886620E+03  0.90256848670E+03  0.00000000000E+00 0. -1.
         -2    1    1    2    0  502  0.23509971470E+02 -0.12133174850E+02 -0.49995031843E+02  0.56563556284E+02  0.00000000000E+00 0.  1.
<mgrwt>
<rscale>  2 0.98500127E+02</rscale>
<asrwt>0</asrwt>
<pdfrwt beam="1">  1       21 0.24548858E-02 0.98500127E+02</pdfrwt>
<pdfrwt beam="2">  1       21 0.18105816E+00 0.98500127E+02</pdfrwt>
<totfact> 0.16571716E+05</totfact>
</mgrwt>
</event>
<event>
 5    1  0.1994521E+000  0.1111155E+03  0.7546771E-02  0.1258518E+00
         21   -1    0    0  501  502  0.00000000000E+00  0.00000000000E+00  0.68315334005E+02  0.68315334005E+02  0.00000000000E+00 0.  1.
         21   -1    0    0  502  503 -0.00000000000E+00 -0.00000000000E+00 -0.20276660022E+03  0.20276660022E+03  0.00000000000E+00 0. -1.
         24    1    1    2    0    0 -0.24739456250E+02 -0.37805611710E+02 -0.79757396739E+02  0.12194163875E+03  0.80419002446E+02 0.  0.
          1    1    1    2  501    0  0.60795628758E+02  0.61790594363E+02 -0.10587648022E+02  0.87328599659E+02  0.00000000000E+00 0. -1.
         -2    1    1    2    0  503 -0.36056172507E+02 -0.23984982653E+02 -0.44106221457E+02  0.61811695819E+02  0.00000000000E+00 0.  1.
<mgrwt>
<rscale>  2 0.11111555E+03</rscale>
<asrwt>0</asrwt>
<pdfrwt beam="1">  1       21 0.10510051E-01 0.11111555E+03</pdfrwt>
<pdfrwt beam="2">  1       21 0.31194862E-01 0.11111555E+03</pdfrwt>
<totfact> 0.73661846E+05</totfact>
</mgrwt>
</event>
<event>
 5    1  0.1994521E+000  0.1288908E+03  0.7546771E-02  0.1229111E+00
         21   -1    0    0  501  502  0.00000000000E+00  0.00000000000E+00  0.23766578174E+02  0.23766578174E+02  0.00000000000E+00 0.  1.
         21   -1    0    0  502  503 -0.00000000000E+00 -0.00000000000E+00 -0.81509381267E+03  0.81509381267E+03  0.00000000000E+00 0.  1.
         24    1    1    2    0    0 -0.71994976449E+02  0.46310913543E+02 -0.22556446398E+03  0.25431185720E+03  0.80419002446E+02 0.  1.
          1    1    1    2  501    0  0.46985711589E+01 -0.69114269062E+02 -0.19255620639E+03  0.20463809855E+03  0.00000000000E+00 0. -1.
         -2    1    1    2    0  503  0.67296405290E+02  0.22803355519E+02 -0.37320656413E+03  0.37991043510E+03  0.00000000000E+00 0.  1.
<mgrwt>
<rscale>  2 0.12889082E+03</rscale>
<asrwt>0</asrwt>
<pdfrwt beam="1">  1       21 0.36563971E-02 0.12889082E+03</pdfrwt>
<pdfrwt beam="2">  1       21 0.12539903E+00 0.12889082E+03</pdfrwt>
<totfact> 0.22025349E+05</totfact>
</mgrwt>
</event>
<event>
 5    1  0.1994521E+000  0.8973491E+02  0.7546771E-02  0.1303495E+00
         21   -1    0    0  501  502  0.00000000000E+00  0.00000000000E+00  0.48198073387E+02  0.48198073387E+02  0.00000000000E+00 0.  1.
         21   -1    0    0  502  503 -0.00000000000E+00 -0.00000000000E+00 -0.24890082839E+03  0.24890082839E+03  0.00000000000E+00 0.  1.
         24    1    1    2    0    0 -0.17229509945E+02  0.16000549094E+02 -0.69578973822E+02  0.10890970176E+03  0.80419002446E+02 0.  0.
          1    1    1    2  501    0 -0.18762128480E+02 -0.45455795053E+02 -0.12107190991E+00  0.49175821573E+02  0.00000000000E+00 0. -1.
         -2    1    1    2    0  503  0.35991638424E+02  0.29455245960E+02 -0.13100270927E+03  0.13901337844E+03  0.00000000000E+00 0.  1.
<mgrwt>
<rscale>  2 0.89734907E+02</rscale>
<asrwt>0</asrwt>
<pdfrwt beam="1">  1       21 0.74150884E-02 0.89734907E+02</pdfrwt>
<pdfrwt beam="2">  1       21 0.38292434E-01 0.89734907E+02</pdfrwt>
<totfact> 0.89965692E+05</totfact>
</mgrwt>
</event>
<event>
 5    1  0.1994521E+000  0.8689792E+02  0.7546771E-02  0.1310543E+00
         21   -1    0    0  503  502  0.00000000000E+00  0.00000000000E+00  0.16625715762E+02  0.16625715762E+02  0.00000000000E+00 0.  1.
         21   -1    0    0  501  503 -0.00000000000E+00 -0.00000000000E+00 -0.66160839666E+03  0.66160839666E+03  0.00000000000E+00 0. -1.
         24    1    1    2    0    0 -0.66483534784E+02 -0.11434165212E+00 -0.19107103886E+03  0.21770491799E+03  0.80419002446E+02 0. -1.
          1    1    1    2  501    0  0.33360289920E+02  0.10103921871E+02 -0.33134235320E+03  0.33317075682E+03  0.00000000000E+00 0. -1.
         -2    1    1    2    0  502  0.33123244864E+02 -0.99895802187E+01 -0.12256928884E+03  0.12735843761E+03  0.00000000000E+00 0.  1.
<mgrwt>
<rscale>  2 0.86897917E+02</rscale>
<asrwt>0</asrwt>
<pdfrwt beam="1">  1       21 0.25578021E-02 0.86897917E+02</pdfrwt>
<pdfrwt beam="2">  1       21 0.10178592E+00 0.86897917E+02</pdfrwt>
<totfact> 0.65618159E+05</totfact>
</mgrwt>
</event>
<event>
 5    1  0.1994521E+000  0.7348463E+02  0.7546771E-02  0.1348629E+00
         21   -1    0    0  501  502  0.00000000000E+00  0.00000000000E+00  0.15207695713E+02  0.15207695713E+02  0.00000000000E+00 0. -1.
         21   -1    0    0  502  503 -0.00000000000E+00 -0.00000000000E+00 -0.53919747681E+03  0.53919747681E+03  0.00000000000E+00 0. -1.
         24    1    1    2    0    0 -0.31291312629E+02  0.19673931322E+02 -0.17747039818E+03  0.19831582893E+03  0.80419002446E+02 0. -1.
          1    1    1    2  501    0  0.11200355681E+02 -0.32668741115E+02 -0.65444074290E+02  0.73997442341E+02  0.00000000000E+00 0. -1.
         -2    1    1    2    0  503  0.20090956948E+02  0.12994809793E+02 -0.28107530862E+03  0.28209190125E+03  0.00000000000E+00 0.  1.
<mgrwt>
<rscale>  2 0.73484634E+02</rscale>
<asrwt>0</asrwt>
<pdfrwt beam="1">  1       21 0.23396450E-02 0.73484634E+02</pdfrwt>
<pdfrwt beam="2">  1       21 0.82953475E-01 0.73484634E+02</pdfrwt>
<totfact> 0.12007546E+06</totfact>
</mgrwt>
</event>
<event>
 5    1  0.1994521E+000  0.7853919E+02  0.7546771E-02  0.1333249E+00
         21   -1    0    0  503  502  0.00000000000E+00  0.00000000000E+00  0.12609323676E+03  0.12609323676E+03  0.00000000000E+00 0.  1.
         21   -1    0    0  501  503 -0.00000000000E+00 -0.00000000000E+00 -0.59489491595E+02  0.59489491595E+02  0.00000000000E+00 0. -1.
         24    1    1    2    0    0  0.20387448273E+02  0.16922673325E+02  0.74147316759E+02  0.11254805843E+03  0.80419002446E+02 0.  1.
          1    1    1    2  501    0 -0.35372177182E+02  0.14002333301E+02 -0.10184123554E+01  0.38056450441E+02  0.00000000000E+00 0. -1.
         -2    1    1    2    0  502  0.14984728908E+02 -0.30925006626E+02 -0.65251592373E+01  0.34978219485E+02  0.00000000000E+00 0.  1.
<mgrwt>
<rscale>  2 0.78539195E+02</rscale>
<asrwt>0</asrwt>
<pdfrwt beam="1">  1       21 0.19398959E-01 0.78539195E+02</pdfrwt>
<pdfrwt beam="2">  1       21 0.91522295E-02 0.78539195E+02</pdfrwt>
<totfact> 0.22568999E+06</totfact>
</mgrwt>
</event>
<event>
 5    1  0.2140277E+000  0.1179982E+03  0.7546771E-02  0.1246436E+00
         21   -1    0    0  503  502  0.00000000000E+00  0.00000000000E+00  0.45957353943E+03  0.45957353943E+03  0.00000000000E+00 0.  1.
         21   -1    0    0  501  503 -0.00000000000E+00 -0.00000000000E+00 -0.10255598461E+03  0.10255598461E+03  0.00000000000E+00 0. -1.
         24    1    1    2    0    0 -0.41830682220E+02  0.35402218746E+02  0.26914408231E+03  0.28619726774E+03  0.80419002446E+02 0.  0.
          1    1    1    2  501    0  0.40438559689E+02  0.43715339791E+02 -0.74457043440E+02  0.95342327224E+02  0.00000000000E+00 0. -1.
         -2    1    1    2    0  502  0.13921225307E+01 -0.79117558537E+02  0.16233051595E+03  0.18058992908E+03  0.00000000000E+00 0.  1.
<mgrwt>
<rscale>  2 0.11799818E+03</rscale>
<asrwt>0</asrwt>
<pdfrwt beam="1">  1       21 0.70703621E-01 0.11799818E+03</pdfrwt>
<pdfrwt beam="2">  1       21 0.15777844E-01 0.11799818E+03</pdfrwt>
<totfact> 0.67159621E+04</totfact>
</mgrwt>
</event>
<event>
 5    1  0.1994521E+000  0.7201449E+02  0.7546771E-02  0.1353374E+00
         21   -1    0    0  501  502  0.00000000000E+00  0.00000000000E+00  0.75392677134E+01  0.75392677134E+01  0.00000000000E+00 0.  1.
         21   -1    0    0  502  503 -0.00000000000E+00 -0.00000000000E+00 -0.80537780600E+03  0.80537780600E+03  0.00000000000E+00 0. -1.
         24    1    1    2    0    0 -0.36474684093E+02 -0.36847857501E+00 -0.62769478831E+03  0.63387577772E+03  0.80419002446E+02 0.  0.
          1    1    1    2  501    0  0.10294238809E+02  0.20339386052E+02 -0.67543772492E+02  0.71286907494E+02  0.00000000000E+00 0. -1.
         -2    1    1    2    0  503  0.26180445284E+02 -0.19970907477E+02 -0.10259997749E+03  0.10775438850E+03  0.00000000000E+00 0.  1.
<mgrwt>
<rscale>  2 0.72014492E+02</rscale>
<asrwt>0</asrwt>
<pdfrwt beam="1">  1       21 0.11598876E-02 0.72014492E+02</pdfrwt>
<pdfrwt beam="2">  1       21 0.12390425E+00 0.72014492E+02</pdfrwt>
<totfact> 0.14442378E+06</totfact>
</mgrwt>
</event>
<event>
 5    1  0.1994521E+000  0.7597732E+02  0.7546771E-02  0.1340871E+00
         21   -1    0    0  503  502  0.00000000000E+00  0.00000000000E+00  0.33903597546E+02  0.33903597546E+02  0.00000000000E+00 0. -1.
         21   -1    0    0  501  503 -0.00000000000E+00 -0.00000000000E+00 -0.53268708497E+03  0.53268708497E+03  0.00000000000E+00 0. -1.
         24    1    1    2    0    0  0.31439527506E+02  0.26333479522E+02 -0.54268408066E+02  0.10532887592E+03  0.80419002446E+02 0. -1.
          1    1    1    2  501    0  0.75511600763E+01 -0.21014972880E+02 -0.40458086629E+03  0.40519665161E+03  0.00000000000E+00 0. -1.
         -2    1    1    2    0  502 -0.38990687582E+02 -0.53185066419E+01 -0.39934213061E+02  0.56065154988E+02  0.00000000000E+00 0.  1.
<mgrwt>
<rscale>  2 0.75977317E+02</rscale>
<asrwt>0</asrwt>
<pdfrwt beam="1">  1       21 0.52159385E-02 0.75977317E+02</pdfrwt>
<pdfrwt beam="2">  1       21 0.81951853E-01 0.75977317E+02</pdfrwt>
<totfact> 0.33425653E+05</totfact>
</mgrwt>
</event>
<event>
 5    1  0.3347383E+000  0.7266317E+02  0.7546771E-02  0.1351264E+00
         21   -1    0    0  503  502  0.00000000000E+00  0.00000000000E+00  0.97161307782E+02  0.97161307782E+02  0.00000000000E+00 0. -1.
         21   -1    0    0  501  503 -0.00000000000E+00 -0.00000000000E+00 -0.34514022205E+03  0.34514022205E+03  0.00000000000E+00 0. -1.
         24    1    1    2    0    0 -0.10951506283E+02  0.17094880730E+02  0.59270648399E+02  0.10194310253E+03  0.80419002446E+02 0. -1.
          1    1    1    2  501    0 -0.13653501719E+02  0.16071128545E+02 -0.29708105933E+03  0.29782856662E+03  0.00000000000E+00 0. -1.
         -2    1    1    2    0  502  0.24605008002E+02 -0.33166009275E+02 -0.10168503342E+02  0.42529860689E+02  0.00000000000E+00 0.  1.
<mgrwt>
<rscale>  2 0.72663168E+02</rscale>
<asrwt>0</asrwt>
<pdfrwt beam="1">  1       21 0.14947894E-01 0.72663168E+02</pdfrwt>
<pdfrwt beam="2">  1       21 0.53098496E-01 0.72663168E+02</pdfrwt>
<totfact> 0.13869593E+05</totfact>
</mgrwt>
</event>
<event>
 5    1  0.1994521E+000  0.7466508E+02  0.7546771E-02  0.1344911E+00
         21   -1    0    0  501  502  0.00000000000E+00  0.00000000000E+00  0.48459298828E+02  0.48459298828E+02  0.00000000000E+00 0. -1.
         21   -1    0    0  502  503 -0.00000000000E+00 -0.00000000000E+00 -0.12996014556E+03  0.12996014556E+03  0.00000000000E+00 0. -1.
         24    1    1    2    0    0 -0.46493861718E+02  0.25447538439E+02 -0.72720651039E+02  0.12068456998E+03  0.80419002446E+02 0. -1.
          1    1    1    2  501    0  0.22100639200E+02 -0.12772702999E+02  0.64222511386E+01  0.26321578688E+02  0.00000000000E+00 0. -1.
         -2    1    1    2    0  503  0.24393222518E+02 -0.12674835441E+02 -0.15202446834E+02  0.31413295720E+02  0.00000000000E+00 0.  1.
<mgrwt>
<rscale>  2 0.74665081E+02</rscale>
<asrwt>0</asrwt>
<pdfrwt beam="1">  1       21 0.74552767E-02 0.74665081E+02</pdfrwt>
<pdfrwt beam="2">  1       21 0.19993869E-01 0.74665081E+02</pdfrwt>
<totfact> 0.30215683E+06</totfact>
</mgrwt>
</event>
<event>
 5    1  0.1994521E+000  0.7616806E+02  0.7546771E-02  0.1340292E+00
         21   -1    0    0  501  502  0.00000000000E+00  0.00000000000E+00  0.19755659540E+02  0.19755659540E+02  0.00000000000E+00 0.  1.
         21   -1    0    0  502  503 -0.00000000000E+00 -0.00000000000E+00 -0.49757261916E+03  0.49757261916E+03  0.00000000000E+00 0. -1.
         24    1    1    2    0    0  0.53206989024E+02  0.96383118874E+01 -0.42990506783E+03  0.44069202856E+03  0.80419002446E+02 0. -1.
          1    1    1    2  501    0 -0.23838024856E+02 -0.10497214468E+02 -0.83406266966E+01  0.27349753094E+02  0.00000000000E+00 0. -1.
         -2    1    1    2    0  503 -0.29368964167E+02  0.85890258036E+00 -0.39571265095E+02  0.49286497047E+02  0.00000000000E+00 0.  1.
<mgrwt>
<rscale>  2 0.76168065E+02</rscale>
<asrwt>0</asrwt>
<pdfrwt beam="1">  1       21 0.30393319E-02 0.76168065E+02</pdfrwt>
<pdfrwt beam="2">  1       21 0.76549643E-01 0.76168065E+02</pdfrwt>
<totfact> 0.94066021E+05</totfact>
</mgrwt>
</event>
<event>
 5    1  0.1994521E+000  0.7480963E+02  0.7546771E-02  0.1344462E+00
         21   -1    0    0  503  502  0.00000000000E+00  0.00000000000E+00  0.10257931636E+04  0.10257931636E+04  0.00000000000E+00 0.  1.
         21   -1    0    0  501  503 -0.00000000000E+00 -0.00000000000E+00 -0.13200597321E+02  0.13200597321E+02  0.00000000000E+00 0.  1.
         24    1    1    2    0    0 -0.62727043867E+01  0.50015495857E+02  0.38210832157E+03  0.39371929342E+03  0.80419002446E+02 0.  1.
          1    1    1    2  501    0 -0.77990830253E+01 -0.22310352064E+02  0.12932017432E+02  0.26940946162E+02  0.00000000000E+00 0. -1.
         -2    1    1    2    0  502  0.14071787412E+02 -0.27705143793E+02  0.61755222732E+03  0.61833352138E+03  0.00000000000E+00 0.  1.
<mgrwt>
<rscale>  2 0.74809634E+02</rscale>
<asrwt>0</asrwt>
<pdfrwt beam="1">  1       21 0.15781427E+00 0.74809634E+02</pdfrwt>
<pdfrwt beam="2">  1       21 0.20308619E-02 0.74809634E+02</pdfrwt>
<totfact> 0.32765403E+05</totfact>
</mgrwt>
</event>
<event>
 5    1  0.1994521E+000  0.1248992E+03  0.7546771E-02  0.1235227E+00
         21   -1    0    0  501  502  0.00000000000E+00  0.00000000000E+00  0.27485528499E+03  0.27485528499E+03  0.00000000000E+00 0. -1.
         21   -1    0    0  502  503 -0.00000000000E+00 -0.00000000000E+00 -0.32590405105E+03  0.32590405105E+03  0.00000000000E+00 0. -1.
         24    1    1    2    0    0  0.76095521113E+02  0.71600631996E+02 -0.17922934999E+03  0.22250293187E+03  0.80419002446E+02 0. -1.
          1    1    1    2  501    0 -0.23568217777E+02  0.59269371565E+01  0.23496950804E+03  0.23622290148E+03  0.00000000000E+00 0. -1.
         -2    1    1    2    0  503 -0.52527303336E+02 -0.77527569153E+02 -0.10678892411E+03  0.14203350270E+03  0.00000000000E+00 0.  1.
<mgrwt>
<rscale>  2 0.12489915E+03</rscale>
<asrwt>0</asrwt>
<pdfrwt beam="1">  1       21 0.42285429E-01 0.12489915E+03</pdfrwt>
<pdfrwt beam="2">  1       21 0.50139085E-01 0.12489915E+03</pdfrwt>
<totfact> 0.21302046E+04</totfact>
</mgrwt>
</event>
<event>
 5    1  0.1994521E+000  0.7932778E+02  0.7546771E-02  0.1330970E+00
         21   -1    0    0  501  502  0.00000000000E+00  0.00000000000E+00  0.39831687371E+02  0.39831687371E+02  0.00000000000E+00 0.  1.
         21   -1    0    0  502  503 -0.00000000000E+00 -0.00000000000E+00 -0.23261200795E+03  0.23261200795E+03  0.00000000000E+00 0. -1.
         24    1    1    2    0    0  0.55202649018E+02 -0.13632155579E+02 -0.77245127793E+02  0.12516866160E+03  0.80419002446E+02 0.  1.
          1    1    1    2  501    0 -0.28281481509E+02  0.17056824914E+02 -0.49344481775E+01  0.33393506124E+02  0.00000000000E+00 0. -1.
         -2    1    1    2    0  503 -0.26921167510E+02 -0.34246693350E+01 -0.11060074461E+03  0.11388152760E+03  0.00000000000E+00 0.  1.
<mgrwt>
<rscale>  2 0.79327785E+02</rscale>
<asrwt>0</asrwt>
<pdfrwt beam="1">  1       21 0.61279519E-02 0.79327785E+02</pdfrwt>
<pdfrwt beam="2">  1       21 0.35786463E-01 0.79327785E+02</pdfrwt>
<totfact> 0.14125742E+06</totfact>
</mgrwt>
</event>
<event>
 5    1  0.1994521E+000  0.8893940E+02  0.7546771E-02  0.1305441E+00
         21   -1    0    0  501  502  0.00000000000E+00  0.00000000000E+00  0.79661591161E+02  0.79661591161E+02  0.00000000000E+00 0.  1.
         21   -1    0    0  502  503 -0.00000000000E+00 -0.00000000000E+00 -0.12307774050E+03  0.12307774050E+03  0.00000000000E+00 0. -1.
         24    1    1    2    0    0  0.20660109274E+02 -0.44043404120E+02  0.21135394845E+02  0.96335779601E+02  0.80419002446E+02 0.  1.
          1    1    1    2  501    0 -0.25153169014E+02 -0.11858169353E+02 -0.15156785258E+02  0.31670589373E+02  0.00000000000E+00 0. -1.
         -2    1    1    2    0  503  0.44930597396E+01  0.55901573474E+02 -0.49394758927E+02  0.74732962688E+02  0.00000000000E+00 0.  1.
<mgrwt>
<rscale>  2 0.88939397E+02</rscale>
<asrwt>0</asrwt>
<pdfrwt beam="1">  1       21 0.12255629E-01 0.88939397E+02</pdfrwt>
<pdfrwt beam="2">  1       21 0.18935037E-01 0.88939397E+02</pdfrwt>
<totfact> 0.14277067E+06</totfact>
</mgrwt>
</event>
<event>
 5    1  0.1994521E+000  0.9171971E+02  0.7546771E-02  0.1298740E+00
         21   -1    0    0  503  502  0.00000000000E+00  0.00000000000E+00  0.36671992899E+02  0.36671992899E+02  0.00000000000E+00 0.  1.
         21   -1    0    0  501  503 -0.00000000000E+00 -0.00000000000E+00 -0.33777220010E+03  0.33777220010E+03  0.00000000000E+00 0.  1.
         24    1    1    2    0    0 -0.15603097990E+02  0.39119245404E+02 -0.16937069659E+03  0.19216508748E+03  0.80419002446E+02 0.  1.
          1    1    1    2  501    0 -0.59060844286E+01  0.24656679852E+02 -0.10796403699E+03  0.11090115860E+03  0.00000000000E+00 0. -1.
         -2    1    1    2    0  502  0.21509182418E+02 -0.63775925256E+02 -0.23765473618E+02  0.71377946922E+02  0.00000000000E+00 0.  1.
<mgrwt>
<rscale>  2 0.91719714E+02</rscale>
<asrwt>0</asrwt>
<pdfrwt beam="1">  1       21 0.56418450E-02 0.91719714E+02</pdfrwt>
<pdfrwt beam="2">  1       21 0.51964954E-01 0.91719714E+02</pdfrwt>
<totfact> 0.77271445E+05</totfact>
</mgrwt>
</event>
<event>
 5    1  0.1994521E+000  0.6934745E+02  0.7546771E-02  0.1362326E+00
         21   -1    0    0  503  502  0.00000000000E+00  0.00000000000E+00  0.13429589744E+03  0.13429589744E+03  0.00000000000E+00 0.  1.
         21   -1    0    0  501  503 -0.00000000000E+00 -0.00000000000E+00 -0.93795696020E+02  0.93795696020E+02  0.00000000000E+00 0. -1.
         24    1    1    2    0    0 -0.20151640936E+02  0.44200423898E+01  0.18002006163E+02  0.84952419550E+02  0.80419002446E+02 0.  1.
          1    1    1    2  501    0  0.10754226832E+02  0.23698494685E+02 -0.54628413424E+02  0.60510623846E+02  0.00000000000E+00 0. -1.
         -2    1    1    2    0  502  0.93974141040E+01 -0.28118537075E+02  0.77126608684E+02  0.82628550066E+02  0.00000000000E+00 0.  1.
<mgrwt>
<rscale>  2 0.69347454E+02</rscale>
<asrwt>0</asrwt>
<pdfrwt beam="1">  1       21 0.20660907E-01 0.69347454E+02</pdfrwt>
<pdfrwt beam="2">  1       21 0.14430107E-01 0.69347454E+02</pdfrwt>
<totfact> 0.90700668E+05</totfact>
</mgrwt>
</event>
<event>
 5    1  0.1994521E+000  0.7297757E+02  0.7546771E-02  0.1350251E+00
         21   -1    0    0  501  502  0.00000000000E+00  0.00000000000E+00  0.33890125103E+02  0.33890125103E+02  0.00000000000E+00 0.  1.
         21   -1    0    0  502  503 -0.00000000000E+00 -0.00000000000E+00 -0.21104394228E+03  0.21104394228E+03  0.00000000000E+00 0. -1.
         24    1    1    2    0    0  0.25367932897E+02 -0.21638521944E+01 -0.13514726061E+03  0.15931168281E+03  0.80419002446E+02 0. -1.
          1    1    1    2  501    0 -0.16841686802E+02 -0.26665317634E+02  0.28021242952E+01  0.31662809089E+02  0.00000000000E+00 0. -1.
         -2    1    1    2    0  503 -0.85262460949E+01  0.28829169828E+02 -0.44808680866E+02  0.53959575484E+02  0.00000000000E+00 0.  1.
<mgrwt>
<rscale>  2 0.72977573E+02</rscale>
<asrwt>0</asrwt>
<pdfrwt beam="1">  1       21 0.52138655E-02 0.72977573E+02</pdfrwt>
<pdfrwt beam="2">  1       21 0.32468298E-01 0.72977573E+02</pdfrwt>
<totfact> 0.22232579E+06</totfact>
</mgrwt>
</event>
<event>
 5    1  0.1994521E+000  0.6683348E+02  0.7546771E-02  0.1371204E+00
         21   -1    0    0  501  502  0.00000000000E+00  0.00000000000E+00  0.69362007553E+02  0.69362007553E+02  0.00000000000E+00 0. -1.
         21   -1    0    0  502  503 -0.00000000000E+00 -0.00000000000E+00 -0.25546200344E+03  0.25546200344E+03  0.00000000000E+00 0. -1.
         24    1    1    2    0    0 -0.15652958225E+02  0.38464513053E+02 -0.22035862900E+03  0.23822190326E+03  0.80419002446E+02 0. -1.
          1    1    1    2  501    0  0.25423981014E+01 -0.21835228117E+02  0.53593731249E+02  0.57926928145E+02  0.00000000000E+00 0. -1.
         -2    1    1    2    0  503  0.13110560124E+02 -0.16629284935E+02 -0.19335098134E+02  0.28675179582E+02  0.00000000000E+00 0.  1.
<mgrwt>
<rscale>  2 0.66833478E+02</rscale>
<asrwt>0</asrwt>
<pdfrwt beam="1">  1       21 0.10671078E-01 0.66833478E+02</pdfrwt>
<pdfrwt beam="2">  1       21 0.39301847E-01 0.66833478E+02</pdfrwt>
<totfact> 0.45694632E+05</totfact>
</mgrwt>
</event>
<event>
 5    1  0.1994521E+000  0.8888120E+02  0.7546771E-02  0.1305584E+00
         21   -1    0    0  501  502  0.00000000000E+00  0.00000000000E+00  0.29677761380E+02  0.29677761380E+02  0.00000000000E+00 0. -1.
         21   -1    0    0  502  503 -0.00000000000E+00 -0.00000000000E+00 -0.59284761948E+03  0.59284761948E+03  0.00000000000E+00 0.  1.
         24    1    1    2    0    0 -0.12712047610E+02 -0.91660459332E+01 -0.24513441383E+03  0.25846413552E+03  0.80419002446E+02 0.  1.
          1    1    1    2  501    0 -0.31177388881E+02 -0.25199230387E+02  0.10913675297E+01  0.40102641717E+02  0.00000000000E+00 0. -1.
         -2    1    1    2    0  503  0.43889436491E+02  0.34365276321E+02 -0.31912681180E+03  0.32395860362E+03  0.00000000000E+00 0.  1.
<mgrwt>
<rscale>  2 0.88881199E+02</rscale>
<asrwt>0</asrwt>
<pdfrwt beam="1">  1       21 0.45658096E-02 0.88881199E+02</pdfrwt>
<pdfrwt beam="2">  1       21 0.91207322E-01 0.88881199E+02</pdfrwt>
<totfact> 0.32730667E+05</totfact>
</mgrwt>
</event>
<event>
 5    1  0.1994521E+000  0.6526086E+02  0.7546771E-02  0.1376993E+00
         21   -1    0    0  503  502  0.00000000000E+00  0.00000000000E+00  0.33132989610E+02  0.33132989610E+02  0.00000000000E+00 0. -1.
         21   -1    0    0  501  503 -0.00000000000E+00 -0.00000000000E+00 -0.22343782259E+03  0.22343782259E+03  0.00000000000E+00 0.  1.
         24    1    1    2    0    0 -0.12247370379E+02  0.75357113076E+01 -0.71122189118E+02  0.10831605036E+03  0.80419002446E+02 0.  1.
          1    1    1    2  501    0 -0.69331494261E+01 -0.23105130044E+02 -0.12109714881E+03  0.12347645543E+03  0.00000000000E+00 0. -1.
         -2    1    1    2    0  502  0.19180519805E+02  0.15569418737E+02  0.19145049428E+01  0.24778306418E+02  0.00000000000E+00 0.  1.
<mgrwt>
<rscale>  2 0.65260860E+02</rscale>
<asrwt>0</asrwt>
<pdfrwt beam="1">  1       21 0.50973830E-02 0.65260860E+02</pdfrwt>
<pdfrwt beam="2">  1       21 0.34375050E-01 0.65260860E+02</pdfrwt>
<totfact> 0.20570311E+06</totfact>
</mgrwt>
</event>
<event>
 5    1  0.1994521E+000  0.8769930E+02  0.7546771E-02  0.1308521E+00
         21   -1    0    0  501  502  0.00000000000E+00  0.00000000000E+00  0.22296170286E+03  0.22296170286E+03  0.00000000000E+00 0. -1.
         21   -1    0    0  502  503 -0.00000000000E+00 -0.00000000000E+00 -0.38515741467E+02  0.38515741467E+02  0.00000000000E+00 0. -1.
         24    1    1    2    0    0  0.25918877903E+02  0.61647281288E+02  0.10386141694E+03  0.14739940775E+03  0.80419002446E+02 0. -1.
          1    1    1    2  501    0 -0.48388596165E+01 -0.41051915205E+02  0.72602660235E+02  0.83545320501E+02  0.00000000000E+00 0. -1.
         -2    1    1    2    0  503 -0.21080018286E+02 -0.20595366083E+02  0.79818842122E+01  0.30532716070E+02  0.00000000000E+00 0.  1.
<mgrwt>
<rscale>  2 0.87699300E+02</rscale>
<asrwt>0</asrwt>
<pdfrwt beam="1">  1       21 0.34301800E-01 0.87699300E+02</pdfrwt>
<pdfrwt beam="2">  1       21 0.59254988E-02 0.87699300E+02</pdfrwt>
<totfact> 0.16277995E+06</totfact>
</mgrwt>
</event>
<event>
 5    1  0.1994521E+000  0.1623354E+03  0.7546771E-02  0.1186085E+00
         21   -1    0    0  503  502  0.00000000000E+00  0.00000000000E+00  0.11212674397E+03  0.11212674397E+03  0.00000000000E+00 0.  1.
         21   -1    0    0  501  503 -0.00000000000E+00 -0.00000000000E+00 -0.13711807145E+04  0.13711807145E+04  0.00000000000E+00 0. -1.
         24    1    1    2    0    0 -0.49820361034E+02 -0.21915506346E+02 -0.23333252422E+03  0.25273234974E+03  0.80419002446E+02 0.  0.
          1    1    1    2  501    0  0.13807410929E+03  0.89512141621E+01 -0.11035522797E+04  0.11121925274E+04  0.00000000000E+00 0. -1.
         -2    1    1    2    0  502 -0.88253748253E+02  0.12964292183E+02  0.77830833374E+02  0.11838258139E+03  0.00000000000E+00 0.  1.
<mgrwt>
<rscale>  2 0.16233541E+03</rscale>
<asrwt>0</asrwt>
<pdfrwt beam="1">  1       21 0.17250268E-01 0.16233541E+03</pdfrwt>
<pdfrwt beam="2">  1       21 0.21095088E+00 0.16233541E+03</pdfrwt>
<totfact> 0.35897227E+03</totfact>
</mgrwt>
</event>
<event>
 5    1  0.1994521E+000  0.6332033E+02  0.7546771E-02  0.1384403E+00
         21   -1    0    0  501  502  0.00000000000E+00  0.00000000000E+00  0.40481209238E+03  0.40481209238E+03  0.00000000000E+00 0. -1.
         21   -1    0    0  502  503 -0.00000000000E+00 -0.00000000000E+00 -0.27458901764E+02  0.27458901764E+02  0.00000000000E+00 0. -1.
         24    1    1    2    0    0 -0.17132994789E+02 -0.78178091169E+01  0.41830531050E+02  0.92583297263E+02  0.80419002446E+02 0. -1.
          1    1    1    2  501    0  0.14538455207E+02 -0.15111958014E+02  0.25674057000E+03  0.25759553226E+03  0.00000000000E+00 0. -1.
         -2    1    1    2    0  503  0.25945395824E+01  0.22929767131E+02  0.78782089573E+02  0.82092164631E+02  0.00000000000E+00 0.  1.
<mgrwt>
<rscale>  2 0.63320326E+02</rscale>
<asrwt>0</asrwt>
<pdfrwt beam="1">  1       21 0.62278779E-01 0.63320326E+02</pdfrwt>
<pdfrwt beam="2">  1       21 0.42244467E-02 0.63320326E+02</pdfrwt>
<totfact> 0.85208132E+05</totfact>
</mgrwt>
</event>
<event>
 5    1  0.1994521E+000  0.9316075E+02  0.7546771E-02  0.1295373E+00
         21   -1    0    0  503  502  0.00000000000E+00  0.00000000000E+00  0.13779815370E+02  0.13779815370E+02  0.00000000000E+00 0. -1.
         21   -1    0    0  501  503 -0.00000000000E+00 -0.00000000000E+00 -0.93187764205E+03  0.93187764205E+03  0.00000000000E+00 0.  1.
         24    1    1    2    0    0  0.47477618786E+02 -0.57900896671E+02 -0.28694901311E+03  0.30726794529E+03  0.80419002446E+02 0.  1.
          1    1    1    2  501    0 -0.34944232069E+02  0.30795134796E+02 -0.54915525736E+03  0.55112696938E+03  0.00000000000E+00 0. -1.
         -2    1    1    2    0  502 -0.12533386717E+02  0.27105761875E+02 -0.81993556203E+02  0.87262542756E+02  0.00000000000E+00 0.  1.
<mgrwt>
<rscale>  2 0.93160746E+02</rscale>
<asrwt>0</asrwt>
<pdfrwt beam="1">  1       21 0.21199716E-02 0.93160746E+02</pdfrwt>
<pdfrwt beam="2">  1       21 0.14336579E+00 0.93160746E+02</pdfrwt>
<totfact> 0.38791174E+05</totfact>
</mgrwt>
</event>
<event>
 5    1  0.1994521E+000  0.7096956E+02  0.7546771E-02  0.1356827E+00
         21   -1    0    0  501  502  0.00000000000E+00  0.00000000000E+00  0.63726514001E+02  0.63726514001E+02  0.00000000000E+00 0. -1.
         21   -1    0    0  502  503 -0.00000000000E+00 -0.00000000000E+00 -0.15847308961E+03  0.15847308961E+03  0.00000000000E+00 0. -1.
         24    1    1    2    0    0 -0.16133413589E+02  0.27855492587E+02 -0.75424920138E+02  0.11485795590E+03  0.80419002446E+02 0. -1.
          1    1    1    2  501    0 -0.70578690194E+01 -0.31107915210E+02  0.35501029395E+02  0.47726711514E+02  0.00000000000E+00 0. -1.
         -2    1    1    2    0  503  0.23191282609E+02  0.32524226232E+01 -0.54822684866E+02  0.59614936198E+02  0.00000000000E+00 0.  1.
<mgrwt>
<rscale>  2 0.70969556E+02</rscale>
<asrwt>0</asrwt>
<pdfrwt beam="1">  1       21 0.98040792E-02 0.70969556E+02</pdfrwt>
<pdfrwt beam="2">  1       21 0.24380475E-01 0.70969556E+02</pdfrwt>
<totfact> 0.13126815E+06</totfact>
</mgrwt>
</event>
<event>
 5    1  0.1994521E+000  0.7891149E+02  0.7546771E-02  0.1332169E+00
         21   -1    0    0  501  502  0.00000000000E+00  0.00000000000E+00  0.10323470987E+03  0.10323470987E+03  0.00000000000E+00 0. -1.
         21   -1    0    0  502  503 -0.00000000000E+00 -0.00000000000E+00 -0.10099944268E+03  0.10099944268E+03  0.00000000000E+00 0. -1.
         24    1    1    2    0    0 -0.18096640086E+01  0.52941491725E+02 -0.22263674366E+02  0.98838067467E+02  0.80419002446E+02 0. -1.
          1    1    1    2  501    0  0.15761891638E+02 -0.37697593779E+02  0.55022702041E+02  0.68534980445E+02  0.00000000000E+00 0. -1.
         -2    1    1    2    0  503 -0.13952227629E+02 -0.15243897946E+02 -0.30523760484E+02  0.36861104629E+02  0.00000000000E+00 0.  1.
<mgrwt>
<rscale>  2 0.78911492E+02</rscale>
<asrwt>0</asrwt>
<pdfrwt beam="1">  1       21 0.15882263E-01 0.78911492E+02</pdfrwt>
<pdfrwt beam="2">  1       21 0.15538376E-01 0.78911492E+02</pdfrwt>
<totfact> 0.12831080E+06</totfact>
</mgrwt>
</event>
<event>
 5    1  0.1994521E+000  0.6481817E+02  0.7546771E-02  0.1378657E+00
         21   -1    0    0  503  502  0.00000000000E+00  0.00000000000E+00  0.11764852078E+02  0.11764852078E+02  0.00000000000E+00 0.  1.
         21   -1    0    0  501  503 -0.00000000000E+00 -0.00000000000E+00 -0.36174590974E+03  0.36174590974E+03  0.00000000000E+00 0. -1.
         24    1    1    2    0    0  0.51976515896E+01  0.11550276434E+02 -0.20883648033E+03  0.22414351639E+03  0.80419002446E+02 0.  1.
          1    1    1    2  501    0  0.20704465403E+02 -0.74354072330E+01 -0.76634877366E+02  0.79729947932E+02  0.00000000000E+00 0. -1.
         -2    1    1    2    0  502 -0.25902116992E+02 -0.41148692014E+01 -0.64509699967E+02  0.69637297500E+02  0.00000000000E+00 0.  1.
<mgrwt>
<rscale>  2 0.64818173E+02</rscale>
<asrwt>0</asrwt>
<pdfrwt beam="1">  1       21 0.18099771E-02 0.64818173E+02</pdfrwt>
<pdfrwt beam="2">  1       21 0.55653220E-01 0.64818173E+02</pdfrwt>
<totfact> 0.42002700E+06</totfact>
</mgrwt>
</event>
<event>
 5    1  0.1994521E+000  0.1038171E+03  0.7546771E-02  0.1272468E+00
         21   -1    0    0  501  502  0.00000000000E+00  0.00000000000E+00  0.50318678243E+02  0.50318678243E+02  0.00000000000E+00 0. -1.
         21   -1    0    0  502  503 -0.00000000000E+00 -0.00000000000E+00 -0.44029535694E+03  0.44029535694E+03  0.00000000000E+00 0. -1.
         24    1    1    2    0    0 -0.85480185829E+02  0.11725591046E+02 -0.36246841082E+03  0.38117570286E+03  0.80419002446E+02 0. -1.
          1    1    1    2  501    0  0.59435816503E+02  0.34639677044E+01  0.10986337331E+02  0.60541844732E+02  0.00000000000E+00 0. -1.
         -2    1    1    2    0  503  0.26044369326E+02 -0.15189558750E+02 -0.38494605214E+02  0.48896487596E+02  0.00000000000E+00 0.  1.
<mgrwt>
<rscale>  2 0.10381707E+03</rscale>
<asrwt>0</asrwt>
<pdfrwt beam="1">  1       21 0.77413353E-02 0.10381707E+03</pdfrwt>
<pdfrwt beam="2">  1       21 0.67737746E-01 0.10381707E+03</pdfrwt>
<totfact> 0.25872119E+05</totfact>
</mgrwt>
</event>
<event>
 5    1  0.1994521E+000  0.9301055E+02  0.7546771E-02  0.1295721E+00
         21   -1    0    0  503  502  0.00000000000E+00  0.00000000000E+00  0.46366394848E+02  0.46366394848E+02  0.00000000000E+00 0. -1.
         21   -1    0    0  501  503 -0.00000000000E+00 -0.00000000000E+00 -0.59977632334E+03  0.59977632334E+03  0.00000000000E+00 0. -1.
         24    1    1    2    0    0 -0.87387448592E+00  0.37504287550E+02 -0.94659450319E+02  0.12974961553E+03  0.80419002446E+02 0. -1.
          1    1    1    2  501    0 -0.28981684407E+02 -0.55365318483E+02 -0.47421902993E+03  0.47831887363E+03  0.00000000000E+00 0. -1.
         -2    1    1    2    0  502  0.29855558893E+02  0.17861030933E+02  0.15468551756E+02  0.38074229030E+02  0.00000000000E+00 0.  1.
<mgrwt>
<rscale>  2 0.93010552E+02</rscale>
<asrwt>0</asrwt>
<pdfrwt beam="1">  1       21 0.71332914E-02 0.93010552E+02</pdfrwt>
<pdfrwt beam="2">  1       21 0.92273281E-01 0.93010552E+02</pdfrwt>
<totfact> 0.15068717E+05</totfact>
</mgrwt>
</event>
<event>
 5    1  0.1994521E+000  0.1287191E+03  0.7546771E-02  0.1229369E+00
         21   -1    0    0  503  502  0.00000000000E+00  0.00000000000E+00  0.22312931212E+03  0.22312931212E+03  0.00000000000E+00 0.  1.
         21   -1    0    0  501  503 -0.00000000000E+00 -0.00000000000E+00 -0.22484234818E+03  0.22484234818E+03  0.00000000000E+00 0. -1.
         24    1    1    2    0    0  0.10051485082E+03  0.35535558430E+02 -0.32932559401E+02  0.13754192296E+03  0.80419002446E+02 0.  1.
          1    1    1    2  501    0 -0.36391322167E+02  0.17781439923E+02 -0.12606106078E+03  0.13240807747E+03  0.00000000000E+00 0. -1.
         -2    1    1    2    0  502 -0.64123528655E+02 -0.53316998353E+02  0.15728058412E+03  0.17802165987E+03  0.00000000000E+00 0.  1.
<mgrwt>
<rscale>  2 0.12871906E+03</rscale>
<asrwt>0</asrwt>
<pdfrwt beam="1">  1       21 0.34327587E-01 0.12871906E+03</pdfrwt>
<pdfrwt beam="2">  1       21 0.34591130E-01 0.12871906E+03</pdfrwt>
<totfact> 0.67791803E+04</totfact>
</mgrwt>
</event>
<event>
 5    1  0.1994521E+000  0.7756144E+02  0.7546771E-02  0.1336118E+00
         21   -1    0    0  501  502  0.00000000000E+00  0.00000000000E+00  0.56485319611E+02  0.56485319611E+02  0.00000000000E+00 0. -1.
         21   -1    0    0  502  503 -0.00000000000E+00 -0.00000000000E+00 -0.19309193750E+03  0.19309193750E+03  0.00000000000E+00 0.  1.
         24    1    1    2    0    0 -0.11442401409E+02 -0.35931955213E+02 -0.12159560671E+03  0.15058134507E+03  0.80419002446E+02 0.  1.
          1    1    1    2  501    0  0.19119657842E+02 -0.87057298660E+01  0.29021199961E+02  0.35827100018E+02  0.00000000000E+00 0. -1.
         -2    1    1    2    0  503 -0.76772564330E+01  0.44637685079E+02 -0.44032211138E+02  0.63168812030E+02  0.00000000000E+00 0.  1.
<mgrwt>
<rscale>  2 0.77561444E+02</rscale>
<asrwt>0</asrwt>
<pdfrwt beam="1">  1       21 0.86900490E-02 0.77561444E+02</pdfrwt>
<pdfrwt beam="2">  1       21 0.29706452E-01 0.77561444E+02</pdfrwt>
<totfact> 0.11175813E+06</totfact>
</mgrwt>
</event>
<event>
 5    1  0.1994521E+000  0.8628289E+02  0.7546771E-02  0.1312111E+00
         21   -1    0    0  501  502  0.00000000000E+00  0.00000000000E+00  0.99859635877E+03  0.99859635877E+03  0.00000000000E+00 0.  1.
         21   -1    0    0  502  503 -0.00000000000E+00 -0.00000000000E+00 -0.75523750918E+01  0.75523750918E+01  0.00000000000E+00 0.  1.
         24    1    1    2    0    0  0.41467667031E+02  0.48532459986E+02  0.61241703518E+03  0.62096441767E+03  0.80419002446E+02 0.  1.
          1    1    1    2  501    0 -0.56397149167E+01 -0.28070203757E+02  0.18575677053E+03  0.18795031397E+03  0.00000000000E+00 0. -1.
         -2    1    1    2    0  503 -0.35827952114E+02 -0.20462256229E+02  0.19287017796E+03  0.19723400222E+03  0.00000000000E+00 0.  1.
<mgrwt>
<rscale>  2 0.86282890E+02</rscale>
<asrwt>0</asrwt>
<pdfrwt beam="1">  1       21 0.15363010E+00 0.86282890E+02</pdfrwt>
<pdfrwt beam="2">  1       21 0.11619046E-02 0.86282890E+02</pdfrwt>
<totfact> 0.84579675E+05</totfact>
</mgrwt>
</event>
<event>
 5    1  0.1994521E+000  0.6952554E+02  0.7546771E-02  0.1361714E+00
         21   -1    0    0  501  502  0.00000000000E+00  0.00000000000E+00  0.12628240223E+02  0.12628240223E+02  0.00000000000E+00 0.  1.
         21   -1    0    0  502  503 -0.00000000000E+00 -0.00000000000E+00 -0.13740578439E+04  0.13740578439E+04  0.00000000000E+00 0.  1.
         24    1    1    2    0    0  0.41637556828E+02 -0.34624106246E+01 -0.25460492309E+03  0.27025276547E+03  0.80419002446E+02 0.  1.
          1    1    1    2  501    0 -0.16200096982E+02  0.13492134554E+02 -0.19354805520E+02  0.28619736787E+02  0.00000000000E+00 0. -1.
         -2    1    1    2    0  503 -0.25437459846E+02 -0.10029723929E+02 -0.10874698751E+04  0.10878135819E+04  0.00000000000E+00 0.  1.
<mgrwt>
<rscale>  2 0.69525540E+02</rscale>
<asrwt>0</asrwt>
<pdfrwt beam="1">  1       21 0.19428061E-02 0.69525540E+02</pdfrwt>
<pdfrwt beam="2">  1       21 0.21139352E+00 0.69525540E+02</pdfrwt>
<totfact> 0.16016160E+05</totfact>
</mgrwt>
</event>
<event>
 5    1  0.1994521E+000  0.6879718E+02  0.7546771E-02  0.1364232E+00
         21   -1    0    0  501  502  0.00000000000E+00  0.00000000000E+00  0.21079717104E+03  0.21079717104E+03  0.00000000000E+00 0. -1.
         21   -1    0    0  502  503 -0.00000000000E+00 -0.00000000000E+00 -0.32712708539E+02  0.32712708539E+02  0.00000000000E+00 0. -1.
         24    1    1    2    0    0 -0.12597957397E+02  0.42232612883E+02  0.44822348275E+02  0.10207135240E+03  0.80419002446E+02 0. -1.
          1    1    1    2  501    0  0.12228889074E+02 -0.18627492815E+02  0.82481661348E+02  0.85438595935E+02  0.00000000000E+00 0. -1.
         -2    1    1    2    0  503  0.36906832295E+00 -0.23605120068E+02  0.50780452875E+02  0.55999931242E+02  0.00000000000E+00 0.  1.
<mgrwt>
<rscale>  2 0.68797183E+02</rscale>
<asrwt>0</asrwt>
<pdfrwt beam="1">  1       21 0.32430333E-01 0.68797183E+02</pdfrwt>
<pdfrwt beam="2">  1       21 0.50327245E-02 0.68797183E+02</pdfrwt>
<totfact> 0.23552650E+06</totfact>
</mgrwt>
</event>
<event>
 5    1  0.1994521E+000  0.7914685E+02  0.7546771E-02  0.1331490E+00
         21   -1    0    0  501  502  0.00000000000E+00  0.00000000000E+00  0.22166833129E+03  0.22166833129E+03  0.00000000000E+00 0.  1.
         21   -1    0    0  502  503 -0.00000000000E+00 -0.00000000000E+00 -0.29911560596E+02  0.29911560596E+02  0.00000000000E+00 0.  1.
         24    1    1    2    0    0  0.53517047598E+02  0.11431168873E+02  0.13617439061E+03  0.16734821964E+03  0.80419002446E+02 0.  1.
          1    1    1    2  501    0 -0.24761753524E+02 -0.19086732890E+02  0.39600899276E+02  0.50454722608E+02  0.00000000000E+00 0. -1.
         -2    1    1    2    0  503 -0.28755294074E+02  0.76555640170E+01  0.15981480805E+02  0.33776949632E+02  0.00000000000E+00 0.  1.
<mgrwt>
<rscale>  2 0.79146852E+02</rscale>
<asrwt>0</asrwt>
<pdfrwt beam="1">  1       21 0.34102819E-01 0.79146852E+02</pdfrwt>
<pdfrwt beam="2">  1       21 0.46017787E-02 0.79146852E+02</pdfrwt>
<totfact> 0.24970505E+06</totfact>
</mgrwt>
</event>
<event>
 5    1  0.1994521E+000  0.1035502E+03  0.7546771E-02  0.1273003E+00
         21   -1    0    0  503  502  0.00000000000E+00  0.00000000000E+00  0.68328150937E+03  0.68328150937E+03  0.00000000000E+00 0.  1.
         21   -1    0    0  501  503 -0.00000000000E+00 -0.00000000000E+00 -0.15896361078E+02  0.15896361078E+02  0.00000000000E+00 0. -1.
         24    1    1    2    0    0  0.34564634452E+02 -0.15356897307E+02  0.25804919184E+03  0.27292334018E+03  0.80419002446E+02 0.  0.
          1    1    1    2  501    0 -0.60553316141E+02  0.47453492876E+02  0.24413530120E+03  0.25596988763E+03  0.00000000000E+00 0. -1.
         -2    1    1    2    0  502  0.25988681690E+02 -0.32096595569E+02  0.16520065525E+03  0.17028464264E+03  0.00000000000E+00 0.  1.
<mgrwt>
<rscale>  2 0.10355017E+03</rscale>
<asrwt>0</asrwt>
<pdfrwt beam="1">  1       21 0.10512021E+00 0.10355017E+03</pdfrwt>
<pdfrwt beam="2">  1       21 0.24455945E-02 0.10355017E+03</pdfrwt>
<totfact> 0.65363102E+05</totfact>
</mgrwt>
</event>
<event>
 5    1  0.1994521E+000  0.1015641E+03  0.7546771E-02  0.1277041E+00
         21   -1    0    0  503  502  0.00000000000E+00  0.00000000000E+00  0.15572261676E+03  0.15572261676E+03  0.00000000000E+00 0. -1.
         21   -1    0    0  501  503 -0.00000000000E+00 -0.00000000000E+00 -0.21442621259E+03  0.21442621259E+03  0.00000000000E+00 0. -1.
         24    1    1    2    0    0 -0.41556980344E+02 -0.48088030784E+02  0.50905856669E+02  0.11444677155E+03  0.80419002446E+02 0. -1.
          1    1    1    2  501    0  0.16867901295E+02  0.67275441544E+02 -0.17225085837E+03  0.18569025106E+03  0.00000000000E+00 0. -1.
         -2    1    1    2    0  502  0.24689079048E+02 -0.19187410760E+02  0.62641405867E+02  0.70011806754E+02  0.00000000000E+00 0.  1.
<mgrwt>
<rscale>  2 0.10156407E+03</rscale>
<asrwt>0</asrwt>
<pdfrwt beam="1">  1       21 0.23957326E-01 0.10156407E+03</pdfrwt>
<pdfrwt beam="2">  1       21 0.32988648E-01 0.10156407E+03</pdfrwt>
<totfact> 0.14974483E+05</totfact>
</mgrwt>
</event>
<event>
 5    1  0.1994521E+000  0.6755409E+02  0.7546771E-02  0.1368614E+00
         21   -1    0    0  503  502  0.00000000000E+00  0.00000000000E+00  0.92377971863E+01  0.92377971863E+01  0.00000000000E+00 0. -1.
         21   -1    0    0  501  503 -0.00000000000E+00 -0.00000000000E+00 -0.58862381650E+03  0.58862381650E+03  0.00000000000E+00 0.  1.
         24    1    1    2    0    0  0.10116585312E+01  0.18319517099E+02 -0.22618280788E+03  0.24075403776E+03  0.80419002446E+02 0. -1.
          1    1    1    2  501    0 -0.24698150729E+02 -0.14471988961E+02 -0.19899941780E+03  0.20104776895E+03  0.00000000000E+00 0. -1.
         -2    1    1    2    0  502  0.23686492198E+02 -0.38475281379E+01 -0.15420379363E+03  0.15605980698E+03  0.00000000000E+00 0.  1.
<mgrwt>
<rscale>  2 0.67554087E+02</rscale>
<asrwt>0</asrwt>
<pdfrwt beam="1">  1       21 0.14211994E-02 0.67554087E+02</pdfrwt>
<pdfrwt beam="2">  1       21 0.90557522E-01 0.67554087E+02</pdfrwt>
<totfact> 0.21704386E+06</totfact>
</mgrwt>
</event>
<event>
 5    1  0.1994521E+000  0.7563702E+02  0.7546771E-02  0.1341910E+00
         21   -1    0    0  501  502  0.00000000000E+00  0.00000000000E+00  0.16511242913E+04  0.16511242913E+04  0.00000000000E+00 0.  1.
         21   -1    0    0  502  503 -0.00000000000E+00 -0.00000000000E+00 -0.11159363162E+02  0.11159363162E+02  0.00000000000E+00 0. -1.
         24    1    1    2    0    0  0.57053096992E+01  0.50413854088E+02  0.45609992680E+03  0.46590607038E+03  0.80419002446E+02 0.  0.
          1    1    1    2  501    0  0.85497643185E+01 -0.30647863227E+02  0.11653186246E+04  0.11657529270E+04  0.00000000000E+00 0. -1.
         -2    1    1    2    0  503 -0.14255074018E+02 -0.19765990861E+02  0.18546376726E+02  0.30624657053E+02  0.00000000000E+00 0.  1.
<mgrwt>
<rscale>  2 0.75637022E+02</rscale>
<asrwt>0</asrwt>
<pdfrwt beam="1">  1       21 0.25401893E+00 0.75637022E+02</pdfrwt>
<pdfrwt beam="2">  1       21 0.17168264E-02 0.75637022E+02</pdfrwt>
<totfact> 0.11086083E+05</totfact>
</mgrwt>
</event>
<event>
 5    1  0.1994521E+000  0.1075847E+03  0.7546771E-02  0.1265109E+00
         21   -1    0    0  503  502  0.00000000000E+00  0.00000000000E+00  0.68580652502E+03  0.68580652502E+03  0.00000000000E+00 0. -1.
         21   -1    0    0  501  503 -0.00000000000E+00 -0.00000000000E+00 -0.36212257424E+02  0.36212257424E+02  0.00000000000E+00 0. -1.
         24    1    1    2    0    0  0.45770393977E+02  0.80439775190E+02  0.45165235741E+03  0.46799845545E+03  0.80419002446E+02 0. -1.
          1    1    1    2  501    0 -0.10501090882E+02 -0.17236941778E+02 -0.17519828288E+02  0.26726942490E+02  0.00000000000E+00 0. -1.
         -2    1    1    2    0  502 -0.35269303094E+02 -0.63202833411E+02  0.21546173847E+03  0.22729338450E+03  0.00000000000E+00 0.  1.
<mgrwt>
<rscale>  2 0.10758467E+03</rscale>
<asrwt>0</asrwt>
<pdfrwt beam="1">  1       21 0.10550869E+00 0.10758467E+03</pdfrwt>
<pdfrwt beam="2">  1       21 0.55711170E-02 0.10758467E+03</pdfrwt>
<totfact> 0.16671330E+05</totfact>
</mgrwt>
</event>
<event>
 5    1  0.1994521E+000  0.8426755E+02  0.7546771E-02  0.1317359E+00
         21   -1    0    0  501  502  0.00000000000E+00  0.00000000000E+00  0.13885686505E+04  0.13885686505E+04  0.00000000000E+00 0. -1.
         21   -1    0    0  502  503 -0.00000000000E+00 -0.00000000000E+00 -0.67469793182E+01  0.67469793182E+01  0.00000000000E+00 0. -1.
         24    1    1    2    0    0 -0.12679340989E+02 -0.15220107734E+02  0.41796191176E+03  0.42608894964E+03  0.80419002446E+02 0. -1.
          1    1    1    2  501    0  0.47254830297E+02  0.18998319613E+02  0.80473351849E+03  0.80634359359E+03  0.00000000000E+00 0. -1.
         -2    1    1    2    0  503 -0.34575489308E+02 -0.37782118790E+01  0.15912624097E+03  0.16288308663E+03  0.00000000000E+00 0.  1.
<mgrwt>
<rscale>  2 0.84267548E+02</rscale>
<asrwt>0</asrwt>
<pdfrwt beam="1">  1       21 0.21362572E+00 0.84267548E+02</pdfrwt>
<pdfrwt beam="2">  1       21 0.10379979E-02 0.84267548E+02</pdfrwt>
<totfact> 0.41162197E+05</totfact>
</mgrwt>
</event>
<event>
 5    1  0.1994521E+000  0.7241960E+02  0.7546771E-02  0.1352053E+00
         21   -1    0    0  503  502  0.00000000000E+00  0.00000000000E+00  0.21281961255E+03  0.21281961255E+03  0.00000000000E+00 0. -1.
         21   -1    0    0  501  503 -0.00000000000E+00 -0.00000000000E+00 -0.32904232412E+02  0.32904232412E+02  0.00000000000E+00 0.  1.
         24    1    1    2    0    0 -0.30852125875E+00 -0.34433397844E+02  0.83473171963E+02  0.12091625393E+03  0.80419002446E+02 0.  0.
          1    1    1    2  501    0  0.20480449741E+02  0.40329031540E+01 -0.85875780369E+00  0.20891400011E+02  0.00000000000E+00 0. -1.
         -2    1    1    2    0  502 -0.20171928482E+02  0.30400494690E+02  0.97300965983E+02  0.10391619103E+03  0.00000000000E+00 0.  1.
<mgrwt>
<rscale>  2 0.72419598E+02</rscale>
<asrwt>0</asrwt>
<pdfrwt beam="1">  1       21 0.32741478E-01 0.72419598E+02</pdfrwt>
<pdfrwt beam="2">  1       21 0.50621897E-02 0.72419598E+02</pdfrwt>
<totfact> 0.22966111E+06</totfact>
</mgrwt>
</event>
<event>
 5    1  0.1994521E+000  0.1002651E+03  0.7546771E-02  0.1279739E+00
         21   -1    0    0  503  502  0.00000000000E+00  0.00000000000E+00  0.46958541390E+02  0.46958541390E+02  0.00000000000E+00 0. -1.
         21   -1    0    0  501  503 -0.00000000000E+00 -0.00000000000E+00 -0.24123878386E+03  0.24123878386E+03  0.00000000000E+00 0. -1.
         24    1    1    2    0    0  0.94556159845E+01 -0.83599564372E+02 -0.15086914871E+03  0.19054398921E+03  0.80419002446E+02 0. -1.
          1    1    1    2  501    0 -0.64882251030E+01  0.51096218695E+02 -0.39236500157E+02  0.64748927207E+02  0.00000000000E+00 0. -1.
         -2    1    1    2    0  502 -0.29673908815E+01  0.32503345677E+02 -0.41745936000E+01  0.32904408832E+02  0.00000000000E+00 0.  1.
<mgrwt>
<rscale>  2 0.10026511E+03</rscale>
<asrwt>0</asrwt>
<pdfrwt beam="1">  1       21 0.72243911E-02 0.10026511E+03</pdfrwt>
<pdfrwt beam="2">  1       21 0.37113659E-01 0.10026511E+03</pdfrwt>
<totfact> 0.10016012E+06</totfact>
</mgrwt>
</event>
<event>
 5    1  0.1994521E+000  0.8012493E+02  0.7546771E-02  0.1328697E+00
         21   -1    0    0  503  502  0.00000000000E+00  0.00000000000E+00  0.21911560216E+02  0.21911560216E+02  0.00000000000E+00 0.  1.
         21   -1    0    0  501  503 -0.00000000000E+00 -0.00000000000E+00 -0.16025237113E+04  0.16025237113E+04  0.00000000000E+00 0. -1.
         24    1    1    2    0    0  0.42218261374E+02 -0.10796452684E+02 -0.91393813160E+02  0.12930193356E+03  0.80419002446E+02 0.  1.
          1    1    1    2  501    0 -0.16008149269E+02  0.31531862050E+02 -0.13897649674E+04  0.13902147977E+04  0.00000000000E+00 0. -1.
         -2    1    1    2    0  502 -0.26210112105E+02 -0.20735409366E+02 -0.99453370532E+02  0.10491854025E+03  0.00000000000E+00 0.  1.
<mgrwt>
<rscale>  2 0.80124931E+02</rscale>
<asrwt>0</asrwt>
<pdfrwt beam="1">  1       21 0.33710099E-02 0.80124931E+02</pdfrwt>
<pdfrwt beam="2">  1       21 0.24654206E+00 0.80124931E+02</pdfrwt>
<totfact> 0.41008947E+04</totfact>
</mgrwt>
</event>
<event>
 5    1  0.1994521E+000  0.6807372E+02  0.7546771E-02  0.1366769E+00
         21   -1    0    0  503  502  0.00000000000E+00  0.00000000000E+00  0.26326658561E+02  0.26326658561E+02  0.00000000000E+00 0.  1.
         21   -1    0    0  501  503 -0.00000000000E+00 -0.00000000000E+00 -0.19396105805E+03  0.19396105805E+03  0.00000000000E+00 0. -1.
         24    1    1    2    0    0  0.18624123556E+02 -0.35364366143E+01 -0.10160483869E+03  0.13095848030E+03  0.80419002446E+02 0.  0.
          1    1    1    2  501    0  0.30203016361E+01  0.23730704410E+02 -0.50548547584E+02  0.55923378087E+02  0.00000000000E+00 0. -1.
         -2    1    1    2    0  502 -0.21644425192E+02 -0.20194267796E+02 -0.15481013214E+02  0.33405858226E+02  0.00000000000E+00 0.  1.
<mgrwt>
<rscale>  2 0.68073723E+02</rscale>
<asrwt>0</asrwt>
<pdfrwt beam="1">  1       21 0.40502550E-02 0.68073723E+02</pdfrwt>
<pdfrwt beam="2">  1       21 0.29840164E-01 0.68073723E+02</pdfrwt>
<totfact> 0.39401394E+06</totfact>
</mgrwt>
</event>
<event>
 5    1  0.1994521E+000  0.7727747E+02  0.7546771E-02  0.1336960E+00
         21   -1    0    0  501  502  0.00000000000E+00  0.00000000000E+00  0.16773724395E+03  0.16773724395E+03  0.00000000000E+00 0.  1.
         21   -1    0    0  502  503 -0.00000000000E+00 -0.00000000000E+00 -0.58022730380E+02  0.58022730380E+02  0.00000000000E+00 0.  1.
         24    1    1    2    0    0 -0.76890139946E+01  0.51942898032E+02  0.79230265232E+02  0.12450637122E+03  0.80419002446E+02 0.  1.
          1    1    1    2  501    0 -0.95755636631E+01 -0.20934606028E+02  0.53984446085E+02  0.58687899674E+02  0.00000000000E+00 0. -1.
         -2    1    1    2    0  503  0.17264577658E+02 -0.31008292004E+02 -0.23500197746E+02  0.42565703434E+02  0.00000000000E+00 0.  1.
<mgrwt>
<rscale>  2 0.77277466E+02</rscale>
<asrwt>0</asrwt>
<pdfrwt beam="1">  1       21 0.25805729E-01 0.77277466E+02</pdfrwt>
<pdfrwt beam="2">  1       21 0.89265740E-02 0.77277466E+02</pdfrwt>
<totfact> 0.13913654E+06</totfact>
</mgrwt>
</event>
<event>
 5    1  0.1994521E+000  0.7244033E+02  0.7546771E-02  0.1351986E+00
         21   -1    0    0  501  502  0.00000000000E+00  0.00000000000E+00  0.10923349530E+04  0.10923349530E+04  0.00000000000E+00 0. -1.
         21   -1    0    0  502  503 -0.00000000000E+00 -0.00000000000E+00 -0.53924920964E+01  0.53924920964E+01  0.00000000000E+00 0.  1.
         24    1    1    2    0    0 -0.20324471438E+02  0.52241191548E+01  0.50825919074E+03  0.51500970524E+03  0.80419002446E+02 0.  0.
          1    1    1    2  501    0  0.11708219897E+02  0.26459631243E+02  0.39982648253E+03  0.40087206267E+03  0.00000000000E+00 0. -1.
         -2    1    1    2    0  503  0.86162515413E+01 -0.31683750398E+02  0.17885678765E+03  0.18184567720E+03  0.00000000000E+00 0.  1.
<mgrwt>
<rscale>  2 0.72440333E+02</rscale>
<asrwt>0</asrwt>
<pdfrwt beam="1">  1       21 0.16805135E+00 0.72440333E+02</pdfrwt>
<pdfrwt beam="2">  1       21 0.82961504E-03 0.72440333E+02</pdfrwt>
<totfact> 0.11340443E+06</totfact>
</mgrwt>
</event>
<event>
 5    1  0.1994521E+000  0.1636898E+03  0.7546771E-02  0.1184593E+00
         21   -1    0    0  501  502  0.00000000000E+00  0.00000000000E+00  0.55558145793E+02  0.55558145793E+02  0.00000000000E+00 0. -1.
         21   -1    0    0  502  503 -0.00000000000E+00 -0.00000000000E+00 -0.53239720106E+03  0.53239720106E+03  0.00000000000E+00 0. -1.
         24    1    1    2    0    0 -0.14829722538E+03 -0.18494234395E+02 -0.18933323506E+03  0.25426048379E+03  0.80419002446E+02 0. -1.
          1    1    1    2  501    0  0.12713565009E+03 -0.34528114604E+01 -0.17006745319E+03  0.21236368349E+03  0.00000000000E+00 0. -1.
         -2    1    1    2    0  503  0.21161575297E+02  0.21947045856E+02 -0.11743836701E+03  0.12133117958E+03  0.00000000000E+00 0.  1.
<mgrwt>
<rscale>  2 0.16368975E+03</rscale>
<asrwt>0</asrwt>
<pdfrwt beam="1">  1       21 0.85474072E-02 0.16368975E+03</pdfrwt>
<pdfrwt beam="2">  1       21 0.81907260E-01 0.16368975E+03</pdfrwt>
<totfact> 0.14088734E+05</totfact>
</mgrwt>
</event>
<event>
 5    1  0.1994521E+000  0.1173919E+03  0.7546771E-02  0.1247463E+00
         21   -1    0    0  501  502  0.00000000000E+00  0.00000000000E+00  0.28821875760E+03  0.28821875760E+03  0.00000000000E+00 0. -1.
         21   -1    0    0  502  503 -0.00000000000E+00 -0.00000000000E+00 -0.51574254627E+02  0.51574254627E+02  0.00000000000E+00 0. -1.
         24    1    1    2    0    0  0.79819378254E+02 -0.34398466517E+02  0.92172409112E+02  0.15005784418E+03  0.80419002446E+02 0. -1.
          1    1    1    2  501    0 -0.92916701391E+02  0.16783441292E+02  0.13731903901E+03  0.16664847966E+03  0.00000000000E+00 0. -1.
         -2    1    1    2    0  503  0.13097323137E+02  0.17615025225E+02  0.71530548520E+01  0.23086688389E+02  0.00000000000E+00 0.  1.
<mgrwt>
<rscale>  2 0.11739189E+03</rscale>
<asrwt>0</asrwt>
<pdfrwt beam="1">  1       21 0.44341346E-01 0.11739189E+03</pdfrwt>
<pdfrwt beam="2">  1       21 0.79345009E-02 0.11739189E+03</pdfrwt>
<totfact> 0.59889501E+05</totfact>
</mgrwt>
</event>
<event>
 5    1  0.2001908E+000  0.1153147E+03  0.7546771E-02  0.1251033E+00
         21   -1    0    0  501  502  0.00000000000E+00  0.00000000000E+00  0.58454871465E+02  0.58454871465E+02  0.00000000000E+00 0. -1.
         21   -1    0    0  502  503 -0.00000000000E+00 -0.00000000000E+00 -0.73008554800E+03  0.73008554800E+03  0.00000000000E+00 0.  1.
         24    1    1    2    0    0 -0.17106590661E+02 -0.11829686202E+02 -0.14129739136E+03  0.16390468474E+03  0.80419002446E+02 0. -1.
          1    1    1    2  501    0 -0.57728665899E+02  0.37048200681E+02  0.17781365355E+02  0.70861449280E+02  0.00000000000E+00 0. -1.
         -2    1    1    2    0  503  0.74835256559E+02 -0.25218514479E+02 -0.54811465053E+03  0.55377428545E+03  0.00000000000E+00 0.  1.
<mgrwt>
<rscale>  2 0.11531470E+03</rscale>
<asrwt>0</asrwt>
<pdfrwt beam="1">  1       21 0.89930576E-02 0.11531470E+03</pdfrwt>
<pdfrwt beam="2">  1       21 0.11232085E+00 0.11531470E+03</pdfrwt>
<totfact> 0.63248625E+04</totfact>
</mgrwt>
</event>
<event>
 5    1  0.1994521E+000  0.7797196E+02  0.7546771E-02  0.1334907E+00
         21   -1    0    0  501  502  0.00000000000E+00  0.00000000000E+00  0.19204082128E+04  0.19204082128E+04  0.00000000000E+00 0.  1.
         21   -1    0    0  502  503 -0.00000000000E+00 -0.00000000000E+00 -0.16853661154E+02  0.16853661154E+02  0.00000000000E+00 0.  1.
         24    1    1    2    0    0  0.55613856476E+02 -0.91152389369E+00  0.15688871174E+04  0.15719312119E+04  0.80419002446E+02 0.  1.
          1    1    1    2  501    0 -0.24088505659E+02 -0.80355593923E+01  0.33142931081E+03  0.33240068349E+03  0.00000000000E+00 0. -1.
         -2    1    1    2    0  503 -0.31525350818E+02  0.89470832860E+01  0.32381234323E+01  0.32929978543E+02  0.00000000000E+00 0.  1.
<mgrwt>
<rscale>  2 0.77971957E+02</rscale>
<asrwt>0</asrwt>
<pdfrwt beam="1">  1       21 0.29544724E+00 0.77971957E+02</pdfrwt>
<pdfrwt beam="2">  1       21 0.25928725E-02 0.77971957E+02</pdfrwt>
<totfact> 0.34007242E+04</totfact>
</mgrwt>
</event>
<event>
 5    1  0.1994521E+000  0.9539206E+02  0.7546771E-02  0.1290296E+00
         21   -1    0    0  501  502  0.00000000000E+00  0.00000000000E+00  0.30415407528E+02  0.30415407528E+02  0.00000000000E+00 0.  1.
         21   -1    0    0  502  503 -0.00000000000E+00 -0.00000000000E+00 -0.38418799095E+03  0.38418799095E+03  0.00000000000E+00 0.  1.
         24    1    1    2    0    0 -0.72049537963E+02 -0.28786150684E+02 -0.12869918512E+03  0.17044199775E+03  0.80419002446E+02 0.  1.
          1    1    1    2  501    0  0.31381750689E+02  0.45851666436E+01 -0.30808541201E+02  0.44215429891E+02  0.00000000000E+00 0. -1.
         -2    1    1    2    0  503  0.40667787274E+02  0.24200984040E+02 -0.19426485710E+03  0.19994597084E+03  0.00000000000E+00 0.  1.
<mgrwt>
<rscale>  2 0.95392062E+02</rscale>
<asrwt>0</asrwt>
<pdfrwt beam="1">  1       21 0.46792934E-02 0.95392062E+02</pdfrwt>
<pdfrwt beam="2">  1       21 0.59105846E-01 0.95392062E+02</pdfrwt>
<totfact> 0.80821971E+05</totfact>
</mgrwt>
</event>
<event>
 5    1  0.1994521E+000  0.6985178E+02  0.7546771E-02  0.1360598E+00
         21   -1    0    0  501  502  0.00000000000E+00  0.00000000000E+00  0.20156121728E+02  0.20156121728E+02  0.00000000000E+00 0.  1.
         21   -1    0    0  502  503 -0.00000000000E+00 -0.00000000000E+00 -0.47587237823E+03  0.47587237823E+03  0.00000000000E+00 0. -1.
         24    1    1    2    0    0  0.18254721668E+01  0.24685368261E+01 -0.36007619854E+03  0.36896003948E+03  0.80419002446E+02 0.  0.
          1    1    1    2  501    0  0.18981610268E+01 -0.30695669516E+02 -0.38864504714E+01  0.30998897393E+02  0.00000000000E+00 0. -1.
         -2    1    1    2    0  503 -0.37236331936E+01  0.28227132690E+02 -0.91753607489E+02  0.96069563085E+02  0.00000000000E+00 0.  1.
<mgrwt>
<rscale>  2 0.69851784E+02</rscale>
<asrwt>0</asrwt>
<pdfrwt beam="1">  1       21 0.31009416E-02 0.69851784E+02</pdfrwt>
<pdfrwt beam="2">  1       21 0.73211139E-01 0.69851784E+02</pdfrwt>
<totfact> 0.10012794E+06</totfact>
</mgrwt>
</event>
<event>
 5    1  0.1994521E+000  0.6689108E+02  0.7546771E-02  0.1370996E+00
         21   -1    0    0  503  502  0.00000000000E+00  0.00000000000E+00  0.43176151767E+02  0.43176151767E+02  0.00000000000E+00 0. -1.
         21   -1    0    0  501  503 -0.00000000000E+00 -0.00000000000E+00 -0.15133923774E+03  0.15133923774E+03  0.00000000000E+00 0. -1.
         24    1    1    2    0    0 -0.25625298541E+01  0.10313585218E+02 -0.51909128219E+02  0.96305296563E+02  0.80419002446E+02 0. -1.
          1    1    1    2  501    0  0.23899058549E+02 -0.18069907332E+02 -0.66774539991E+02  0.73188289647E+02  0.00000000000E+00 0. -1.
         -2    1    1    2    0  502 -0.21336528694E+02  0.77563221139E+01  0.10520582240E+02  0.25021803295E+02  0.00000000000E+00 0.  1.
<mgrwt>
<rscale>  2 0.66891078E+02</rscale>
<asrwt>0</asrwt>
<pdfrwt beam="1">  1       21 0.66424851E-02 0.66891078E+02</pdfrwt>
<pdfrwt beam="2">  1       21 0.23282959E-01 0.66891078E+02</pdfrwt>
<totfact> 0.27583905E+06</totfact>
</mgrwt>
</event>
<event>
 5    1  0.1994521E+000  0.9759273E+02  0.7546771E-02  0.1285441E+00
         21   -1    0    0  501  502  0.00000000000E+00  0.00000000000E+00  0.90047713218E+03  0.90047713218E+03  0.00000000000E+00 0. -1.
         21   -1    0    0  502  503 -0.00000000000E+00 -0.00000000000E+00 -0.17068743087E+02  0.17068743087E+02  0.00000000000E+00 0.  1.
         24    1    1    2    0    0 -0.16035313804E+02 -0.37099326391E+02  0.16289962771E+03  0.18611017159E+03  0.80419002446E+02 0.  1.
          1    1    1    2  501    0 -0.32024860168E+02 -0.14071647066E+02  0.46931197173E+03  0.47061377979E+03  0.00000000000E+00 0. -1.
         -2    1    1    2    0  503  0.48060173972E+02  0.51170973457E+02  0.25119678965E+03  0.26082192388E+03  0.00000000000E+00 0.  1.
<mgrwt>
<rscale>  2 0.97592726E+02</rscale>
<asrwt>0</asrwt>
<pdfrwt beam="1">  1       21 0.13853491E+00 0.97592726E+02</pdfrwt>
<pdfrwt beam="2">  1       21 0.26259612E-02 0.97592726E+02</pdfrwt>
<totfact> 0.29901002E+05</totfact>
</mgrwt>
</event>
<event>
 5    1  0.1994521E+000  0.1799090E+03  0.7546771E-02  0.1167891E+00
         21   -1    0    0  503  502  0.00000000000E+00  0.00000000000E+00  0.52340948642E+02  0.52340948642E+02  0.00000000000E+00 0.  1.
         21   -1    0    0  501  503 -0.00000000000E+00 -0.00000000000E+00 -0.12412343553E+04  0.12412343553E+04  0.00000000000E+00 0. -1.
         24    1    1    2    0    0  0.93150016720E+02 -0.86197169236E+02 -0.71208749744E+03  0.72776555124E+03  0.80419002446E+02 0.  0.
          1    1    1    2  501    0 -0.30495021509E+02  0.12973740302E+03 -0.47077254934E+03  0.48927347495E+03  0.00000000000E+00 0. -1.
         -2    1    1    2    0  502 -0.62654995210E+02 -0.43540233780E+02 -0.60333598847E+01  0.76536277764E+02  0.00000000000E+00 0.  1.
<mgrwt>
<rscale>  2 0.17990903E+03</rscale>
<asrwt>0</asrwt>
<pdfrwt beam="1">  1       21 0.80524539E-02 0.17990903E+03</pdfrwt>
<pdfrwt beam="2">  1       21 0.19095912E+00 0.17990903E+03</pdfrwt>
<totfact> 0.18416401E+04</totfact>
</mgrwt>
</event>
<event>
 5    1  0.1994521E+000  0.1087027E+03  0.7546771E-02  0.1262991E+00
         21   -1    0    0  501  502  0.00000000000E+00  0.00000000000E+00  0.45644679082E+02  0.45644679082E+02  0.00000000000E+00 0. -1.
         21   -1    0    0  502  503 -0.00000000000E+00 -0.00000000000E+00 -0.20422057448E+04  0.20422057448E+04  0.00000000000E+00 0.  1.
         24    1    1    2    0    0  0.26398050238E+02 -0.87351079975E+02 -0.61350728773E+02  0.13622847024E+03  0.80419002446E+02 0. -1.
          1    1    1    2  501    0 -0.31597722259E+02  0.58793071919E+02 -0.12959651311E+03  0.14577481802E+03  0.00000000000E+00 0. -1.
         -2    1    1    2    0  503  0.51996720212E+01  0.28558008056E+02 -0.18056138238E+04  0.18058471356E+04  0.00000000000E+00 0.  1.
<mgrwt>
<rscale>  2 0.10870268E+03</rscale>
<asrwt>0</asrwt>
<pdfrwt beam="1">  1       21 0.70222593E-02 0.10870268E+03</pdfrwt>
<pdfrwt beam="2">  1       21 0.31418545E+00 0.10870268E+03</pdfrwt>
<totfact> 0.48376164E+03</totfact>
</mgrwt>
</event>
<event>
 5    1  0.1994521E+000  0.7820400E+02  0.7546771E-02  0.1334227E+00
         21   -1    0    0  501  502  0.00000000000E+00  0.00000000000E+00  0.24954073755E+03  0.24954073755E+03  0.00000000000E+00 0. -1.
         21   -1    0    0  502  503 -0.00000000000E+00 -0.00000000000E+00 -0.39044339533E+02  0.39044339533E+02  0.00000000000E+00 0.  1.
         24    1    1    2    0    0  0.31953979456E+02  0.33884442638E+02  0.46751304156E+02  0.10402938359E+03  0.80419002446E+02 0. -1.
          1    1    1    2  501    0 -0.40337797810E+02 -0.15397788644E+02  0.15751022862E+03  0.16332085582E+03  0.00000000000E+00 0. -1.
         -2    1    1    2    0  503  0.83838183549E+01 -0.18486653994E+02  0.62348652418E+01  0.21234837666E+02  0.00000000000E+00 0.  1.
<mgrwt>
<rscale>  2 0.78204000E+02</rscale>
<asrwt>0</asrwt>
<pdfrwt beam="1">  1       21 0.38390882E-01 0.78204000E+02</pdfrwt>
<pdfrwt beam="2">  1       21 0.60068216E-02 0.78204000E+02</pdfrwt>
<totfact> 0.12730268E+06</totfact>
</mgrwt>
</event>
<event>
 5    1  0.1994521E+000  0.7838523E+02  0.7546771E-02  0.1333697E+00
         21   -1    0    0  503  502  0.00000000000E+00  0.00000000000E+00  0.13826134228E+03  0.13826134228E+03  0.00000000000E+00 0. -1.
         21   -1    0    0  501  503 -0.00000000000E+00 -0.00000000000E+00 -0.71528810207E+02  0.71528810207E+02  0.00000000000E+00 0. -1.
         24    1    1    2    0    0 -0.35346920106E+02 -0.43908072660E+02  0.61961188011E+02  0.11611945737E+03  0.80419002446E+02 0.  0.
          1    1    1    2  501    0  0.26309538048E+02  0.20132750829E+02 -0.33890203349E+02  0.47392671705E+02  0.00000000000E+00 0. -1.
         -2    1    1    2    0  502  0.90373820574E+01  0.23775321831E+02  0.38661547411E+02  0.46278023411E+02  0.00000000000E+00 0.  1.
<mgrwt>
<rscale>  2 0.78385233E+02</rscale>
<asrwt>0</asrwt>
<pdfrwt beam="1">  1       21 0.21270976E-01 0.78385233E+02</pdfrwt>
<pdfrwt beam="2">  1       21 0.11004432E-01 0.78385233E+02</pdfrwt>
<totfact> 0.13875255E+06</totfact>
</mgrwt>
</event>
<event>
 5    1  0.1994521E+000  0.1416450E+03  0.7546771E-02  0.1211133E+00
         21   -1    0    0  503  502  0.00000000000E+00  0.00000000000E+00  0.60107703634E+03  0.60107703634E+03  0.00000000000E+00 0.  1.
         21   -1    0    0  501  503 -0.00000000000E+00 -0.00000000000E+00 -0.61685178731E+02  0.61685178731E+02  0.00000000000E+00 0.  1.
         24    1    1    2    0    0  0.44006735611E+02  0.52019987038E+02  0.24588905891E+03  0.26752816128E+03  0.80419002446E+02 0.  1.
          1    1    1    2  501    0  0.38933464392E+02  0.38749605786E+02 -0.20018493228E+02  0.58464405147E+02  0.00000000000E+00 0. -1.
         -2    1    1    2    0  502 -0.82940200003E+02 -0.90769592823E+02  0.31352129192E+03  0.33676964864E+03  0.00000000000E+00 0.  1.
<mgrwt>
<rscale>  2 0.14164495E+03</rscale>
<asrwt>0</asrwt>
<pdfrwt beam="1">  1       21 0.92473386E-01 0.14164495E+03</pdfrwt>
<pdfrwt beam="2">  1       21 0.94900279E-02 0.14164495E+03</pdfrwt>
<totfact> 0.89734496E+04</totfact>
</mgrwt>
</event>
<event>
 5    1  0.1994521E+000  0.8494500E+02  0.7546771E-02  0.1315576E+00
         21   -1    0    0  501  502  0.00000000000E+00  0.00000000000E+00  0.31774053881E+03  0.31774053881E+03  0.00000000000E+00 0.  1.
         21   -1    0    0  502  503 -0.00000000000E+00 -0.00000000000E+00 -0.29589259408E+02  0.29589259408E+02  0.00000000000E+00 0. -1.
         24    1    1    2    0    0  0.35575507405E+02  0.25552622631E+02  0.20588648682E+03  0.22533311932E+03  0.80419002446E+02 0.  1.
          1    1    1    2  501    0 -0.26545527017E+02 -0.47594228556E+02  0.81653695648E+02  0.98169249816E+02  0.00000000000E+00 0. -1.
         -2    1    1    2    0  503 -0.90299803875E+01  0.22041605925E+02  0.61109693484E+00  0.23827429090E+02  0.00000000000E+00 0.  1.
<mgrwt>
<rscale>  2 0.84945001E+02</rscale>
<asrwt>0</asrwt>
<pdfrwt beam="1">  1       21 0.48883157E-01 0.84945001E+02</pdfrwt>
<pdfrwt beam="2">  1       21 0.45521940E-02 0.84945001E+02</pdfrwt>
<totfact> 0.12496872E+06</totfact>
</mgrwt>
</event>
<event>
 5    1  0.1994521E+000  0.1073083E+03  0.7546771E-02  0.1265637E+00
         21   -1    0    0  503  502  0.00000000000E+00  0.00000000000E+00  0.25191779148E+02  0.25191779148E+02  0.00000000000E+00 0.  1.
         21   -1    0    0  501  503 -0.00000000000E+00 -0.00000000000E+00 -0.10681727089E+04  0.10681727089E+04  0.00000000000E+00 0. -1.
         24    1    1    2    0    0 -0.46053608557E+01 -0.47790272897E+02 -0.75476172694E+03  0.76055085296E+03  0.80419002446E+02 0. -1.
          1    1    1    2  501    0  0.21495680376E+02 -0.32468338943E+02 -0.22739356613E+03  0.23070347034E+03  0.00000000000E+00 0. -1.
         -2    1    1    2    0  502 -0.16890319520E+02  0.80258611840E+02 -0.60825636690E+02  0.10211016476E+03  0.00000000000E+00 0.  1.
<mgrwt>
<rscale>  2 0.10730826E+03</rscale>
<asrwt>0</asrwt>
<pdfrwt beam="1">  1       21 0.38756582E-02 0.10730826E+03</pdfrwt>
<pdfrwt beam="2">  1       21 0.16433427E+00 0.10730826E+03</pdfrwt>
<totfact> 0.10142697E+05</totfact>
</mgrwt>
</event>
<event>
 5    1  0.1994521E+000  0.6426337E+02  0.7546771E-02  0.1380764E+00
         21   -1    0    0  501  502  0.00000000000E+00  0.00000000000E+00  0.24399243026E+03  0.24399243026E+03  0.00000000000E+00 0.  1.
         21   -1    0    0  502  503 -0.00000000000E+00 -0.00000000000E+00 -0.14887326687E+03  0.14887326687E+03  0.00000000000E+00 0.  1.
         24    1    1    2    0    0  0.46475803992E+01  0.16300793750E+00  0.54590788410E+02  0.97308769948E+02  0.80419002446E+02 0.  1.
          1    1    1    2  501    0  0.82645478400E+00 -0.23747540703E+02  0.16603987155E+03  0.16773153449E+03  0.00000000000E+00 0. -1.
         -2    1    1    2    0  503 -0.54740351832E+01  0.23584532765E+02 -0.12551149657E+03  0.12782539270E+03  0.00000000000E+00 0.  1.
<mgrwt>
<rscale>  2 0.64263369E+02</rscale>
<asrwt>0</asrwt>
<pdfrwt beam="1">  1       21 0.37537297E-01 0.64263369E+02</pdfrwt>
<pdfrwt beam="2">  1       21 0.22903580E-01 0.64263369E+02</pdfrwt>
<totfact> 0.12875930E+05</totfact>
</mgrwt>
</event>
<event>
 5    1  0.1994521E+000  0.1017586E+03  0.7546771E-02  0.1276641E+00
         21   -1    0    0  503  502  0.00000000000E+00  0.00000000000E+00  0.10904256392E+03  0.10904256392E+03  0.00000000000E+00 0.  1.
         21   -1    0    0  501  503 -0.00000000000E+00 -0.00000000000E+00 -0.22782589646E+03  0.22782589646E+03  0.00000000000E+00 0.  1.
         24    1    1    2    0    0  0.73144428352E+02 -0.43037516718E+02 -0.69665415589E+01  0.11712422422E+03  0.80419002446E+02 0.  0.
          1    1    1    2  501    0 -0.23456093899E+02  0.48980138182E+01 -0.14629464580E+03  0.14824406319E+03  0.00000000000E+00 0. -1.
         -2    1    1    2    0  502 -0.49688334453E+02  0.38139502899E+02  0.34477854814E+02  0.71500172970E+02  0.00000000000E+00 0.  1.
<mgrwt>
<rscale>  2 0.10175858E+03</rscale>
<asrwt>0</asrwt>
<pdfrwt beam="1">  1       21 0.16775779E-01 0.10175858E+03</pdfrwt>
<pdfrwt beam="2">  1       21 0.35050138E-01 0.10175858E+03</pdfrwt>
<totfact> 0.25616431E+05</totfact>
</mgrwt>
</event>
<event>
 5    1  0.1994521E+000  0.6833121E+02  0.7546771E-02  0.1365862E+00
         21   -1    0    0  503  502  0.00000000000E+00  0.00000000000E+00  0.10254119980E+03  0.10254119980E+03  0.00000000000E+00 0. -1.
         21   -1    0    0  501  503 -0.00000000000E+00 -0.00000000000E+00 -0.12425488784E+03  0.12425488784E+03  0.00000000000E+00 0.  1.
         24    1    1    2    0    0  0.16460077752E+02 -0.25224869624E+02  0.20083693498E+02  0.88191830155E+02  0.80419002446E+02 0. -1.
          1    1    1    2  501    0  0.93807686229E+01  0.23014181838E+02 -0.84810636832E+02  0.88377007787E+02  0.00000000000E+00 0. -1.
         -2    1    1    2    0  502 -0.25840846375E+02  0.22106877860E+01  0.43013255285E+02  0.50227249697E+02  0.00000000000E+00 0.  1.
<mgrwt>
<rscale>  2 0.68331207E+02</rscale>
<asrwt>0</asrwt>
<pdfrwt beam="1">  1       21 0.15775569E-01 0.68331207E+02</pdfrwt>
<pdfrwt beam="2">  1       21 0.19116137E-01 0.68331207E+02</pdfrwt>
<totfact> 0.89144913E+05</totfact>
</mgrwt>
</event>
<event>
 5    1  0.1994521E+000  0.6786358E+02  0.7546771E-02  0.1367512E+00
         21   -1    0    0  503  502  0.00000000000E+00  0.00000000000E+00  0.45902596643E+02  0.45902596643E+02  0.00000000000E+00 0. -1.
         21   -1    0    0  501  503 -0.00000000000E+00 -0.00000000000E+00 -0.12182387543E+03  0.12182387543E+03  0.00000000000E+00 0.  1.
         24    1    1    2    0    0 -0.10365379195E+02  0.81037862837E+01 -0.78513723341E+02  0.11315800080E+03  0.80419002446E+02 0.  1.
          1    1    1    2  501    0  0.25848914619E+02 -0.21610282851E+02 -0.10147423318E+01  0.33707572055E+02  0.00000000000E+00 0. -1.
         -2    1    1    2    0  502 -0.15483535424E+02  0.13506496567E+02  0.36071868884E+01  0.20860899213E+02  0.00000000000E+00 0.  1.
<mgrwt>
<rscale>  2 0.67863583E+02</rscale>
<asrwt>0</asrwt>
<pdfrwt beam="1">  1       21 0.70619380E-02 0.67863583E+02</pdfrwt>
<pdfrwt beam="2">  1       21 0.18742135E-01 0.67863583E+02</pdfrwt>
<totfact> 0.36992915E+06</totfact>
</mgrwt>
</event>
<event>
 5    1  0.1994521E+000  0.1136162E+03  0.7546771E-02  0.1254016E+00
         21   -1    0    0  503  502  0.00000000000E+00  0.00000000000E+00  0.56304566166E+03  0.56304566166E+03  0.00000000000E+00 0.  1.
         21   -1    0    0  501  503 -0.00000000000E+00 -0.00000000000E+00 -0.47290253393E+03  0.47290253393E+03  0.00000000000E+00 0. -1.
         24    1    1    2    0    0 -0.34960861946E+02 -0.43011461606E+02 -0.13602516495E+03  0.16745838035E+03  0.80419002446E+02 0.  0.
          1    1    1    2  501    0  0.24386818675E+02  0.83877303862E+02 -0.31438319327E+03  0.32629267727E+03  0.00000000000E+00 0. -1.
         -2    1    1    2    0  502  0.10574043272E+02 -0.40865842256E+02  0.54055148595E+03  0.54219713797E+03  0.00000000000E+00 0.  1.
<mgrwt>
<rscale>  2 0.11361621E+03</rscale>
<asrwt>0</asrwt>
<pdfrwt beam="1">  1       21 0.86622409E-01 0.11361621E+03</pdfrwt>
<pdfrwt beam="2">  1       21 0.72754237E-01 0.11361621E+03</pdfrwt>
<totfact> 0.21294643E+03</totfact>
</mgrwt>
</event>
<event>
 5    1  0.1994521E+000  0.7154243E+02  0.7546771E-02  0.1354925E+00
         21   -1    0    0  503  502  0.00000000000E+00  0.00000000000E+00  0.70162665098E+01  0.70162665098E+01  0.00000000000E+00 0. -1.
         21   -1    0    0  501  503 -0.00000000000E+00 -0.00000000000E+00 -0.96697808599E+03  0.96697808599E+03  0.00000000000E+00 0.  1.
         24    1    1    2    0    0 -0.39569056261E+02 -0.45816226774E+01 -0.64961141842E+03  0.65578114670E+03  0.80419002446E+02 0.  1.
          1    1    1    2  501    0  0.14372764791E+02 -0.15487484020E+02 -0.23895632472E+03  0.23988864844E+03  0.00000000000E+00 0. -1.
         -2    1    1    2    0  502  0.25196291470E+02  0.20069106697E+02 -0.71394076349E+02  0.78324557357E+02  0.00000000000E+00 0.  1.
<mgrwt>
<rscale>  2 0.71542428E+02</rscale>
<asrwt>0</asrwt>
<pdfrwt beam="1">  1       21 0.10794255E-02 0.71542428E+02</pdfrwt>
<pdfrwt beam="2">  1       21 0.14876588E+00 0.71542428E+02</pdfrwt>
<totfact> 0.10305846E+06</totfact>
</mgrwt>
</event>
<event>
 5    1  0.1994521E+000  0.8404022E+02  0.7546771E-02  0.1317962E+00
         21   -1    0    0  501  502  0.00000000000E+00  0.00000000000E+00  0.15562616917E+03  0.15562616917E+03  0.00000000000E+00 0. -1.
         21   -1    0    0  502  503 -0.00000000000E+00 -0.00000000000E+00 -0.88390552848E+02  0.88390552848E+02  0.00000000000E+00 0.  1.
         24    1    1    2    0    0  0.39055971116E+02  0.20403472204E+00  0.44008036557E+02  0.99646042300E+02  0.80419002446E+02 0.  1.
          1    1    1    2  501    0 -0.19989231411E+02  0.34045435989E+02  0.71809406172E+02  0.81946640558E+02  0.00000000000E+00 0. -1.
         -2    1    1    2    0  503 -0.19066739706E+02 -0.34249470711E+02 -0.48581826411E+02  0.62424039155E+02  0.00000000000E+00 0.  1.
<mgrwt>
<rscale>  2 0.84040219E+02</rscale>
<asrwt>0</asrwt>
<pdfrwt beam="1">  1       21 0.23942488E-01 0.84040219E+02</pdfrwt>
<pdfrwt beam="2">  1       21 0.13598547E-01 0.84040219E+02</pdfrwt>
<totfact> 0.77095370E+05</totfact>
</mgrwt>
</event>
<event>
 5    1  0.1994521E+000  0.1017341E+03  0.7546771E-02  0.1276691E+00
         21   -1    0    0  501  502  0.00000000000E+00  0.00000000000E+00  0.12507568799E+03  0.12507568799E+03  0.00000000000E+00 0. -1.
         21   -1    0    0  502  503 -0.00000000000E+00 -0.00000000000E+00 -0.13855414156E+03  0.13855414156E+03  0.00000000000E+00 0. -1.
         24    1    1    2    0    0 -0.19451064085E+02 -0.48351435198E+02  0.75665002100E+02  0.12210083405E+03  0.80419002446E+02 0. -1.
          1    1    1    2  501    0  0.29078769196E+02  0.74392747389E+02 -0.52612298299E+02  0.95644705104E+02  0.00000000000E+00 0. -1.
         -2    1    1    2    0  503 -0.96277051112E+01 -0.26041312191E+02 -0.36531157367E+02  0.45884290394E+02  0.00000000000E+00 0.  1.
<mgrwt>
<rscale>  2 0.10173411E+03</rscale>
<asrwt>0</asrwt>
<pdfrwt beam="1">  1       21 0.19242414E-01 0.10173411E+03</pdfrwt>
<pdfrwt beam="2">  1       21 0.21316022E-01 0.10173411E+03</pdfrwt>
<totfact> 0.51279980E+05</totfact>
</mgrwt>
</event>
<event>
 5    1  0.1994521E+000  0.6885541E+02  0.7546771E-02  0.1364029E+00
         21   -1    0    0  501  502  0.00000000000E+00  0.00000000000E+00  0.34540299668E+02  0.34540299668E+02  0.00000000000E+00 0.  1.
         21   -1    0    0  502  503 -0.00000000000E+00 -0.00000000000E+00 -0.23489149552E+03  0.23489149552E+03  0.00000000000E+00 0.  1.
         24    1    1    2    0    0 -0.57669969937E+00  0.42447184671E+02 -0.85799159022E+02  0.12502322869E+03  0.80419002446E+02 0.  1.
          1    1    1    2  501    0 -0.95340492535E+01 -0.20036930429E+02  0.46719390798E+01  0.22676059864E+02  0.00000000000E+00 0. -1.
         -2    1    1    2    0  503  0.10110748953E+02 -0.22410254241E+02 -0.11922397591E+03  0.12173250664E+03  0.00000000000E+00 0.  1.
<mgrwt>
<rscale>  2 0.68855409E+02</rscale>
<asrwt>0</asrwt>
<pdfrwt beam="1">  1       21 0.53138922E-02 0.68855409E+02</pdfrwt>
<pdfrwt beam="2">  1       21 0.36137153E-01 0.68855409E+02</pdfrwt>
<totfact> 0.17481620E+06</totfact>
</mgrwt>
</event>
<event>
 5    1  0.1994521E+000  0.8578749E+02  0.7546771E-02  0.1313386E+00
         21   -1    0    0  503  502  0.00000000000E+00  0.00000000000E+00  0.25918913775E+03  0.25918913775E+03  0.00000000000E+00 0. -1.
         21   -1    0    0  501  503 -0.00000000000E+00 -0.00000000000E+00 -0.12002243882E+03  0.12002243882E+03  0.00000000000E+00 0. -1.
         24    1    1    2    0    0  0.12524155400E+02  0.97311912386E+01  0.23081715551E+03  0.24493943289E+03  0.80419002446E+02 0. -1.
          1    1    1    2  501    0  0.37918772966E+02  0.14229365458E+01 -0.67072526272E+02  0.77062194831E+02  0.00000000000E+00 0. -1.
         -2    1    1    2    0  502 -0.50442928365E+02 -0.11154127784E+02 -0.24577930310E+02  0.57209948847E+02  0.00000000000E+00 0.  1.
<mgrwt>
<rscale>  2 0.85787488E+02</rscale>
<asrwt>0</asrwt>
<pdfrwt beam="1">  1       21 0.39875252E-01 0.85787488E+02</pdfrwt>
<pdfrwt beam="2">  1       21 0.18464991E-01 0.85787488E+02</pdfrwt>
<totfact> 0.16792773E+05</totfact>
</mgrwt>
</event>
<event>
 5    1  0.1994521E+000  0.7216680E+02  0.7546771E-02  0.1352876E+00
         21   -1    0    0  503  502  0.00000000000E+00  0.00000000000E+00  0.39664138990E+02  0.39664138990E+02  0.00000000000E+00 0.  1.
         21   -1    0    0  501  503 -0.00000000000E+00 -0.00000000000E+00 -0.56896001460E+03  0.56896001460E+03  0.00000000000E+00 0. -1.
         24    1    1    2    0    0 -0.11755605332E+02  0.30344793811E+02 -0.31473401879E+03  0.32647162098E+03  0.80419002446E+02 0.  0.
          1    1    1    2  501    0 -0.18584255876E+02 -0.12116664518E+02 -0.23843149963E+03  0.23946141264E+03  0.00000000000E+00 0. -1.
         -2    1    1    2    0  502  0.30339861208E+02 -0.18228129293E+02  0.23869642818E+02  0.42691119965E+02  0.00000000000E+00 0.  1.
<mgrwt>
<rscale>  2 0.72166801E+02</rscale>
<asrwt>0</asrwt>
<pdfrwt beam="1">  1       21 0.61021751E-02 0.72166801E+02</pdfrwt>
<pdfrwt beam="2">  1       21 0.87532312E-01 0.72166801E+02</pdfrwt>
<totfact> 0.22258402E+05</totfact>
</mgrwt>
</event>
<event>
 5    1  0.1994521E+000  0.7691700E+02  0.7546771E-02  0.1338035E+00
         21   -1    0    0  501  502  0.00000000000E+00  0.00000000000E+00  0.20368772921E+02  0.20368772921E+02  0.00000000000E+00 0. -1.
         21   -1    0    0  502  503 -0.00000000000E+00 -0.00000000000E+00 -0.61498580828E+03  0.61498580828E+03  0.00000000000E+00 0. -1.
         24    1    1    2    0    0  0.12954145731E+02 -0.21293702481E+02 -0.51348921659E+03  0.52034567661E+03  0.80419002446E+02 0. -1.
          1    1    1    2  501    0 -0.38159086782E+02  0.22693671848E+02 -0.19652529808E+02  0.48552451780E+02  0.00000000000E+00 0. -1.
         -2    1    1    2    0  503  0.25204941050E+02 -0.13999693666E+01 -0.61475288957E+02  0.66456452809E+02  0.00000000000E+00 0.  1.
<mgrwt>
<rscale>  2 0.76916996E+02</rscale>
<asrwt>0</asrwt>
<pdfrwt beam="1">  1       21 0.31336569E-02 0.76916996E+02</pdfrwt>
<pdfrwt beam="2">  1       21 0.94613215E-01 0.76916996E+02</pdfrwt>
<totfact> 0.55890784E+05</totfact>
</mgrwt>
</event>
<event>
 5    1  0.1994521E+000  0.6506386E+02  0.7546771E-02  0.1377731E+00
         21   -1    0    0  501  502  0.00000000000E+00  0.00000000000E+00  0.28484988120E+03  0.28484988120E+03  0.00000000000E+00 0. -1.
         21   -1    0    0  502  503 -0.00000000000E+00 -0.00000000000E+00 -0.20412270631E+03  0.20412270631E+03  0.00000000000E+00 0.  1.
         24    1    1    2    0    0 -0.25756692935E+02 -0.47074145693E+01 -0.17556772895E+03  0.19487639772E+03  0.80419002446E+02 0.  1.
          1    1    1    2  501    0  0.14952050537E+02 -0.16183898268E+02  0.26724528528E+03  0.26815205553E+03  0.00000000000E+00 0. -1.
         -2    1    1    2    0  503  0.10804642398E+02  0.20891312837E+02 -0.10950381439E+02  0.25944134271E+02  0.00000000000E+00 0.  1.
<mgrwt>
<rscale>  2 0.65063862E+02</rscale>
<asrwt>0</asrwt>
<pdfrwt beam="1">  1       21 0.43823059E-01 0.65063862E+02</pdfrwt>
<pdfrwt beam="2">  1       21 0.31403493E-01 0.65063862E+02</pdfrwt>
<totfact> 0.52681439E+04</totfact>
</mgrwt>
</event>
<event>
 5    1  0.1994521E+000  0.9394429E+02  0.7546771E-02  0.1293572E+00
         21   -1    0    0  503  502  0.00000000000E+00  0.00000000000E+00  0.18916594264E+03  0.18916594264E+03  0.00000000000E+00 0.  1.
         21   -1    0    0  501  503 -0.00000000000E+00 -0.00000000000E+00 -0.64416002572E+02  0.64416002572E+02  0.00000000000E+00 0.  1.
         24    1    1    2    0    0 -0.39356634229E+02 -0.24998536418E+02  0.10451202328E+03  0.13987083486E+03  0.80419002446E+02 0.  1.
          1    1    1    2  501    0 -0.22978620367E+02  0.23076927357E+02 -0.21178116438E+02  0.38846804066E+02  0.00000000000E+00 0. -1.
         -2    1    1    2    0  502  0.62335254597E+02  0.19216090605E+01  0.41416033227E+02  0.74864306284E+02  0.00000000000E+00 0.  1.
<mgrwt>
<rscale>  2 0.93944290E+02</rscale>
<asrwt>0</asrwt>
<pdfrwt beam="1">  1       21 0.29102453E-01 0.93944290E+02</pdfrwt>
<pdfrwt beam="2">  1       21 0.99101543E-02 0.93944290E+02</pdfrwt>
<totfact> 0.93064251E+05</totfact>
</mgrwt>
</event>
<event>
 5    1  0.1994521E+000  0.1094862E+03  0.7546771E-02  0.1261524E+00
         21   -1    0    0  503  502  0.00000000000E+00  0.00000000000E+00  0.60720686904E+02  0.60720686904E+02  0.00000000000E+00 0.  1.
         21   -1    0    0  501  503 -0.00000000000E+00 -0.00000000000E+00 -0.63864075996E+03  0.63864075996E+03  0.00000000000E+00 0. -1.
         24    1    1    2    0    0 -0.21048747953E+02  0.40905620049E+02  0.92403295360E+01  0.93107030810E+02  0.80419002446E+02 0.  1.
          1    1    1    2  501    0  0.39782363604E+02  0.31997308733E+02 -0.41795966299E+03  0.42106619920E+03  0.00000000000E+00 0. -1.
         -2    1    1    2    0  502 -0.18733615650E+02 -0.72902928782E+02 -0.16920073960E+03  0.18518821686E+03  0.00000000000E+00 0.  1.
<mgrwt>
<rscale>  2 0.10948616E+03</rscale>
<asrwt>0</asrwt>
<pdfrwt beam="1">  1       21 0.93416437E-02 0.10948616E+03</pdfrwt>
<pdfrwt beam="2">  1       21 0.98252429E-01 0.10948616E+03</pdfrwt>
<totfact> 0.81453282E+04</totfact>
</mgrwt>
</event>
<event>
 5    1  0.1994521E+000  0.6960144E+02  0.7546771E-02  0.1361454E+00
         21   -1    0    0  501  502  0.00000000000E+00  0.00000000000E+00  0.87076144674E+03  0.87076144674E+03  0.00000000000E+00 0.  1.
         21   -1    0    0  502  503 -0.00000000000E+00 -0.00000000000E+00 -0.68562063025E+01  0.68562063025E+01  0.00000000000E+00 0. -1.
         24    1    1    2    0    0  0.43215707025E+02  0.54637085235E+01  0.37764072011E+03  0.38855781923E+03  0.80419002446E+02 0. -1.
          1    1    1    2  501    0 -0.19575502658E+02  0.72832205896E+01  0.31605149978E+03  0.31674089745E+03  0.00000000000E+00 0. -1.
         -2    1    1    2    0  503 -0.23640204367E+02 -0.12746929113E+02  0.17021302055E+03  0.17231893636E+03  0.00000000000E+00 0.  1.
<mgrwt>
<rscale>  2 0.69601438E+02</rscale>
<asrwt>0</asrwt>
<pdfrwt beam="1">  1       21 0.13396321E+00 0.69601438E+02</pdfrwt>
<pdfrwt beam="2">  1       21 0.10548017E-02 0.69601438E+02</pdfrwt>
<totfact> 0.13851909E+06</totfact>
</mgrwt>
</event>
<event>
 5    1  0.1994521E+000  0.7481545E+02  0.7546771E-02  0.1344443E+00
         21   -1    0    0  501  502  0.00000000000E+00  0.00000000000E+00  0.19299156477E+03  0.19299156477E+03  0.00000000000E+00 0.  1.
         21   -1    0    0  502  503 -0.00000000000E+00 -0.00000000000E+00 -0.46868468874E+02  0.46868468874E+02  0.00000000000E+00 0.  1.
         24    1    1    2    0    0  0.24431642196E+02  0.34380477715E+01  0.91147095134E+02  0.12403118244E+03  0.80419002446E+02 0.  1.
          1    1    1    2  501    0 -0.28462418507E+02  0.24335578931E+02  0.73300077502E+02  0.82311791567E+02  0.00000000000E+00 0. -1.
         -2    1    1    2    0  503  0.40307763110E+01 -0.27773626702E+02 -0.18324076742E+02  0.33517059631E+02  0.00000000000E+00 0.  1.
<mgrwt>
<rscale>  2 0.74815451E+02</rscale>
<asrwt>0</asrwt>
<pdfrwt beam="1">  1       21 0.29691010E-01 0.74815451E+02</pdfrwt>
<pdfrwt beam="2">  1       21 0.72105338E-02 0.74815451E+02</pdfrwt>
<totfact> 0.15343424E+06</totfact>
</mgrwt>
</event>
<event>
 5    1  0.1994521E+000  0.9816742E+02  0.7546771E-02  0.1284197E+00
         21   -1    0    0  503  502  0.00000000000E+00  0.00000000000E+00  0.10717564507E+03  0.10717564507E+03  0.00000000000E+00 0. -1.
         21   -1    0    0  501  503 -0.00000000000E+00 -0.00000000000E+00 -0.10054648215E+03  0.10054648215E+03  0.00000000000E+00 0.  1.
         24    1    1    2    0    0  0.24840536028E+02  0.10079939399E+02  0.36284330944E+02  0.92208600656E+02  0.80419002446E+02 0. -1.
          1    1    1    2  501    0  0.17358304063E+02  0.41463879926E+02 -0.14052712753E+02  0.47096101688E+02  0.00000000000E+00 0. -1.
         -2    1    1    2    0  502 -0.42198840091E+02 -0.51543819325E+02 -0.15602455271E+02  0.68417424872E+02  0.00000000000E+00 0.  1.
<mgrwt>
<rscale>  2 0.98167417E+02</rscale>
<asrwt>0</asrwt>
<pdfrwt beam="1">  1       21 0.16488561E-01 0.98167417E+02</pdfrwt>
<pdfrwt beam="2">  1       21 0.15468690E-01 0.98167417E+02</pdfrwt>
<totfact> 0.12164107E+06</totfact>
</mgrwt>
</event>
<event>
 5    1  0.1994521E+000  0.4280970E+03  0.7546771E-02  0.1034463E+00
         21   -1    0    0  501  502  0.00000000000E+00  0.00000000000E+00  0.17832612050E+04  0.17832612050E+04  0.00000000000E+00 0. -1.
         21   -1    0    0  502  503 -0.00000000000E+00 -0.00000000000E+00 -0.10684061374E+03  0.10684061374E+03  0.00000000000E+00 0. -1.
         24    1    1    2    0    0  0.18290538099E+03  0.38275141110E+03  0.81311748713E+03  0.92064123572E+03  0.80419002446E+02 0. -1.
          1    1    1    2  501    0 -0.17529785027E+03 -0.35943204322E+03  0.85441794487E+03  0.94337201279E+03  0.00000000000E+00 0. -1.
         -2    1    1    2    0  503 -0.76075307138E+01 -0.23319367875E+02  0.88851592754E+01  0.26088570237E+02  0.00000000000E+00 0.  1.
<mgrwt>
<rscale>  2 0.42809695E+03</rscale>
<asrwt>0</asrwt>
<pdfrwt beam="1">  1       21 0.27434786E+00 0.42809695E+03</pdfrwt>
<pdfrwt beam="2">  1       21 0.16437019E-01 0.42809695E+03</pdfrwt>
<totfact> 0.13181812E+03</totfact>
</mgrwt>
</event>
<event>
 5    1  0.1994521E+000  0.7900856E+02  0.7546771E-02  0.1331889E+00
         21   -1    0    0  501  502  0.00000000000E+00  0.00000000000E+00  0.12255086988E+03  0.12255086988E+03  0.00000000000E+00 0. -1.
         21   -1    0    0  502  503 -0.00000000000E+00 -0.00000000000E+00 -0.79249565226E+02  0.79249565226E+02  0.00000000000E+00 0. -1.
         24    1    1    2    0    0 -0.26689063119E+02  0.24488604556E+02  0.82996531152E+02  0.12111002428E+03  0.80419002446E+02 0. -1.
          1    1    1    2  501    0 -0.17223527220E+02 -0.18866996798E+02 -0.10274734652E+02  0.27535134469E+02  0.00000000000E+00 0. -1.
         -2    1    1    2    0  503  0.43912590339E+02 -0.56216077583E+01 -0.29420491846E+02  0.53155276357E+02  0.00000000000E+00 0.  1.
<mgrwt>
<rscale>  2 0.79008557E+02</rscale>
<asrwt>0</asrwt>
<pdfrwt beam="1">  1       21 0.18853980E-01 0.79008557E+02</pdfrwt>
<pdfrwt beam="2">  1       21 0.12192241E-01 0.79008557E+02</pdfrwt>
<totfact> 0.14463759E+06</totfact>
</mgrwt>
</event>
<event>
 5    1  0.1994521E+000  0.7216064E+02  0.7546771E-02  0.1352896E+00
         21   -1    0    0  501  502  0.00000000000E+00  0.00000000000E+00  0.12988464225E+03  0.12988464225E+03  0.00000000000E+00 0.  1.
         21   -1    0    0  502  503 -0.00000000000E+00 -0.00000000000E+00 -0.48176107419E+02  0.48176107419E+02  0.00000000000E+00 0. -1.
         24    1    1    2    0    0  0.18356623199E+02 -0.70905985787E+01  0.42197640612E+02  0.92925233554E+02  0.80419002446E+02 0.  1.
          1    1    1    2  501    0 -0.22085707038E+02  0.30593635945E+02  0.46921700649E+02  0.60211253163E+02  0.00000000000E+00 0. -1.
         -2    1    1    2    0  503  0.37290838388E+01 -0.23503037367E+02 -0.74108064299E+01  0.24924262951E+02  0.00000000000E+00 0.  1.
<mgrwt>
<rscale>  2 0.72160644E+02</rscale>
<asrwt>0</asrwt>
<pdfrwt beam="1">  1       21 0.19982253E-01 0.72160644E+02</pdfrwt>
<pdfrwt beam="2">  1       21 0.74117089E-02 0.72160644E+02</pdfrwt>
<totfact> 0.30483933E+06</totfact>
</mgrwt>
</event>
<event>
 5    1  0.1994521E+000  0.8111889E+02  0.7546771E-02  0.1325906E+00
         21   -1    0    0  501  502  0.00000000000E+00  0.00000000000E+00  0.46158734318E+01  0.46158734318E+01  0.00000000000E+00 0.  1.
         21   -1    0    0  502  503 -0.00000000000E+00 -0.00000000000E+00 -0.17087265974E+04  0.17087265974E+04  0.00000000000E+00 0. -1.
         24    1    1    2    0    0 -0.41925412336E+02 -0.44272409719E+02 -0.13117703776E+04  0.13156468090E+04  0.80419002446E+02 0. -1.
          1    1    1    2  501    0  0.15361837445E+02  0.20876550904E+02 -0.10357741681E+03  0.10677124004E+03  0.00000000000E+00 0. -1.
         -2    1    1    2    0  503  0.26563574891E+02  0.23395858815E+02 -0.28876292953E+03  0.29092442179E+03  0.00000000000E+00 0.  1.
<mgrwt>
<rscale>  2 0.81118895E+02</rscale>
<asrwt>0</asrwt>
<pdfrwt beam="1">  1       21 0.71013391E-03 0.81118895E+02</pdfrwt>
<pdfrwt beam="2">  1       21 0.26288119E+00 0.81118895E+02</pdfrwt>
<totfact> 0.39105660E+05</totfact>
</mgrwt>
</event>
<event>
 5    1  0.1994521E+000  0.8302400E+02  0.7546771E-02  0.1320682E+00
         21   -1    0    0  503  502  0.00000000000E+00  0.00000000000E+00  0.99507829632E+02  0.99507829632E+02  0.00000000000E+00 0.  1.
         21   -1    0    0  501  503 -0.00000000000E+00 -0.00000000000E+00 -0.66509099324E+03  0.66509099324E+03  0.00000000000E+00 0. -1.
         24    1    1    2    0    0 -0.41198067325E+02  0.62797911359E+01 -0.13642523614E+03  0.16375523668E+03  0.80419002446E+02 0. -1.
          1    1    1    2  501    0  0.38061942174E+02  0.24022165595E+02 -0.51127789216E+03  0.51325515964E+03  0.00000000000E+00 0. -1.
         -2    1    1    2    0  502  0.31361251517E+01 -0.30301956731E+02  0.82119964703E+02  0.87588426550E+02  0.00000000000E+00 0.  1.
<mgrwt>
<rscale>  2 0.83023997E+02</rscale>
<asrwt>0</asrwt>
<pdfrwt beam="1">  1       21 0.15308897E-01 0.83023997E+02</pdfrwt>
<pdfrwt beam="2">  1       21 0.10232169E+00 0.83023997E+02</pdfrwt>
<totfact> 0.31746184E+04</totfact>
</mgrwt>
</event>
<event>
 5    1  0.1994521E+000  0.1005831E+03  0.7546771E-02  0.1279075E+00
         21   -1    0    0  501  502  0.00000000000E+00  0.00000000000E+00  0.12532400049E+03  0.12532400049E+03  0.00000000000E+00 0. -1.
         21   -1    0    0  502  503 -0.00000000000E+00 -0.00000000000E+00 -0.38446871325E+03  0.38446871325E+03  0.00000000000E+00 0. -1.
         24    1    1    2    0    0 -0.14349886563E+02 -0.49976789739E+02 -0.14030026689E+03  0.16986753546E+03  0.80419002446E+02 0. -1.
          1    1    1    2  501    0 -0.36142639509E+02  0.40042010769E+02  0.10080405008E+03  0.11432895315E+03  0.00000000000E+00 0. -1.
         -2    1    1    2    0  503  0.50492526072E+02  0.99347789701E+01 -0.21964849594E+03  0.22559622513E+03  0.00000000000E+00 0.  1.
<mgrwt>
<rscale>  2 0.10058309E+03</rscale>
<asrwt>0</asrwt>
<pdfrwt beam="1">  1       21 0.19280616E-01 0.10058309E+03</pdfrwt>
<pdfrwt beam="2">  1       21 0.59149032E-01 0.10058309E+03</pdfrwt>
<totfact> 0.69029639E+04</totfact>
</mgrwt>
</event>
<event>
 5    1  0.1994521E+000  0.8459756E+02  0.7546771E-02  0.1316488E+00
         21   -1    0    0  503  502  0.00000000000E+00  0.00000000000E+00  0.70943782465E+01  0.70943782465E+01  0.00000000000E+00 0.  1.
         21   -1    0    0  501  503 -0.00000000000E+00 -0.00000000000E+00 -0.11178839688E+04  0.11178839688E+04  0.00000000000E+00 0. -1.
         24    1    1    2    0    0 -0.21653517692E+02  0.20717383210E+02 -0.65534121445E+03  0.66093676559E+03  0.80419002446E+02 0. -1.
          1    1    1    2  501    0 -0.26729664649E+02 -0.22527750570E+02 -0.27491220443E+03  0.27712577408E+03  0.00000000000E+00 0. -1.
         -2    1    1    2    0  502  0.48383182341E+02  0.18103673597E+01 -0.18053617170E+03  0.18691580740E+03  0.00000000000E+00 0.  1.
<mgrwt>
<rscale>  2 0.84597561E+02</rscale>
<asrwt>0</asrwt>
<pdfrwt beam="1">  1       21 0.10914427E-02 0.84597561E+02</pdfrwt>
<pdfrwt beam="2">  1       21 0.17198217E+00 0.84597561E+02</pdfrwt>
<totfact> 0.69503730E+05</totfact>
</mgrwt>
</event>
<event>
 5    1  0.1994521E+000  0.9281451E+02  0.7546771E-02  0.1296176E+00
         21   -1    0    0  501  502  0.00000000000E+00  0.00000000000E+00  0.38504658481E+02  0.38504658481E+02  0.00000000000E+00 0.  1.
         21   -1    0    0  502  503 -0.00000000000E+00 -0.00000000000E+00 -0.47755594525E+03  0.47755594525E+03  0.00000000000E+00 0. -1.
         24    1    1    2    0    0 -0.39757405795E+02  0.13300673536E+02 -0.38386119141E+03  0.39442894095E+03  0.80419002446E+02 0. -1.
          1    1    1    2  501    0 -0.27032208440E+02 -0.11799299756E+01  0.86907533070E+01  0.28419389876E+02  0.00000000000E+00 0. -1.
         -2    1    1    2    0  503  0.66789614235E+02 -0.12120743561E+02 -0.63880848664E+02  0.93212272905E+02  0.00000000000E+00 0.  1.
<mgrwt>
<rscale>  2 0.92814507E+02</rscale>
<asrwt>0</asrwt>
<pdfrwt beam="1">  1       21 0.59237936E-02 0.92814507E+02</pdfrwt>
<pdfrwt beam="2">  1       21 0.73470146E-01 0.92814507E+02</pdfrwt>
<totfact> 0.34238618E+05</totfact>
</mgrwt>
</event>
<event>
 5    1  0.1994521E+000  0.1709023E+03  0.7546771E-02  0.1176910E+00
         21   -1    0    0  503  502  0.00000000000E+00  0.00000000000E+00  0.36703860614E+02  0.36703860614E+02  0.00000000000E+00 0. -1.
         21   -1    0    0  501  503 -0.00000000000E+00 -0.00000000000E+00 -0.97599927845E+03  0.97599927845E+03  0.00000000000E+00 0. -1.
         24    1    1    2    0    0 -0.39516791365E+02  0.13602239789E+03 -0.25004483107E+03  0.29841800051E+03  0.80419002446E+02 0. -1.
          1    1    1    2  501    0  0.21662324145E+02 -0.15285570716E+03 -0.64929066705E+03  0.66739230878E+03  0.00000000000E+00 0. -1.
         -2    1    1    2    0  502  0.17854467219E+02  0.16833309269E+02 -0.39959919720E+02  0.46892829779E+02  0.00000000000E+00 0.  1.
<mgrwt>
<rscale>  2 0.17090234E+03</rscale>
<asrwt>0</asrwt>
<pdfrwt beam="1">  1       21 0.56467475E-02 0.17090234E+03</pdfrwt>
<pdfrwt beam="2">  1       21 0.15015374E+00 0.17090234E+03</pdfrwt>
<totfact> 0.65967651E+04</totfact>
</mgrwt>
</event>
<event>
 5    1  0.1994521E+000  0.8208932E+02  0.7546771E-02  0.1323225E+00
         21   -1    0    0  503  502  0.00000000000E+00  0.00000000000E+00  0.43362309272E+03  0.43362309272E+03  0.00000000000E+00 0.  1.
         21   -1    0    0  501  503 -0.00000000000E+00 -0.00000000000E+00 -0.16604777749E+03  0.16604777749E+03  0.00000000000E+00 0.  1.
         24    1    1    2    0    0  0.16013163446E+02 -0.57654326283E+02 -0.11220055813E+03  0.15045472389E+03  0.80419002446E+02 0.  1.
          1    1    1    2  501    0 -0.19182734348E+02  0.26987531661E+02 -0.26106470948E+02  0.42164582147E+02  0.00000000000E+00 0. -1.
         -2    1    1    2    0  502  0.31695709029E+01  0.30666794622E+02  0.40588234431E+03  0.40705156417E+03  0.00000000000E+00 0.  1.
<mgrwt>
<rscale>  2 0.82089325E+02</rscale>
<asrwt>0</asrwt>
<pdfrwt beam="1">  1       21 0.66711245E-01 0.82089325E+02</pdfrwt>
<pdfrwt beam="2">  1       21 0.25545812E-01 0.82089325E+02</pdfrwt>
<totfact> 0.32251394E+04</totfact>
</mgrwt>
</event>
<event>
 5    1  0.1994521E+000  0.1241659E+03  0.7546771E-02  0.1236379E+00
         21   -1    0    0  503  502  0.00000000000E+00  0.00000000000E+00  0.56882144630E+02  0.56882144630E+02  0.00000000000E+00 0. -1.
         21   -1    0    0  501  503 -0.00000000000E+00 -0.00000000000E+00 -0.55924731193E+03  0.55924731193E+03  0.00000000000E+00 0. -1.
         24    1    1    2    0    0 -0.84061278886E+01 -0.42730456289E+02 -0.42037215083E+03  0.43020520223E+03  0.80419002446E+02 0. -1.
          1    1    1    2  501    0 -0.70689166617E+02  0.29883554609E+02 -0.71890499585E+02  0.10515811449E+03  0.00000000000E+00 0. -1.
         -2    1    1    2    0  502  0.79095294506E+02  0.12846901680E+02 -0.10102516881E+02  0.80766139830E+02  0.00000000000E+00 0.  1.
<mgrwt>
<rscale>  2 0.12416586E+03</rscale>
<asrwt>0</asrwt>
<pdfrwt beam="1">  1       21 0.87510994E-02 0.12416586E+03</pdfrwt>
<pdfrwt beam="2">  1       21 0.86038046E-01 0.12416586E+03</pdfrwt>
<totfact> 0.12273857E+05</totfact>
</mgrwt>
</event>
<event>
 5    1  0.1994521E+000  0.8663320E+02  0.7546771E-02  0.1311216E+00
         21   -1    0    0  501  502  0.00000000000E+00  0.00000000000E+00  0.45061749331E+03  0.45061749331E+03  0.00000000000E+00 0. -1.
         21   -1    0    0  502  503 -0.00000000000E+00 -0.00000000000E+00 -0.43885188540E+02  0.43885188540E+02  0.00000000000E+00 0.  1.
         24    1    1    2    0    0 -0.69161461473E+01  0.45765276002E+02  0.19991857627E+03  0.22040178460E+03  0.80419002446E+02 0.  0.
          1    1    1    2  501    0  0.35963273392E+02 -0.32781994374E+02  0.22977038268E+03  0.23486686643E+03  0.00000000000E+00 0. -1.
         -2    1    1    2    0  503 -0.29047127245E+02 -0.12983281628E+02 -0.22956654181E+02  0.39234030817E+02  0.00000000000E+00 0.  1.
<mgrwt>
<rscale>  2 0.86633195E+02</rscale>
<asrwt>0</asrwt>
<pdfrwt beam="1">  1       21 0.69325765E-01 0.86633195E+02</pdfrwt>
<pdfrwt beam="2">  1       21 0.67515678E-02 0.86633195E+02</pdfrwt>
<totfact> 0.31178377E+05</totfact>
</mgrwt>
</event>
<event>
 5    1  0.1994521E+000  0.1091268E+03  0.7546771E-02  0.1262196E+00
         21   -1    0    0  503  502  0.00000000000E+00  0.00000000000E+00  0.71144786446E+02  0.71144786446E+02  0.00000000000E+00 0.  1.
         21   -1    0    0  501  503 -0.00000000000E+00 -0.00000000000E+00 -0.31524486688E+03  0.31524486688E+03  0.00000000000E+00 0.  1.
         24    1    1    2    0    0  0.55475426780E+02  0.40346098337E+02 -0.23808495932E+03  0.26049375124E+03  0.80419002446E+02 0.  1.
          1    1    1    2  501    0 -0.80123918910E+02 -0.27177693413E+02 -0.29282864116E+02  0.89531868804E+02  0.00000000000E+00 0. -1.
         -2    1    1    2    0  502  0.24648492130E+02 -0.13168404925E+02  0.23267742997E+02  0.36364033285E+02  0.00000000000E+00 0.  1.
<mgrwt>
<rscale>  2 0.10912679E+03</rscale>
<asrwt>0</asrwt>
<pdfrwt beam="1">  1       21 0.10945352E-01 0.10912679E+03</pdfrwt>
<pdfrwt beam="2">  1       21 0.48499208E-01 0.10912679E+03</pdfrwt>
<totfact> 0.28589062E+05</totfact>
</mgrwt>
</event>
<event>
 5    1  0.1994521E+000  0.9303807E+02  0.7546771E-02  0.1295657E+00
         21   -1    0    0  503  502  0.00000000000E+00  0.00000000000E+00  0.14280357145E+03  0.14280357145E+03  0.00000000000E+00 0.  1.
         21   -1    0    0  501  503 -0.00000000000E+00 -0.00000000000E+00 -0.33984582868E+03  0.33984582868E+03  0.00000000000E+00 0. -1.
         24    1    1    2    0    0  0.22518004093E+02  0.72220527937E+02 -0.13341023680E+03  0.17317151152E+03  0.80419002446E+02 0. -1.
          1    1    1    2  501    0 -0.10229240653E+02 -0.35564647950E+02 -0.18160214728E+03  0.18533435042E+03  0.00000000000E+00 0. -1.
         -2    1    1    2    0  502 -0.12288763440E+02 -0.36655879988E+02  0.11797012685E+03  0.12414353819E+03  0.00000000000E+00 0.  1.
<mgrwt>
<rscale>  2 0.93038067E+02</rscale>
<asrwt>0</asrwt>
<pdfrwt beam="1">  1       21 0.21969780E-01 0.93038067E+02</pdfrwt>
<pdfrwt beam="2">  1       21 0.52283973E-01 0.93038067E+02</pdfrwt>
<totfact> 0.70500394E+04</totfact>
</mgrwt>
</event>
<event>
 5    1  0.1994521E+000  0.8884813E+02  0.7546771E-02  0.1305665E+00
         21   -1    0    0  501  502  0.00000000000E+00  0.00000000000E+00  0.14290555027E+02  0.14290555027E+02  0.00000000000E+00 0. -1.
         21   -1    0    0  502  503 -0.00000000000E+00 -0.00000000000E+00 -0.82054922682E+03  0.82054922682E+03  0.00000000000E+00 0.  1.
         24    1    1    2    0    0  0.10980520680E+02  0.40132567152E+02 -0.61052693598E+03  0.61720462595E+03  0.80419002446E+02 0.  1.
          1    1    1    2  501    0  0.33108528862E+02 -0.20025247434E+02 -0.45219065612E+02  0.59514276548E+02  0.00000000000E+00 0. -1.
         -2    1    1    2    0  503 -0.44089049542E+02 -0.20107319718E+02 -0.15051267020E+03  0.15812087935E+03  0.00000000000E+00 0.  1.
<mgrwt>
<rscale>  2 0.88848126E+02</rscale>
<asrwt>0</asrwt>
<pdfrwt beam="1">  1       21 0.21985466E-02 0.88848126E+02</pdfrwt>
<pdfrwt beam="2">  1       21 0.12623836E+00 0.88848126E+02</pdfrwt>
<totfact> 0.50195486E+05</totfact>
</mgrwt>
</event>
<event>
 5    1  0.1994521E+000  0.7495475E+02  0.7546771E-02  0.1344011E+00
         21   -1    0    0  503  502  0.00000000000E+00  0.00000000000E+00  0.98044146627E+02  0.98044146627E+02  0.00000000000E+00 0. -1.
         21   -1    0    0  501  503 -0.00000000000E+00 -0.00000000000E+00 -0.96164752346E+02  0.96164752346E+02  0.00000000000E+00 0.  1.
         24    1    1    2    0    0  0.28563401807E+02 -0.20661845276E+02  0.27893742940E+02  0.92130649746E+02  0.80419002446E+02 0. -1.
          1    1    1    2  501    0 -0.32934497932E+02 -0.73561390194E+01 -0.53066300089E+02  0.62887408441E+02  0.00000000000E+00 0. -1.
         -2    1    1    2    0  502  0.43710961253E+01  0.28017984296E+02  0.27051951430E+02  0.39190840786E+02  0.00000000000E+00 0.  1.
<mgrwt>
<rscale>  2 0.74954752E+02</rscale>
<asrwt>0</asrwt>
<pdfrwt beam="1">  1       21 0.15083715E-01 0.74954752E+02</pdfrwt>
<pdfrwt beam="2">  1       21 0.14794577E-01 0.74954752E+02</pdfrwt>
<totfact> 0.15322149E+06</totfact>
</mgrwt>
</event>
<event>
 5    1  0.1994521E+000  0.1001548E+03  0.7546771E-02  0.1279971E+00
         21   -1    0    0  501  502  0.00000000000E+00  0.00000000000E+00  0.27767205606E+03  0.27767205606E+03  0.00000000000E+00 0.  1.
         21   -1    0    0  502  503 -0.00000000000E+00 -0.00000000000E+00 -0.55626975804E+02  0.55626975804E+02  0.00000000000E+00 0. -1.
         24    1    1    2    0    0  0.64690600066E+02 -0.29257789392E+02  0.21046087300E+02  0.10932083846E+03  0.80419002446E+02 0. -1.
          1    1    1    2  501    0 -0.44367095460E+02  0.48016695652E+02  0.17151546323E+03  0.18355270727E+03  0.00000000000E+00 0. -1.
         -2    1    1    2    0  503 -0.20323504606E+02 -0.18758906260E+02  0.29483529726E+02  0.40425486128E+02  0.00000000000E+00 0.  1.
<mgrwt>
<rscale>  2 0.10015479E+03</rscale>
<asrwt>0</asrwt>
<pdfrwt beam="1">  1       21 0.42718777E-01 0.10015479E+03</pdfrwt>
<pdfrwt beam="2">  1       21 0.85579964E-02 0.10015479E+03</pdfrwt>
<totfact> 0.56706330E+05</totfact>
</mgrwt>
</event>
<event>
 5    1  0.1994521E+000  0.7007351E+02  0.7546771E-02  0.1359843E+00
         21   -1    0    0  501  502  0.00000000000E+00  0.00000000000E+00  0.32166942781E+03  0.32166942781E+03  0.00000000000E+00 0. -1.
         21   -1    0    0  502  503 -0.00000000000E+00 -0.00000000000E+00 -0.15749731984E+02  0.15749731984E+02  0.00000000000E+00 0.  1.
         24    1    1    2    0    0  0.17066106173E+02  0.41598286527E+01  0.19723575417E+03  0.21372345409E+03  0.80419002446E+02 0. -1.
          1    1    1    2  501    0  0.15588013691E+01 -0.27739828083E+02  0.64853648682E+02  0.70554402209E+02  0.00000000000E+00 0. -1.
         -2    1    1    2    0  503 -0.18624907542E+02  0.23579999430E+02  0.43830292984E+02  0.53141303495E+02  0.00000000000E+00 0.  1.
<mgrwt>
<rscale>  2 0.70073511E+02</rscale>
<asrwt>0</asrwt>
<pdfrwt beam="1">  1       21 0.49487599E-01 0.70073511E+02</pdfrwt>
<pdfrwt beam="2">  1       21 0.24230359E-02 0.70073511E+02</pdfrwt>
<totfact> 0.33718378E+06</totfact>
</mgrwt>
</event>
<event>
 5    1  0.1994521E+000  0.8779726E+02  0.7546771E-02  0.1308275E+00
         21   -1    0    0  503  502  0.00000000000E+00  0.00000000000E+00  0.95103173028E+02  0.95103173028E+02  0.00000000000E+00 0. -1.
         21   -1    0    0  501  503 -0.00000000000E+00 -0.00000000000E+00 -0.11485565831E+03  0.11485565831E+03  0.00000000000E+00 0. -1.
         24    1    1    2    0    0  0.56719621571E+02  0.39928847453E+02  0.34739626886E+02  0.11173847126E+03  0.80419002446E+02 0. -1.
          1    1    1    2  501    0 -0.29969083205E+02 -0.22322309986E+02 -0.54638717073E+02  0.66195323661E+02  0.00000000000E+00 0. -1.
         -2    1    1    2    0  502 -0.26750538366E+02 -0.17606537467E+02  0.14660489992E+00  0.32025036416E+02  0.00000000000E+00 0.  1.
<mgrwt>
<rscale>  2 0.87797260E+02</rscale>
<asrwt>0</asrwt>
<pdfrwt beam="1">  1       21 0.14631258E-01 0.87797260E+02</pdfrwt>
<pdfrwt beam="2">  1       21 0.17670101E-01 0.87797260E+02</pdfrwt>
<totfact> 0.11826960E+06</totfact>
</mgrwt>
</event>
<event>
 5    1  0.1994521E+000  0.1163732E+03  0.7546771E-02  0.1249203E+00
         21   -1    0    0  501  502  0.00000000000E+00  0.00000000000E+00  0.58501562510E+03  0.58501562510E+03  0.00000000000E+00 0. -1.
         21   -1    0    0  502  503 -0.00000000000E+00 -0.00000000000E+00 -0.37903295854E+02  0.37903295854E+02  0.00000000000E+00 0. -1.
         24    1    1    2    0    0 -0.30707871628E+02  0.94963872532E+02  0.14263321685E+03  0.19176172968E+03  0.80419002446E+02 0. -1.
          1    1    1    2  501    0 -0.21659123680E+01 -0.43191467185E+02  0.33782657930E+03  0.34058331095E+03  0.00000000000E+00 0. -1.
         -2    1    1    2    0  503  0.32873783996E+02 -0.51772405347E+02  0.66652533099E+02  0.90573880331E+02  0.00000000000E+00 0.  1.
<mgrwt>
<rscale>  2 0.11637316E+03</rscale>
<asrwt>0</asrwt>
<pdfrwt beam="1">  1       21 0.90002398E-01 0.11637316E+03</pdfrwt>
<pdfrwt beam="2">  1       21 0.58312767E-02 0.11637316E+03</pdfrwt>
<totfact> 0.22243197E+05</totfact>
</mgrwt>
</event>
<event>
 5    1  0.1994521E+000  0.1616577E+03  0.7546771E-02  0.1186838E+00
         21   -1    0    0  503  502  0.00000000000E+00  0.00000000000E+00  0.13454253734E+04  0.13454253734E+04  0.00000000000E+00 0.  1.
         21   -1    0    0  501  503 -0.00000000000E+00 -0.00000000000E+00 -0.23534768432E+02  0.23534768432E+02  0.00000000000E+00 0.  1.
         24    1    1    2    0    0  0.98937960623E+02 -0.66065988734E+02  0.32689621850E+03  0.35704591937E+03  0.80419002446E+02 0.  1.
          1    1    1    2  501    0 -0.67358898896E+02 -0.33523598540E+02  0.31011307444E+03  0.31910996828E+03  0.00000000000E+00 0. -1.
         -2    1    1    2    0  502 -0.31579061727E+02  0.99589587274E+02  0.68488131205E+03  0.69280425419E+03  0.00000000000E+00 0.  1.
<mgrwt>
<rscale>  2 0.16165766E+03</rscale>
<asrwt>0</asrwt>
<pdfrwt beam="1">  1       21 0.20698846E+00 0.16165766E+03</pdfrwt>
<pdfrwt beam="2">  1       21 0.36207346E-02 0.16165766E+03</pdfrwt>
<totfact> 0.57310570E+04</totfact>
</mgrwt>
</event>
<event>
 5    1  0.1994521E+000  0.8118598E+02  0.7546771E-02  0.1325719E+00
         21   -1    0    0  501  502  0.00000000000E+00  0.00000000000E+00  0.55714470066E+02  0.55714470066E+02  0.00000000000E+00 0.  1.
         21   -1    0    0  502  503 -0.00000000000E+00 -0.00000000000E+00 -0.18859908334E+03  0.18859908334E+03  0.00000000000E+00 0. -1.
         24    1    1    2    0    0  0.13752130681E+02 -0.58511494862E+00 -0.12957997948E+03  0.15312625671E+03  0.80419002446E+02 0. -1.
          1    1    1    2  501    0  0.25071006844E+02  0.24607254116E+02  0.19474058166E+02  0.40166046367E+02  0.00000000000E+00 0. -1.
         -2    1    1    2    0  503 -0.38823137525E+02 -0.24022139168E+02 -0.22778691959E+02  0.51021250326E+02  0.00000000000E+00 0.  1.
<mgrwt>
<rscale>  2 0.81185984E+02</rscale>
<asrwt>0</asrwt>
<pdfrwt beam="1">  1       21 0.85714571E-02 0.81185984E+02</pdfrwt>
<pdfrwt beam="2">  1       21 0.29015243E-01 0.81185984E+02</pdfrwt>
<totfact> 0.11978415E+06</totfact>
</mgrwt>
</event>
<event>
 5    1  0.1994521E+000  0.7355694E+02  0.7546771E-02  0.1348399E+00
         21   -1    0    0  503  502  0.00000000000E+00  0.00000000000E+00  0.48663205444E+02  0.48663205444E+02  0.00000000000E+00 0. -1.
         21   -1    0    0  501  503 -0.00000000000E+00 -0.00000000000E+00 -0.18912043722E+03  0.18912043722E+03  0.00000000000E+00 0.  1.
         24    1    1    2    0    0  0.17910896634E+02 -0.14021504554E+02 -0.44664121984E+02  0.94760237205E+02  0.80419002446E+02 0.  0.
          1    1    1    2  501    0 -0.37563845231E+02  0.20566771628E+02 -0.10990835290E+03  0.11795711340E+03  0.00000000000E+00 0. -1.
         -2    1    1    2    0  502  0.19652948598E+02 -0.65452670733E+01  0.14115243109E+02  0.25066292061E+02  0.00000000000E+00 0.  1.
<mgrwt>
<rscale>  2 0.73556941E+02</rscale>
<asrwt>0</asrwt>
<pdfrwt beam="1">  1       21 0.74866469E-02 0.73556941E+02</pdfrwt>
<pdfrwt beam="2">  1       21 0.29095452E-01 0.73556941E+02</pdfrwt>
<totfact> 0.14952257E+06</totfact>
</mgrwt>
</event>
<event>
 5    1  0.1994521E+000  0.8896305E+02  0.7546771E-02  0.1305382E+00
         21   -1    0    0  501  502  0.00000000000E+00  0.00000000000E+00  0.96477822729E+02  0.96477822729E+02  0.00000000000E+00 0. -1.
         21   -1    0    0  502  503 -0.00000000000E+00 -0.00000000000E+00 -0.11191249329E+03  0.11191249329E+03  0.00000000000E+00 0.  1.
         24    1    1    2    0    0 -0.23380646376E+02  0.18176510483E+02 -0.46743473653E+02  0.97617664599E+02  0.80419002446E+02 0.  0.
          1    1    1    2  501    0  0.35033289578E+02 -0.48449823397E+02  0.45730445544E+02  0.75272773401E+02  0.00000000000E+00 0. -1.
         -2    1    1    2    0  503 -0.11652643201E+02  0.30273312913E+02 -0.14421642452E+02  0.35499878019E+02  0.00000000000E+00 0.  1.
<mgrwt>
<rscale>  2 0.88963045E+02</rscale>
<asrwt>0</asrwt>
<pdfrwt beam="1">  1       21 0.14842742E-01 0.88963045E+02</pdfrwt>
<pdfrwt beam="2">  1       21 0.17217307E-01 0.88963045E+02</pdfrwt>
<totfact> 0.12086297E+06</totfact>
</mgrwt>
</event>
<event>
 5    1  0.1994521E+000  0.9778556E+02  0.7546771E-02  0.1285023E+00
         21   -1    0    0  503  502  0.00000000000E+00  0.00000000000E+00  0.39715696180E+03  0.39715696180E+03  0.00000000000E+00 0.  1.
         21   -1    0    0  501  503 -0.00000000000E+00 -0.00000000000E+00 -0.95959338567E+03  0.95959338567E+03  0.00000000000E+00 0. -1.
         24    1    1    2    0    0 -0.49302763107E+02  0.18200399680E+02 -0.53055628453E+03  0.53918383136E+03  0.80419002446E+02 0.  1.
          1    1    1    2  501    0 -0.32010807760E+00  0.30189523898E+02 -0.42112148080E+03  0.42220233469E+03  0.00000000000E+00 0. -1.
         -2    1    1    2    0  502  0.49622871184E+02 -0.48389923577E+02  0.38924134146E+03  0.39536418142E+03  0.00000000000E+00 0.  1.
<mgrwt>
<rscale>  2 0.97785557E+02</rscale>
<asrwt>0</asrwt>
<pdfrwt beam="1">  1       21 0.61101071E-01 0.97785557E+02</pdfrwt>
<pdfrwt beam="2">  1       21 0.14762975E+00 0.97785557E+02</pdfrwt>
<totfact> 0.88860570E+02</totfact>
</mgrwt>
</event>
<event>
 5    1  0.1994521E+000  0.2124236E+03  0.7546771E-02  0.1139661E+00
         21   -1    0    0  503  502  0.00000000000E+00  0.00000000000E+00  0.31918602239E+03  0.31918602239E+03  0.00000000000E+00 0. -1.
         21   -1    0    0  501  503 -0.00000000000E+00 -0.00000000000E+00 -0.27334991398E+03  0.27334991398E+03  0.00000000000E+00 0.  1.
         24    1    1    2    0    0 -0.16254594410E+03  0.59261751549E+02  0.58452420753E+02  0.19954207724E+03  0.80419002446E+02 0.  1.
          1    1    1    2  501    0  0.19210475072E+03 -0.33821356641E+02 -0.15261287551E+03  0.24766673007E+03  0.00000000000E+00 0. -1.
         -2    1    1    2    0  502 -0.29558806613E+02 -0.25440394908E+02  0.13999656317E+03  0.14532712906E+03  0.00000000000E+00 0.  1.
<mgrwt>
<rscale>  2 0.21242362E+03</rscale>
<asrwt>0</asrwt>
<pdfrwt beam="1">  1       21 0.49105542E-01 0.21242362E+03</pdfrwt>
<pdfrwt beam="2">  1       21 0.42053833E-01 0.21242362E+03</pdfrwt>
<totfact> 0.21283613E+04</totfact>
</mgrwt>
</event>
<event>
 5    1  0.1994521E+000  0.7943807E+02  0.7546771E-02  0.1330654E+00
         21   -1    0    0  503  502  0.00000000000E+00  0.00000000000E+00  0.36763343400E+02  0.36763343400E+02  0.00000000000E+00 0.  1.
         21   -1    0    0  501  503 -0.00000000000E+00 -0.00000000000E+00 -0.24236855164E+03  0.24236855164E+03  0.00000000000E+00 0. -1.
         24    1    1    2    0    0  0.61939166711E+01  0.75602341480E+00 -0.10500504413E+03  0.13240925731E+03  0.80419002446E+02 0.  0.
          1    1    1    2  501    0  0.28619501502E+02  0.22452024288E+02 -0.98305698679E+02  0.10481974839E+03  0.00000000000E+00 0. -1.
         -2    1    1    2    0  502 -0.34813418173E+02 -0.23208047703E+02 -0.22944654358E+01  0.41902889336E+02  0.00000000000E+00 0.  1.
<mgrwt>
<rscale>  2 0.79438070E+02</rscale>
<asrwt>0</asrwt>
<pdfrwt beam="1">  1       21 0.56558991E-02 0.79438070E+02</pdfrwt>
<pdfrwt beam="2">  1       21 0.37287469E-01 0.79438070E+02</pdfrwt>
<totfact> 0.14910714E+06</totfact>
</mgrwt>
</event>
<event>
 5    1  0.1994521E+000  0.9128883E+02  0.7546771E-02  0.1299760E+00
         21   -1    0    0  503  502  0.00000000000E+00  0.00000000000E+00  0.10101353733E+03  0.10101353733E+03  0.00000000000E+00 0.  1.
         21   -1    0    0  501  503 -0.00000000000E+00 -0.00000000000E+00 -0.12904440829E+03  0.12904440829E+03  0.00000000000E+00 0.  1.
         24    1    1    2    0    0  0.56765458818E+02  0.16293801143E+02 -0.83138349570E+02  0.12987303952E+03  0.80419002446E+02 0.  1.
          1    1    1    2  501    0 -0.34242637114E+01 -0.27986400700E+02  0.12131003549E+02  0.30694062182E+02  0.00000000000E+00 0. -1.
         -2    1    1    2    0  502 -0.53341195107E+02  0.11692599557E+02  0.42976475058E+02  0.69490843916E+02  0.00000000000E+00 0.  1.
<mgrwt>
<rscale>  2 0.91288827E+02</rscale>
<asrwt>0</asrwt>
<pdfrwt beam="1">  1       21 0.15540544E-01 0.91288827E+02</pdfrwt>
<pdfrwt beam="2">  1       21 0.19852986E-01 0.91288827E+02</pdfrwt>
<totfact> 0.85994547E+05</totfact>
</mgrwt>
</event>
<event>
 5    1  0.1994521E+000  0.1583809E+03  0.7546771E-02  0.1190537E+00
         21   -1    0    0  501  502  0.00000000000E+00  0.00000000000E+00  0.10636955115E+03  0.10636955115E+03  0.00000000000E+00 0.  1.
         21   -1    0    0  502  503 -0.00000000000E+00 -0.00000000000E+00 -0.57591280303E+03  0.57591280303E+03  0.00000000000E+00 0.  1.
         24    1    1    2    0    0 -0.14476117040E+03 -0.85574699313E+01 -0.32059208266E+02  0.16889060227E+03  0.80419002446E+02 0.  1.
          1    1    1    2  501    0  0.41472627236E+02  0.21723584700E+02  0.14937415613E+02  0.49142846146E+02  0.00000000000E+00 0. -1.
         -2    1    1    2    0  503  0.10328854317E+03 -0.13166114769E+02 -0.45242145922E+03  0.46424890575E+03  0.00000000000E+00 0.  1.
<mgrwt>
<rscale>  2 0.15838093E+03</rscale>
<asrwt>0</asrwt>
<pdfrwt beam="1">  1       21 0.16364546E-01 0.15838093E+03</pdfrwt>
<pdfrwt beam="2">  1       21 0.88601972E-01 0.15838093E+03</pdfrwt>
<totfact> 0.37144800E+04</totfact>
</mgrwt>
</event>
<event>
 5    1  0.1994521E+000  0.1041622E+03  0.7546771E-02  0.1271779E+00
         21   -1    0    0  501  502  0.00000000000E+00  0.00000000000E+00  0.58833937001E+03  0.58833937001E+03  0.00000000000E+00 0. -1.
         21   -1    0    0  502  503 -0.00000000000E+00 -0.00000000000E+00 -0.25778053189E+03  0.25778053189E+03  0.00000000000E+00 0. -1.
         24    1    1    2    0    0 -0.38493161679E+02  0.39024194854E+01 -0.23537188121E+03  0.25172224930E+03  0.80419002446E+02 0. -1.
          1    1    1    2  501    0  0.60645815012E+02  0.38082471581E+02  0.53011857030E+03  0.53493353615E+03  0.00000000000E+00 0. -1.
         -2    1    1    2    0  503 -0.22152653334E+02 -0.41984891066E+02  0.35812149027E+02  0.59464116453E+02  0.00000000000E+00 0.  1.
<mgrwt>
<rscale>  2 0.10416215E+03</rscale>
<asrwt>0</asrwt>
<pdfrwt beam="1">  1       21 0.90513749E-01 0.10416215E+03</pdfrwt>
<pdfrwt beam="2">  1       21 0.39658544E-01 0.10416215E+03</pdfrwt>
<totfact> 0.68932702E+03</totfact>
</mgrwt>
</event>
<event>
 5    1  0.1994521E+000  0.6411813E+02  0.7546771E-02  0.1381320E+00
         21   -1    0    0  501  502  0.00000000000E+00  0.00000000000E+00  0.18856002838E+03  0.18856002838E+03  0.00000000000E+00 0.  1.
         21   -1    0    0  502  503 -0.00000000000E+00 -0.00000000000E+00 -0.36451122738E+02  0.36451122738E+02  0.00000000000E+00 0. -1.
         24    1    1    2    0    0  0.57032681227E+01  0.12991911727E+02  0.58213786367E+02  0.10028647922E+03  0.80419002446E+02 0.  0.
          1    1    1    2  501    0 -0.23914580558E+02  0.48502263403E+00  0.98706819302E+02  0.10156366765E+03  0.00000000000E+00 0. -1.
         -2    1    1    2    0  503  0.18211312435E+02 -0.13476934361E+02 -0.48117000257E+01  0.23161004243E+02  0.00000000000E+00 0.  1.
<mgrwt>
<rscale>  2 0.64118130E+02</rscale>
<asrwt>0</asrwt>
<pdfrwt beam="1">  1       21 0.29009235E-01 0.64118130E+02</pdfrwt>
<pdfrwt beam="2">  1       21 0.56078651E-02 0.64118130E+02</pdfrwt>
<totfact> 0.24234049E+06</totfact>
</mgrwt>
</event>
<event>
 5    1  0.1994521E+000  0.7267474E+02  0.7546771E-02  0.1351227E+00
         21   -1    0    0  501  502  0.00000000000E+00  0.00000000000E+00  0.13506928159E+02  0.13506928159E+02  0.00000000000E+00 0. -1.
         21   -1    0    0  502  503 -0.00000000000E+00 -0.00000000000E+00 -0.64087576702E+03  0.64087576702E+03  0.00000000000E+00 0.  1.
         24    1    1    2    0    0  0.31483777148E+02  0.36165313367E+02 -0.34996509746E+03  0.36227329947E+03  0.80419002446E+02 0.  0.
          1    1    1    2  501    0 -0.45306179182E+01 -0.19526651596E+02 -0.92244475739E+01  0.22065970505E+02  0.00000000000E+00 0. -1.
         -2    1    1    2    0  503 -0.26953159230E+02 -0.16638661771E+02 -0.26817929382E+03  0.27004342519E+03  0.00000000000E+00 0.  1.
<mgrwt>
<rscale>  2 0.72674737E+02</rscale>
<asrwt>0</asrwt>
<pdfrwt beam="1">  1       21 0.20779891E-02 0.72674737E+02</pdfrwt>
<pdfrwt beam="2">  1       21 0.98596263E-01 0.72674737E+02</pdfrwt>
<totfact> 0.98417983E+05</totfact>
</mgrwt>
</event>
<event>
 5    1  0.1994521E+000  0.7291739E+02  0.7546771E-02  0.1350444E+00
         21   -1    0    0  501  502  0.00000000000E+00  0.00000000000E+00  0.76065401991E+01  0.76065401991E+01  0.00000000000E+00 0. -1.
         21   -1    0    0  502  503 -0.00000000000E+00 -0.00000000000E+00 -0.11459349146E+04  0.11459349146E+04  0.00000000000E+00 0. -1.
         24    1    1    2    0    0 -0.24212120540E+02 -0.31712852114E+02 -0.80803476027E+03  0.81300634778E+03  0.80419002446E+02 0. -1.
          1    1    1    2  501    0  0.31606772207E+02  0.10041076863E+02 -0.54531783423E+02  0.63824185676E+02  0.00000000000E+00 0. -1.
         -2    1    1    2    0  503 -0.73946516671E+01  0.21671775251E+02 -0.27576183075E+03  0.27671092139E+03  0.00000000000E+00 0.  1.
<mgrwt>
<rscale>  2 0.72917388E+02</rscale>
<asrwt>0</asrwt>
<pdfrwt beam="1">  1       21 0.11702377E-02 0.72917388E+02</pdfrwt>
<pdfrwt beam="2">  1       21 0.17629756E+00 0.72917388E+02</pdfrwt>
<totfact> 0.58552705E+05</totfact>
</mgrwt>
</event>
<event>
 5    1  0.1994521E+000  0.7149908E+02  0.7546771E-02  0.1355068E+00
         21   -1    0    0  501  502  0.00000000000E+00  0.00000000000E+00  0.36230588678E+02  0.36230588678E+02  0.00000000000E+00 0. -1.
         21   -1    0    0  502  503 -0.00000000000E+00 -0.00000000000E+00 -0.58174799760E+03  0.58174799760E+03  0.00000000000E+00 0.  1.
         24    1    1    2    0    0  0.39975277411E+01 -0.20878744461E+02 -0.26810083214E+03  0.28070834392E+03  0.80419002446E+02 0.  0.
          1    1    1    2  501    0 -0.23420839276E+02 -0.82283692193E+01  0.23584862033E+02  0.34241604657E+02  0.00000000000E+00 0. -1.
         -2    1    1    2    0  503  0.19423311535E+02  0.29107113680E+02 -0.30100143882E+03  0.30302863770E+03  0.00000000000E+00 0.  1.
<mgrwt>
<rscale>  2 0.71499077E+02</rscale>
<asrwt>0</asrwt>
<pdfrwt beam="1">  1       21 0.55739370E-02 0.71499077E+02</pdfrwt>
<pdfrwt beam="2">  1       21 0.89499688E-01 0.71499077E+02</pdfrwt>
<totfact> 0.24634776E+05</totfact>
</mgrwt>
</event>
<event>
 5    1  0.2058787E+000  0.9695610E+02  0.7546771E-02  0.1286830E+00
         21   -1    0    0  503  502  0.00000000000E+00  0.00000000000E+00  0.36286214381E+03  0.36286214381E+03  0.00000000000E+00 0.  1.
         21   -1    0    0  501  503 -0.00000000000E+00 -0.00000000000E+00 -0.12124476702E+03  0.12124476702E+03  0.00000000000E+00 0. -1.
         24    1    1    2    0    0  0.71484043978E+02  0.27080371392E+02  0.30770574252E+03  0.32709838733E+03  0.80419002446E+02 0.  1.
          1    1    1    2  501    0 -0.33928553991E+02  0.40627907003E+01 -0.94542913754E+02  0.10052868041E+03  0.00000000000E+00 0. -1.
         -2    1    1    2    0  502 -0.37555489986E+02 -0.31143162093E+02  0.28454548026E+02  0.56479843100E+02  0.00000000000E+00 0.  1.
<mgrwt>
<rscale>  2 0.96956103E+02</rscale>
<asrwt>0</asrwt>
<pdfrwt beam="1">  1       21 0.55824945E-01 0.96956103E+02</pdfrwt>
<pdfrwt beam="2">  1       21 0.18653041E-01 0.96956103E+02</pdfrwt>
<totfact> 0.82938803E+04</totfact>
</mgrwt>
</event>
<event>
 5    1  0.1994521E+000  0.6547127E+02  0.7546771E-02  0.1376207E+00
         21   -1    0    0  503  502  0.00000000000E+00  0.00000000000E+00  0.68903390918E+02  0.68903390918E+02  0.00000000000E+00 0.  1.
         21   -1    0    0  501  503 -0.00000000000E+00 -0.00000000000E+00 -0.17262160807E+03  0.17262160807E+03  0.00000000000E+00 0. -1.
         24    1    1    2    0    0  0.88954700758E+01  0.25780743327E+01  0.29660996883E+00  0.80951095033E+02  0.80419002446E+02 0.  1.
          1    1    1    2  501    0  0.18763532963E+02  0.79751891270E+01 -0.12347483142E+03  0.12514674509E+03  0.00000000000E+00 0. -1.
         -2    1    1    2    0  502 -0.27659003039E+02 -0.10553263460E+02  0.19460004295E+02  0.35427158875E+02  0.00000000000E+00 0.  1.
<mgrwt>
<rscale>  2 0.65471274E+02</rscale>
<asrwt>0</asrwt>
<pdfrwt beam="1">  1       21 0.10600522E-01 0.65471274E+02</pdfrwt>
<pdfrwt beam="2">  1       21 0.26557170E-01 0.65471274E+02</pdfrwt>
<totfact> 0.97633759E+05</totfact>
</mgrwt>
</event>
<event>
 5    1  0.1994521E+000  0.7743176E+02  0.7546771E-02  0.1336502E+00
         21   -1    0    0  503  502  0.00000000000E+00  0.00000000000E+00  0.14078344994E+03  0.14078344994E+03  0.00000000000E+00 0. -1.
         21   -1    0    0  501  503 -0.00000000000E+00 -0.00000000000E+00 -0.57001875195E+02  0.57001875195E+02  0.00000000000E+00 0.  1.
         24    1    1    2    0    0 -0.89139741335E+01  0.15529974501E+02  0.69482904356E+02  0.10777629143E+03  0.80419002446E+02 0. -1.
          1    1    1    2  501    0  0.65875840269E+01  0.28060079418E+02 -0.19501723371E+02  0.34800596758E+02  0.00000000000E+00 0. -1.
         -2    1    1    2    0  502  0.23263901067E+01 -0.43590053919E+02  0.33800393760E+02  0.55208436945E+02  0.00000000000E+00 0.  1.
<mgrwt>
<rscale>  2 0.77431756E+02</rscale>
<asrwt>0</asrwt>
<pdfrwt beam="1">  1       21 0.21658992E-01 0.77431756E+02</pdfrwt>
<pdfrwt beam="2">  1       21 0.87695193E-02 0.77431756E+02</pdfrwt>
<totfact> 0.19841443E+06</totfact>
</mgrwt>
</event>
<event>
 5    1  0.1994521E+000  0.9852114E+02  0.7546771E-02  0.1283437E+00
         21   -1    0    0  501  502  0.00000000000E+00  0.00000000000E+00  0.25993563109E+03  0.25993563109E+03  0.00000000000E+00 0. -1.
         21   -1    0    0  502  503 -0.00000000000E+00 -0.00000000000E+00 -0.16658572334E+03  0.16658572334E+03  0.00000000000E+00 0.  1.
         24    1    1    2    0    0  0.41003523653E+02  0.18567900653E+02  0.16306565902E+03  0.18730638268E+03  0.80419002446E+02 0. -1.
          1    1    1    2  501    0 -0.32895990737E+02 -0.56888258821E+02  0.68875053603E+02  0.95195552454E+02  0.00000000000E+00 0. -1.
         -2    1    1    2    0  503 -0.81075329153E+01  0.38320358168E+02 -0.13859080487E+03  0.14401941930E+03  0.00000000000E+00 0.  1.
<mgrwt>
<rscale>  2 0.98521136E+02</rscale>
<asrwt>0</asrwt>
<pdfrwt beam="1">  1       21 0.39990097E-01 0.98521136E+02</pdfrwt>
<pdfrwt beam="2">  1       21 0.25628573E-01 0.98521136E+02</pdfrwt>
<totfact> 0.90619462E+04</totfact>
</mgrwt>
</event>
<event>
 5    1  0.2227177E+000  0.1049264E+03  0.7546771E-02  0.1270265E+00
         21   -1    0    0  503  502  0.00000000000E+00  0.00000000000E+00  0.25841850138E+03  0.25841850138E+03  0.00000000000E+00 0.  1.
         21   -1    0    0  501  503 -0.00000000000E+00 -0.00000000000E+00 -0.53588667477E+03  0.53588667477E+03  0.00000000000E+00 0. -1.
         24    1    1    2    0    0 -0.50827606060E+02  0.23490541111E+02  0.60797734642E+02  0.11532055997E+03  0.80419002446E+02 0.  0.
          1    1    1    2  501    0 -0.11833617716E+02 -0.44285211722E+02 -0.50114316833E+03  0.50323522298E+03  0.00000000000E+00 0. -1.
         -2    1    1    2    0  502  0.62661223776E+02  0.20794670610E+02  0.16287726030E+03  0.17574939321E+03  0.00000000000E+00 0.  1.
<mgrwt>
<rscale>  2 0.10492638E+03</rscale>
<asrwt>0</asrwt>
<pdfrwt beam="1">  1       21 0.39756693E-01 0.10492638E+03</pdfrwt>
<pdfrwt beam="2">  1       21 0.82444103E-01 0.10492638E+03</pdfrwt>
<totfact> 0.84578584E+03</totfact>
</mgrwt>
</event>
<event>
 5    1  0.1994521E+000  0.1092731E+03  0.7546771E-02  0.1261922E+00
         21   -1    0    0  503  502  0.00000000000E+00  0.00000000000E+00  0.92272075206E+02  0.92272075206E+02  0.00000000000E+00 0. -1.
         21   -1    0    0  501  503 -0.00000000000E+00 -0.00000000000E+00 -0.18829284372E+03  0.18829284372E+03  0.00000000000E+00 0.  1.
         24    1    1    2    0    0 -0.16405320803E+02  0.45562634352E+02 -0.74270637940E+02  0.11970142779E+03  0.80419002446E+02 0.  1.
          1    1    1    2  501    0 -0.55715871669E+00 -0.83298016638E+02 -0.61458793586E+02  0.10351837185E+03  0.00000000000E+00 0. -1.
         -2    1    1    2    0  502  0.16962479520E+02  0.37735382286E+02  0.39708663013E+02  0.57345119287E+02  0.00000000000E+00 0.  1.
<mgrwt>
<rscale>  2 0.10927313E+03</rscale>
<asrwt>0</asrwt>
<pdfrwt beam="1">  1       21 0.14195704E-01 0.10927313E+03</pdfrwt>
<pdfrwt beam="2">  1       21 0.28968129E-01 0.10927313E+03</pdfrwt>
<totfact> 0.49929314E+05</totfact>
</mgrwt>
</event>
<event>
 5    1  0.1994521E+000  0.8889082E+02  0.7546771E-02  0.1305560E+00
         21   -1    0    0  503  502  0.00000000000E+00  0.00000000000E+00  0.82014216889E+02  0.82014216889E+02  0.00000000000E+00 0.  1.
         21   -1    0    0  501  503 -0.00000000000E+00 -0.00000000000E+00 -0.94287219511E+03  0.94287219511E+03  0.00000000000E+00 0. -1.
         24    1    1    2    0    0  0.28761997225E+02  0.43305385392E+02 -0.20239781118E+03  0.22390779088E+03  0.80419002446E+02 0.  1.
          1    1    1    2  501    0 -0.34748704518E+02  0.34186216239E+01 -0.72146591792E+03  0.72231034200E+03  0.00000000000E+00 0. -1.
         -2    1    1    2    0  502  0.59867072931E+01 -0.46724007016E+02  0.63005750884E+02  0.78668279124E+02  0.00000000000E+00 0.  1.
<mgrwt>
<rscale>  2 0.88890824E+02</rscale>
<asrwt>0</asrwt>
<pdfrwt beam="1">  1       21 0.12617572E-01 0.88890824E+02</pdfrwt>
<pdfrwt beam="2">  1       21 0.14505726E+00 0.88890824E+02</pdfrwt>
<totfact> 0.19130897E+04</totfact>
</mgrwt>
</event>
<event>
 5    1  0.1994521E+000  0.8182655E+02  0.7546771E-02  0.1323946E+00
         21   -1    0    0  501  502  0.00000000000E+00  0.00000000000E+00  0.30536782977E+03  0.30536782977E+03  0.00000000000E+00 0. -1.
         21   -1    0    0  502  503 -0.00000000000E+00 -0.00000000000E+00 -0.10435326928E+03  0.10435326928E+03  0.00000000000E+00 0.  1.
         24    1    1    2    0    0 -0.42303702051E+02  0.11991604753E+02  0.12171039296E+03  0.15236153550E+03  0.80419002446E+02 0.  1.
          1    1    1    2  501    0 -0.80660212581E+01 -0.19471577042E+02  0.16030361528E+03  0.16168318430E+03  0.00000000000E+00 0. -1.
         -2    1    1    2    0  503  0.50369723309E+02  0.74799722891E+01 -0.80999447744E+02  0.95676379251E+02  0.00000000000E+00 0.  1.
<mgrwt>
<rscale>  2 0.81826548E+02</rscale>
<asrwt>0</asrwt>
<pdfrwt beam="1">  1       21 0.46979666E-01 0.81826548E+02</pdfrwt>
<pdfrwt beam="2">  1       21 0.16054349E-01 0.81826548E+02</pdfrwt>
<totfact> 0.15599506E+05</totfact>
</mgrwt>
</event>
<event>
 5    1  0.1994521E+000  0.9764461E+02  0.7546771E-02  0.1285328E+00
         21   -1    0    0  501  502  0.00000000000E+00  0.00000000000E+00  0.38161412664E+02  0.38161412664E+02  0.00000000000E+00 0.  1.
         21   -1    0    0  502  503 -0.00000000000E+00 -0.00000000000E+00 -0.28575569206E+03  0.28575569206E+03  0.00000000000E+00 0. -1.
         24    1    1    2    0    0 -0.26685426086E+02 -0.48786050331E+02 -0.17769913915E+03  0.20282108047E+03  0.80419002446E+02 0. -1.
          1    1    1    2  501    0  0.38812522160E+02 -0.78489293969E+01 -0.18687956315E+02  0.43786496552E+02  0.00000000000E+00 0. -1.
         -2    1    1    2    0  503 -0.12127096074E+02  0.56634979728E+02 -0.51207183930E+02  0.77309527705E+02  0.00000000000E+00 0.  1.
<mgrwt>
<rscale>  2 0.97644610E+02</rscale>
<asrwt>0</asrwt>
<pdfrwt beam="1">  1       21 0.58709869E-02 0.97644610E+02</pdfrwt>
<pdfrwt beam="2">  1       21 0.43962412E-01 0.97644610E+02</pdfrwt>
<totfact> 0.10158662E+06</totfact>
</mgrwt>
</event>
<event>
 5    1  0.1994521E+000  0.7540062E+02  0.7546771E-02  0.1342635E+00
         21   -1    0    0  503  502  0.00000000000E+00  0.00000000000E+00  0.57303922749E+02  0.57303922749E+02  0.00000000000E+00 0.  1.
         21   -1    0    0  501  503 -0.00000000000E+00 -0.00000000000E+00 -0.10424809276E+03  0.10424809276E+03  0.00000000000E+00 0.  1.
         24    1    1    2    0    0  0.20453442407E+02 -0.25338185949E+02 -0.12756067172E+02  0.87694356589E+02  0.80419002446E+02 0.  1.
          1    1    1    2  501    0  0.17372830141E+02  0.18896200650E+02 -0.63222749266E+01  0.26435823921E+02  0.00000000000E+00 0. -1.
         -2    1    1    2    0  502 -0.37826272548E+02  0.64419852992E+01 -0.27865827911E+02  0.47421834999E+02  0.00000000000E+00 0.  1.
<mgrwt>
<rscale>  2 0.75400618E+02</rscale>
<asrwt>0</asrwt>
<pdfrwt beam="1">  1       21 0.88159881E-02 0.75400618E+02</pdfrwt>
<pdfrwt beam="2">  1       21 0.16038168E-01 0.75400618E+02</pdfrwt>
<totfact> 0.33827271E+06</totfact>
</mgrwt>
</event>
<event>
 5    1  0.1994521E+000  0.1224588E+03  0.7546771E-02  0.1239095E+00
         21   -1    0    0  501  502  0.00000000000E+00  0.00000000000E+00  0.12574280622E+04  0.12574280622E+04  0.00000000000E+00 0. -1.
         21   -1    0    0  502  503 -0.00000000000E+00 -0.00000000000E+00 -0.17360528712E+02  0.17360528712E+02  0.00000000000E+00 0. -1.
         24    1    1    2    0    0 -0.68396681309E+02 -0.56943345819E+02  0.37234983941E+03  0.39119339145E+03  0.80419002446E+02 0. -1.
          1    1    1    2  501    0 -0.63293389467E+01  0.49465748062E+02  0.67380683955E+03  0.67564974491E+03  0.00000000000E+00 0. -1.
         -2    1    1    2    0  503  0.74726020256E+02  0.74775977579E+01  0.19391085456E+03  0.20794545459E+03  0.00000000000E+00 0.  1.
<mgrwt>
<rscale>  2 0.12245884E+03</rscale>
<asrwt>0</asrwt>
<pdfrwt beam="1">  1       21 0.19345040E+00 0.12245884E+03</pdfrwt>
<pdfrwt beam="2">  1       21 0.26708516E-02 0.12245884E+03</pdfrwt>
<totfact> 0.11825097E+05</totfact>
</mgrwt>
</event>
<event>
 5    1  0.1994521E+000  0.7361989E+02  0.7546771E-02  0.1348199E+00
         21   -1    0    0  503  502  0.00000000000E+00  0.00000000000E+00  0.70952712916E+01  0.70952712916E+01  0.00000000000E+00 0.  1.
         21   -1    0    0  501  503 -0.00000000000E+00 -0.00000000000E+00 -0.12353520434E+04  0.12353520434E+04  0.00000000000E+00 0.  1.
         24    1    1    2    0    0 -0.15463066337E+02 -0.23175525591E+02 -0.92997201111E+03  0.93385832373E+03  0.80419002446E+02 0.  1.
          1    1    1    2  501    0 -0.20877444355E+02  0.12148440650E+02 -0.22263982308E+03  0.22394629516E+03  0.00000000000E+00 0. -1.
         -2    1    1    2    0  502  0.36340510691E+02  0.11027084940E+02 -0.75644937912E+02  0.84642695794E+02  0.00000000000E+00 0.  1.
<mgrwt>
<rscale>  2 0.73619889E+02</rscale>
<asrwt>0</asrwt>
<pdfrwt beam="1">  1       21 0.10915790E-02 0.73619889E+02</pdfrwt>
<pdfrwt beam="2">  1       21 0.19005437E+00 0.73619889E+02</pdfrwt>
<totfact> 0.53261823E+05</totfact>
</mgrwt>
</event>
<event>
 5    1  0.1994521E+000  0.7026614E+02  0.7546771E-02  0.1359190E+00
         21   -1    0    0  503  502  0.00000000000E+00  0.00000000000E+00  0.19885119017E+03  0.19885119017E+03  0.00000000000E+00 0.  1.
         21   -1    0    0  501  503 -0.00000000000E+00 -0.00000000000E+00 -0.41532146199E+02  0.41532146199E+02  0.00000000000E+00 0.  1.
         24    1    1    2    0    0 -0.34428389135E+02 -0.26499266288E+02  0.20211083553E+02  0.93612119648E+02  0.80419002446E+02 0.  1.
          1    1    1    2  501    0  0.73252935506E+01  0.19939348040E+02  0.35164265335E+02  0.41082393825E+02  0.00000000000E+00 0. -1.
         -2    1    1    2    0  502  0.27103095585E+02  0.65599182480E+01  0.10194369508E+03  0.10568882290E+03  0.00000000000E+00 0.  1.
<mgrwt>
<rscale>  2 0.70266145E+02</rscale>
<asrwt>0</asrwt>
<pdfrwt beam="1">  1       21 0.30592490E-01 0.70266145E+02</pdfrwt>
<pdfrwt beam="2">  1       21 0.63895611E-02 0.70266145E+02</pdfrwt>
<totfact> 0.17716006E+06</totfact>
</mgrwt>
</event>
<event>
 5    1  0.1994521E+000  0.8012616E+02  0.7546771E-02  0.1328694E+00
         21   -1    0    0  501  502  0.00000000000E+00  0.00000000000E+00  0.37002781457E+02  0.37002781457E+02  0.00000000000E+00 0.  1.
         21   -1    0    0  502  503 -0.00000000000E+00 -0.00000000000E+00 -0.27797841201E+03  0.27797841201E+03  0.00000000000E+00 0. -1.
         24    1    1    2    0    0 -0.14758722178E+02  0.56350600761E+01 -0.10675105665E+03  0.13458297750E+03  0.80419002446E+02 0.  0.
          1    1    1    2  501    0  0.17261620006E+02 -0.40143393397E+02 -0.20230156087E+01  0.43744121328E+02  0.00000000000E+00 0. -1.
         -2    1    1    2    0  503 -0.25028978274E+01  0.34508333321E+02 -0.13220155830E+03  0.13665409464E+03  0.00000000000E+00 0.  1.
<mgrwt>
<rscale>  2 0.80126161E+02</rscale>
<asrwt>0</asrwt>
<pdfrwt beam="1">  1       21 0.56927357E-02 0.80126161E+02</pdfrwt>
<pdfrwt beam="2">  1       21 0.42765909E-01 0.80126161E+02</pdfrwt>
<totfact> 0.11260267E+06</totfact>
</mgrwt>
</event>
<event>
 5    1  0.1994521E+000  0.8309273E+02  0.7546771E-02  0.1320497E+00
         21   -1    0    0  503  502  0.00000000000E+00  0.00000000000E+00  0.27617119366E+02  0.27617119366E+02  0.00000000000E+00 0.  1.
         21   -1    0    0  501  503 -0.00000000000E+00 -0.00000000000E+00 -0.26721095755E+03  0.26721095755E+03  0.00000000000E+00 0. -1.
         24    1    1    2    0    0  0.30728413174E+02 -0.19229941517E+02 -0.14888832607E+03  0.17305772338E+03  0.80419002446E+02 0.  0.
          1    1    1    2  501    0  0.11327320073E+02 -0.18356422598E+02 -0.42137048597E+02  0.47337060482E+02  0.00000000000E+00 0. -1.
         -2    1    1    2    0  502 -0.42055733247E+02  0.37586364116E+02 -0.48568463514E+02  0.74433293052E+02  0.00000000000E+00 0.  1.
<mgrwt>
<rscale>  2 0.83092728E+02</rscale>
<asrwt>0</asrwt>
<pdfrwt beam="1">  1       21 0.42487876E-02 0.83092728E+02</pdfrwt>
<pdfrwt beam="2">  1       21 0.41109378E-01 0.83092728E+02</pdfrwt>
<totfact> 0.19807751E+06</totfact>
</mgrwt>
</event>
<event>
 5    1  0.2266887E+000  0.8332606E+02  0.7546771E-02  0.1319869E+00
         21   -1    0    0  501  502  0.00000000000E+00  0.00000000000E+00  0.28235142838E+03  0.28235142838E+03  0.00000000000E+00 0.  1.
         21   -1    0    0  502  503 -0.00000000000E+00 -0.00000000000E+00 -0.24286452638E+03  0.24286452638E+03  0.00000000000E+00 0.  1.
         24    1    1    2    0    0 -0.40318052251E+02 -0.27560444578E+02  0.17174300153E+03  0.19582644860E+03  0.80419002446E+02 0.  1.
          1    1    1    2  501    0  0.72634334198E+01  0.37382968375E+02  0.93529841952E+02  0.10098551938E+03  0.00000000000E+00 0. -1.
         -2    1    1    2    0  503  0.33054618831E+02 -0.98225237969E+01 -0.22578594149E+03  0.22840398678E+03  0.00000000000E+00 0.  1.
<mgrwt>
<rscale>  2 0.83326060E+02</rscale>
<asrwt>0</asrwt>
<pdfrwt beam="1">  1       21 0.43438681E-01 0.83326060E+02</pdfrwt>
<pdfrwt beam="2">  1       21 0.37363773E-01 0.83326060E+02</pdfrwt>
<totfact> 0.37706590E+04</totfact>
</mgrwt>
</event>
<event>
 5    1  0.1994521E+000  0.7941390E+02  0.7546771E-02  0.1330723E+00
         21   -1    0    0  503  502  0.00000000000E+00  0.00000000000E+00  0.19203603950E+03  0.19203603950E+03  0.00000000000E+00 0.  1.
         21   -1    0    0  501  503 -0.00000000000E+00 -0.00000000000E+00 -0.44612152490E+02  0.44612152490E+02  0.00000000000E+00 0. -1.
         24    1    1    2    0    0 -0.34242042235E+01  0.22788198486E+01  0.75446538274E+02  0.11034633789E+03  0.80419002446E+02 0.  1.
          1    1    1    2  501    0 -0.31400650019E+02  0.19751013011E+02 -0.65022235959E+01  0.37661415909E+02  0.00000000000E+00 0. -1.
         -2    1    1    2    0  502  0.34824854243E+02 -0.22029832860E+02  0.78479572336E+02  0.88640438192E+02  0.00000000000E+00 0.  1.
<mgrwt>
<rscale>  2 0.79413902E+02</rscale>
<asrwt>0</asrwt>
<pdfrwt beam="1">  1       21 0.29544006E-01 0.79413902E+02</pdfrwt>
<pdfrwt beam="2">  1       21 0.68634081E-02 0.79413902E+02</pdfrwt>
<totfact> 0.16870168E+06</totfact>
</mgrwt>
</event>
<event>
 5    1  0.1994521E+000  0.7532333E+02  0.7546771E-02  0.1342873E+00
         21   -1    0    0  501  502  0.00000000000E+00  0.00000000000E+00  0.33490327921E+03  0.33490327921E+03  0.00000000000E+00 0.  1.
         21   -1    0    0  502  503 -0.00000000000E+00 -0.00000000000E+00 -0.19912110663E+02  0.19912110663E+02  0.00000000000E+00 0. -1.
         24    1    1    2    0    0  0.11545910139E+02 -0.50619008865E+02  0.21440271792E+03  0.23480062501E+03  0.80419002446E+02 0.  1.
          1    1    1    2  501    0 -0.13987170126E+02  0.21165803862E+02  0.80182239182E+02  0.84100081221E+02  0.00000000000E+00 0. -1.
         -2    1    1    2    0  503  0.24412599873E+01  0.29453205004E+02  0.20406211439E+02  0.35914683635E+02  0.00000000000E+00 0.  1.
<mgrwt>
<rscale>  2 0.75323335E+02</rscale>
<asrwt>0</asrwt>
<pdfrwt beam="1">  1       21 0.51523577E-01 0.75323335E+02</pdfrwt>
<pdfrwt beam="2">  1       21 0.30634019E-02 0.75323335E+02</pdfrwt>
<totfact> 0.21380454E+06</totfact>
</mgrwt>
</event>
<event>
 5    1  0.1994521E+000  0.9719192E+02  0.7546771E-02  0.1286314E+00
         21   -1    0    0  503  502  0.00000000000E+00  0.00000000000E+00  0.15375499201E+04  0.15375499201E+04  0.00000000000E+00 0.  1.
         21   -1    0    0  501  503 -0.00000000000E+00 -0.00000000000E+00 -0.31944561130E+02  0.31944561130E+02  0.00000000000E+00 0.  1.
         24    1    1    2    0    0  0.26969190269E+02 -0.37597983411E+01  0.55372432051E+02  0.10136466590E+03  0.80419002446E+02 0.  1.
          1    1    1    2  501    0 -0.54840379543E+02 -0.32499070066E+02  0.11014570513E+03  0.12726245771E+03  0.00000000000E+00 0. -1.
         -2    1    1    2    0  502  0.27871189275E+02  0.36258868407E+02  0.13400872218E+04  0.13408673577E+04  0.00000000000E+00 0.  1.
<mgrwt>
<rscale>  2 0.97191917E+02</rscale>
<asrwt>0</asrwt>
<pdfrwt beam="1">  1       21 0.23654608E+00 0.97191917E+02</pdfrwt>
<pdfrwt beam="2">  1       21 0.49145491E-02 0.97191917E+02</pdfrwt>
<totfact> 0.24446703E+04</totfact>
</mgrwt>
</event>
<event>
 5    1  0.1994521E+000  0.1068544E+03  0.7546771E-02  0.1266509E+00
         21   -1    0    0  503  502  0.00000000000E+00  0.00000000000E+00  0.38707739261E+03  0.38707739261E+03  0.00000000000E+00 0. -1.
         21   -1    0    0  501  503 -0.00000000000E+00 -0.00000000000E+00 -0.53065594423E+02  0.53065594423E+02  0.00000000000E+00 0. -1.
         24    1    1    2    0    0  0.53619217795E+02 -0.28697596025E+02  0.26899819340E+02  0.10435223414E+03  0.80419002446E+02 0. -1.
          1    1    1    2  501    0 -0.77098478749E+02  0.17179715851E+01  0.10355345665E+03  0.12911407838E+03  0.00000000000E+00 0. -1.
         -2    1    1    2    0  502  0.23479260954E+02  0.26979624439E+02  0.20355852220E+03  0.20667667451E+03  0.00000000000E+00 0.  1.
<mgrwt>
<rscale>  2 0.10685436E+03</rscale>
<asrwt>0</asrwt>
<pdfrwt beam="1">  1       21 0.59550366E-01 0.10685436E+03</pdfrwt>
<pdfrwt beam="2">  1       21 0.81639379E-02 0.10685436E+03</pdfrwt>
<totfact> 0.31062072E+05</totfact>
</mgrwt>
</event>
<event>
 5    1  0.1994521E+000  0.7817796E+02  0.7546771E-02  0.1334303E+00
         21   -1    0    0  503  502  0.00000000000E+00  0.00000000000E+00  0.26482782018E+02  0.26482782018E+02  0.00000000000E+00 0.  1.
         21   -1    0    0  501  503 -0.00000000000E+00 -0.00000000000E+00 -0.84749460897E+03  0.84749460897E+03  0.00000000000E+00 0. -1.
         24    1    1    2    0    0 -0.53206690842E+01 -0.30082217759E+00 -0.76497472846E+02  0.11111921220E+03  0.80419002446E+02 0.  0.
          1    1    1    2  501    0  0.20980912662E+02  0.33228831003E+02 -0.71464181804E+03  0.71572151148E+03  0.00000000000E+00 0. -1.
         -2    1    1    2    0  502 -0.15660243578E+02 -0.32928008825E+02 -0.29872536072E+02  0.47136667314E+02  0.00000000000E+00 0.  1.
<mgrwt>
<rscale>  2 0.78177960E+02</rscale>
<asrwt>0</asrwt>
<pdfrwt beam="1">  1       21 0.40742741E-02 0.78177960E+02</pdfrwt>
<pdfrwt beam="2">  1       21 0.13038379E+00 0.78177960E+02</pdfrwt>
<totfact> 0.17116540E+05</totfact>
</mgrwt>
</event>
<event>
 5    1  0.1994521E+000  0.1111017E+03  0.7546771E-02  0.1258543E+00
         21   -1    0    0  501  502  0.00000000000E+00  0.00000000000E+00  0.17727655994E+03  0.17727655994E+03  0.00000000000E+00 0.  1.
         21   -1    0    0  502  503 -0.00000000000E+00 -0.00000000000E+00 -0.81954485242E+02  0.81954485242E+02  0.00000000000E+00 0. -1.
         24    1    1    2    0    0  0.67996649262E+02 -0.40716296211E+02  0.61827068502E+01  0.11307874648E+03  0.80419002446E+02 0. -1.
          1    1    1    2  501    0  0.14557268870E+02  0.18992063750E+02  0.42764842260E+02  0.49004533422E+02  0.00000000000E+00 0. -1.
         -2    1    1    2    0  503 -0.82553918132E+02  0.21724232462E+02  0.46374525591E+02  0.97147765280E+02  0.00000000000E+00 0.  1.
<mgrwt>
<rscale>  2 0.11110169E+03</rscale>
<asrwt>0</asrwt>
<pdfrwt beam="1">  1       21 0.27273317E-01 0.11110169E+03</pdfrwt>
<pdfrwt beam="2">  1       21 0.12608382E-01 0.11110169E+03</pdfrwt>
<totfact> 0.69164193E+05</totfact>
</mgrwt>
</event>
<event>
 5    1  0.1994521E+000  0.6660506E+02  0.7546771E-02  0.1372034E+00
         21   -1    0    0  503  502  0.00000000000E+00  0.00000000000E+00  0.57652062521E+03  0.57652062521E+03  0.00000000000E+00 0. -1.
         21   -1    0    0  501  503 -0.00000000000E+00 -0.00000000000E+00 -0.86866567003E+01  0.86866567003E+01  0.00000000000E+00 0.  1.
         24    1    1    2    0    0  0.34280035885E+01  0.50154149368E+01  0.39521914479E+03  0.40336372415E+03  0.80419002446E+02 0. -1.
          1    1    1    2  501    0 -0.21201002975E+02  0.14866717798E+02  0.49392021374E+02  0.55768033860E+02  0.00000000000E+00 0. -1.
         -2    1    1    2    0  502  0.17772999387E+02 -0.19882132734E+02  0.12322280234E+03  0.12607552390E+03  0.00000000000E+00 0.  1.
<mgrwt>
<rscale>  2 0.66605059E+02</rscale>
<asrwt>0</asrwt>
<pdfrwt beam="1">  1       21 0.88695451E-01 0.66605059E+02</pdfrwt>
<pdfrwt beam="2">  1       21 0.13364092E-02 0.66605059E+02</pdfrwt>
<totfact> 0.25021605E+06</totfact>
</mgrwt>
</event>
<event>
 5    1  0.1994521E+000  0.7428010E+02  0.7546771E-02  0.1346115E+00
         21   -1    0    0  503  502  0.00000000000E+00  0.00000000000E+00  0.55264313027E+01  0.55264313027E+01  0.00000000000E+00 0. -1.
         21   -1    0    0  501  503 -0.00000000000E+00 -0.00000000000E+00 -0.11462148281E+04  0.11462148281E+04  0.00000000000E+00 0. -1.
         24    1    1    2    0    0 -0.18630469022E+02 -0.22563110683E+02 -0.44359820436E+03  0.45177734694E+03  0.80419002446E+02 0. -1.
          1    1    1    2  501    0  0.15392312522E+00  0.38550104400E+02 -0.46298504660E+03  0.46458722283E+03  0.00000000000E+00 0. -1.
         -2    1    1    2    0  502  0.18476545897E+02 -0.15986993717E+02 -0.23410514584E+03  0.23537668963E+03  0.00000000000E+00 0.  1.
<mgrwt>
<rscale>  2 0.74280103E+02</rscale>
<asrwt>0</asrwt>
<pdfrwt beam="1">  1       21 0.85021934E-03 0.74280103E+02</pdfrwt>
<pdfrwt beam="2">  1       21 0.17634092E+00 0.74280103E+02</pdfrwt>
<totfact> 0.96126236E+05</totfact>
</mgrwt>
</event>
<event>
 5    1  0.1994521E+000  0.1219783E+03  0.7546771E-02  0.1239869E+00
         21   -1    0    0  501  502  0.00000000000E+00  0.00000000000E+00  0.28623618564E+02  0.28623618564E+02  0.00000000000E+00 0. -1.
         21   -1    0    0  502  503 -0.00000000000E+00 -0.00000000000E+00 -0.74020927490E+03  0.74020927490E+03  0.00000000000E+00 0. -1.
         24    1    1    2    0    0 -0.21725523357E+02 -0.10649769585E+03 -0.30711424832E+03  0.33555943596E+03  0.80419002446E+02 0. -1.
          1    1    1    2  501    0  0.17654804745E+02  0.78744914986E+02 -0.10469370504E+03  0.13218632926E+03  0.00000000000E+00 0. -1.
         -2    1    1    2    0  503  0.40707186126E+01  0.27752780865E+02 -0.29977770297E+03  0.30108712825E+03  0.00000000000E+00 0.  1.
<mgrwt>
<rscale>  2 0.12197833E+03</rscale>
<asrwt>0</asrwt>
<pdfrwt beam="1">  1       21 0.44036334E-02 0.12197833E+03</pdfrwt>
<pdfrwt beam="2">  1       21 0.11387836E+00 0.12197833E+03</pdfrwt>
<totfact> 0.20499533E+05</totfact>
</mgrwt>
</event>
<event>
 5    1  0.1994521E+000  0.8021586E+02  0.7546771E-02  0.1328440E+00
         21   -1    0    0  503  502  0.00000000000E+00  0.00000000000E+00  0.46875436760E+02  0.46875436760E+02  0.00000000000E+00 0.  1.
         21   -1    0    0  501  503 -0.00000000000E+00 -0.00000000000E+00 -0.36473155852E+03  0.36473155852E+03  0.00000000000E+00 0.  1.
         24    1    1    2    0    0 -0.62538077313E+01 -0.30153275779E+02 -0.84638692236E+02  0.12074458302E+03  0.80419002446E+02 0. -1.
          1    1    1    2  501    0 -0.30821423143E+02  0.12598181494E+02 -0.24572962379E+03  0.24797524535E+03  0.00000000000E+00 0. -1.
         -2    1    1    2    0  502  0.37075230874E+02  0.17555094285E+02  0.12512194264E+02  0.42887166904E+02  0.00000000000E+00 0.  1.
<mgrwt>
<rscale>  2 0.80215856E+02</rscale>
<asrwt>0</asrwt>
<pdfrwt beam="1">  1       21 0.72116060E-02 0.80215856E+02</pdfrwt>
<pdfrwt beam="2">  1       21 0.56112545E-01 0.80215856E+02</pdfrwt>
<totfact> 0.43607920E+05</totfact>
</mgrwt>
</event>
<event>
 5    1  0.1994521E+000  0.8709250E+02  0.7546771E-02  0.1310049E+00
         21   -1    0    0  503  502  0.00000000000E+00  0.00000000000E+00  0.21486611438E+03  0.21486611438E+03  0.00000000000E+00 0.  1.
         21   -1    0    0  501  503 -0.00000000000E+00 -0.00000000000E+00 -0.17265647929E+03  0.17265647929E+03  0.00000000000E+00 0. -1.
         24    1    1    2    0    0 -0.41003578853E+02 -0.94434926699E+01 -0.98098495793E+01  0.91290317864E+02  0.80419002446E+02 0. -1.
          1    1    1    2  501    0  0.61824616991E+02  0.98154169271E+01 -0.11338743703E+03  0.12951963771E+03  0.00000000000E+00 0. -1.
         -2    1    1    2    0  502 -0.20821038138E+02 -0.37192425723E+00  0.16540692170E+03  0.16671263810E+03  0.00000000000E+00 0.  1.
<mgrwt>
<rscale>  2 0.87092501E+02</rscale>
<asrwt>0</asrwt>
<pdfrwt beam="1">  1       21 0.33056325E-01 0.87092501E+02</pdfrwt>
<pdfrwt beam="2">  1       21 0.26562535E-01 0.87092501E+02</pdfrwt>
<totfact> 0.12364666E+05</totfact>
</mgrwt>
</event>
<event>
 5    1  0.1994521E+000  0.9941295E+02  0.7546771E-02  0.1281535E+00
         21   -1    0    0  503  502  0.00000000000E+00  0.00000000000E+00  0.20880821075E+02  0.20880821075E+02  0.00000000000E+00 0.  1.
         21   -1    0    0  501  503 -0.00000000000E+00 -0.00000000000E+00 -0.49731391302E+03  0.49731391302E+03  0.00000000000E+00 0.  1.
         24    1    1    2    0    0 -0.19433487277E+02  0.48906013398E+02 -0.25055830389E+03  0.26835822733E+03  0.80419002446E+02 0.  1.
          1    1    1    2  501    0  0.17038048396E+02  0.24187245306E+02 -0.99724823673E+02  0.10402095166E+03  0.00000000000E+00 0. -1.
         -2    1    1    2    0  502  0.23954388811E+01 -0.73093258704E+02 -0.12614996438E+03  0.14581555510E+03  0.00000000000E+00 0.  1.
<mgrwt>
<rscale>  2 0.99412946E+02</rscale>
<asrwt>0</asrwt>
<pdfrwt beam="1">  1       21 0.32124342E-02 0.99412946E+02</pdfrwt>
<pdfrwt beam="2">  1       21 0.76509828E-01 0.99412946E+02</pdfrwt>
<totfact> 0.86298687E+05</totfact>
</mgrwt>
</event>
<event>
 5    1  0.1994521E+000  0.6731698E+02  0.7546771E-02  0.1369462E+00
         21   -1    0    0  501  502  0.00000000000E+00  0.00000000000E+00  0.33386277421E+02  0.33386277421E+02  0.00000000000E+00 0.  1.
         21   -1    0    0  502  503 -0.00000000000E+00 -0.00000000000E+00 -0.55118062887E+03  0.55118062887E+03  0.00000000000E+00 0. -1.
         24    1    1    2    0    0 -0.25979301337E+01  0.29155812395E+02 -0.43289862852E+03  0.44127683960E+03  0.80419002446E+02 0. -1.
          1    1    1    2  501    0 -0.18421301850E+02 -0.13128415396E+02  0.22966662459E+02  0.32236116968E+02  0.00000000000E+00 0. -1.
         -2    1    1    2    0  503  0.21019231984E+02 -0.16027396999E+02 -0.10786238539E+03  0.11105394973E+03  0.00000000000E+00 0.  1.
<mgrwt>
<rscale>  2 0.67316984E+02</rscale>
<asrwt>0</asrwt>
<pdfrwt beam="1">  1       21 0.51363505E-02 0.67316984E+02</pdfrwt>
<pdfrwt beam="2">  1       21 0.84797017E-01 0.67316984E+02</pdfrwt>
<totfact> 0.31841431E+05</totfact>
</mgrwt>
</event>
<event>
 5    1  0.1994521E+000  0.6993959E+02  0.7546771E-02  0.1360299E+00
         21   -1    0    0  501  502  0.00000000000E+00  0.00000000000E+00  0.81134460591E+03  0.81134460591E+03  0.00000000000E+00 0. -1.
         21   -1    0    0  502  503 -0.00000000000E+00 -0.00000000000E+00 -0.18133187400E+02  0.18133187400E+02  0.00000000000E+00 0. -1.
         24    1    1    2    0    0 -0.30288820430E+02  0.14162949679E+02  0.21018804627E+03  0.22751754336E+03  0.80419002446E+02 0.  0.
          1    1    1    2  501    0  0.26919346716E+02  0.97546603747E+01  0.57613139802E+03  0.57684243292E+03  0.00000000000E+00 0. -1.
         -2    1    1    2    0  503  0.33694737142E+01 -0.23917610053E+02  0.68919742112E+01  0.25117817029E+02  0.00000000000E+00 0.  1.
<mgrwt>
<rscale>  2 0.69939587E+02</rscale>
<asrwt>0</asrwt>
<pdfrwt beam="1">  1       21 0.12482222E+00 0.69939587E+02</pdfrwt>
<pdfrwt beam="2">  1       21 0.27897218E-02 0.69939587E+02</pdfrwt>
<totfact> 0.35323650E+05</totfact>
</mgrwt>
</event>
<event>
 5    1  0.1994521E+000  0.7220941E+02  0.7546771E-02  0.1352737E+00
         21   -1    0    0  503  502  0.00000000000E+00  0.00000000000E+00  0.30887158049E+03  0.30887158049E+03  0.00000000000E+00 0.  1.
         21   -1    0    0  501  503 -0.00000000000E+00 -0.00000000000E+00 -0.11466976078E+03  0.11466976078E+03  0.00000000000E+00 0. -1.
         24    1    1    2    0    0  0.14739321886E+02  0.45730817349E+02 -0.16070234267E+02  0.95047481023E+02  0.80419002446E+02 0.  0.
          1    1    1    2  501    0 -0.16376854256E+02 -0.24643382728E+02 -0.54960565601E+02  0.62419239332E+02  0.00000000000E+00 0. -1.
         -2    1    1    2    0  502  0.16375323700E+01 -0.21087434622E+02  0.26523261958E+03  0.26607462092E+03  0.00000000000E+00 0.  1.
<mgrwt>
<rscale>  2 0.72209408E+02</rscale>
<asrwt>0</asrwt>
<pdfrwt beam="1">  1       21 0.47518704E-01 0.72209408E+02</pdfrwt>
<pdfrwt beam="2">  1       21 0.17641502E-01 0.72209408E+02</pdfrwt>
<totfact> 0.12928539E+05</totfact>
</mgrwt>
</event>
<event>
 5    1  0.1994521E+000  0.9060792E+02  0.7546771E-02  0.1301386E+00
         21   -1    0    0  501  502  0.00000000000E+00  0.00000000000E+00  0.21292790981E+03  0.21292790981E+03  0.00000000000E+00 0. -1.
         21   -1    0    0  502  503 -0.00000000000E+00 -0.00000000000E+00 -0.51657563746E+02  0.51657563746E+02  0.00000000000E+00 0.  1.
         24    1    1    2    0    0  0.14710029382E+01  0.13837984682E+02  0.13451249172E+03  0.15733556512E+03  0.80419002446E+02 0. -1.
          1    1    1    2  501    0 -0.24353219702E+02  0.36745702871E+02  0.27068822939E+02  0.51730524496E+02  0.00000000000E+00 0. -1.
         -2    1    1    2    0  503  0.22882216764E+02 -0.50583687553E+02 -0.31096860054E+00  0.55519383930E+02  0.00000000000E+00 0.  1.
<mgrwt>
<rscale>  2 0.90607918E+02</rscale>
<asrwt>0</asrwt>
<pdfrwt beam="1">  1       21 0.32758140E-01 0.90607918E+02</pdfrwt>
<pdfrwt beam="2">  1       21 0.79473176E-02 0.90607918E+02</pdfrwt>
<totfact> 0.10836991E+06</totfact>
</mgrwt>
</event>
<event>
 5    1  0.1994521E+000  0.6825865E+02  0.7546771E-02  0.1366117E+00
         21   -1    0    0  501  502  0.00000000000E+00  0.00000000000E+00  0.60910249628E+02  0.60910249628E+02  0.00000000000E+00 0. -1.
         21   -1    0    0  502  503 -0.00000000000E+00 -0.00000000000E+00 -0.79058575439E+02  0.79058575439E+02  0.00000000000E+00 0. -1.
         24    1    1    2    0    0  0.71287597347E+01  0.39209732264E+02 -0.62665420345E+01  0.89970594213E+02  0.80419002446E+02 0. -1.
          1    1    1    2  501    0 -0.15052319554E+02 -0.14831522034E+02  0.13045351350E+01  0.21171872419E+02  0.00000000000E+00 0. -1.
         -2    1    1    2    0  503  0.79235598189E+01 -0.24378210229E+02 -0.13186318912E+02  0.28826358435E+02  0.00000000000E+00 0.  1.
<mgrwt>
<rscale>  2 0.68258654E+02</rscale>
<asrwt>0</asrwt>
<pdfrwt beam="1">  1       21 0.93708076E-02 0.68258654E+02</pdfrwt>
<pdfrwt beam="2">  1       21 0.12162858E-01 0.68258654E+02</pdfrwt>
<totfact> 0.49276747E+06</totfact>
</mgrwt>
</event>
<event>
 5    1  0.1994521E+000  0.7706434E+02  0.7546771E-02  0.1337595E+00
         21   -1    0    0  503  502  0.00000000000E+00  0.00000000000E+00  0.14576028779E+04  0.14576028779E+04  0.00000000000E+00 0.  1.
         21   -1    0    0  501  503 -0.00000000000E+00 -0.00000000000E+00 -0.46012646699E+01  0.46012646699E+01  0.00000000000E+00 0. -1.
         24    1    1    2    0    0  0.34525779172E+02 -0.55607056928E+01  0.92536286114E+03  0.92950879050E+03  0.80419002446E+02 0.  0.
          1    1    1    2  501    0 -0.35473977438E+02  0.27245601707E+02  0.23276316938E+03  0.23702197980E+03  0.00000000000E+00 0. -1.
         -2    1    1    2    0  502  0.94819826558E+00 -0.21684896014E+02  0.29487558273E+03  0.29567337229E+03  0.00000000000E+00 0.  1.
<mgrwt>
<rscale>  2 0.77064344E+02</rscale>
<asrwt>0</asrwt>
<pdfrwt beam="1">  1       21 0.22424623E+00 0.77064344E+02</pdfrwt>
<pdfrwt beam="2">  1       21 0.70788804E-03 0.77064344E+02</pdfrwt>
<totfact> 0.64914412E+05</totfact>
</mgrwt>
</event>
<event>
 5    1  0.1994521E+000  0.1821704E+03  0.7546771E-02  0.1165719E+00
         21   -1    0    0  501  502  0.00000000000E+00  0.00000000000E+00  0.19351855639E+02  0.19351855639E+02  0.00000000000E+00 0. -1.
         21   -1    0    0  502  503 -0.00000000000E+00 -0.00000000000E+00 -0.21787263885E+04  0.21787263885E+04  0.00000000000E+00 0. -1.
         24    1    1    2    0    0  0.88905121117E+02  0.91184046855E+02 -0.10362740249E+04  0.10471627007E+04  0.80419002446E+02 0. -1.
          1    1    1    2  501    0 -0.75420299806E+02 -0.14219541634E+03 -0.49301497892E+03  0.51862464991E+03  0.00000000000E+00 0. -1.
         -2    1    1    2    0  503 -0.13484821311E+02  0.51011369485E+02 -0.63008552901E+03  0.63229089357E+03  0.00000000000E+00 0.  1.
<mgrwt>
<rscale>  2 0.18217039E+03</rscale>
<asrwt>0</asrwt>
<pdfrwt beam="1">  1       21 0.29772109E-02 0.18217039E+03</pdfrwt>
<pdfrwt beam="2">  1       21 0.33518841E+00 0.18217039E+03</pdfrwt>
<totfact> 0.13854899E+04</totfact>
</mgrwt>
</event>
<event>
 5    1  0.1994521E+000  0.6756867E+02  0.7546771E-02  0.1368562E+00
         21   -1    0    0  503  502  0.00000000000E+00  0.00000000000E+00  0.69129193656E+03  0.69129193656E+03  0.00000000000E+00 0. -1.
         21   -1    0    0  501  503 -0.00000000000E+00 -0.00000000000E+00 -0.76138262476E+01  0.76138262476E+01  0.00000000000E+00 0.  1.
         24    1    1    2    0    0  0.34430819037E+02  0.10221220129E+02  0.39886296227E+03  0.40847133715E+03  0.80419002446E+02 0.  0.
          1    1    1    2  501    0 -0.18842410774E+02  0.10157105407E+02  0.52343734182E+02  0.56551478691E+02  0.00000000000E+00 0. -1.
         -2    1    1    2    0  502 -0.15588408263E+02 -0.20378325536E+02  0.23247141386E+03  0.23388294697E+03  0.00000000000E+00 0.  1.
<mgrwt>
<rscale>  2 0.67568673E+02</rscale>
<asrwt>0</asrwt>
<pdfrwt beam="1">  1       21 0.10635256E+00 0.67568673E+02</pdfrwt>
<pdfrwt beam="2">  1       21 0.11713584E-02 0.67568673E+02</pdfrwt>
<totfact> 0.20354268E+06</totfact>
</mgrwt>
</event>
<event>
 5    1  0.1994521E+000  0.6897299E+02  0.7546771E-02  0.1363621E+00
         21   -1    0    0  501  502  0.00000000000E+00  0.00000000000E+00  0.26117205898E+02  0.26117205898E+02  0.00000000000E+00 0. -1.
         21   -1    0    0  502  503 -0.00000000000E+00 -0.00000000000E+00 -0.46475862753E+03  0.46475862753E+03  0.00000000000E+00 0. -1.
         24    1    1    2    0    0  0.50380417383E+01  0.28603235423E+02 -0.19925302009E+03  0.21682368162E+03  0.80419002446E+02 0. -1.
          1    1    1    2  501    0  0.17007216645E+02 -0.24801292153E+02  0.33740953682E+01  0.30261097634E+02  0.00000000000E+00 0. -1.
         -2    1    1    2    0  503 -0.22045258383E+02 -0.38019432701E+01 -0.24276249691E+03  0.24379105418E+03  0.00000000000E+00 0.  1.
<mgrwt>
<rscale>  2 0.68972993E+02</rscale>
<asrwt>0</asrwt>
<pdfrwt beam="1">  1       21 0.40180321E-02 0.68972993E+02</pdfrwt>
<pdfrwt beam="2">  1       21 0.71501320E-01 0.68972993E+02</pdfrwt>
<totfact> 0.69124731E+05</totfact>
</mgrwt>
</event>
<event>
 5    1  0.1994521E+000  0.7175327E+02  0.7546771E-02  0.1354230E+00
         21   -1    0    0  501  502  0.00000000000E+00  0.00000000000E+00  0.30193619426E+03  0.30193619426E+03  0.00000000000E+00 0. -1.
         21   -1    0    0  502  503 -0.00000000000E+00 -0.00000000000E+00 -0.17798480218E+03  0.17798480218E+03  0.00000000000E+00 0.  1.
         24    1    1    2    0    0 -0.30201174114E+02 -0.27514531962E+02  0.88523336842E+02  0.12638337512E+03  0.80419002446E+02 0. -1.
          1    1    1    2  501    0  0.26464093436E+01  0.25542717330E+02  0.19242389256E+03  0.19412982336E+03  0.00000000000E+00 0. -1.
         -2    1    1    2    0  503  0.27554764770E+02  0.19718146321E+01 -0.15699583732E+03  0.15940779796E+03  0.00000000000E+00 0.  1.
<mgrwt>
<rscale>  2 0.71753268E+02</rscale>
<asrwt>0</asrwt>
<pdfrwt beam="1">  1       21 0.46451722E-01 0.71753268E+02</pdfrwt>
<pdfrwt beam="2">  1       21 0.27382277E-01 0.71753268E+02</pdfrwt>
<totfact> 0.60399649E+04</totfact>
</mgrwt>
</event>
<event>
 5    1  0.1994521E+000  0.6848420E+02  0.7546771E-02  0.1365325E+00
         21   -1    0    0  501  502  0.00000000000E+00  0.00000000000E+00  0.29550917246E+02  0.29550917246E+02  0.00000000000E+00 0. -1.
         21   -1    0    0  502  503 -0.00000000000E+00 -0.00000000000E+00 -0.54899621631E+03  0.54899621631E+03  0.00000000000E+00 0.  1.
         24    1    1    2    0    0  0.86349255034E+01 -0.10521691308E+02 -0.47627500152E+02  0.94450318430E+02  0.80419002446E+02 0.  0.
          1    1    1    2  501    0 -0.31334032261E+02  0.29303194343E+01 -0.36802135174E+02  0.48423191790E+02  0.00000000000E+00 0. -1.
         -2    1    1    2    0  503  0.22699106758E+02  0.75913718741E+01 -0.43501566374E+03  0.43567362334E+03  0.00000000000E+00 0.  1.
<mgrwt>
<rscale>  2 0.68484196E+02</rscale>
<asrwt>0</asrwt>
<pdfrwt beam="1">  1       21 0.45462954E-02 0.68484196E+02</pdfrwt>
<pdfrwt beam="2">  1       21 0.84460947E-01 0.68484196E+02</pdfrwt>
<totfact> 0.39274321E+05</totfact>
</mgrwt>
</event>
<event>
 5    1  0.1994521E+000  0.1711112E+03  0.7546771E-02  0.1176694E+00
         21   -1    0    0  503  502  0.00000000000E+00  0.00000000000E+00  0.88083146494E+02  0.88083146494E+02  0.00000000000E+00 0. -1.
         21   -1    0    0  501  503 -0.00000000000E+00 -0.00000000000E+00 -0.46589650950E+03  0.46589650950E+03  0.00000000000E+00 0.  1.
         24    1    1    2    0    0 -0.15662768390E+02 -0.58330925733E+02 -0.30110484289E+02  0.10498417228E+03  0.80419002446E+02 0. -1.
          1    1    1    2  501    0  0.63454847121E+02 -0.76036124921E+02 -0.26779561597E+03  0.28552145602E+03  0.00000000000E+00 0. -1.
         -2    1    1    2    0  502 -0.47792078731E+02  0.13436705065E+03 -0.79907262748E+02  0.16347402769E+03  0.00000000000E+00 0.  1.
<mgrwt>
<rscale>  2 0.17111117E+03</rscale>
<asrwt>0</asrwt>
<pdfrwt beam="1">  1       21 0.13551253E-01 0.17111117E+03</pdfrwt>
<pdfrwt beam="2">  1       21 0.71676388E-01 0.17111117E+03</pdfrwt>
<totfact> 0.83689880E+04</totfact>
</mgrwt>
</event>
<event>
 5    1  0.1994521E+000  0.8599936E+02  0.7546771E-02  0.1312840E+00
         21   -1    0    0  501  502  0.00000000000E+00  0.00000000000E+00  0.30348582595E+02  0.30348582595E+02  0.00000000000E+00 0. -1.
         21   -1    0    0  502  503 -0.00000000000E+00 -0.00000000000E+00 -0.10743511341E+04  0.10743511341E+04  0.00000000000E+00 0. -1.
         24    1    1    2    0    0 -0.50365741127E+01 -0.25400958300E+02 -0.46829483921E+03  0.47585486038E+03  0.80419002446E+02 0. -1.
          1    1    1    2  501    0  0.42958617325E+02  0.21110928737E+01  0.77408750972E+01  0.43701494973E+02  0.00000000000E+00 0. -1.
         -2    1    1    2    0  503 -0.37922043213E+02  0.23289865426E+02 -0.58344858736E+03  0.58514336131E+03  0.00000000000E+00 0.  1.
<mgrwt>
<rscale>  2 0.85999355E+02</rscale>
<asrwt>0</asrwt>
<pdfrwt beam="1">  1       21 0.46690124E-02 0.85999355E+02</pdfrwt>
<pdfrwt beam="2">  1       21 0.16528480E+00 0.85999355E+02</pdfrwt>
<totfact> 0.74653772E+04</totfact>
</mgrwt>
</event>
<event>
 5    1  0.1994521E+000  0.7383671E+02  0.7546771E-02  0.1347512E+00
         21   -1    0    0  501  502  0.00000000000E+00  0.00000000000E+00  0.76442461612E+01  0.76442461612E+01  0.00000000000E+00 0. -1.
         21   -1    0    0  502  503 -0.00000000000E+00 -0.00000000000E+00 -0.18114286303E+04  0.18114286303E+04  0.00000000000E+00 0.  1.
         24    1    1    2    0    0  0.23912123012E+02 -0.23045180826E+02 -0.70686917582E+03  0.71220370518E+03  0.80419002446E+02 0.  0.
          1    1    1    2  501    0 -0.27197879547E+02 -0.88512799060E+01 -0.38465939006E+02  0.47934312047E+02  0.00000000000E+00 0. -1.
         -2    1    1    2    0  503  0.32857565353E+01  0.31896460732E+02 -0.10584492693E+04  0.10589348592E+04  0.00000000000E+00 0.  1.
<mgrwt>
<rscale>  2 0.73836706E+02</rscale>
<asrwt>0</asrwt>
<pdfrwt beam="1">  1       21 0.11760376E-02 0.73836706E+02</pdfrwt>
<pdfrwt beam="2">  1       21 0.27868138E+00 0.73836706E+02</pdfrwt>
<totfact> 0.14791278E+05</totfact>
</mgrwt>
</event>
<event>
 5    1  0.1994521E+000  0.1046453E+03  0.7546771E-02  0.1270820E+00
         21   -1    0    0  503  502  0.00000000000E+00  0.00000000000E+00  0.78785276618E+03  0.78785276618E+03  0.00000000000E+00 0. -1.
         21   -1    0    0  501  503 -0.00000000000E+00 -0.00000000000E+00 -0.28969782233E+02  0.28969782233E+02  0.00000000000E+00 0. -1.
         24    1    1    2    0    0 -0.10453082325E+02  0.59275925600E+02  0.38692384077E+03  0.39975014296E+03  0.80419002446E+02 0. -1.
          1    1    1    2  501    0 -0.22079183009E+02 -0.70927914578E+02  0.42054666918E+02  0.85363073975E+02  0.00000000000E+00 0. -1.
         -2    1    1    2    0  502  0.32532265334E+02  0.11651988979E+02  0.32990447626E+03  0.33170933148E+03  0.00000000000E+00 0.  1.
<mgrwt>
<rscale>  2 0.10464528E+03</rscale>
<asrwt>0</asrwt>
<pdfrwt beam="1">  1       21 0.12120810E+00 0.10464528E+03</pdfrwt>
<pdfrwt beam="2">  1       21 0.44568902E-02 0.10464528E+03</pdfrwt>
<totfact> 0.17404684E+05</totfact>
</mgrwt>
</event>
<event>
 5    1  0.1994521E+000  0.8123166E+02  0.7546771E-02  0.1325592E+00
         21   -1    0    0  503  502  0.00000000000E+00  0.00000000000E+00  0.32332534494E+03  0.32332534494E+03  0.00000000000E+00 0.  1.
         21   -1    0    0  501  503 -0.00000000000E+00 -0.00000000000E+00 -0.96427928165E+02  0.96427928165E+02  0.00000000000E+00 0. -1.
         24    1    1    2    0    0  0.12365886500E+02 -0.59796566082E+02  0.14007013586E+03  0.17267137394E+03  0.80419002446E+02 0. -1.
          1    1    1    2  501    0 -0.90256204746E+01  0.25881436113E+02 -0.75965997173E+02  0.80759787560E+02  0.00000000000E+00 0. -1.
         -2    1    1    2    0  502 -0.33402660253E+01  0.33915129968E+02  0.16279327809E+03  0.16632211160E+03  0.00000000000E+00 0.  1.
<mgrwt>
<rscale>  2 0.81231663E+02</rscale>
<asrwt>0</asrwt>
<pdfrwt beam="1">  1       21 0.49742360E-01 0.81231663E+02</pdfrwt>
<pdfrwt beam="2">  1       21 0.14835066E-01 0.81231663E+02</pdfrwt>
<totfact> 0.16001034E+05</totfact>
</mgrwt>
</event>
<event>
 5    1  0.1994521E+000  0.9896949E+02  0.7546771E-02  0.1282478E+00
         21   -1    0    0  501  502  0.00000000000E+00  0.00000000000E+00  0.84141973721E+03  0.84141973721E+03  0.00000000000E+00 0.  1.
         21   -1    0    0  502  503 -0.00000000000E+00 -0.00000000000E+00 -0.17961431787E+02  0.17961431787E+02  0.00000000000E+00 0.  1.
         24    1    1    2    0    0  0.25237129305E+02 -0.13941482825E+02  0.21581341978E+03  0.23210757366E+03  0.80419002446E+02 0.  0.
          1    1    1    2  501    0  0.74200978235E+01  0.57550127112E+02  0.52556155103E+03  0.52875515970E+03  0.00000000000E+00 0. -1.
         -2    1    1    2    0  503 -0.32657227128E+02 -0.43608644287E+02  0.82083334616E+02  0.98518435645E+02  0.00000000000E+00 0.  1.
<mgrwt>
<rscale>  2 0.98969495E+02</rscale>
<asrwt>0</asrwt>
<pdfrwt beam="1">  1       21 0.12944916E+00 0.98969495E+02</pdfrwt>
<pdfrwt beam="2">  1       21 0.27632978E-02 0.98969495E+02</pdfrwt>
<totfact> 0.32552961E+05</totfact>
</mgrwt>
</event>
<event>
 5    1  0.1994521E+000  0.9318065E+02  0.7546771E-02  0.1295327E+00
         21   -1    0    0  501  502  0.00000000000E+00  0.00000000000E+00  0.19090695866E+02  0.19090695866E+02  0.00000000000E+00 0.  1.
         21   -1    0    0  502  503 -0.00000000000E+00 -0.00000000000E+00 -0.58189209321E+03  0.58189209321E+03  0.00000000000E+00 0. -1.
         24    1    1    2    0    0 -0.23390577658E+02  0.84105087166E+01 -0.12753756240E+03  0.15281001786E+03  0.80419002446E+02 0.  1.
          1    1    1    2  501    0  0.61729847806E+02 -0.14392038477E+02 -0.20224268832E+03  0.21194294010E+03  0.00000000000E+00 0. -1.
         -2    1    1    2    0  503 -0.38339270148E+02  0.59815297602E+01 -0.23302114663E+03  0.23622983111E+03  0.00000000000E+00 0.  1.
<mgrwt>
<rscale>  2 0.93180654E+02</rscale>
<asrwt>0</asrwt>
<pdfrwt beam="1">  1       21 0.29370304E-02 0.93180654E+02</pdfrwt>
<pdfrwt beam="2">  1       21 0.89521853E-01 0.93180654E+02</pdfrwt>
<totfact> 0.70369869E+05</totfact>
</mgrwt>
</event>
<event>
 5    1  0.1994521E+000  0.1993998E+03  0.7546771E-02  0.1150246E+00
         21   -1    0    0  501  502  0.00000000000E+00  0.00000000000E+00  0.21312502191E+03  0.21312502191E+03  0.00000000000E+00 0. -1.
         21   -1    0    0  502  503 -0.00000000000E+00 -0.00000000000E+00 -0.20386986306E+03  0.20386986306E+03  0.00000000000E+00 0. -1.
         24    1    1    2    0    0 -0.14092589297E+03  0.12661104195E+03 -0.57751628470E+01  0.20589082474E+03  0.80419002446E+02 0. -1.
          1    1    1    2  501    0  0.96547990660E+02 -0.10800980457E+03  0.48179241220E+02  0.15267243258E+03  0.00000000000E+00 0. -1.
         -2    1    1    2    0  503  0.44377902311E+02 -0.18601237378E+02 -0.33148919523E+02  0.58431627660E+02  0.00000000000E+00 0.  1.
<mgrwt>
<rscale>  2 0.19939977E+03</rscale>
<asrwt>0</asrwt>
<pdfrwt beam="1">  1       21 0.32788465E-01 0.19939977E+03</pdfrwt>
<pdfrwt beam="2">  1       21 0.31364594E-01 0.19939977E+03</pdfrwt>
<totfact> 0.87219224E+04</totfact>
</mgrwt>
</event>
<event>
 5    1  0.1994521E+000  0.9026502E+02  0.7546771E-02  0.1302211E+00
         21   -1    0    0  501  502  0.00000000000E+00  0.00000000000E+00  0.34853800704E+02  0.34853800704E+02  0.00000000000E+00 0. -1.
         21   -1    0    0  502  503 -0.00000000000E+00 -0.00000000000E+00 -0.28333326154E+03  0.28333326154E+03  0.00000000000E+00 0.  1.
         24    1    1    2    0    0  0.56652161528E+01  0.13394394333E+02 -0.10860169367E+03  0.13591559254E+03  0.80419002446E+02 0. -1.
          1    1    1    2  501    0  0.31203060887E+02 -0.41872732280E+02 -0.24180037004E+02  0.57546771471E+02  0.00000000000E+00 0. -1.
         -2    1    1    2    0  503 -0.36868277040E+02  0.28478337947E+02 -0.11569773017E+03  0.12472469824E+03  0.00000000000E+00 0.  1.
<mgrwt>
<rscale>  2 0.90265017E+02</rscale>
<asrwt>0</asrwt>
<pdfrwt beam="1">  1       21 0.53621232E-02 0.90265017E+02</pdfrwt>
<pdfrwt beam="2">  1       21 0.43589732E-01 0.90265017E+02</pdfrwt>
<totfact> 0.12012812E+06</totfact>
</mgrwt>
</event>
<event>
 5    1  0.1994521E+000  0.1243293E+03  0.7546771E-02  0.1236121E+00
         21   -1    0    0  503  502  0.00000000000E+00  0.00000000000E+00  0.13368658230E+04  0.13368658230E+04  0.00000000000E+00 0.  1.
         21   -1    0    0  501  503 -0.00000000000E+00 -0.00000000000E+00 -0.15987749193E+02  0.15987749193E+02  0.00000000000E+00 0. -1.
         24    1    1    2    0    0  0.42790756185E+01 -0.11038946030E+03  0.10112828549E+04  0.10204726219E+04  0.80419002446E+02 0.  1.
          1    1    1    2  501    0 -0.11002310061E+02  0.86534832013E+02  0.17514789153E+03  0.19566837222E+03  0.00000000000E+00 0. -1.
         -2    1    1    2    0  502  0.67232344421E+01  0.23854628284E+02  0.13444732740E+03  0.13671257812E+03  0.00000000000E+00 0.  1.
<mgrwt>
<rscale>  2 0.12432931E+03</rscale>
<asrwt>0</asrwt>
<pdfrwt beam="1">  1       21 0.20567158E+00 0.12432931E+03</pdfrwt>
<pdfrwt beam="2">  1       21 0.24596548E-02 0.12432931E+03</pdfrwt>
<totfact> 0.11316267E+05</totfact>
</mgrwt>
</event>
<event>
 5    1  0.1994521E+000  0.6923544E+02  0.7546771E-02  0.1362712E+00
         21   -1    0    0  503  502  0.00000000000E+00  0.00000000000E+00  0.54846339054E+03  0.54846339054E+03  0.00000000000E+00 0. -1.
         21   -1    0    0  501  503 -0.00000000000E+00 -0.00000000000E+00 -0.12891391642E+02  0.12891391642E+02  0.00000000000E+00 0.  1.
         24    1    1    2    0    0  0.90131564890E+01 -0.11779994542E+02  0.31806547511E+03  0.32840960351E+03  0.80419002446E+02 0. -1.
          1    1    1    2  501    0  0.27096988200E+01  0.32647935364E+02  0.31642889660E+02  0.45546708084E+02  0.00000000000E+00 0. -1.
         -2    1    1    2    0  502 -0.11722855309E+02 -0.20867940822E+02  0.18586363412E+03  0.18739847059E+03  0.00000000000E+00 0.  1.
<mgrwt>
<rscale>  2 0.69235438E+02</rscale>
<asrwt>0</asrwt>
<pdfrwt beam="1">  1       21 0.84378965E-01 0.69235438E+02</pdfrwt>
<pdfrwt beam="2">  1       21 0.19832915E-02 0.69235438E+02</pdfrwt>
<totfact> 0.15024461E+06</totfact>
</mgrwt>
</event>
<event>
 5    1  0.1994521E+000  0.6686965E+02  0.7546771E-02  0.1371073E+00
         21   -1    0    0  503  502  0.00000000000E+00  0.00000000000E+00  0.13672308587E+03  0.13672308587E+03  0.00000000000E+00 0. -1.
         21   -1    0    0  501  503 -0.00000000000E+00 -0.00000000000E+00 -0.36349256629E+02  0.36349256629E+02  0.00000000000E+00 0.  1.
         24    1    1    2    0    0 -0.84752588238E+01 -0.31117789320E+02  0.50783284449E+02  0.10043059672E+03  0.80419002446E+02 0.  0.
          1    1    1    2  501    0 -0.12640534938E+02  0.18781214255E+02  0.72952860762E+01  0.23785254494E+02  0.00000000000E+00 0. -1.
         -2    1    1    2    0  502  0.21115793762E+02  0.12336575065E+02  0.42295258721E+02  0.48856491286E+02  0.00000000000E+00 0.  1.
<mgrwt>
<rscale>  2 0.66869653E+02</rscale>
<asrwt>0</asrwt>
<pdfrwt beam="1">  1       21 0.21034321E-01 0.66869653E+02</pdfrwt>
<pdfrwt beam="2">  1       21 0.55921934E-02 0.66869653E+02</pdfrwt>
<totfact> 0.44268429E+06</totfact>
</mgrwt>
</event>
<event>
 5    1  0.1994521E+000  0.1198930E+03  0.7546771E-02  0.1243274E+00
         21   -1    0    0  503  502  0.00000000000E+00  0.00000000000E+00  0.11658444323E+02  0.11658444323E+02  0.00000000000E+00 0. -1.
         21   -1    0    0  501  503 -0.00000000000E+00 -0.00000000000E+00 -0.21457783479E+04  0.21457783479E+04  0.00000000000E+00 0. -1.
         24    1    1    2    0    0 -0.60141925519E+02  0.77157542933E+02 -0.17442310809E+04  0.17488223515E+04  0.80419002446E+02 0. -1.
          1    1    1    2  501    0  0.58295691355E+02 -0.29284470410E+02 -0.29720427615E+03  0.30428005126E+03  0.00000000000E+00 0. -1.
         -2    1    1    2    0  502  0.18462341635E+01 -0.47873072523E+02 -0.92684546489E+02  0.10433438940E+03  0.00000000000E+00 0.  1.
<mgrwt>
<rscale>  2 0.11989295E+03</rscale>
<asrwt>0</asrwt>
<pdfrwt beam="1">  1       21 0.17936093E-02 0.11989295E+03</pdfrwt>
<pdfrwt beam="2">  1       21 0.33011929E+00 0.11989295E+03</pdfrwt>
<totfact> 0.36678967E+04</totfact>
</mgrwt>
</event>
<event>
 5    1  0.1994521E+000  0.6550467E+02  0.7546771E-02  0.1376083E+00
         21   -1    0    0  501  502  0.00000000000E+00  0.00000000000E+00  0.18576847192E+02  0.18576847192E+02  0.00000000000E+00 0. -1.
         21   -1    0    0  502  503 -0.00000000000E+00 -0.00000000000E+00 -0.36832480017E+03  0.36832480017E+03  0.00000000000E+00 0.  1.
         24    1    1    2    0    0  0.39022525702E+01  0.23222177394E+01 -0.15720772131E+03  0.17664117262E+03  0.80419002446E+02 0.  0.
          1    1    1    2  501    0 -0.24731684202E+02 -0.12005975139E+02 -0.15151269507E+02  0.31390454125E+02  0.00000000000E+00 0. -1.
         -2    1    1    2    0  503  0.20829431631E+02  0.96837573996E+01 -0.17738896216E+03  0.17887002062E+03  0.00000000000E+00 0.  1.
<mgrwt>
<rscale>  2 0.65504670E+02</rscale>
<asrwt>0</asrwt>
<pdfrwt beam="1">  1       21 0.28579764E-02 0.65504670E+02</pdfrwt>
<pdfrwt beam="2">  1       21 0.56665355E-01 0.65504670E+02</pdfrwt>
<totfact> 0.19553791E+06</totfact>
</mgrwt>
</event>
<event>
 5    1  0.1994521E+000  0.6935368E+02  0.7546771E-02  0.1362305E+00
         21   -1    0    0  501  502  0.00000000000E+00  0.00000000000E+00  0.16658323585E+03  0.16658323585E+03  0.00000000000E+00 0.  1.
         21   -1    0    0  502  503 -0.00000000000E+00 -0.00000000000E+00 -0.31564768179E+02  0.31564768179E+02  0.00000000000E+00 0.  1.
         24    1    1    2    0    0  0.34601614292E+01  0.77316358031E+01  0.62629265032E+02  0.10228094496E+03  0.80419002446E+02 0.  1.
          1    1    1    2  501    0  0.26543289917E+02  0.11034985389E+01  0.52394873167E+02  0.58745099224E+02  0.00000000000E+00 0. -1.
         -2    1    1    2    0  503 -0.30003451346E+02 -0.88351343420E+01  0.19994329469E+02  0.37121959841E+02  0.00000000000E+00 0.  1.
<mgrwt>
<rscale>  2 0.69353676E+02</rscale>
<asrwt>0</asrwt>
<pdfrwt beam="1">  1       21 0.25628190E-01 0.69353676E+02</pdfrwt>
<pdfrwt beam="2">  1       21 0.48561183E-02 0.69353676E+02</pdfrwt>
<totfact> 0.38963277E+06</totfact>
</mgrwt>
</event>
<event>
 5    1  0.1994521E+000  0.1424082E+03  0.7546771E-02  0.1210125E+00
         21   -1    0    0  501  502  0.00000000000E+00  0.00000000000E+00  0.99020628377E+02  0.99020628377E+02  0.00000000000E+00 0. -1.
         21   -1    0    0  502  503 -0.00000000000E+00 -0.00000000000E+00 -0.21259329135E+03  0.21259329135E+03  0.00000000000E+00 0.  1.
         24    1    1    2    0    0  0.24380031682E+02  0.24213510814E+02 -0.31445233881E+02  0.92933840655E+02  0.80419002446E+02 0. -1.
          1    1    1    2  501    0  0.82575034072E+02  0.14067397398E+02 -0.10587562720E+02  0.84431181478E+02  0.00000000000E+00 0. -1.
         -2    1    1    2    0  503 -0.10695506575E+03 -0.38280908212E+02 -0.71539866369E+02  0.13424889759E+03  0.00000000000E+00 0.  1.
<mgrwt>
<rscale>  2 0.14240816E+03</rscale>
<asrwt>0</asrwt>
<pdfrwt beam="1">  1       21 0.15233943E-01 0.14240816E+03</pdfrwt>
<pdfrwt beam="2">  1       21 0.32706660E-01 0.14240816E+03</pdfrwt>
<totfact> 0.34650050E+05</totfact>
</mgrwt>
</event>
<event>
 5    1  0.1994521E+000  0.8355285E+02  0.7546771E-02  0.1319261E+00
         21   -1    0    0  503  502  0.00000000000E+00  0.00000000000E+00  0.38550492537E+03  0.38550492537E+03  0.00000000000E+00 0.  1.
         21   -1    0    0  501  503 -0.00000000000E+00 -0.00000000000E+00 -0.26638155456E+02  0.26638155456E+02  0.00000000000E+00 0.  1.
         24    1    1    2    0    0 -0.61881047946E+02  0.13747818933E+02  0.23527564136E+03  0.25659327737E+03  0.80419002446E+02 0.  1.
          1    1    1    2  501    0  0.22991351599E+02 -0.11615530878E+02 -0.21709636469E+00  0.25759851257E+02  0.00000000000E+00 0. -1.
         -2    1    1    2    0  502  0.38889696347E+02 -0.21322880553E+01  0.12380822492E+03  0.12978995220E+03  0.00000000000E+00 0.  1.
<mgrwt>
<rscale>  2 0.83552845E+02</rscale>
<asrwt>0</asrwt>
<pdfrwt beam="1">  1       21 0.59308446E-01 0.83552845E+02</pdfrwt>
<pdfrwt beam="2">  1       21 0.40981780E-02 0.83552845E+02</pdfrwt>
<totfact> 0.99742440E+05</totfact>
</mgrwt>
</event>
<event>
 5    1  0.1994521E+000  0.6591585E+02  0.7546771E-02  0.1374559E+00
         21   -1    0    0  503  502  0.00000000000E+00  0.00000000000E+00  0.52215545150E+03  0.52215545150E+03  0.00000000000E+00 0.  1.
         21   -1    0    0  501  503 -0.00000000000E+00 -0.00000000000E+00 -0.17085510205E+02  0.17085510205E+02  0.00000000000E+00 0.  1.
         24    1    1    2    0    0 -0.11222417793E+02 -0.79600089549E+01  0.91371059638E+02  0.12249567706E+03  0.80419002446E+02 0.  0.
          1    1    1    2  501    0  0.26837737189E+02 -0.79108432522E+01  0.23987976550E+03  0.24150599884E+03  0.00000000000E+00 0. -1.
         -2    1    1    2    0  502 -0.15615319396E+02  0.15870852207E+02  0.17381911615E+03  0.17523928581E+03  0.00000000000E+00 0.  1.
<mgrwt>
<rscale>  2 0.65915849E+02</rscale>
<asrwt>0</asrwt>
<pdfrwt beam="1">  1       21 0.80331596E-01 0.65915849E+02</pdfrwt>
<pdfrwt beam="2">  1       21 0.26285404E-02 0.65915849E+02</pdfrwt>
<totfact> 0.10665396E+06</totfact>
</mgrwt>
</event>
<event>
 5    1  0.1994521E+000  0.6938562E+02  0.7546771E-02  0.1362195E+00
         21   -1    0    0  501  502  0.00000000000E+00  0.00000000000E+00  0.54300389834E+01  0.54300389834E+01  0.00000000000E+00 0.  1.
         21   -1    0    0  502  503 -0.00000000000E+00 -0.00000000000E+00 -0.10532693466E+04  0.10532693466E+04  0.00000000000E+00 0. -1.
         24    1    1    2    0    0  0.37558115651E+01 -0.38718498047E+02 -0.49695108114E+03  0.50491664779E+03  0.80419002446E+02 0.  0.
          1    1    1    2  501    0 -0.16748130971E+02  0.15440392492E+02 -0.12483758575E+03  0.12689889056E+03  0.00000000000E+00 0. -1.
         -2    1    1    2    0  503  0.12992319406E+02  0.23278105555E+02 -0.42605064073E+03  0.42688384723E+03  0.00000000000E+00 0.  1.
<mgrwt>
<rscale>  2 0.69385618E+02</rscale>
<asrwt>0</asrwt>
<pdfrwt beam="1">  1       21 0.83539025E-03 0.69385618E+02</pdfrwt>
<pdfrwt beam="2">  1       21 0.16204151E+00 0.69385618E+02</pdfrwt>
<totfact> 0.12333640E+06</totfact>
</mgrwt>
</event>
<event>
 5    1  0.1994521E+000  0.7420203E+02  0.7546771E-02  0.1346360E+00
         21   -1    0    0  503  502  0.00000000000E+00  0.00000000000E+00  0.80256778587E+03  0.80256778587E+03  0.00000000000E+00 0. -1.
         21   -1    0    0  501  503 -0.00000000000E+00 -0.00000000000E+00 -0.81824059024E+01  0.81824059024E+01  0.00000000000E+00 0.  1.
         24    1    1    2    0    0 -0.19395149198E+02  0.34477851765E+02  0.45226718775E+03  0.46106151340E+03  0.80419002446E+02 0.  0.
          1    1    1    2  501    0 -0.45749257401E+01 -0.34510004175E+02  0.91037359451E+02  0.97466256466E+02  0.00000000000E+00 0. -1.
         -2    1    1    2    0  502  0.23970074939E+02  0.32152410437E-01  0.25108083277E+03  0.25222242190E+03  0.00000000000E+00 0.  1.
<mgrwt>
<rscale>  2 0.74202032E+02</rscale>
<asrwt>0</asrwt>
<pdfrwt beam="1">  1       21 0.12347190E+00 0.74202032E+02</pdfrwt>
<pdfrwt beam="2">  1       21 0.12588323E-02 0.74202032E+02</pdfrwt>
<totfact> 0.12820909E+06</totfact>
</mgrwt>
</event>
<event>
 5    1  0.1994521E+000  0.1164467E+03  0.7546771E-02  0.1249077E+00
         21   -1    0    0  501  502  0.00000000000E+00  0.00000000000E+00  0.33308917217E+03  0.33308917217E+03  0.00000000000E+00 0. -1.
         21   -1    0    0  502  503 -0.00000000000E+00 -0.00000000000E+00 -0.78283842503E+02  0.78283842503E+02  0.00000000000E+00 0.  1.
         24    1    1    2    0    0  0.65707526502E+02  0.66523447774E+01  0.42577319013E+02  0.11243565617E+03  0.80419002446E+02 0.  1.
          1    1    1    2  501    0 -0.47074097770E+02 -0.57713192946E+02  0.22999484122E+03  0.24175278760E+03  0.00000000000E+00 0. -1.
         -2    1    1    2    0  503 -0.18633428732E+02  0.51060848168E+02 -0.17766830564E+02  0.57184570911E+02  0.00000000000E+00 0.  1.
<mgrwt>
<rscale>  2 0.11644675E+03</rscale>
<asrwt>0</asrwt>
<pdfrwt beam="1">  1       21 0.51244487E-01 0.11644675E+03</pdfrwt>
<pdfrwt beam="2">  1       21 0.12043668E-01 0.11644675E+03</pdfrwt>
<totfact> 0.21538484E+05</totfact>
</mgrwt>
</event>
<event>
 5    1  0.1994521E+000  0.1110261E+03  0.7546771E-02  0.1258681E+00
         21   -1    0    0  503  502  0.00000000000E+00  0.00000000000E+00  0.39199755487E+03  0.39199755487E+03  0.00000000000E+00 0. -1.
         21   -1    0    0  501  503 -0.00000000000E+00 -0.00000000000E+00 -0.32576527758E+02  0.32576527758E+02  0.00000000000E+00 0. -1.
         24    1    1    2    0    0  0.45163257426E+02 -0.84712040020E+02  0.17461096229E+03  0.21487683368E+03  0.80419002446E+02 0. -1.
          1    1    1    2  501    0 -0.31044258771E+02  0.69201798537E+02  0.12384046345E+03  0.14522085012E+03  0.00000000000E+00 0. -1.
         -2    1    1    2    0  502 -0.14118998655E+02  0.15510241484E+02  0.60969601381E+02  0.64476398833E+02  0.00000000000E+00 0.  1.
<mgrwt>
<rscale>  2 0.11102615E+03</rscale>
<asrwt>0</asrwt>
<pdfrwt beam="1">  1       21 0.60307313E-01 0.11102615E+03</pdfrwt>
<pdfrwt beam="2">  1       21 0.50117738E-02 0.11102615E+03</pdfrwt>
<totfact> 0.69124360E+05</totfact>
</mgrwt>
</event>
<event>
 5    1  0.1994521E+000  0.7164313E+02  0.7546771E-02  0.1354593E+00
         21   -1    0    0  503  502  0.00000000000E+00  0.00000000000E+00  0.21804462136E+02  0.21804462136E+02  0.00000000000E+00 0. -1.
         21   -1    0    0  501  503 -0.00000000000E+00 -0.00000000000E+00 -0.35552766417E+03  0.35552766417E+03  0.00000000000E+00 0. -1.
         24    1    1    2    0    0  0.22475751051E+02 -0.21640050530E+02 -0.29216692509E+03  0.30463450107E+03  0.80419002446E+02 0. -1.
          1    1    1    2  501    0  0.45078775640E+01  0.28766962240E+02 -0.31837406750E+02  0.43144866963E+02  0.00000000000E+00 0. -1.
         -2    1    1    2    0  502 -0.26983628615E+02 -0.71269117100E+01 -0.97188701975E+01  0.29552758275E+02  0.00000000000E+00 0.  1.
<mgrwt>
<rscale>  2 0.71643132E+02</rscale>
<asrwt>0</asrwt>
<pdfrwt beam="1">  1       21 0.33545330E-02 0.71643132E+02</pdfrwt>
<pdfrwt beam="2">  1       21 0.54696558E-01 0.71643132E+02</pdfrwt>
<totfact> 0.16294234E+06</totfact>
</mgrwt>
</event>
<event>
 5    1  0.1994521E+000  0.1073461E+03  0.7546771E-02  0.1265565E+00
         21   -1    0    0  503  502  0.00000000000E+00  0.00000000000E+00  0.75133835014E+02  0.75133835014E+02  0.00000000000E+00 0.  1.
         21   -1    0    0  501  503 -0.00000000000E+00 -0.00000000000E+00 -0.89575597673E+03  0.89575597673E+03  0.00000000000E+00 0. -1.
         24    1    1    2    0    0  0.44415856233E+02  0.39372622548E+02 -0.49071379599E+03  0.50078959376E+03  0.80419002446E+02 0. -1.
          1    1    1    2  501    0 -0.27638057465E+02  0.31502154221E+02 -0.37961522133E+03  0.38192141103E+03  0.00000000000E+00 0. -1.
         -2    1    1    2    0  502 -0.16777798768E+02 -0.70874776770E+02  0.49706875599E+02  0.88178806952E+02  0.00000000000E+00 0.  1.
<mgrwt>
<rscale>  2 0.10734605E+03</rscale>
<asrwt>0</asrwt>
<pdfrwt beam="1">  1       21 0.11559051E-01 0.10734605E+03</pdfrwt>
<pdfrwt beam="2">  1       21 0.13780862E+00 0.10734605E+03</pdfrwt>
<totfact> 0.24899246E+04</totfact>
</mgrwt>
</event>
<event>
 5    1  0.1994521E+000  0.7080921E+02  0.7546771E-02  0.1357363E+00
         21   -1    0    0  503  502  0.00000000000E+00  0.00000000000E+00  0.67351801582E+01  0.67351801582E+01  0.00000000000E+00 0. -1.
         21   -1    0    0  501  503 -0.00000000000E+00 -0.00000000000E+00 -0.86741017197E+03  0.86741017197E+03  0.00000000000E+00 0. -1.
         24    1    1    2    0    0  0.21621232493E+01  0.29289203482E+00 -0.52812717094E+03  0.53421932312E+03  0.80419002446E+02 0.  0.
          1    1    1    2  501    0 -0.26876504598E+02  0.16271101947E+02 -0.25394221397E+03  0.25587837598E+03  0.00000000000E+00 0. -1.
         -2    1    1    2    0  502  0.24714381349E+02 -0.16563993982E+02 -0.78605606906E+02  0.84047653026E+02  0.00000000000E+00 0.  1.
<mgrwt>
<rscale>  2 0.70809208E+02</rscale>
<asrwt>0</asrwt>
<pdfrwt beam="1">  1       21 0.10361810E-02 0.70809208E+02</pdfrwt>
<pdfrwt beam="2">  1       21 0.13344779E+00 0.70809208E+02</pdfrwt>
<totfact> 0.14379565E+06</totfact>
</mgrwt>
</event>
<event>
 5    1  0.1994521E+000  0.1362109E+03  0.7546771E-02  0.1218520E+00
         21   -1    0    0  501  502  0.00000000000E+00  0.00000000000E+00  0.41805217169E+03  0.41805217169E+03  0.00000000000E+00 0.  1.
         21   -1    0    0  502  503 -0.00000000000E+00 -0.00000000000E+00 -0.48415723367E+02  0.48415723367E+02  0.00000000000E+00 0. -1.
         24    1    1    2    0    0  0.18574438206E+02  0.92575537389E+02  0.19535101430E+03  0.23139679043E+03  0.80419002446E+02 0.  1.
          1    1    1    2  501    0  0.21821850689E+02 -0.10412012208E+03  0.15698463119E+03  0.18963482649E+03  0.00000000000E+00 0. -1.
         -2    1    1    2    0  503 -0.40396288896E+02  0.11544584690E+02  0.17300802831E+02  0.45436278136E+02  0.00000000000E+00 0.  1.
<mgrwt>
<rscale>  2 0.13621093E+03</rscale>
<asrwt>0</asrwt>
<pdfrwt beam="1">  1       21 0.64315716E-01 0.13621093E+03</pdfrwt>
<pdfrwt beam="2">  1       21 0.74485731E-02 0.13621093E+03</pdfrwt>
<totfact> 0.30686281E+05</totfact>
</mgrwt>
</event>
<event>
 5    1  0.1994521E+000  0.9475252E+02  0.7546771E-02  0.1291734E+00
         21   -1    0    0  503  502  0.00000000000E+00  0.00000000000E+00  0.19296634324E+03  0.19296634324E+03  0.00000000000E+00 0.  1.
         21   -1    0    0  501  503 -0.00000000000E+00 -0.00000000000E+00 -0.50845914856E+02  0.50845914856E+02  0.00000000000E+00 0.  1.
         24    1    1    2    0    0  0.60039456071E+02  0.43314206295E+02  0.67569759297E+02  0.12850581729E+03  0.80419002446E+02 0.  0.
          1    1    1    2  501    0 -0.49613441660E+02 -0.17926701855E+02  0.24367693039E+02  0.58108903766E+02  0.00000000000E+00 0. -1.
         -2    1    1    2    0  502 -0.10426014410E+02 -0.25387504440E+02  0.50182976047E+02  0.57197537038E+02  0.00000000000E+00 0.  1.
<mgrwt>
<rscale>  2 0.94752523E+02</rscale>
<asrwt>0</asrwt>
<pdfrwt beam="1">  1       21 0.29687129E-01 0.94752523E+02</pdfrwt>
<pdfrwt beam="2">  1       21 0.78224485E-02 0.94752523E+02</pdfrwt>
<totfact> 0.13462738E+06</totfact>
</mgrwt>
</event>
<event>
 5    1  0.1994521E+000  0.7309885E+02  0.7546771E-02  0.1349861E+00
         21   -1    0    0  501  502  0.00000000000E+00  0.00000000000E+00  0.49790461054E+02  0.49790461054E+02  0.00000000000E+00 0.  1.
         21   -1    0    0  502  503 -0.00000000000E+00 -0.00000000000E+00 -0.12908843263E+03  0.12908843263E+03  0.00000000000E+00 0. -1.
         24    1    1    2    0    0 -0.74568365218E+01  0.11659847312E+01 -0.84925099358E+01  0.81217625000E+02  0.80419002446E+02 0.  1.
          1    1    1    2  501    0 -0.18208949632E+00 -0.32841339842E+02 -0.24198854644E+02  0.40794256034E+02  0.00000000000E+00 0. -1.
         -2    1    1    2    0  503  0.76389260181E+01  0.31675355111E+02 -0.46606606993E+02  0.56867012649E+02  0.00000000000E+00 0.  1.
<mgrwt>
<rscale>  2 0.73098846E+02</rscale>
<asrwt>0</asrwt>
<pdfrwt beam="1">  1       21 0.76600710E-02 0.73098846E+02</pdfrwt>
<pdfrwt beam="2">  1       21 0.19859759E-01 0.73098846E+02</pdfrwt>
<totfact> 0.29178338E+06</totfact>
</mgrwt>
</event>
<event>
 5    1  0.1994521E+000  0.8677911E+02  0.7546771E-02  0.1310844E+00
         21   -1    0    0  503  502  0.00000000000E+00  0.00000000000E+00  0.14768419196E+03  0.14768419196E+03  0.00000000000E+00 0.  1.
         21   -1    0    0  501  503 -0.00000000000E+00 -0.00000000000E+00 -0.21648433776E+03  0.21648433776E+03  0.00000000000E+00 0. -1.
         24    1    1    2    0    0  0.27393601844E+02  0.12945161514E+02 -0.55901290437E+02  0.10251905606E+03  0.80419002446E+02 0.  0.
          1    1    1    2  501    0 -0.14037017942E+02  0.35074146451E+02 -0.12947029619E+03  0.13486953406E+03  0.00000000000E+00 0. -1.
         -2    1    1    2    0  502 -0.13356583902E+02 -0.48019307965E+02  0.11657144082E+03  0.12677993960E+03  0.00000000000E+00 0.  1.
<mgrwt>
<rscale>  2 0.86779110E+02</rscale>
<asrwt>0</asrwt>
<pdfrwt beam="1">  1       21 0.22720645E-01 0.86779110E+02</pdfrwt>
<pdfrwt beam="2">  1       21 0.33305283E-01 0.86779110E+02</pdfrwt>
<totfact> 0.16313185E+05</totfact>
</mgrwt>
</event>
<event>
 5    1  0.1994521E+000  0.6574205E+02  0.7546771E-02  0.1375202E+00
         21   -1    0    0  501  502  0.00000000000E+00  0.00000000000E+00  0.26855202085E+03  0.26855202085E+03  0.00000000000E+00 0. -1.
         21   -1    0    0  502  503 -0.00000000000E+00 -0.00000000000E+00 -0.18073022064E+02  0.18073022064E+02  0.00000000000E+00 0. -1.
         24    1    1    2    0    0  0.20244002721E+02 -0.15329192501E+02  0.11265671509E+03  0.14072510507E+03  0.80419002446E+02 0. -1.
          1    1    1    2  501    0 -0.22975476070E+02 -0.74928409913E+01  0.83200119734E+02  0.86638762056E+02  0.00000000000E+00 0. -1.
         -2    1    1    2    0  503  0.27314733495E+01  0.22822033492E+02  0.54622163961E+02  0.59261175783E+02  0.00000000000E+00 0.  1.
<mgrwt>
<rscale>  2 0.65742054E+02</rscale>
<asrwt>0</asrwt>
<pdfrwt beam="1">  1       21 0.41315693E-01 0.65742054E+02</pdfrwt>
<pdfrwt beam="2">  1       21 0.27804651E-02 0.65742054E+02</pdfrwt>
<totfact> 0.38607334E+06</totfact>
</mgrwt>
</event>
<event>
 5    1  0.1994521E+000  0.1421223E+03  0.7546771E-02  0.1210501E+00
         21   -1    0    0  501  502  0.00000000000E+00  0.00000000000E+00  0.12158530728E+03  0.12158530728E+03  0.00000000000E+00 0. -1.
         21   -1    0    0  502  503 -0.00000000000E+00 -0.00000000000E+00 -0.42770179884E+03  0.42770179884E+03  0.00000000000E+00 0.  1.
         24    1    1    2    0    0 -0.65372622191E+02  0.30900825035E+02  0.39139946947E+02  0.11501126954E+03  0.80419002446E+02 0. -1.
          1    1    1    2  501    0  0.60273585960E+02 -0.94613769886E+02 -0.35015488569E+02  0.11751916889E+03  0.00000000000E+00 0. -1.
         -2    1    1    2    0  503  0.50990362314E+01  0.63712944851E+02 -0.31024094994E+03  0.31675666770E+03  0.00000000000E+00 0.  1.
<mgrwt>
<rscale>  2 0.14212227E+03</rscale>
<asrwt>0</asrwt>
<pdfrwt beam="1">  1       21 0.18705432E-01 0.14212227E+03</pdfrwt>
<pdfrwt beam="2">  1       21 0.65800277E-01 0.14212227E+03</pdfrwt>
<totfact> 0.56842361E+04</totfact>
</mgrwt>
</event>
<event>
 5    1  0.1994521E+000  0.8240043E+02  0.7546771E-02  0.1322374E+00
         21   -1    0    0  503  502  0.00000000000E+00  0.00000000000E+00  0.18660694220E+03  0.18660694220E+03  0.00000000000E+00 0. -1.
         21   -1    0    0  501  503 -0.00000000000E+00 -0.00000000000E+00 -0.52279820117E+02  0.52279820117E+02  0.00000000000E+00 0.  1.
         24    1    1    2    0    0  0.56108449138E+01  0.70534633913E+01  0.11826026358E+02  0.81782050477E+02  0.80419002446E+02 0.  1.
          1    1    1    2  501    0  0.30018328161E+02 -0.29240339560E+02  0.20184306361E+02  0.46513478761E+02  0.00000000000E+00 0. -1.
         -2    1    1    2    0  502 -0.35629173074E+02  0.22186876169E+02  0.10231678936E+03  0.11059123308E+03  0.00000000000E+00 0.  1.
<mgrwt>
<rscale>  2 0.82400430E+02</rscale>
<asrwt>0</asrwt>
<pdfrwt beam="1">  1       21 0.28708760E-01 0.82400430E+02</pdfrwt>
<pdfrwt beam="2">  1       21 0.80430493E-02 0.82400430E+02</pdfrwt>
<totfact> 0.13630154E+06</totfact>
</mgrwt>
</event>
<event>
 5    1  0.1994521E+000  0.6776694E+02  0.7546771E-02  0.1367856E+00
         21   -1    0    0  503  502  0.00000000000E+00  0.00000000000E+00  0.20563235369E+03  0.20563235369E+03  0.00000000000E+00 0.  1.
         21   -1    0    0  501  503 -0.00000000000E+00 -0.00000000000E+00 -0.36303326701E+02  0.36303326701E+02  0.00000000000E+00 0. -1.
         24    1    1    2    0    0  0.85626123059E+01 -0.10251125999E+02  0.16478966222E+03  0.18385116981E+03  0.80419002446E+02 0.  1.
          1    1    1    2  501    0 -0.28878021855E+02  0.15848128535E+02 -0.75437909448E+01  0.33793669616E+02  0.00000000000E+00 0. -1.
         -2    1    1    2    0  502  0.20315409549E+02 -0.55970025356E+01  0.12083155717E+02  0.24290840961E+02  0.00000000000E+00 0.  1.
<mgrwt>
<rscale>  2 0.67766945E+02</rscale>
<asrwt>0</asrwt>
<pdfrwt beam="1">  1       21 0.31635746E-01 0.67766945E+02</pdfrwt>
<pdfrwt beam="2">  1       21 0.55851273E-02 0.67766945E+02</pdfrwt>
<totfact> 0.20765452E+06</totfact>
</mgrwt>
</event>
<event>
 5    1  0.1994521E+000  0.1278891E+03  0.7546771E-02  0.1230622E+00
         21   -1    0    0  501  502  0.00000000000E+00  0.00000000000E+00  0.24573304692E+02  0.24573304692E+02  0.00000000000E+00 0. -1.
         21   -1    0    0  502  503 -0.00000000000E+00 -0.00000000000E+00 -0.13681147061E+04  0.13681147061E+04  0.00000000000E+00 0.  1.
         24    1    1    2    0    0 -0.48533244428E+02 -0.23378498902E+02 -0.25939202347E+03  0.27686362675E+03  0.80419002446E+02 0.  1.
          1    1    1    2  501    0 -0.42974303586E+02  0.47795325365E+02 -0.62023963810E+02  0.89320523857E+02  0.00000000000E+00 0. -1.
         -2    1    1    2    0  503  0.91507548013E+02 -0.24416826463E+02 -0.10221254142E+04  0.10265038602E+04  0.00000000000E+00 0.  1.
<mgrwt>
<rscale>  2 0.12788912E+03</rscale>
<asrwt>0</asrwt>
<pdfrwt beam="1">  1       21 0.37805084E-02 0.12788912E+03</pdfrwt>
<pdfrwt beam="2">  1       21 0.21047919E+00 0.12788912E+03</pdfrwt>
<totfact> 0.52082227E+04</totfact>
</mgrwt>
</event>
<event>
 5    1  0.1994521E+000  0.8416588E+02  0.7546771E-02  0.1317628E+00
         21   -1    0    0  501  502  0.00000000000E+00  0.00000000000E+00  0.60350298145E+01  0.60350298145E+01  0.00000000000E+00 0. -1.
         21   -1    0    0  502  503 -0.00000000000E+00 -0.00000000000E+00 -0.19223485066E+04  0.19223485066E+04  0.00000000000E+00 0. -1.
         24    1    1    2    0    0 -0.32024233739E+02 -0.18564021101E+02 -0.64015944230E+03  0.64625188738E+03  0.80419002446E+02 0. -1.
          1    1    1    2  501    0  0.31885813744E+02  0.44015232288E+02 -0.25815139580E+03  0.26381089619E+03  0.00000000000E+00 0. -1.
         -2    1    1    2    0  503  0.13841999559E+00 -0.25451211187E+02 -0.10180026387E+04  0.10183207528E+04  0.00000000000E+00 0.  1.
<mgrwt>
<rscale>  2 0.84165879E+02</rscale>
<asrwt>0</asrwt>
<pdfrwt beam="1">  1       21 0.92846527E-03 0.84165879E+02</pdfrwt>
<pdfrwt beam="2">  1       21 0.29574620E+00 0.84165879E+02</pdfrwt>
<totfact> 0.17006590E+05</totfact>
</mgrwt>
</event>
<event>
 5    1  0.1994521E+000  0.7135596E+02  0.7546771E-02  0.1355542E+00
         21   -1    0    0  503  502  0.00000000000E+00  0.00000000000E+00  0.93898168541E+02  0.93898168541E+02  0.00000000000E+00 0.  1.
         21   -1    0    0  501  503 -0.00000000000E+00 -0.00000000000E+00 -0.21919346302E+03  0.21919346302E+03  0.00000000000E+00 0. -1.
         24    1    1    2    0    0 -0.11723673103E+02 -0.14444223959E+02 -0.40417904766E+01  0.82641588449E+02  0.80419002446E+02 0. -1.
          1    1    1    2  501    0 -0.23156181933E+02  0.24531997717E+01 -0.16873050418E+03  0.17032970966E+03  0.00000000000E+00 0. -1.
         -2    1    1    2    0  502  0.34879855036E+02  0.11991024187E+02  0.47477000180E+02  0.60120333453E+02  0.00000000000E+00 0.  1.
<mgrwt>
<rscale>  2 0.71355955E+02</rscale>
<asrwt>0</asrwt>
<pdfrwt beam="1">  1       21 0.14445872E-01 0.71355955E+02</pdfrwt>
<pdfrwt beam="2">  1       21 0.33722071E-01 0.71355955E+02</pdfrwt>
<totfact> 0.36238272E+05</totfact>
</mgrwt>
</event>
<event>
 5    1  0.1994521E+000  0.9477864E+02  0.7546771E-02  0.1291675E+00
         21   -1    0    0  501  502  0.00000000000E+00  0.00000000000E+00  0.45633090064E+02  0.45633090064E+02  0.00000000000E+00 0. -1.
         21   -1    0    0  502  503 -0.00000000000E+00 -0.00000000000E+00 -0.20227088007E+03  0.20227088007E+03  0.00000000000E+00 0. -1.
         24    1    1    2    0    0  0.35351641287E+02 -0.23786426094E+02 -0.92762529507E+02  0.12995243531E+03  0.80419002446E+02 0. -1.
          1    1    1    2  501    0 -0.60529693913E+02 -0.44780677879E+01 -0.32886474627E+02  0.69032000911E+02  0.00000000000E+00 0. -1.
         -2    1    1    2    0  503  0.25178052626E+02  0.28264493882E+02 -0.30988785869E+02  0.48919533911E+02  0.00000000000E+00 0.  1.
<mgrwt>
<rscale>  2 0.94778638E+02</rscale>
<asrwt>0</asrwt>
<pdfrwt beam="1">  1       21 0.70204754E-02 0.94778638E+02</pdfrwt>
<pdfrwt beam="2">  1       21 0.31118597E-01 0.94778638E+02</pdfrwt>
<totfact> 0.14789293E+06</totfact>
</mgrwt>
</event>
<event>
 5    1  0.1994521E+000  0.9904353E+02  0.7546771E-02  0.1282320E+00
         21   -1    0    0  503  502  0.00000000000E+00  0.00000000000E+00  0.46914927986E+02  0.46914927986E+02  0.00000000000E+00 0.  1.
         21   -1    0    0  501  503 -0.00000000000E+00 -0.00000000000E+00 -0.11024825543E+04  0.11024825543E+04  0.00000000000E+00 0.  1.
         24    1    1    2    0    0 -0.12160044610E+02  0.77643998092E+02 -0.92729434193E+03  0.93408697114E+03  0.80419002446E+02 0.  1.
          1    1    1    2  501    0 -0.57042006596E+01 -0.60873887592E+02 -0.16226879898E+03  0.17340510724E+03  0.00000000000E+00 0. -1.
         -2    1    1    2    0  502  0.17864245269E+02 -0.16770110500E+02  0.33995514584E+02  0.41905403913E+02  0.00000000000E+00 0.  1.
<mgrwt>
<rscale>  2 0.99043527E+02</rscale>
<asrwt>0</asrwt>
<pdfrwt beam="1">  1       21 0.72176817E-02 0.99043527E+02</pdfrwt>
<pdfrwt beam="2">  1       21 0.16961269E+00 0.99043527E+02</pdfrwt>
<totfact> 0.33133708E+04</totfact>
</mgrwt>
</event>
<event>
 5    1  0.1994521E+000  0.7013413E+02  0.7546771E-02  0.1359638E+00
         21   -1    0    0  503  502  0.00000000000E+00  0.00000000000E+00  0.16304929146E+03  0.16304929146E+03  0.00000000000E+00 0.  1.
         21   -1    0    0  501  503 -0.00000000000E+00 -0.00000000000E+00 -0.43842311128E+02  0.43842311128E+02  0.00000000000E+00 0. -1.
         24    1    1    2    0    0  0.15349140888E+01  0.84729641393E+01  0.81177722402E+02  0.11459138559E+03  0.80419002446E+02 0.  1.
          1    1    1    2  501    0 -0.21930017048E+02  0.16283184254E+02 -0.14369647737E+02  0.30863481871E+02  0.00000000000E+00 0. -1.
         -2    1    1    2    0  502  0.20395102959E+02 -0.24756148393E+02  0.52398905671E+02  0.61436735131E+02  0.00000000000E+00 0.  1.
<mgrwt>
<rscale>  2 0.70134134E+02</rscale>
<asrwt>0</asrwt>
<pdfrwt beam="1">  1       21 0.25084506E-01 0.70134134E+02</pdfrwt>
<pdfrwt beam="2">  1       21 0.67449710E-02 0.70134134E+02</pdfrwt>
<totfact> 0.23486568E+06</totfact>
</mgrwt>
</event>
<event>
 5    1  0.1994521E+000  0.1504041E+03  0.7546771E-02  0.1199977E+00
         21   -1    0    0  501  502  0.00000000000E+00  0.00000000000E+00  0.13789897560E+03  0.13789897560E+03  0.00000000000E+00 0. -1.
         21   -1    0    0  502  503 -0.00000000000E+00 -0.00000000000E+00 -0.41028754392E+03  0.41028754392E+03  0.00000000000E+00 0.  1.
         24    1    1    2    0    0  0.16997485117E+02 -0.23366863563E+01 -0.15234524193E+03  0.17312037227E+03  0.80419002446E+02 0.  1.
          1    1    1    2  501    0 -0.94027307773E+01 -0.10778584274E+03  0.88058455113E+02  0.13950086293E+03  0.00000000000E+00 0. -1.
         -2    1    1    2    0  503 -0.75947543396E+01  0.11012252910E+03 -0.20810178151E+03  0.23556528432E+03  0.00000000000E+00 0.  1.
<mgrwt>
<rscale>  2 0.15040410E+03</rscale>
<asrwt>0</asrwt>
<pdfrwt beam="1">  1       21 0.21215227E-01 0.15040410E+03</pdfrwt>
<pdfrwt beam="2">  1       21 0.63121161E-01 0.15040410E+03</pdfrwt>
<totfact> 0.49028046E+04</totfact>
</mgrwt>
</event>
<event>
 5    1  0.1994521E+000  0.1242048E+03  0.7546771E-02  0.1236317E+00
         21   -1    0    0  503  502  0.00000000000E+00  0.00000000000E+00  0.77152609372E+01  0.77152609372E+01  0.00000000000E+00 0.  1.
         21   -1    0    0  501  503 -0.00000000000E+00 -0.00000000000E+00 -0.30719988053E+04  0.30719988053E+04  0.00000000000E+00 0.  1.
         24    1    1    2    0    0 -0.66450664847E+01  0.10505208261E+03 -0.15117461470E+04  0.15175387066E+04  0.80419002446E+02 0.  1.
          1    1    1    2  501    0 -0.18319745137E+02 -0.19211003549E+02 -0.11287174160E+04  0.11290295306E+04  0.00000000000E+00 0. -1.
         -2    1    1    2    0  502  0.24964811622E+02 -0.85841079062E+02 -0.42381998135E+03  0.43314582910E+03  0.00000000000E+00 0.  1.
<mgrwt>
<rscale>  2 0.12420480E+03</rscale>
<asrwt>0</asrwt>
<pdfrwt beam="1">  1       21 0.11869619E-02 0.12420480E+03</pdfrwt>
<pdfrwt beam="2">  1       21 0.47261572E+00 0.12420480E+03</pdfrwt>
<totfact> 0.93845149E+03</totfact>
</mgrwt>
</event>
<event>
 5    1  0.1994521E+000  0.7390137E+02  0.7546771E-02  0.1347307E+00
         21   -1    0    0  501  502  0.00000000000E+00  0.00000000000E+00  0.62598743775E+02  0.62598743775E+02  0.00000000000E+00 0. -1.
         21   -1    0    0  502  503 -0.00000000000E+00 -0.00000000000E+00 -0.11622480002E+03  0.11622480002E+03  0.00000000000E+00 0. -1.
         24    1    1    2    0    0  0.22078982859E+02 -0.65646639248E+01 -0.27132555854E+02  0.87942980607E+02  0.80419002446E+02 0. -1.
          1    1    1    2  501    0 -0.10495701237E+02  0.33352511953E+02  0.16702444295E+02  0.38749470235E+02  0.00000000000E+00 0. -1.
         -2    1    1    2    0  503 -0.11583281622E+02 -0.26787848028E+02 -0.43195944687E+02  0.52131092953E+02  0.00000000000E+00 0.  1.
<mgrwt>
<rscale>  2 0.73901368E+02</rscale>
<asrwt>0</asrwt>
<pdfrwt beam="1">  1       21 0.96305760E-02 0.73901368E+02</pdfrwt>
<pdfrwt beam="2">  1       21 0.17880738E-01 0.73901368E+02</pdfrwt>
<totfact> 0.23891716E+06</totfact>
</mgrwt>
</event>
<event>
 5    1  0.1994521E+000  0.1518847E+03  0.7546771E-02  0.1198176E+00
         21   -1    0    0  503  502  0.00000000000E+00  0.00000000000E+00  0.22472348933E+04  0.22472348933E+04  0.00000000000E+00 0. -1.
         21   -1    0    0  501  503 -0.00000000000E+00 -0.00000000000E+00 -0.10968983240E+03  0.10968983240E+03  0.00000000000E+00 0. -1.
         24    1    1    2    0    0  0.10829177374E+03  0.36237872832E+01  0.56822230357E+03  0.58402400834E+03  0.80419002446E+02 0. -1.
          1    1    1    2  501    0 -0.13069145477E+02  0.55321136999E+02 -0.91817710415E+02  0.10798945647E+03  0.00000000000E+00 0. -1.
         -2    1    1    2    0  502 -0.95222628266E+02 -0.58944924282E+02  0.16611404678E+04  0.16649112609E+04  0.00000000000E+00 0.  1.
<mgrwt>
<rscale>  2 0.15188467E+03</rscale>
<asrwt>0</asrwt>
<pdfrwt beam="1">  1       21 0.34572841E+00 0.15188467E+03</pdfrwt>
<pdfrwt beam="2">  1       21 0.16875361E-01 0.15188467E+03</pdfrwt>
<totfact> 0.62782981E+02</totfact>
</mgrwt>
</event>
<event>
 5    1  0.1994521E+000  0.1542512E+03  0.7546771E-02  0.1195344E+00
         21   -1    0    0  501  502  0.00000000000E+00  0.00000000000E+00  0.71194745506E+03  0.71194745506E+03  0.00000000000E+00 0. -1.
         21   -1    0    0  502  503 -0.00000000000E+00 -0.00000000000E+00 -0.85652888506E+02  0.85652888506E+02  0.00000000000E+00 0.  1.
         24    1    1    2    0    0  0.39004589082E+02  0.73165590369E+02  0.16599440203E+03  0.20222739439E+03  0.80419002446E+02 0. -1.
          1    1    1    2  501    0 -0.89574438638E+02 -0.10122180635E+03  0.50468569067E+03  0.52247208587E+03  0.00000000000E+00 0. -1.
         -2    1    1    2    0  503  0.50569849556E+02  0.28056215976E+02 -0.44385526151E+02  0.72900863306E+02  0.00000000000E+00 0.  1.
<mgrwt>
<rscale>  2 0.15425120E+03</rscale>
<asrwt>0</asrwt>
<pdfrwt beam="1">  1       21 0.10953037E+00 0.15425120E+03</pdfrwt>
<pdfrwt beam="2">  1       21 0.13177368E-01 0.15425120E+03</pdfrwt>
<totfact> 0.33479857E+04</totfact>
</mgrwt>
</event>
<event>
 5    1  0.1994521E+000  0.8248813E+02  0.7546771E-02  0.1322135E+00
         21   -1    0    0  503  502  0.00000000000E+00  0.00000000000E+00  0.83163917143E+02  0.83163917143E+02  0.00000000000E+00 0.  1.
         21   -1    0    0  501  503 -0.00000000000E+00 -0.00000000000E+00 -0.94748610349E+02  0.94748610349E+02  0.00000000000E+00 0.  1.
         24    1    1    2    0    0  0.10547887902E+02  0.35689086542E+02 -0.22016533997E+02  0.91306695050E+02  0.80419002446E+02 0.  1.
          1    1    1    2  501    0 -0.22701372415E+02  0.13014022176E+02 -0.15181404982E+02  0.30252142733E+02  0.00000000000E+00 0. -1.
         -2    1    1    2    0  502  0.12153484513E+02 -0.48703108718E+02  0.25613245773E+02  0.56353689708E+02  0.00000000000E+00 0.  1.
<mgrwt>
<rscale>  2 0.82488133E+02</rscale>
<asrwt>0</asrwt>
<pdfrwt beam="1">  1       21 0.12794449E-01 0.82488133E+02</pdfrwt>
<pdfrwt beam="2">  1       21 0.14576709E-01 0.82488133E+02</pdfrwt>
<totfact> 0.21124424E+06</totfact>
</mgrwt>
</event>
<event>
 5    1  0.1994521E+000  0.6956327E+02  0.7546771E-02  0.1361584E+00
         21   -1    0    0  501  502  0.00000000000E+00  0.00000000000E+00  0.26148576390E+02  0.26148576390E+02  0.00000000000E+00 0.  1.
         21   -1    0    0  502  503 -0.00000000000E+00 -0.00000000000E+00 -0.19219439318E+03  0.19219439318E+03  0.00000000000E+00 0. -1.
         24    1    1    2    0    0 -0.51998809073E-02  0.23897287913E+02 -0.10439843874E+03  0.13393031906E+03  0.80419002446E+02 0.  0.
          1    1    1    2  501    0  0.24888853156E+02 -0.12770439707E+02 -0.19063771304E+02  0.33852127231E+02  0.00000000000E+00 0. -1.
         -2    1    1    2    0  503 -0.24883653275E+02 -0.11126848207E+02 -0.42583606747E+02  0.50560523285E+02  0.00000000000E+00 0.  1.
<mgrwt>
<rscale>  2 0.69563268E+02</rscale>
<asrwt>0</asrwt>
<pdfrwt beam="1">  1       21 0.40228578E-02 0.69563268E+02</pdfrwt>
<pdfrwt beam="2">  1       21 0.29568369E-01 0.69563268E+02</pdfrwt>
<totfact> 0.40597209E+06</totfact>
</mgrwt>
</event>
<event>
 5    1  0.1994521E+000  0.1043608E+03  0.7546771E-02  0.1271384E+00
         21   -1    0    0  501  502  0.00000000000E+00  0.00000000000E+00  0.20987205771E+04  0.20987205771E+04  0.00000000000E+00 0.  1.
         21   -1    0    0  502  503 -0.00000000000E+00 -0.00000000000E+00 -0.68277943607E+01  0.68277943607E+01  0.00000000000E+00 0. -1.
         24    1    1    2    0    0  0.46842510454E+02 -0.40435046912E+02  0.68223309707E+03  0.68973794190E+03  0.80419002446E+02 0. -1.
          1    1    1    2  501    0  0.75220791154E+01 -0.22711967580E+02  0.81393610929E+03  0.81428766732E+03  0.00000000000E+00 0. -1.
         -2    1    1    2    0  503 -0.54364589570E+02  0.63147014492E+02  0.59572357641E+03  0.60152276227E+03  0.00000000000E+00 0.  1.
<mgrwt>
<rscale>  2 0.10436076E+03</rscale>
<asrwt>0</asrwt>
<pdfrwt beam="1">  1       21 0.32287957E+00 0.10436076E+03</pdfrwt>
<pdfrwt beam="2">  1       21 0.10504316E-02 0.10436076E+03</pdfrwt>
<totfact> 0.96389893E+04</totfact>
</mgrwt>
</event>
<event>
 5    1  0.1994521E+000  0.6568573E+02  0.7546771E-02  0.1375410E+00
         21   -1    0    0  503  502  0.00000000000E+00  0.00000000000E+00  0.10082129591E+03  0.10082129591E+03  0.00000000000E+00 0. -1.
         21   -1    0    0  501  503 -0.00000000000E+00 -0.00000000000E+00 -0.49376911562E+02  0.49376911562E+02  0.00000000000E+00 0.  1.
         24    1    1    2    0    0  0.23714477407E+02 -0.10550981692E+01  0.54109958592E+02  0.99792751460E+02  0.80419002446E+02 0.  0.
          1    1    1    2  501    0 -0.75958419458E+01 -0.19775140131E+02 -0.94672092285E+01  0.23203039297E+02  0.00000000000E+00 0. -1.
         -2    1    1    2    0  502 -0.16118635461E+02  0.20830238300E+02  0.68016349885E+01  0.27202416718E+02  0.00000000000E+00 0.  1.
<mgrwt>
<rscale>  2 0.65685727E+02</rscale>
<asrwt>0</asrwt>
<pdfrwt beam="1">  1       21 0.15510969E-01 0.65685727E+02</pdfrwt>
<pdfrwt beam="2">  1       21 0.75964479E-02 0.65685727E+02</pdfrwt>
<totfact> 0.45778982E+06</totfact>
</mgrwt>
</event>
<event>
 5    1  0.1994521E+000  0.7629938E+02  0.7546771E-02  0.1339894E+00
         21   -1    0    0  503  502  0.00000000000E+00  0.00000000000E+00  0.40323350297E+02  0.40323350297E+02  0.00000000000E+00 0.  1.
         21   -1    0    0  501  503 -0.00000000000E+00 -0.00000000000E+00 -0.28559955262E+03  0.28559955262E+03  0.00000000000E+00 0. -1.
         24    1    1    2    0    0 -0.42389641499E+01  0.12423498128E+02 -0.65249356751E+02  0.10438872848E+03  0.80419002446E+02 0.  1.
          1    1    1    2  501    0 -0.32871731431E+02 -0.46443934740E+01 -0.18058664048E+03  0.18361278778E+03  0.00000000000E+00 0. -1.
         -2    1    1    2    0  502  0.37110695581E+02 -0.77791046536E+01  0.55979490368E+00  0.37921386657E+02  0.00000000000E+00 0.  1.
<mgrwt>
<rscale>  2 0.76299382E+02</rscale>
<asrwt>0</asrwt>
<pdfrwt beam="1">  1       21 0.62035923E-02 0.76299382E+02</pdfrwt>
<pdfrwt beam="2">  1       21 0.43938393E-01 0.76299382E+02</pdfrwt>
<totfact> 0.92316793E+05</totfact>
</mgrwt>
</event>
<event>
 5    1  0.1994521E+000  0.8891333E+02  0.7546771E-02  0.1305505E+00
         21   -1    0    0  501  502  0.00000000000E+00  0.00000000000E+00  0.20674271959E+03  0.20674271959E+03  0.00000000000E+00 0. -1.
         21   -1    0    0  502  503 -0.00000000000E+00 -0.00000000000E+00 -0.13200387468E+03  0.13200387468E+03  0.00000000000E+00 0. -1.
         24    1    1    2    0    0 -0.12876700543E+02 -0.67912754935E+02 -0.33703379177E+02  0.11127032588E+03  0.80419002446E+02 0. -1.
          1    1    1    2  501    0  0.17755168049E+02  0.45405067525E+02  0.16199986678E+03  0.16917689850E+03  0.00000000000E+00 0. -1.
         -2    1    1    2    0  503 -0.48784675055E+01  0.22507687409E+02 -0.53557642700E+02  0.58299369887E+02  0.00000000000E+00 0.  1.
<mgrwt>
<rscale>  2 0.88913332E+02</rscale>
<asrwt>0</asrwt>
<pdfrwt beam="1">  1       21 0.31806572E-01 0.88913332E+02</pdfrwt>
<pdfrwt beam="2">  1       21 0.20308288E-01 0.88913332E+02</pdfrwt>
<totfact> 0.21905578E+05</totfact>
</mgrwt>
</event>
<event>
 5    1  0.1994521E+000  0.6921075E+02  0.7546771E-02  0.1362798E+00
         21   -1    0    0  501  502  0.00000000000E+00  0.00000000000E+00  0.60350988163E+03  0.60350988163E+03  0.00000000000E+00 0.  1.
         21   -1    0    0  502  503 -0.00000000000E+00 -0.00000000000E+00 -0.42749303146E+02  0.42749303146E+02  0.00000000000E+00 0.  1.
         24    1    1    2    0    0 -0.23040708051E+02 -0.39605192854E+02  0.37436818157E+03  0.38563998348E+03  0.80419002446E+02 0.  1.
          1    1    1    2  501    0  0.12343249451E+02  0.19185603808E+02  0.21927649474E+03  0.22046002890E+03  0.00000000000E+00 0. -1.
         -2    1    1    2    0  503  0.10697458600E+02  0.20419589046E+02 -0.32884097828E+02  0.40159172392E+02  0.00000000000E+00 0.  1.
<mgrwt>
<rscale>  2 0.69210748E+02</rscale>
<asrwt>0</asrwt>
<pdfrwt beam="1">  1       21 0.92847668E-01 0.69210748E+02</pdfrwt>
<pdfrwt beam="2">  1       21 0.65768163E-02 0.69210748E+02</pdfrwt>
<totfact> 0.17223895E+05</totfact>
</mgrwt>
</event>
<event>
 5    1  0.1994521E+000  0.1115535E+03  0.7546771E-02  0.1257720E+00
         21   -1    0    0  503  502  0.00000000000E+00  0.00000000000E+00  0.18950850235E+03  0.18950850235E+03  0.00000000000E+00 0. -1.
         21   -1    0    0  501  503 -0.00000000000E+00 -0.00000000000E+00 -0.89467517131E+02  0.89467517131E+02  0.00000000000E+00 0. -1.
         24    1    1    2    0    0  0.90553231093E+02  0.32969688475E+02  0.57715936980E+02  0.13814931544E+03  0.80419002446E+02 0. -1.
          1    1    1    2  501    0 -0.64352067461E+02 -0.30678124707E+02 -0.19271998473E+02  0.73849481022E+02  0.00000000000E+00 0. -1.
         -2    1    1    2    0  502 -0.26201163632E+02 -0.22915637676E+01  0.61597046714E+02  0.66977223024E+02  0.00000000000E+00 0.  1.
<mgrwt>
<rscale>  2 0.11155352E+03</rscale>
<asrwt>0</asrwt>
<pdfrwt beam="1">  1       21 0.29155154E-01 0.11155352E+03</pdfrwt>
<pdfrwt beam="2">  1       21 0.13764233E-01 0.11155352E+03</pdfrwt>
<totfact> 0.52105236E+05</totfact>
</mgrwt>
</event>
<event>
 5    1  0.1994521E+000  0.7240859E+02  0.7546771E-02  0.1352089E+00
         21   -1    0    0  501  502  0.00000000000E+00  0.00000000000E+00  0.58766625095E+03  0.58766625095E+03  0.00000000000E+00 0. -1.
         21   -1    0    0  502  503 -0.00000000000E+00 -0.00000000000E+00 -0.64777471927E+02  0.64777471927E+02  0.00000000000E+00 0.  1.
         24    1    1    2    0    0 -0.19959298473E+02 -0.41722679331E+02  0.11066181330E+03  0.14440363030E+03  0.80419002446E+02 0.  0.
          1    1    1    2  501    0  0.20640242025E+02  0.15492666277E+02  0.45614840766E+03  0.45687789628E+03  0.00000000000E+00 0. -1.
         -2    1    1    2    0  503 -0.68094355210E+00  0.26230013055E+02 -0.43921441933E+02  0.51162196302E+02  0.00000000000E+00 0.  1.
<mgrwt>
<rscale>  2 0.72408589E+02</rscale>
<asrwt>0</asrwt>
<pdfrwt beam="1">  1       21 0.90410189E-01 0.72408589E+02</pdfrwt>
<pdfrwt beam="2">  1       21 0.99657653E-02 0.72408589E+02</pdfrwt>
<totfact> 0.90125292E+04</totfact>
</mgrwt>
</event>
<event>
 5    1  0.1994521E+000  0.6422130E+02  0.7546771E-02  0.1380925E+00
         21   -1    0    0  501  502  0.00000000000E+00  0.00000000000E+00  0.45753379351E+03  0.45753379351E+03  0.00000000000E+00 0.  1.
         21   -1    0    0  502  503 -0.00000000000E+00 -0.00000000000E+00 -0.86686878213E+02  0.86686878213E+02  0.00000000000E+00 0.  1.
         24    1    1    2    0    0 -0.55129766714E+00 -0.12027383720E+02  0.26418531492E+03  0.27641645837E+03  0.80419002446E+02 0.  1.
          1    1    1    2  501    0  0.22472821109E+02  0.77427284917E+00  0.18465076827E+03  0.18601487416E+03  0.00000000000E+00 0. -1.
         -2    1    1    2    0  503 -0.21921523442E+02  0.11253110871E+02 -0.77989167896E+02  0.81789339179E+02  0.00000000000E+00 0.  1.
<mgrwt>
<rscale>  2 0.64221296E+02</rscale>
<asrwt>0</asrwt>
<pdfrwt beam="1">  1       21 0.70389813E-01 0.64221296E+02</pdfrwt>
<pdfrwt beam="2">  1       21 0.13336443E-01 0.64221296E+02</pdfrwt>
<totfact> 0.94537694E+04</totfact>
</mgrwt>
</event>
<event>
 5    1  0.1994521E+000  0.1074899E+03  0.7546771E-02  0.1265290E+00
         21   -1    0    0  501  502  0.00000000000E+00  0.00000000000E+00  0.43173550984E+03  0.43173550984E+03  0.00000000000E+00 0.  1.
         21   -1    0    0  502  503 -0.00000000000E+00 -0.00000000000E+00 -0.71029383929E+02  0.71029383929E+02  0.00000000000E+00 0.  1.
         24    1    1    2    0    0  0.39558010115E+02  0.30849553930E+02  0.27760378131E+03  0.29333872314E+03  0.80419002446E+02 0.  1.
          1    1    1    2  501    0 -0.60164592211E+02 -0.59690492726E+02  0.12720017691E+03  0.15284834996E+03  0.00000000000E+00 0. -1.
         -2    1    1    2    0  503  0.20606582096E+02  0.28840938796E+02 -0.44097832318E+02  0.56577820667E+02  0.00000000000E+00 0.  1.
<mgrwt>
<rscale>  2 0.10748990E+03</rscale>
<asrwt>0</asrwt>
<pdfrwt beam="1">  1       21 0.66420846E-01 0.10748990E+03</pdfrwt>
<pdfrwt beam="2">  1       21 0.10927598E-01 0.10748990E+03</pdfrwt>
<totfact> 0.14844639E+05</totfact>
</mgrwt>
</event>
<event>
 5    1  0.1994521E+000  0.6685093E+02  0.7546771E-02  0.1371141E+00
         21   -1    0    0  503  502  0.00000000000E+00  0.00000000000E+00  0.77558641704E+01  0.77558641704E+01  0.00000000000E+00 0.  1.
         21   -1    0    0  501  503 -0.00000000000E+00 -0.00000000000E+00 -0.66382397317E+03  0.66382397317E+03  0.00000000000E+00 0. -1.
         24    1    1    2    0    0  0.48398242637E+01  0.22939253565E+01 -0.27117625314E+03  0.28290009228E+03  0.80419002446E+02 0.  1.
          1    1    1    2  501    0 -0.11241521739E+02 -0.26118531652E+02 -0.24315720571E+03  0.24481416666E+03  0.00000000000E+00 0. -1.
         -2    1    1    2    0  502  0.64016974756E+01  0.23824606296E+02 -0.14173465015E+03  0.14386557840E+03  0.00000000000E+00 0.  1.
<mgrwt>
<rscale>  2 0.66850927E+02</rscale>
<asrwt>0</asrwt>
<pdfrwt beam="1">  1       21 0.11932098E-02 0.66850927E+02</pdfrwt>
<pdfrwt beam="2">  1       21 0.10212677E+00 0.66850927E+02</pdfrwt>
<totfact> 0.21711255E+06</totfact>
</mgrwt>
</event>
<event>
 5    1  0.1994521E+000  0.8670343E+02  0.7546771E-02  0.1311037E+00
         21   -1    0    0  501  502  0.00000000000E+00  0.00000000000E+00  0.22721814533E+02  0.22721814533E+02  0.00000000000E+00 0. -1.
         21   -1    0    0  502  503 -0.00000000000E+00 -0.00000000000E+00 -0.50020042541E+03  0.50020042541E+03  0.00000000000E+00 0. -1.
         24    1    1    2    0    0  0.34542147535E+02 -0.20103324202E+02 -0.13493020098E+03  0.16208232072E+03  0.80419002446E+02 0. -1.
          1    1    1    2  501    0 -0.55816543848E+02  0.25931151301E+02 -0.10091763209E+03  0.11820439772E+03  0.00000000000E+00 0. -1.
         -2    1    1    2    0  503  0.21274396313E+02 -0.58278270991E+01 -0.24163077781E+03  0.24263552149E+03  0.00000000000E+00 0.  1.
<mgrwt>
<rscale>  2 0.86703432E+02</rscale>
<asrwt>0</asrwt>
<pdfrwt beam="1">  1       21 0.34956642E-02 0.86703432E+02</pdfrwt>
<pdfrwt beam="2">  1       21 0.76953903E-01 0.86703432E+02</pdfrwt>
<totfact> 0.74163498E+05</totfact>
</mgrwt>
</event>
<event>
 5    1  0.1994521E+000  0.7749097E+02  0.7546771E-02  0.1336326E+00
         21   -1    0    0  501  502  0.00000000000E+00  0.00000000000E+00  0.44433713769E+02  0.44433713769E+02  0.00000000000E+00 0. -1.
         21   -1    0    0  502  503 -0.00000000000E+00 -0.00000000000E+00 -0.58473309501E+03  0.58473309501E+03  0.00000000000E+00 0. -1.
         24    1    1    2    0    0  0.48325870891E+02 -0.24962223619E+02 -0.26111674371E+03  0.27858153601E+03  0.80419002446E+02 0. -1.
          1    1    1    2  501    0 -0.26535573100E+02  0.24476090437E+02  0.26086531924E+02  0.44539003028E+02  0.00000000000E+00 0. -1.
         -2    1    1    2    0  503 -0.21790297790E+02  0.48613318169E+00 -0.30526916946E+03  0.30604626974E+03  0.00000000000E+00 0.  1.
<mgrwt>
<rscale>  2 0.77490968E+02</rscale>
<asrwt>0</asrwt>
<pdfrwt beam="1">  1       21 0.68359557E-02 0.77490968E+02</pdfrwt>
<pdfrwt beam="2">  1       21 0.89958941E-01 0.77490968E+02</pdfrwt>
<totfact> 0.17268638E+05</totfact>
</mgrwt>
</event>
<event>
 5    1  0.1994521E+000  0.9302137E+02  0.7546771E-02  0.1295696E+00
         21   -1    0    0  503  502  0.00000000000E+00  0.00000000000E+00  0.89351041939E+02  0.89351041939E+02  0.00000000000E+00 0. -1.
         21   -1    0    0  501  503 -0.00000000000E+00 -0.00000000000E+00 -0.12414946557E+03  0.12414946557E+03  0.00000000000E+00 0. -1.
         24    1    1    2    0    0  0.28704223155E+02  0.37761087998E+02  0.30249049141E+02  0.98143023807E+02  0.80419002446E+02 0. -1.
          1    1    1    2  501    0 -0.27157550974E+00 -0.57858538067E+02 -0.53140183147E+02  0.78559297639E+02  0.00000000000E+00 0. -1.
         -2    1    1    2    0  502 -0.28432647645E+02  0.20097450069E+02 -0.11907289627E+02  0.36798186065E+02  0.00000000000E+00 0.  1.
<mgrwt>
<rscale>  2 0.93021369E+02</rscale>
<asrwt>0</asrwt>
<pdfrwt beam="1">  1       21 0.13746314E-01 0.93021369E+02</pdfrwt>
<pdfrwt beam="2">  1       21 0.19099918E-01 0.93021369E+02</pdfrwt>
<totfact> 0.11488863E+06</totfact>
</mgrwt>
</event>
<event>
 5    1  0.1994521E+000  0.7520609E+02  0.7546771E-02  0.1343234E+00
         21   -1    0    0  501  502  0.00000000000E+00  0.00000000000E+00  0.46481293471E+02  0.46481293471E+02  0.00000000000E+00 0.  1.
         21   -1    0    0  502  503 -0.00000000000E+00 -0.00000000000E+00 -0.16578802691E+03  0.16578802691E+03  0.00000000000E+00 0. -1.
         24    1    1    2    0    0 -0.36595566350E+01  0.30112993998E+02 -0.16931204764E+02  0.87601748906E+02  0.80419002446E+02 0.  1.
          1    1    1    2  501    0  0.28935595486E+02 -0.60450980801E+01 -0.21408583553E+02  0.36498484169E+02  0.00000000000E+00 0. -1.
         -2    1    1    2    0  503 -0.25276038851E+02 -0.24067895918E+02 -0.80966945118E+02  0.88169087302E+02  0.00000000000E+00 0.  1.
<mgrwt>
<rscale>  2 0.75206093E+02</rscale>
<asrwt>0</asrwt>
<pdfrwt beam="1">  1       21 0.71509683E-02 0.75206093E+02</pdfrwt>
<pdfrwt beam="2">  1       21 0.25505850E-01 0.75206093E+02</pdfrwt>
<totfact> 0.20710951E+06</totfact>
</mgrwt>
</event>
<event>
 5    1  0.1994521E+000  0.8394811E+02  0.7546771E-02  0.1318206E+00
         21   -1    0    0  501  502  0.00000000000E+00  0.00000000000E+00  0.15800127956E+03  0.15800127956E+03  0.00000000000E+00 0.  1.
         21   -1    0    0  502  503 -0.00000000000E+00 -0.00000000000E+00 -0.51509071113E+02  0.51509071113E+02  0.00000000000E+00 0. -1.
         24    1    1    2    0    0  0.25419018369E+01  0.23826444798E+02  0.87920084041E+02  0.12153731060E+03  0.80419002446E+02 0.  0.
          1    1    1    2  501    0 -0.16532799690E+02  0.26783440079E+02  0.16228601931E+02  0.35412619907E+02  0.00000000000E+00 0. -1.
         -2    1    1    2    0  503  0.13990897853E+02 -0.50609884877E+02  0.23435224756E+01  0.52560420162E+02  0.00000000000E+00 0.  1.
<mgrwt>
<rscale>  2 0.83948113E+02</rscale>
<asrwt>0</asrwt>
<pdfrwt beam="1">  1       21 0.24307889E-01 0.83948113E+02</pdfrwt>
<pdfrwt beam="2">  1       21 0.79244725E-02 0.83948113E+02</pdfrwt>
<totfact> 0.19119925E+06</totfact>
</mgrwt>
</event>
<event>
 5    1  0.1994521E+000  0.8065138E+02  0.7546771E-02  0.1327213E+00
         21   -1    0    0  503  502  0.00000000000E+00  0.00000000000E+00  0.15800378208E+02  0.15800378208E+02  0.00000000000E+00 0. -1.
         21   -1    0    0  501  503 -0.00000000000E+00 -0.00000000000E+00 -0.59208972004E+03  0.59208972004E+03  0.00000000000E+00 0.  1.
         24    1    1    2    0    0  0.37165698741E+02 -0.10641802569E+02 -0.17986993554E+03  0.20078582318E+03  0.80419002446E+02 0.  0.
          1    1    1    2  501    0 -0.37723556354E+02  0.32751566598E+02 -0.36654614809E+03  0.36993487332E+03  0.00000000000E+00 0. -1.
         -2    1    1    2    0  502  0.55785761255E+00 -0.22109764029E+02 -0.29873258191E+02  0.37169401737E+02  0.00000000000E+00 0.  1.
<mgrwt>
<rscale>  2 0.80651378E+02</rscale>
<asrwt>0</asrwt>
<pdfrwt beam="1">  1       21 0.24308279E-02 0.80651378E+02</pdfrwt>
<pdfrwt beam="2">  1       21 0.91090709E-01 0.80651378E+02</pdfrwt>
<totfact> 0.91783049E+05</totfact>
</mgrwt>
</event>
<event>
 5    1  0.1994521E+000  0.9793223E+02  0.7546771E-02  0.1284705E+00
         21   -1    0    0  501  502  0.00000000000E+00  0.00000000000E+00  0.15495983759E+02  0.15495983759E+02  0.00000000000E+00 0. -1.
         21   -1    0    0  502  503 -0.00000000000E+00 -0.00000000000E+00 -0.88443969660E+03  0.88443969660E+03  0.00000000000E+00 0.  1.
         24    1    1    2    0    0 -0.31412858760E+01  0.21418977339E+02 -0.25064446844E+03  0.26411835563E+03  0.80419002446E+02 0.  0.
          1    1    1    2  501    0 -0.31599231189E+02  0.34478943412E+02 -0.73910299990E+02  0.87464515063E+02  0.00000000000E+00 0. -1.
         -2    1    1    2    0  503  0.34740517065E+02 -0.55897920751E+02 -0.54438894441E+03  0.54835280966E+03  0.00000000000E+00 0.  1.
<mgrwt>
<rscale>  2 0.97932226E+02</rscale>
<asrwt>0</asrwt>
<pdfrwt beam="1">  1       21 0.23839977E-02 0.97932226E+02</pdfrwt>
<pdfrwt beam="2">  1       21 0.13606763E+00 0.97932226E+02</pdfrwt>
<totfact> 0.36560681E+05</totfact>
</mgrwt>
</event>
<event>
 5    1  0.1994521E+000  0.1237720E+03  0.7546771E-02  0.1237001E+00
         21   -1    0    0  501  502  0.00000000000E+00  0.00000000000E+00  0.71496811226E+02  0.71496811226E+02  0.00000000000E+00 0. -1.
         21   -1    0    0  502  503 -0.00000000000E+00 -0.00000000000E+00 -0.51255369401E+03  0.51255369401E+03  0.00000000000E+00 0.  1.
         24    1    1    2    0    0  0.53419517297E+02  0.50737702400E+02 -0.23628364799E+02  0.11159513811E+03  0.80419002446E+02 0. -1.
          1    1    1    2  501    0  0.15362092450E+02 -0.66218257048E+02 -0.22980477922E+02  0.71756210996E+02  0.00000000000E+00 0. -1.
         -2    1    1    2    0  503 -0.68781609747E+02  0.15480554648E+02 -0.39444804007E+03  0.40069915613E+03  0.00000000000E+00 0.  1.
<mgrwt>
<rscale>  2 0.12377201E+03</rscale>
<asrwt>0</asrwt>
<pdfrwt beam="1">  1       21 0.10999510E-01 0.12377201E+03</pdfrwt>
<pdfrwt beam="2">  1       21 0.78854413E-01 0.12377201E+03</pdfrwt>
<totfact> 0.10015749E+05</totfact>
</mgrwt>
</event>
<event>
 5    1  0.1994521E+000  0.6420070E+02  0.7546771E-02  0.1381004E+00
         21   -1    0    0  501  502  0.00000000000E+00  0.00000000000E+00  0.26521536963E+03  0.26521536963E+03  0.00000000000E+00 0. -1.
         21   -1    0    0  502  503 -0.00000000000E+00 -0.00000000000E+00 -0.12184832963E+03  0.12184832963E+03  0.00000000000E+00 0.  1.
         24    1    1    2    0    0 -0.16276805216E+02  0.30899361271E+02 -0.97812525750E+02  0.13135528563E+03  0.80419002446E+02 0.  0.
          1    1    1    2  501    0  0.17427009322E+02 -0.10606625490E+02  0.23285086566E+03  0.23374286470E+03  0.00000000000E+00 0. -1.
         -2    1    1    2    0  503 -0.11502041056E+01 -0.20292735781E+02  0.83287000882E+01  0.21965548937E+02  0.00000000000E+00 0.  1.
<mgrwt>
<rscale>  2 0.64200701E+02</rscale>
<asrwt>0</asrwt>
<pdfrwt beam="1">  1       21 0.40802364E-01 0.64200701E+02</pdfrwt>
<pdfrwt beam="2">  1       21 0.18745897E-01 0.64200701E+02</pdfrwt>
<totfact> 0.15749309E+05</totfact>
</mgrwt>
</event>
<event>
 5    1  0.3092613E+000  0.1116042E+03  0.7546771E-02  0.1257628E+00
         21   -1    0    0  503  502  0.00000000000E+00  0.00000000000E+00  0.22895469909E+03  0.22895469909E+03  0.00000000000E+00 0. -1.
         21   -1    0    0  501  503 -0.00000000000E+00 -0.00000000000E+00 -0.59475694810E+03  0.59475694810E+03  0.00000000000E+00 0. -1.
         24    1    1    2    0    0  0.96992320734E+02  0.47683914242E+01  0.14016332666E+03  0.18852910102E+03  0.80419002446E+02 0. -1.
          1    1    1    2  501    0 -0.61955580124E+02 -0.22597902707E+01 -0.56397205380E+03  0.56736943698E+03  0.00000000000E+00 0. -1.
         -2    1    1    2    0  502 -0.35036740610E+02 -0.25086011535E+01  0.58006478131E+02  0.67813109186E+02  0.00000000000E+00 0.  1.
<mgrwt>
<rscale>  2 0.11160418E+03</rscale>
<asrwt>0</asrwt>
<pdfrwt beam="1">  1       21 0.35223800E-01 0.11160418E+03</pdfrwt>
<pdfrwt beam="2">  1       21 0.91501069E-01 0.11160418E+03</pdfrwt>
<totfact> 0.84221638E+03</totfact>
</mgrwt>
</event>
<event>
 5    1  0.1994521E+000  0.9811021E+02  0.7546771E-02  0.1284321E+00
         21   -1    0    0  503  502  0.00000000000E+00  0.00000000000E+00  0.18347089089E+03  0.18347089089E+03  0.00000000000E+00 0.  1.
         21   -1    0    0  501  503 -0.00000000000E+00 -0.00000000000E+00 -0.10314836452E+03  0.10314836452E+03  0.00000000000E+00 0. -1.
         24    1    1    2    0    0 -0.12707855006E+02 -0.45967423337E+02  0.13335727975E+03  0.16286765672E+03  0.80419002446E+02 0.  1.
          1    1    1    2  501    0  0.49132470184E+02  0.74213274298E+01 -0.50213231174E+02  0.70643076888E+02  0.00000000000E+00 0. -1.
         -2    1    1    2    0  502 -0.36424615177E+02  0.38546095907E+02 -0.28215222036E+01  0.53108521802E+02  0.00000000000E+00 0.  1.
<mgrwt>
<rscale>  2 0.98110212E+02</rscale>
<asrwt>0</asrwt>
<pdfrwt beam="1">  1       21 0.28226291E-01 0.98110212E+02</pdfrwt>
<pdfrwt beam="2">  1       21 0.15868979E-01 0.98110212E+02</pdfrwt>
<totfact> 0.42990451E+05</totfact>
</mgrwt>
</event>
<event>
 5    1  0.1994521E+000  0.9433281E+02  0.7546771E-02  0.1292686E+00
         21   -1    0    0  501  502  0.00000000000E+00  0.00000000000E+00  0.10150853307E+03  0.10150853307E+03  0.00000000000E+00 0. -1.
         21   -1    0    0  502  503 -0.00000000000E+00 -0.00000000000E+00 -0.24617219295E+03  0.24617219295E+03  0.00000000000E+00 0. -1.
         24    1    1    2    0    0  0.74323514401E+02 -0.19464034008E+02 -0.18769510135E+03  0.21817309742E+03  0.80419002446E+02 0. -1.
          1    1    1    2  501    0 -0.21173238222E+02  0.10166582661E+02  0.66605354885E+02  0.70625340489E+02  0.00000000000E+00 0. -1.
         -2    1    1    2    0  503 -0.53150276180E+02  0.92974513465E+01 -0.23573913417E+02  0.58882288112E+02  0.00000000000E+00 0.  1.
<mgrwt>
<rscale>  2 0.94332811E+02</rscale>
<asrwt>0</asrwt>
<pdfrwt beam="1">  1       21 0.15616698E-01 0.94332811E+02</pdfrwt>
<pdfrwt beam="2">  1       21 0.37872645E-01 0.94332811E+02</pdfrwt>
<totfact> 0.25081696E+05</totfact>
</mgrwt>
</event>
<event>
 5    1  0.1994521E+000  0.9041876E+02  0.7546771E-02  0.1301841E+00
         21   -1    0    0  501  502  0.00000000000E+00  0.00000000000E+00  0.25319254656E+03  0.25319254656E+03  0.00000000000E+00 0. -1.
         21   -1    0    0  502  503 -0.00000000000E+00 -0.00000000000E+00 -0.46832393279E+02  0.46832393279E+02  0.00000000000E+00 0. -1.
         24    1    1    2    0    0  0.26732879009E+02  0.66116798316E+02  0.34051679176E+02  0.11275110043E+03  0.80419002446E+02 0. -1.
          1    1    1    2  501    0 -0.26547107187E+02 -0.45096378148E+02  0.12399942031E+03  0.13458933264E+03  0.00000000000E+00 0. -1.
         -2    1    1    2    0  503 -0.18577182171E+00 -0.21020420168E+02  0.48309053798E+02  0.52684506774E+02  0.00000000000E+00 0.  1.
<mgrwt>
<rscale>  2 0.90418761E+02</rscale>
<asrwt>0</asrwt>
<pdfrwt beam="1">  1       21 0.38952699E-01 0.90418761E+02</pdfrwt>
<pdfrwt beam="2">  1       21 0.72049837E-02 0.90418761E+02</pdfrwt>
<totfact> 0.91353466E+05</totfact>
</mgrwt>
</event>
<event>
 5    1  0.1994521E+000  0.8754472E+02  0.7546771E-02  0.1308909E+00
         21   -1    0    0  503  502  0.00000000000E+00  0.00000000000E+00  0.31767267591E+03  0.31767267591E+03  0.00000000000E+00 0.  1.
         21   -1    0    0  501  503 -0.00000000000E+00 -0.00000000000E+00 -0.32446573504E+02  0.32446573504E+02  0.00000000000E+00 0.  1.
         24    1    1    2    0    0  0.28754582697E+02  0.94126941719E+01  0.87204480135E+02  0.12242247403E+03  0.80419002446E+02 0.  0.
          1    1    1    2  501    0 -0.44256545433E+02  0.25422304460E+02  0.39179644574E+02  0.64342675782E+02  0.00000000000E+00 0. -1.
         -2    1    1    2    0  502  0.15501962736E+02 -0.34834998632E+02  0.15884197769E+03  0.16335409960E+03  0.00000000000E+00 0.  1.
<mgrwt>
<rscale>  2 0.87544717E+02</rscale>
<asrwt>0</asrwt>
<pdfrwt beam="1">  1       21 0.48872717E-01 0.87544717E+02</pdfrwt>
<pdfrwt beam="2">  1       21 0.49917808E-02 0.87544717E+02</pdfrwt>
<totfact> 0.10737376E+06</totfact>
</mgrwt>
</event>
<event>
 5    1  0.1994521E+000  0.7398444E+02  0.7546771E-02  0.1347045E+00
         21   -1    0    0  503  502  0.00000000000E+00  0.00000000000E+00  0.26962430831E+03  0.26962430831E+03  0.00000000000E+00 0.  1.
         21   -1    0    0  501  503 -0.00000000000E+00 -0.00000000000E+00 -0.27895967855E+02  0.27895967855E+02  0.00000000000E+00 0. -1.
         24    1    1    2    0    0 -0.10450769551E+02 -0.12080456197E+02  0.69647242426E+02  0.10757839159E+03  0.80419002446E+02 0. -1.
          1    1    1    2  501    0  0.25451193492E+02 -0.18804053488E+02  0.29421036167E+02  0.43208252069E+02  0.00000000000E+00 0. -1.
         -2    1    1    2    0  502 -0.15000423940E+02  0.30884509684E+02  0.14266006186E+03  0.14673363250E+03  0.00000000000E+00 0.  1.
<mgrwt>
<rscale>  2 0.73984445E+02</rscale>
<asrwt>0</asrwt>
<pdfrwt beam="1">  1       21 0.41480661E-01 0.73984445E+02</pdfrwt>
<pdfrwt beam="2">  1       21 0.42916875E-02 0.73984445E+02</pdfrwt>
<totfact> 0.19050680E+06</totfact>
</mgrwt>
</event>
<event>
 5    1  0.2351063E+000  0.8576095E+02  0.7546771E-02  0.1313454E+00
         21   -1    0    0  501  502  0.00000000000E+00  0.00000000000E+00  0.15054366421E+03  0.15054366421E+03  0.00000000000E+00 0.  1.
         21   -1    0    0  502  503 -0.00000000000E+00 -0.00000000000E+00 -0.20269044647E+03  0.20269044647E+03  0.00000000000E+00 0.  1.
         24    1    1    2    0    0  0.51971171518E+02  0.38485867290E+02  0.11167126263E+03  0.15205213416E+03  0.80419002446E+02 0.  1.
          1    1    1    2  501    0 -0.88378911915E+01 -0.19081896510E+02  0.83569277820E+01  0.22628860711E+02  0.00000000000E+00 0. -1.
         -2    1    1    2    0  503 -0.43133280326E+02 -0.19403970780E+02 -0.17217497267E+03  0.17855311581E+03  0.00000000000E+00 0.  1.
<mgrwt>
<rscale>  2 0.85760951E+02</rscale>
<asrwt>0</asrwt>
<pdfrwt beam="1">  1       21 0.23160564E-01 0.85760951E+02</pdfrwt>
<pdfrwt beam="2">  1       21 0.31183146E-01 0.85760951E+02</pdfrwt>
<totfact> 0.17875029E+05</totfact>
</mgrwt>
</event>
<event>
 5    1  0.1994521E+000  0.6505336E+02  0.7546771E-02  0.1377771E+00
         21   -1    0    0  501  502  0.00000000000E+00  0.00000000000E+00  0.14640737887E+02  0.14640737887E+02  0.00000000000E+00 0. -1.
         21   -1    0    0  502  503 -0.00000000000E+00 -0.00000000000E+00 -0.55154829038E+03  0.55154829038E+03  0.00000000000E+00 0.  1.
         24    1    1    2    0    0 -0.70646156278E+01  0.42299611008E+01 -0.23419426115E+03  0.24775384816E+03  0.80419002446E+02 0.  1.
          1    1    1    2  501    0 -0.20465629451E+02  0.32901271119E+01 -0.78048849913E+01  0.22149111833E+02  0.00000000000E+00 0. -1.
         -2    1    1    2    0  503  0.27530245079E+02 -0.75200882127E+01 -0.29490840635E+03  0.29628606828E+03  0.00000000000E+00 0.  1.
<mgrwt>
<rscale>  2 0.65053358E+02</rscale>
<asrwt>0</asrwt>
<pdfrwt beam="1">  1       21 0.22524214E-02 0.65053358E+02</pdfrwt>
<pdfrwt beam="2">  1       21 0.84853578E-01 0.65053358E+02</pdfrwt>
<totfact> 0.12098043E+06</totfact>
</mgrwt>
</event>
<event>
 5    1  0.1994521E+000  0.6608050E+02  0.7546771E-02  0.1373953E+00
         21   -1    0    0  501  502  0.00000000000E+00  0.00000000000E+00  0.88638364752E+01  0.88638364752E+01  0.00000000000E+00 0. -1.
         21   -1    0    0  502  503 -0.00000000000E+00 -0.00000000000E+00 -0.60972280822E+03  0.60972280822E+03  0.00000000000E+00 0. -1.
         24    1    1    2    0    0  0.40411046347E+01  0.35451437288E+02 -0.38847580298E+03  0.39831369596E+03  0.80419002446E+02 0. -1.
          1    1    1    2  501    0  0.10579949427E+02 -0.21549157617E+02 -0.39545618783E+02  0.46261836202E+02  0.00000000000E+00 0. -1.
         -2    1    1    2    0  503 -0.14621054062E+02 -0.13902279671E+02 -0.17283754998E+03  0.17401111253E+03  0.00000000000E+00 0.  1.
<mgrwt>
<rscale>  2 0.66080495E+02</rscale>
<asrwt>0</asrwt>
<pdfrwt beam="1">  1       21 0.13636672E-02 0.66080495E+02</pdfrwt>
<pdfrwt beam="2">  1       21 0.93803509E-01 0.66080495E+02</pdfrwt>
<totfact> 0.21375802E+06</totfact>
</mgrwt>
</event>
<event>
 5    1  0.1994521E+000  0.9450166E+02  0.7546771E-02  0.1292302E+00
         21   -1    0    0  501  502  0.00000000000E+00  0.00000000000E+00  0.86610803352E+03  0.86610803352E+03  0.00000000000E+00 0.  1.
         21   -1    0    0  502  503 -0.00000000000E+00 -0.00000000000E+00 -0.15370634315E+02  0.15370634315E+02  0.00000000000E+00 0. -1.
         24    1    1    2    0    0  0.32090264539E+02  0.34735976161E+02  0.31371097664E+03  0.32728911674E+03  0.80419002446E+02 0. -1.
          1    1    1    2  501    0  0.23932086995E+02  0.80158888854E+01  0.39337108546E+03  0.39417992103E+03  0.00000000000E+00 0. -1.
         -2    1    1    2    0  503 -0.56022351534E+02 -0.42751865047E+02  0.14365533711E+03  0.16000963007E+03  0.00000000000E+00 0.  1.
<mgrwt>
<rscale>  2 0.94501663E+02</rscale>
<asrwt>0</asrwt>
<pdfrwt beam="1">  1       21 0.13324735E+00 0.94501663E+02</pdfrwt>
<pdfrwt beam="2">  1       21 0.23647137E-02 0.94501663E+02</pdfrwt>
<totfact> 0.39053063E+05</totfact>
</mgrwt>
</event>
<event>
 5    1  0.1994521E+000  0.1224682E+03  0.7546771E-02  0.1239080E+00
         21   -1    0    0  501  502  0.00000000000E+00  0.00000000000E+00  0.22125558327E+03  0.22125558327E+03  0.00000000000E+00 0.  1.
         21   -1    0    0  502  503 -0.00000000000E+00 -0.00000000000E+00 -0.82540412410E+02  0.82540412410E+02  0.00000000000E+00 0.  1.
         24    1    1    2    0    0  0.86255347533E+02  0.39409457046E+02  0.60702888836E+01  0.12448756823E+03  0.80419002446E+02 0.  1.
          1    1    1    2  501    0 -0.22492333093E+02  0.22435149625E+02  0.37352490640E+02  0.49035186792E+02  0.00000000000E+00 0. -1.
         -2    1    1    2    0  503 -0.63763014440E+02 -0.61844606670E+02  0.95292391334E+02  0.13027324066E+03  0.00000000000E+00 0.  1.
<mgrwt>
<rscale>  2 0.12246820E+03</rscale>
<asrwt>0</asrwt>
<pdfrwt beam="1">  1       21 0.34039320E-01 0.12246820E+03</pdfrwt>
<pdfrwt beam="2">  1       21 0.12698525E-01 0.12246820E+03</pdfrwt>
<totfact> 0.44531727E+05</totfact>
</mgrwt>
</event>
<event>
 5    1  0.1994521E+000  0.9641716E+02  0.7546771E-02  0.1288016E+00
         21   -1    0    0  501  502  0.00000000000E+00  0.00000000000E+00  0.28447304068E+03  0.28447304068E+03  0.00000000000E+00 0. -1.
         21   -1    0    0  502  503 -0.00000000000E+00 -0.00000000000E+00 -0.62822250570E+03  0.62822250570E+03  0.00000000000E+00 0.  1.
         24    1    1    2    0    0 -0.37568254101E+02 -0.18489125532E+02 -0.27125343664E+02  0.94637316648E+02  0.80419002446E+02 0.  1.
          1    1    1    2  501    0 -0.11559425410E+02 -0.30604479953E+02  0.24751110019E+03  0.24966377235E+03  0.00000000000E+00 0. -1.
         -2    1    1    2    0  503  0.49127679511E+02  0.49093605486E+02 -0.56413522155E+03  0.56839445738E+03  0.00000000000E+00 0.  1.
<mgrwt>
<rscale>  2 0.96417157E+02</rscale>
<asrwt>0</asrwt>
<pdfrwt beam="1">  1       21 0.43765083E-01 0.96417157E+02</pdfrwt>
<pdfrwt beam="2">  1       21 0.96649617E-01 0.96417157E+02</pdfrwt>
<totfact> 0.49246370E+03</totfact>
</mgrwt>
</event>
<event>
 5    1  0.1994521E+000  0.6460372E+02  0.7546771E-02  0.1379468E+00
         21   -1    0    0  503  502  0.00000000000E+00  0.00000000000E+00  0.87660333357E+01  0.87660333357E+01  0.00000000000E+00 0.  1.
         21   -1    0    0  501  503 -0.00000000000E+00 -0.00000000000E+00 -0.49453826767E+03  0.49453826767E+03  0.00000000000E+00 0. -1.
         24    1    1    2    0    0  0.16494209036E+02  0.15331826149E+02 -0.31553960219E+03  0.32640401396E+03  0.80419002446E+02 0. -1.
          1    1    1    2  501    0  0.11350091509E+01 -0.25378540448E+02 -0.12122273649E+03  0.12385600673E+03  0.00000000000E+00 0. -1.
         -2    1    1    2    0  502 -0.17629218187E+02  0.10046714299E+02 -0.49009895652E+02  0.53044280313E+02  0.00000000000E+00 0.  1.
<mgrwt>
<rscale>  2 0.64603724E+02</rscale>
<asrwt>0</asrwt>
<pdfrwt beam="1">  1       21 0.13486208E-02 0.64603724E+02</pdfrwt>
<pdfrwt beam="2">  1       21 0.76082793E-01 0.64603724E+02</pdfrwt>
<totfact> 0.34498893E+06</totfact>
</mgrwt>
</event>
<event>
 5    1  0.1994521E+000  0.6886763E+02  0.7546771E-02  0.1363987E+00
         21   -1    0    0  501  502  0.00000000000E+00  0.00000000000E+00  0.12676683709E+03  0.12676683709E+03  0.00000000000E+00 0.  1.
         21   -1    0    0  502  503 -0.00000000000E+00 -0.00000000000E+00 -0.44776828829E+02  0.44776828829E+02  0.00000000000E+00 0. -1.
         24    1    1    2    0    0 -0.89097905210E+01  0.15202172514E+02  0.41977497279E+02  0.92411128380E+02  0.80419002446E+02 0.  0.
          1    1    1    2  501    0 -0.21124766684E+02 -0.14013783802E+02  0.41947134542E+02  0.49012284177E+02  0.00000000000E+00 0. -1.
         -2    1    1    2    0  503  0.30034557205E+02 -0.11883887114E+01 -0.19346235624E+01  0.30120253361E+02  0.00000000000E+00 0.  1.
<mgrwt>
<rscale>  2 0.68867634E+02</rscale>
<asrwt>0</asrwt>
<pdfrwt beam="1">  1       21 0.19502590E-01 0.68867634E+02</pdfrwt>
<pdfrwt beam="2">  1       21 0.68887430E-02 0.68867634E+02</pdfrwt>
<totfact> 0.35929405E+06</totfact>
</mgrwt>
</event>
<event>
 5    1  0.1994521E+000  0.1047915E+03  0.7546771E-02  0.1270531E+00
         21   -1    0    0  501  502  0.00000000000E+00  0.00000000000E+00  0.36498656674E+03  0.36498656674E+03  0.00000000000E+00 0. -1.
         21   -1    0    0  502  503 -0.00000000000E+00 -0.00000000000E+00 -0.41014314611E+02  0.41014314611E+02  0.00000000000E+00 0.  1.
         24    1    1    2    0    0 -0.34453913739E+02  0.14099050607E+02  0.88541938037E+02  0.12527069149E+03  0.80419002446E+02 0.  1.
          1    1    1    2  501    0 -0.35578505319E+02  0.22349558330E+02  0.17854359353E+03  0.18342068473E+03  0.00000000000E+00 0. -1.
         -2    1    1    2    0  503  0.70032419058E+02 -0.36448608937E+02  0.56886720570E+02  0.97309505136E+02  0.00000000000E+00 0.  1.
<mgrwt>
<rscale>  2 0.10479151E+03</rscale>
<asrwt>0</asrwt>
<pdfrwt beam="1">  1       21 0.56151777E-01 0.10479151E+03</pdfrwt>
<pdfrwt beam="2">  1       21 0.63098948E-02 0.10479151E+03</pdfrwt>
<totfact> 0.54524646E+05</totfact>
</mgrwt>
</event>
<event>
 5    1  0.1994521E+000  0.7132334E+02  0.7546771E-02  0.1355650E+00
         21   -1    0    0  501  502  0.00000000000E+00  0.00000000000E+00  0.94346480769E+01  0.94346480769E+01  0.00000000000E+00 0.  1.
         21   -1    0    0  502  503 -0.00000000000E+00 -0.00000000000E+00 -0.84633194156E+03  0.84633194156E+03  0.00000000000E+00 0.  1.
         24    1    1    2    0    0 -0.63304551311E+00 -0.48604522126E+02 -0.27463593814E+03  0.29026697158E+03  0.80419002446E+02 0.  1.
          1    1    1    2  501    0  0.16088372667E+01  0.23478258874E+02 -0.10759892367E+03  0.11014238681E+03  0.00000000000E+00 0. -1.
         -2    1    1    2    0  503 -0.97579175363E+00  0.25126263251E+02 -0.45466243168E+03  0.45535723125E+03  0.00000000000E+00 0.  1.
<mgrwt>
<rscale>  2 0.71323343E+02</rscale>
<asrwt>0</asrwt>
<pdfrwt beam="1">  1       21 0.14514847E-02 0.71323343E+02</pdfrwt>
<pdfrwt beam="2">  1       21 0.13020488E+00 0.71323343E+02</pdfrwt>
<totfact> 0.90139550E+05</totfact>
</mgrwt>
</event>
<event>
 5    1  0.1994521E+000  0.8622904E+02  0.7546771E-02  0.1312249E+00
         21   -1    0    0  503  502  0.00000000000E+00  0.00000000000E+00  0.10589906622E+04  0.10589906622E+04  0.00000000000E+00 0.  1.
         21   -1    0    0  501  503 -0.00000000000E+00 -0.00000000000E+00 -0.36600014437E+02  0.36600014437E+02  0.00000000000E+00 0. -1.
         24    1    1    2    0    0  0.93075112652E+01  0.29408194492E+02  0.27496291295E+03  0.28813762532E+03  0.80419002446E+02 0.  1.
          1    1    1    2  501    0  0.55775855708E+01  0.27214279872E+02 -0.22225251499E+02  0.35576513235E+02  0.00000000000E+00 0. -1.
         -2    1    1    2    0  502 -0.14885096836E+02 -0.56622474364E+02  0.76965298631E+03  0.77187653809E+03  0.00000000000E+00 0.  1.
<mgrwt>
<rscale>  2 0.86229041E+02</rscale>
<asrwt>0</asrwt>
<pdfrwt beam="1">  1       21 0.16292162E+00 0.86229041E+02</pdfrwt>
<pdfrwt beam="2">  1       21 0.56307723E-02 0.86229041E+02</pdfrwt>
<totfact> 0.56749917E+04</totfact>
</mgrwt>
</event>
<event>
 5    1  0.1994521E+000  0.7255527E+02  0.7546771E-02  0.1351613E+00
         21   -1    0    0  501  502  0.00000000000E+00  0.00000000000E+00  0.93144426549E+01  0.93144426549E+01  0.00000000000E+00 0. -1.
         21   -1    0    0  502  503 -0.00000000000E+00 -0.00000000000E+00 -0.60794211458E+03  0.60794211458E+03  0.00000000000E+00 0.  1.
         24    1    1    2    0    0 -0.37880004181E+00  0.44589952075E+02 -0.29586013746E+03  0.30982066459E+03  0.80419002446E+02 0.  0.
          1    1    1    2  501    0  0.14525646493E+02 -0.26163986534E+02 -0.18402413677E+03  0.18644149622E+03  0.00000000000E+00 0. -1.
         -2    1    1    2    0  503 -0.14146846451E+02 -0.18425965541E+02 -0.11874339769E+03  0.12099439642E+03  0.00000000000E+00 0.  1.
<mgrwt>
<rscale>  2 0.72555269E+02</rscale>
<asrwt>0</asrwt>
<pdfrwt beam="1">  1       21 0.14329908E-02 0.72555269E+02</pdfrwt>
<pdfrwt beam="2">  1       21 0.93529581E-01 0.72555269E+02</pdfrwt>
<totfact> 0.19977286E+06</totfact>
</mgrwt>
</event>
<event>
 5    1  0.1994521E+000  0.1115534E+03  0.7546771E-02  0.1257720E+00
         21   -1    0    0  503  502  0.00000000000E+00  0.00000000000E+00  0.79260774808E+02  0.79260774808E+02  0.00000000000E+00 0. -1.
         21   -1    0    0  501  503 -0.00000000000E+00 -0.00000000000E+00 -0.15812527738E+03  0.15812527738E+03  0.00000000000E+00 0.  1.
         24    1    1    2    0    0 -0.58401791366E+01  0.95872719145E+02 -0.34722591125E+02  0.12999446241E+03  0.80419002446E+02 0.  1.
          1    1    1    2  501    0 -0.65284462143E+01 -0.22518879645E+02 -0.12261219580E+02  0.26458610243E+02  0.00000000000E+00 0. -1.
         -2    1    1    2    0  502  0.12368625351E+02 -0.73353839500E+02 -0.31880691869E+02  0.80932979536E+02  0.00000000000E+00 0.  1.
<mgrwt>
<rscale>  2 0.11155337E+03</rscale>
<asrwt>0</asrwt>
<pdfrwt beam="1">  1       21 0.12193965E-01 0.11155337E+03</pdfrwt>
<pdfrwt beam="2">  1       21 0.24326966E-01 0.11155337E+03</pdfrwt>
<totfact> 0.91056183E+05</totfact>
</mgrwt>
</event>
<event>
 5    1  0.3222236E+000  0.7217692E+02  0.7546771E-02  0.1352843E+00
         21   -1    0    0  501  502  0.00000000000E+00  0.00000000000E+00  0.20633941880E+03  0.20633941880E+03  0.00000000000E+00 0.  1.
         21   -1    0    0  502  503 -0.00000000000E+00 -0.00000000000E+00 -0.26644327029E+03  0.26644327029E+03  0.00000000000E+00 0.  1.
         24    1    1    2    0    0  0.11011191733E+02  0.18692746218E+02  0.15901473504E+03  0.17950923937E+03  0.80419002446E+02 0.  1.
          1    1    1    2  501    0 -0.29494878980E+02  0.61162228241E+01  0.29839823893E+02  0.42400131576E+02  0.00000000000E+00 0. -1.
         -2    1    1    2    0  503  0.18483687247E+02 -0.24808969042E+02 -0.24895841042E+03  0.25087331815E+03  0.00000000000E+00 0.  1.
<mgrwt>
<rscale>  2 0.72176920E+02</rscale>
<asrwt>0</asrwt>
<pdfrwt beam="1">  1       21 0.31744526E-01 0.72176920E+02</pdfrwt>
<pdfrwt beam="2">  1       21 0.40991273E-01 0.72176920E+02</pdfrwt>
<totfact> 0.58529231E+04</totfact>
</mgrwt>
</event>
<event>
 5    1  0.1994521E+000  0.1393378E+03  0.7546771E-02  0.1214223E+00
         21   -1    0    0  501  502  0.00000000000E+00  0.00000000000E+00  0.34978974755E+03  0.34978974755E+03  0.00000000000E+00 0. -1.
         21   -1    0    0  502  503 -0.00000000000E+00 -0.00000000000E+00 -0.69808088899E+02  0.69808088899E+02  0.00000000000E+00 0.  1.
         24    1    1    2    0    0 -0.77317586634E+02 -0.92406251034E+02  0.23061693492E+03  0.27233859635E+03  0.80419002446E+02 0. -1.
          1    1    1    2  501    0  0.61433887915E+02  0.28059739823E+02  0.44336012807E+02  0.80790801549E+02  0.00000000000E+00 0. -1.
         -2    1    1    2    0  503  0.15883698720E+02  0.64346511211E+02  0.50287109201E+01  0.66468438552E+02  0.00000000000E+00 0.  1.
<mgrwt>
<rscale>  2 0.13933782E+03</rscale>
<asrwt>0</asrwt>
<pdfrwt beam="1">  1       21 0.53813807E-01 0.13933782E+03</pdfrwt>
<pdfrwt beam="2">  1       21 0.10739706E-01 0.13933782E+03</pdfrwt>
<totfact> 0.23680839E+05</totfact>
</mgrwt>
</event>
<event>
 5    1  0.1994521E+000  0.9332765E+02  0.7546771E-02  0.1294988E+00
         21   -1    0    0  503  502  0.00000000000E+00  0.00000000000E+00  0.10701764572E+04  0.10701764572E+04  0.00000000000E+00 0. -1.
         21   -1    0    0  501  503 -0.00000000000E+00 -0.00000000000E+00 -0.88166171349E+01  0.88166171349E+01  0.00000000000E+00 0.  1.
         24    1    1    2    0    0  0.92642283660E+01 -0.10696878405E+02  0.46235190462E+03  0.46950692092E+03  0.80419002446E+02 0.  0.
          1    1    1    2  501    0  0.29601478861E+02  0.44530472204E+02  0.19475051596E+03  0.20195785197E+03  0.00000000000E+00 0. -1.
         -2    1    1    2    0  502 -0.38865707227E+02 -0.33833593799E+02  0.40425741951E+03  0.40752830147E+03  0.00000000000E+00 0.  1.
<mgrwt>
<rscale>  2 0.93327651E+02</rscale>
<asrwt>0</asrwt>
<pdfrwt beam="1">  1       21 0.16464243E+00 0.93327651E+02</pdfrwt>
<pdfrwt beam="2">  1       21 0.13564035E-02 0.93327651E+02</pdfrwt>
<totfact> 0.55288028E+05</totfact>
</mgrwt>
</event>
<event>
 5    1  0.1994521E+000  0.1031765E+03  0.7546771E-02  0.1273754E+00
         21   -1    0    0  503  502  0.00000000000E+00  0.00000000000E+00  0.77292761405E+01  0.77292761405E+01  0.00000000000E+00 0.  1.
         21   -1    0    0  501  503 -0.00000000000E+00 -0.00000000000E+00 -0.21601348686E+04  0.21601348686E+04  0.00000000000E+00 0.  1.
         24    1    1    2    0    0 -0.61962154786E+02  0.61148157513E+02 -0.69226483480E+03  0.70233626081E+03  0.80419002446E+02 0.  1.
          1    1    1    2  501    0  0.21044428655E+02 -0.13362660686E+02 -0.10745264500E+04  0.10748155751E+04  0.00000000000E+00 0. -1.
         -2    1    1    2    0  502  0.40917726131E+02 -0.47785496827E+02 -0.38561430769E+03  0.39071230888E+03  0.00000000000E+00 0.  1.
<mgrwt>
<rscale>  2 0.10317653E+03</rscale>
<asrwt>0</asrwt>
<pdfrwt beam="1">  1       21 0.11891187E-02 0.10317653E+03</pdfrwt>
<pdfrwt beam="2">  1       21 0.33232863E+00 0.10317653E+03</pdfrwt>
<totfact> 0.70350338E+04</totfact>
</mgrwt>
</event>
<event>
 5    1  0.1994521E+000  0.9368602E+02  0.7546771E-02  0.1294163E+00
         21   -1    0    0  501  502  0.00000000000E+00  0.00000000000E+00  0.14340276318E+03  0.14340276318E+03  0.00000000000E+00 0.  1.
         21   -1    0    0  502  503 -0.00000000000E+00 -0.00000000000E+00 -0.68551501231E+02  0.68551501231E+02  0.00000000000E+00 0. -1.
         24    1    1    2    0    0  0.44934526645E+02 -0.58533300196E+02  0.23252540343E+02  0.11159370728E+03  0.80419002446E+02 0. -1.
          1    1    1    2  501    0 -0.42295610227E+02  0.36004616960E+02  0.54103552579E+02  0.77539960592E+02  0.00000000000E+00 0. -1.
         -2    1    1    2    0  503 -0.26389164182E+01  0.22528683236E+02 -0.25048309772E+01  0.22820596540E+02  0.00000000000E+00 0.  1.
<mgrwt>
<rscale>  2 0.93686017E+02</rscale>
<asrwt>0</asrwt>
<pdfrwt beam="1">  1       21 0.22061964E-01 0.93686017E+02</pdfrwt>
<pdfrwt beam="2">  1       21 0.10546385E-01 0.93686017E+02</pdfrwt>
<totfact> 0.14045133E+06</totfact>
</mgrwt>
</event>
<event>
 5    1  0.1994521E+000  0.9031249E+02  0.7546771E-02  0.1302097E+00
         21   -1    0    0  501  502  0.00000000000E+00  0.00000000000E+00  0.99556677813E+02  0.99556677813E+02  0.00000000000E+00 0. -1.
         21   -1    0    0  502  503 -0.00000000000E+00 -0.00000000000E+00 -0.80468414951E+03  0.80468414951E+03  0.00000000000E+00 0. -1.
         24    1    1    2    0    0 -0.58068970254E+02  0.10242431774E+02 -0.43810015311E+03  0.44930599019E+03  0.80419002446E+02 0. -1.
          1    1    1    2  501    0  0.46120030078E+02  0.18565850729E+02  0.86642092131E+02  0.99892943277E+02  0.00000000000E+00 0. -1.
         -2    1    1    2    0  503  0.11948940176E+02 -0.28808282503E+02 -0.35366941072E+03  0.35504189385E+03  0.00000000000E+00 0.  1.
<mgrwt>
<rscale>  2 0.90312488E+02</rscale>
<asrwt>0</asrwt>
<pdfrwt beam="1">  1       21 0.15316411E-01 0.90312488E+02</pdfrwt>
<pdfrwt beam="2">  1       21 0.12379757E+00 0.90312488E+02</pdfrwt>
<totfact> 0.20038312E+04</totfact>
</mgrwt>
</event>
<event>
 5    1  0.1994521E+000  0.8450908E+02  0.7546771E-02  0.1316721E+00
         21   -1    0    0  501  502  0.00000000000E+00  0.00000000000E+00  0.14694454122E+03  0.14694454122E+03  0.00000000000E+00 0. -1.
         21   -1    0    0  502  503 -0.00000000000E+00 -0.00000000000E+00 -0.54386147919E+02  0.54386147919E+02  0.00000000000E+00 0.  1.
         24    1    1    2    0    0 -0.61477149327E+01 -0.48350844181E+01  0.34014107231E+02  0.87666115948E+02  0.80419002446E+02 0.  1.
          1    1    1    2  501    0  0.47064582739E+02  0.47407918301E+01  0.55075694041E+02  0.72600841109E+02  0.00000000000E+00 0. -1.
         -2    1    1    2    0  503 -0.40916867807E+02  0.94292587998E-01  0.34685920319E+01  0.41063732087E+02  0.00000000000E+00 0.  1.
<mgrwt>
<rscale>  2 0.84509084E+02</rscale>
<asrwt>0</asrwt>
<pdfrwt beam="1">  1       21 0.22606852E-01 0.84509084E+02</pdfrwt>
<pdfrwt beam="2">  1       21 0.83670997E-02 0.84509084E+02</pdfrwt>
<totfact> 0.19942289E+06</totfact>
</mgrwt>
</event>
<event>
 5    1  0.1994521E+000  0.1072820E+03  0.7546771E-02  0.1265688E+00
         21   -1    0    0  503  502  0.00000000000E+00  0.00000000000E+00  0.29348804927E+03  0.29348804927E+03  0.00000000000E+00 0. -1.
         21   -1    0    0  501  503 -0.00000000000E+00 -0.00000000000E+00 -0.43044598383E+02  0.43044598383E+02  0.00000000000E+00 0. -1.
         24    1    1    2    0    0 -0.62263001664E+02  0.29498861830E+02  0.16630427227E+03  0.19715778239E+03  0.80419002446E+02 0. -1.
          1    1    1    2  501    0  0.82664975612E+02 -0.15986686772E+02  0.51926012175E+02  0.98921095259E+02  0.00000000000E+00 0. -1.
         -2    1    1    2    0  502 -0.20401973947E+02 -0.13512175058E+02  0.32213166447E+02  0.40453770013E+02  0.00000000000E+00 0.  1.
<mgrwt>
<rscale>  2 0.10728199E+03</rscale>
<asrwt>0</asrwt>
<pdfrwt beam="1">  1       21 0.45152006E-01 0.10728199E+03</pdfrwt>
<pdfrwt beam="2">  1       21 0.66222461E-02 0.10728199E+03</pdfrwt>
<totfact> 0.78622476E+05</totfact>
</mgrwt>
</event>
<event>
 5    1  0.1994521E+000  0.1121380E+03  0.7546771E-02  0.1256661E+00
         21   -1    0    0  503  502  0.00000000000E+00  0.00000000000E+00  0.12331369331E+02  0.12331369331E+02  0.00000000000E+00 0.  1.
         21   -1    0    0  501  503 -0.00000000000E+00 -0.00000000000E+00 -0.10738523264E+04  0.10738523264E+04  0.00000000000E+00 0.  1.
         24    1    1    2    0    0 -0.84808900926E+02 -0.44222305143E+02 -0.58800636187E+03  0.60113797044E+03  0.80419002446E+02 0.  1.
          1    1    1    2  501    0  0.32361613349E+02  0.28001834528E+01 -0.23889253552E+03  0.24109076833E+03  0.00000000000E+00 0. -1.
         -2    1    1    2    0  502  0.52447287578E+02  0.41422121690E+02 -0.23462205969E+03  0.24395495697E+03  0.00000000000E+00 0.  1.
<mgrwt>
<rscale>  2 0.11213800E+03</rscale>
<asrwt>0</asrwt>
<pdfrwt beam="1">  1       21 0.18971336E-02 0.11213800E+03</pdfrwt>
<pdfrwt beam="2">  1       21 0.16520806E+00 0.11213800E+03</pdfrwt>
<totfact> 0.31895904E+05</totfact>
</mgrwt>
</event>
<event>
 5    1  0.1994521E+000  0.7300890E+02  0.7546771E-02  0.1350150E+00
         21   -1    0    0  503  502  0.00000000000E+00  0.00000000000E+00  0.16316658932E+03  0.16316658932E+03  0.00000000000E+00 0. -1.
         21   -1    0    0  501  503 -0.00000000000E+00 -0.00000000000E+00 -0.14173825996E+03  0.14173825996E+03  0.00000000000E+00 0. -1.
         24    1    1    2    0    0 -0.35711306570E+02 -0.76102073382E+01 -0.10663098041E+03  0.13845791638E+03  0.80419002446E+02 0. -1.
          1    1    1    2  501    0  0.19182154717E+02  0.26425230472E+02 -0.32091431814E+01  0.32810767517E+02  0.00000000000E+00 0. -1.
         -2    1    1    2    0  502  0.16529151852E+02 -0.18815023134E+02  0.13126845295E+03  0.13363616538E+03  0.00000000000E+00 0.  1.
<mgrwt>
<rscale>  2 0.73008903E+02</rscale>
<asrwt>0</asrwt>
<pdfrwt beam="1">  1       21 0.25102552E-01 0.73008903E+02</pdfrwt>
<pdfrwt beam="2">  1       21 0.21805886E-01 0.73008903E+02</pdfrwt>
<totfact> 0.30175851E+05</totfact>
</mgrwt>
</event>
<event>
 5    1  0.1994521E+000  0.1029468E+03  0.7546771E-02  0.1274219E+00
         21   -1    0    0  503  502  0.00000000000E+00  0.00000000000E+00  0.25499646284E+03  0.25499646284E+03  0.00000000000E+00 0.  1.
         21   -1    0    0  501  503 -0.00000000000E+00 -0.00000000000E+00 -0.62628594321E+02  0.62628594321E+02  0.00000000000E+00 0. -1.
         24    1    1    2    0    0  0.50026502397E+02  0.25667827367E+01  0.19712570280E+02  0.96773140370E+02  0.80419002446E+02 0.  0.
          1    1    1    2  501    0  0.24240963721E+02  0.22190618068E+02  0.17975376066E+01  0.32913203944E+02  0.00000000000E+00 0. -1.
         -2    1    1    2    0  502 -0.74267466118E+02 -0.24757400805E+02  0.17085776063E+03  0.18793871285E+03  0.00000000000E+00 0.  1.
<mgrwt>
<rscale>  2 0.10294676E+03</rscale>
<asrwt>0</asrwt>
<pdfrwt beam="1">  1       21 0.39230225E-01 0.10294676E+03</pdfrwt>
<pdfrwt beam="2">  1       21 0.96351685E-02 0.10294676E+03</pdfrwt>
<totfact> 0.54749990E+05</totfact>
</mgrwt>
</event>
<event>
 5    1  0.1994521E+000  0.8387367E+02  0.7546771E-02  0.1318405E+00
         21   -1    0    0  501  502  0.00000000000E+00  0.00000000000E+00  0.41897248677E+02  0.41897248677E+02  0.00000000000E+00 0. -1.
         21   -1    0    0  502  503 -0.00000000000E+00 -0.00000000000E+00 -0.34455838473E+03  0.34455838473E+03  0.00000000000E+00 0.  1.
         24    1    1    2    0    0  0.20389617611E+02  0.17040980581E+02 -0.59413877340E+02  0.10345702635E+03  0.80419002446E+02 0.  0.
          1    1    1    2  501    0  0.83658595279E+01 -0.43305916214E+02 -0.83440714511E+01  0.44888901893E+02  0.00000000000E+00 0. -1.
         -2    1    1    2    0  503 -0.28755477139E+02  0.26264935633E+02 -0.23490318726E+03  0.23810970517E+03  0.00000000000E+00 0.  1.
<mgrwt>
<rscale>  2 0.83873668E+02</rscale>
<asrwt>0</asrwt>
<pdfrwt beam="1">  1       21 0.64457304E-02 0.83873668E+02</pdfrwt>
<pdfrwt beam="2">  1       21 0.53008983E-01 0.83873668E+02</pdfrwt>
<totfact> 0.59269912E+05</totfact>
</mgrwt>
</event>
<event>
 5    1  0.1994521E+000  0.8873477E+02  0.7546771E-02  0.1305945E+00
         21   -1    0    0  503  502  0.00000000000E+00  0.00000000000E+00  0.14143713504E+03  0.14143713504E+03  0.00000000000E+00 0.  1.
         21   -1    0    0  501  503 -0.00000000000E+00 -0.00000000000E+00 -0.96315232018E+02  0.96315232018E+02  0.00000000000E+00 0. -1.
         24    1    1    2    0    0 -0.14750923182E+02  0.61708868256E+02 -0.51991090509E+02  0.11487325016E+03  0.80419002446E+02 0. -1.
          1    1    1    2  501    0 -0.70823284446E+01 -0.49532219051E+02  0.69397315267E+02  0.85554587642E+02  0.00000000000E+00 0. -1.
         -2    1    1    2    0  502  0.21833251626E+02 -0.12176649206E+02  0.27715678264E+02  0.37324529255E+02  0.00000000000E+00 0.  1.
<mgrwt>
<rscale>  2 0.88734771E+02</rscale>
<asrwt>0</asrwt>
<pdfrwt beam="1">  1       21 0.21759559E-01 0.88734771E+02</pdfrwt>
<pdfrwt beam="2">  1       21 0.14817728E-01 0.88734771E+02</pdfrwt>
<totfact> 0.79079175E+05</totfact>
</mgrwt>
</event>
<event>
 5    1  0.1994521E+000  0.1509635E+03  0.7546771E-02  0.1199294E+00
         21   -1    0    0  503  502  0.00000000000E+00  0.00000000000E+00  0.11489892152E+03  0.11489892152E+03  0.00000000000E+00 0.  1.
         21   -1    0    0  501  503 -0.00000000000E+00 -0.00000000000E+00 -0.31701103755E+03  0.31701103755E+03  0.00000000000E+00 0. -1.
         24    1    1    2    0    0  0.31199402543E+02 -0.12009249492E+03 -0.10017222180E+03  0.17859815237E+03  0.80419002446E+02 0. -1.
          1    1    1    2  501    0 -0.47251754982E+02  0.17755120482E+02 -0.13535993553E+03  0.14446551422E+03  0.00000000000E+00 0. -1.
         -2    1    1    2    0  502  0.16052352439E+02  0.10233737444E+03  0.33420041303E+02  0.10884629248E+03  0.00000000000E+00 0.  1.
<mgrwt>
<rscale>  2 0.15096348E+03</rscale>
<asrwt>0</asrwt>
<pdfrwt beam="1">  1       21 0.17676757E-01 0.15096348E+03</pdfrwt>
<pdfrwt beam="2">  1       21 0.48770929E-01 0.15096348E+03</pdfrwt>
<totfact> 0.11828270E+05</totfact>
</mgrwt>
</event>
<event>
 5    1  0.1994521E+000  0.7875456E+02  0.7546771E-02  0.1332623E+00
         21   -1    0    0  503  502  0.00000000000E+00  0.00000000000E+00  0.13576013609E+02  0.13576013609E+02  0.00000000000E+00 0.  1.
         21   -1    0    0  501  503 -0.00000000000E+00 -0.00000000000E+00 -0.48007813525E+03  0.48007813525E+03  0.00000000000E+00 0.  1.
         24    1    1    2    0    0 -0.34560903918E+02  0.36786567364E+02 -0.23288556879E+03  0.25149674296E+03  0.80419002446E+02 0.  1.
          1    1    1    2  501    0  0.30717479173E+02 -0.57036339189E+01 -0.13989279652E+03  0.14333907173E+03  0.00000000000E+00 0. -1.
         -2    1    1    2    0  502  0.38434247449E+01 -0.31082933445E+02 -0.93723756340E+02  0.98818334168E+02  0.00000000000E+00 0.  1.
<mgrwt>
<rscale>  2 0.78754561E+02</rscale>
<asrwt>0</asrwt>
<pdfrwt beam="1">  1       21 0.20886179E-02 0.78754561E+02</pdfrwt>
<pdfrwt beam="2">  1       21 0.73858161E-01 0.78754561E+02</pdfrwt>
<totfact> 0.18598903E+06</totfact>
</mgrwt>
</event>
<event>
 5    1  0.1994521E+000  0.1102451E+03  0.7546771E-02  0.1260117E+00
         21   -1    0    0  501  502  0.00000000000E+00  0.00000000000E+00  0.14406739774E+04  0.14406739774E+04  0.00000000000E+00 0. -1.
         21   -1    0    0  502  503 -0.00000000000E+00 -0.00000000000E+00 -0.50459192127E+02  0.50459192127E+02  0.00000000000E+00 0. -1.
         24    1    1    2    0    0 -0.52624300969E+02 -0.79668372618E+02  0.12135039109E+03  0.17409623781E+03  0.80419002446E+02 0. -1.
          1    1    1    2  501    0  0.39399922064E+02  0.54852388826E+02  0.12835416744E+04  0.12853172248E+04  0.00000000000E+00 0. -1.
         -2    1    1    2    0  503  0.13224378904E+02  0.24815983792E+02 -0.14677280258E+02  0.31719706883E+02  0.00000000000E+00 0.  1.
<mgrwt>
<rscale>  2 0.11024506E+03</rscale>
<asrwt>0</asrwt>
<pdfrwt beam="1">  1       21 0.22164212E+00 0.11024506E+03</pdfrwt>
<pdfrwt beam="2">  1       21 0.77629537E-02 0.11024506E+03</pdfrwt>
<totfact> 0.13539260E+04</totfact>
</mgrwt>
</event>
<event>
 5    1  0.1994521E+000  0.7599390E+02  0.7546771E-02  0.1340821E+00
         21   -1    0    0  501  502  0.00000000000E+00  0.00000000000E+00  0.76629614124E+02  0.76629614124E+02  0.00000000000E+00 0. -1.
         21   -1    0    0  502  503 -0.00000000000E+00 -0.00000000000E+00 -0.28613303133E+03  0.28613303133E+03  0.00000000000E+00 0.  1.
         24    1    1    2    0    0 -0.36518515906E+02 -0.15901545876E+02 -0.37119200544E+02  0.97115972778E+02  0.80419002446E+02 0.  1.
          1    1    1    2  501    0  0.27729904984E+02 -0.14011031992E+02  0.40189890150E+02  0.50798463738E+02  0.00000000000E+00 0. -1.
         -2    1    1    2    0  503  0.87886109225E+01  0.29912577868E+02 -0.21257410682E+03  0.21484820894E+03  0.00000000000E+00 0.  1.
<mgrwt>
<rscale>  2 0.75993904E+02</rscale>
<asrwt>0</asrwt>
<pdfrwt beam="1">  1       21 0.11789171E-01 0.75993904E+02</pdfrwt>
<pdfrwt beam="2">  1       21 0.44020466E-01 0.75993904E+02</pdfrwt>
<totfact> 0.30720309E+05</totfact>
</mgrwt>
</event>
<event>
 5    1  0.1994521E+000  0.1070197E+03  0.7546771E-02  0.1266191E+00
         21   -1    0    0  501  502  0.00000000000E+00  0.00000000000E+00  0.13455008455E+03  0.13455008455E+03  0.00000000000E+00 0.  1.
         21   -1    0    0  502  503 -0.00000000000E+00 -0.00000000000E+00 -0.10214138624E+03  0.10214138624E+03  0.00000000000E+00 0. -1.
         24    1    1    2    0    0  0.66998229446E+02  0.28189048938E+02 -0.22885177091E+02  0.11078958667E+03  0.80419002446E+02 0. -1.
          1    1    1    2  501    0 -0.38621372881E+02  0.24540722877E+02  0.46745893313E+02  0.65414341425E+02  0.00000000000E+00 0. -1.
         -2    1    1    2    0  503 -0.28376856565E+02 -0.52729771815E+02  0.85479820889E+01  0.60487542701E+02  0.00000000000E+00 0.  1.
<mgrwt>
<rscale>  2 0.10701969E+03</rscale>
<asrwt>0</asrwt>
<pdfrwt beam="1">  1       21 0.20700013E-01 0.10701969E+03</pdfrwt>
<pdfrwt beam="2">  1       21 0.15714059E-01 0.10701969E+03</pdfrwt>
<totfact> 0.78197756E+05</totfact>
</mgrwt>
</event>
<event>
 5    1  0.1994521E+000  0.6116258E+02  0.7546771E-02  0.1393017E+00
         21   -1    0    0  501  502  0.00000000000E+00  0.00000000000E+00  0.45475166402E+02  0.45475166402E+02  0.00000000000E+00 0. -1.
         21   -1    0    0  502  503 -0.00000000000E+00 -0.00000000000E+00 -0.16179945869E+03  0.16179945869E+03  0.00000000000E+00 0.  1.
         24    1    1    2    0    0  0.37389147821E+01  0.57392956304E+01 -0.96085650348E+02  0.12548540614E+03  0.80419002446E+02 0.  0.
          1    1    1    2  501    0 -0.20541881959E+02  0.56634028520E+01  0.24612725397E+02  0.32555019547E+02  0.00000000000E+00 0. -1.
         -2    1    1    2    0  503  0.16802967177E+02 -0.11402698482E+02 -0.44851367333E+02  0.49234199397E+02  0.00000000000E+00 0.  1.
<mgrwt>
<rscale>  2 0.61162578E+02</rscale>
<asrwt>0</asrwt>
<pdfrwt beam="1">  1       21 0.69961794E-02 0.61162578E+02</pdfrwt>
<pdfrwt beam="2">  1       21 0.24892225E-01 0.61162578E+02</pdfrwt>
<totfact> 0.22237446E+06</totfact>
</mgrwt>
</event>
<event>
 5    1  0.1994521E+000  0.6729722E+02  0.7546771E-02  0.1369533E+00
         21   -1    0    0  503  502  0.00000000000E+00  0.00000000000E+00  0.16506709149E+02  0.16506709149E+02  0.00000000000E+00 0.  1.
         21   -1    0    0  501  503 -0.00000000000E+00 -0.00000000000E+00 -0.43509799742E+03  0.43509799742E+03  0.00000000000E+00 0.  1.
         24    1    1    2    0    0 -0.32327788186E+02 -0.27802196619E+02 -0.22225772947E+03  0.24017444138E+03  0.80419002446E+02 0.  1.
          1    1    1    2  501    0  0.12884585545E+02  0.16992193179E+02 -0.18543627789E+03  0.18665840546E+03  0.00000000000E+00 0. -1.
         -2    1    1    2    0  502  0.19443202640E+02  0.10810003440E+02 -0.10897280917E+02  0.24771859734E+02  0.00000000000E+00 0.  1.
<mgrwt>
<rscale>  2 0.67297224E+02</rscale>
<asrwt>0</asrwt>
<pdfrwt beam="1">  1       21 0.25394935E-02 0.67297224E+02</pdfrwt>
<pdfrwt beam="2">  1       21 0.66938159E-01 0.67297224E+02</pdfrwt>
<totfact> 0.16704284E+06</totfact>
</mgrwt>
</event>
<event>
 5    1  0.1994521E+000  0.9710692E+02  0.7546771E-02  0.1286500E+00
         21   -1    0    0  503  502  0.00000000000E+00  0.00000000000E+00  0.77775012269E+03  0.77775012269E+03  0.00000000000E+00 0.  1.
         21   -1    0    0  501  503 -0.00000000000E+00 -0.00000000000E+00 -0.33820540920E+02  0.33820540920E+02  0.00000000000E+00 0. -1.
         24    1    1    2    0    0 -0.32420747766E+02  0.12205376826E+02  0.34369081642E+03  0.35466980327E+03  0.80419002446E+02 0. -1.
          1    1    1    2  501    0  0.69153735093E+02 -0.97241478125E+01  0.16968080156E+02  0.71865943757E+02  0.00000000000E+00 0. -1.
         -2    1    1    2    0  502 -0.36732987326E+02 -0.24812290131E+01  0.38327068520E+03  0.38503491658E+03  0.00000000000E+00 0.  1.
<mgrwt>
<rscale>  2 0.97106922E+02</rscale>
<asrwt>0</asrwt>
<pdfrwt beam="1">  1       21 0.11965385E+00 0.97106922E+02</pdfrwt>
<pdfrwt beam="2">  1       21 0.52031607E-02 0.97106922E+02</pdfrwt>
<totfact> 0.13924805E+05</totfact>
</mgrwt>
</event>
<event>
 5    1  0.1994521E+000  0.7904120E+02  0.7546771E-02  0.1331795E+00
         21   -1    0    0  501  502  0.00000000000E+00  0.00000000000E+00  0.79518341629E+03  0.79518341629E+03  0.00000000000E+00 0. -1.
         21   -1    0    0  502  503 -0.00000000000E+00 -0.00000000000E+00 -0.41743910221E+02  0.41743910221E+02  0.00000000000E+00 0. -1.
         24    1    1    2    0    0 -0.63493051226E+01 -0.48396269893E+02  0.14973709591E+03  0.17683587436E+03  0.80419002446E+02 0.  0.
          1    1    1    2  501    0  0.22523338832E+02  0.15467871932E+02  0.61953312530E+03  0.62013534748E+03  0.00000000000E+00 0. -1.
         -2    1    1    2    0  503 -0.16174033710E+02  0.32928397961E+02 -0.15830715137E+02  0.39956104671E+02  0.00000000000E+00 0.  1.
<mgrwt>
<rscale>  2 0.79041195E+02</rscale>
<asrwt>0</asrwt>
<pdfrwt beam="1">  1       21 0.12233590E+00 0.79041195E+02</pdfrwt>
<pdfrwt beam="2">  1       21 0.64221407E-02 0.79041195E+02</pdfrwt>
<totfact> 0.93790225E+04</totfact>
</mgrwt>
</event>
<event>
 5    1  0.1994521E+000  0.1160449E+03  0.7546771E-02  0.1249768E+00
         21   -1    0    0  501  502  0.00000000000E+00  0.00000000000E+00  0.21036182544E+03  0.21036182544E+03  0.00000000000E+00 0. -1.
         21   -1    0    0  502  503 -0.00000000000E+00 -0.00000000000E+00 -0.17306673983E+03  0.17306673983E+03  0.00000000000E+00 0.  1.
         24    1    1    2    0    0  0.52532365888E+02  0.47307651309E+02  0.94108735206E+02  0.14255291416E+03  0.80419002446E+02 0.  1.
          1    1    1    2  501    0  0.79788308566E+01  0.27594415268E+02  0.73461088234E+02  0.78877404752E+02  0.00000000000E+00 0. -1.
         -2    1    1    2    0  503 -0.60511196745E+02 -0.74902066578E+02 -0.13027473783E+03  0.16199824637E+03  0.00000000000E+00 0.  1.
<mgrwt>
<rscale>  2 0.11604490E+03</rscale>
<asrwt>0</asrwt>
<pdfrwt beam="1">  1       21 0.32363358E-01 0.11604490E+03</pdfrwt>
<pdfrwt beam="2">  1       21 0.26625652E-01 0.11604490E+03</pdfrwt>
<totfact> 0.12668830E+05</totfact>
</mgrwt>
</event>
<event>
 5    1  0.1994521E+000  0.1000824E+03  0.7546771E-02  0.1280123E+00
         21   -1    0    0  503  502  0.00000000000E+00  0.00000000000E+00  0.48470405575E+02  0.48470405575E+02  0.00000000000E+00 0.  1.
         21   -1    0    0  501  503 -0.00000000000E+00 -0.00000000000E+00 -0.19165660723E+04  0.19165660723E+04  0.00000000000E+00 0. -1.
         24    1    1    2    0    0 -0.63122343327E+02 -0.23713310844E+02 -0.43478349718E+03  0.44727022784E+03  0.80419002446E+02 0. -1.
          1    1    1    2  501    0  0.10544632490E+02  0.39049826531E+02 -0.14573809048E+04  0.14579421044E+04  0.00000000000E+00 0. -1.
         -2    1    1    2    0  502  0.52577710836E+02 -0.15336515688E+02  0.24068735190E+02  0.59824145659E+02  0.00000000000E+00 0.  1.
<mgrwt>
<rscale>  2 0.10008237E+03</rscale>
<asrwt>0</asrwt>
<pdfrwt beam="1">  1       21 0.74569841E-02 0.10008237E+03</pdfrwt>
<pdfrwt beam="2">  1       21 0.29485637E+00 0.10008237E+03</pdfrwt>
<totfact> 0.56921153E+03</totfact>
</mgrwt>
</event>
<event>
 5    1  0.1994521E+000  0.9044207E+02  0.7546771E-02  0.1301785E+00
         21   -1    0    0  503  502  0.00000000000E+00  0.00000000000E+00  0.15989976265E+02  0.15989976265E+02  0.00000000000E+00 0.  1.
         21   -1    0    0  501  503 -0.00000000000E+00 -0.00000000000E+00 -0.16141103349E+04  0.16141103349E+04  0.00000000000E+00 0. -1.
         24    1    1    2    0    0 -0.13215353845E+02  0.39333265404E+02 -0.52828207901E+03  0.53597660612E+03  0.80419002446E+02 0. -1.
          1    1    1    2  501    0 -0.23436732312E+02 -0.47385898614E+02 -0.10506446154E+04  0.10519737695E+04  0.00000000000E+00 0. -1.
         -2    1    1    2    0  502  0.36652086158E+02  0.80526332104E+01 -0.19193664209E+02  0.42149935553E+02  0.00000000000E+00 0.  1.
<mgrwt>
<rscale>  2 0.90442066E+02</rscale>
<asrwt>0</asrwt>
<pdfrwt beam="1">  1       21 0.24599957E-02 0.90442066E+02</pdfrwt>
<pdfrwt beam="2">  1       21 0.24832473E+00 0.90442066E+02</pdfrwt>
<totfact> 0.65740627E+04</totfact>
</mgrwt>
</event>
<event>
 5    1  0.1994521E+000  0.1659561E+03  0.7546771E-02  0.1182132E+00
         21   -1    0    0  503  502  0.00000000000E+00  0.00000000000E+00  0.36022311990E+03  0.36022311990E+03  0.00000000000E+00 0. -1.
         21   -1    0    0  501  503 -0.00000000000E+00 -0.00000000000E+00 -0.11224248678E+03  0.11224248678E+03  0.00000000000E+00 0.  1.
         24    1    1    2    0    0 -0.12002489332E+03  0.25454880198E+02  0.14282531975E+03  0.20474426453E+03  0.80419002446E+02 0. -1.
          1    1    1    2  501    0  0.14056185462E+03 -0.53544446609E+02 -0.67146469383E+01  0.15056470111E+03  0.00000000000E+00 0. -1.
         -2    1    1    2    0  502 -0.20536961295E+02  0.28089566412E+02  0.11186996030E+03  0.11715664104E+03  0.00000000000E+00 0.  1.
<mgrwt>
<rscale>  2 0.16595609E+03</rscale>
<asrwt>0</asrwt>
<pdfrwt beam="1">  1       21 0.55418941E-01 0.16595609E+03</pdfrwt>
<pdfrwt beam="2">  1       21 0.17268075E-01 0.16595609E+03</pdfrwt>
<totfact> 0.94042772E+04</totfact>
</mgrwt>
</event>
<event>
 5    1  0.1994521E+000  0.7527557E+02  0.7546771E-02  0.1343020E+00
         21   -1    0    0  501  502  0.00000000000E+00  0.00000000000E+00  0.50963998465E+02  0.50963998465E+02  0.00000000000E+00 0. -1.
         21   -1    0    0  502  503 -0.00000000000E+00 -0.00000000000E+00 -0.45727815149E+03  0.45727815149E+03  0.00000000000E+00 0.  1.
         24    1    1    2    0    0  0.19238669049E+02 -0.13525860626E+02 -0.72639477196E+02  0.11089086930E+03  0.80419002446E+02 0.  1.
          1    1    1    2  501    0  0.14197064812E+01 -0.23938952365E+02  0.25867016534E+02  0.35273099540E+02  0.00000000000E+00 0. -1.
         -2    1    1    2    0  503 -0.20658375531E+02  0.37464812991E+02 -0.35954169236E+03  0.36207818112E+03  0.00000000000E+00 0.  1.
<mgrwt>
<rscale>  2 0.75275570E+02</rscale>
<asrwt>0</asrwt>
<pdfrwt beam="1">  1       21 0.78406150E-02 0.75275570E+02</pdfrwt>
<pdfrwt beam="2">  1       21 0.70350486E-01 0.75275570E+02</pdfrwt>
<totfact> 0.23515801E+05</totfact>
</mgrwt>
</event>
<event>
 5    1  0.1994521E+000  0.6979225E+02  0.7546771E-02  0.1360801E+00
         21   -1    0    0  501  502  0.00000000000E+00  0.00000000000E+00  0.35731370681E+02  0.35731370681E+02  0.00000000000E+00 0. -1.
         21   -1    0    0  502  503 -0.00000000000E+00 -0.00000000000E+00 -0.13943232879E+03  0.13943232879E+03  0.00000000000E+00 0.  1.
         24    1    1    2    0    0  0.15789530994E+02 -0.68322974666E+01 -0.73480614909E+02  0.11028420694E+03  0.80419002446E+02 0.  1.
          1    1    1    2  501    0 -0.33350709208E+02 -0.80706846209E+01 -0.16554627420E+02  0.38098050395E+02  0.00000000000E+00 0. -1.
         -2    1    1    2    0  503  0.17561178214E+02  0.14902982087E+02 -0.13665715780E+02  0.26781442141E+02  0.00000000000E+00 0.  1.
<mgrwt>
<rscale>  2 0.69792255E+02</rscale>
<asrwt>0</asrwt>
<pdfrwt beam="1">  1       21 0.54971340E-02 0.69792255E+02</pdfrwt>
<pdfrwt beam="2">  1       21 0.21451127E-01 0.69792255E+02</pdfrwt>
<totfact> 0.44081886E+06</totfact>
</mgrwt>
</event>
<event>
 5    1  0.1994521E+000  0.9013706E+02  0.7546771E-02  0.1302520E+00
         21   -1    0    0  503  502  0.00000000000E+00  0.00000000000E+00  0.12585274413E+03  0.12585274413E+03  0.00000000000E+00 0.  1.
         21   -1    0    0  501  503 -0.00000000000E+00 -0.00000000000E+00 -0.16994938133E+03  0.16994938133E+03  0.00000000000E+00 0. -1.
         24    1    1    2    0    0  0.27647823939E+01 -0.62849061989E+01 -0.11462827440E+03  0.14019272917E+03  0.80419002446E+02 0. -1.
          1    1    1    2  501    0  0.43996578298E+02 -0.17194938434E+02 -0.19798407547E+02  0.51218568421E+02  0.00000000000E+00 0. -1.
         -2    1    1    2    0  502 -0.46761360692E+02  0.23479844633E+02  0.90330044751E+02  0.10439082787E+03  0.00000000000E+00 0.  1.
<mgrwt>
<rscale>  2 0.90137062E+02</rscale>
<asrwt>0</asrwt>
<pdfrwt beam="1">  1       21 0.19361961E-01 0.90137062E+02</pdfrwt>
<pdfrwt beam="2">  1       21 0.26146059E-01 0.90137062E+02</pdfrwt>
<totfact> 0.34684501E+05</totfact>
</mgrwt>
</event>
<event>
 5    1  0.1994521E+000  0.1065774E+03  0.7546771E-02  0.1267042E+00
         21   -1    0    0  501  502  0.00000000000E+00  0.00000000000E+00  0.22935652957E+03  0.22935652957E+03  0.00000000000E+00 0. -1.
         21   -1    0    0  502  503 -0.00000000000E+00 -0.00000000000E+00 -0.75152876639E+02  0.75152876639E+02  0.00000000000E+00 0.  1.
         24    1    1    2    0    0  0.63017138992E+02 -0.62448825611E+02  0.89150703067E+02  0.14928522847E+03  0.80419002446E+02 0. -1.
          1    1    1    2  501    0 -0.59691933251E+01  0.23722139301E+02  0.80864700542E+02  0.84483554351E+02  0.00000000000E+00 0. -1.
         -2    1    1    2    0  503 -0.57047945667E+02  0.38726686311E+02 -0.15811750683E+02  0.70740623387E+02  0.00000000000E+00 0.  1.
<mgrwt>
<rscale>  2 0.10657743E+03</rscale>
<asrwt>0</asrwt>
<pdfrwt beam="1">  1       21 0.35285620E-01 0.10657743E+03</pdfrwt>
<pdfrwt beam="2">  1       21 0.11561981E-01 0.10657743E+03</pdfrwt>
<totfact> 0.49052017E+05</totfact>
</mgrwt>
</event>
<event>
 5    1  0.1994521E+000  0.9051258E+02  0.7546771E-02  0.1301615E+00
         21   -1    0    0  501  502  0.00000000000E+00  0.00000000000E+00  0.11962070568E+03  0.11962070568E+03  0.00000000000E+00 0. -1.
         21   -1    0    0  502  503 -0.00000000000E+00 -0.00000000000E+00 -0.74565457674E+02  0.74565457674E+02  0.00000000000E+00 0. -1.
         24    1    1    2    0    0 -0.21577243699E+00  0.44204870385E+02  0.67101397603E+01  0.92012820050E+02  0.80419002446E+02 0. -1.
          1    1    1    2  501    0  0.38861621263E+02 -0.23500687538E+02  0.36546965646E+02  0.58293984423E+02  0.00000000000E+00 0. -1.
         -2    1    1    2    0  503 -0.38645848826E+02 -0.20704182847E+02  0.17981425970E+01  0.43879358879E+02  0.00000000000E+00 0.  1.
<mgrwt>
<rscale>  2 0.90512582E+02</rscale>
<asrwt>0</asrwt>
<pdfrwt beam="1">  1       21 0.18403185E-01 0.90512582E+02</pdfrwt>
<pdfrwt beam="2">  1       21 0.11471609E-01 0.90512582E+02</pdfrwt>
<totfact> 0.16893936E+06</totfact>
</mgrwt>
</event>
<event>
 5    1  0.1994521E+000  0.9668714E+02  0.7546771E-02  0.1287421E+00
         21   -1    0    0  503  502  0.00000000000E+00  0.00000000000E+00  0.38536291855E+03  0.38536291855E+03  0.00000000000E+00 0.  1.
         21   -1    0    0  501  503 -0.00000000000E+00 -0.00000000000E+00 -0.32809851471E+02  0.32809851471E+02  0.00000000000E+00 0. -1.
         24    1    1    2    0    0  0.41760947347E+02  0.14594766673E+02  0.26960491935E+03  0.28479995160E+03  0.80419002446E+02 0.  1.
          1    1    1    2  501    0 -0.60262577578E+02  0.19043694981E+02  0.36027298369E+02  0.72747555303E+02  0.00000000000E+00 0. -1.
         -2    1    1    2    0  502  0.18501630230E+02 -0.33638461654E+02  0.46920849356E+02  0.60625263116E+02  0.00000000000E+00 0.  1.
<mgrwt>
<rscale>  2 0.96687141E+02</rscale>
<asrwt>0</asrwt>
<pdfrwt beam="1">  1       21 0.59286600E-01 0.96687141E+02</pdfrwt>
<pdfrwt beam="2">  1       21 0.50476697E-02 0.96687141E+02</pdfrwt>
<totfact> 0.70792101E+05</totfact>
</mgrwt>
</event>
<event>
 5    1  0.1994521E+000  0.1046325E+03  0.7546771E-02  0.1270845E+00
         21   -1    0    0  501  502  0.00000000000E+00  0.00000000000E+00  0.12431394907E+04  0.12431394907E+04  0.00000000000E+00 0. -1.
         21   -1    0    0  502  503 -0.00000000000E+00 -0.00000000000E+00 -0.21389275379E+02  0.21389275379E+02  0.00000000000E+00 0.  1.
         24    1    1    2    0    0  0.38494428371E+02  0.70956465021E+02  0.81897120575E+03  0.82686014098E+03  0.80419002446E+02 0. -1.
          1    1    1    2  501    0 -0.42979233704E+02 -0.26195414776E+02  0.38659959909E+03  0.38986236584E+03  0.00000000000E+00 0. -1.
         -2    1    1    2    0  503  0.44848053331E+01 -0.44761050245E+02  0.16179410445E+02  0.47806259216E+02  0.00000000000E+00 0.  1.
<mgrwt>
<rscale>  2 0.10463246E+03</rscale>
<asrwt>0</asrwt>
<pdfrwt beam="1">  1       21 0.19125217E+00 0.10463246E+03</pdfrwt>
<pdfrwt beam="2">  1       21 0.32906587E-02 0.10463246E+03</pdfrwt>
<totfact> 0.88005536E+04</totfact>
</mgrwt>
</event>
<event>
 5    1  0.1994521E+000  0.1097909E+03  0.7546771E-02  0.1260958E+00
         21   -1    0    0  503  502  0.00000000000E+00  0.00000000000E+00  0.13381262336E+03  0.13381262336E+03  0.00000000000E+00 0. -1.
         21   -1    0    0  501  503 -0.00000000000E+00 -0.00000000000E+00 -0.18338151998E+03  0.18338151998E+03  0.00000000000E+00 0.  1.
         24    1    1    2    0    0 -0.24101354288E+01  0.69991721677E+02 -0.13753373588E+03  0.17403273921E+03  0.80419002446E+02 0.  1.
          1    1    1    2  501    0  0.56037837624E+01 -0.91262144319E+02  0.71773812523E+02  0.11623967284E+03  0.00000000000E+00 0. -1.
         -2    1    1    2    0  502 -0.31936483336E+01  0.21270422642E+02  0.16191026732E+02  0.26921731290E+02  0.00000000000E+00 0.  1.
<mgrwt>
<rscale>  2 0.10979091E+03</rscale>
<asrwt>0</asrwt>
<pdfrwt beam="1">  1       21 0.20586557E-01 0.10979091E+03</pdfrwt>
<pdfrwt beam="2">  1       21 0.28212541E-01 0.10979091E+03</pdfrwt>
<totfact> 0.26744749E+05</totfact>
</mgrwt>
</event>
<event>
 5    1  0.1994521E+000  0.8774426E+02  0.7546771E-02  0.1308408E+00
         21   -1    0    0  503  502  0.00000000000E+00  0.00000000000E+00  0.52339755146E+03  0.52339755146E+03  0.00000000000E+00 0. -1.
         21   -1    0    0  501  503 -0.00000000000E+00 -0.00000000000E+00 -0.18061810499E+02  0.18061810499E+02  0.00000000000E+00 0. -1.
         24    1    1    2    0    0  0.32460879761E+02  0.33592414889E+02  0.33221526318E+03  0.34498747238E+03  0.80419002446E+02 0. -1.
          1    1    1    2  501    0 -0.36481515008E+02  0.10695049291E+02  0.36139216059E+02  0.52453102424E+02  0.00000000000E+00 0. -1.
         -2    1    1    2    0  502  0.40206352466E+01 -0.44287464181E+02  0.13698126172E+03  0.14401878715E+03  0.00000000000E+00 0.  1.
<mgrwt>
<rscale>  2 0.87744258E+02</rscale>
<asrwt>0</asrwt>
<pdfrwt beam="1">  1       21 0.80522689E-01 0.87744258E+02</pdfrwt>
<pdfrwt beam="2">  1       21 0.27787405E-02 0.87744258E+02</pdfrwt>
<totfact> 0.97517613E+05</totfact>
</mgrwt>
</event>
<event>
 5    1  0.1994521E+000  0.8938072E+02  0.7546771E-02  0.1304358E+00
         21   -1    0    0  501  502  0.00000000000E+00  0.00000000000E+00  0.69272137137E+02  0.69272137137E+02  0.00000000000E+00 0. -1.
         21   -1    0    0  502  503 -0.00000000000E+00 -0.00000000000E+00 -0.18074309307E+03  0.18074309307E+03  0.00000000000E+00 0.  1.
         24    1    1    2    0    0  0.44160436731E+02  0.25202548596E+02 -0.69193933712E+02  0.11764492783E+03  0.80419002446E+02 0.  1.
          1    1    1    2  501    0  0.16902232785E+02 -0.13056201107E+02  0.30095139043E+02  0.36903485669E+02  0.00000000000E+00 0. -1.
         -2    1    1    2    0  503 -0.61062669516E+02 -0.12146347488E+02 -0.72372161261E+02  0.95466816703E+02  0.00000000000E+00 0.  1.
<mgrwt>
<rscale>  2 0.89380722E+02</rscale>
<asrwt>0</asrwt>
<pdfrwt beam="1">  1       21 0.10657252E-01 0.89380722E+02</pdfrwt>
<pdfrwt beam="2">  1       21 0.27806630E-01 0.89380722E+02</pdfrwt>
<totfact> 0.89372138E+05</totfact>
</mgrwt>
</event>
<event>
 5    1  0.1994521E+000  0.6632834E+02  0.7546771E-02  0.1373043E+00
         21   -1    0    0  501  502  0.00000000000E+00  0.00000000000E+00  0.14259178265E+03  0.14259178265E+03  0.00000000000E+00 0.  1.
         21   -1    0    0  502  503 -0.00000000000E+00 -0.00000000000E+00 -0.68426627964E+02  0.68426627964E+02  0.00000000000E+00 0.  1.
         24    1    1    2    0    0  0.97451778525E+01 -0.14945202245E+02  0.86190762809E+02  0.11922412134E+03  0.80419002446E+02 0.  1.
          1    1    1    2  501    0 -0.28521006647E+02  0.47398516841E+01  0.31835101429E+02  0.43004507870E+02  0.00000000000E+00 0. -1.
         -2    1    1    2    0  503  0.18775828795E+02  0.10205350561E+02 -0.43860709552E+02  0.48789781403E+02  0.00000000000E+00 0.  1.
<mgrwt>
<rscale>  2 0.66328341E+02</rscale>
<asrwt>0</asrwt>
<pdfrwt beam="1">  1       21 0.21937197E-01 0.66328341E+02</pdfrwt>
<pdfrwt beam="2">  1       21 0.10527174E-01 0.66328341E+02</pdfrwt>
<totfact> 0.14069626E+06</totfact>
</mgrwt>
</event>
<event>
 5    1  0.1994521E+000  0.9738054E+02  0.7546771E-02  0.1285903E+00
         21   -1    0    0  503  502  0.00000000000E+00  0.00000000000E+00  0.18371186993E+02  0.18371186993E+02  0.00000000000E+00 0. -1.
         21   -1    0    0  501  503 -0.00000000000E+00 -0.00000000000E+00 -0.55091696077E+03  0.55091696077E+03  0.00000000000E+00 0. -1.
         24    1    1    2    0    0 -0.57721843642E+02 -0.55071171436E+02 -0.34933767959E+03  0.36724470792E+03  0.80419002446E+02 0. -1.
          1    1    1    2  501    0  0.38128701659E+02  0.25005551276E+02 -0.13085413802E+03  0.13857085163E+03  0.00000000000E+00 0. -1.
         -2    1    1    2    0  502  0.19593141983E+02  0.30065620160E+02 -0.52353956159E+02  0.63472588209E+02  0.00000000000E+00 0.  1.
<mgrwt>
<rscale>  2 0.97380536E+02</rscale>
<asrwt>0</asrwt>
<pdfrwt beam="1">  1       21 0.28263366E-02 0.97380536E+02</pdfrwt>
<pdfrwt beam="2">  1       21 0.84756452E-01 0.97380536E+02</pdfrwt>
<totfact> 0.84715384E+05</totfact>
</mgrwt>
</event>
<event>
 5    1  0.1994521E+000  0.7535377E+02  0.7546771E-02  0.1342779E+00
         21   -1    0    0  501  502  0.00000000000E+00  0.00000000000E+00  0.84625754801E+03  0.84625754801E+03  0.00000000000E+00 0. -1.
         21   -1    0    0  502  503 -0.00000000000E+00 -0.00000000000E+00 -0.10594999971E+03  0.10594999971E+03  0.00000000000E+00 0.  1.
         24    1    1    2    0    0 -0.36186923622E+01  0.26308679222E+02  0.85568402004E+02  0.12039272782E+03  0.80419002446E+02 0. -1.
          1    1    1    2  501    0 -0.25910680676E+02  0.81193163288E+00  0.73849881546E+03  0.73895366772E+03  0.00000000000E+00 0. -1.
         -2    1    1    2    0  503  0.29529373038E+02 -0.27120610855E+02 -0.83759669167E+02  0.92861152180E+02  0.00000000000E+00 0.  1.
<mgrwt>
<rscale>  2 0.75353772E+02</rscale>
<asrwt>0</asrwt>
<pdfrwt beam="1">  1       21 0.13019346E+00 0.75353772E+02</pdfrwt>
<pdfrwt beam="2">  1       21 0.16300001E-01 0.75353772E+02</pdfrwt>
<totfact> 0.16168211E+04</totfact>
</mgrwt>
</event>
<event>
 5    1  0.1994521E+000  0.1165182E+03  0.7546771E-02  0.1248954E+00
         21   -1    0    0  503  502  0.00000000000E+00  0.00000000000E+00  0.34205270002E+03  0.34205270002E+03  0.00000000000E+00 0.  1.
         21   -1    0    0  501  503 -0.00000000000E+00 -0.00000000000E+00 -0.46148880226E+02  0.46148880226E+02  0.00000000000E+00 0. -1.
         24    1    1    2    0    0 -0.39886259755E+02 -0.54127990886E+02  0.18699850575E+03  0.21437446262E+03  0.80419002446E+02 0.  1.
          1    1    1    2  501    0 -0.36888005328E+02  0.30560624825E+02  0.14854501474E+02  0.50153095027E+02  0.00000000000E+00 0. -1.
         -2    1    1    2    0  502  0.76774265082E+02  0.23567366061E+02  0.94050812574E+02  0.12367402261E+03  0.00000000000E+00 0.  1.
<mgrwt>
<rscale>  2 0.11651819E+03</rscale>
<asrwt>0</asrwt>
<pdfrwt beam="1">  1       21 0.52623491E-01 0.11651819E+03</pdfrwt>
<pdfrwt beam="2">  1       21 0.70998279E-02 0.11651819E+03</pdfrwt>
<totfact> 0.51029982E+05</totfact>
</mgrwt>
</event>
<event>
 5    1  0.1994521E+000  0.7317315E+02  0.7546771E-02  0.1349623E+00
         21   -1    0    0  501  502  0.00000000000E+00  0.00000000000E+00  0.44198851653E+02  0.44198851653E+02  0.00000000000E+00 0.  1.
         21   -1    0    0  502  503 -0.00000000000E+00 -0.00000000000E+00 -0.36045528734E+03  0.36045528734E+03  0.00000000000E+00 0.  1.
         24    1    1    2    0    0 -0.55156980423E+01  0.50093354145E+02 -0.24455419565E+02  0.98005359827E+02  0.80419002446E+02 0.  1.
          1    1    1    2  501    0 -0.24634899699E+01 -0.24727958369E+02 -0.15971044956E+02  0.29540057293E+02  0.00000000000E+00 0. -1.
         -2    1    1    2    0  503  0.79791880123E+01 -0.25365395776E+02 -0.27582997116E+03  0.27710872187E+03  0.00000000000E+00 0.  1.
<mgrwt>
<rscale>  2 0.73173147E+02</rscale>
<asrwt>0</asrwt>
<pdfrwt beam="1">  1       21 0.67998229E-02 0.73173147E+02</pdfrwt>
<pdfrwt beam="2">  1       21 0.55454663E-01 0.73173147E+02</pdfrwt>
<totfact> 0.49345820E+05</totfact>
</mgrwt>
</event>
<event>
 5    1  0.1994521E+000  0.6994567E+02  0.7546771E-02  0.1360278E+00
         21   -1    0    0  503  502  0.00000000000E+00  0.00000000000E+00  0.51676166714E+02  0.51676166714E+02  0.00000000000E+00 0. -1.
         21   -1    0    0  501  503 -0.00000000000E+00 -0.00000000000E+00 -0.10687732644E+03  0.10687732644E+03  0.00000000000E+00 0.  1.
         24    1    1    2    0    0 -0.16492318193E+02 -0.10485362964E+02 -0.38991034459E+02  0.91484731614E+02  0.80419002446E+02 0.  1.
          1    1    1    2  501    0  0.34711899791E+02 -0.24329711954E+01 -0.25230288131E+02  0.42981423604E+02  0.00000000000E+00 0. -1.
         -2    1    1    2    0  502 -0.18219581597E+02  0.12918334159E+02  0.90201628590E+01  0.24087337940E+02  0.00000000000E+00 0.  1.
<mgrwt>
<rscale>  2 0.69945666E+02</rscale>
<asrwt>0</asrwt>
<pdfrwt beam="1">  1       21 0.79501795E-02 0.69945666E+02</pdfrwt>
<pdfrwt beam="2">  1       21 0.16442666E-01 0.69945666E+02</pdfrwt>
<totfact> 0.38384204E+06</totfact>
</mgrwt>
</event>
<event>
 5    1  0.1994521E+000  0.1203596E+03  0.7546771E-02  0.1242505E+00
         21   -1    0    0  503  502  0.00000000000E+00  0.00000000000E+00  0.62748106399E+03  0.62748106399E+03  0.00000000000E+00 0.  1.
         21   -1    0    0  501  503 -0.00000000000E+00 -0.00000000000E+00 -0.53524990948E+02  0.53524990948E+02  0.00000000000E+00 0. -1.
         24    1    1    2    0    0  0.27760825322E+02 -0.10286134502E+03  0.55187873353E+03  0.56779263134E+03  0.80419002446E+02 0.  1.
          1    1    1    2  501    0 -0.23119188607E+02  0.63091647116E+02 -0.60199827913E+00  0.67196839357E+02  0.00000000000E+00 0. -1.
         -2    1    1    2    0  502 -0.46416367146E+01  0.39769697906E+02  0.22679337790E+02  0.46016584244E+02  0.00000000000E+00 0.  1.
<mgrwt>
<rscale>  2 0.12035957E+03</rscale>
<asrwt>0</asrwt>
<pdfrwt beam="1">  1       21 0.96535543E-01 0.12035957E+03</pdfrwt>
<pdfrwt beam="2">  1       21 0.82346144E-02 0.12035957E+03</pdfrwt>
<totfact> 0.10493624E+05</totfact>
</mgrwt>
</event>
<event>
 5    1  0.1994521E+000  0.6546619E+02  0.7546771E-02  0.1376226E+00
         21   -1    0    0  503  502  0.00000000000E+00  0.00000000000E+00  0.12692186254E+03  0.12692186254E+03  0.00000000000E+00 0. -1.
         21   -1    0    0  501  503 -0.00000000000E+00 -0.00000000000E+00 -0.11786837516E+03  0.11786837516E+03  0.00000000000E+00 0. -1.
         24    1    1    2    0    0 -0.18934616108E+02 -0.15149396320E+02  0.90973216553E+02  0.12381989331E+03  0.80419002446E+02 0. -1.
          1    1    1    2  501    0 -0.74044916353E+01  0.18931145912E+02 -0.90699939493E+02  0.92949953233E+02  0.00000000000E+00 0. -1.
         -2    1    1    2    0  502  0.26339107743E+02 -0.37817495923E+01  0.87802103191E+01  0.28020391146E+02  0.00000000000E+00 0.  1.
<mgrwt>
<rscale>  2 0.65466187E+02</rscale>
<asrwt>0</asrwt>
<pdfrwt beam="1">  1       21 0.19526440E-01 0.65466187E+02</pdfrwt>
<pdfrwt beam="2">  1       21 0.18133596E-01 0.65466187E+02</pdfrwt>
<totfact> 0.66819161E+05</totfact>
</mgrwt>
</event>
<event>
 5    1  0.1994521E+000  0.7733032E+02  0.7546771E-02  0.1336803E+00
         21   -1    0    0  501  502  0.00000000000E+00  0.00000000000E+00  0.28931212914E+03  0.28931212914E+03  0.00000000000E+00 0.  1.
         21   -1    0    0  502  503 -0.00000000000E+00 -0.00000000000E+00 -0.26863209431E+02  0.26863209431E+02  0.00000000000E+00 0. -1.
         24    1    1    2    0    0 -0.43659395231E+02 -0.30971611103E+02  0.17161111536E+03  0.19693393399E+03  0.80419002446E+02 0.  0.
          1    1    1    2  501    0  0.34069413595E+02  0.10833624427E+02  0.90089804295E+02  0.96924017657E+02  0.00000000000E+00 0. -1.
         -2    1    1    2    0  503  0.95899816358E+01  0.20137986676E+02  0.74800005428E+00  0.22317386926E+02  0.00000000000E+00 0.  1.
<mgrwt>
<rscale>  2 0.77330323E+02</rscale>
<asrwt>0</asrwt>
<pdfrwt beam="1">  1       21 0.44509556E-01 0.77330323E+02</pdfrwt>
<pdfrwt beam="2">  1       21 0.41328017E-02 0.77330323E+02</pdfrwt>
<totfact> 0.17650201E+06</totfact>
</mgrwt>
</event>
<event>
 5    1  0.1994521E+000  0.8309717E+02  0.7546771E-02  0.1320485E+00
         21   -1    0    0  501  502  0.00000000000E+00  0.00000000000E+00  0.14608523073E+04  0.14608523073E+04  0.00000000000E+00 0. -1.
         21   -1    0    0  502  503 -0.00000000000E+00 -0.00000000000E+00 -0.62367626028E+02  0.62367626028E+02  0.00000000000E+00 0.  1.
         24    1    1    2    0    0  0.45235460478E+02 -0.13700425563E+02 -0.40314668950E+01  0.93367109974E+02  0.80419002446E+02 0.  1.
          1    1    1    2  501    0 -0.21025751876E+01  0.27536449750E+02  0.13781325906E+04  0.13784092695E+04  0.00000000000E+00 0. -1.
         -2    1    1    2    0  503 -0.43132885291E+02 -0.13836024187E+02  0.24383557608E+02  0.51443553925E+02  0.00000000000E+00 0.  1.
<mgrwt>
<rscale>  2 0.83097168E+02</rscale>
<asrwt>0</asrwt>
<pdfrwt beam="1">  1       21 0.22474648E+00 0.83097168E+02</pdfrwt>
<pdfrwt beam="2">  1       21 0.95950205E-02 0.83097168E+02</pdfrwt>
<totfact> 0.94270816E+03</totfact>
</mgrwt>
</event>
<event>
 5    1  0.2018781E+000  0.1178600E+03  0.7546771E-02  0.1246670E+00
         21   -1    0    0  501  502  0.00000000000E+00  0.00000000000E+00  0.16335481435E+03  0.16335481435E+03  0.00000000000E+00 0. -1.
         21   -1    0    0  502  503 -0.00000000000E+00 -0.00000000000E+00 -0.23207073295E+03  0.23207073295E+03  0.00000000000E+00 0.  1.
         24    1    1    2    0    0  0.40864751936E+02 -0.29552436257E+02 -0.98840918733E+01  0.95436815046E+02  0.80419002446E+02 0.  1.
          1    1    1    2  501    0  0.46256525245E+02 -0.61103987663E+01  0.10282709020E+03  0.11291772926E+03  0.00000000000E+00 0. -1.
         -2    1    1    2    0  503 -0.87121277181E+02  0.35662835024E+02 -0.16165891694E+03  0.18707100300E+03  0.00000000000E+00 0.  1.
<mgrwt>
<rscale>  2 0.11785996E+03</rscale>
<asrwt>0</asrwt>
<pdfrwt beam="1">  1       21 0.25131510E-01 0.11785996E+03</pdfrwt>
<pdfrwt beam="2">  1       21 0.35703190E-01 0.11785996E+03</pdfrwt>
<totfact> 0.11657271E+05</totfact>
</mgrwt>
</event>
<event>
 5    1  0.1994521E+000  0.6469145E+02  0.7546771E-02  0.1379136E+00
         21   -1    0    0  501  502  0.00000000000E+00  0.00000000000E+00  0.46061363802E+03  0.46061363802E+03  0.00000000000E+00 0. -1.
         21   -1    0    0  502  503 -0.00000000000E+00 -0.00000000000E+00 -0.47580155439E+02  0.47580155439E+02  0.00000000000E+00 0.  1.
         24    1    1    2    0    0  0.80170134977E+01  0.58597149106E+01  0.85827124339E+02  0.11803440173E+03  0.80419002446E+02 0. -1.
          1    1    1    2  501    0 -0.23566163887E+02  0.10485309705E+02  0.35411045662E+03  0.35504861821E+03  0.00000000000E+00 0. -1.
         -2    1    1    2    0  503  0.15549150389E+02 -0.16345024616E+02 -0.26904098384E+02  0.35110773523E+02  0.00000000000E+00 0.  1.
<mgrwt>
<rscale>  2 0.64691454E+02</rscale>
<asrwt>0</asrwt>
<pdfrwt beam="1">  1       21 0.70863634E-01 0.64691454E+02</pdfrwt>
<pdfrwt beam="2">  1       21 0.73200242E-02 0.64691454E+02</pdfrwt>
<totfact> 0.26070354E+05</totfact>
</mgrwt>
</event>
<event>
 5    1  0.1994521E+000  0.1061711E+03  0.7546771E-02  0.1267829E+00
         21   -1    0    0  501  502  0.00000000000E+00  0.00000000000E+00  0.44320277656E+02  0.44320277656E+02  0.00000000000E+00 0. -1.
         21   -1    0    0  502  503 -0.00000000000E+00 -0.00000000000E+00 -0.47240589015E+03  0.47240589015E+03  0.00000000000E+00 0.  1.
         24    1    1    2    0    0  0.82696847275E+02 -0.34100584134E+02 -0.40276940718E+03  0.42034751064E+03  0.80419002446E+02 0.  1.
          1    1    1    2  501    0 -0.67898588763E+02  0.18118019249E+02 -0.13365139840E+02  0.71533963545E+02  0.00000000000E+00 0. -1.
         -2    1    1    2    0  503 -0.14798258512E+02  0.15982564884E+02 -0.11951065480E+02  0.24844693627E+02  0.00000000000E+00 0.  1.
<mgrwt>
<rscale>  2 0.10617111E+03</rscale>
<asrwt>0</asrwt>
<pdfrwt beam="1">  1       21 0.68185039E-02 0.10617111E+03</pdfrwt>
<pdfrwt beam="2">  1       21 0.72677833E-01 0.10617111E+03</pdfrwt>
<totfact> 0.27562714E+05</totfact>
</mgrwt>
</event>
<event>
 5    1  0.1994521E+000  0.1034444E+03  0.7546771E-02  0.1273215E+00
         21   -1    0    0  503  502  0.00000000000E+00  0.00000000000E+00  0.18893049369E+03  0.18893049369E+03  0.00000000000E+00 0. -1.
         21   -1    0    0  501  503 -0.00000000000E+00 -0.00000000000E+00 -0.64420754055E+02  0.64420754055E+02  0.00000000000E+00 0.  1.
         24    1    1    2    0    0 -0.76161555895E+02  0.43594762836E+02  0.50450405329E+02  0.12928087753E+03  0.80419002446E+02 0.  0.
          1    1    1    2  501    0  0.56660403122E+02 -0.34530225683E+02  0.25720416939E+02  0.71163738064E+02  0.00000000000E+00 0. -1.
         -2    1    1    2    0  502  0.19501152772E+02 -0.90645371528E+01  0.48338917371E+02  0.52906632154E+02  0.00000000000E+00 0.  1.
<mgrwt>
<rscale>  2 0.10344435E+03</rscale>
<asrwt>0</asrwt>
<pdfrwt beam="1">  1       21 0.29066230E-01 0.10344435E+03</pdfrwt>
<pdfrwt beam="2">  1       21 0.99108853E-02 0.10344435E+03</pdfrwt>
<totfact> 0.93395516E+05</totfact>
</mgrwt>
</event>
<event>
 5    1  0.1994521E+000  0.1080704E+03  0.7546771E-02  0.1264185E+00
         21   -1    0    0  503  502  0.00000000000E+00  0.00000000000E+00  0.51737310825E+03  0.51737310825E+03  0.00000000000E+00 0.  1.
         21   -1    0    0  501  503 -0.00000000000E+00 -0.00000000000E+00 -0.31748168372E+02  0.31748168372E+02  0.00000000000E+00 0. -1.
         24    1    1    2    0    0  0.24934889684E+02  0.59684503386E+02  0.23570855454E+03  0.25731250903E+03  0.80419002446E+02 0. -1.
          1    1    1    2  501    0  0.26727255743E+02 -0.54890861104E+02  0.34278630877E+02  0.70016979134E+02  0.00000000000E+00 0. -1.
         -2    1    1    2    0  502 -0.51662145427E+02 -0.47936422814E+01  0.21563775446E+03  0.22179178845E+03  0.00000000000E+00 0.  1.
<mgrwt>
<rscale>  2 0.10807039E+03</rscale>
<asrwt>0</asrwt>
<pdfrwt beam="1">  1       21 0.79595857E-01 0.10807039E+03</pdfrwt>
<pdfrwt beam="2">  1       21 0.48843340E-02 0.10807039E+03</pdfrwt>
<totfact> 0.39564027E+05</totfact>
</mgrwt>
</event>
<event>
 5    1  0.1994521E+000  0.8272695E+02  0.7546771E-02  0.1321486E+00
         21   -1    0    0  503  502  0.00000000000E+00  0.00000000000E+00  0.51701861175E+02  0.51701861175E+02  0.00000000000E+00 0.  1.
         21   -1    0    0  501  503 -0.00000000000E+00 -0.00000000000E+00 -0.17291542721E+03  0.17291542721E+03  0.00000000000E+00 0.  1.
         24    1    1    2    0    0 -0.15344520268E+02 -0.44812147487E+02 -0.51729633942E+02  0.10670873370E+03  0.80419002446E+02 0.  1.
          1    1    1    2  501    0  0.27982815745E+02  0.26515990749E+01 -0.68323237137E+02  0.73879183046E+02  0.00000000000E+00 0. -1.
         -2    1    1    2    0  502 -0.12638295477E+02  0.42160548413E+02 -0.11606949608E+01  0.44029371649E+02  0.00000000000E+00 0.  1.
<mgrwt>
<rscale>  2 0.82726948E+02</rscale>
<asrwt>0</asrwt>
<pdfrwt beam="1">  1       21 0.79541326E-02 0.82726948E+02</pdfrwt>
<pdfrwt beam="2">  1       21 0.26602373E-01 0.82726948E+02</pdfrwt>
<totfact> 0.16040894E+06</totfact>
</mgrwt>
</event>
<event>
 5    1  0.1994521E+000  0.9019381E+02  0.7546771E-02  0.1302383E+00
         21   -1    0    0  501  502  0.00000000000E+00  0.00000000000E+00  0.13887086968E+03  0.13887086968E+03  0.00000000000E+00 0. -1.
         21   -1    0    0  502  503 -0.00000000000E+00 -0.00000000000E+00 -0.85528698131E+02  0.85528698131E+02  0.00000000000E+00 0.  1.
         24    1    1    2    0    0  0.18834676785E+02  0.10087072881E+02  0.60369238041E+02  0.10280153182E+03  0.80419002446E+02 0.  0.
          1    1    1    2  501    0  0.11186865698E+02 -0.47733860281E+02  0.32902585046E+02  0.59044453458E+02  0.00000000000E+00 0. -1.
         -2    1    1    2    0  503 -0.30021542482E+02  0.37646787400E+02 -0.39929651543E+02  0.62553582526E+02  0.00000000000E+00 0.  1.
<mgrwt>
<rscale>  2 0.90193807E+02</rscale>
<asrwt>0</asrwt>
<pdfrwt beam="1">  1       21 0.21364749E-01 0.90193807E+02</pdfrwt>
<pdfrwt beam="2">  1       21 0.13158261E-01 0.90193807E+02</pdfrwt>
<totfact> 0.10102080E+06</totfact>
</mgrwt>
</event>
<event>
 5    1  0.1994521E+000  0.2282497E+03  0.7546771E-02  0.1127878E+00
         21   -1    0    0  503  502  0.00000000000E+00  0.00000000000E+00  0.42255625453E+03  0.42255625453E+03  0.00000000000E+00 0.  1.
         21   -1    0    0  501  503 -0.00000000000E+00 -0.00000000000E+00 -0.31595718795E+03  0.31595718795E+03  0.00000000000E+00 0. -1.
         24    1    1    2    0    0  0.10866332544E+03  0.13970580642E+03 -0.44874236677E+02  0.19951527189E+03  0.80419002446E+02 0. -1.
          1    1    1    2  501    0 -0.16396217699E+03 -0.86600670436E+02 -0.14334508263E+03  0.23437381321E+03  0.00000000000E+00 0. -1.
         -2    1    1    2    0  502  0.55298851548E+02 -0.53105135987E+02  0.29481838589E+03  0.30462435738E+03  0.00000000000E+00 0.  1.
<mgrwt>
<rscale>  2 0.22824973E+03</rscale>
<asrwt>0</asrwt>
<pdfrwt beam="1">  1       21 0.65008655E-01 0.22824973E+03</pdfrwt>
<pdfrwt beam="2">  1       21 0.48608798E-01 0.22824973E+03</pdfrwt>
<totfact> 0.85958740E+03</totfact>
</mgrwt>
</event>
<event>
 5    1  0.1994521E+000  0.1171511E+03  0.7546771E-02  0.1247872E+00
         21   -1    0    0  503  502  0.00000000000E+00  0.00000000000E+00  0.13122415571E+03  0.13122415571E+03  0.00000000000E+00 0. -1.
         21   -1    0    0  501  503 -0.00000000000E+00 -0.00000000000E+00 -0.14451835726E+03  0.14451835726E+03  0.00000000000E+00 0. -1.
         24    1    1    2    0    0  0.86005655223E+02 -0.55734375515E+02  0.50508150117E+02  0.13971965691E+03  0.80419002446E+02 0. -1.
          1    1    1    2  501    0 -0.54108839625E+02  0.24530520915E+02 -0.69054106449E+02  0.91093263194E+02  0.00000000000E+00 0. -1.
         -2    1    1    2    0  502 -0.31896815598E+02  0.31203854600E+02  0.52517547799E+01  0.44929592870E+02  0.00000000000E+00 0.  1.
<mgrwt>
<rscale>  2 0.11715111E+03</rscale>
<asrwt>0</asrwt>
<pdfrwt beam="1">  1       21 0.20188332E-01 0.11715111E+03</pdfrwt>
<pdfrwt beam="2">  1       21 0.22233594E-01 0.11715111E+03</pdfrwt>
<totfact> 0.43375803E+05</totfact>
</mgrwt>
</event>
<event>
 5    1  0.1994521E+000  0.6801927E+02  0.7546771E-02  0.1366961E+00
         21   -1    0    0  501  502  0.00000000000E+00  0.00000000000E+00  0.33856540901E+03  0.33856540901E+03  0.00000000000E+00 0. -1.
         21   -1    0    0  502  503 -0.00000000000E+00 -0.00000000000E+00 -0.18774881371E+02  0.18774881371E+02  0.00000000000E+00 0. -1.
         24    1    1    2    0    0  0.17229903141E+01  0.64994440995E+01  0.11823643277E+03  0.14315125378E+03  0.80419002446E+02 0. -1.
          1    1    1    2  501    0 -0.26690711510E+02 -0.12781170890E+02  0.17392159511E+03  0.17642129592E+03  0.00000000000E+00 0. -1.
         -2    1    1    2    0  503  0.24967721196E+02  0.62817267910E+01  0.27632499760E+02  0.37767740682E+02  0.00000000000E+00 0.  1.
<mgrwt>
<rscale>  2 0.68019273E+02</rscale>
<asrwt>0</asrwt>
<pdfrwt beam="1">  1       21 0.52086982E-01 0.68019273E+02</pdfrwt>
<pdfrwt beam="2">  1       21 0.28884435E-02 0.68019273E+02</pdfrwt>
<totfact> 0.22883700E+06</totfact>
</mgrwt>
</event>
<event>
 5    1  0.1994521E+000  0.8189227E+02  0.7546771E-02  0.1323766E+00
         21   -1    0    0  503  502  0.00000000000E+00  0.00000000000E+00  0.14213529104E+03  0.14213529104E+03  0.00000000000E+00 0. -1.
         21   -1    0    0  501  503 -0.00000000000E+00 -0.00000000000E+00 -0.74478989726E+02  0.74478989726E+02  0.00000000000E+00 0. -1.
         24    1    1    2    0    0  0.48842696751E+01 -0.10952689928E+02  0.33155629029E+02  0.87808480214E+02  0.80419002446E+02 0.  1.
          1    1    1    2  501    0  0.43132663743E+01 -0.35176060424E+02 -0.31732314818E+02  0.47569941112E+02  0.00000000000E+00 0. -1.
         -2    1    1    2    0  502 -0.91975360493E+01  0.46128750351E+02  0.66232987105E+02  0.81235859442E+02  0.00000000000E+00 0.  1.
<mgrwt>
<rscale>  2 0.81892268E+02</rscale>
<asrwt>0</asrwt>
<pdfrwt beam="1">  1       21 0.21866968E-01 0.81892268E+02</pdfrwt>
<pdfrwt beam="2">  1       21 0.11458306E-01 0.81892268E+02</pdfrwt>
<totfact> 0.12308667E+06</totfact>
</mgrwt>
</event>
<event>
 5    1  0.1994521E+000  0.8252742E+02  0.7546771E-02  0.1322028E+00
         21   -1    0    0  503  502  0.00000000000E+00  0.00000000000E+00  0.21226013083E+04  0.21226013083E+04  0.00000000000E+00 0.  1.
         21   -1    0    0  501  503 -0.00000000000E+00 -0.00000000000E+00 -0.36444551540E+01  0.36444551540E+01  0.00000000000E+00 0.  1.
         24    1    1    2    0    0 -0.21161781866E+02  0.49084015883E+02  0.15503992369E+04  0.15534033834E+04  0.80419002446E+02 0.  1.
          1    1    1    2  501    0  0.22488169324E+02 -0.33465140064E+01  0.13801485700E+03  0.13987500730E+03  0.00000000000E+00 0. -1.
         -2    1    1    2    0  502 -0.13263874578E+01 -0.45737501876E+02  0.43054275916E+03  0.43296737273E+03  0.00000000000E+00 0.  1.
<mgrwt>
<rscale>  2 0.82527418E+02</rscale>
<asrwt>0</asrwt>
<pdfrwt beam="1">  1       21 0.32655306E+00 0.82527418E+02</pdfrwt>
<pdfrwt beam="2">  1       21 0.56068710E-03 0.82527418E+02</pdfrwt>
<totfact> 0.25222055E+05</totfact>
</mgrwt>
</event>
<event>
 5    1  0.1994521E+000  0.6889783E+02  0.7546771E-02  0.1363882E+00
         21   -1    0    0  503  502  0.00000000000E+00  0.00000000000E+00  0.12814988455E+03  0.12814988455E+03  0.00000000000E+00 0. -1.
         21   -1    0    0  501  503 -0.00000000000E+00 -0.00000000000E+00 -0.66569177972E+02  0.66569177972E+02  0.00000000000E+00 0. -1.
         24    1    1    2    0    0  0.38139894128E+02  0.20769730299E+02 -0.13035284038E+01  0.91405406631E+02  0.80419002446E+02 0. -1.
          1    1    1    2  501    0 -0.22481172540E+02 -0.29442826756E+01 -0.11367550797E+02  0.25363223974E+02  0.00000000000E+00 0. -1.
         -2    1    1    2    0  502 -0.15658721588E+02 -0.17825447623E+02  0.74251785779E+02  0.77950431917E+02  0.00000000000E+00 0.  1.
<mgrwt>
<rscale>  2 0.68897834E+02</rscale>
<asrwt>0</asrwt>
<pdfrwt beam="1">  1       21 0.19715367E-01 0.68897834E+02</pdfrwt>
<pdfrwt beam="2">  1       21 0.10241412E-01 0.68897834E+02</pdfrwt>
<totfact> 0.17950320E+06</totfact>
</mgrwt>
</event>
<event>
 5    1  0.2077222E+000  0.7775255E+02  0.7546771E-02  0.1335553E+00
         21   -1    0    0  503  502  0.00000000000E+00  0.00000000000E+00  0.36485587024E+03  0.36485587024E+03  0.00000000000E+00 0.  1.
         21   -1    0    0  501  503 -0.00000000000E+00 -0.00000000000E+00 -0.18019775508E+03  0.18019775508E+03  0.00000000000E+00 0. -1.
         24    1    1    2    0    0  0.41604411633E+02  0.73149033014E+01  0.11022163988E+03  0.14283018144E+03  0.80419002446E+02 0. -1.
          1    1    1    2  501    0 -0.24499809220E+02 -0.28405660244E+02 -0.16095625795E+03  0.16526959539E+03  0.00000000000E+00 0. -1.
         -2    1    1    2    0  502 -0.17104602413E+02  0.21090756943E+02  0.23539273323E+03  0.23695384848E+03  0.00000000000E+00 0.  1.
<mgrwt>
<rscale>  2 0.77752552E+02</rscale>
<asrwt>0</asrwt>
<pdfrwt beam="1">  1       21 0.56131672E-01 0.77752552E+02</pdfrwt>
<pdfrwt beam="2">  1       21 0.27722732E-01 0.77752552E+02</pdfrwt>
<totfact> 0.39923444E+04</totfact>
</mgrwt>
</event>
<event>
 5    1  0.1994521E+000  0.1093822E+03  0.7546771E-02  0.1261718E+00
         21   -1    0    0  501  502  0.00000000000E+00  0.00000000000E+00  0.44947813371E+03  0.44947813371E+03  0.00000000000E+00 0.  1.
         21   -1    0    0  502  503 -0.00000000000E+00 -0.00000000000E+00 -0.54321259950E+02  0.54321259950E+02  0.00000000000E+00 0. -1.
         24    1    1    2    0    0 -0.49990823357E+02  0.37920727910E+02  0.13498495671E+03  0.16918988893E+03  0.80419002446E+02 0.  0.
          1    1    1    2  501    0  0.48794652973E+01  0.32646276832E+02  0.24775002549E+03  0.24993932004E+03  0.00000000000E+00 0. -1.
         -2    1    1    2    0  503  0.45111358059E+02 -0.70567004742E+02  0.12421891558E+02  0.84670184682E+02  0.00000000000E+00 0.  1.
<mgrwt>
<rscale>  2 0.10938216E+03</rscale>
<asrwt>0</asrwt>
<pdfrwt beam="1">  1       21 0.69150480E-01 0.10938216E+03</pdfrwt>
<pdfrwt beam="2">  1       21 0.83571172E-02 0.10938216E+03</pdfrwt>
<totfact> 0.21666891E+05</totfact>
</mgrwt>
</event>
<event>
 5    1  0.1994521E+000  0.1204545E+03  0.7546771E-02  0.1242349E+00
         21   -1    0    0  501  502  0.00000000000E+00  0.00000000000E+00  0.17158567528E+04  0.17158567528E+04  0.00000000000E+00 0. -1.
         21   -1    0    0  502  503 -0.00000000000E+00 -0.00000000000E+00 -0.22214829054E+02  0.22214829054E+02  0.00000000000E+00 0.  1.
         24    1    1    2    0    0  0.10387639728E+03 -0.19391056416E+02  0.15574575266E+04  0.15631082758E+04  0.80419002446E+02 0. -1.
          1    1    1    2  501    0 -0.81235615061E+02  0.52101094600E+01  0.11486153291E+03  0.14078189563E+03  0.00000000000E+00 0. -1.
         -2    1    1    2    0  503 -0.22640782217E+02  0.14180946956E+02  0.21322864298E+02  0.34181410413E+02  0.00000000000E+00 0.  1.
<mgrwt>
<rscale>  2 0.12045454E+03</rscale>
<asrwt>0</asrwt>
<pdfrwt beam="1">  1       21 0.26397786E+00 0.12045454E+03</pdfrwt>
<pdfrwt beam="2">  1       21 0.34176673E-02 0.12045454E+03</pdfrwt>
<totfact> 0.30209951E+04</totfact>
</mgrwt>
</event>
<event>
 5    1  0.1994521E+000  0.7676349E+02  0.7546771E-02  0.1338495E+00
         21   -1    0    0  503  502  0.00000000000E+00  0.00000000000E+00  0.88550795608E+01  0.88550795608E+01  0.00000000000E+00 0. -1.
         21   -1    0    0  501  503 -0.00000000000E+00 -0.00000000000E+00 -0.71572453283E+03  0.71572453283E+03  0.00000000000E+00 0.  1.
         24    1    1    2    0    0  0.28428072031E+02 -0.40281441653E+02 -0.49764397301E+03  0.50650517238E+03  0.80419002446E+02 0.  1.
          1    1    1    2  501    0  0.40300621791E+01  0.21130185535E+02 -0.10658025245E+03  0.10872937208E+03  0.00000000000E+00 0. -1.
         -2    1    1    2    0  502 -0.32458134210E+02  0.19151256118E+02 -0.10264522781E+03  0.10934506793E+03  0.00000000000E+00 0.  1.
<mgrwt>
<rscale>  2 0.76763491E+02</rscale>
<asrwt>0</asrwt>
<pdfrwt beam="1">  1       21 0.13623201E-02 0.76763491E+02</pdfrwt>
<pdfrwt beam="2">  1       21 0.11011146E+00 0.76763491E+02</pdfrwt>
<totfact> 0.14871438E+06</totfact>
</mgrwt>
</event>
<event>
 5    1  0.1994521E+000  0.6952245E+02  0.7546771E-02  0.1361725E+00
         21   -1    0    0  503  502  0.00000000000E+00  0.00000000000E+00  0.96464689377E+02  0.96464689377E+02  0.00000000000E+00 0. -1.
         21   -1    0    0  501  503 -0.00000000000E+00 -0.00000000000E+00 -0.86002114732E+02  0.86002114732E+02  0.00000000000E+00 0. -1.
         24    1    1    2    0    0  0.32100973394E+02 -0.16881469608E+02  0.22215760047E+01  0.88247424117E+02  0.80419002446E+02 0. -1.
          1    1    1    2  501    0 -0.28259758542E+02 -0.49228805252E+01 -0.35232250347E+02  0.45433029505E+02  0.00000000000E+00 0. -1.
         -2    1    1    2    0  502 -0.38412148519E+01  0.21804350133E+02  0.43473248987E+02  0.48786350487E+02  0.00000000000E+00 0.  1.
<mgrwt>
<rscale>  2 0.69522455E+02</rscale>
<asrwt>0</asrwt>
<pdfrwt beam="1">  1       21 0.14840721E-01 0.69522455E+02</pdfrwt>
<pdfrwt beam="2">  1       21 0.13231095E-01 0.69522455E+02</pdfrwt>
<totfact> 0.19137956E+06</totfact>
</mgrwt>
</event>
<event>
 5    1  0.1994521E+000  0.8526812E+02  0.7546771E-02  0.1314733E+00
         21   -1    0    0  501  502  0.00000000000E+00  0.00000000000E+00  0.25278222689E+04  0.25278222689E+04  0.00000000000E+00 0. -1.
         21   -1    0    0  502  503 -0.00000000000E+00 -0.00000000000E+00 -0.14886626534E+02  0.14886626534E+02  0.00000000000E+00 0.  1.
         24    1    1    2    0    0 -0.65516556083E+02 -0.95261702596E+01  0.45763592038E+03  0.46934104723E+03  0.80419002446E+02 0.  0.
          1    1    1    2  501    0  0.41938228311E+02  0.38183116499E+01  0.20474313022E+04  0.20478643343E+04  0.00000000000E+00 0. -1.
         -2    1    1    2    0  503  0.23578327772E+02  0.57078586097E+01  0.78684197684E+01  0.25503513877E+02  0.00000000000E+00 0.  1.
<mgrwt>
<rscale>  2 0.85268118E+02</rscale>
<asrwt>0</asrwt>
<pdfrwt beam="1">  1       21 0.38889539E+00 0.85268118E+02</pdfrwt>
<pdfrwt beam="2">  1       21 0.22902522E-02 0.85268118E+02</pdfrwt>
<totfact> 0.12235164E+04</totfact>
</mgrwt>
</event>
<event>
 5    1  0.1994521E+000  0.7922381E+02  0.7546771E-02  0.1331269E+00
         21   -1    0    0  501  502  0.00000000000E+00  0.00000000000E+00  0.91033453028E+01  0.91033453028E+01  0.00000000000E+00 0. -1.
         21   -1    0    0  502  503 -0.00000000000E+00 -0.00000000000E+00 -0.14631012275E+04  0.14631012275E+04  0.00000000000E+00 0. -1.
         24    1    1    2    0    0  0.41599155390E+02  0.12030889598E+02 -0.12189940393E+04  0.12224111075E+04  0.80419002446E+02 0. -1.
          1    1    1    2  501    0 -0.28255159843E+02 -0.32255275335E+02 -0.63723690543E+02  0.76807978629E+02  0.00000000000E+00 0. -1.
         -2    1    1    2    0  503 -0.13343995547E+02  0.20224385737E+02 -0.17128015239E+03  0.17298548667E+03  0.00000000000E+00 0.  1.
<mgrwt>
<rscale>  2 0.79223815E+02</rscale>
<asrwt>0</asrwt>
<pdfrwt beam="1">  1       21 0.14005151E-02 0.79223815E+02</pdfrwt>
<pdfrwt beam="2">  1       21 0.22509243E+00 0.79223815E+02</pdfrwt>
<totfact> 0.22144357E+05</totfact>
</mgrwt>
</event>
<event>
 5    1  0.1994521E+000  0.8133529E+02  0.7546771E-02  0.1325304E+00
         21   -1    0    0  503  502  0.00000000000E+00  0.00000000000E+00  0.83249638806E+02  0.83249638806E+02  0.00000000000E+00 0.  1.
         21   -1    0    0  501  503 -0.00000000000E+00 -0.00000000000E+00 -0.24821900525E+03  0.24821900525E+03  0.00000000000E+00 0. -1.
         24    1    1    2    0    0 -0.86634150800E+01 -0.24192901247E+02 -0.17763017200E+03  0.19667243119E+03  0.80419002446E+02 0. -1.
          1    1    1    2  501    0  0.32857515403E+02  0.38122335029E+02 -0.47040929802E+02  0.68889606060E+02  0.00000000000E+00 0. -1.
         -2    1    1    2    0  502 -0.24194100323E+02 -0.13929433782E+02  0.59701735357E+02  0.65906606805E+02  0.00000000000E+00 0.  1.
<mgrwt>
<rscale>  2 0.81335287E+02</rscale>
<asrwt>0</asrwt>
<pdfrwt beam="1">  1       21 0.12807637E-01 0.81335287E+02</pdfrwt>
<pdfrwt beam="2">  1       21 0.38187539E-01 0.81335287E+02</pdfrwt>
<totfact> 0.35169926E+05</totfact>
</mgrwt>
</event>
<event>
 5    1  0.1994521E+000  0.8795715E+02  0.7546771E-02  0.1307876E+00
         21   -1    0    0  501  502  0.00000000000E+00  0.00000000000E+00  0.42192027439E+02  0.42192027439E+02  0.00000000000E+00 0.  1.
         21   -1    0    0  502  503 -0.00000000000E+00 -0.00000000000E+00 -0.30252544158E+03  0.30252544158E+03  0.00000000000E+00 0. -1.
         24    1    1    2    0    0  0.24398298194E+02  0.62379487333E+02 -0.46264932661E+02  0.11442961742E+03  0.80419002446E+02 0. -1.
          1    1    1    2  501    0 -0.25220583841E+02 -0.31447910268E+02 -0.54735262790E+02  0.67977922167E+02  0.00000000000E+00 0. -1.
         -2    1    1    2    0  503  0.82228564715E+00 -0.30931577065E+02 -0.15933321869E+03  0.16230992943E+03  0.00000000000E+00 0.  1.
<mgrwt>
<rscale>  2 0.87957147E+02</rscale>
<asrwt>0</asrwt>
<pdfrwt beam="1">  1       21 0.64910810E-02 0.87957147E+02</pdfrwt>
<pdfrwt beam="2">  1       21 0.46542376E-01 0.87957147E+02</pdfrwt>
<totfact> 0.76376487E+05</totfact>
</mgrwt>
</event>
<event>
 5    1  0.1994521E+000  0.1337874E+03  0.7546771E-02  0.1221942E+00
         21   -1    0    0  501  502  0.00000000000E+00  0.00000000000E+00  0.87915615547E+02  0.87915615547E+02  0.00000000000E+00 0. -1.
         21   -1    0    0  502  503 -0.00000000000E+00 -0.00000000000E+00 -0.22077974537E+03  0.22077974537E+03  0.00000000000E+00 0. -1.
         24    1    1    2    0    0 -0.11939925713E+03  0.13747825763E+02 -0.31442907351E+02  0.14799005944E+03  0.80419002446E+02 0. -1.
          1    1    1    2  501    0  0.80137461995E+02  0.31972286167E+01 -0.53135076905E+02  0.96205880712E+02  0.00000000000E+00 0. -1.
         -2    1    1    2    0  503  0.39261795134E+02 -0.16945054380E+02 -0.48286145563E+02  0.64499420761E+02  0.00000000000E+00 0.  1.
<mgrwt>
<rscale>  2 0.13378742E+03</rscale>
<asrwt>0</asrwt>
<pdfrwt beam="1">  1       21 0.13525480E-01 0.13378742E+03</pdfrwt>
<pdfrwt beam="2">  1       21 0.33966114E-01 0.13378742E+03</pdfrwt>
<totfact> 0.39913367E+05</totfact>
</mgrwt>
</event>
<event>
 5    1  0.1994521E+000  0.2107519E+03  0.7546771E-02  0.1140972E+00
         21   -1    0    0  503  502  0.00000000000E+00  0.00000000000E+00  0.92132148132E+03  0.92132148132E+03  0.00000000000E+00 0.  1.
         21   -1    0    0  501  503 -0.00000000000E+00 -0.00000000000E+00 -0.12770283568E+03  0.12770283568E+03  0.00000000000E+00 0. -1.
         24    1    1    2    0    0  0.64004168988E+02  0.16792215321E+03  0.43564971508E+03  0.47807141035E+03  0.80419002446E+02 0.  1.
          1    1    1    2  501    0  0.21409345302E+02  0.12651871175E+02 -0.83109230044E+02  0.86750066449E+02  0.00000000000E+00 0. -1.
         -2    1    1    2    0  502 -0.85413514290E+02 -0.18057402438E+03  0.44107816060E+03  0.48420284020E+03  0.00000000000E+00 0.  1.
<mgrwt>
<rscale>  2 0.21075194E+03</rscale>
<asrwt>0</asrwt>
<pdfrwt beam="1">  1       21 0.14174176E+00 0.21075194E+03</pdfrwt>
<pdfrwt beam="2">  1       21 0.19646591E-01 0.21075194E+03</pdfrwt>
<totfact> 0.81575810E+03</totfact>
</mgrwt>
</event>
<event>
 5    1  0.1994521E+000  0.7325682E+02  0.7546771E-02  0.1349356E+00
         21   -1    0    0  503  502  0.00000000000E+00  0.00000000000E+00  0.17813744908E+03  0.17813744908E+03  0.00000000000E+00 0. -1.
         21   -1    0    0  501  503 -0.00000000000E+00 -0.00000000000E+00 -0.36578634084E+02  0.36578634084E+02  0.00000000000E+00 0.  1.
         24    1    1    2    0    0  0.31047604056E+02  0.13634950124E+02  0.77458381759E+02  0.11669139832E+03  0.80419002446E+02 0. -1.
          1    1    1    2  501    0 -0.14462592867E+02  0.18256904677E+02 -0.13738925141E+01  0.23331711070E+02  0.00000000000E+00 0. -1.
         -2    1    1    2    0  502 -0.16585011189E+02 -0.31891854801E+02  0.65474325749E+02  0.74692973773E+02  0.00000000000E+00 0.  1.
<mgrwt>
<rscale>  2 0.73256824E+02</rscale>
<asrwt>0</asrwt>
<pdfrwt beam="1">  1       21 0.27405761E-01 0.73256824E+02</pdfrwt>
<pdfrwt beam="2">  1       21 0.56274823E-02 0.73256824E+02</pdfrwt>
<totfact> 0.27015759E+06</totfact>
</mgrwt>
</event>
<event>
 5    1  0.1994521E+000  0.6882212E+02  0.7546771E-02  0.1364145E+00
         21   -1    0    0  503  502  0.00000000000E+00  0.00000000000E+00  0.13683725365E+03  0.13683725365E+03  0.00000000000E+00 0.  1.
         21   -1    0    0  501  503 -0.00000000000E+00 -0.00000000000E+00 -0.46611839485E+02  0.46611839485E+02  0.00000000000E+00 0.  1.
         24    1    1    2    0    0 -0.95674213499E+01  0.55744436720E+01  0.11429502268E+02  0.81978408438E+02  0.80419002446E+02 0.  1.
          1    1    1    2  501    0 -0.23264655481E+02 -0.39214779912E+01  0.10804642539E+02  0.25949228981E+02  0.00000000000E+00 0. -1.
         -2    1    1    2    0  502  0.32832076831E+02 -0.16529656808E+01  0.67991269359E+02  0.75521455717E+02  0.00000000000E+00 0.  1.
<mgrwt>
<rscale>  2 0.68822123E+02</rscale>
<asrwt>0</asrwt>
<pdfrwt beam="1">  1       21 0.21051885E-01 0.68822123E+02</pdfrwt>
<pdfrwt beam="2">  1       21 0.71710523E-02 0.68822123E+02</pdfrwt>
<totfact> 0.29222920E+06</totfact>
</mgrwt>
</event>
<event>
 5    1  0.1994521E+000  0.8825597E+02  0.7546771E-02  0.1307131E+00
         21   -1    0    0  501  502  0.00000000000E+00  0.00000000000E+00  0.18100688717E+03  0.18100688717E+03  0.00000000000E+00 0. -1.
         21   -1    0    0  502  503 -0.00000000000E+00 -0.00000000000E+00 -0.45641084991E+02  0.45641084991E+02  0.00000000000E+00 0.  1.
         24    1    1    2    0    0  0.60533750878E+02 -0.31840225271E+02  0.54152012842E+02  0.11864986890E+03  0.80419002446E+02 0.  1.
          1    1    1    2  501    0 -0.32118042928E+02  0.62925310395E+01  0.32992370160E+02  0.46472154213E+02  0.00000000000E+00 0. -1.
         -2    1    1    2    0  503 -0.28415707950E+02  0.25547694231E+02  0.48221419173E+02  0.61525949045E+02  0.00000000000E+00 0.  1.
<mgrwt>
<rscale>  2 0.88255968E+02</rscale>
<asrwt>0</asrwt>
<pdfrwt beam="1">  1       21 0.27847213E-01 0.88255968E+02</pdfrwt>
<pdfrwt beam="2">  1       21 0.70217055E-02 0.88255968E+02</pdfrwt>
<totfact> 0.18230420E+06</totfact>
</mgrwt>
</event>
<event>
 5    1  0.1994521E+000  0.9243562E+02  0.7546771E-02  0.1297058E+00
         21   -1    0    0  501  502  0.00000000000E+00  0.00000000000E+00  0.17289016834E+04  0.17289016834E+04  0.00000000000E+00 0. -1.
         21   -1    0    0  502  503 -0.00000000000E+00 -0.00000000000E+00 -0.52228201533E+01  0.52228201533E+01  0.00000000000E+00 0. -1.
         24    1    1    2    0    0 -0.56281591930E+01  0.69138823307E+02  0.10155805099E+04  0.10211184266E+04  0.80419002446E+02 0. -1.
          1    1    1    2  501    0 -0.14190405814E+02 -0.46318090223E+02  0.54357767397E+03  0.54573200450E+03  0.00000000000E+00 0. -1.
         -2    1    1    2    0  503  0.19818565007E+02 -0.22820733084E+02  0.16452067933E+03  0.16727407242E+03  0.00000000000E+00 0.  1.
<mgrwt>
<rscale>  2 0.92435615E+02</rscale>
<asrwt>0</asrwt>
<pdfrwt beam="1">  1       21 0.26598442E+00 0.92435615E+02</pdfrwt>
<pdfrwt beam="2">  1       21 0.80351217E-03 0.92435615E+02</pdfrwt>
<totfact> 0.30679787E+05</totfact>
</mgrwt>
</event>
<event>
 5    1  0.1994521E+000  0.7128047E+02  0.7546771E-02  0.1355792E+00
         21   -1    0    0  503  502  0.00000000000E+00  0.00000000000E+00  0.20405385400E+04  0.20405385400E+04  0.00000000000E+00 0.  1.
         21   -1    0    0  501  503 -0.00000000000E+00 -0.00000000000E+00 -0.46940063358E+01  0.46940063358E+01  0.00000000000E+00 0. -1.
         24    1    1    2    0    0  0.11620699506E+02  0.14403786466E+02  0.45023033300E+03  0.45773035559E+03  0.80419002446E+02 0.  0.
          1    1    1    2  501    0  0.22333703042E+02  0.18216943745E+01  0.18069709721E+03  0.18208117366E+03  0.00000000000E+00 0. -1.
         -2    1    1    2    0  502 -0.33954402548E+02 -0.16225480841E+02  0.14049171034E+04  0.14054210171E+04  0.00000000000E+00 0.  1.
<mgrwt>
<rscale>  2 0.71280470E+02</rscale>
<asrwt>0</asrwt>
<pdfrwt beam="1">  1       21 0.31392830E+00 0.71280470E+02</pdfrwt>
<pdfrwt beam="2">  1       21 0.72215645E-03 0.71280470E+02</pdfrwt>
<totfact> 0.20430314E+05</totfact>
</mgrwt>
</event>
<event>
 5    1  0.1994521E+000  0.6707778E+02  0.7546771E-02  0.1370322E+00
         21   -1    0    0  503  502  0.00000000000E+00  0.00000000000E+00  0.15037030448E+03  0.15037030448E+03  0.00000000000E+00 0. -1.
         21   -1    0    0  501  503 -0.00000000000E+00 -0.00000000000E+00 -0.40119754668E+02  0.40119754668E+02  0.00000000000E+00 0.  1.
         24    1    1    2    0    0 -0.12809025374E+02  0.12057297889E+02  0.37990344752E+02  0.90663839606E+02  0.80419002446E+02 0.  0.
          1    1    1    2  501    0  0.27835922930E+02  0.58645711930E+01  0.53493530454E+01  0.28945593424E+02  0.00000000000E+00 0. -1.
         -2    1    1    2    0  502 -0.15026897557E+02 -0.17921869082E+02  0.66910852016E+02  0.70880626120E+02  0.00000000000E+00 0.  1.
<mgrwt>
<rscale>  2 0.67077779E+02</rscale>
<asrwt>0</asrwt>
<pdfrwt beam="1">  1       21 0.23133893E-01 0.67077779E+02</pdfrwt>
<pdfrwt beam="2">  1       21 0.61722700E-02 0.67077779E+02</pdfrwt>
<totfact> 0.31563542E+06</totfact>
</mgrwt>
</event>
<event>
 5    1  0.1994521E+000  0.8792505E+02  0.7546771E-02  0.1307956E+00
         21   -1    0    0  503  502  0.00000000000E+00  0.00000000000E+00  0.67247116520E+01  0.67247116520E+01  0.00000000000E+00 0. -1.
         21   -1    0    0  501  503 -0.00000000000E+00 -0.00000000000E+00 -0.13879453577E+04  0.13879453577E+04  0.00000000000E+00 0.  1.
         24    1    1    2    0    0 -0.40655412223E+02 -0.12546933849E+02 -0.56940310718E+03  0.57662587742E+03  0.80419002446E+02 0.  0.
          1    1    1    2  501    0 -0.12093741264E+02 -0.19647757150E+02 -0.47788571146E+03  0.47844231225E+03  0.00000000000E+00 0. -1.
         -2    1    1    2    0  502  0.52749153488E+02  0.32194690999E+02 -0.33393182739E+03  0.33960187966E+03  0.00000000000E+00 0.  1.
<mgrwt>
<rscale>  2 0.87925045E+02</rscale>
<asrwt>0</asrwt>
<pdfrwt beam="1">  1       21 0.10345698E-02 0.87925045E+02</pdfrwt>
<pdfrwt beam="2">  1       21 0.21353031E+00 0.87925045E+02</pdfrwt>
<totfact> 0.41328837E+05</totfact>
</mgrwt>
</event>
<event>
 5    1  0.1994521E+000  0.9641124E+02  0.7546771E-02  0.1288029E+00
         21   -1    0    0  503  502  0.00000000000E+00  0.00000000000E+00  0.26093812567E+03  0.26093812567E+03  0.00000000000E+00 0.  1.
         21   -1    0    0  501  503 -0.00000000000E+00 -0.00000000000E+00 -0.40086956735E+02  0.40086956735E+02  0.00000000000E+00 0.  1.
         24    1    1    2    0    0  0.32277753247E+00 -0.17025639313E+01  0.12121572501E+03  0.14547670210E+03  0.80419002446E+02 0.  0.
          1    1    1    2  501    0  0.38270003279E+02  0.41840604695E+02  0.23869788832E+02  0.61522322543E+02  0.00000000000E+00 0. -1.
         -2    1    1    2    0  502 -0.38592780811E+02 -0.40138040764E+02  0.75765655098E+02  0.94026057769E+02  0.00000000000E+00 0.  1.
<mgrwt>
<rscale>  2 0.96411241E+02</rscale>
<asrwt>0</asrwt>
<pdfrwt beam="1">  1       21 0.40144326E-01 0.96411241E+02</pdfrwt>
<pdfrwt beam="2">  1       21 0.61672243E-02 0.96411241E+02</pdfrwt>
<totfact> 0.11208310E+06</totfact>
</mgrwt>
</event>
<event>
 5    1  0.1994521E+000  0.7921268E+02  0.7546771E-02  0.1331301E+00
         21   -1    0    0  501  502  0.00000000000E+00  0.00000000000E+00  0.32411934843E+02  0.32411934843E+02  0.00000000000E+00 0. -1.
         21   -1    0    0  502  503 -0.00000000000E+00 -0.00000000000E+00 -0.28492107907E+03  0.28492107907E+03  0.00000000000E+00 0. -1.
         24    1    1    2    0    0  0.23720976188E+02  0.34308932272E+02 -0.20371740970E+03  0.22295243106E+03  0.80419002446E+02 0. -1.
          1    1    1    2  501    0  0.82273766492E+01 -0.34922556486E+02  0.21167301896E+00  0.35879234712E+02  0.00000000000E+00 0. -1.
         -2    1    1    2    0  503 -0.31948352837E+02  0.61362421368E+00 -0.49003407545E+02  0.58501348144E+02  0.00000000000E+00 0.  1.
<mgrwt>
<rscale>  2 0.79212684E+02</rscale>
<asrwt>0</asrwt>
<pdfrwt beam="1">  1       21 0.49864516E-02 0.79212684E+02</pdfrwt>
<pdfrwt beam="2">  1       21 0.43834012E-01 0.79212684E+02</pdfrwt>
<totfact> 0.13359581E+06</totfact>
</mgrwt>
</event>
<event>
 5    1  0.1994521E+000  0.1161665E+03  0.7546771E-02  0.1249559E+00
         21   -1    0    0  501  502  0.00000000000E+00  0.00000000000E+00  0.10729953730E+03  0.10729953730E+03  0.00000000000E+00 0.  1.
         21   -1    0    0  502  503 -0.00000000000E+00 -0.00000000000E+00 -0.21157268946E+03  0.21157268946E+03  0.00000000000E+00 0.  1.
         24    1    1    2    0    0  0.55724080585E+02  0.14680886193E+02  0.34418858451E+02  0.10475006133E+03  0.80419002446E+02 0.  1.
          1    1    1    2  501    0  0.30092270074E+02 -0.34031749578E+02  0.49349829108E+01  0.45695281528E+02  0.00000000000E+00 0. -1.
         -2    1    1    2    0  503 -0.85816350660E+02  0.19350863385E+02 -0.14362699352E+03  0.16842688391E+03  0.00000000000E+00 0.  1.
<mgrwt>
<rscale>  2 0.11616648E+03</rscale>
<asrwt>0</asrwt>
<pdfrwt beam="1">  1       21 0.16507621E-01 0.11616648E+03</pdfrwt>
<pdfrwt beam="2">  1       21 0.32549644E-01 0.11616648E+03</pdfrwt>
<totfact> 0.30374545E+05</totfact>
</mgrwt>
</event>
<event>
 5    1  0.1994521E+000  0.8241162E+02  0.7546771E-02  0.1322344E+00
         21   -1    0    0  503  502  0.00000000000E+00  0.00000000000E+00  0.19236204027E+03  0.19236204027E+03  0.00000000000E+00 0.  1.
         21   -1    0    0  501  503 -0.00000000000E+00 -0.00000000000E+00 -0.12831594944E+03  0.12831594944E+03  0.00000000000E+00 0. -1.
         24    1    1    2    0    0  0.12509028839E+02  0.78715235304E+00 -0.80570741653E+02  0.11452491334E+03  0.80419002446E+02 0. -1.
          1    1    1    2  501    0 -0.41477016222E+02  0.21654478121E+02 -0.94962311403E+01  0.47743457177E+02  0.00000000000E+00 0. -1.
         -2    1    1    2    0  502  0.28967987383E+02 -0.22441630474E+02  0.15411306363E+03  0.15840961919E+03  0.00000000000E+00 0.  1.
<mgrwt>
<rscale>  2 0.82411617E+02</rscale>
<asrwt>0</asrwt>
<pdfrwt beam="1">  1       21 0.29594160E-01 0.82411617E+02</pdfrwt>
<pdfrwt beam="2">  1       21 0.19740915E-01 0.82411617E+02</pdfrwt>
<totfact> 0.26518598E+05</totfact>
</mgrwt>
</event>
<event>
 5    1  0.1994521E+000  0.1181481E+03  0.7546771E-02  0.1246184E+00
         21   -1    0    0  503  502  0.00000000000E+00  0.00000000000E+00  0.35812925211E+03  0.35812925211E+03  0.00000000000E+00 0.  1.
         21   -1    0    0  501  503 -0.00000000000E+00 -0.00000000000E+00 -0.10764882423E+03  0.10764882423E+03  0.00000000000E+00 0.  1.
         24    1    1    2    0    0 -0.57642056377E+02 -0.85227071454E+02 -0.35780706711E+02  0.13540212443E+03  0.80419002446E+02 0.  0.
          1    1    1    2  501    0  0.36576473190E+02  0.72207522831E+02  0.55158126371E+02  0.97949903773E+02  0.00000000000E+00 0. -1.
         -2    1    1    2    0  502  0.21065583188E+02  0.13019548623E+02  0.23110300823E+03  0.23242604814E+03  0.00000000000E+00 0.  1.
<mgrwt>
<rscale>  2 0.11814808E+03</rscale>
<asrwt>0</asrwt>
<pdfrwt beam="1">  1       21 0.55096807E-01 0.11814808E+03</pdfrwt>
<pdfrwt beam="2">  1       21 0.16561358E-01 0.11814808E+03</pdfrwt>
<totfact> 0.10471154E+05</totfact>
</mgrwt>
</event>
<event>
 5    1  0.1994521E+000  0.8437524E+02  0.7546771E-02  0.1317074E+00
         21   -1    0    0  501  502  0.00000000000E+00  0.00000000000E+00  0.62527457291E+02  0.62527457291E+02  0.00000000000E+00 0.  1.
         21   -1    0    0  502  503 -0.00000000000E+00 -0.00000000000E+00 -0.12369156259E+03  0.12369156259E+03  0.00000000000E+00 0. -1.
         24    1    1    2    0    0  0.39251333430E+02  0.24185430516E+02 -0.56943807933E+02  0.10879069556E+03  0.80419002446E+02 0. -1.
          1    1    1    2  501    0  0.91244931075E+00 -0.34559132013E+02  0.50090124009E+01  0.34932168190E+02  0.00000000000E+00 0. -1.
         -2    1    1    2    0  503 -0.40163782741E+02  0.10373701497E+02 -0.92293097699E+01  0.42496156128E+02  0.00000000000E+00 0.  1.
<mgrwt>
<rscale>  2 0.84375236E+02</rscale>
<asrwt>0</asrwt>
<pdfrwt beam="1">  1       21 0.96196090E-02 0.84375236E+02</pdfrwt>
<pdfrwt beam="2">  1       21 0.19029471E-01 0.84375236E+02</pdfrwt>
<totfact> 0.21522324E+06</totfact>
</mgrwt>
</event>
<event>
 5    1  0.1994521E+000  0.7896986E+02  0.7546771E-02  0.1332001E+00
         21   -1    0    0  501  502  0.00000000000E+00  0.00000000000E+00  0.14528276459E+04  0.14528276459E+04  0.00000000000E+00 0. -1.
         21   -1    0    0  502  503 -0.00000000000E+00 -0.00000000000E+00 -0.74418559823E+01  0.74418559823E+01  0.00000000000E+00 0.  1.
         24    1    1    2    0    0  0.13399136215E+02  0.37710882350E+02  0.10123882334E+04  0.10163654848E+04  0.80419002446E+02 0. -1.
          1    1    1    2  501    0  0.66304510084E+01 -0.45971147246E+02  0.40877617114E+03  0.41140645030E+03  0.00000000000E+00 0. -1.
         -2    1    1    2    0  503 -0.20029587224E+02  0.82602648960E+01  0.24221385377E+02  0.32497566833E+02  0.00000000000E+00 0.  1.
<mgrwt>
<rscale>  2 0.78969857E+02</rscale>
<asrwt>0</asrwt>
<pdfrwt beam="1">  1       21 0.22351172E+00 0.78969857E+02</pdfrwt>
<pdfrwt beam="2">  1       21 0.11449021E-02 0.78969857E+02</pdfrwt>
<totfact> 0.31032941E+05</totfact>
</mgrwt>
</event>
<event>
 5    1  0.1994521E+000  0.9185996E+02  0.7546771E-02  0.1298409E+00
         21   -1    0    0  501  502  0.00000000000E+00  0.00000000000E+00  0.24597302093E+03  0.24597302093E+03  0.00000000000E+00 0.  1.
         21   -1    0    0  502  503 -0.00000000000E+00 -0.00000000000E+00 -0.23725178573E+03  0.23725178573E+03  0.00000000000E+00 0.  1.
         24    1    1    2    0    0  0.29417566678E+02  0.33978717757E+02  0.75237300094E+02  0.11894458277E+03  0.80419002446E+02 0.  1.
          1    1    1    2  501    0 -0.53153298076E+02 -0.39253659560E+01  0.14231441476E+03  0.15196734597E+03  0.00000000000E+00 0. -1.
         -2    1    1    2    0  503  0.23735731398E+02 -0.30053351801E+02 -0.20883047965E+03  0.21231287792E+03  0.00000000000E+00 0.  1.
<mgrwt>
<rscale>  2 0.91859955E+02</rscale>
<asrwt>0</asrwt>
<pdfrwt beam="1">  1       21 0.37842003E-01 0.91859955E+02</pdfrwt>
<pdfrwt beam="2">  1       21 0.36500274E-01 0.91859955E+02</pdfrwt>
<totfact> 0.51515674E+04</totfact>
</mgrwt>
</event>
<event>
 5    1  0.1994521E+000  0.1301961E+03  0.7546771E-02  0.1227165E+00
         21   -1    0    0  501  502  0.00000000000E+00  0.00000000000E+00  0.39967627539E+03  0.39967627539E+03  0.00000000000E+00 0. -1.
         21   -1    0    0  502  503 -0.00000000000E+00 -0.00000000000E+00 -0.55331414961E+02  0.55331414961E+02  0.00000000000E+00 0. -1.
         24    1    1    2    0    0 -0.30773437797E+02  0.49289070007E+02  0.45910793660E+02  0.10932261351E+03  0.80419002446E+02 0. -1.
          1    1    1    2  501    0  0.88928321247E+02 -0.68659003171E+01  0.22863763698E+03  0.24541914341E+03  0.00000000000E+00 0. -1.
         -2    1    1    2    0  503 -0.58154883450E+02 -0.42423169690E+02  0.69796429785E+02  0.10026593343E+03  0.00000000000E+00 0.  1.
<mgrwt>
<rscale>  2 0.13019610E+03</rscale>
<asrwt>0</asrwt>
<pdfrwt beam="1">  1       21 0.61488656E-01 0.13019610E+03</pdfrwt>
<pdfrwt beam="2">  1       21 0.85125257E-02 0.13019610E+03</pdfrwt>
<totfact> 0.26871407E+05</totfact>
</mgrwt>
</event>
<event>
 5    1  0.1994521E+000  0.1145348E+03  0.7546771E-02  0.1252395E+00
         21   -1    0    0  501  502  0.00000000000E+00  0.00000000000E+00  0.94610367009E+03  0.94610367009E+03  0.00000000000E+00 0.  1.
         21   -1    0    0  502  503 -0.00000000000E+00 -0.00000000000E+00 -0.15455973817E+02  0.15455973817E+02  0.00000000000E+00 0. -1.
         24    1    1    2    0    0  0.96553100056E+01 -0.58655898567E+02  0.56177042900E+03  0.57060228732E+03  0.80419002446E+02 0.  1.
          1    1    1    2  501    0 -0.57459289218E+02  0.57272388391E+01  0.18158026223E+03  0.19054071170E+03  0.00000000000E+00 0. -1.
         -2    1    1    2    0  503  0.47803979212E+02  0.52928659728E+02  0.18729700504E+03  0.20041664488E+03  0.00000000000E+00 0.  1.
<mgrwt>
<rscale>  2 0.11453482E+03</rscale>
<asrwt>0</asrwt>
<pdfrwt beam="1">  1       21 0.14555437E+00 0.11453482E+03</pdfrwt>
<pdfrwt beam="2">  1       21 0.23778429E-02 0.11453482E+03</pdfrwt>
<totfact> 0.30797873E+05</totfact>
</mgrwt>
</event>
<event>
 5    1  0.1994521E+000  0.8578728E+02  0.7546771E-02  0.1313386E+00
         21   -1    0    0  503  502  0.00000000000E+00  0.00000000000E+00  0.85843911076E+02  0.85843911076E+02  0.00000000000E+00 0. -1.
         21   -1    0    0  501  503 -0.00000000000E+00 -0.00000000000E+00 -0.12321287667E+03  0.12321287667E+03  0.00000000000E+00 0.  1.
         24    1    1    2    0    0 -0.28074272890E+00 -0.50803893943E+02 -0.68184273232E+02  0.11703600099E+03  0.80419002446E+02 0.  0.
          1    1    1    2  501    0  0.25257481929E+02  0.73057677021E+01 -0.91997987706E+01  0.27855895830E+02  0.00000000000E+00 0. -1.
         -2    1    1    2    0  502 -0.24976739200E+02  0.43498126241E+02  0.40015106406E+02  0.64164890931E+02  0.00000000000E+00 0.  1.
<mgrwt>
<rscale>  2 0.85787284E+02</rscale>
<asrwt>0</asrwt>
<pdfrwt beam="1">  1       21 0.13206756E-01 0.85787284E+02</pdfrwt>
<pdfrwt beam="2">  1       21 0.18955827E-01 0.85787284E+02</pdfrwt>
<totfact> 0.12477817E+06</totfact>
</mgrwt>
</event>
<event>
 5    1  0.1994521E+000  0.3086422E+03  0.7546771E-02  0.1080999E+00
         21   -1    0    0  501  502  0.00000000000E+00  0.00000000000E+00  0.36278597420E+03  0.36278597420E+03  0.00000000000E+00 0. -1.
         21   -1    0    0  502  503 -0.00000000000E+00 -0.00000000000E+00 -0.61806258851E+03  0.61806258851E+03  0.00000000000E+00 0.  1.
         24    1    1    2    0    0 -0.18449499209E+03 -0.17102111252E+03 -0.16574257898E+03  0.31180834093E+03  0.80419002446E+02 0.  1.
          1    1    1    2  501    0 -0.21654529719E+02  0.14358374280E+03  0.23933019160E+03  0.27993597566E+03  0.00000000000E+00 0. -1.
         -2    1    1    2    0  503  0.20614952180E+03  0.27437369719E+02 -0.32886422693E+03  0.38910424613E+03  0.00000000000E+00 0.  1.
<mgrwt>
<rscale>  2 0.30864219E+03</rscale>
<asrwt>0</asrwt>
<pdfrwt beam="1">  1       21 0.55813227E-01 0.30864219E+03</pdfrwt>
<pdfrwt beam="2">  1       21 0.95086552E-01 0.30864219E+03</pdfrwt>
<totfact> 0.25785246E+03</totfact>
</mgrwt>
</event>
<event>
 5    1  0.1994521E+000  0.9661730E+02  0.7546771E-02  0.1287575E+00
         21   -1    0    0  503  502  0.00000000000E+00  0.00000000000E+00  0.24819217724E+03  0.24819217724E+03  0.00000000000E+00 0.  1.
         21   -1    0    0  501  503 -0.00000000000E+00 -0.00000000000E+00 -0.47692141284E+02  0.47692141284E+02  0.00000000000E+00 0. -1.
         24    1    1    2    0    0  0.50881796564E+02  0.71210639898E+00  0.13675036071E+03  0.16660534633E+03  0.80419002446E+02 0.  1.
          1    1    1    2  501    0  0.23216630126E+02 -0.53482773684E+01 -0.88723977952E+01  0.25423127814E+02  0.00000000000E+00 0. -1.
         -2    1    1    2    0  502 -0.74098426690E+02  0.46361709694E+01  0.72622073045E+02  0.10385584438E+03  0.00000000000E+00 0.  1.
<mgrwt>
<rscale>  2 0.96617304E+02</rscale>
<asrwt>0</asrwt>
<pdfrwt beam="1">  1       21 0.38183411E-01 0.96617304E+02</pdfrwt>
<pdfrwt beam="2">  1       21 0.73372526E-02 0.96617304E+02</pdfrwt>
<totfact> 0.92201153E+05</totfact>
</mgrwt>
</event>
<event>
 5    1  0.1994521E+000  0.8306076E+02  0.7546771E-02  0.1320583E+00
         21   -1    0    0  503  502  0.00000000000E+00  0.00000000000E+00  0.24011384887E+03  0.24011384887E+03  0.00000000000E+00 0. -1.
         21   -1    0    0  501  503 -0.00000000000E+00 -0.00000000000E+00 -0.39980571562E+02  0.39980571562E+02  0.00000000000E+00 0. -1.
         24    1    1    2    0    0  0.48695282245E+02  0.49983565810E+01  0.51182113087E+02  0.10715894147E+03  0.80419002446E+02 0. -1.
          1    1    1    2  501    0 -0.47859136431E+02  0.16377294959E+02  0.47967182371E+02  0.69710568171E+02  0.00000000000E+00 0. -1.
         -2    1    1    2    0  502 -0.83614581434E+00 -0.21375651540E+02  0.10098398185E+03  0.10322491080E+03  0.00000000000E+00 0.  1.
<mgrwt>
<rscale>  2 0.83060755E+02</rscale>
<asrwt>0</asrwt>
<pdfrwt beam="1">  1       21 0.36940591E-01 0.83060755E+02</pdfrwt>
<pdfrwt beam="2">  1       21 0.61508573E-02 0.83060755E+02</pdfrwt>
<totfact> 0.13214114E+06</totfact>
</mgrwt>
</event>
<event>
 5    1  0.1994521E+000  0.1404188E+03  0.7546771E-02  0.1212767E+00
         21   -1    0    0  501  502  0.00000000000E+00  0.00000000000E+00  0.19290200620E+04  0.19290200620E+04  0.00000000000E+00 0. -1.
         21   -1    0    0  502  503 -0.00000000000E+00 -0.00000000000E+00 -0.10263687404E+03  0.10263687404E+03  0.00000000000E+00 0.  1.
         24    1    1    2    0    0 -0.56755011861E+02  0.37366372604E+02  0.64425012344E+03  0.65279615094E+03  0.80419002446E+02 0.  0.
          1    1    1    2  501    0  0.49981898661E+02 -0.10040236751E+03  0.12675413404E+04  0.12724935659E+04  0.00000000000E+00 0. -1.
         -2    1    1    2    0  503  0.67731131999E+01  0.63035994904E+02 -0.85408275926E+02  0.10636721916E+03  0.00000000000E+00 0.  1.
<mgrwt>
<rscale>  2 0.14041879E+03</rscale>
<asrwt>0</asrwt>
<pdfrwt beam="1">  1       21 0.29677229E+00 0.14041879E+03</pdfrwt>
<pdfrwt beam="2">  1       21 0.15790290E-01 0.14041879E+03</pdfrwt>
<totfact> 0.13762446E+03</totfact>
</mgrwt>
</event>
<event>
 5    1  0.1994521E+000  0.6610964E+02  0.7546771E-02  0.1373845E+00
         21   -1    0    0  503  502  0.00000000000E+00  0.00000000000E+00  0.74527345788E+02  0.74527345788E+02  0.00000000000E+00 0.  1.
         21   -1    0    0  501  503 -0.00000000000E+00 -0.00000000000E+00 -0.10537030284E+03  0.10537030284E+03  0.00000000000E+00 0.  1.
         24    1    1    2    0    0 -0.26951043490E+02  0.54085045224E+01 -0.29096991784E+02  0.89830181741E+02  0.80419002446E+02 0.  1.
          1    1    1    2  501    0  0.12897425537E+02  0.16659851304E+02 -0.39127691832E+02  0.44439515063E+02  0.00000000000E+00 0. -1.
         -2    1    1    2    0  502  0.14053617953E+02 -0.22068355827E+02  0.37381726565E+02  0.45627951822E+02  0.00000000000E+00 0.  1.
<mgrwt>
<rscale>  2 0.66109639E+02</rscale>
<asrwt>0</asrwt>
<pdfrwt beam="1">  1       21 0.11465746E-01 0.66109639E+02</pdfrwt>
<pdfrwt beam="2">  1       21 0.16210816E-01 0.66109639E+02</pdfrwt>
<totfact> 0.20948029E+06</totfact>
</mgrwt>
</event>
<event>
 5    1  0.1994521E+000  0.7573115E+02  0.7546771E-02  0.1341622E+00
         21   -1    0    0  501  502  0.00000000000E+00  0.00000000000E+00  0.10663698551E+04  0.10663698551E+04  0.00000000000E+00 0.  1.
         21   -1    0    0  502  503 -0.00000000000E+00 -0.00000000000E+00 -0.64961956689E+01  0.64961956689E+01  0.00000000000E+00 0. -1.
         24    1    1    2    0    0 -0.19345880864E+02  0.19826240093E+02  0.38871502429E+03  0.39791196132E+03  0.80419002446E+02 0. -1.
          1    1    1    2  501    0 -0.94716266634E+01 -0.33280838888E+02  0.47254860050E+03  0.47381378809E+03  0.00000000000E+00 0. -1.
         -2    1    1    2    0  503  0.28817507528E+02  0.13454598794E+02  0.19861003464E+03  0.20114030136E+03  0.00000000000E+00 0.  1.
<mgrwt>
<rscale>  2 0.75731151E+02</rscale>
<asrwt>0</asrwt>
<pdfrwt beam="1">  1       21 0.16405676E+00 0.75731151E+02</pdfrwt>
<pdfrwt beam="2">  1       21 0.99941557E-03 0.75731151E+02</pdfrwt>
<totfact> 0.90434782E+05</totfact>
</mgrwt>
</event>
<event>
 5    1  0.1994521E+000  0.8208601E+02  0.7546771E-02  0.1323234E+00
         21   -1    0    0  501  502  0.00000000000E+00  0.00000000000E+00  0.54127280728E+03  0.54127280728E+03  0.00000000000E+00 0.  1.
         21   -1    0    0  502  503 -0.00000000000E+00 -0.00000000000E+00 -0.17395990328E+02  0.17395990328E+02  0.00000000000E+00 0.  1.
         24    1    1    2    0    0  0.37690004695E+02  0.11932798811E+02  0.37299219369E+03  0.38360568381E+03  0.80419002446E+02 0.  1.
          1    1    1    2  501    0 -0.29402791297E+02 -0.37518156396E+02  0.13645835201E+03  0.14454417327E+03  0.00000000000E+00 0. -1.
         -2    1    1    2    0  503 -0.82872133972E+01  0.25585357586E+02  0.14426271261E+02  0.30518940532E+02  0.00000000000E+00 0.  1.
<mgrwt>
<rscale>  2 0.82086012E+02</rscale>
<asrwt>0</asrwt>
<pdfrwt beam="1">  1       21 0.83272727E-01 0.82086012E+02</pdfrwt>
<pdfrwt beam="2">  1       21 0.26763066E-02 0.82086012E+02</pdfrwt>
<totfact> 0.96111928E+05</totfact>
</mgrwt>
</event>
<event>
 5    1  0.1994521E+000  0.6324147E+02  0.7546771E-02  0.1384711E+00
         21   -1    0    0  503  502  0.00000000000E+00  0.00000000000E+00  0.62272538598E+03  0.62272538598E+03  0.00000000000E+00 0. -1.
         21   -1    0    0  501  503 -0.00000000000E+00 -0.00000000000E+00 -0.13907321005E+02  0.13907321005E+02  0.00000000000E+00 0.  1.
         24    1    1    2    0    0 -0.12818553271E+02  0.34746580321E+01  0.12026049283E+03  0.14527969799E+03  0.80419002446E+02 0.  1.
          1    1    1    2  501    0 -0.63232000510E+01 -0.19192034272E+02  0.10081167560E+03  0.10281688079E+03  0.00000000000E+00 0. -1.
         -2    1    1    2    0  502  0.19141753322E+02  0.15717376240E+02  0.38774589655E+03  0.38853612821E+03  0.00000000000E+00 0.  1.
<mgrwt>
<rscale>  2 0.63241470E+02</rscale>
<asrwt>0</asrwt>
<pdfrwt beam="1">  1       21 0.95803884E-01 0.63241470E+02</pdfrwt>
<pdfrwt beam="2">  1       21 0.21395883E-02 0.63241470E+02</pdfrwt>
<totfact> 0.10003633E+06</totfact>
</mgrwt>
</event>
<event>
 5    1  0.1994521E+000  0.1020550E+03  0.7546771E-02  0.1276033E+00
         21   -1    0    0  501  502  0.00000000000E+00  0.00000000000E+00  0.13187948901E+03  0.13187948901E+03  0.00000000000E+00 0. -1.
         21   -1    0    0  502  503 -0.00000000000E+00 -0.00000000000E+00 -0.19583075479E+03  0.19583075479E+03  0.00000000000E+00 0. -1.
         24    1    1    2    0    0 -0.70675448692E+02  0.26560751011E+02 -0.36781583766E+02  0.11627808650E+03  0.80419002446E+02 0.  0.
          1    1    1    2  501    0  0.52894362541E+02  0.93653336122E+01  0.80367513572E+02  0.96666748678E+02  0.00000000000E+00 0. -1.
         -2    1    1    2    0  503  0.17781086151E+02 -0.35926084623E+02 -0.10753719558E+03  0.11476540861E+03  0.00000000000E+00 0.  1.
<mgrwt>
<rscale>  2 0.10205497E+03</rscale>
<asrwt>0</asrwt>
<pdfrwt beam="1">  1       21 0.20289152E-01 0.10205497E+03</pdfrwt>
<pdfrwt beam="2">  1       21 0.30127808E-01 0.10205497E+03</pdfrwt>
<totfact> 0.24268645E+05</totfact>
</mgrwt>
</event>
<event>
 5    1  0.1994521E+000  0.9751994E+02  0.7546771E-02  0.1285599E+00
         21   -1    0    0  503  502  0.00000000000E+00  0.00000000000E+00  0.10355884275E+04  0.10355884275E+04  0.00000000000E+00 0. -1.
         21   -1    0    0  501  503 -0.00000000000E+00 -0.00000000000E+00 -0.10978100658E+02  0.10978100658E+02  0.00000000000E+00 0.  1.
         24    1    1    2    0    0  0.41122305112E+02 -0.45395594584E+02  0.39757654846E+03  0.41022692723E+03  0.80419002446E+02 0. -1.
          1    1    1    2  501    0 -0.98018585701E+01 -0.19537582865E+02  0.46900430056E+02  0.51744022989E+02  0.00000000000E+00 0. -1.
         -2    1    1    2    0  502 -0.31320446542E+02  0.64933177449E+02  0.58013334833E+03  0.58459557794E+03  0.00000000000E+00 0.  1.
<mgrwt>
<rscale>  2 0.97519938E+02</rscale>
<asrwt>0</asrwt>
<pdfrwt beam="1">  1       21 0.15932122E+00 0.97519938E+02</pdfrwt>
<pdfrwt beam="2">  1       21 0.16889394E-02 0.97519938E+02</pdfrwt>
<totfact> 0.42503988E+05</totfact>
</mgrwt>
</event>
<event>
 5    1  0.1994521E+000  0.8845189E+02  0.7546771E-02  0.1306645E+00
         21   -1    0    0  503  502  0.00000000000E+00  0.00000000000E+00  0.18488632810E+04  0.18488632810E+04  0.00000000000E+00 0.  1.
         21   -1    0    0  501  503 -0.00000000000E+00 -0.00000000000E+00 -0.22874746453E+02  0.22874746453E+02  0.00000000000E+00 0. -1.
         24    1    1    2    0    0 -0.23097065090E+02 -0.19692705071E+02  0.32512560204E+03  0.33629622375E+03  0.80419002446E+02 0. -1.
          1    1    1    2  501    0  0.17949583485E+02 -0.33233736497E+02  0.43913010436E+01  0.38025679661E+02  0.00000000000E+00 0. -1.
         -2    1    1    2    0  502  0.51474816050E+01  0.52926441568E+02  0.14964716314E+04  0.14974161240E+04  0.00000000000E+00 0.  1.
<mgrwt>
<rscale>  2 0.88451890E+02</rscale>
<asrwt>0</asrwt>
<pdfrwt beam="1">  1       21 0.28444039E+00 0.88451890E+02</pdfrwt>
<pdfrwt beam="2">  1       21 0.35191932E-02 0.88451890E+02</pdfrwt>
<totfact> 0.23281946E+04</totfact>
</mgrwt>
</event>
<event>
 5    1  0.1994521E+000  0.1730758E+03  0.7546771E-02  0.1174678E+00
         21   -1    0    0  503  502  0.00000000000E+00  0.00000000000E+00  0.12016719138E+03  0.12016719138E+03  0.00000000000E+00 0.  1.
         21   -1    0    0  501  503 -0.00000000000E+00 -0.00000000000E+00 -0.17271899299E+04  0.17271899299E+04  0.00000000000E+00 0. -1.
         24    1    1    2    0    0 -0.14516143860E+02 -0.11553658512E+03 -0.27701019423E+03  0.31106475949E+03  0.80419002446E+02 0.  1.
          1    1    1    2  501    0 -0.69965198905E+02  0.94488773991E+02 -0.14118898341E+04  0.14167766800E+04  0.00000000000E+00 0. -1.
         -2    1    1    2    0  502  0.84481342765E+02  0.21047811130E+02  0.81877289739E+02  0.11951568183E+03  0.00000000000E+00 0.  1.
<mgrwt>
<rscale>  2 0.17307583E+03</rscale>
<asrwt>0</asrwt>
<pdfrwt beam="1">  1       21 0.18487260E-01 0.17307583E+03</pdfrwt>
<pdfrwt beam="2">  1       21 0.26572153E+00 0.17307583E+03</pdfrwt>
<totfact> 0.14749555E+03</totfact>
</mgrwt>
</event>
<event>
 5    1  0.1994521E+000  0.7206987E+02  0.7546771E-02  0.1353193E+00
         21   -1    0    0  503  502  0.00000000000E+00  0.00000000000E+00  0.69972833539E+03  0.69972833539E+03  0.00000000000E+00 0.  1.
         21   -1    0    0  501  503 -0.00000000000E+00 -0.00000000000E+00 -0.22113141470E+02  0.22113141470E+02  0.00000000000E+00 0. -1.
         24    1    1    2    0    0 -0.21757669154E+02 -0.63041095693E+01  0.18520226114E+03  0.20317537117E+03  0.80419002446E+02 0.  1.
          1    1    1    2  501    0  0.11548163464E+02 -0.25067771832E+02  0.25764560904E+01  0.27719873557E+02  0.00000000000E+00 0. -1.
         -2    1    1    2    0  502  0.10209505690E+02  0.31371881401E+02  0.48983647669E+03  0.49094623213E+03  0.00000000000E+00 0.  1.
<mgrwt>
<rscale>  2 0.72069868E+02</rscale>
<asrwt>0</asrwt>
<pdfrwt beam="1">  1       21 0.10765050E+00 0.72069868E+02</pdfrwt>
<pdfrwt beam="2">  1       21 0.34020223E-02 0.72069868E+02</pdfrwt>
<totfact> 0.36350660E+05</totfact>
</mgrwt>
</event>
<event>
 5    1  0.1994521E+000  0.6774304E+02  0.7546771E-02  0.1367941E+00
         21   -1    0    0  501  502  0.00000000000E+00  0.00000000000E+00  0.38885430791E+02  0.38885430791E+02  0.00000000000E+00 0. -1.
         21   -1    0    0  502  503 -0.00000000000E+00 -0.00000000000E+00 -0.20056032411E+03  0.20056032411E+03  0.00000000000E+00 0. -1.
         24    1    1    2    0    0 -0.19109199104E+02 -0.18031361657E+00 -0.14717118077E+03  0.16879504261E+03  0.80419002446E+02 0. -1.
          1    1    1    2  501    0  0.21128114629E+02 -0.22031011239E+02  0.14720048142E+02  0.33888678069E+02  0.00000000000E+00 0. -1.
         -2    1    1    2    0  503 -0.20189155250E+01  0.22211324856E+02 -0.29223760683E+02  0.36762034223E+02  0.00000000000E+00 0.  1.
<mgrwt>
<rscale>  2 0.67743036E+02</rscale>
<asrwt>0</asrwt>
<pdfrwt beam="1">  1       21 0.59823740E-02 0.67743036E+02</pdfrwt>
<pdfrwt beam="2">  1       21 0.30855434E-01 0.67743036E+02</pdfrwt>
<totfact> 0.19423675E+06</totfact>
</mgrwt>
</event>
<event>
 5    1  0.1994521E+000  0.6308079E+02  0.7546771E-02  0.1385340E+00
         21   -1    0    0  503  502  0.00000000000E+00  0.00000000000E+00  0.12861101120E+02  0.12861101120E+02  0.00000000000E+00 0. -1.
         21   -1    0    0  501  503 -0.00000000000E+00 -0.00000000000E+00 -0.35489964860E+03  0.35489964860E+03  0.00000000000E+00 0.  1.
         24    1    1    2    0    0 -0.37751286586E+00  0.24793236603E+01 -0.25719064772E+03  0.26948197489E+03  0.80419002446E+02 0.  1.
          1    1    1    2  501    0  0.17017927622E+02 -0.16678654949E+02 -0.63027039288E+02  0.67380969664E+02  0.00000000000E+00 0. -1.
         -2    1    1    2    0  502 -0.16640414756E+02  0.14199331289E+02 -0.21820860472E+02  0.30897805165E+02  0.00000000000E+00 0.  1.
<mgrwt>
<rscale>  2 0.63080794E+02</rscale>
<asrwt>0</asrwt>
<pdfrwt beam="1">  1       21 0.19786309E-02 0.63080794E+02</pdfrwt>
<pdfrwt beam="2">  1       21 0.54599948E-01 0.63080794E+02</pdfrwt>
<totfact> 0.37871080E+06</totfact>
</mgrwt>
</event>
<event>
 5    1  0.1994521E+000  0.7518761E+02  0.7546771E-02  0.1343291E+00
         21   -1    0    0  501  502  0.00000000000E+00  0.00000000000E+00  0.32220418187E+02  0.32220418187E+02  0.00000000000E+00 0.  1.
         21   -1    0    0  502  503 -0.00000000000E+00 -0.00000000000E+00 -0.89161604828E+03  0.89161604828E+03  0.00000000000E+00 0.  1.
         24    1    1    2    0    0  0.85196498989E+01  0.41835399268E+02 -0.93008340560E+02  0.13015587745E+03  0.80419002446E+02 0.  1.
          1    1    1    2  501    0  0.14629822155E+02 -0.29884823377E+02 -0.71965507909E+01  0.34042983239E+02  0.00000000000E+00 0. -1.
         -2    1    1    2    0  503 -0.23149472054E+02 -0.11950575891E+02 -0.75919073875E+03  0.75963760578E+03  0.00000000000E+00 0.  1.
<mgrwt>
<rscale>  2 0.75187609E+02</rscale>
<asrwt>0</asrwt>
<pdfrwt beam="1">  1       21 0.49569867E-02 0.75187609E+02</pdfrwt>
<pdfrwt beam="2">  1       21 0.13717172E+00 0.75187609E+02</pdfrwt>
<totfact> 0.10961315E+05</totfact>
</mgrwt>
</event>
<event>
 5    1  0.1994521E+000  0.8029112E+02  0.7546771E-02  0.1328227E+00
         21   -1    0    0  501  502  0.00000000000E+00  0.00000000000E+00  0.92459755671E+02  0.92459755671E+02  0.00000000000E+00 0. -1.
         21   -1    0    0  502  503 -0.00000000000E+00 -0.00000000000E+00 -0.40277226117E+03  0.40277226117E+03  0.00000000000E+00 0.  1.
         24    1    1    2    0    0  0.28378754027E+01  0.17083028557E+02 -0.54401116705E+02  0.98623429542E+02  0.80419002446E+02 0.  1.
          1    1    1    2  501    0  0.33824824573E+02 -0.23382268493E+02  0.63165448833E+02  0.75370572265E+02  0.00000000000E+00 0. -1.
         -2    1    1    2    0  503 -0.36662699975E+02  0.62992399362E+01 -0.31907683762E+03  0.32123801503E+03  0.00000000000E+00 0.  1.
<mgrwt>
<rscale>  2 0.80291119E+02</rscale>
<asrwt>0</asrwt>
<pdfrwt beam="1">  1       21 0.14224578E-01 0.80291119E+02</pdfrwt>
<pdfrwt beam="2">  1       21 0.61964962E-01 0.80291119E+02</pdfrwt>
<totfact> 0.10949109E+05</totfact>
</mgrwt>
</event>
<event>
 5    1  0.1994521E+000  0.8869519E+02  0.7546771E-02  0.1306043E+00
         21   -1    0    0  503  502  0.00000000000E+00  0.00000000000E+00  0.11506030102E+03  0.11506030102E+03  0.00000000000E+00 0.  1.
         21   -1    0    0  501  503 -0.00000000000E+00 -0.00000000000E+00 -0.16876892333E+03  0.16876892333E+03  0.00000000000E+00 0. -1.
         24    1    1    2    0    0 -0.60278542839E+02 -0.35022348980E+02 -0.47384937301E+02  0.11650157034E+03  0.80419002446E+02 0.  1.
          1    1    1    2  501    0  0.21813143807E+02  0.20226759455E+02 -0.78647608338E+02  0.84085559629E+02  0.00000000000E+00 0. -1.
         -2    1    1    2    0  502  0.38465399032E+02  0.14795589525E+02  0.72323923323E+02  0.83242094381E+02  0.00000000000E+00 0.  1.
<mgrwt>
<rscale>  2 0.88695194E+02</rscale>
<asrwt>0</asrwt>
<pdfrwt beam="1">  1       21 0.17701585E-01 0.88695194E+02</pdfrwt>
<pdfrwt beam="2">  1       21 0.25964450E-01 0.88695194E+02</pdfrwt>
<totfact> 0.41363062E+05</totfact>
</mgrwt>
</event>
<event>
 5    1  0.1994521E+000  0.7595581E+02  0.7546771E-02  0.1340936E+00
         21   -1    0    0  501  502  0.00000000000E+00  0.00000000000E+00  0.79953100771E+02  0.79953100771E+02  0.00000000000E+00 0.  1.
         21   -1    0    0  502  503 -0.00000000000E+00 -0.00000000000E+00 -0.18161450747E+03  0.18161450747E+03  0.00000000000E+00 0.  1.
         24    1    1    2    0    0  0.24320366713E+02  0.17803906162E+02  0.25522073241E+02  0.89593813897E+02  0.80419002446E+02 0.  1.
          1    1    1    2  501    0  0.18695305308E+02 -0.12947387501E+02  0.12351075722E+02  0.25878530777E+02  0.00000000000E+00 0. -1.
         -2    1    1    2    0  503 -0.43015672021E+02 -0.48565186606E+01 -0.13953455567E+03  0.14609526357E+03  0.00000000000E+00 0.  1.
<mgrwt>
<rscale>  2 0.75955813E+02</rscale>
<asrwt>0</asrwt>
<pdfrwt beam="1">  1       21 0.12300477E-01 0.75955813E+02</pdfrwt>
<pdfrwt beam="2">  1       21 0.27940693E-01 0.75955813E+02</pdfrwt>
<totfact> 0.68798117E+05</totfact>
</mgrwt>
</event>
<event>
 5    1  0.1994521E+000  0.6365846E+02  0.7546771E-02  0.1383090E+00
         21   -1    0    0  501  502  0.00000000000E+00  0.00000000000E+00  0.39624213348E+02  0.39624213348E+02  0.00000000000E+00 0. -1.
         21   -1    0    0  502  503 -0.00000000000E+00 -0.00000000000E+00 -0.26654457681E+03  0.26654457681E+03  0.00000000000E+00 0.  1.
         24    1    1    2    0    0  0.37231988457E+01 -0.38554119349E+01 -0.10617834897E+02  0.81293793017E+02  0.80419002446E+02 0. -1.
          1    1    1    2  501    0  0.19502722358E+02  0.11036295276E+02 -0.32529402738E+02  0.39500861197E+02  0.00000000000E+00 0. -1.
         -2    1    1    2    0  503 -0.23225921204E+02 -0.71808833412E+01 -0.18377312583E+03  0.18537413594E+03  0.00000000000E+00 0.  1.
<mgrwt>
<rscale>  2 0.63658456E+02</rscale>
<asrwt>0</asrwt>
<pdfrwt beam="1">  1       21 0.60960331E-02 0.63658456E+02</pdfrwt>
<pdfrwt beam="2">  1       21 0.41006856E-01 0.63658456E+02</pdfrwt>
<totfact> 0.10844650E+06</totfact>
</mgrwt>
</event>
<event>
 5    1  0.1994521E+000  0.1903857E+03  0.7546771E-02  0.1158114E+00
         21   -1    0    0  503  502  0.00000000000E+00  0.00000000000E+00  0.27696577717E+03  0.27696577717E+03  0.00000000000E+00 0. -1.
         21   -1    0    0  501  503 -0.00000000000E+00 -0.00000000000E+00 -0.29493588248E+03  0.29493588248E+03  0.00000000000E+00 0.  1.
         24    1    1    2    0    0  0.15225293146E+03 -0.52673434263E+02 -0.57766994998E+02  0.18910232013E+03  0.80419002446E+02 0.  1.
          1    1    1    2  501    0 -0.17266542390E+03  0.42117289180E+02 -0.12444029075E+03  0.21696221012E+03  0.00000000000E+00 0. -1.
         -2    1    1    2    0  502  0.20412492445E+02  0.10556145083E+02  0.16423718044E+03  0.16583712940E+03  0.00000000000E+00 0.  1.
<mgrwt>
<rscale>  2 0.19038567E+03</rscale>
<asrwt>0</asrwt>
<pdfrwt beam="1">  1       21 0.42610120E-01 0.19038567E+03</pdfrwt>
<pdfrwt beam="2">  1       21 0.45374751E-01 0.19038567E+03</pdfrwt>
<totfact> 0.24714965E+04</totfact>
</mgrwt>
</event>
<event>
 5    1  0.1994521E+000  0.3087617E+03  0.7546771E-02  0.1080941E+00
         21   -1    0    0  501  502  0.00000000000E+00  0.00000000000E+00  0.12758250869E+04  0.12758250869E+04  0.00000000000E+00 0. -1.
         21   -1    0    0  502  503 -0.00000000000E+00 -0.00000000000E+00 -0.19619645110E+03  0.19619645110E+03  0.00000000000E+00 0.  1.
         24    1    1    2    0    0 -0.12840513664E+03 -0.13521170422E+03  0.79229144989E+02  0.21797834169E+03  0.80419002446E+02 0.  1.
          1    1    1    2  501    0  0.44446083147E+02 -0.12941120950E+03  0.96444358233E+03  0.97410170873E+03  0.00000000000E+00 0. -1.
         -2    1    1    2    0  503  0.83959053495E+02  0.26462291373E+03  0.35955908519E+02  0.27994148762E+03  0.00000000000E+00 0.  1.
<mgrwt>
<rscale>  2 0.30876172E+03</rscale>
<asrwt>0</asrwt>
<pdfrwt beam="1">  1       21 0.19628078E+00 0.30876172E+03</pdfrwt>
<pdfrwt beam="2">  1       21 0.30184070E-01 0.30876172E+03</pdfrwt>
<totfact> 0.13535835E+03</totfact>
</mgrwt>
</event>
<event>
 5    1  0.1994521E+000  0.6724670E+02  0.7546771E-02  0.1369714E+00
         21   -1    0    0  503  502  0.00000000000E+00  0.00000000000E+00  0.60775633905E+02  0.60775633905E+02  0.00000000000E+00 0. -1.
         21   -1    0    0  501  503 -0.00000000000E+00 -0.00000000000E+00 -0.14753369747E+03  0.14753369747E+03  0.00000000000E+00 0.  1.
         24    1    1    2    0    0  0.29956331555E+02 -0.12866697453E+02 -0.45716231219E+02  0.98082228027E+02  0.80419002446E+02 0.  1.
          1    1    1    2  501    0 -0.25125380032E+02 -0.79452497807E+01 -0.69680507853E+02  0.74496878394E+02  0.00000000000E+00 0. -1.
         -2    1    1    2    0  502 -0.48309515227E+01  0.20811947233E+02  0.28638675509E+02  0.35730224952E+02  0.00000000000E+00 0.  1.
<mgrwt>
<rscale>  2 0.67246704E+02</rscale>
<asrwt>0</asrwt>
<pdfrwt beam="1">  1       21 0.93500977E-02 0.67246704E+02</pdfrwt>
<pdfrwt beam="2">  1       21 0.22697491E-01 0.67246704E+02</pdfrwt>
<totfact> 0.16211325E+06</totfact>
</mgrwt>
</event>
<event>
 5    1  0.1994521E+000  0.7714376E+02  0.7546771E-02  0.1337358E+00
         21   -1    0    0  501  502  0.00000000000E+00  0.00000000000E+00  0.24534572291E+02  0.24534572291E+02  0.00000000000E+00 0. -1.
         21   -1    0    0  502  503 -0.00000000000E+00 -0.00000000000E+00 -0.49751494718E+03  0.49751494718E+03  0.00000000000E+00 0.  1.
         24    1    1    2    0    0  0.32525614341E+02  0.41128257967E+02 -0.17284312255E+03  0.19771547779E+03  0.80419002446E+02 0.  0.
          1    1    1    2  501    0 -0.31733306796E+02 -0.20805009474E+02 -0.18953430390E+02  0.42415606832E+02  0.00000000000E+00 0. -1.
         -2    1    1    2    0  503 -0.79230754530E+00 -0.20323248493E+02 -0.28118382194E+03  0.28191843484E+03  0.00000000000E+00 0.  1.
<mgrwt>
<rscale>  2 0.77143761E+02</rscale>
<asrwt>0</asrwt>
<pdfrwt beam="1">  1       21 0.37745498E-02 0.77143761E+02</pdfrwt>
<pdfrwt beam="2">  1       21 0.76540757E-01 0.77143761E+02</pdfrwt>
<totfact> 0.66147317E+05</totfact>
</mgrwt>
</event>
<event>
 5    1  0.1994521E+000  0.1342929E+03  0.7546771E-02  0.1221221E+00
         21   -1    0    0  501  502  0.00000000000E+00  0.00000000000E+00  0.27315442968E+02  0.27315442968E+02  0.00000000000E+00 0.  1.
         21   -1    0    0  502  503 -0.00000000000E+00 -0.00000000000E+00 -0.81623008504E+03  0.81623008504E+03  0.00000000000E+00 0.  1.
         24    1    1    2    0    0 -0.78170793518E+02  0.61203093421E+02 -0.55352693634E+03  0.56808078371E+03  0.80419002446E+02 0.  1.
          1    1    1    2  501    0  0.29792961238E+01  0.25718506541E+02 -0.26509680731E+02  0.37055107024E+02  0.00000000000E+00 0. -1.
         -2    1    1    2    0  503  0.75191497394E+02 -0.86921599963E+02 -0.20887802500E+03  0.23840963728E+03  0.00000000000E+00 0.  1.
<mgrwt>
<rscale>  2 0.13429286E+03</rscale>
<asrwt>0</asrwt>
<pdfrwt beam="1">  1       21 0.42023763E-02 0.13429286E+03</pdfrwt>
<pdfrwt beam="2">  1       21 0.12557385E+00 0.13429286E+03</pdfrwt>
<totfact> 0.17386923E+05</totfact>
</mgrwt>
</event>
<event>
 5    1  0.3563118E+000  0.7490706E+02  0.7546771E-02  0.1344159E+00
         21   -1    0    0  501  502  0.00000000000E+00  0.00000000000E+00  0.28183156251E+03  0.28183156251E+03  0.00000000000E+00 0.  1.
         21   -1    0    0  502  503 -0.00000000000E+00 -0.00000000000E+00 -0.16011228400E+03  0.16011228400E+03  0.00000000000E+00 0.  1.
         24    1    1    2    0    0  0.81305218776E+01 -0.52662547542E+02  0.25607301313E+03  0.27364219942E+03  0.80419002446E+02 0.  1.
          1    1    1    2  501    0 -0.21955146219E+01  0.22159197347E+02  0.71799588138E+01  0.23396626254E+02  0.00000000000E+00 0. -1.
         -2    1    1    2    0  503 -0.59350072557E+01  0.30503350195E+02 -0.14153369343E+03  0.14490502083E+03  0.00000000000E+00 0.  1.
<mgrwt>
<rscale>  2 0.74907063E+02</rscale>
<asrwt>0</asrwt>
<pdfrwt beam="1">  1       21 0.43358702E-01 0.74907063E+02</pdfrwt>
<pdfrwt beam="2">  1       21 0.24632659E-01 0.74907063E+02</pdfrwt>
<totfact> 0.84262970E+04</totfact>
</mgrwt>
</event>
<event>
 5    1  0.1994521E+000  0.6591575E+02  0.7546771E-02  0.1374560E+00
         21   -1    0    0  501  502  0.00000000000E+00  0.00000000000E+00  0.76544686124E+02  0.76544686124E+02  0.00000000000E+00 0.  1.
         21   -1    0    0  502  503 -0.00000000000E+00 -0.00000000000E+00 -0.97136461675E+02  0.97136461675E+02  0.00000000000E+00 0. -1.
         24    1    1    2    0    0  0.14076707084E+02  0.25198988133E+02  0.42048947094E+02  0.95228528243E+02  0.80419002446E+02 0.  0.
          1    1    1    2  501    0  0.71980100961E+01 -0.24027405147E+02 -0.26422201871E+02  0.36431583813E+02  0.00000000000E+00 0. -1.
         -2    1    1    2    0  503 -0.21274717180E+02 -0.11715829861E+01 -0.36218520774E+02  0.42021035742E+02  0.00000000000E+00 0.  1.
<mgrwt>
<rscale>  2 0.65915752E+02</rscale>
<asrwt>0</asrwt>
<pdfrwt beam="1">  1       21 0.11776106E-01 0.65915752E+02</pdfrwt>
<pdfrwt beam="2">  1       21 0.14944071E-01 0.65915752E+02</pdfrwt>
<totfact> 0.23101592E+06</totfact>
</mgrwt>
</event>
<event>
 5    1  0.1994521E+000  0.1052927E+03  0.7546771E-02  0.1269544E+00
         21   -1    0    0  503  502  0.00000000000E+00  0.00000000000E+00  0.15781287513E+04  0.15781287513E+04  0.00000000000E+00 0.  1.
         21   -1    0    0  501  503 -0.00000000000E+00 -0.00000000000E+00 -0.11997727551E+03  0.11997727551E+03  0.00000000000E+00 0. -1.
         24    1    1    2    0    0 -0.68885869069E+02 -0.36055436551E+02 -0.42867314684E+02  0.11979181977E+03  0.80419002446E+02 0. -1.
          1    1    1    2  501    0  0.56548085138E+02  0.53175970785E+02  0.47769250712E+00  0.77624725390E+02  0.00000000000E+00 0. -1.
         -2    1    1    2    0  502  0.12337783931E+02 -0.17120534234E+02  0.15005410979E+04  0.15006894816E+04  0.00000000000E+00 0.  1.
<mgrwt>
<rscale>  2 0.10529268E+03</rscale>
<asrwt>0</asrwt>
<pdfrwt beam="1">  1       21 0.24278902E+00 0.10529268E+03</pdfrwt>
<pdfrwt beam="2">  1       21 0.18458043E-01 0.10529268E+03</pdfrwt>
<totfact> 0.22302184E+03</totfact>
</mgrwt>
</event>
<event>
 5    1  0.1994521E+000  0.9781284E+02  0.7546771E-02  0.1284964E+00
         21   -1    0    0  501  502  0.00000000000E+00  0.00000000000E+00  0.38336832226E+01  0.38336832226E+01  0.00000000000E+00 0. -1.
         21   -1    0    0  502  503 -0.00000000000E+00 -0.00000000000E+00 -0.26697617867E+04  0.26697617867E+04  0.00000000000E+00 0.  1.
         24    1    1    2    0    0 -0.31309536898E+02  0.24797307780E+02 -0.13805343514E+04  0.13834513020E+04  0.80419002446E+02 0.  1.
          1    1    1    2  501    0 -0.34977031905E+02 -0.17609070263E+02 -0.30810038515E+03  0.31057900677E+03  0.00000000000E+00 0. -1.
         -2    1    1    2    0  503  0.66286568803E+02 -0.71882375174E+01 -0.97729336692E+03  0.97956516118E+03  0.00000000000E+00 0.  1.
<mgrwt>
<rscale>  2 0.97812838E+02</rscale>
<asrwt>0</asrwt>
<pdfrwt beam="1">  1       21 0.58979717E-03 0.97812838E+02</pdfrwt>
<pdfrwt beam="2">  1       21 0.41073276E+00 0.97812838E+02</pdfrwt>
<totfact> 0.73983266E+04</totfact>
</mgrwt>
</event>
<event>
 5    1  0.1994521E+000  0.1084753E+03  0.7546771E-02  0.1263420E+00
         21   -1    0    0  501  502  0.00000000000E+00  0.00000000000E+00  0.41434579548E+02  0.41434579548E+02  0.00000000000E+00 0. -1.
         21   -1    0    0  502  503 -0.00000000000E+00 -0.00000000000E+00 -0.31977063612E+03  0.31977063612E+03  0.00000000000E+00 0. -1.
         24    1    1    2    0    0 -0.19826177024E+02 -0.52968149137E+02 -0.18166085846E+03  0.20655891549E+03  0.80419002446E+02 0. -1.
          1    1    1    2  501    0  0.68491400055E+01  0.84375236215E+02 -0.55344833792E+02  0.10113922005E+03  0.00000000000E+00 0. -1.
         -2    1    1    2    0  503  0.12977037019E+02 -0.31407087079E+02 -0.41330364313E+02  0.53507080119E+02  0.00000000000E+00 0.  1.
<mgrwt>
<rscale>  2 0.10847532E+03</rscale>
<asrwt>0</asrwt>
<pdfrwt beam="1">  1       21 0.63745507E-02 0.10847532E+03</pdfrwt>
<pdfrwt beam="2">  1       21 0.49195483E-01 0.10847532E+03</pdfrwt>
<totfact> 0.70443482E+05</totfact>
</mgrwt>
</event>
<event>
 5    1  0.1994521E+000  0.8685508E+02  0.7546771E-02  0.1310651E+00
         21   -1    0    0  501  502  0.00000000000E+00  0.00000000000E+00  0.19027756195E+03  0.19027756195E+03  0.00000000000E+00 0. -1.
         21   -1    0    0  502  503 -0.00000000000E+00 -0.00000000000E+00 -0.93830913148E+02  0.93830913148E+02  0.00000000000E+00 0.  1.
         24    1    1    2    0    0  0.31687938608E+01 -0.34321653351E+02 -0.18158889342E+02  0.89358706122E+02  0.80419002446E+02 0.  1.
          1    1    1    2  501    0  0.74373314543E+01 -0.24933505015E+02  0.13003040991E+03  0.13260807318E+03  0.00000000000E+00 0. -1.
         -2    1    1    2    0  503 -0.10606125315E+02  0.59255158366E+02 -0.15424871767E+02  0.62141695794E+02  0.00000000000E+00 0.  1.
<mgrwt>
<rscale>  2 0.86855082E+02</rscale>
<asrwt>0</asrwt>
<pdfrwt beam="1">  1       21 0.29273471E-01 0.86855082E+02</pdfrwt>
<pdfrwt beam="2">  1       21 0.14435525E-01 0.86855082E+02</pdfrwt>
<totfact> 0.47535430E+05</totfact>
</mgrwt>
</event>
<event>
 5    1  0.1994521E+000  0.7657038E+02  0.7546771E-02  0.1339076E+00
         21   -1    0    0  501  502  0.00000000000E+00  0.00000000000E+00  0.27086313162E+02  0.27086313162E+02  0.00000000000E+00 0. -1.
         21   -1    0    0  502  503 -0.00000000000E+00 -0.00000000000E+00 -0.37384742094E+03  0.37384742094E+03  0.00000000000E+00 0.  1.
         24    1    1    2    0    0 -0.12363515305E+01 -0.14736232414E+02 -0.56335833811E+02  0.99295655677E+02  0.80419002446E+02 0. -1.
          1    1    1    2  501    0 -0.32224276225E+02  0.19363203717E+02 -0.78502365380E+02  0.87039985103E+02  0.00000000000E+00 0. -1.
         -2    1    1    2    0  503  0.33460627756E+02 -0.46269713024E+01 -0.21192290858E+03  0.21459809332E+03  0.00000000000E+00 0.  1.
<mgrwt>
<rscale>  2 0.76570383E+02</rscale>
<asrwt>0</asrwt>
<pdfrwt beam="1">  1       21 0.41671252E-02 0.76570383E+02</pdfrwt>
<pdfrwt beam="2">  1       21 0.57514987E-01 0.76570383E+02</pdfrwt>
<totfact> 0.10329109E+06</totfact>
</mgrwt>
</event>
<event>
 5    1  0.2240191E+000  0.7162661E+02  0.7546771E-02  0.1354647E+00
         21   -1    0    0  503  502  0.00000000000E+00  0.00000000000E+00  0.24061851023E+03  0.24061851023E+03  0.00000000000E+00 0. -1.
         21   -1    0    0  501  503 -0.00000000000E+00 -0.00000000000E+00 -0.16880614264E+03  0.16880614264E+03  0.00000000000E+00 0. -1.
         24    1    1    2    0    0  0.11429001674E+02 -0.10367614360E+01  0.18035530710E+03  0.19780533286E+03  0.80419002446E+02 0. -1.
          1    1    1    2  501    0  0.90511846312E+01  0.27273298337E+02 -0.15322889223E+03  0.15590012880E+03  0.00000000000E+00 0. -1.
         -2    1    1    2    0  502 -0.20480186305E+02 -0.26236536901E+02  0.44685952718E+02  0.55719191218E+02  0.00000000000E+00 0.  1.
<mgrwt>
<rscale>  2 0.71626607E+02</rscale>
<asrwt>0</asrwt>
<pdfrwt beam="1">  1       21 0.37018232E-01 0.71626607E+02</pdfrwt>
<pdfrwt beam="2">  1       21 0.25970176E-01 0.71626607E+02</pdfrwt>
<totfact> 0.10442056E+05</totfact>
</mgrwt>
</event>
<event>
 5    1  0.1994521E+000  0.6375138E+02  0.7546771E-02  0.1382731E+00
         21   -1    0    0  503  502  0.00000000000E+00  0.00000000000E+00  0.21679142272E+02  0.21679142272E+02  0.00000000000E+00 0.  1.
         21   -1    0    0  501  503 -0.00000000000E+00 -0.00000000000E+00 -0.20712440028E+03  0.20712440028E+03  0.00000000000E+00 0. -1.
         24    1    1    2    0    0  0.12391720781E+02  0.45013774822E+01 -0.82418368224E+02  0.11590435936E+03  0.80419002446E+02 0.  0.
          1    1    1    2  501    0 -0.39637787399E+01  0.19849869938E+02 -0.50029640806E+02  0.53969378704E+02  0.00000000000E+00 0. -1.
         -2    1    1    2    0  502 -0.84279420410E+01 -0.24351247420E+02 -0.52997248976E+02  0.58929804488E+02  0.00000000000E+00 0.  1.
<mgrwt>
<rscale>  2 0.63751377E+02</rscale>
<asrwt>0</asrwt>
<pdfrwt beam="1">  1       21 0.33352527E-02 0.63751377E+02</pdfrwt>
<pdfrwt beam="2">  1       21 0.31865292E-01 0.63751377E+02</pdfrwt>
<totfact> 0.47481664E+06</totfact>
</mgrwt>
</event>
<event>
 5    1  0.1994521E+000  0.8273020E+02  0.7546771E-02  0.1321477E+00
         21   -1    0    0  501  502  0.00000000000E+00  0.00000000000E+00  0.16725365609E+02  0.16725365609E+02  0.00000000000E+00 0.  1.
         21   -1    0    0  502  503 -0.00000000000E+00 -0.00000000000E+00 -0.48020045606E+03  0.48020045606E+03  0.00000000000E+00 0. -1.
         24    1    1    2    0    0 -0.27793206022E+01 -0.62402746934E+02 -0.36988446768E+03  0.38364510010E+03  0.80419002446E+02 0. -1.
          1    1    1    2  501    0  0.76113110165E+01  0.38877100651E+02 -0.53956190285E+02  0.66937519229E+02  0.00000000000E+00 0. -1.
         -2    1    1    2    0  503 -0.48319904143E+01  0.23525646283E+02 -0.39634432494E+02  0.46343202344E+02  0.00000000000E+00 0.  1.
<mgrwt>
<rscale>  2 0.82730204E+02</rscale>
<asrwt>0</asrwt>
<pdfrwt beam="1">  1       21 0.25731330E-02 0.82730204E+02</pdfrwt>
<pdfrwt beam="2">  1       21 0.73876999E-01 0.82730204E+02</pdfrwt>
<totfact> 0.13319897E+06</totfact>
</mgrwt>
</event>
<event>
 5    1  0.1994521E+000  0.1565830E+03  0.7546771E-02  0.1192609E+00
         21   -1    0    0  501  502  0.00000000000E+00  0.00000000000E+00  0.21037102324E+03  0.21037102324E+03  0.00000000000E+00 0. -1.
         21   -1    0    0  502  503 -0.00000000000E+00 -0.00000000000E+00 -0.10241472018E+04  0.10241472018E+04  0.00000000000E+00 0. -1.
         24    1    1    2    0    0  0.93139475167E+02  0.28637264003E+02 -0.40961104143E+03  0.42865309510E+03  0.80419002446E+02 0. -1.
          1    1    1    2  501    0 -0.13862561584E+03 -0.27480565241E+02  0.17498709565E+03  0.22492826963E+03  0.00000000000E+00 0. -1.
         -2    1    1    2    0  503  0.45486140675E+02 -0.11566987620E+01 -0.57915223274E+03  0.58093686028E+03  0.00000000000E+00 0.  1.
<mgrwt>
<rscale>  2 0.15658296E+03</rscale>
<asrwt>0</asrwt>
<pdfrwt beam="1">  1       21 0.32364772E-01 0.15658296E+03</pdfrwt>
<pdfrwt beam="2">  1       21 0.15756111E+00 0.15658296E+03</pdfrwt>
<totfact> 0.24997866E+03</totfact>
</mgrwt>
</event>
<event>
 5    1  0.1994521E+000  0.6496557E+02  0.7546771E-02  0.1378101E+00
         21   -1    0    0  501  502  0.00000000000E+00  0.00000000000E+00  0.58072596608E+03  0.58072596608E+03  0.00000000000E+00 0. -1.
         21   -1    0    0  502  503 -0.00000000000E+00 -0.00000000000E+00 -0.80660117087E+01  0.80660117087E+01  0.00000000000E+00 0.  1.
         24    1    1    2    0    0  0.25124087278E+01 -0.13775857368E+01  0.43242775225E+03  0.43985132353E+03  0.80419002446E+02 0. -1.
          1    1    1    2  501    0 -0.11675082178E+02 -0.21694320477E+02  0.82435337785E+02  0.86037991612E+02  0.00000000000E+00 0. -1.
         -2    1    1    2    0  503  0.91626734505E+01  0.23071906213E+02  0.57796864334E+02  0.62902662646E+02  0.00000000000E+00 0.  1.
<mgrwt>
<rscale>  2 0.64965571E+02</rscale>
<asrwt>0</asrwt>
<pdfrwt beam="1">  1       21 0.89342423E-01 0.64965571E+02</pdfrwt>
<pdfrwt beam="2">  1       21 0.12409253E-02 0.64965571E+02</pdfrwt>
<totfact> 0.27610697E+06</totfact>
</mgrwt>
</event>
<event>
 5    1  0.1994521E+000  0.7803428E+02  0.7546771E-02  0.1334724E+00
         21   -1    0    0  501  502  0.00000000000E+00  0.00000000000E+00  0.53693046511E+02  0.53693046511E+02  0.00000000000E+00 0.  1.
         21   -1    0    0  502  503 -0.00000000000E+00 -0.00000000000E+00 -0.50038619389E+03  0.50038619389E+03  0.00000000000E+00 0.  1.
         24    1    1    2    0    0  0.11901898874E+02 -0.39109988788E+01  0.14040634715E+02  0.82591201024E+02  0.80419002446E+02 0.  1.
          1    1    1    2  501    0 -0.26045059554E+02  0.33174872107E+02 -0.90671760242E+02  0.10000142685E+03  0.00000000000E+00 0. -1.
         -2    1    1    2    0  503  0.14143160679E+02 -0.29263873228E+02 -0.37006202185E+03  0.37148661253E+03  0.00000000000E+00 0.  1.
<mgrwt>
<rscale>  2 0.78034278E+02</rscale>
<asrwt>0</asrwt>
<pdfrwt beam="1">  1       21 0.82604688E-02 0.78034278E+02</pdfrwt>
<pdfrwt beam="2">  1       21 0.76982490E-01 0.78034278E+02</pdfrwt>
<totfact> 0.17689287E+05</totfact>
</mgrwt>
</event>
<event>
 5    1  0.1994521E+000  0.7654251E+02  0.7546771E-02  0.1339160E+00
         21   -1    0    0  503  502  0.00000000000E+00  0.00000000000E+00  0.10139163969E+02  0.10139163969E+02  0.00000000000E+00 0. -1.
         21   -1    0    0  501  503 -0.00000000000E+00 -0.00000000000E+00 -0.60725326260E+03  0.60725326260E+03  0.00000000000E+00 0. -1.
         24    1    1    2    0    0 -0.18440759293E+02  0.22157821599E+02 -0.32273817066E+03  0.33385352090E+03  0.80419002446E+02 0. -1.
          1    1    1    2  501    0  0.40812275221E+02 -0.19152345959E+02 -0.22158424667E+03  0.22612393181E+03  0.00000000000E+00 0. -1.
         -2    1    1    2    0  502 -0.22371515928E+02 -0.30054756401E+01 -0.52791681295E+02  0.57414973854E+02  0.00000000000E+00 0.  1.
<mgrwt>
<rscale>  2 0.76542510E+02</rscale>
<asrwt>0</asrwt>
<pdfrwt beam="1">  1       21 0.15598712E-02 0.76542510E+02</pdfrwt>
<pdfrwt beam="2">  1       21 0.93423591E-01 0.76542510E+02</pdfrwt>
<totfact> 0.17552877E+06</totfact>
</mgrwt>
</event>
<event>
 5    1  0.1994521E+000  0.7426585E+02  0.7546771E-02  0.1346160E+00
         21   -1    0    0  501  502  0.00000000000E+00  0.00000000000E+00  0.10177713419E+04  0.10177713419E+04  0.00000000000E+00 0. -1.
         21   -1    0    0  502  503 -0.00000000000E+00 -0.00000000000E+00 -0.22619131398E+02  0.22619131398E+02  0.00000000000E+00 0.  1.
         24    1    1    2    0    0  0.14907637525E+02  0.99505313118E+01  0.81199914414E+03  0.81616853454E+03  0.80419002446E+02 0.  0.
          1    1    1    2  501    0  0.25239443678E+02 -0.37561831026E+01  0.18179498128E+03  0.18357710546E+03  0.00000000000E+00 0. -1.
         -2    1    1    2    0  503 -0.40147081203E+02 -0.61943482092E+01  0.13580850752E+01  0.40644833299E+02  0.00000000000E+00 0.  1.
<mgrwt>
<rscale>  2 0.74265852E+02</rscale>
<asrwt>0</asrwt>
<pdfrwt beam="1">  1       21 0.15658017E+00 0.74265852E+02</pdfrwt>
<pdfrwt beam="2">  1       21 0.34798672E-02 0.74265852E+02</pdfrwt>
<totfact> 0.14055497E+05</totfact>
</mgrwt>
</event>
<event>
 5    1  0.1994521E+000  0.9611756E+02  0.7546771E-02  0.1288679E+00
         21   -1    0    0  503  502  0.00000000000E+00  0.00000000000E+00  0.13002929560E+03  0.13002929560E+03  0.00000000000E+00 0. -1.
         21   -1    0    0  501  503 -0.00000000000E+00 -0.00000000000E+00 -0.17998401108E+03  0.17998401108E+03  0.00000000000E+00 0. -1.
         24    1    1    2    0    0 -0.31203596354E+02 -0.42965946379E+02  0.28537495594E+02  0.10050543061E+03  0.80419002446E+02 0. -1.
          1    1    1    2  501    0  0.69530351849E+01  0.63628175885E+02 -0.13230313777E+03  0.14697281969E+03  0.00000000000E+00 0. -1.
         -2    1    1    2    0  502  0.24250561169E+02 -0.20662229507E+02  0.53810926685E+02  0.62535056375E+02  0.00000000000E+00 0.  1.
<mgrwt>
<rscale>  2 0.96117562E+02</rscale>
<asrwt>0</asrwt>
<pdfrwt beam="1">  1       21 0.20004507E-01 0.96117562E+02</pdfrwt>
<pdfrwt beam="2">  1       21 0.27689848E-01 0.96117562E+02</pdfrwt>
<totfact> 0.29291224E+05</totfact>
</mgrwt>
</event>
<event>
 5    1  0.1994521E+000  0.1176352E+03  0.7546771E-02  0.1247050E+00
         21   -1    0    0  501  502  0.00000000000E+00  0.00000000000E+00  0.24503345156E+03  0.24503345156E+03  0.00000000000E+00 0. -1.
         21   -1    0    0  502  503 -0.00000000000E+00 -0.00000000000E+00 -0.21561009025E+03  0.21561009025E+03  0.00000000000E+00 0.  1.
         24    1    1    2    0    0 -0.84701281405E+01  0.77026997664E+02 -0.13161263644E+02  0.11245148401E+03  0.80419002446E+02 0.  1.
          1    1    1    2  501    0  0.32376064758E+02  0.95658791230E+01  0.18048366580E+03  0.18361391351E+03  0.00000000000E+00 0. -1.
         -2    1    1    2    0  503 -0.23905936617E+02 -0.86592876787E+02 -0.13789904085E+03  0.16457814430E+03  0.00000000000E+00 0.  1.
<mgrwt>
<rscale>  2 0.11763524E+03</rscale>
<asrwt>0</asrwt>
<pdfrwt beam="1">  1       21 0.37697454E-01 0.11763524E+03</pdfrwt>
<pdfrwt beam="2">  1       21 0.33170783E-01 0.11763524E+03</pdfrwt>
<totfact> 0.61544420E+04</totfact>
</mgrwt>
</event>
<event>
 5    1  0.1994521E+000  0.7578331E+02  0.7546771E-02  0.1341462E+00
         21   -1    0    0  503  502  0.00000000000E+00  0.00000000000E+00  0.28428290294E+03  0.28428290294E+03  0.00000000000E+00 0. -1.
         21   -1    0    0  501  503 -0.00000000000E+00 -0.00000000000E+00 -0.24792911463E+02  0.24792911463E+02  0.00000000000E+00 0.  1.
         24    1    1    2    0    0 -0.51426985582E+02 -0.17854505741E+02  0.17563098482E+03  0.20069124795E+03  0.80419002446E+02 0.  0.
          1    1    1    2  501    0  0.24162473540E+02  0.90961887144E+01  0.75805844859E+01  0.26907824844E+02  0.00000000000E+00 0. -1.
         -2    1    1    2    0  502  0.27264512042E+02  0.87583170267E+01  0.76278422166E+02  0.81476741602E+02  0.00000000000E+00 0.  1.
<mgrwt>
<rscale>  2 0.75783311E+02</rscale>
<asrwt>0</asrwt>
<pdfrwt beam="1">  1       21 0.43735829E-01 0.75783311E+02</pdfrwt>
<pdfrwt beam="2">  1       21 0.38142943E-02 0.75783311E+02</pdfrwt>
<totfact> 0.20829362E+06</totfact>
</mgrwt>
</event>
<event>
 5    1  0.1994521E+000  0.8855099E+02  0.7546771E-02  0.1306399E+00
         21   -1    0    0  501  502  0.00000000000E+00  0.00000000000E+00  0.37533319496E+03  0.37533319496E+03  0.00000000000E+00 0.  1.
         21   -1    0    0  502  503 -0.00000000000E+00 -0.00000000000E+00 -0.21727016867E+02  0.21727016867E+02  0.00000000000E+00 0.  1.
         24    1    1    2    0    0  0.44350478985E+02  0.52615732145E+02  0.18370343023E+03  0.21201308093E+03  0.80419002446E+02 0.  1.
          1    1    1    2  501    0 -0.35602681557E+02 -0.28495172997E+02  0.12835884018E+03  0.13621863922E+03  0.00000000000E+00 0. -1.
         -2    1    1    2    0  503 -0.87477974279E+01 -0.24120559148E+02  0.41543907687E+02  0.48828491676E+02  0.00000000000E+00 0.  1.
<mgrwt>
<rscale>  2 0.88550994E+02</rscale>
<asrwt>0</asrwt>
<pdfrwt beam="1">  1       21 0.57743564E-01 0.88550994E+02</pdfrwt>
<pdfrwt beam="2">  1       21 0.33426182E-02 0.88550994E+02</pdfrwt>
<totfact> 0.14747854E+06</totfact>
</mgrwt>
</event>
<event>
 5    1  0.1994521E+000  0.8091716E+02  0.7546771E-02  0.1326469E+00
         21   -1    0    0  503  502  0.00000000000E+00  0.00000000000E+00  0.90898284465E+01  0.90898284465E+01  0.00000000000E+00 0.  1.
         21   -1    0    0  501  503 -0.00000000000E+00 -0.00000000000E+00 -0.12258671137E+04  0.12258671137E+04  0.00000000000E+00 0.  1.
         24    1    1    2    0    0  0.11479743608E+02 -0.41457972241E+02 -0.71036045054E+03  0.71619112925E+03  0.80419002446E+02 0.  1.
          1    1    1    2  501    0 -0.31496254227E+02  0.39500809415E+02 -0.49056024774E+03  0.49315482826E+03  0.00000000000E+00 0. -1.
         -2    1    1    2    0  502  0.20016510619E+02  0.19571628254E+01 -0.15856586990E+02  0.25610984648E+02  0.00000000000E+00 0.  1.
<mgrwt>
<rscale>  2 0.80917156E+02</rscale>
<asrwt>0</asrwt>
<pdfrwt beam="1">  1       21 0.13984350E-02 0.80917156E+02</pdfrwt>
<pdfrwt beam="2">  1       21 0.18859496E+00 0.80917156E+02</pdfrwt>
<totfact> 0.36761415E+05</totfact>
</mgrwt>
</event>
<event>
 5    1  0.1994521E+000  0.1042142E+03  0.7546771E-02  0.1271676E+00
         21   -1    0    0  501  502  0.00000000000E+00  0.00000000000E+00  0.21095382128E+02  0.21095382128E+02  0.00000000000E+00 0. -1.
         21   -1    0    0  502  503 -0.00000000000E+00 -0.00000000000E+00 -0.73008879039E+03  0.73008879039E+03  0.00000000000E+00 0.  1.
         24    1    1    2    0    0 -0.24105550011E+02  0.73689947748E+02 -0.50648847604E+03  0.51866085090E+03  0.80419002446E+02 0.  1.
          1    1    1    2  501    0  0.43366751372E+02 -0.52146869343E+02 -0.72229042405E+02  0.99080803760E+02  0.00000000000E+00 0. -1.
         -2    1    1    2    0  503 -0.19261201362E+02 -0.21543078405E+02 -0.13027588981E+03  0.13344251786E+03  0.00000000000E+00 0.  1.
<mgrwt>
<rscale>  2 0.10421418E+03</rscale>
<asrwt>0</asrwt>
<pdfrwt beam="1">  1       21 0.32454431E-02 0.10421418E+03</pdfrwt>
<pdfrwt beam="2">  1       21 0.11232136E+00 0.10421418E+03</pdfrwt>
<totfact> 0.35257519E+05</totfact>
</mgrwt>
</event>
<event>
 5    1  0.1994521E+000  0.7653503E+02  0.7546771E-02  0.1339182E+00
         21   -1    0    0  501  502  0.00000000000E+00  0.00000000000E+00  0.10733039585E+02  0.10733039585E+02  0.00000000000E+00 0. -1.
         21   -1    0    0  502  503 -0.00000000000E+00 -0.00000000000E+00 -0.23776434395E+04  0.23776434395E+04  0.00000000000E+00 0.  1.
         24    1    1    2    0    0 -0.88974049551E+01  0.43788233118E+02 -0.14096777670E+04  0.14126766070E+04  0.80419002446E+02 0. -1.
          1    1    1    2  501    0 -0.16772763840E+02 -0.19645814574E+02 -0.98251534589E+01  0.27637244392E+02  0.00000000000E+00 0. -1.
         -2    1    1    2    0  503  0.25670168795E+02 -0.24142418544E+02 -0.94740747944E+03  0.94806262770E+03  0.00000000000E+00 0.  1.
<mgrwt>
<rscale>  2 0.76535034E+02</rscale>
<asrwt>0</asrwt>
<pdfrwt beam="1">  1       21 0.16512335E-02 0.76535034E+02</pdfrwt>
<pdfrwt beam="2">  1       21 0.36579205E+00 0.76535034E+02</pdfrwt>
<totfact> 0.28722494E+04</totfact>
</mgrwt>
</event>
<event>
 5    1  0.1994521E+000  0.6834041E+02  0.7546771E-02  0.1365829E+00
         21   -1    0    0  501  502  0.00000000000E+00  0.00000000000E+00  0.95208740319E+01  0.95208740319E+01  0.00000000000E+00 0. -1.
         21   -1    0    0  502  503 -0.00000000000E+00 -0.00000000000E+00 -0.84759929245E+03  0.84759929245E+03  0.00000000000E+00 0. -1.
         24    1    1    2    0    0  0.39776428844E+01  0.32623594608E+02 -0.71793890725E+03  0.72317605814E+03  0.80419002446E+02 0. -1.
          1    1    1    2  501    0 -0.20529790532E+02 -0.13786460506E+02 -0.23536385132E+02  0.34139423218E+02  0.00000000000E+00 0. -1.
         -2    1    1    2    0  503  0.16552147648E+02 -0.18837134101E+02 -0.96603126043E+02  0.99804685131E+02  0.00000000000E+00 0.  1.
<mgrwt>
<rscale>  2 0.68340413E+02</rscale>
<asrwt>0</asrwt>
<pdfrwt beam="1">  1       21 0.14647501E-02 0.68340413E+02</pdfrwt>
<pdfrwt beam="2">  1       21 0.13039987E+00 0.68340413E+02</pdfrwt>
<totfact> 0.88516219E+05</totfact>
</mgrwt>
</event>
<event>
 5    1  0.1994521E+000  0.9388962E+02  0.7546771E-02  0.1293697E+00
         21   -1    0    0  501  502  0.00000000000E+00  0.00000000000E+00  0.34517169241E+02  0.34517169241E+02  0.00000000000E+00 0. -1.
         21   -1    0    0  502  503 -0.00000000000E+00 -0.00000000000E+00 -0.43453268495E+03  0.43453268495E+03  0.00000000000E+00 0.  1.
         24    1    1    2    0    0 -0.16640950991E+02 -0.26536728319E+02 -0.47392811498E+02  0.98460213974E+02  0.80419002446E+02 0. -1.
          1    1    1    2  501    0 -0.22085892208E+02  0.51063568269E+02 -0.10569810378E+03  0.11944607060E+03  0.00000000000E+00 0. -1.
         -2    1    1    2    0  503  0.38726843199E+02 -0.24526839950E+02 -0.24692460043E+03  0.25114356962E+03  0.00000000000E+00 0.  1.
<mgrwt>
<rscale>  2 0.93889621E+02</rscale>
<asrwt>0</asrwt>
<pdfrwt beam="1">  1       21 0.53103342E-02 0.93889621E+02</pdfrwt>
<pdfrwt beam="2">  1       21 0.66851177E-01 0.93889621E+02</pdfrwt>
<totfact> 0.50414915E+05</totfact>
</mgrwt>
</event>
<event>
 5    1  0.1994521E+000  0.9047774E+02  0.7546771E-02  0.1301699E+00
         21   -1    0    0  501  502  0.00000000000E+00  0.00000000000E+00  0.15224590708E+04  0.15224590708E+04  0.00000000000E+00 0. -1.
         21   -1    0    0  502  503 -0.00000000000E+00 -0.00000000000E+00 -0.68975125219E+01  0.68975125219E+01  0.00000000000E+00 0. -1.
         24    1    1    2    0    0  0.11177012723E+02  0.70606995014E+02  0.55438940489E+03  0.56473454079E+03  0.80419002446E+02 0. -1.
          1    1    1    2  501    0  0.19030769946E+01 -0.40333357440E+02  0.72923857385E+03  0.73035559765E+03  0.00000000000E+00 0. -1.
         -2    1    1    2    0  503 -0.13080089717E+02 -0.30273637574E+02  0.23193357954E+03  0.23426644488E+03  0.00000000000E+00 0.  1.
<mgrwt>
<rscale>  2 0.90477739E+02</rscale>
<asrwt>0</asrwt>
<pdfrwt beam="1">  1       21 0.23422421E+00 0.90477739E+02</pdfrwt>
<pdfrwt beam="2">  1       21 0.10611570E-02 0.90477739E+02</pdfrwt>
<totfact> 0.30033545E+05</totfact>
</mgrwt>
</event>
<event>
 5    1  0.1994521E+000  0.7950114E+02  0.7546771E-02  0.1330473E+00
         21   -1    0    0  501  502  0.00000000000E+00  0.00000000000E+00  0.44817784760E+01  0.44817784760E+01  0.00000000000E+00 0.  1.
         21   -1    0    0  502  503 -0.00000000000E+00 -0.00000000000E+00 -0.16355097989E+04  0.16355097989E+04  0.00000000000E+00 0. -1.
         24    1    1    2    0    0  0.31581207912E+02  0.56779073580E+01 -0.60752231368E+03  0.61366129819E+03  0.80419002446E+02 0.  1.
          1    1    1    2  501    0  0.14069737216E+02 -0.20107255699E+02 -0.21245439704E+03  0.21386708503E+03  0.00000000000E+00 0. -1.
         -2    1    1    2    0  503 -0.45650945128E+02  0.14429348341E+02 -0.81105130972E+03  0.81246319417E+03  0.00000000000E+00 0.  1.
<mgrwt>
<rscale>  2 0.79501136E+02</rscale>
<asrwt>0</asrwt>
<pdfrwt beam="1">  1       21 0.68950405E-03 0.79501136E+02</pdfrwt>
<pdfrwt beam="2">  1       21 0.25161701E+00 0.79501136E+02</pdfrwt>
<totfact> 0.47295696E+05</totfact>
</mgrwt>
</event>
<event>
 5    1  0.1994521E+000  0.7080635E+02  0.7546771E-02  0.1357372E+00
         21   -1    0    0  501  502  0.00000000000E+00  0.00000000000E+00  0.67414816107E+02  0.67414816107E+02  0.00000000000E+00 0. -1.
         21   -1    0    0  502  503 -0.00000000000E+00 -0.00000000000E+00 -0.13065332744E+03  0.13065332744E+03  0.00000000000E+00 0. -1.
         24    1    1    2    0    0 -0.29338467015E+02 -0.10503064183E+02 -0.45650684477E+02  0.97582072901E+02  0.80419002446E+02 0. -1.
          1    1    1    2  501    0 -0.22381845389E+01  0.21736910000E+02  0.33134341075E+02  0.39691148696E+02  0.00000000000E+00 0. -1.
         -2    1    1    2    0  503  0.31576651554E+02 -0.11233845817E+02 -0.50722167927E+02  0.60794921946E+02  0.00000000000E+00 0.  1.
<mgrwt>
<rscale>  2 0.70806354E+02</rscale>
<asrwt>0</asrwt>
<pdfrwt beam="1">  1       21 0.10371510E-01 0.70806354E+02</pdfrwt>
<pdfrwt beam="2">  1       21 0.20100512E-01 0.70806354E+02</pdfrwt>
<totfact> 0.16979071E+06</totfact>
</mgrwt>
</event>
<event>
 5    1  0.1994521E+000  0.9225386E+02  0.7546771E-02  0.1297484E+00
         21   -1    0    0  501  502  0.00000000000E+00  0.00000000000E+00  0.81957581230E+02  0.81957581230E+02  0.00000000000E+00 0. -1.
         21   -1    0    0  502  503 -0.00000000000E+00 -0.00000000000E+00 -0.50079401643E+03  0.50079401643E+03  0.00000000000E+00 0. -1.
         24    1    1    2    0    0 -0.72180897350E+02  0.16209572792E+02 -0.50450742871E+02  0.12035499825E+03  0.80419002446E+02 0. -1.
          1    1    1    2  501    0  0.42975772911E+02 -0.27047195225E+01  0.36369397060E+02  0.56364577595E+02  0.00000000000E+00 0. -1.
         -2    1    1    2    0  503  0.29205124440E+02 -0.13504853269E+02 -0.40475508939E+03  0.40603202182E+03  0.00000000000E+00 0.  1.
<mgrwt>
<rscale>  2 0.92253861E+02</rscale>
<asrwt>0</asrwt>
<pdfrwt beam="1">  1       21 0.12608858E-01 0.92253861E+02</pdfrwt>
<pdfrwt beam="2">  1       21 0.77045237E-01 0.92253861E+02</pdfrwt>
<totfact> 0.84259026E+04</totfact>
</mgrwt>
</event>
<event>
 5    1  0.1994521E+000  0.1445948E+03  0.7546771E-02  0.1207277E+00
         21   -1    0    0  501  502  0.00000000000E+00  0.00000000000E+00  0.46254312527E+02  0.46254312527E+02  0.00000000000E+00 0. -1.
         21   -1    0    0  502  503 -0.00000000000E+00 -0.00000000000E+00 -0.66962153403E+03  0.66962153403E+03  0.00000000000E+00 0. -1.
         24    1    1    2    0    0  0.38931828089E+02 -0.11981254801E+03 -0.29990718959E+03  0.33508547002E+03  0.80419002446E+02 0. -1.
          1    1    1    2  501    0 -0.52904462690E+02  0.68508972974E+02 -0.45496817207E+02  0.97787125566E+02  0.00000000000E+00 0. -1.
         -2    1    1    2    0  503  0.13972634602E+02  0.51303575033E+02 -0.27796321470E+03  0.28300325096E+03  0.00000000000E+00 0.  1.
<mgrwt>
<rscale>  2 0.14459478E+03</rscale>
<asrwt>0</asrwt>
<pdfrwt beam="1">  1       21 0.71160486E-02 0.14459478E+03</pdfrwt>
<pdfrwt beam="2">  1       21 0.10301869E+00 0.14459478E+03</pdfrwt>
<totfact> 0.11464852E+05</totfact>
</mgrwt>
</event>
<event>
 5    1  0.2452119E+000  0.9415506E+02  0.7546771E-02  0.1293091E+00
         21   -1    0    0  501  502  0.00000000000E+00  0.00000000000E+00  0.56405537178E+02  0.56405537178E+02  0.00000000000E+00 0.  1.
         21   -1    0    0  502  503 -0.00000000000E+00 -0.00000000000E+00 -0.75544371294E+03  0.75544371294E+03  0.00000000000E+00 0.  1.
         24    1    1    2    0    0 -0.39026101101E+02  0.20914734005E+02 -0.18154671068E+02  0.93580290134E+02  0.80419002446E+02 0.  1.
          1    1    1    2  501    0  0.91885369827E+01 -0.52359532774E+02 -0.21308909573E+02  0.57271454595E+02  0.00000000000E+00 0. -1.
         -2    1    1    2    0  503  0.29837564119E+02  0.31444798769E+02 -0.65957459512E+03  0.66099750538E+03  0.00000000000E+00 0.  1.
<mgrwt>
<rscale>  2 0.94155064E+02</rscale>
<asrwt>0</asrwt>
<pdfrwt beam="1">  1       21 0.86777748E-02 0.94155064E+02</pdfrwt>
<pdfrwt beam="2">  1       21 0.11622211E+00 0.94155064E+02</pdfrwt>
<totfact> 0.62898084E+04</totfact>
</mgrwt>
</event>
<event>
 5    1  0.1994521E+000  0.1711064E+03  0.7546771E-02  0.1176699E+00
         21   -1    0    0  503  502  0.00000000000E+00  0.00000000000E+00  0.21448511066E+03  0.21448511066E+03  0.00000000000E+00 0. -1.
         21   -1    0    0  501  503 -0.00000000000E+00 -0.00000000000E+00 -0.19595985875E+03  0.19595985875E+03  0.00000000000E+00 0.  1.
         24    1    1    2    0    0  0.90275749372E+01 -0.45910361599E+02  0.71766734485E+02  0.11750292994E+03  0.80419002446E+02 0. -1.
          1    1    1    2  501    0  0.78010701310E+02 -0.69596671226E+02 -0.96198227385E+02  0.14206852261E+03  0.00000000000E+00 0. -1.
         -2    1    1    2    0  502 -0.87038276247E+02  0.11550703283E+03  0.42956744820E+02  0.15087351686E+03  0.00000000000E+00 0.  1.
<mgrwt>
<rscale>  2 0.17110637E+03</rscale>
<asrwt>0</asrwt>
<pdfrwt beam="1">  1       21 0.32997709E-01 0.17110637E+03</pdfrwt>
<pdfrwt beam="2">  1       21 0.30147671E-01 0.17110637E+03</pdfrwt>
<totfact> 0.94112137E+04</totfact>
</mgrwt>
</event>
<event>
 5    1  0.1994521E+000  0.6526224E+02  0.7546771E-02  0.1376988E+00
         21   -1    0    0  503  502  0.00000000000E+00  0.00000000000E+00  0.70428833830E+03  0.70428833830E+03  0.00000000000E+00 0.  1.
         21   -1    0    0  501  503 -0.00000000000E+00 -0.00000000000E+00 -0.24708928446E+02  0.24708928446E+02  0.00000000000E+00 0.  1.
         24    1    1    2    0    0  0.13674720113E+02 -0.92659266461E+01  0.52568840865E+02  0.97486175179E+02  0.80419002446E+02 0.  1.
          1    1    1    2  501    0  0.29758785810E+01  0.25202984754E+02  0.78160981940E+02  0.82177767015E+02  0.00000000000E+00 0. -1.
         -2    1    1    2    0  502 -0.16650598694E+02 -0.15937058108E+02  0.54884958705E+03  0.54933332455E+03  0.00000000000E+00 0.  1.
<mgrwt>
<rscale>  2 0.65262240E+02</rscale>
<asrwt>0</asrwt>
<pdfrwt beam="1">  1       21 0.10835204E+00 0.65262240E+02</pdfrwt>
<pdfrwt beam="2">  1       21 0.38013741E-02 0.65262240E+02</pdfrwt>
<totfact> 0.29936772E+05</totfact>
</mgrwt>
</event>
<event>
 5    1  0.1994521E+000  0.1319846E+03  0.7546771E-02  0.1224540E+00
         21   -1    0    0  501  502  0.00000000000E+00  0.00000000000E+00  0.19580682140E+02  0.19580682140E+02  0.00000000000E+00 0. -1.
         21   -1    0    0  502  503 -0.00000000000E+00 -0.00000000000E+00 -0.14595941913E+04  0.14595941913E+04  0.00000000000E+00 0.  1.
         24    1    1    2    0    0 -0.17965928603E+02 -0.28858744285E+02 -0.23263887550E+03  0.24848272387E+03  0.80419002446E+02 0. -1.
          1    1    1    2  501    0 -0.29154508658E+02  0.92777537655E+02 -0.22505634544E+03  0.24516936083E+03  0.00000000000E+00 0. -1.
         -2    1    1    2    0  503  0.47120437260E+02 -0.63918793370E+02 -0.98231828820E+03  0.98552278872E+03  0.00000000000E+00 0.  1.
<mgrwt>
<rscale>  2 0.13198462E+03</rscale>
<asrwt>0</asrwt>
<pdfrwt beam="1">  1       21 0.30124123E-02 0.13198462E+03</pdfrwt>
<pdfrwt beam="2">  1       21 0.22455298E+00 0.13198462E+03</pdfrwt>
<totfact> 0.62057918E+04</totfact>
</mgrwt>
</event>
<event>
 5    1  0.3154985E+000  0.1208840E+03  0.7546771E-02  0.1241646E+00
         21   -1    0    0  503  502  0.00000000000E+00  0.00000000000E+00  0.15617276796E+03  0.15617276796E+03  0.00000000000E+00 0.  1.
         21   -1    0    0  501  503 -0.00000000000E+00 -0.00000000000E+00 -0.44972623219E+03  0.44972623219E+03  0.00000000000E+00 0. -1.
         24    1    1    2    0    0  0.98010116504E+00  0.35556762671E+02  0.11697494417E+02  0.88709026034E+02  0.80419002446E+02 0. -1.
          1    1    1    2  501    0 -0.27033984505E+02 -0.89733673187E+02 -0.39677260710E+03  0.40769040971E+03  0.00000000000E+00 0. -1.
         -2    1    1    2    0  502  0.26053883340E+02  0.54176910516E+02  0.91521648453E+02  0.10949956441E+03  0.00000000000E+00 0.  1.
<mgrwt>
<rscale>  2 0.12088399E+03</rscale>
<asrwt>0</asrwt>
<pdfrwt beam="1">  1       21 0.24026580E-01 0.12088399E+03</pdfrwt>
<pdfrwt beam="2">  1       21 0.69188650E-01 0.12088399E+03</pdfrwt>
<totfact> 0.32401070E+04</totfact>
</mgrwt>
</event>
<event>
 5    1  0.1994521E+000  0.8408790E+02  0.7546771E-02  0.1317835E+00
         21   -1    0    0  503  502  0.00000000000E+00  0.00000000000E+00  0.57501920373E+02  0.57501920373E+02  0.00000000000E+00 0. -1.
         21   -1    0    0  501  503 -0.00000000000E+00 -0.00000000000E+00 -0.14485285706E+03  0.14485285706E+03  0.00000000000E+00 0.  1.
         24    1    1    2    0    0  0.32875634742E+02 -0.29473957206E+01 -0.19185634713E+02  0.89021340334E+02  0.80419002446E+02 0.  1.
          1    1    1    2  501    0 -0.49473432370E+02 -0.19629180060E+02 -0.66618079459E+02  0.85269535774E+02  0.00000000000E+00 0. -1.
         -2    1    1    2    0  502  0.16597797628E+02  0.22576575781E+02 -0.15472225166E+01  0.28063901325E+02  0.00000000000E+00 0.  1.
<mgrwt>
<rscale>  2 0.84087895E+02</rscale>
<asrwt>0</asrwt>
<pdfrwt beam="1">  1       21 0.88464494E-02 0.84087895E+02</pdfrwt>
<pdfrwt beam="2">  1       21 0.22285055E-01 0.84087895E+02</pdfrwt>
<totfact> 0.18610671E+06</totfact>
</mgrwt>
</event>
<event>
 5    1  0.1994521E+000  0.8384953E+02  0.7546771E-02  0.1318469E+00
         21   -1    0    0  501  502  0.00000000000E+00  0.00000000000E+00  0.15837270831E+03  0.15837270831E+03  0.00000000000E+00 0. -1.
         21   -1    0    0  502  503 -0.00000000000E+00 -0.00000000000E+00 -0.64900763576E+02  0.64900763576E+02  0.00000000000E+00 0.  1.
         24    1    1    2    0    0  0.69215388955E+01  0.63820312990E+02 -0.62506191387E+01  0.10308843895E+03  0.80419002446E+02 0.  1.
          1    1    1    2  501    0 -0.88320939042E+01 -0.43322019841E+02  0.81366049860E+02  0.92602577478E+02  0.00000000000E+00 0. -1.
         -2    1    1    2    0  503  0.19105550087E+01 -0.20498293150E+02  0.18356514016E+02  0.27582455462E+02  0.00000000000E+00 0.  1.
<mgrwt>
<rscale>  2 0.83849530E+02</rscale>
<asrwt>0</asrwt>
<pdfrwt beam="1">  1       21 0.24365032E-01 0.83849530E+02</pdfrwt>
<pdfrwt beam="2">  1       21 0.99847329E-02 0.83849530E+02</pdfrwt>
<totfact> 0.12803785E+06</totfact>
</mgrwt>
</event>
<event>
 5    1  0.1994521E+000  0.1440312E+03  0.7546771E-02  0.1208005E+00
         21   -1    0    0  503  502  0.00000000000E+00  0.00000000000E+00  0.16574550601E+03  0.16574550601E+03  0.00000000000E+00 0. -1.
         21   -1    0    0  501  503 -0.00000000000E+00 -0.00000000000E+00 -0.35529791904E+03  0.35529791904E+03  0.00000000000E+00 0. -1.
         24    1    1    2    0    0  0.12411639884E+03  0.12739468704E+02 -0.32708749960E+02  0.15200083158E+03  0.80419002446E+02 0. -1.
          1    1    1    2  501    0 -0.92809686037E+02  0.19334720054E+02 -0.24907001400E+03  0.26650204707E+03  0.00000000000E+00 0. -1.
         -2    1    1    2    0  502 -0.31306712800E+02 -0.32074188758E+02  0.92226350928E+02  0.10254054640E+03  0.00000000000E+00 0.  1.
<mgrwt>
<rscale>  2 0.14403123E+03</rscale>
<asrwt>0</asrwt>
<pdfrwt beam="1">  1       21 0.25499309E-01 0.14403123E+03</pdfrwt>
<pdfrwt beam="2">  1       21 0.54661218E-01 0.14403123E+03</pdfrwt>
<totfact> 0.47227495E+04</totfact>
</mgrwt>
</event>
<event>
 5    1  0.1994521E+000  0.7548571E+02  0.7546771E-02  0.1342374E+00
         21   -1    0    0  503  502  0.00000000000E+00  0.00000000000E+00  0.11780257107E+03  0.11780257107E+03  0.00000000000E+00 0.  1.
         21   -1    0    0  501  503 -0.00000000000E+00 -0.00000000000E+00 -0.71108295526E+02  0.71108295526E+02  0.00000000000E+00 0. -1.
         24    1    1    2    0    0  0.41036338442E+02 -0.65857073577E+01  0.40223866781E+02  0.99058205250E+02  0.80419002446E+02 0.  1.
          1    1    1    2  501    0 -0.11594375418E+02 -0.18456418073E+02 -0.29751595271E+02  0.36881246327E+02  0.00000000000E+00 0. -1.
         -2    1    1    2    0  502 -0.29441963024E+02  0.25042125431E+02  0.36222004033E+02  0.52971415018E+02  0.00000000000E+00 0.  1.
<mgrwt>
<rscale>  2 0.75485708E+02</rscale>
<asrwt>0</asrwt>
<pdfrwt beam="1">  1       21 0.18123473E-01 0.75485708E+02</pdfrwt>
<pdfrwt beam="2">  1       21 0.10939738E-01 0.75485708E+02</pdfrwt>
<totfact> 0.18732666E+06</totfact>
</mgrwt>
</event>
<event>
 5    1  0.1994521E+000  0.1560498E+03  0.7546771E-02  0.1193230E+00
         21   -1    0    0  501  502  0.00000000000E+00  0.00000000000E+00  0.74251909187E+03  0.74251909187E+03  0.00000000000E+00 0. -1.
         21   -1    0    0  502  503 -0.00000000000E+00 -0.00000000000E+00 -0.66629363825E+02  0.66629363825E+02  0.00000000000E+00 0. -1.
         24    1    1    2    0    0  0.48213746156E+02  0.11289689312E+03  0.44710796564E+02  0.15341624777E+03  0.80419002446E+02 0. -1.
          1    1    1    2  501    0 -0.81467348517E+02 -0.10158763719E+03  0.57433316041E+03  0.58891048220E+03  0.00000000000E+00 0. -1.
         -2    1    1    2    0  503  0.33253602360E+02 -0.11309255937E+02  0.56845771070E+02  0.66821725721E+02  0.00000000000E+00 0.  1.
<mgrwt>
<rscale>  2 0.15604980E+03</rscale>
<asrwt>0</asrwt>
<pdfrwt beam="1">  1       21 0.11423370E+00 0.15604980E+03</pdfrwt>
<pdfrwt beam="2">  1       21 0.10250672E-01 0.15604980E+03</pdfrwt>
<totfact> 0.47213022E+04</totfact>
</mgrwt>
</event>
<event>
 5    1  0.1994521E+000  0.6921518E+02  0.7546771E-02  0.1362782E+00
         21   -1    0    0  501  502  0.00000000000E+00  0.00000000000E+00  0.29291076556E+03  0.29291076556E+03  0.00000000000E+00 0. -1.
         21   -1    0    0  502  503 -0.00000000000E+00 -0.00000000000E+00 -0.18718882941E+02  0.18718882941E+02  0.00000000000E+00 0. -1.
         24    1    1    2    0    0  0.33669556923E+02  0.22555666445E+02  0.22071042515E+03  0.23837513477E+03  0.80419002446E+02 0. -1.
          1    1    1    2  501    0 -0.22739741531E+02  0.62548307711E+00  0.34654597273E+02  0.41453928476E+02  0.00000000000E+00 0. -1.
         -2    1    1    2    0  503 -0.10929815393E+02 -0.23181149522E+02  0.18826860197E+02  0.31800585255E+02  0.00000000000E+00 0.  1.
<mgrwt>
<rscale>  2 0.69215180E+02</rscale>
<asrwt>0</asrwt>
<pdfrwt beam="1">  1       21 0.45063191E-01 0.69215180E+02</pdfrwt>
<pdfrwt beam="2">  1       21 0.28798284E-02 0.69215180E+02</pdfrwt>
<totfact> 0.30818331E+06</totfact>
</mgrwt>
</event>
<event>
 5    1  0.1994521E+000  0.2090844E+03  0.7546771E-02  0.1142293E+00
         21   -1    0    0  503  502  0.00000000000E+00  0.00000000000E+00  0.16280610075E+03  0.16280610075E+03  0.00000000000E+00 0.  1.
         21   -1    0    0  501  503 -0.00000000000E+00 -0.00000000000E+00 -0.63889611411E+03  0.63889611411E+03  0.00000000000E+00 0. -1.
         24    1    1    2    0    0  0.13507779867E+03 -0.11505095417E+03 -0.79172398933E+02  0.21028128413E+03  0.80419002446E+02 0.  1.
          1    1    1    2  501    0 -0.56359863311E+02  0.13138807925E+03 -0.46474359355E+03  0.48623643355E+03  0.00000000000E+00 0. -1.
         -2    1    1    2    0  502 -0.78717935358E+02 -0.16337125085E+02  0.67825979129E+02  0.10518449718E+03  0.00000000000E+00 0.  1.
<mgrwt>
<rscale>  2 0.20908439E+03</rscale>
<asrwt>0</asrwt>
<pdfrwt beam="1">  1       21 0.25047093E-01 0.20908439E+03</pdfrwt>
<pdfrwt beam="2">  1       21 0.98291710E-01 0.20908439E+03</pdfrwt>
<totfact> 0.12764626E+04</totfact>
</mgrwt>
</event>
<event>
 5    1  0.1994521E+000  0.8912714E+02  0.7546771E-02  0.1304979E+00
         21   -1    0    0  501  502  0.00000000000E+00  0.00000000000E+00  0.15776136055E+04  0.15776136055E+04  0.00000000000E+00 0. -1.
         21   -1    0    0  502  503 -0.00000000000E+00 -0.00000000000E+00 -0.50649410399E+01  0.50649410399E+01  0.00000000000E+00 0.  1.
         24    1    1    2    0    0  0.50025377831E+02  0.36403939780E+02  0.95449355393E+03  0.95987131727E+03  0.80419002446E+02 0.  0.
          1    1    1    2  501    0 -0.35904483584E+02  0.19114724793E+01  0.28997667170E+03  0.29219728917E+03  0.00000000000E+00 0. -1.
         -2    1    1    2    0  503 -0.14120894247E+02 -0.38315412260E+02  0.32807843885E+03  0.33060994013E+03  0.00000000000E+00 0.  1.
<mgrwt>
<rscale>  2 0.89127143E+02</rscale>
<asrwt>0</asrwt>
<pdfrwt beam="1">  1       21 0.24270939E+00 0.89127143E+02</pdfrwt>
<pdfrwt beam="2">  1       21 0.77922295E-03 0.89127143E+02</pdfrwt>
<totfact> 0.43538218E+05</totfact>
</mgrwt>
</event>
<event>
 5    1  0.1994521E+000  0.8517681E+02  0.7546771E-02  0.1314971E+00
         21   -1    0    0  501  502  0.00000000000E+00  0.00000000000E+00  0.27022956243E+03  0.27022956243E+03  0.00000000000E+00 0.  1.
         21   -1    0    0  502  503 -0.00000000000E+00 -0.00000000000E+00 -0.43493015739E+02  0.43493015739E+02  0.00000000000E+00 0. -1.
         24    1    1    2    0    0 -0.38518237766E+01 -0.39042809270E+02  0.59237119056E+02  0.10730997032E+03  0.80419002446E+02 0.  1.
          1    1    1    2  501    0 -0.70037605670E+01  0.58326714718E+02  0.17375402361E+03  0.18341624528E+03  0.00000000000E+00 0. -1.
         -2    1    1    2    0  503  0.10855584344E+02 -0.19283905448E+02 -0.62545959702E+01  0.22996362571E+02  0.00000000000E+00 0.  1.
<mgrwt>
<rscale>  2 0.85176808E+02</rscale>
<asrwt>0</asrwt>
<pdfrwt beam="1">  1       21 0.41573778E-01 0.85176808E+02</pdfrwt>
<pdfrwt beam="2">  1       21 0.66912333E-02 0.85176808E+02</pdfrwt>
<totfact> 0.90924694E+05</totfact>
</mgrwt>
</event>
<event>
 5    1  0.1994521E+000  0.9159949E+02  0.7546771E-02  0.1299024E+00
         21   -1    0    0  501  502  0.00000000000E+00  0.00000000000E+00  0.45723798352E+03  0.45723798352E+03  0.00000000000E+00 0. -1.
         21   -1    0    0  502  503 -0.00000000000E+00 -0.00000000000E+00 -0.51264881507E+02  0.51264881507E+02  0.00000000000E+00 0.  1.
         24    1    1    2    0    0 -0.51022086834E+02  0.48890075855E+02  0.48901316617E+02  0.11769472199E+03  0.80419002446E+02 0.  1.
          1    1    1    2  501    0  0.35689850082E+02 -0.14559186475E+02  0.35053164409E+03  0.35264453606E+03  0.00000000000E+00 0. -1.
         -2    1    1    2    0  503  0.15332236752E+02 -0.34330889380E+02  0.65401413125E+01  0.38163606981E+02  0.00000000000E+00 0.  1.
<mgrwt>
<rscale>  2 0.91599486E+02</rscale>
<asrwt>0</asrwt>
<pdfrwt beam="1">  1       21 0.70344302E-01 0.91599486E+02</pdfrwt>
<pdfrwt beam="2">  1       21 0.78869052E-02 0.91599486E+02</pdfrwt>
<totfact> 0.23177724E+05</totfact>
</mgrwt>
</event>
<event>
 5    1  0.1994521E+000  0.7037965E+02  0.7546771E-02  0.1358807E+00
         21   -1    0    0  503  502  0.00000000000E+00  0.00000000000E+00  0.26828108160E+03  0.26828108160E+03  0.00000000000E+00 0.  1.
         21   -1    0    0  501  503 -0.00000000000E+00 -0.00000000000E+00 -0.12668507969E+03  0.12668507969E+03  0.00000000000E+00 0. -1.
         24    1    1    2    0    0 -0.33447446148E+02  0.10592792096E+02  0.76507184623E+02  0.11641092797E+03  0.80419002446E+02 0.  0.
          1    1    1    2  501    0  0.31162656179E+01 -0.20788845199E+02 -0.10418445263E+03  0.10628399393E+03  0.00000000000E+00 0. -1.
         -2    1    1    2    0  502  0.30331180530E+02  0.10196053102E+02  0.16927326991E+03  0.17227123938E+03  0.00000000000E+00 0.  1.
<mgrwt>
<rscale>  2 0.70379653E+02</rscale>
<asrwt>0</asrwt>
<pdfrwt beam="1">  1       21 0.41274012E-01 0.70379653E+02</pdfrwt>
<pdfrwt beam="2">  1       21 0.19490012E-01 0.70379653E+02</pdfrwt>
<totfact> 0.14312255E+05</totfact>
</mgrwt>
</event>
<event>
 5    1  0.1994521E+000  0.7268012E+02  0.7546771E-02  0.1351209E+00
         21   -1    0    0  503  502  0.00000000000E+00  0.00000000000E+00  0.29120504110E+03  0.29120504110E+03  0.00000000000E+00 0.  1.
         21   -1    0    0  501  503 -0.00000000000E+00 -0.00000000000E+00 -0.25509379138E+02  0.25509379138E+02  0.00000000000E+00 0. -1.
         24    1    1    2    0    0 -0.24185997361E+01 -0.11787496805E+02  0.19345405971E+03  0.20984871665E+03  0.80419002446E+02 0.  1.
          1    1    1    2  501    0 -0.10426347249E+02 -0.23922591608E+02  0.96270484372E+00  0.26113711089E+02  0.00000000000E+00 0. -1.
         -2    1    1    2    0  502  0.12844946985E+02  0.35710088413E+02  0.71278897407E+02  0.80751992502E+02  0.00000000000E+00 0.  1.
<mgrwt>
<rscale>  2 0.72680119E+02</rscale>
<asrwt>0</asrwt>
<pdfrwt beam="1">  1       21 0.44800773E-01 0.72680119E+02</pdfrwt>
<pdfrwt beam="2">  1       21 0.39245201E-02 0.72680119E+02</pdfrwt>
<totfact> 0.18914188E+06</totfact>
</mgrwt>
</event>
<event>
 5    1  0.1994521E+000  0.1110649E+03  0.7546771E-02  0.1258611E+00
         21   -1    0    0  501  502  0.00000000000E+00  0.00000000000E+00  0.37236627911E+03  0.37236627911E+03  0.00000000000E+00 0. -1.
         21   -1    0    0  502  503 -0.00000000000E+00 -0.00000000000E+00 -0.10174685793E+03  0.10174685793E+03  0.00000000000E+00 0.  1.
         24    1    1    2    0    0  0.56385670761E+02  0.73884804348E+02 -0.34496856759E+02  0.12765405305E+03  0.80419002446E+02 0.  1.
          1    1    1    2  501    0 -0.44140497809E+02 -0.29276976295E+02  0.29420059868E+03  0.29893062264E+03  0.00000000000E+00 0. -1.
         -2    1    1    2    0  503 -0.12245172952E+02 -0.44607828053E+02  0.10915679261E+02  0.47528461346E+02  0.00000000000E+00 0.  1.
<mgrwt>
<rscale>  2 0.11106487E+03</rscale>
<asrwt>0</asrwt>
<pdfrwt beam="1">  1       21 0.57287119E-01 0.11106487E+03</pdfrwt>
<pdfrwt beam="2">  1       21 0.15653363E-01 0.11106487E+03</pdfrwt>
<totfact> 0.10719840E+05</totfact>
</mgrwt>
</event>
<event>
 5    1  0.1994521E+000  0.7680578E+02  0.7546771E-02  0.1338369E+00
         21   -1    0    0  501  502  0.00000000000E+00  0.00000000000E+00  0.89581793647E+02  0.89581793647E+02  0.00000000000E+00 0. -1.
         21   -1    0    0  502  503 -0.00000000000E+00 -0.00000000000E+00 -0.14223812232E+03  0.14223812232E+03  0.00000000000E+00 0.  1.
         24    1    1    2    0    0  0.52136027940E+02  0.19178784177E+02 -0.10772678866E+03  0.14545881933E+03  0.80419002446E+02 0.  1.
          1    1    1    2  501    0 -0.33459876152E+02 -0.92264708998E+01  0.55191789052E+02  0.65198348569E+02  0.00000000000E+00 0. -1.
         -2    1    1    2    0  503 -0.18676151788E+02 -0.99523132769E+01 -0.12132906899E+00  0.21162748071E+02  0.00000000000E+00 0.  1.
<mgrwt>
<rscale>  2 0.76805785E+02</rscale>
<asrwt>0</asrwt>
<pdfrwt beam="1">  1       21 0.13781814E-01 0.76805785E+02</pdfrwt>
<pdfrwt beam="2">  1       21 0.21882788E-01 0.76805785E+02</pdfrwt>
<totfact> 0.88777714E+05</totfact>
</mgrwt>
</event>
<event>
 5    1  0.1994521E+000  0.6447728E+02  0.7546771E-02  0.1379949E+00
         21   -1    0    0  501  502  0.00000000000E+00  0.00000000000E+00  0.28909712398E+02  0.28909712398E+02  0.00000000000E+00 0. -1.
         21   -1    0    0  502  503 -0.00000000000E+00 -0.00000000000E+00 -0.33058981527E+03  0.33058981527E+03  0.00000000000E+00 0. -1.
         24    1    1    2    0    0  0.63205423449E-01 -0.36580966090E+01 -0.14482852150E+03  0.16569822649E+03  0.80419002446E+02 0. -1.
          1    1    1    2  501    0 -0.15879235267E+02 -0.16453806996E+02  0.10030128192E+02  0.24969608504E+02  0.00000000000E+00 0. -1.
         -2    1    1    2    0  503  0.15816029843E+02  0.20111903605E+02 -0.16688170956E+03  0.16883169267E+03  0.00000000000E+00 0.  1.
<mgrwt>
<rscale>  2 0.64477276E+02</rscale>
<asrwt>0</asrwt>
<pdfrwt beam="1">  1       21 0.44476483E-02 0.64477276E+02</pdfrwt>
<pdfrwt beam="2">  1       21 0.50859969E-01 0.64477276E+02</pdfrwt>
<totfact> 0.11886331E+06</totfact>
</mgrwt>
</event>
<event>
 5    1  0.1994521E+000  0.6864441E+02  0.7546771E-02  0.1364764E+00
         21   -1    0    0  503  502  0.00000000000E+00  0.00000000000E+00  0.97099388558E+02  0.97099388558E+02  0.00000000000E+00 0.  1.
         21   -1    0    0  501  503 -0.00000000000E+00 -0.00000000000E+00 -0.61147444341E+02  0.61147444341E+02  0.00000000000E+00 0.  1.
         24    1    1    2    0    0  0.34465948668E+02  0.26933287379E+02  0.55292814439E+02  0.10694772026E+03  0.80419002446E+02 0.  1.
          1    1    1    2  501    0 -0.21869116285E+02 -0.85990055461E+01 -0.16849149665E+02  0.28915307155E+02  0.00000000000E+00 0. -1.
         -2    1    1    2    0  502 -0.12596832383E+02 -0.18334281833E+02 -0.24917205577E+01  0.22383805480E+02  0.00000000000E+00 0.  1.
<mgrwt>
<rscale>  2 0.68644412E+02</rscale>
<asrwt>0</asrwt>
<pdfrwt beam="1">  1       21 0.14938367E-01 0.68644412E+02</pdfrwt>
<pdfrwt beam="2">  1       21 0.94072991E-02 0.68644412E+02</pdfrwt>
<totfact> 0.34132552E+06</totfact>
</mgrwt>
</event>
<event>
 5    1  0.1994521E+000  0.1200590E+03  0.7546771E-02  0.1243000E+00
         21   -1    0    0  501  502  0.00000000000E+00  0.00000000000E+00  0.25648426084E+03  0.25648426084E+03  0.00000000000E+00 0. -1.
         21   -1    0    0  502  503 -0.00000000000E+00 -0.00000000000E+00 -0.10444949404E+03  0.10444949404E+03  0.00000000000E+00 0.  1.
         24    1    1    2    0    0 -0.47345024198E+02  0.18500462628E+02 -0.21858511839E+02  0.97615720701E+02  0.80419002446E+02 0.  1.
          1    1    1    2  501    0  0.28927819852E+02  0.58792665504E+02  0.17175833281E+03  0.18383231807E+03  0.00000000000E+00 0. -1.
         -2    1    1    2    0  503  0.18417204346E+02 -0.77293128131E+02  0.21349458337E+01  0.79485716113E+02  0.00000000000E+00 0.  1.
<mgrwt>
<rscale>  2 0.12005899E+03</rscale>
<asrwt>0</asrwt>
<pdfrwt beam="1">  1       21 0.39459117E-01 0.12005899E+03</pdfrwt>
<pdfrwt beam="2">  1       21 0.16069153E-01 0.12005899E+03</pdfrwt>
<totfact> 0.21826224E+05</totfact>
</mgrwt>
</event>
<event>
 5    1  0.1994521E+000  0.6603320E+02  0.7546771E-02  0.1374127E+00
         21   -1    0    0  501  502  0.00000000000E+00  0.00000000000E+00  0.30007329280E+02  0.30007329280E+02  0.00000000000E+00 0.  1.
         21   -1    0    0  502  503 -0.00000000000E+00 -0.00000000000E+00 -0.23734415825E+03  0.23734415825E+03  0.00000000000E+00 0. -1.
         24    1    1    2    0    0  0.15912644655E+02  0.96152973655E+01 -0.58876466490E+02  0.10138698370E+03  0.80419002446E+02 0.  1.
          1    1    1    2  501    0 -0.13132417238E+02  0.17716714036E+02 -0.89918536865E+01  0.23815872259E+02  0.00000000000E+00 0. -1.
         -2    1    1    2    0  503 -0.27802274174E+01 -0.27332011402E+02 -0.13946850879E+03  0.14214863157E+03  0.00000000000E+00 0.  1.
<mgrwt>
<rscale>  2 0.66033203E+02</rscale>
<asrwt>0</asrwt>
<pdfrwt beam="1">  1       21 0.46165120E-02 0.66033203E+02</pdfrwt>
<pdfrwt beam="2">  1       21 0.36514487E-01 0.66033203E+02</pdfrwt>
<totfact> 0.21567859E+06</totfact>
</mgrwt>
</event>
<event>
 5    1  0.1994521E+000  0.8545899E+02  0.7546771E-02  0.1314237E+00
         21   -1    0    0  503  502  0.00000000000E+00  0.00000000000E+00  0.24276459092E+03  0.24276459092E+03  0.00000000000E+00 0.  1.
         21   -1    0    0  501  503 -0.00000000000E+00 -0.00000000000E+00 -0.48599706259E+02  0.48599706259E+02  0.00000000000E+00 0. -1.
         24    1    1    2    0    0 -0.25633421371E+02  0.25779592947E+02  0.21046866642E+02  0.90729522502E+02  0.80419002446E+02 0.  0.
          1    1    1    2  501    0  0.39964421222E+02 -0.44027498326E+02  0.57513287556E+02  0.82724565988E+02  0.00000000000E+00 0. -1.
         -2    1    1    2    0  502 -0.14330999851E+02  0.18247905379E+02  0.11560473046E+03  0.11791020869E+03  0.00000000000E+00 0.  1.
<mgrwt>
<rscale>  2 0.85458988E+02</rscale>
<asrwt>0</asrwt>
<pdfrwt beam="1">  1       21 0.37348398E-01 0.85458988E+02</pdfrwt>
<pdfrwt beam="2">  1       21 0.74768780E-02 0.85458988E+02</pdfrwt>
<totfact> 0.93076119E+05</totfact>
</mgrwt>
</event>
<event>
 5    1  0.1994521E+000  0.1162911E+03  0.7546771E-02  0.1249344E+00
         21   -1    0    0  501  502  0.00000000000E+00  0.00000000000E+00  0.18764487063E+03  0.18764487063E+03  0.00000000000E+00 0.  1.
         21   -1    0    0  502  503 -0.00000000000E+00 -0.00000000000E+00 -0.86848201614E+02  0.86848201614E+02  0.00000000000E+00 0.  1.
         24    1    1    2    0    0 -0.66186630496E+02  0.77887438626E+02  0.83041006304E+02  0.15430537202E+03  0.80419002446E+02 0.  1.
          1    1    1    2  501    0  0.29627678272E+02 -0.28775077603E+02  0.37572814368E+02  0.55834763279E+02  0.00000000000E+00 0. -1.
         -2    1    1    2    0  503  0.36558952223E+02 -0.49112361023E+02 -0.19817151660E+02  0.64352936940E+02  0.00000000000E+00 0.  1.
<mgrwt>
<rscale>  2 0.11629109E+03</rscale>
<asrwt>0</asrwt>
<pdfrwt beam="1">  1       21 0.28868441E-01 0.11629109E+03</pdfrwt>
<pdfrwt beam="2">  1       21 0.13361262E-01 0.11629109E+03</pdfrwt>
<totfact> 0.55974987E+05</totfact>
</mgrwt>
</event>
<event>
 5    1  0.1994521E+000  0.7898043E+02  0.7546771E-02  0.1331970E+00
         21   -1    0    0  503  502  0.00000000000E+00  0.00000000000E+00  0.19864351462E+03  0.19864351462E+03  0.00000000000E+00 0.  1.
         21   -1    0    0  501  503 -0.00000000000E+00 -0.00000000000E+00 -0.42693480001E+02  0.42693480001E+02  0.00000000000E+00 0. -1.
         24    1    1    2    0    0  0.24547913224E+02 -0.21640775116E+02  0.78322618531E+02  0.11692977260E+03  0.80419002446E+02 0.  1.
          1    1    1    2  501    0  0.20307559444E+02 -0.20504540048E+01 -0.10325512981E+02  0.22873949168E+02  0.00000000000E+00 0. -1.
         -2    1    1    2    0  502 -0.44855472668E+02  0.23691229121E+02  0.87952929069E+02  0.10153327286E+03  0.00000000000E+00 0.  1.
<mgrwt>
<rscale>  2 0.78980428E+02</rscale>
<asrwt>0</asrwt>
<pdfrwt beam="1">  1       21 0.30560540E-01 0.78980428E+02</pdfrwt>
<pdfrwt beam="2">  1       21 0.65682278E-02 0.78980428E+02</pdfrwt>
<totfact> 0.17031174E+06</totfact>
</mgrwt>
</event>
<event>
 5    1  0.1994521E+000  0.1094996E+03  0.7546771E-02  0.1261499E+00
         21   -1    0    0  503  502  0.00000000000E+00  0.00000000000E+00  0.74364566190E+02  0.74364566190E+02  0.00000000000E+00 0.  1.
         21   -1    0    0  501  503 -0.00000000000E+00 -0.00000000000E+00 -0.22597601565E+03  0.22597601565E+03  0.00000000000E+00 0. -1.
         24    1    1    2    0    0 -0.15098281580E+02 -0.89070748446E+02 -0.57805746891E+02  0.13405326055E+03  0.80419002446E+02 0.  1.
          1    1    1    2  501    0 -0.10898469147E+02  0.49626352624E+02 -0.10595654740E+03  0.11750889942E+03  0.00000000000E+00 0. -1.
         -2    1    1    2    0  502  0.25996750727E+02  0.39444395822E+02  0.12150844837E+02  0.48778421872E+02  0.00000000000E+00 0.  1.
<mgrwt>
<rscale>  2 0.10949961E+03</rscale>
<asrwt>0</asrwt>
<pdfrwt beam="1">  1       21 0.11440703E-01 0.10949961E+03</pdfrwt>
<pdfrwt beam="2">  1       21 0.34765541E-01 0.10949961E+03</pdfrwt>
<totfact> 0.51436113E+05</totfact>
</mgrwt>
</event>
<event>
 5    1  0.1994521E+000  0.1157936E+03  0.7546771E-02  0.1250202E+00
         21   -1    0    0  503  502  0.00000000000E+00  0.00000000000E+00  0.19134059393E+04  0.19134059393E+04  0.00000000000E+00 0.  1.
         21   -1    0    0  501  503 -0.00000000000E+00 -0.00000000000E+00 -0.11848722537E+02  0.11848722537E+02  0.00000000000E+00 0.  1.
         24    1    1    2    0    0  0.42027421846E+02 -0.92134214679E+02  0.74940229753E+03  0.76047750604E+03  0.80419002446E+02 0.  1.
          1    1    1    2  501    0 -0.15907632202E+02  0.19998041598E+02  0.27617662497E+02  0.37625918087E+02  0.00000000000E+00 0. -1.
         -2    1    1    2    0  502 -0.26119789644E+02  0.72136173081E+02  0.11245372567E+04  0.11271512377E+04  0.00000000000E+00 0.  1.
<mgrwt>
<rscale>  2 0.11579363E+03</rscale>
<asrwt>0</asrwt>
<pdfrwt beam="1">  1       21 0.29436990E+00 0.11579363E+03</pdfrwt>
<pdfrwt beam="2">  1       21 0.18228819E-02 0.11579363E+03</pdfrwt>
<totfact> 0.57010693E+04</totfact>
</mgrwt>
</event>
<event>
 5    1  0.1994521E+000  0.6708960E+02  0.7546771E-02  0.1370279E+00
         21   -1    0    0  501  502  0.00000000000E+00  0.00000000000E+00  0.74693523727E+02  0.74693523727E+02  0.00000000000E+00 0.  1.
         21   -1    0    0  502  503 -0.00000000000E+00 -0.00000000000E+00 -0.10586685204E+03  0.10586685204E+03  0.00000000000E+00 0. -1.
         24    1    1    2    0    0 -0.78476915758E+01 -0.41320420632E+01  0.39413756665E+02  0.89996223273E+02  0.80419002446E+02 0.  1.
          1    1    1    2  501    0  0.22696710645E+02  0.20914855147E+02 -0.24820327617E+02  0.39605814004E+02  0.00000000000E+00 0. -1.
         -2    1    1    2    0  503 -0.14849019069E+02 -0.16782813083E+02 -0.45766757362E+02  0.50958338490E+02  0.00000000000E+00 0.  1.
<mgrwt>
<rscale>  2 0.67089596E+02</rscale>
<asrwt>0</asrwt>
<pdfrwt beam="1">  1       21 0.11491311E-01 0.67089596E+02</pdfrwt>
<pdfrwt beam="2">  1       21 0.16287208E-01 0.67089596E+02</pdfrwt>
<totfact> 0.20709173E+06</totfact>
</mgrwt>
</event>
<event>
 5    1  0.1994521E+000  0.9107008E+02  0.7546771E-02  0.1300281E+00
         21   -1    0    0  501  502  0.00000000000E+00  0.00000000000E+00  0.25542571456E+03  0.25542571456E+03  0.00000000000E+00 0. -1.
         21   -1    0    0  502  503 -0.00000000000E+00 -0.00000000000E+00 -0.21439439570E+03  0.21439439570E+03  0.00000000000E+00 0.  1.
         24    1    1    2    0    0  0.70310258113E+01 -0.96379119829E+01 -0.89005558877E+02  0.12054679646E+03  0.80419002446E+02 0.  0.
          1    1    1    2  501    0 -0.52539992851E+02  0.15923711044E+02  0.23148584266E+03  0.23790693721E+03  0.00000000000E+00 0. -1.
         -2    1    1    2    0  503  0.45508967040E+02 -0.62857990610E+01 -0.10144896493E+03  0.11136637659E+03  0.00000000000E+00 0.  1.
<mgrwt>
<rscale>  2 0.91070076E+02</rscale>
<asrwt>0</asrwt>
<pdfrwt beam="1">  1       21 0.39296263E-01 0.91070076E+02</pdfrwt>
<pdfrwt beam="2">  1       21 0.32983753E-01 0.91070076E+02</pdfrwt>
<totfact> 0.58269388E+04</totfact>
</mgrwt>
</event>
<event>
 5    1  0.1994521E+000  0.6779221E+02  0.7546771E-02  0.1367766E+00
         21   -1    0    0  501  502  0.00000000000E+00  0.00000000000E+00  0.19763665849E+03  0.19763665849E+03  0.00000000000E+00 0.  1.
         21   -1    0    0  502  503 -0.00000000000E+00 -0.00000000000E+00 -0.61296520326E+02  0.61296520326E+02  0.00000000000E+00 0. -1.
         24    1    1    2    0    0 -0.15259264445E+02 -0.20576171563E+02  0.15146347033E+03  0.17339153032E+03  0.80419002446E+02 0.  1.
          1    1    1    2  501    0  0.28283933035E+02  0.18113698627E+01  0.26025236852E+02  0.38478239070E+02  0.00000000000E+00 0. -1.
         -2    1    1    2    0  503 -0.13024668589E+02  0.18764801700E+02 -0.41148569019E+02  0.47063409428E+02  0.00000000000E+00 0.  1.
<mgrwt>
<rscale>  2 0.67792205E+02</rscale>
<asrwt>0</asrwt>
<pdfrwt beam="1">  1       21 0.30405639E-01 0.67792205E+02</pdfrwt>
<pdfrwt beam="2">  1       21 0.94302340E-02 0.67792205E+02</pdfrwt>
<totfact> 0.92631361E+05</totfact>
</mgrwt>
</event>
<event>
 5    1  0.1994521E+000  0.9399504E+02  0.7546771E-02  0.1293456E+00
         21   -1    0    0  503  502  0.00000000000E+00  0.00000000000E+00  0.21556796208E+04  0.21556796208E+04  0.00000000000E+00 0.  1.
         21   -1    0    0  501  503 -0.00000000000E+00 -0.00000000000E+00 -0.51825031674E+01  0.51825031674E+01  0.00000000000E+00 0. -1.
         24    1    1    2    0    0 -0.43090205485E+02 -0.21205437997E+02  0.79451836833E+03  0.80002068097E+03  0.80419002446E+02 0.  0.
          1    1    1    2  501    0  0.60698303075E+02 -0.69701385352E+01  0.43567602576E+03  0.43993916198E+03  0.00000000000E+00 0. -1.
         -2    1    1    2    0  502 -0.17608097590E+02  0.28175576532E+02  0.92030272353E+03  0.92090228100E+03  0.00000000000E+00 0.  1.
<mgrwt>
<rscale>  2 0.93995041E+02</rscale>
<asrwt>0</asrwt>
<pdfrwt beam="1">  1       21 0.33164230E+00 0.93995041E+02</pdfrwt>
<pdfrwt beam="2">  1       21 0.79730990E-03 0.93995041E+02</pdfrwt>
<totfact> 0.13466471E+05</totfact>
</mgrwt>
</event>
<event>
 5    1  0.1994521E+000  0.1630403E+03  0.7546771E-02  0.1185306E+00
         21   -1    0    0  501  502  0.00000000000E+00  0.00000000000E+00  0.12964117018E+03  0.12964117018E+03  0.00000000000E+00 0. -1.
         21   -1    0    0  502  503 -0.00000000000E+00 -0.00000000000E+00 -0.30763113454E+03  0.30763113454E+03  0.00000000000E+00 0.  1.
         24    1    1    2    0    0  0.39521577811E+02  0.99226245572E+02 -0.98427906743E+02  0.16602129894E+03  0.80419002446E+02 0. -1.
          1    1    1    2  501    0  0.61962432206E+02 -0.49843818216E+02  0.54200638369E+02  0.96236471355E+02  0.00000000000E+00 0. -1.
         -2    1    1    2    0  503 -0.10148401002E+03 -0.49382427356E+02 -0.13376269598E+03  0.17501453442E+03  0.00000000000E+00 0.  1.
<mgrwt>
<rscale>  2 0.16304030E+03</rscale>
<asrwt>0</asrwt>
<pdfrwt beam="1">  1       21 0.19944795E-01 0.16304030E+03</pdfrwt>
<pdfrwt beam="2">  1       21 0.47327867E-01 0.16304030E+03</pdfrwt>
<totfact> 0.10025461E+05</totfact>
</mgrwt>
</event>
<event>
 5    1  0.1994521E+000  0.8165439E+02  0.7546771E-02  0.1324421E+00
         21   -1    0    0  501  502  0.00000000000E+00  0.00000000000E+00  0.98514868208E+02  0.98514868208E+02  0.00000000000E+00 0.  1.
         21   -1    0    0  502  503 -0.00000000000E+00 -0.00000000000E+00 -0.29554184193E+03  0.29554184193E+03  0.00000000000E+00 0.  1.
         24    1    1    2    0    0 -0.21128335915E+02 -0.21019147947E+01  0.37577869481E+02  0.91269583397E+02  0.80419002446E+02 0.  1.
          1    1    1    2  501    0 -0.29488151617E+02  0.51434647060E+00  0.24770174959E+02  0.38514636251E+02  0.00000000000E+00 0. -1.
         -2    1    1    2    0  503  0.50616487532E+02  0.15875683241E+01 -0.25937501816E+03  0.26427249049E+03  0.00000000000E+00 0.  1.
<mgrwt>
<rscale>  2 0.81654387E+02</rscale>
<asrwt>0</asrwt>
<pdfrwt beam="1">  1       21 0.15156134E-01 0.81654387E+02</pdfrwt>
<pdfrwt beam="2">  1       21 0.45467975E-01 0.81654387E+02</pdfrwt>
<totfact> 0.18466348E+05</totfact>
</mgrwt>
</event>
<event>
 5    1  0.1994521E+000  0.6672107E+02  0.7546771E-02  0.1371612E+00
         21   -1    0    0  503  502  0.00000000000E+00  0.00000000000E+00  0.56378092801E+02  0.56378092801E+02  0.00000000000E+00 0.  1.
         21   -1    0    0  501  503 -0.00000000000E+00 -0.00000000000E+00 -0.44564647898E+03  0.44564647898E+03  0.00000000000E+00 0. -1.
         24    1    1    2    0    0  0.13286150379E+02 -0.40195212827E+02 -0.14587331377E+02  0.92044462719E+02  0.80419002446E+02 0. -1.
          1    1    1    2  501    0 -0.48118068933E+01  0.21543636748E+02 -0.38596219468E+03  0.38659293513E+03  0.00000000000E+00 0. -1.
         -2    1    1    2    0  502 -0.84743434856E+01  0.18651576079E+02  0.11281139877E+02  0.23387173935E+02  0.00000000000E+00 0.  1.
<mgrwt>
<rscale>  2 0.66721070E+02</rscale>
<asrwt>0</asrwt>
<pdfrwt beam="1">  1       21 0.86735527E-02 0.66721070E+02</pdfrwt>
<pdfrwt beam="2">  1       21 0.68560997E-01 0.66721070E+02</pdfrwt>
<totfact> 0.20980771E+05</totfact>
</mgrwt>
</event>
<event>
 5    1  0.1994521E+000  0.7805994E+02  0.7546771E-02  0.1334649E+00
         21   -1    0    0  503  502  0.00000000000E+00  0.00000000000E+00  0.39846442688E+02  0.39846442688E+02  0.00000000000E+00 0.  1.
         21   -1    0    0  501  503 -0.00000000000E+00 -0.00000000000E+00 -0.50074766028E+03  0.50074766028E+03  0.00000000000E+00 0. -1.
         24    1    1    2    0    0  0.11425988400E+02 -0.11359562719E+02 -0.14335692713E+02  0.83260560387E+02  0.80419002446E+02 0.  1.
          1    1    1    2  501    0  0.19362525754E+02  0.31740123717E+02 -0.37467831019E+03  0.37651849753E+03  0.00000000000E+00 0. -1.
         -2    1    1    2    0  502 -0.30788514154E+02 -0.20380560998E+02 -0.71887214687E+02  0.80815045047E+02  0.00000000000E+00 0.  1.
<mgrwt>
<rscale>  2 0.78059944E+02</rscale>
<asrwt>0</asrwt>
<pdfrwt beam="1">  1       21 0.61302214E-02 0.78059944E+02</pdfrwt>
<pdfrwt beam="2">  1       21 0.77038109E-01 0.78059944E+02</pdfrwt>
<totfact> 0.29233672E+05</totfact>
</mgrwt>
</event>
<event>
 5    1  0.1994521E+000  0.9967092E+02  0.7546771E-02  0.1280989E+00
         21   -1    0    0  503  502  0.00000000000E+00  0.00000000000E+00  0.79383141219E+02  0.79383141219E+02  0.00000000000E+00 0.  1.
         21   -1    0    0  501  503 -0.00000000000E+00 -0.00000000000E+00 -0.12693151858E+04  0.12693151858E+04  0.00000000000E+00 0. -1.
         24    1    1    2    0    0 -0.22926049890E+02 -0.30139199670E+02 -0.24223910773E+03  0.25803289788E+03  0.80419002446E+02 0.  0.
          1    1    1    2  501    0  0.64344046475E+02  0.23528616212E+02 -0.10117673217E+04  0.10140842497E+04  0.00000000000E+00 0. -1.
         -2    1    1    2    0  502 -0.41417996584E+02  0.66105834582E+01  0.64074384869E+02  0.76581179484E+02  0.00000000000E+00 0.  1.
<mgrwt>
<rscale>  2 0.99670916E+02</rscale>
<asrwt>0</asrwt>
<pdfrwt beam="1">  1       21 0.12212791E-01 0.99670916E+02</pdfrwt>
<pdfrwt beam="2">  1       21 0.19527926E+00 0.99670916E+02</pdfrwt>
<totfact> 0.90534642E+03</totfact>
</mgrwt>
</event>
<event>
 5    1  0.1994521E+000  0.8855013E+02  0.7546771E-02  0.1306401E+00
         21   -1    0    0  501  502  0.00000000000E+00  0.00000000000E+00  0.36305201053E+02  0.36305201053E+02  0.00000000000E+00 0.  1.
         21   -1    0    0  502  503 -0.00000000000E+00 -0.00000000000E+00 -0.65016413315E+03  0.65016413315E+03  0.00000000000E+00 0. -1.
         24    1    1    2    0    0  0.41889530832E+02  0.21577049779E+01 -0.58872304237E+03  0.59566888878E+03  0.80419002446E+02 0. -1.
          1    1    1    2  501    0 -0.43649674260E+02  0.30782689264E+02 -0.93267445711E+01  0.54220440663E+02  0.00000000000E+00 0. -1.
         -2    1    1    2    0  503  0.17601434280E+01 -0.32940394242E+02 -0.15809145151E+02  0.36580004758E+02  0.00000000000E+00 0.  1.
<mgrwt>
<rscale>  2 0.88550132E+02</rscale>
<asrwt>0</asrwt>
<pdfrwt beam="1">  1       21 0.55854161E-02 0.88550132E+02</pdfrwt>
<pdfrwt beam="2">  1       21 0.10002524E+00 0.88550132E+02</pdfrwt>
<totfact> 0.18952151E+05</totfact>
</mgrwt>
</event>
<event>
 5    1  0.1994521E+000  0.7199635E+02  0.7546771E-02  0.1353433E+00
         21   -1    0    0  501  502  0.00000000000E+00  0.00000000000E+00  0.22898569771E+03  0.22898569771E+03  0.00000000000E+00 0. -1.
         21   -1    0    0  502  503 -0.00000000000E+00 -0.00000000000E+00 -0.59777867559E+02  0.59777867559E+02  0.00000000000E+00 0. -1.
         24    1    1    2    0    0  0.30508590184E+02  0.23500150048E+02  0.11939595350E+03  0.14901557232E+03  0.80419002446E+02 0.  0.
          1    1    1    2  501    0 -0.29124740957E+02  0.20912806179E+01  0.88583171525E+02  0.93271658438E+02  0.00000000000E+00 0. -1.
         -2    1    1    2    0  503 -0.13838492267E+01 -0.25591430666E+02 -0.38771294881E+02  0.46476334504E+02  0.00000000000E+00 0.  1.
<mgrwt>
<rscale>  2 0.71996351E+02</rscale>
<asrwt>0</asrwt>
<pdfrwt beam="1">  1       21 0.35228568E-01 0.71996351E+02</pdfrwt>
<pdfrwt beam="2">  1       21 0.91965952E-02 0.71996351E+02</pdfrwt>
<totfact> 0.73047750E+05</totfact>
</mgrwt>
</event>
<event>
 5    1  0.1994521E+000  0.7810102E+02  0.7546771E-02  0.1334529E+00
         21   -1    0    0  501  502  0.00000000000E+00  0.00000000000E+00  0.74684524046E+02  0.74684524046E+02  0.00000000000E+00 0.  1.
         21   -1    0    0  502  503 -0.00000000000E+00 -0.00000000000E+00 -0.12971922385E+03  0.12971922385E+03  0.00000000000E+00 0. -1.
         24    1    1    2    0    0  0.34126025320E+02  0.37815809576E+01 -0.48695920846E+02  0.10008693531E+03  0.80419002446E+02 0. -1.
          1    1    1    2  501    0 -0.14846047152E+02  0.27939760961E+02  0.36054490347E+02  0.47968339900E+02  0.00000000000E+00 0. -1.
         -2    1    1    2    0  503 -0.19279978168E+02 -0.31721341919E+02 -0.42393269300E+02  0.56348472679E+02  0.00000000000E+00 0.  1.
<mgrwt>
<rscale>  2 0.78101016E+02</rscale>
<asrwt>0</asrwt>
<pdfrwt beam="1">  1       21 0.11489927E-01 0.78101016E+02</pdfrwt>
<pdfrwt beam="2">  1       21 0.19956804E-01 0.78101016E+02</pdfrwt>
<totfact> 0.14461414E+06</totfact>
</mgrwt>
</event>
<event>
 5    1  0.1994521E+000  0.7676831E+02  0.7546771E-02  0.1338481E+00
         21   -1    0    0  501  502  0.00000000000E+00  0.00000000000E+00  0.28244872466E+02  0.28244872466E+02  0.00000000000E+00 0.  1.
         21   -1    0    0  502  503 -0.00000000000E+00 -0.00000000000E+00 -0.23152192847E+03  0.23152192847E+03  0.00000000000E+00 0. -1.
         24    1    1    2    0    0 -0.38222526695E+02  0.26115409026E+02 -0.13282170890E+03  0.16202406749E+03  0.80419002446E+02 0. -1.
          1    1    1    2  501    0  0.20856555332E+02  0.81008673930E+01 -0.67438397060E+01  0.23368768192E+02  0.00000000000E+00 0. -1.
         -2    1    1    2    0  503  0.17365971363E+02 -0.34216276419E+02 -0.63711507403E+02  0.74373965262E+02  0.00000000000E+00 0.  1.
<mgrwt>
<rscale>  2 0.76768309E+02</rscale>
<asrwt>0</asrwt>
<pdfrwt beam="1">  1       21 0.43453652E-02 0.76768309E+02</pdfrwt>
<pdfrwt beam="2">  1       21 0.35618757E-01 0.76768309E+02</pdfrwt>
<totfact> 0.25194526E+06</totfact>
</mgrwt>
</event>
<event>
 5    1  0.1994521E+000  0.7337797E+02  0.7546771E-02  0.1348969E+00
         21   -1    0    0  501  502  0.00000000000E+00  0.00000000000E+00  0.16582713498E+03  0.16582713498E+03  0.00000000000E+00 0. -1.
         21   -1    0    0  502  503 -0.00000000000E+00 -0.00000000000E+00 -0.33440999754E+02  0.33440999754E+02  0.00000000000E+00 0. -1.
         24    1    1    2    0    0  0.11876036926E+02  0.12267852240E+02  0.65624379598E+02  0.10519180388E+03  0.80419002446E+02 0.  0.
          1    1    1    2  501    0 -0.35865823428E+02  0.31871580888E+01  0.47674650834E+02  0.59744352026E+02  0.00000000000E+00 0. -1.
         -2    1    1    2    0  503  0.23989786502E+02 -0.15455010329E+02  0.19087104793E+02  0.34331978826E+02  0.00000000000E+00 0.  1.
<mgrwt>
<rscale>  2 0.73377966E+02</rscale>
<asrwt>0</asrwt>
<pdfrwt beam="1">  1       21 0.25511866E-01 0.73377966E+02</pdfrwt>
<pdfrwt beam="2">  1       21 0.51447693E-02 0.73377966E+02</pdfrwt>
<totfact> 0.35852897E+06</totfact>
</mgrwt>
</event>
<event>
 5    1  0.1994521E+000  0.1085120E+03  0.7546771E-02  0.1263351E+00
         21   -1    0    0  501  502  0.00000000000E+00  0.00000000000E+00  0.58904442259E+02  0.58904442259E+02  0.00000000000E+00 0.  1.
         21   -1    0    0  502  503 -0.00000000000E+00 -0.00000000000E+00 -0.37499054816E+03  0.37499054816E+03  0.00000000000E+00 0.  1.
         24    1    1    2    0    0  0.63744603656E+02  0.31692406404E+02 -0.51218959954E+02  0.11898899500E+03  0.80419002446E+02 0.  1.
          1    1    1    2  501    0  0.20050853423E+02 -0.46760655614E-01  0.12369010272E+02  0.23559102798E+02  0.00000000000E+00 0. -1.
         -2    1    1    2    0  503 -0.83795457079E+02 -0.31645645749E+02 -0.27723615622E+03  0.29134689261E+03  0.00000000000E+00 0.  1.
<mgrwt>
<rscale>  2 0.10851196E+03</rscale>
<asrwt>0</asrwt>
<pdfrwt beam="1">  1       21 0.90622223E-02 0.10851196E+03</pdfrwt>
<pdfrwt beam="2">  1       21 0.57690851E-01 0.10851196E+03</pdfrwt>
<totfact> 0.27729482E+05</totfact>
</mgrwt>
</event>
<event>
 5    1  0.1994521E+000  0.7820997E+02  0.7546771E-02  0.1334209E+00
         21   -1    0    0  503  502  0.00000000000E+00  0.00000000000E+00  0.11921761322E+04  0.11921761322E+04  0.00000000000E+00 0.  1.
         21   -1    0    0  501  503 -0.00000000000E+00 -0.00000000000E+00 -0.59659510753E+01  0.59659510753E+01  0.00000000000E+00 0. -1.
         24    1    1    2    0    0  0.22185045176E+02  0.11840083701E+02  0.54434289139E+03  0.55082552880E+03  0.80419002446E+02 0.  1.
          1    1    1    2  501    0  0.24477391680E+02 -0.28830232434E+01  0.87150503061E+02  0.90568563588E+02  0.00000000000E+00 0. -1.
         -2    1    1    2    0  502 -0.46662436856E+02 -0.89570604579E+01  0.55471678664E+03  0.55674799086E+03  0.00000000000E+00 0.  1.
<mgrwt>
<rscale>  2 0.78209965E+02</rscale>
<asrwt>0</asrwt>
<pdfrwt beam="1">  1       21 0.18341152E+00 0.78209965E+02</pdfrwt>
<pdfrwt beam="2">  1       21 0.91783957E-03 0.78209965E+02</pdfrwt>
<totfact> 0.76731011E+05</totfact>
</mgrwt>
</event>
<event>
 5    1  0.1994521E+000  0.8206638E+02  0.7546771E-02  0.1323288E+00
         21   -1    0    0  501  502  0.00000000000E+00  0.00000000000E+00  0.58443786835E+02  0.58443786835E+02  0.00000000000E+00 0.  1.
         21   -1    0    0  502  503 -0.00000000000E+00 -0.00000000000E+00 -0.13312740789E+03  0.13312740789E+03  0.00000000000E+00 0. -1.
         24    1    1    2    0    0  0.18494435215E+02  0.54055154801E+02 -0.58590073613E+02  0.11473454831E+03  0.80419002446E+02 0. -1.
          1    1    1    2  501    0 -0.23625370204E+02 -0.19733117934E+02  0.11126518881E+02  0.32731536521E+02  0.00000000000E+00 0. -1.
         -2    1    1    2    0  503  0.51309349887E+01 -0.34322036867E+02 -0.27220066324E+02  0.44105109899E+02  0.00000000000E+00 0.  1.
<mgrwt>
<rscale>  2 0.82066375E+02</rscale>
<asrwt>0</asrwt>
<pdfrwt beam="1">  1       21 0.89913519E-02 0.82066375E+02</pdfrwt>
<pdfrwt beam="2">  1       21 0.20481139E-01 0.82066375E+02</pdfrwt>
<totfact> 0.21114670E+06</totfact>
</mgrwt>
</event>
<event>
 5    1  0.1994521E+000  0.1024167E+03  0.7546771E-02  0.1275295E+00
         21   -1    0    0  503  502  0.00000000000E+00  0.00000000000E+00  0.14913971271E+03  0.14913971271E+03  0.00000000000E+00 0.  1.
         21   -1    0    0  501  503 -0.00000000000E+00 -0.00000000000E+00 -0.96044160618E+02  0.96044160618E+02  0.00000000000E+00 0.  1.
         24    1    1    2    0    0  0.13138675480E+02 -0.15236195830E+02 -0.34001705514E+01  0.82967123434E+02  0.80419002446E+02 0.  0.
          1    1    1    2  501    0 -0.65038721876E+02  0.23952417595E+02 -0.17434599552E+02  0.71468307055E+02  0.00000000000E+00 0. -1.
         -2    1    1    2    0  502  0.51900046395E+02 -0.87162217648E+01  0.73930322200E+02  0.90748442842E+02  0.00000000000E+00 0.  1.
<mgrwt>
<rscale>  2 0.10241670E+03</rscale>
<asrwt>0</asrwt>
<pdfrwt beam="1">  1       21 0.22944571E-01 0.10241670E+03</pdfrwt>
<pdfrwt beam="2">  1       21 0.14776025E-01 0.10241670E+03</pdfrwt>
<totfact> 0.72135743E+05</totfact>
</mgrwt>
</event>
<event>
 5    1  0.1994521E+000  0.2149495E+03  0.7546771E-02  0.1137705E+00
         21   -1    0    0  503  502  0.00000000000E+00  0.00000000000E+00  0.57504425211E+03  0.57504425211E+03  0.00000000000E+00 0.  1.
         21   -1    0    0  501  503 -0.00000000000E+00 -0.00000000000E+00 -0.19744512361E+03  0.19744512361E+03  0.00000000000E+00 0. -1.
         24    1    1    2    0    0  0.12958251374E+02 -0.14958529672E+03  0.19442859885E+03  0.25848282976E+03  0.80419002446E+02 0. -1.
          1    1    1    2  501    0  0.30904942033E+02  0.19441384009E+03 -0.10221527209E+03  0.22181032101E+03  0.00000000000E+00 0. -1.
         -2    1    1    2    0  502 -0.43863193407E+02 -0.44828543365E+02  0.28538580174E+03  0.29219622494E+03  0.00000000000E+00 0.  1.
<mgrwt>
<rscale>  2 0.21494950E+03</rscale>
<asrwt>0</asrwt>
<pdfrwt beam="1">  1       21 0.88468345E-01 0.21494950E+03</pdfrwt>
<pdfrwt beam="2">  1       21 0.30376173E-01 0.21494950E+03</pdfrwt>
<totfact> 0.11200068E+04</totfact>
</mgrwt>
</event>
<event>
 5    1  0.1994521E+000  0.9255695E+02  0.7546771E-02  0.1296775E+00
         21   -1    0    0  503  502  0.00000000000E+00  0.00000000000E+00  0.38087643315E+03  0.38087643315E+03  0.00000000000E+00 0.  1.
         21   -1    0    0  501  503 -0.00000000000E+00 -0.00000000000E+00 -0.95564428184E+02  0.95564428184E+02  0.00000000000E+00 0.  1.
         24    1    1    2    0    0 -0.20587525449E+02  0.80541026613E+01  0.33713379633E+02  0.89958449823E+02  0.80419002446E+02 0.  1.
          1    1    1    2  501    0 -0.28561636400E+02  0.28584889473E+02 -0.58102351209E+02  0.70772496042E+02  0.00000000000E+00 0. -1.
         -2    1    1    2    0  502  0.49149161850E+02 -0.36638992135E+02  0.30970097654E+03  0.31570991547E+03  0.00000000000E+00 0.  1.
<mgrwt>
<rscale>  2 0.92556953E+02</rscale>
<asrwt>0</asrwt>
<pdfrwt beam="1">  1       21 0.58596374E-01 0.92556953E+02</pdfrwt>
<pdfrwt beam="2">  1       21 0.14702220E-01 0.92556953E+02</pdfrwt>
<totfact> 0.11538473E+05</totfact>
</mgrwt>
</event>
<event>
 5    1  0.1994521E+000  0.7771943E+02  0.7546771E-02  0.1335651E+00
         21   -1    0    0  501  502  0.00000000000E+00  0.00000000000E+00  0.41458245399E+03  0.41458245399E+03  0.00000000000E+00 0.  1.
         21   -1    0    0  502  503 -0.00000000000E+00 -0.00000000000E+00 -0.23089350759E+02  0.23089350759E+02  0.00000000000E+00 0. -1.
         24    1    1    2    0    0  0.31277668940E+02 -0.19651904917E+02  0.97485774024E+02  0.13166313847E+03  0.80419002446E+02 0.  0.
          1    1    1    2  501    0 -0.41137587128E+02 -0.39858178673E+01  0.26088854857E+03  0.26414205003E+03  0.00000000000E+00 0. -1.
         -2    1    1    2    0  503  0.98599181880E+01  0.23637722785E+02  0.33118780638E+02  0.41866616248E+02  0.00000000000E+00 0.  1.
<mgrwt>
<rscale>  2 0.77719435E+02</rscale>
<asrwt>0</asrwt>
<pdfrwt beam="1">  1       21 0.63781910E-01 0.77719435E+02</pdfrwt>
<pdfrwt beam="2">  1       21 0.35522081E-02 0.77719435E+02</pdfrwt>
<totfact> 0.10803621E+06</totfact>
</mgrwt>
</event>
<event>
 5    1  0.1994521E+000  0.7538464E+02  0.7546771E-02  0.1342684E+00
         21   -1    0    0  503  502  0.00000000000E+00  0.00000000000E+00  0.18691880008E+03  0.18691880008E+03  0.00000000000E+00 0.  1.
         21   -1    0    0  501  503 -0.00000000000E+00 -0.00000000000E+00 -0.79352410321E+02  0.79352410321E+02  0.00000000000E+00 0.  1.
         24    1    1    2    0    0 -0.22281968303E+02 -0.14385536077E+02  0.17515483796E+02  0.86472179842E+02  0.80419002446E+02 0.  1.
          1    1    1    2  501    0 -0.20942621237E+02  0.78905275712E+01 -0.38217280578E+02  0.44287857754E+02  0.00000000000E+00 0. -1.
         -2    1    1    2    0  502  0.43224589541E+02  0.64950085061E+01  0.12826818654E+03  0.13551117280E+03  0.00000000000E+00 0.  1.
<mgrwt>
<rscale>  2 0.75384635E+02</rscale>
<asrwt>0</asrwt>
<pdfrwt beam="1">  1       21 0.28756738E-01 0.75384635E+02</pdfrwt>
<pdfrwt beam="2">  1       21 0.12208063E-01 0.75384635E+02</pdfrwt>
<totfact> 0.66018669E+05</totfact>
</mgrwt>
</event>
<event>
 5    1  0.1994521E+000  0.1218797E+03  0.7546771E-02  0.1240028E+00
         21   -1    0    0  501  502  0.00000000000E+00  0.00000000000E+00  0.14535055351E+03  0.14535055351E+03  0.00000000000E+00 0.  1.
         21   -1    0    0  502  503 -0.00000000000E+00 -0.00000000000E+00 -0.11343395470E+03  0.11343395470E+03  0.00000000000E+00 0. -1.
         24    1    1    2    0    0  0.49521708999E+02  0.84781599278E+02 -0.18935856903E+02  0.12832030965E+03  0.80419002446E+02 0.  0.
          1    1    1    2  501    0 -0.64612777982E+02 -0.62218853175E+02  0.51267254120E+02  0.10331664006E+03  0.00000000000E+00 0. -1.
         -2    1    1    2    0  503  0.15091068983E+02 -0.22562746102E+02 -0.41479840389E+00  0.27147558499E+02  0.00000000000E+00 0.  1.
<mgrwt>
<rscale>  2 0.12187967E+03</rscale>
<asrwt>0</asrwt>
<pdfrwt beam="1">  1       21 0.22361624E-01 0.12187967E+03</pdfrwt>
<pdfrwt beam="2">  1       21 0.17451378E-01 0.12187967E+03</pdfrwt>
<totfact> 0.56040112E+05</totfact>
</mgrwt>
</event>
<event>
 5    1  0.1994521E+000  0.9093184E+02  0.7546771E-02  0.1300611E+00
         21   -1    0    0  501  502  0.00000000000E+00  0.00000000000E+00  0.12951008857E+02  0.12951008857E+02  0.00000000000E+00 0.  1.
         21   -1    0    0  502  503 -0.00000000000E+00 -0.00000000000E+00 -0.12409331217E+04  0.12409331217E+04  0.00000000000E+00 0.  1.
         24    1    1    2    0    0 -0.18152013307E+02  0.97094233984E+00 -0.26259945345E+03  0.27523830987E+03  0.80419002446E+02 0.  1.
          1    1    1    2  501    0  0.58704611398E+02 -0.32918462527E+01 -0.13473241284E+03  0.14700302963E+03  0.00000000000E+00 0. -1.
         -2    1    1    2    0  503 -0.40552598091E+02  0.23209039129E+01 -0.83065024660E+03  0.83164279109E+03  0.00000000000E+00 0.  1.
<mgrwt>
<rscale>  2 0.90931840E+02</rscale>
<asrwt>0</asrwt>
<pdfrwt beam="1">  1       21 0.19924621E-02 0.90931840E+02</pdfrwt>
<pdfrwt beam="2">  1       21 0.19091286E+00 0.90931840E+02</pdfrwt>
<totfact> 0.20131951E+05</totfact>
</mgrwt>
</event>
<event>
 5    1  0.1994521E+000  0.6841571E+02  0.7546771E-02  0.1365565E+00
         21   -1    0    0  501  502  0.00000000000E+00  0.00000000000E+00  0.10602989918E+02  0.10602989918E+02  0.00000000000E+00 0. -1.
         21   -1    0    0  502  503 -0.00000000000E+00 -0.00000000000E+00 -0.15590558399E+04  0.15590558399E+04  0.00000000000E+00 0.  1.
         24    1    1    2    0    0 -0.52416817841E+01 -0.15409113048E+02 -0.64353431952E+03  0.64874382644E+03  0.80419002446E+02 0.  1.
          1    1    1    2  501    0 -0.22513907773E+02 -0.10043810974E+01 -0.87638230860E+01  0.24180351934E+02  0.00000000000E+00 0. -1.
         -2    1    1    2    0  503  0.27755589557E+02  0.16413494145E+02 -0.89615470740E+03  0.89673465146E+03  0.00000000000E+00 0.  1.
<mgrwt>
<rscale>  2 0.68415710E+02</rscale>
<asrwt>0</asrwt>
<pdfrwt beam="1">  1       21 0.16312301E-02 0.68415710E+02</pdfrwt>
<pdfrwt beam="2">  1       21 0.23985461E+00 0.68415710E+02</pdfrwt>
<totfact> 0.14547250E+05</totfact>
</mgrwt>
</event>
<event>
 5    1  0.1994521E+000  0.7321331E+02  0.7546771E-02  0.1349495E+00
         21   -1    0    0  501  502  0.00000000000E+00  0.00000000000E+00  0.18952290047E+04  0.18952290047E+04  0.00000000000E+00 0. -1.
         21   -1    0    0  502  503 -0.00000000000E+00 -0.00000000000E+00 -0.26005165595E+02  0.26005165595E+02  0.00000000000E+00 0.  1.
         24    1    1    2    0    0 -0.70246074363E+00 -0.27591126084E+02  0.21080541222E+03  0.22730574446E+03  0.80419002446E+02 0.  1.
          1    1    1    2  501    0  0.22632867729E+02 -0.39623770908E+01  0.16552090459E+04  0.16553685187E+04  0.00000000000E+00 0. -1.
         -2    1    1    2    0  503 -0.21930406986E+02  0.31553503174E+02  0.32093810242E+01  0.38559907154E+02  0.00000000000E+00 0.  1.
<mgrwt>
<rscale>  2 0.73213311E+02</rscale>
<asrwt>0</asrwt>
<pdfrwt beam="1">  1       21 0.29157358E+00 0.73213311E+02</pdfrwt>
<pdfrwt beam="2">  1       21 0.40007962E-02 0.73213311E+02</pdfrwt>
<totfact> 0.17848133E+04</totfact>
</mgrwt>
</event>
<event>
 5    1  0.1994521E+000  0.8636825E+02  0.7546771E-02  0.1311893E+00
         21   -1    0    0  501  502  0.00000000000E+00  0.00000000000E+00  0.89340045020E+02  0.89340045020E+02  0.00000000000E+00 0. -1.
         21   -1    0    0  502  503 -0.00000000000E+00 -0.00000000000E+00 -0.45803071530E+03  0.45803071530E+03  0.00000000000E+00 0. -1.
         24    1    1    2    0    0  0.67962087923E+01  0.65166761868E+02 -0.36409213132E+03  0.37858049521E+03  0.80419002446E+02 0. -1.
          1    1    1    2  501    0  0.54954746309E+01 -0.45381365023E+02  0.73907211833E+02  0.86901924569E+02  0.00000000000E+00 0. -1.
         -2    1    1    2    0  503 -0.12291683423E+02 -0.19785396845E+02 -0.78505750791E+02  0.81888340544E+02  0.00000000000E+00 0.  1.
<mgrwt>
<rscale>  2 0.86368248E+02</rscale>
<asrwt>0</asrwt>
<pdfrwt beam="1">  1       21 0.13744623E-01 0.86368248E+02</pdfrwt>
<pdfrwt beam="2">  1       21 0.70466262E-01 0.86368248E+02</pdfrwt>
<totfact> 0.88168837E+04</totfact>
</mgrwt>
</event>
<event>
 5    1  0.1994521E+000  0.6796058E+02  0.7546771E-02  0.1367169E+00
         21   -1    0    0  501  502  0.00000000000E+00  0.00000000000E+00  0.63790313540E+02  0.63790313540E+02  0.00000000000E+00 0.  1.
         21   -1    0    0  502  503 -0.00000000000E+00 -0.00000000000E+00 -0.18331305595E+03  0.18331305595E+03  0.00000000000E+00 0. -1.
         24    1    1    2    0    0 -0.11446427303E+02 -0.16887177087E+02 -0.15956035916E+03  0.17984137905E+03  0.80419002446E+02 0. -1.
          1    1    1    2  501    0  0.28340537014E+02 -0.99019950346E+00  0.28096556359E+02  0.39919707070E+02  0.00000000000E+00 0. -1.
         -2    1    1    2    0  503 -0.16894109710E+02  0.17877376591E+02  0.11941060392E+02  0.27342283371E+02  0.00000000000E+00 0.  1.
<mgrwt>
<rscale>  2 0.67960576E+02</rscale>
<asrwt>0</asrwt>
<pdfrwt beam="1">  1       21 0.98138945E-02 0.67960576E+02</pdfrwt>
<pdfrwt beam="2">  1       21 0.28202008E-01 0.67960576E+02</pdfrwt>
<totfact> 0.99721447E+05</totfact>
</mgrwt>
</event>
