<event>
 5    1  0.1745726E+000  0.8738707E+02  0.7546771E-02  0.1309306E+00
         21   -1    0    0  503  502  0.00000000000E+00  0.00000000000E+00  0.11078861860E+02  0.11078861860E+02  0.00000000000E+00 0.  1.
         21   -1    0    0  501  503 -0.00000000000E+00 -0.00000000000E+00 -0.12590376727E+04  0.12590376727E+04  0.00000000000E+00 0.  1.
         24    1    1    2    0    0  0.63943952460E+02 -0.86140199682E+01 -0.49298322757E+03  0.50364939097E+03  0.80419002446E+02 0.  1.
          1    1    1    2  501    0 -0.39406682589E+02  0.20484981966E+02 -0.72336502994E+03  0.72472718154E+03  0.00000000000E+00 0. -1.
         -2    1    1    2    0  502 -0.24537269871E+02 -0.11870961997E+02 -0.31610553350E+02  0.41739962081E+02  0.00000000000E+00 0.  1.
<mgrwt>
<rscale>  2 0.87387069E+02</rscale>
<asrwt>0</asrwt>
<pdfrwt beam="1">  1       21 0.17044402E-02 0.87387069E+02</pdfrwt>
<pdfrwt beam="2">  1       21 0.19369811E+00 0.87387069E+02</pdfrwt>
<totfact> 0.24862782E+05</totfact>
</mgrwt>
</event>
<event>
 5    1  0.1745726E+000  0.1758840E+03  0.7546771E-02  0.1171847E+00
         21   -1    0    0  501  502  0.00000000000E+00  0.00000000000E+00  0.83649327357E+02  0.83649327357E+02  0.00000000000E+00 0. -1.
         21   -1    0    0  502  503 -0.00000000000E+00 -0.00000000000E+00 -0.71324610560E+03  0.71324610560E+03  0.00000000000E+00 0. -1.
         24    1    1    2    0    0 -0.12322661629E+02  0.15404703892E+03 -0.58020275372E+03  0.60579269521E+03  0.80419002446E+02 0. -1.
          1    1    1    2  501    0  0.49720544478E+02 -0.10193136060E+03 -0.58270243145E+01  0.11356094853E+03  0.00000000000E+00 0. -1.
         -2    1    1    2    0  503 -0.37397882849E+02 -0.52115678320E+02 -0.43567000206E+02  0.77541789219E+02  0.00000000000E+00 0.  1.
<mgrwt>
<rscale>  2 0.17588404E+03</rscale>
<asrwt>0</asrwt>
<pdfrwt beam="1">  1       21 0.12869127E-01 0.17588404E+03</pdfrwt>
<pdfrwt beam="2">  1       21 0.10973017E+00 0.17588404E+03</pdfrwt>
<totfact> 0.34331626E+04</totfact>
</mgrwt>
</event>
<event>
 5    1  0.1745726E+000  0.7557811E+02  0.7546771E-02  0.1342090E+00
         21   -1    0    0  501  502  0.00000000000E+00  0.00000000000E+00  0.16147591708E+03  0.16147591708E+03  0.00000000000E+00 0. -1.
         21   -1    0    0  502  503 -0.00000000000E+00 -0.00000000000E+00 -0.12181038838E+03  0.12181038838E+03  0.00000000000E+00 0. -1.
         24    1    1    2    0    0  0.30657229985E+02 -0.43686656050E+02 -0.69640387429E+02  0.11901844052E+03  0.80419002446E+02 0. -1.
          1    1    1    2  501    0 -0.93420634237E+01  0.23470763054E+02  0.12732363617E+03  0.12980546674E+03  0.00000000000E+00 0. -1.
         -2    1    1    2    0  503 -0.21315166561E+02  0.20215892996E+02 -0.18017720035E+02  0.34462398210E+02  0.00000000000E+00 0.  1.
<mgrwt>
<rscale>  2 0.75578106E+02</rscale>
<asrwt>0</asrwt>
<pdfrwt beam="1">  1       21 0.24842449E-01 0.75578106E+02</pdfrwt>
<pdfrwt beam="2">  1       21 0.18740060E-01 0.75578106E+02</pdfrwt>
<totfact> 0.40544553E+05</totfact>
</mgrwt>
</event>
<event>
 5    1  0.1745726E+000  0.6944227E+02  0.7546771E-02  0.1362000E+00
         21   -1    0    0  501  502  0.00000000000E+00  0.00000000000E+00  0.53399752985E+02  0.53399752985E+02  0.00000000000E+00 0.  1.
         21   -1    0    0  502  503 -0.00000000000E+00 -0.00000000000E+00 -0.12804694459E+03  0.12804694459E+03  0.00000000000E+00 0.  1.
         24    1    1    2    0    0 -0.69576087434E+01 -0.81345695357E+01  0.25768843279E+01  0.81169180285E+02  0.80419002446E+02 0.  1.
          1    1    1    2  501    0  0.14083483172E+02  0.30869702310E+02 -0.22835378170E+02  0.40899113867E+02  0.00000000000E+00 0. -1.
         -2    1    1    2    0  503 -0.71258744289E+01 -0.22735132774E+02 -0.54388697764E+02  0.59378403423E+02  0.00000000000E+00 0.  1.
<mgrwt>
<rscale>  2 0.69442268E+02</rscale>
<asrwt>0</asrwt>
<pdfrwt beam="1">  1       21 0.82153467E-02 0.69442268E+02</pdfrwt>
<pdfrwt beam="2">  1       21 0.19699530E-01 0.69442268E+02</pdfrwt>
<totfact> 0.26216689E+06</totfact>
</mgrwt>
</event>
<event>
 5    1  0.1745726E+000  0.6977992E+02  0.7546771E-02  0.1360843E+00
         21   -1    0    0  501  502  0.00000000000E+00  0.00000000000E+00  0.20514620450E+03  0.20514620450E+03  0.00000000000E+00 0. -1.
         21   -1    0    0  502  503 -0.00000000000E+00 -0.00000000000E+00 -0.30228098647E+02  0.30228098647E+02  0.00000000000E+00 0. -1.
         24    1    1    2    0    0  0.23332127311E+02  0.26010603072E+02  0.11370485568E+03  0.14358603621E+03  0.80419002446E+02 0.  0.
          1    1    1    2  501    0 -0.29816672754E+02 -0.54395337471E+01  0.63236434366E+02  0.70124668504E+02  0.00000000000E+00 0. -1.
         -2    1    1    2    0  503  0.64845454425E+01 -0.20571069325E+02 -0.20231841858E+01  0.21663598432E+02  0.00000000000E+00 0.  1.
<mgrwt>
<rscale>  2 0.69779916E+02</rscale>
<asrwt>0</asrwt>
<pdfrwt beam="1">  1       21 0.31560954E-01 0.69779916E+02</pdfrwt>
<pdfrwt beam="2">  1       21 0.46504768E-02 0.69779916E+02</pdfrwt>
<totfact> 0.28281027E+06</totfact>
</mgrwt>
</event>
<event>
 5    1  0.1745726E+000  0.1367439E+03  0.7546771E-02  0.1217779E+00
         21   -1    0    0  503  502  0.00000000000E+00  0.00000000000E+00  0.19006384012E+02  0.19006384012E+02  0.00000000000E+00 0. -1.
         21   -1    0    0  501  503 -0.00000000000E+00 -0.00000000000E+00 -0.10677380402E+04  0.10677380402E+04  0.00000000000E+00 0.  1.
         24    1    1    2    0    0 -0.40680687239E+02  0.11500507087E+03 -0.40799435083E+03  0.43336784711E+03  0.80419002446E+02 0. -1.
          1    1    1    2  501    0  0.35079069960E+02 -0.44565152667E+02 -0.31470873430E+03  0.31977833170E+03  0.00000000000E+00 0. -1.
         -2    1    1    2    0  502  0.56016172791E+01 -0.70439918202E+02 -0.32602857107E+03  0.33359824542E+03  0.00000000000E+00 0.  1.
<mgrwt>
<rscale>  2 0.13674395E+03</rscale>
<asrwt>0</asrwt>
<pdfrwt beam="1">  1       21 0.29240590E-02 0.13674395E+03</pdfrwt>
<pdfrwt beam="2">  1       21 0.16426739E+00 0.13674395E+03</pdfrwt>
<totfact> 0.15875455E+05</totfact>
</mgrwt>
</event>
<event>
 5    1  0.1745726E+000  0.9082153E+02  0.7546771E-02  0.1300874E+00
         21   -1    0    0  503  502  0.00000000000E+00  0.00000000000E+00  0.58441524892E+02  0.58441524892E+02  0.00000000000E+00 0. -1.
         21   -1    0    0  501  503 -0.00000000000E+00 -0.00000000000E+00 -0.23266002843E+03  0.23266002843E+03  0.00000000000E+00 0. -1.
         24    1    1    2    0    0  0.12184550700E+02  0.55062522835E+02 -0.10601091193E+03  0.14451945924E+03  0.80419002446E+02 0. -1.
          1    1    1    2  501    0  0.25080697516E+02 -0.26344072402E+02 -0.88243495671E+02  0.95446142231E+02  0.00000000000E+00 0. -1.
         -2    1    1    2    0  502 -0.37265248215E+02 -0.28718450432E+02  0.20035904066E+02  0.51135951849E+02  0.00000000000E+00 0.  1.
<mgrwt>
<rscale>  2 0.90821534E+02</rscale>
<asrwt>0</asrwt>
<pdfrwt beam="1">  1       21 0.89910039E-02 0.90821534E+02</pdfrwt>
<pdfrwt beam="2">  1       21 0.35793850E-01 0.90821534E+02</pdfrwt>
<totfact> 0.73860885E+05</totfact>
</mgrwt>
</event>
<event>
 5    1  0.1745726E+000  0.1224236E+03  0.7546771E-02  0.1239152E+00
         21   -1    0    0  501  502  0.00000000000E+00  0.00000000000E+00  0.44790057540E+03  0.44790057540E+03  0.00000000000E+00 0. -1.
         21   -1    0    0  502  503 -0.00000000000E+00 -0.00000000000E+00 -0.10307113944E+03  0.10307113944E+03  0.00000000000E+00 0.  1.
         24    1    1    2    0    0 -0.67891828465E+02  0.18115930654E+02  0.49416178132E+02  0.11767184001E+03  0.80419002446E+02 0.  0.
          1    1    1    2  501    0  0.43348151861E+01 -0.61147020158E+02  0.33936201300E+03  0.34485406271E+03  0.00000000000E+00 0. -1.
         -2    1    1    2    0  503  0.63557013279E+02  0.43031089505E+02 -0.43948755174E+02  0.88445812124E+02  0.00000000000E+00 0.  1.
<mgrwt>
<rscale>  2 0.12242362E+03</rscale>
<asrwt>0</asrwt>
<pdfrwt beam="1">  1       21 0.68907780E-01 0.12242362E+03</pdfrwt>
<pdfrwt beam="2">  1       21 0.15857099E-01 0.12242362E+03</pdfrwt>
<totfact> 0.70219311E+04</totfact>
</mgrwt>
</event>
<event>
 5    1  0.1745726E+000  0.7296971E+02  0.7546771E-02  0.1350276E+00
         21   -1    0    0  503  502  0.00000000000E+00  0.00000000000E+00  0.91141191710E+02  0.91141191710E+02  0.00000000000E+00 0.  1.
         21   -1    0    0  501  503 -0.00000000000E+00 -0.00000000000E+00 -0.11952127627E+03  0.11952127627E+03  0.00000000000E+00 0. -1.
         24    1    1    2    0    0 -0.23719174387E+02 -0.28327448870E+02  0.26134647683E+02  0.92278271316E+02  0.80419002446E+02 0. -1.
          1    1    1    2  501    0  0.43840629737E+01  0.36271806454E+02 -0.78489403763E+02  0.86576269581E+02  0.00000000000E+00 0. -1.
         -2    1    1    2    0  502  0.19335111414E+02 -0.79443575843E+01  0.23974671520E+02  0.31807927083E+02  0.00000000000E+00 0.  1.
<mgrwt>
<rscale>  2 0.72969708E+02</rscale>
<asrwt>0</asrwt>
<pdfrwt beam="1">  1       21 0.14021722E-01 0.72969708E+02</pdfrwt>
<pdfrwt beam="2">  1       21 0.18387889E-01 0.72969708E+02</pdfrwt>
<totfact> 0.11805747E+06</totfact>
</mgrwt>
</event>
<event>
 5    1  0.1745726E+000  0.6307176E+02  0.7546771E-02  0.1385375E+00
         21   -1    0    0  501  502  0.00000000000E+00  0.00000000000E+00  0.19757771733E+03  0.19757771733E+03  0.00000000000E+00 0.  1.
         21   -1    0    0  502  503 -0.00000000000E+00 -0.00000000000E+00 -0.21482900994E+02  0.21482900994E+02  0.00000000000E+00 0.  1.
         24    1    1    2    0    0  0.15280103933E+01  0.15223604459E+01  0.11997759772E+03  0.14445238768E+03  0.80419002446E+02 0.  0.
          1    1    1    2  501    0  0.20300409094E+02 -0.95542698854E+01  0.41385944559E+02  0.47076396310E+02  0.00000000000E+00 0. -1.
         -2    1    1    2    0  503 -0.21828419487E+02  0.80319094395E+01  0.14731274059E+02  0.27531834337E+02  0.00000000000E+00 0.  1.
<mgrwt>
<rscale>  2 0.63071758E+02</rscale>
<asrwt>0</asrwt>
<pdfrwt beam="1">  1       21 0.30396571E-01 0.63071758E+02</pdfrwt>
<pdfrwt beam="2">  1       21 0.33050618E-02 0.63071758E+02</pdfrwt>
<totfact> 0.52654615E+06</totfact>
</mgrwt>
</event>
<event>
 5    1  0.1745726E+000  0.7511101E+02  0.7546771E-02  0.1343528E+00
         21   -1    0    0  501  502  0.00000000000E+00  0.00000000000E+00  0.20342767974E+03  0.20342767974E+03  0.00000000000E+00 0. -1.
         21   -1    0    0  502  503 -0.00000000000E+00 -0.00000000000E+00 -0.40880358675E+02  0.40880358675E+02  0.00000000000E+00 0.  1.
         24    1    1    2    0    0 -0.23099055332E+02 -0.29478468367E+02  0.99099369260E+02  0.13300544123E+03  0.80419002446E+02 0.  0.
          1    1    1    2  501    0 -0.13582858190E+02  0.19009897309E+02  0.68913701236E+02  0.72766533862E+02  0.00000000000E+00 0. -1.
         -2    1    1    2    0  503  0.36681913522E+02  0.10468571058E+02 -0.54657494313E+01  0.38536063323E+02  0.00000000000E+00 0.  1.
<mgrwt>
<rscale>  2 0.75111012E+02</rscale>
<asrwt>0</asrwt>
<pdfrwt beam="1">  1       21 0.31296565E-01 0.75111012E+02</pdfrwt>
<pdfrwt beam="2">  1       21 0.62892861E-02 0.75111012E+02</pdfrwt>
<totfact> 0.17472684E+06</totfact>
</mgrwt>
</event>
<event>
 5    1  0.1745726E+000  0.9787192E+02  0.7546771E-02  0.1284836E+00
         21   -1    0    0  503  502  0.00000000000E+00  0.00000000000E+00  0.51938784105E+03  0.51938784105E+03  0.00000000000E+00 0. -1.
         21   -1    0    0  501  503 -0.00000000000E+00 -0.00000000000E+00 -0.23782629569E+02  0.23782629569E+02  0.00000000000E+00 0. -1.
         24    1    1    2    0    0  0.47545020342E+02 -0.63519802356E+02  0.37788046623E+03  0.39440608129E+03  0.80419002446E+02 0. -1.
          1    1    1    2  501    0 -0.25087201022E+02  0.51535140526E+02  0.48759178556E+02  0.75250886092E+02  0.00000000000E+00 0. -1.
         -2    1    1    2    0  502 -0.22457819321E+02  0.11984661830E+02  0.68965566697E+02  0.73513503234E+02  0.00000000000E+00 0.  1.
<mgrwt>
<rscale>  2 0.97871922E+02</rscale>
<asrwt>0</asrwt>
<pdfrwt beam="1">  1       21 0.79905814E-01 0.97871922E+02</pdfrwt>
<pdfrwt beam="2">  1       21 0.36588665E-02 0.97871922E+02</pdfrwt>
<totfact> 0.63354183E+05</totfact>
</mgrwt>
</event>
<event>
 5    1  0.1745726E+000  0.6942216E+02  0.7546771E-02  0.1362069E+00
         21   -1    0    0  503  502  0.00000000000E+00  0.00000000000E+00  0.58519493547E+02  0.58519493547E+02  0.00000000000E+00 0.  1.
         21   -1    0    0  501  503 -0.00000000000E+00 -0.00000000000E+00 -0.56865173987E+03  0.56865173987E+03  0.00000000000E+00 0. -1.
         24    1    1    2    0    0 -0.15691530979E+01 -0.43490980220E+02 -0.17031422764E+03  0.19330825046E+03  0.80419002446E+02 0. -1.
          1    1    1    2  501    0 -0.84763264856E+01  0.24434316782E+02 -0.38391511770E+03  0.38478526680E+03  0.00000000000E+00 0. -1.
         -2    1    1    2    0  502  0.10045479584E+02  0.19056663438E+02  0.44097099022E+02  0.49077716161E+02  0.00000000000E+00 0.  1.
<mgrwt>
<rscale>  2 0.69422160E+02</rscale>
<asrwt>0</asrwt>
<pdfrwt beam="1">  1       21 0.90029993E-02 0.69422160E+02</pdfrwt>
<pdfrwt beam="2">  1       21 0.87484880E-01 0.69422160E+02</pdfrwt>
<totfact> 0.11568762E+05</totfact>
</mgrwt>
</event>
<event>
 5    1  0.1745726E+000  0.9099415E+02  0.7546771E-02  0.1300462E+00
         21   -1    0    0  503  502  0.00000000000E+00  0.00000000000E+00  0.14085321789E+04  0.14085321789E+04  0.00000000000E+00 0. -1.
         21   -1    0    0  501  503 -0.00000000000E+00 -0.00000000000E+00 -0.11687576895E+02  0.11687576895E+02  0.00000000000E+00 0. -1.
         24    1    1    2    0    0 -0.64044917624E+02 -0.35487661552E+02  0.82145540268E+03  0.82862375065E+03  0.80419002446E+02 0. -1.
          1    1    1    2  501    0  0.19102808324E+02  0.11233284032E+02  0.10711775354E+02  0.24613940913E+02  0.00000000000E+00 0. -1.
         -2    1    1    2    0  502  0.44942109300E+02  0.24254377519E+02  0.56467742400E+03  0.56698206426E+03  0.00000000000E+00 0.  1.
<mgrwt>
<rscale>  2 0.90994146E+02</rscale>
<asrwt>0</asrwt>
<pdfrwt beam="1">  1       21 0.21669712E+00 0.90994146E+02</pdfrwt>
<pdfrwt beam="2">  1       21 0.17980899E-02 0.90994146E+02</pdfrwt>
<totfact> 0.16502106E+05</totfact>
</mgrwt>
</event>
<event>
 5    1  0.1745726E+000  0.1151825E+03  0.7546771E-02  0.1251263E+00
         21   -1    0    0  501  502  0.00000000000E+00  0.00000000000E+00  0.63706708517E+03  0.63706708517E+03  0.00000000000E+00 0. -1.
         21   -1    0    0  502  503 -0.00000000000E+00 -0.00000000000E+00 -0.44594584446E+02  0.44594584446E+02  0.00000000000E+00 0.  1.
         24    1    1    2    0    0  0.19165355041E+02 -0.31069044098E+02  0.96322801273E+02  0.13068241785E+03  0.80419002446E+02 0. -1.
          1    1    1    2  501    0 -0.25124519634E+02  0.84566655321E+02  0.48874580799E+03  0.49664396252E+03  0.00000000000E+00 0. -1.
         -2    1    1    2    0  503  0.59591645931E+01 -0.53497611223E+02  0.74038914622E+01  0.54335289251E+02  0.00000000000E+00 0.  1.
<mgrwt>
<rscale>  2 0.11518249E+03</rscale>
<asrwt>0</asrwt>
<pdfrwt beam="1">  1       21 0.98010314E-01 0.11518249E+03</pdfrwt>
<pdfrwt beam="2">  1       21 0.68607058E-02 0.11518249E+03</pdfrwt>
<totfact> 0.13884421E+05</totfact>
</mgrwt>
</event>
<event>
 5    1  0.2990389E+000  0.1511765E+03  0.7546771E-02  0.1199035E+00
         21   -1    0    0  501  502  0.00000000000E+00  0.00000000000E+00  0.12837406508E+04  0.12837406508E+04  0.00000000000E+00 0. -1.
         21   -1    0    0  502  503 -0.00000000000E+00 -0.00000000000E+00 -0.66317693223E+02  0.66317693223E+02  0.00000000000E+00 0.  1.
         24    1    1    2    0    0  0.49581802372E+01  0.22633992774E+02  0.19122089808E+03  0.20873315261E+03  0.80419002446E+02 0.  1.
          1    1    1    2  501    0 -0.11044878928E+03  0.14469280797E+01  0.10271944565E+04  0.10331163923E+04  0.00000000000E+00 0. -1.
         -2    1    1    2    0  503  0.10549060904E+03 -0.24080920853E+02 -0.99239700635E+00  0.10820879908E+03  0.00000000000E+00 0.  1.
<mgrwt>
<rscale>  2 0.15117650E+03</rscale>
<asrwt>0</asrwt>
<pdfrwt beam="1">  1       21 0.19749854E+00 0.15117650E+03</pdfrwt>
<pdfrwt beam="2">  1       21 0.10202723E-01 0.15117650E+03</pdfrwt>
<totfact> 0.11323284E+04</totfact>
</mgrwt>
</event>
<event>
 5    1  0.1745726E+000  0.8819984E+02  0.7546771E-02  0.1307271E+00
         21   -1    0    0  503  502  0.00000000000E+00  0.00000000000E+00  0.13622459582E+04  0.13622459582E+04  0.00000000000E+00 0. -1.
         21   -1    0    0  501  503 -0.00000000000E+00 -0.00000000000E+00 -0.14846026259E+02  0.14846026259E+02  0.00000000000E+00 0. -1.
         24    1    1    2    0    0 -0.22239128190E+01  0.18342998805E+02  0.86820659159E+03  0.87211886405E+03  0.80419002446E+02 0. -1.
          1    1    1    2  501    0  0.19055442078E+02 -0.52475591860E+02  0.52660519562E+02  0.76745865911E+02  0.00000000000E+00 0. -1.
         -2    1    1    2    0  502 -0.16831529259E+02  0.34132593056E+02  0.42653282076E+03  0.42822725447E+03  0.00000000000E+00 0.  1.
<mgrwt>
<rscale>  2 0.88199841E+02</rscale>
<asrwt>0</asrwt>
<pdfrwt beam="1">  1       21 0.20957620E+00 0.88199841E+02</pdfrwt>
<pdfrwt beam="2">  1       21 0.22840051E-02 0.88199841E+02</pdfrwt>
<totfact> 0.12441985E+05</totfact>
</mgrwt>
</event>
<event>
 5    1  0.1745726E+000  0.1140618E+03  0.7546771E-02  0.1253228E+00
         21   -1    0    0  503  502  0.00000000000E+00  0.00000000000E+00  0.21271067869E+02  0.21271067869E+02  0.00000000000E+00 0. -1.
         21   -1    0    0  501  503 -0.00000000000E+00 -0.00000000000E+00 -0.79559651895E+03  0.79559651895E+03  0.00000000000E+00 0. -1.
         24    1    1    2    0    0  0.31453129684E+02 -0.74827301385E+02 -0.30123300478E+03  0.32217536145E+03  0.80419002446E+02 0. -1.
          1    1    1    2  501    0 -0.58631746991E+02  0.50234288324E+02 -0.43511395236E+03  0.44191098313E+03  0.00000000000E+00 0. -1.
         -2    1    1    2    0  502  0.27178617306E+02  0.24593013061E+02 -0.37978493945E+02  0.52781242240E+02  0.00000000000E+00 0.  1.
<mgrwt>
<rscale>  2 0.11406178E+03</rscale>
<asrwt>0</asrwt>
<pdfrwt beam="1">  1       21 0.32724722E-02 0.11406178E+03</pdfrwt>
<pdfrwt beam="2">  1       21 0.12239945E+00 0.11406178E+03</pdfrwt>
<totfact> 0.28201815E+05</totfact>
</mgrwt>
</event>
<event>
 5    1  0.1745726E+000  0.6993206E+02  0.7546771E-02  0.1360324E+00
         21   -1    0    0  503  502  0.00000000000E+00  0.00000000000E+00  0.49797790851E+02  0.49797790851E+02  0.00000000000E+00 0.  1.
         21   -1    0    0  501  503 -0.00000000000E+00 -0.00000000000E+00 -0.23415402856E+03  0.23415402856E+03  0.00000000000E+00 0. -1.
         24    1    1    2    0    0 -0.28582431964E+02  0.35891197551E+02 -0.14319684162E+03  0.17052180178E+03  0.80419002446E+02 0. -1.
          1    1    1    2  501    0  0.79268172099E+01 -0.19024749047E+02 -0.70694404892E+02  0.73637452362E+02  0.00000000000E+00 0. -1.
         -2    1    1    2    0  502  0.20655614754E+02 -0.16866448504E+02  0.29535008800E+02  0.39792565271E+02  0.00000000000E+00 0.  1.
<mgrwt>
<rscale>  2 0.69932057E+02</rscale>
<asrwt>0</asrwt>
<pdfrwt beam="1">  1       21 0.76611985E-02 0.69932057E+02</pdfrwt>
<pdfrwt beam="2">  1       21 0.36023697E-01 0.69932057E+02</pdfrwt>
<totfact> 0.95398861E+05</totfact>
</mgrwt>
</event>
<event>
 5    1  0.1745726E+000  0.9677490E+02  0.7546771E-02  0.1287228E+00
         21   -1    0    0  503  502  0.00000000000E+00  0.00000000000E+00  0.69552305485E+03  0.69552305485E+03  0.00000000000E+00 0. -1.
         21   -1    0    0  501  503 -0.00000000000E+00 -0.00000000000E+00 -0.16277798381E+02  0.16277798381E+02  0.00000000000E+00 0. -1.
         24    1    1    2    0    0  0.18965064762E+02 -0.41567858480E+02  0.32718122160E+03  0.34000342389E+03  0.80419002446E+02 0. -1.
          1    1    1    2  501    0  0.12673783316E+02  0.62074077170E+02  0.11104146737E+03  0.12784374570E+03  0.00000000000E+00 0. -1.
         -2    1    1    2    0  502 -0.31638848078E+02 -0.20506218690E+02  0.24102256751E+03  0.24395368364E+03  0.00000000000E+00 0.  1.
<mgrwt>
<rscale>  2 0.96774895E+02</rscale>
<asrwt>0</asrwt>
<pdfrwt beam="1">  1       21 0.10700352E+00 0.96774895E+02</pdfrwt>
<pdfrwt beam="2">  1       21 0.25042772E-02 0.96774895E+02</pdfrwt>
<totfact> 0.60365651E+05</totfact>
</mgrwt>
</event>
<event>
 5    1  0.1745726E+000  0.7379917E+02  0.7546771E-02  0.1347630E+00
         21   -1    0    0  503  502  0.00000000000E+00  0.00000000000E+00  0.32342259080E+02  0.32342259080E+02  0.00000000000E+00 0.  1.
         21   -1    0    0  501  503 -0.00000000000E+00 -0.00000000000E+00 -0.36513140424E+03  0.36513140424E+03  0.00000000000E+00 0.  1.
         24    1    1    2    0    0 -0.15234605997E+02 -0.41864518911E+02 -0.25525249225E+03  0.27130385533E+03  0.80419002446E+02 0.  1.
          1    1    1    2  501    0 -0.38328643772E+01  0.35285853644E+02 -0.93780045901E+02  0.10027202664E+03  0.00000000000E+00 0. -1.
         -2    1    1    2    0  502  0.19067470374E+02  0.65786652672E+01  0.16243392990E+02  0.25897781352E+02  0.00000000000E+00 0.  1.
<mgrwt>
<rscale>  2 0.73799170E+02</rscale>
<asrwt>0</asrwt>
<pdfrwt beam="1">  1       21 0.49757321E-02 0.73799170E+02</pdfrwt>
<pdfrwt beam="2">  1       21 0.56174063E-01 0.73799170E+02</pdfrwt>
<totfact> 0.80908407E+05</totfact>
</mgrwt>
</event>
<event>
 5    1  0.1745726E+000  0.9502863E+02  0.7546771E-02  0.1291112E+00
         21   -1    0    0  503  502  0.00000000000E+00  0.00000000000E+00  0.24085893596E+03  0.24085893596E+03  0.00000000000E+00 0.  1.
         21   -1    0    0  501  503 -0.00000000000E+00 -0.00000000000E+00 -0.54999539177E+02  0.54999539177E+02  0.00000000000E+00 0.  1.
         24    1    1    2    0    0 -0.84627231844E+01  0.26958753482E+02  0.39435471855E+02  0.93918924972E+02  0.80419002446E+02 0.  1.
          1    1    1    2  501    0  0.46687776122E+02 -0.42898203726E+02  0.16415717802E+02  0.65494122737E+02  0.00000000000E+00 0. -1.
         -2    1    1    2    0  502 -0.38225052937E+02  0.15939450244E+02  0.13000820712E+03  0.13644542742E+03  0.00000000000E+00 0.  1.
<mgrwt>
<rscale>  2 0.95028632E+02</rscale>
<asrwt>0</asrwt>
<pdfrwt beam="1">  1       21 0.37055220E-01 0.95028632E+02</pdfrwt>
<pdfrwt beam="2">  1       21 0.84614677E-02 0.95028632E+02</pdfrwt>
<totfact> 0.76638209E+05</totfact>
</mgrwt>
</event>
<event>
 5    1  0.1745726E+000  0.1021648E+03  0.7546771E-02  0.1275809E+00
         21   -1    0    0  503  502  0.00000000000E+00  0.00000000000E+00  0.12854337399E+04  0.12854337399E+04  0.00000000000E+00 0.  1.
         21   -1    0    0  501  503 -0.00000000000E+00 -0.00000000000E+00 -0.71247838546E+02  0.71247838546E+02  0.00000000000E+00 0.  1.
         24    1    1    2    0    0  0.15173360914E+02 -0.84952149592E+02 -0.90081310968E+01  0.11830241326E+03  0.80419002446E+02 0.  1.
          1    1    1    2  501    0 -0.58280101146E+01  0.42792790505E+02  0.57636175755E+02  0.72021645196E+02  0.00000000000E+00 0. -1.
         -2    1    1    2    0  502 -0.93453507997E+01  0.42159359087E+02  0.11655578567E+04  0.11663575199E+04  0.00000000000E+00 0.  1.
<mgrwt>
<rscale>  2 0.10216475E+03</rscale>
<asrwt>0</asrwt>
<pdfrwt beam="1">  1       21 0.19775902E+00 0.10216475E+03</pdfrwt>
<pdfrwt beam="2">  1       21 0.10961207E-01 0.10216475E+03</pdfrwt>
<totfact> 0.10522903E+04</totfact>
</mgrwt>
</event>
<event>
 5    1  0.1745726E+000  0.1086538E+03  0.7546771E-02  0.1263083E+00
         21   -1    0    0  501  502  0.00000000000E+00  0.00000000000E+00  0.35031083466E+03  0.35031083466E+03  0.00000000000E+00 0. -1.
         21   -1    0    0  502  503 -0.00000000000E+00 -0.00000000000E+00 -0.43846634702E+02  0.43846634702E+02  0.00000000000E+00 0.  1.
         24    1    1    2    0    0  0.71956741683E+02 -0.22530845891E+02  0.67223267023E+02  0.12911853188E+03  0.80419002446E+02 0.  0.
          1    1    1    2  501    0 -0.66535642886E+02  0.47350179200E+02  0.21474296302E+03  0.22974675495E+03  0.00000000000E+00 0. -1.
         -2    1    1    2    0  503 -0.54210987961E+01 -0.24819333309E+02  0.24497969919E+02  0.35292182537E+02  0.00000000000E+00 0.  1.
<mgrwt>
<rscale>  2 0.10865379E+03</rscale>
<asrwt>0</asrwt>
<pdfrwt beam="1">  1       21 0.53893973E-01 0.10865379E+03</pdfrwt>
<pdfrwt beam="2">  1       21 0.67456363E-02 0.10865379E+03</pdfrwt>
<totfact> 0.53021545E+05</totfact>
</mgrwt>
</event>
<event>
 5    1  0.1745726E+000  0.1790527E+03  0.7546771E-02  0.1168723E+00
         21   -1    0    0  501  502  0.00000000000E+00  0.00000000000E+00  0.57106265965E+03  0.57106265965E+03  0.00000000000E+00 0.  1.
         21   -1    0    0  502  503 -0.00000000000E+00 -0.00000000000E+00 -0.80943846988E+02  0.80943846988E+02  0.00000000000E+00 0.  1.
         24    1    1    2    0    0  0.11784293785E+03 -0.75166413592E+02  0.28830623335E+03  0.33034020022E+03  0.80419002446E+02 0.  1.
          1    1    1    2  501    0  0.31658294808E+02  0.64444038683E+01  0.14351130447E+03  0.14710293159E+03  0.00000000000E+00 0. -1.
         -2    1    1    2    0  503 -0.14950123266E+03  0.68722009723E+02  0.58301274839E+02  0.17456337484E+03  0.00000000000E+00 0.  1.
<mgrwt>
<rscale>  2 0.17905269E+03</rscale>
<asrwt>0</asrwt>
<pdfrwt beam="1">  1       21 0.87855791E-01 0.17905269E+03</pdfrwt>
<pdfrwt beam="2">  1       21 0.12452900E-01 0.17905269E+03</pdfrwt>
<totfact> 0.61380180E+04</totfact>
</mgrwt>
</event>
<event>
 5    1  0.1745726E+000  0.1628760E+03  0.7546771E-02  0.1185487E+00
         21   -1    0    0  501  502  0.00000000000E+00  0.00000000000E+00  0.31575214744E+03  0.31575214744E+03  0.00000000000E+00 0. -1.
         21   -1    0    0  502  503 -0.00000000000E+00 -0.00000000000E+00 -0.15728755689E+03  0.15728755689E+03  0.00000000000E+00 0.  1.
         24    1    1    2    0    0  0.55150990133E+02 -0.59437183895E+02 -0.15846222144E+02  0.11529409895E+03  0.80419002446E+02 0.  1.
          1    1    1    2  501    0 -0.16518301741E+02  0.13003243972E+03  0.22659643077E+03  0.26177706567E+03  0.00000000000E+00 0. -1.
         -2    1    1    2    0  503 -0.38632688392E+02 -0.70595255821E+02 -0.52285618083E+02  0.95968539716E+02  0.00000000000E+00 0.  1.
<mgrwt>
<rscale>  2 0.16287602E+03</rscale>
<asrwt>0</asrwt>
<pdfrwt beam="1">  1       21 0.48577254E-01 0.16287602E+03</pdfrwt>
<pdfrwt beam="2">  1       21 0.24198086E-01 0.16287602E+03</pdfrwt>
<totfact> 0.66101651E+04</totfact>
</mgrwt>
</event>
<event>
 5    1  0.1745726E+000  0.9515513E+02  0.7546771E-02  0.1290827E+00
         21   -1    0    0  503  502  0.00000000000E+00  0.00000000000E+00  0.21710822802E+03  0.21710822802E+03  0.00000000000E+00 0. -1.
         21   -1    0    0  501  503 -0.00000000000E+00 -0.00000000000E+00 -0.65981520903E+02  0.65981520903E+02  0.00000000000E+00 0.  1.
         24    1    1    2    0    0 -0.56651779216E+02  0.53816663273E+02  0.16997207839E+02  0.11340978072E+03  0.80419002446E+02 0.  1.
          1    1    1    2  501    0  0.34874652003E+02 -0.34849725152E+02  0.22173474856E+02  0.54059297837E+02  0.00000000000E+00 0. -1.
         -2    1    1    2    0  502  0.21777127212E+02 -0.18966938122E+02  0.11195602442E+03  0.11562067036E+03  0.00000000000E+00 0.  1.
<mgrwt>
<rscale>  2 0.95155129E+02</rscale>
<asrwt>0</asrwt>
<pdfrwt beam="1">  1       21 0.33401266E-01 0.95155129E+02</pdfrwt>
<pdfrwt beam="2">  1       21 0.10151003E-01 0.95155129E+02</pdfrwt>
<totfact> 0.68518570E+05</totfact>
</mgrwt>
</event>
<event>
 5    1  0.1745726E+000  0.1018659E+03  0.7546771E-02  0.1276420E+00
         21   -1    0    0  503  502  0.00000000000E+00  0.00000000000E+00  0.14955937402E+03  0.14955937402E+03  0.00000000000E+00 0. -1.
         21   -1    0    0  501  503 -0.00000000000E+00 -0.00000000000E+00 -0.14525365743E+03  0.14525365743E+03  0.00000000000E+00 0. -1.
         24    1    1    2    0    0 -0.82843907192E+02  0.21216122216E+02  0.62887945849E+02  0.13317412094E+03  0.80419002446E+02 0. -1.
          1    1    1    2  501    0  0.34296421838E+02 -0.27707481424E+01 -0.93117199769E+02  0.99271015352E+02  0.00000000000E+00 0. -1.
         -2    1    1    2    0  502  0.48547485354E+02 -0.18445374073E+02  0.34534970506E+02  0.62367895161E+02  0.00000000000E+00 0.  1.
<mgrwt>
<rscale>  2 0.10186593E+03</rscale>
<asrwt>0</asrwt>
<pdfrwt beam="1">  1       21 0.23009135E-01 0.10186593E+03</pdfrwt>
<pdfrwt beam="2">  1       21 0.22346716E-01 0.10186593E+03</pdfrwt>
<totfact> 0.33777995E+05</totfact>
</mgrwt>
</event>
<event>
 5    1  0.1745726E+000  0.1152658E+03  0.7546771E-02  0.1251118E+00
         21   -1    0    0  501  502  0.00000000000E+00  0.00000000000E+00  0.58932598476E+03  0.58932598476E+03  0.00000000000E+00 0. -1.
         21   -1    0    0  502  503 -0.00000000000E+00 -0.00000000000E+00 -0.30788129041E+02  0.30788129041E+02  0.00000000000E+00 0.  1.
         24    1    1    2    0    0  0.61903163031E+02 -0.68948655829E+01  0.23719608050E+03  0.25808668568E+03  0.80419002446E+02 0.  0.
          1    1    1    2  501    0 -0.76340172287E+02  0.44616905568E+02  0.30649503373E+03  0.31899482107E+03  0.00000000000E+00 0. -1.
         -2    1    1    2    0  503  0.14437009255E+02 -0.37722039985E+02  0.14846741483E+02  0.43032607050E+02  0.00000000000E+00 0.  1.
<mgrwt>
<rscale>  2 0.11526579E+03</rscale>
<asrwt>0</asrwt>
<pdfrwt beam="1">  1       21 0.90665528E-01 0.11526579E+03</pdfrwt>
<pdfrwt beam="2">  1       21 0.47366357E-02 0.11526579E+03</pdfrwt>
<totfact> 0.31023367E+05</totfact>
</mgrwt>
</event>
<event>
 5    1  0.1745726E+000  0.7028276E+02  0.7546771E-02  0.1359134E+00
         21   -1    0    0  501  502  0.00000000000E+00  0.00000000000E+00  0.86277513868E+01  0.86277513868E+01  0.00000000000E+00 0.  1.
         21   -1    0    0  502  503 -0.00000000000E+00 -0.00000000000E+00 -0.62596004350E+03  0.62596004350E+03  0.00000000000E+00 0. -1.
         24    1    1    2    0    0 -0.25434352343E+01  0.42440789020E+02 -0.33597370274E+03  0.34807073207E+03  0.80419002446E+02 0.  0.
          1    1    1    2  501    0 -0.11050849678E+02 -0.26098112544E+02 -0.10070472297E+03  0.10461679590E+03  0.00000000000E+00 0. -1.
         -2    1    1    2    0  503  0.13594284912E+02 -0.16342676477E+02 -0.18065386641E+03  0.18190026692E+03  0.00000000000E+00 0.  1.
<mgrwt>
<rscale>  2 0.70282759E+02</rscale>
<asrwt>0</asrwt>
<pdfrwt beam="1">  1       21 0.13273464E-02 0.70282759E+02</pdfrwt>
<pdfrwt beam="2">  1       21 0.96301543E-01 0.70282759E+02</pdfrwt>
<totfact> 0.21061795E+06</totfact>
</mgrwt>
</event>
<event>
 5    1  0.1745726E+000  0.6375315E+02  0.7546771E-02  0.1382724E+00
         21   -1    0    0  503  502  0.00000000000E+00  0.00000000000E+00  0.21853846967E+03  0.21853846967E+03  0.00000000000E+00 0.  1.
         21   -1    0    0  501  503 -0.00000000000E+00 -0.00000000000E+00 -0.41203492921E+02  0.41203492921E+02  0.00000000000E+00 0. -1.
         24    1    1    2    0    0 -0.10958816795E+02 -0.13318885454E+02  0.91649979055E+02  0.12314391171E+03  0.80419002446E+02 0. -1.
          1    1    1    2  501    0  0.24712151801E+02 -0.18519526303E+01 -0.18179296006E+02  0.30734459137E+02  0.00000000000E+00 0. -1.
         -2    1    1    2    0  502 -0.13753335006E+02  0.15170838084E+02  0.10386429370E+03  0.10586359175E+03  0.00000000000E+00 0.  1.
<mgrwt>
<rscale>  2 0.63753148E+02</rscale>
<asrwt>0</asrwt>
<pdfrwt beam="1">  1       21 0.33621302E-01 0.63753148E+02</pdfrwt>
<pdfrwt beam="2">  1       21 0.63389990E-02 0.63753148E+02</pdfrwt>
<totfact> 0.14932581E+06</totfact>
</mgrwt>
</event>
<event>
 5    1  0.2766701E+000  0.2062323E+03  0.7546771E-02  0.1144585E+00
         21   -1    0    0  501  502  0.00000000000E+00  0.00000000000E+00  0.15889429595E+03  0.15889429595E+03  0.00000000000E+00 0. -1.
         21   -1    0    0  502  503 -0.00000000000E+00 -0.00000000000E+00 -0.45675971561E+03  0.45675971561E+03  0.00000000000E+00 0.  1.
         24    1    1    2    0    0 -0.34245955416E+02 -0.32245783710E+02 -0.85986054368E+01  0.93561359541E+02  0.80419002446E+02 0.  1.
          1    1    1    2  501    0 -0.69965227318E+02  0.14790391578E+03  0.30505253629E+02  0.16643699059E+03  0.00000000000E+00 0. -1.
         -2    1    1    2    0  503  0.10421118273E+03 -0.11565813207E+03 -0.31977206786E+03  0.35565566142E+03  0.00000000000E+00 0.  1.
<mgrwt>
<rscale>  2 0.20623230E+03</rscale>
<asrwt>0</asrwt>
<pdfrwt beam="1">  1       21 0.24445277E-01 0.20623230E+03</pdfrwt>
<pdfrwt beam="2">  1       21 0.70270723E-01 0.20623230E+03</pdfrwt>
<totfact> 0.28824649E+04</totfact>
</mgrwt>
</event>
<event>
 5    1  0.1745726E+000  0.1033683E+03  0.7546771E-02  0.1273368E+00
         21   -1    0    0  503  502  0.00000000000E+00  0.00000000000E+00  0.63981880605E+02  0.63981880605E+02  0.00000000000E+00 0. -1.
         21   -1    0    0  501  503 -0.00000000000E+00 -0.00000000000E+00 -0.17078523495E+03  0.17078523495E+03  0.00000000000E+00 0. -1.
         24    1    1    2    0    0 -0.69581778761E+02 -0.50707427764E+02 -0.71864130044E+02  0.13800194313E+03  0.80419002446E+02 0. -1.
          1    1    1    2  501    0  0.42095525187E+02  0.43443736329E+02 -0.31277595700E+02  0.68100509981E+02  0.00000000000E+00 0. -1.
         -2    1    1    2    0  502  0.27486253575E+02  0.72636914346E+01 -0.36616285974E+01  0.28664662440E+02  0.00000000000E+00 0.  1.
<mgrwt>
<rscale>  2 0.10336825E+03</rscale>
<asrwt>0</asrwt>
<pdfrwt beam="1">  1       21 0.98433663E-02 0.10336825E+03</pdfrwt>
<pdfrwt beam="2">  1       21 0.26274651E-01 0.10336825E+03</pdfrwt>
<totfact> 0.11448968E+06</totfact>
</mgrwt>
</event>
<event>
 5    1  0.1745726E+000  0.1476960E+03  0.7546771E-02  0.1203333E+00
         21   -1    0    0  501  502  0.00000000000E+00  0.00000000000E+00  0.12665667003E+04  0.12665667003E+04  0.00000000000E+00 0. -1.
         21   -1    0    0  502  503 -0.00000000000E+00 -0.00000000000E+00 -0.22611278352E+02  0.22611278352E+02  0.00000000000E+00 0.  1.
         24    1    1    2    0    0 -0.19656768427E+02 -0.26589263312E+02  0.18943672258E+03  0.20843911650E+03  0.80419002446E+02 0.  1.
          1    1    1    2  501    0  0.11197419595E+03  0.30455288356E+02  0.82812491987E+03  0.83621565882E+03  0.00000000000E+00 0. -1.
         -2    1    1    2    0  503 -0.92317427521E+02 -0.38660250435E+01  0.22639377948E+03  0.24452320331E+03  0.00000000000E+00 0.  1.
<mgrwt>
<rscale>  2 0.14769601E+03</rscale>
<asrwt>0</asrwt>
<pdfrwt beam="1">  1       21 0.19485636E+00 0.14769601E+03</pdfrwt>
<pdfrwt beam="2">  1       21 0.34786592E-02 0.14769601E+03</pdfrwt>
<totfact> 0.73789577E+04</totfact>
</mgrwt>
</event>
<event>
 5    1  0.1745726E+000  0.7191525E+02  0.7546771E-02  0.1353699E+00
         21   -1    0    0  503  502  0.00000000000E+00  0.00000000000E+00  0.23092587007E+03  0.23092587007E+03  0.00000000000E+00 0.  1.
         21   -1    0    0  501  503 -0.00000000000E+00 -0.00000000000E+00 -0.45575677384E+02  0.45575677384E+02  0.00000000000E+00 0. -1.
         24    1    1    2    0    0  0.39154279852E+02  0.29356466614E+02  0.48494946026E+02  0.10589539890E+03  0.80419002446E+02 0. -1.
          1    1    1    2  501    0 -0.17905179522E+02 -0.18810214569E+02 -0.52833503315E+01  0.26501573851E+02  0.00000000000E+00 0. -1.
         -2    1    1    2    0  502 -0.21249100330E+02 -0.10546252045E+02  0.14213859699E+03  0.14410457471E+03  0.00000000000E+00 0.  1.
<mgrwt>
<rscale>  2 0.71915246E+02</rscale>
<asrwt>0</asrwt>
<pdfrwt beam="1">  1       21 0.35527056E-01 0.71915246E+02</pdfrwt>
<pdfrwt beam="2">  1       21 0.70116428E-02 0.71915246E+02</pdfrwt>
<totfact> 0.11389526E+06</totfact>
</mgrwt>
</event>
<event>
 5    1  0.1745726E+000  0.7596763E+02  0.7546771E-02  0.1340901E+00
         21   -1    0    0  503  502  0.00000000000E+00  0.00000000000E+00  0.47883985497E+03  0.47883985497E+03  0.00000000000E+00 0.  1.
         21   -1    0    0  501  503 -0.00000000000E+00 -0.00000000000E+00 -0.52833169400E+02  0.52833169400E+02  0.00000000000E+00 0.  1.
         24    1    1    2    0    0  0.61783961012E+01  0.32048912167E+02  0.20153875631E+02  0.89099382752E+02  0.80419002446E+02 0.  1.
          1    1    1    2  501    0  0.25140246575E+02 -0.11204389242E+02 -0.66848183691E+01  0.28324143990E+02  0.00000000000E+00 0. -1.
         -2    1    1    2    0  502 -0.31318642676E+02 -0.20844522925E+02  0.41253762831E+03  0.41424949763E+03  0.00000000000E+00 0.  1.
<mgrwt>
<rscale>  2 0.75967626E+02</rscale>
<asrwt>0</asrwt>
<pdfrwt beam="1">  1       21 0.73667667E-01 0.75967626E+02</pdfrwt>
<pdfrwt beam="2">  1       21 0.81281802E-02 0.75967626E+02</pdfrwt>
<totfact> 0.20024017E+05</totfact>
</mgrwt>
</event>
<event>
 5    1  0.1745726E+000  0.9108768E+02  0.7546771E-02  0.1300239E+00
         21   -1    0    0  503  502  0.00000000000E+00  0.00000000000E+00  0.32310004370E+03  0.32310004370E+03  0.00000000000E+00 0.  1.
         21   -1    0    0  501  503 -0.00000000000E+00 -0.00000000000E+00 -0.35261415601E+03  0.35261415601E+03  0.00000000000E+00 0. -1.
         24    1    1    2    0    0 -0.28547904896E+02 -0.56468577919E+02 -0.65806818486E+02  0.12166115436E+03  0.80419002446E+02 0.  1.
          1    1    1    2  501    0  0.38336417954E+02  0.22399718398E+02 -0.25589730966E+03  0.25972073736E+03  0.00000000000E+00 0. -1.
         -2    1    1    2    0  502 -0.97885130578E+01  0.34068859522E+02  0.29219001583E+03  0.29433230799E+03  0.00000000000E+00 0.  1.
<mgrwt>
<rscale>  2 0.91087678E+02</rscale>
<asrwt>0</asrwt>
<pdfrwt beam="1">  1       21 0.49707699E-01 0.91087678E+02</pdfrwt>
<pdfrwt beam="2">  1       21 0.54248331E-01 0.91087678E+02</pdfrwt>
<totfact> 0.13465877E+04</totfact>
</mgrwt>
</event>
<event>
 5    1  0.1745726E+000  0.7206082E+02  0.7546771E-02  0.1353222E+00
         21   -1    0    0  503  502  0.00000000000E+00  0.00000000000E+00  0.14424719263E+03  0.14424719263E+03  0.00000000000E+00 0. -1.
         21   -1    0    0  501  503 -0.00000000000E+00 -0.00000000000E+00 -0.24437895659E+03  0.24437895659E+03  0.00000000000E+00 0. -1.
         24    1    1    2    0    0 -0.20956220142E+02  0.44588246664E+02  0.28166657439E+02  0.98426883771E+02  0.80419002446E+02 0. -1.
          1    1    1    2  501    0  0.15713678239E+02 -0.24957581673E+02 -0.20691150947E+03  0.20900280697E+03  0.00000000000E+00 0. -1.
         -2    1    1    2    0  502  0.52425419031E+01 -0.19630664991E+02  0.78613088076E+02  0.81196458484E+02  0.00000000000E+00 0.  1.
<mgrwt>
<rscale>  2 0.72060816E+02</rscale>
<asrwt>0</asrwt>
<pdfrwt beam="1">  1       21 0.22191876E-01 0.72060816E+02</pdfrwt>
<pdfrwt beam="2">  1       21 0.37596763E-01 0.72060816E+02</pdfrwt>
<totfact> 0.13550447E+05</totfact>
</mgrwt>
</event>
<event>
 5    1  0.1745726E+000  0.8840536E+02  0.7546771E-02  0.1306760E+00
         21   -1    0    0  503  502  0.00000000000E+00  0.00000000000E+00  0.10417868961E+03  0.10417868961E+03  0.00000000000E+00 0.  1.
         21   -1    0    0  501  503 -0.00000000000E+00 -0.00000000000E+00 -0.94606647677E+02  0.94606647677E+02  0.00000000000E+00 0.  1.
         24    1    1    2    0    0 -0.43165882726E+02  0.87533699944E+01 -0.36736614916E+02  0.98776058575E+02  0.80419002446E+02 0.  1.
          1    1    1    2  501    0  0.56137814001E+01  0.30373923554E+02  0.38370969314E+01  0.31125762425E+02  0.00000000000E+00 0. -1.
         -2    1    1    2    0  502  0.37552101326E+02 -0.39127293548E+02  0.42471559922E+02  0.68883516291E+02  0.00000000000E+00 0.  1.
<mgrwt>
<rscale>  2 0.88405355E+02</rscale>
<asrwt>0</asrwt>
<pdfrwt beam="1">  1       21 0.16027491E-01 0.88405355E+02</pdfrwt>
<pdfrwt beam="2">  1       21 0.14554869E-01 0.88405355E+02</pdfrwt>
<totfact> 0.14233838E+06</totfact>
</mgrwt>
</event>
<event>
 5    1  0.1745726E+000  0.7226123E+02  0.7546771E-02  0.1352568E+00
         21   -1    0    0  503  502  0.00000000000E+00  0.00000000000E+00  0.74530770478E+01  0.74530770478E+01  0.00000000000E+00 0. -1.
         21   -1    0    0  501  503 -0.00000000000E+00 -0.00000000000E+00 -0.10619017027E+04  0.10619017027E+04  0.00000000000E+00 0.  1.
         24    1    1    2    0    0 -0.25344096980E+02  0.77931155179E+01 -0.88420603133E+03  0.88825141582E+03  0.80419002446E+02 0.  1.
          1    1    1    2  501    0 -0.13235113311E+02 -0.15626885289E+02 -0.81277237277E+02  0.83817403131E+02  0.00000000000E+00 0. -1.
         -2    1    1    2    0  502  0.38579210291E+02  0.78337697708E+01 -0.88965357067E+02  0.97285960825E+02  0.00000000000E+00 0.  1.
<mgrwt>
<rscale>  2 0.72261228E+02</rscale>
<asrwt>0</asrwt>
<pdfrwt beam="1">  1       21 0.11466278E-02 0.72261228E+02</pdfrwt>
<pdfrwt beam="2">  1       21 0.16336941E+00 0.72261228E+02</pdfrwt>
<totfact> 0.73841704E+05</totfact>
</mgrwt>
</event>
<event>
 5    1  0.1745726E+000  0.1319897E+03  0.7546771E-02  0.1224533E+00
         21   -1    0    0  503  502  0.00000000000E+00  0.00000000000E+00  0.18260262212E+02  0.18260262212E+02  0.00000000000E+00 0.  1.
         21   -1    0    0  501  503 -0.00000000000E+00 -0.00000000000E+00 -0.11282705541E+04  0.11282705541E+04  0.00000000000E+00 0. -1.
         24    1    1    2    0    0 -0.36035373521E+02 -0.17713699926E+02 -0.24921830796E+03  0.26493264104E+03  0.80419002446E+02 0.  1.
          1    1    1    2  501    0  0.68082184196E+02  0.79392055024E+02 -0.67833438045E+03  0.68634962949E+03  0.00000000000E+00 0. -1.
         -2    1    1    2    0  502 -0.32046810675E+02 -0.61678355098E+02 -0.18245760345E+03  0.19524854576E+03  0.00000000000E+00 0.  1.
<mgrwt>
<rscale>  2 0.13198973E+03</rscale>
<asrwt>0</asrwt>
<pdfrwt beam="1">  1       21 0.28092710E-02 0.13198973E+03</pdfrwt>
<pdfrwt beam="2">  1       21 0.17358009E+00 0.13198973E+03</pdfrwt>
<totfact> 0.14640287E+05</totfact>
</mgrwt>
</event>
<event>
 5    1  0.1745726E+000  0.1149177E+03  0.7546771E-02  0.1251725E+00
         21   -1    0    0  503  502  0.00000000000E+00  0.00000000000E+00  0.12188211680E+02  0.12188211680E+02  0.00000000000E+00 0.  1.
         21   -1    0    0  501  503 -0.00000000000E+00 -0.00000000000E+00 -0.12589665388E+04  0.12589665388E+04  0.00000000000E+00 0.  1.
         24    1    1    2    0    0  0.24869736822E+02 -0.37093500039E+02 -0.72832458163E+03  0.73411058003E+03  0.80419002446E+02 0.  0.
          1    1    1    2  501    0  0.69629398612E+01  0.82280425418E+02 -0.35576175512E+03  0.36521908130E+03  0.00000000000E+00 0. -1.
         -2    1    1    2    0  502 -0.31832676683E+02 -0.45186925380E+02 -0.16269199033E+03  0.17182508911E+03  0.00000000000E+00 0.  1.
<mgrwt>
<rscale>  2 0.11491770E+03</rscale>
<asrwt>0</asrwt>
<pdfrwt beam="1">  1       21 0.18751101E-02 0.11491770E+03</pdfrwt>
<pdfrwt beam="2">  1       21 0.19368709E+00 0.11491770E+03</pdfrwt>
<totfact> 0.20981721E+05</totfact>
</mgrwt>
</event>
<event>
 5    1  0.2952857E+000  0.1076619E+03  0.7546771E-02  0.1264962E+00
         21   -1    0    0  503  502  0.00000000000E+00  0.00000000000E+00  0.15457624101E+03  0.15457624101E+03  0.00000000000E+00 0.  1.
         21   -1    0    0  501  503 -0.00000000000E+00 -0.00000000000E+00 -0.29206437576E+03  0.29206437576E+03  0.00000000000E+00 0. -1.
         24    1    1    2    0    0  0.52340422705E+02 -0.17257033545E+02  0.26003985334E+02  0.10089969407E+03  0.80419002446E+02 0.  0.
          1    1    1    2  501    0 -0.81695244242E+02  0.28316499338E+02 -0.24425122888E+03  0.25910345400E+03  0.00000000000E+00 0. -1.
         -2    1    1    2    0  502  0.29354821537E+02 -0.11059465793E+02  0.80759108785E+02  0.86637468700E+02  0.00000000000E+00 0.  1.
<mgrwt>
<rscale>  2 0.10766189E+03</rscale>
<asrwt>0</asrwt>
<pdfrwt beam="1">  1       21 0.23780960E-01 0.10766189E+03</pdfrwt>
<pdfrwt beam="2">  1       21 0.44932981E-01 0.10766189E+03</pdfrwt>
<totfact> 0.82179511E+04</totfact>
</mgrwt>
</event>
<event>
 5    1  0.1745726E+000  0.1446037E+03  0.7546771E-02  0.1207265E+00
         21   -1    0    0  503  502  0.00000000000E+00  0.00000000000E+00  0.49004409458E+02  0.49004409458E+02  0.00000000000E+00 0. -1.
         21   -1    0    0  501  503 -0.00000000000E+00 -0.00000000000E+00 -0.11719434750E+04  0.11719434750E+04  0.00000000000E+00 0. -1.
         24    1    1    2    0    0  0.11922975427E+02  0.11062961879E+03 -0.77477926134E+02  0.15764236388E+03  0.80419002446E+02 0. -1.
          1    1    1    2  501    0 -0.40926777974E+02 -0.36643300895E+01 -0.68405622287E+03  0.68528924151E+03  0.00000000000E+00 0. -1.
         -2    1    1    2    0  502  0.29003802547E+02 -0.10696528870E+03 -0.36140491650E+03  0.37801627904E+03  0.00000000000E+00 0.  1.
<mgrwt>
<rscale>  2 0.14460366E+03</rscale>
<asrwt>0</asrwt>
<pdfrwt beam="1">  1       21 0.75391401E-02 0.14460366E+03</pdfrwt>
<pdfrwt beam="2">  1       21 0.18029899E+00 0.14460366E+03</pdfrwt>
<totfact> 0.24976143E+04</totfact>
</mgrwt>
</event>
<event>
 5    1  0.1745726E+000  0.8722049E+02  0.7546771E-02  0.1309726E+00
         21   -1    0    0  501  502  0.00000000000E+00  0.00000000000E+00  0.14179630585E+03  0.14179630585E+03  0.00000000000E+00 0.  1.
         21   -1    0    0  502  503 -0.00000000000E+00 -0.00000000000E+00 -0.64470107890E+02  0.64470107890E+02  0.00000000000E+00 0. -1.
         24    1    1    2    0    0  0.52995217951E+02 -0.35657242511E+02  0.14577929479E+02  0.10372880049E+03  0.80419002446E+02 0.  1.
          1    1    1    2  501    0 -0.47459170852E+02  0.14135827661E+02  0.63226344654E+02  0.80310430082E+02  0.00000000000E+00 0. -1.
         -2    1    1    2    0  503 -0.55360470987E+01  0.21521414849E+02 -0.47807617458E+00  0.22227183164E+02  0.00000000000E+00 0.  1.
<mgrwt>
<rscale>  2 0.87220494E+02</rscale>
<asrwt>0</asrwt>
<pdfrwt beam="1">  1       21 0.21814816E-01 0.87220494E+02</pdfrwt>
<pdfrwt beam="2">  1       21 0.99184781E-02 0.87220494E+02</pdfrwt>
<totfact> 0.15917083E+06</totfact>
</mgrwt>
</event>
<event>
 5    1  0.1745726E+000  0.9260743E+02  0.7546771E-02  0.1296658E+00
         21   -1    0    0  501  502  0.00000000000E+00  0.00000000000E+00  0.79733448492E+02  0.79733448492E+02  0.00000000000E+00 0.  1.
         21   -1    0    0  502  503 -0.00000000000E+00 -0.00000000000E+00 -0.12237085009E+03  0.12237085009E+03  0.00000000000E+00 0.  1.
         24    1    1    2    0    0 -0.49554041510E+02  0.54855669261E+02 -0.39771539976E+02  0.11624860785E+03  0.80419002446E+02 0.  1.
          1    1    1    2  501    0  0.33122860861E+02 -0.23601875987E+02  0.18396213969E+02  0.44638471637E+02  0.00000000000E+00 0. -1.
         -2    1    1    2    0  503  0.16431180649E+02 -0.31253793274E+02 -0.21262075586E+02  0.41217219093E+02  0.00000000000E+00 0.  1.
<mgrwt>
<rscale>  2 0.92607432E+02</rscale>
<asrwt>0</asrwt>
<pdfrwt beam="1">  1       21 0.12266684E-01 0.92607432E+02</pdfrwt>
<pdfrwt beam="2">  1       21 0.18826284E-01 0.92607432E+02</pdfrwt>
<totfact> 0.14422262E+06</totfact>
</mgrwt>
</event>
<event>
 5    1  0.1745726E+000  0.7961354E+02  0.7546771E-02  0.1330152E+00
         21   -1    0    0  501  502  0.00000000000E+00  0.00000000000E+00  0.24884757200E+03  0.24884757200E+03  0.00000000000E+00 0. -1.
         21   -1    0    0  502  503 -0.00000000000E+00 -0.00000000000E+00 -0.83127521700E+02  0.83127521700E+02  0.00000000000E+00 0. -1.
         24    1    1    2    0    0  0.14579111174E+02  0.34958049305E+02 -0.44648491871E+02  0.99475220405E+02  0.80419002446E+02 0. -1.
          1    1    1    2  501    0 -0.21663152323E+02  0.10678266514E+02  0.16831512816E+03  0.17003911289E+03  0.00000000000E+00 0. -1.
         -2    1    1    2    0  503  0.70840411484E+01 -0.45636315819E+02  0.42053414008E+02  0.62460760404E+02  0.00000000000E+00 0.  1.
<mgrwt>
<rscale>  2 0.79613540E+02</rscale>
<asrwt>0</asrwt>
<pdfrwt beam="1">  1       21 0.38284242E-01 0.79613540E+02</pdfrwt>
<pdfrwt beam="2">  1       21 0.12788850E-01 0.79613540E+02</pdfrwt>
<totfact> 0.35093116E+05</totfact>
</mgrwt>
</event>
<event>
 5    1  0.1745726E+000  0.1492878E+03  0.7546771E-02  0.1201351E+00
         21   -1    0    0  503  502  0.00000000000E+00  0.00000000000E+00  0.81636240950E+03  0.81636240950E+03  0.00000000000E+00 0. -1.
         21   -1    0    0  501  503 -0.00000000000E+00 -0.00000000000E+00 -0.17106483549E+03  0.17106483549E+03  0.00000000000E+00 0. -1.
         24    1    1    2    0    0  0.24992572969E+02 -0.12625219451E+03  0.57654833790E+03  0.59618742624E+03  0.80419002446E+02 0. -1.
          1    1    1    2  501    0 -0.46356158789E+02  0.11177809039E+03 -0.13762469205E+03  0.18325880828E+03  0.00000000000E+00 0. -1.
         -2    1    1    2    0  502  0.21363585819E+02  0.14474104125E+02  0.20637392817E+03  0.20798101047E+03  0.00000000000E+00 0.  1.
<mgrwt>
<rscale>  2 0.14928776E+03</rscale>
<asrwt>0</asrwt>
<pdfrwt beam="1">  1       21 0.12559421E+00 0.14928776E+03</pdfrwt>
<pdfrwt beam="2">  1       21 0.26317667E-01 0.14928776E+03</pdfrwt>
<totfact> 0.67116334E+03</totfact>
</mgrwt>
</event>
<event>
 5    1  0.1745726E+000  0.1181785E+03  0.7546771E-02  0.1246132E+00
         21   -1    0    0  503  502  0.00000000000E+00  0.00000000000E+00  0.29168513567E+02  0.29168513567E+02  0.00000000000E+00 0. -1.
         21   -1    0    0  501  503 -0.00000000000E+00 -0.00000000000E+00 -0.56049104726E+03  0.56049104726E+03  0.00000000000E+00 0. -1.
         24    1    1    2    0    0 -0.17357771738E+02 -0.10160549788E+03 -0.36854363367E+03  0.39104551565E+03  0.80419002446E+02 0. -1.
          1    1    1    2  501    0  0.56615477072E+00  0.68473544914E+02 -0.13772946357E+03  0.15381271735E+03  0.00000000000E+00 0. -1.
         -2    1    1    2    0  502  0.16791616968E+02  0.33131952965E+02 -0.25049436447E+02  0.44801327815E+02  0.00000000000E+00 0.  1.
<mgrwt>
<rscale>  2 0.11817854E+03</rscale>
<asrwt>0</asrwt>
<pdfrwt beam="1">  1       21 0.44874636E-02 0.11817854E+03</pdfrwt>
<pdfrwt beam="2">  1       21 0.86229391E-01 0.11817854E+03</pdfrwt>
<totfact> 0.38025064E+05</totfact>
</mgrwt>
</event>
<event>
 5    1  0.1745726E+000  0.8215724E+02  0.7546771E-02  0.1323039E+00
         21   -1    0    0  501  502  0.00000000000E+00  0.00000000000E+00  0.31244096355E+03  0.31244096355E+03  0.00000000000E+00 0. -1.
         21   -1    0    0  502  503 -0.00000000000E+00 -0.00000000000E+00 -0.10272783190E+03  0.10272783190E+03  0.00000000000E+00 0.  1.
         24    1    1    2    0    0  0.13866950618E+02  0.57968891877E+02 -0.51910573438E+02  0.11275907207E+03  0.80419002446E+02 0.  1.
          1    1    1    2  501    0 -0.18086440329E+02 -0.24349068633E+02  0.26646173188E+03  0.26818249575E+03  0.00000000000E+00 0. -1.
         -2    1    1    2    0  503  0.42194897115E+01 -0.33619823244E+02 -0.48380267875E+01  0.34227227635E+02  0.00000000000E+00 0.  1.
<mgrwt>
<rscale>  2 0.82157236E+02</rscale>
<asrwt>0</asrwt>
<pdfrwt beam="1">  1       21 0.48067840E-01 0.82157236E+02</pdfrwt>
<pdfrwt beam="2">  1       21 0.15804282E-01 0.82157236E+02</pdfrwt>
<totfact> 0.15316238E+05</totfact>
</mgrwt>
</event>
<event>
 5    1  0.1745726E+000  0.9836131E+02  0.7546771E-02  0.1283780E+00
         21   -1    0    0  503  502  0.00000000000E+00  0.00000000000E+00  0.68498318994E+03  0.68498318994E+03  0.00000000000E+00 0.  1.
         21   -1    0    0  501  503 -0.00000000000E+00 -0.00000000000E+00 -0.17598024986E+02  0.17598024986E+02  0.00000000000E+00 0. -1.
         24    1    1    2    0    0 -0.41192889440E+02 -0.22581645060E+02  0.31028776524E+03  0.32396372952E+03  0.80419002446E+02 0.  1.
          1    1    1    2  501    0 -0.13945131543E+02 -0.26386577911E+02  0.26553647047E+02  0.39947645226E+02  0.00000000000E+00 0. -1.
         -2    1    1    2    0  502  0.55138020983E+02  0.48968222971E+02  0.33054375267E+03  0.33866984018E+03  0.00000000000E+00 0.  1.
<mgrwt>
<rscale>  2 0.98361306E+02</rscale>
<asrwt>0</asrwt>
<pdfrwt beam="1">  1       21 0.10538201E+00 0.98361306E+02</pdfrwt>
<pdfrwt beam="2">  1       21 0.27073890E-02 0.98361306E+02</pdfrwt>
<totfact> 0.55140863E+05</totfact>
</mgrwt>
</event>
<event>
 5    1  0.1745726E+000  0.6855226E+02  0.7546771E-02  0.1365087E+00
         21   -1    0    0  503  502  0.00000000000E+00  0.00000000000E+00  0.43294066705E+03  0.43294066705E+03  0.00000000000E+00 0. -1.
         21   -1    0    0  501  503 -0.00000000000E+00 -0.00000000000E+00 -0.28401836948E+02  0.28401836948E+02  0.00000000000E+00 0. -1.
         24    1    1    2    0    0 -0.26486417075E+02 -0.35575622057E+02  0.35558026875E+03  0.36724882390E+03  0.80419002446E+02 0. -1.
          1    1    1    2  501    0  0.17486936827E+02  0.15921981303E+02 -0.14030832277E+02  0.27498485460E+02  0.00000000000E+00 0. -1.
         -2    1    1    2    0  502  0.89994802478E+01  0.19653640754E+02  0.62989393629E+02  0.66595194641E+02  0.00000000000E+00 0.  1.
<mgrwt>
<rscale>  2 0.68552260E+02</rscale>
<asrwt>0</asrwt>
<pdfrwt beam="1">  1       21 0.66606252E-01 0.68552260E+02</pdfrwt>
<pdfrwt beam="2">  1       21 0.43695137E-02 0.68552260E+02</pdfrwt>
<totfact> 0.70088277E+05</totfact>
</mgrwt>
</event>
<event>
 5    1  0.1745726E+000  0.7033526E+02  0.7546771E-02  0.1358957E+00
         21   -1    0    0  501  502  0.00000000000E+00  0.00000000000E+00  0.16820339427E+03  0.16820339427E+03  0.00000000000E+00 0.  1.
         21   -1    0    0  502  503 -0.00000000000E+00 -0.00000000000E+00 -0.30360245711E+02  0.30360245711E+02  0.00000000000E+00 0. -1.
         24    1    1    2    0    0 -0.16300632092E+02 -0.10042446837E+02  0.74713611959E+02  0.11142666248E+03  0.80419002446E+02 0. -1.
          1    1    1    2  501    0 -0.19766976137E+02  0.95020146920E+01  0.35380081178E+02  0.41626575321E+02  0.00000000000E+00 0. -1.
         -2    1    1    2    0  503  0.36067608229E+02  0.54043214520E+00  0.27749455418E+02  0.45510402176E+02  0.00000000000E+00 0.  1.
<mgrwt>
<rscale>  2 0.70335263E+02</rscale>
<asrwt>0</asrwt>
<pdfrwt beam="1">  1       21 0.25877445E-01 0.70335263E+02</pdfrwt>
<pdfrwt beam="2">  1       21 0.46708072E-02 0.70335263E+02</pdfrwt>
<totfact> 0.40842180E+06</totfact>
</mgrwt>
</event>
<event>
 5    1  0.1745726E+000  0.1022640E+03  0.7546771E-02  0.1275606E+00
         21   -1    0    0  501  502  0.00000000000E+00  0.00000000000E+00  0.17388774699E+03  0.17388774699E+03  0.00000000000E+00 0.  1.
         21   -1    0    0  502  503 -0.00000000000E+00 -0.00000000000E+00 -0.74040574328E+02  0.74040574328E+02  0.00000000000E+00 0.  1.
         24    1    1    2    0    0 -0.74262414872E+02  0.92560581848E+01  0.10439187315E+03  0.15154359112E+03  0.80419002446E+02 0.  1.
          1    1    1    2  501    0  0.18809215400E+02  0.23630822959E+02  0.67072680233E+01  0.30938484482E+02  0.00000000000E+00 0. -1.
         -2    1    1    2    0  503  0.55453199472E+02 -0.32886881144E+02 -0.11251968512E+02  0.65446245717E+02  0.00000000000E+00 0.  1.
<mgrwt>
<rscale>  2 0.10226397E+03</rscale>
<asrwt>0</asrwt>
<pdfrwt beam="1">  1       21 0.26751961E-01 0.10226397E+03</pdfrwt>
<pdfrwt beam="2">  1       21 0.11390858E-01 0.10226397E+03</pdfrwt>
<totfact> 0.85747521E+05</totfact>
</mgrwt>
</event>
<event>
 5    1  0.1745726E+000  0.8236621E+02  0.7546771E-02  0.1322467E+00
         21   -1    0    0  503  502  0.00000000000E+00  0.00000000000E+00  0.18842178596E+02  0.18842178596E+02  0.00000000000E+00 0. -1.
         21   -1    0    0  501  503 -0.00000000000E+00 -0.00000000000E+00 -0.16109027029E+04  0.16109027029E+04  0.00000000000E+00 0. -1.
         24    1    1    2    0    0 -0.21205851654E+02 -0.15937644395E+01 -0.21681213793E+03  0.23222176327E+03  0.80419002446E+02 0. -1.
          1    1    1    2  501    0 -0.10840696487E+02 -0.32796709677E+02 -0.13355468617E+04  0.13359934748E+04  0.00000000000E+00 0. -1.
         -2    1    1    2    0  502  0.32046548141E+02  0.34390474117E+02 -0.39701524612E+02  0.61529643379E+02  0.00000000000E+00 0.  1.
<mgrwt>
<rscale>  2 0.82366211E+02</rscale>
<asrwt>0</asrwt>
<pdfrwt beam="1">  1       21 0.28987972E-02 0.82366211E+02</pdfrwt>
<pdfrwt beam="2">  1       21 0.24783114E+00 0.82366211E+02</pdfrwt>
<totfact> 0.51354549E+04</totfact>
</mgrwt>
</event>
<event>
 5    1  0.1745726E+000  0.8493685E+02  0.7546771E-02  0.1315598E+00
         21   -1    0    0  501  502  0.00000000000E+00  0.00000000000E+00  0.44165563218E+03  0.44165563218E+03  0.00000000000E+00 0. -1.
         21   -1    0    0  502  503 -0.00000000000E+00 -0.00000000000E+00 -0.11068597956E+03  0.11068597956E+03  0.00000000000E+00 0.  1.
         24    1    1    2    0    0 -0.21208143670E+02  0.27582645164E+02 -0.55206025187E+02  0.10356403258E+03  0.80419002446E+02 0.  0.
          1    1    1    2  501    0 -0.84226273545E+01 -0.46394373365E+02  0.40582403006E+03  0.40855418478E+03  0.00000000000E+00 0. -1.
         -2    1    1    2    0  503  0.29630771024E+02  0.18811728201E+02 -0.19648352252E+02  0.40223394382E+02  0.00000000000E+00 0.  1.
<mgrwt>
<rscale>  2 0.84936854E+02</rscale>
<asrwt>0</asrwt>
<pdfrwt beam="1">  1       21 0.67947020E-01 0.84936854E+02</pdfrwt>
<pdfrwt beam="2">  1       21 0.17028612E-01 0.84936854E+02</pdfrwt>
<totfact> 0.65096680E+04</totfact>
</mgrwt>
</event>
<event>
 5    1  0.1745726E+000  0.7191165E+02  0.7546771E-02  0.1353710E+00
         21   -1    0    0  503  502  0.00000000000E+00  0.00000000000E+00  0.12856823283E+02  0.12856823283E+02  0.00000000000E+00 0. -1.
         21   -1    0    0  501  503 -0.00000000000E+00 -0.00000000000E+00 -0.47187874775E+03  0.47187874775E+03  0.00000000000E+00 0. -1.
         24    1    1    2    0    0 -0.94263172312E+01  0.47866163975E+02 -0.20459164745E+03  0.22517767045E+03  0.80419002446E+02 0. -1.
          1    1    1    2  501    0  0.87374812465E+01 -0.19262122248E+02 -0.14084384903E+03  0.14242318189E+03  0.00000000000E+00 0. -1.
         -2    1    1    2    0  502  0.68883598473E+00 -0.28604041728E+02 -0.11358642799E+03  0.11713471868E+03  0.00000000000E+00 0.  1.
<mgrwt>
<rscale>  2 0.71911650E+02</rscale>
<asrwt>0</asrwt>
<pdfrwt beam="1">  1       21 0.19779728E-02 0.71911650E+02</pdfrwt>
<pdfrwt beam="2">  1       21 0.72596729E-01 0.71911650E+02</pdfrwt>
<totfact> 0.20981770E+06</totfact>
</mgrwt>
</event>
<event>
 5    1  0.1745726E+000  0.9007079E+02  0.7546771E-02  0.1302680E+00
         21   -1    0    0  503  502  0.00000000000E+00  0.00000000000E+00  0.10282318276E+03  0.10282318276E+03  0.00000000000E+00 0.  1.
         21   -1    0    0  501  503 -0.00000000000E+00 -0.00000000000E+00 -0.98434722247E+02  0.98434722247E+02  0.00000000000E+00 0.  1.
         24    1    1    2    0    0 -0.61389370311E+02  0.27968475470E+02 -0.33597435478E+02  0.11021294857E+03  0.80419002446E+02 0.  1.
          1    1    1    2  501    0  0.30066370525E+02  0.41025253612E+01 -0.27534011653E+01  0.30469633554E+02  0.00000000000E+00 0. -1.
         -2    1    1    2    0  502  0.31322999786E+02 -0.32071000831E+02  0.40739297161E+02  0.60575322889E+02  0.00000000000E+00 0.  1.
<mgrwt>
<rscale>  2 0.90070794E+02</rscale>
<asrwt>0</asrwt>
<pdfrwt beam="1">  1       21 0.15818951E-01 0.90070794E+02</pdfrwt>
<pdfrwt beam="2">  1       21 0.15143804E-01 0.90070794E+02</pdfrwt>
<totfact> 0.13585058E+06</totfact>
</mgrwt>
</event>
<event>
 5    1  0.1745726E+000  0.9704513E+02  0.7546771E-02  0.1286635E+00
         21   -1    0    0  503  502  0.00000000000E+00  0.00000000000E+00  0.52728018656E+02  0.52728018656E+02  0.00000000000E+00 0.  1.
         21   -1    0    0  501  503 -0.00000000000E+00 -0.00000000000E+00 -0.90617079923E+03  0.90617079923E+03  0.00000000000E+00 0. -1.
         24    1    1    2    0    0  0.88764348189E+01 -0.33571398748E+02 -0.72018712170E+03  0.72549468374E+03  0.80419002446E+02 0. -1.
          1    1    1    2  501    0  0.31783119830E+02  0.52713720381E+02 -0.16649366243E+03  0.17750786645E+03  0.00000000000E+00 0. -1.
         -2    1    1    2    0  502 -0.40659554649E+02 -0.19142321633E+02  0.33238003561E+02  0.55896267697E+02  0.00000000000E+00 0.  1.
<mgrwt>
<rscale>  2 0.97045130E+02</rscale>
<asrwt>0</asrwt>
<pdfrwt beam="1">  1       21 0.81120034E-02 0.97045130E+02</pdfrwt>
<pdfrwt beam="2">  1       21 0.13941088E+00 0.97045130E+02</pdfrwt>
<totfact> 0.45132576E+04</totfact>
</mgrwt>
</event>
<event>
 5    1  0.1745726E+000  0.6757507E+02  0.7546771E-02  0.1368539E+00
         21   -1    0    0  501  502  0.00000000000E+00  0.00000000000E+00  0.12727938137E+02  0.12727938137E+02  0.00000000000E+00 0. -1.
         21   -1    0    0  502  503 -0.00000000000E+00 -0.00000000000E+00 -0.18088411523E+04  0.18088411523E+04  0.00000000000E+00 0.  1.
         24    1    1    2    0    0  0.24058633540E+02 -0.32218743115E+02 -0.43630551972E+03  0.44547344224E+03  0.80419002446E+02 0.  0.
          1    1    1    2  501    0 -0.20567092760E+02  0.10223401738E+02 -0.83259286482E+01  0.24430397777E+02  0.00000000000E+00 0. -1.
         -2    1    1    2    0  503 -0.34915407801E+01  0.21995341377E+02 -0.13514817658E+04  0.13516652504E+04  0.00000000000E+00 0.  1.
<mgrwt>
<rscale>  2 0.67575067E+02</rscale>
<asrwt>0</asrwt>
<pdfrwt beam="1">  1       21 0.19581455E-02 0.67575067E+02</pdfrwt>
<pdfrwt beam="2">  1       21 0.27828309E+00 0.67575067E+02</pdfrwt>
<totfact> 0.67384677E+04</totfact>
</mgrwt>
</event>
<event>
 5    1  0.1745726E+000  0.1111657E+03  0.7546771E-02  0.1258426E+00
         21   -1    0    0  501  502  0.00000000000E+00  0.00000000000E+00  0.11197507165E+04  0.11197507165E+04  0.00000000000E+00 0. -1.
         21   -1    0    0  502  503 -0.00000000000E+00 -0.00000000000E+00 -0.31567293893E+02  0.31567293893E+02  0.00000000000E+00 0.  1.
         24    1    1    2    0    0  0.14184410137E+02 -0.89840923774E+02  0.25602697944E+03  0.28335422925E+03  0.80419002446E+02 0.  1.
          1    1    1    2  501    0  0.15872016719E+02  0.28791827347E+02  0.78378967661E+03  0.78447890182E+03  0.00000000000E+00 0. -1.
         -2    1    1    2    0  503 -0.30056426856E+02  0.61049096427E+02  0.48366766559E+02  0.83484879333E+02  0.00000000000E+00 0.  1.
<mgrwt>
<rscale>  2 0.11116570E+03</rscale>
<asrwt>0</asrwt>
<pdfrwt beam="1">  1       21 0.17226931E+00 0.11116570E+03</pdfrwt>
<pdfrwt beam="2">  1       21 0.48565076E-02 0.11116570E+03</pdfrwt>
<totfact> 0.61298408E+04</totfact>
</mgrwt>
</event>
<event>
 5    1  0.1745726E+000  0.1019305E+03  0.7546771E-02  0.1276288E+00
         21   -1    0    0  503  502  0.00000000000E+00  0.00000000000E+00  0.41743045456E+03  0.41743045456E+03  0.00000000000E+00 0.  1.
         21   -1    0    0  501  503 -0.00000000000E+00 -0.00000000000E+00 -0.47540305192E+02  0.47540305192E+02  0.00000000000E+00 0. -1.
         24    1    1    2    0    0  0.43166089745E+02  0.18390348763E+02  0.11650200153E+03  0.14913567161E+03  0.80419002446E+02 0.  1.
          1    1    1    2  501    0  0.29664942765E+02 -0.23354334356E+02 -0.12763309918E+02  0.39853931331E+02  0.00000000000E+00 0. -1.
         -2    1    1    2    0  502 -0.72831032510E+02  0.49639855928E+01  0.26615145776E+03  0.27598115681E+03  0.00000000000E+00 0.  1.
<mgrwt>
<rscale>  2 0.10193047E+03</rscale>
<asrwt>0</asrwt>
<pdfrwt beam="1">  1       21 0.64220068E-01 0.10193047E+03</pdfrwt>
<pdfrwt beam="2">  1       21 0.73138934E-02 0.10193047E+03</pdfrwt>
<totfact> 0.31972705E+05</totfact>
</mgrwt>
</event>
<event>
 5    1  0.1745726E+000  0.9659872E+02  0.7546771E-02  0.1287615E+00
         21   -1    0    0  501  502  0.00000000000E+00  0.00000000000E+00  0.55182186764E+03  0.55182186764E+03  0.00000000000E+00 0. -1.
         21   -1    0    0  502  503 -0.00000000000E+00 -0.00000000000E+00 -0.17253949321E+02  0.17253949321E+02  0.00000000000E+00 0.  1.
         24    1    1    2    0    0  0.75473631449E+02 -0.13439143333E+02  0.32540727718E+03  0.34385170003E+03  0.80419002446E+02 0. -1.
          1    1    1    2  501    0 -0.15651332456E+02  0.15779830792E+02  0.76846679910E+02  0.79996121660E+02  0.00000000000E+00 0. -1.
         -2    1    1    2    0  503 -0.59822298993E+02 -0.23406874587E+01  0.13231396124E+03  0.14522799528E+03  0.00000000000E+00 0.  1.
<mgrwt>
<rscale>  2 0.96598717E+02</rscale>
<asrwt>0</asrwt>
<pdfrwt beam="1">  1       21 0.84895658E-01 0.96598717E+02</pdfrwt>
<pdfrwt beam="2">  1       21 0.26544542E-02 0.96598717E+02</pdfrwt>
<totfact> 0.93444056E+05</totfact>
</mgrwt>
</event>
<event>
 5    1  0.1745726E+000  0.8122744E+02  0.7546771E-02  0.1325604E+00
         21   -1    0    0  503  502  0.00000000000E+00  0.00000000000E+00  0.49396268121E+02  0.49396268121E+02  0.00000000000E+00 0.  1.
         21   -1    0    0  501  503 -0.00000000000E+00 -0.00000000000E+00 -0.30208192767E+03  0.30208192767E+03  0.00000000000E+00 0. -1.
         24    1    1    2    0    0 -0.11453194196E+02  0.58220896927E+01 -0.13134727499E+03  0.15454576988E+03  0.80419002446E+02 0.  0.
          1    1    1    2  501    0 -0.11419760101E+02  0.33573109986E+02 -0.14239721729E+03  0.14674648932E+03  0.00000000000E+00 0. -1.
         -2    1    1    2    0  502  0.22872954297E+02 -0.39395199679E+02  0.21058832731E+02  0.50185936596E+02  0.00000000000E+00 0.  1.
<mgrwt>
<rscale>  2 0.81227438E+02</rscale>
<asrwt>0</asrwt>
<pdfrwt beam="1">  1       21 0.75994259E-02 0.81227438E+02</pdfrwt>
<pdfrwt beam="2">  1       21 0.46474143E-01 0.81227438E+02</pdfrwt>
<totfact> 0.58628344E+05</totfact>
</mgrwt>
</event>
<event>
 5    1  0.1745726E+000  0.1050933E+03  0.7546771E-02  0.1269936E+00
         21   -1    0    0  501  502  0.00000000000E+00  0.00000000000E+00  0.11512990553E+03  0.11512990553E+03  0.00000000000E+00 0. -1.
         21   -1    0    0  502  503 -0.00000000000E+00 -0.00000000000E+00 -0.14267589444E+03  0.14267589444E+03  0.00000000000E+00 0. -1.
         24    1    1    2    0    0  0.70336495013E+02 -0.17814976380E+02 -0.80495923033E+02  0.13494964058E+03  0.80419002446E+02 0. -1.
          1    1    1    2  501    0  0.15501673184E+01  0.29069511115E+02  0.39165988963E+02  0.48799735518E+02  0.00000000000E+00 0. -1.
         -2    1    1    2    0  503 -0.71886662331E+02 -0.11254534735E+02  0.13783945157E+02  0.74056423876E+02  0.00000000000E+00 0.  1.
<mgrwt>
<rscale>  2 0.10509332E+03</rscale>
<asrwt>0</asrwt>
<pdfrwt beam="1">  1       21 0.17712293E-01 0.10509332E+03</pdfrwt>
<pdfrwt beam="2">  1       21 0.21950137E-01 0.10509332E+03</pdfrwt>
<totfact> 0.56492659E+05</totfact>
</mgrwt>
</event>
<event>
 5    1  0.1745726E+000  0.1087687E+03  0.7546771E-02  0.1262867E+00
         21   -1    0    0  503  502  0.00000000000E+00  0.00000000000E+00  0.77773700148E+02  0.77773700148E+02  0.00000000000E+00 0.  1.
         21   -1    0    0  501  503 -0.00000000000E+00 -0.00000000000E+00 -0.60427175058E+03  0.60427175058E+03  0.00000000000E+00 0. -1.
         24    1    1    2    0    0 -0.24226657315E+02  0.66072930140E+02 -0.66737125038E+02  0.12599056645E+03  0.80419002446E+02 0.  0.
          1    1    1    2  501    0 -0.32277495047E+02 -0.24599382947E+02 -0.48108347665E+03  0.48279216836E+03  0.00000000000E+00 0. -1.
         -2    1    1    2    0  502  0.56504152362E+02 -0.41473547193E+02  0.21322551256E+02  0.73262715913E+02  0.00000000000E+00 0.  1.
<mgrwt>
<rscale>  2 0.10876869E+03</rscale>
<asrwt>0</asrwt>
<pdfrwt beam="1">  1       21 0.11965185E-01 0.10876869E+03</pdfrwt>
<pdfrwt beam="2">  1       21 0.92964885E-01 0.10876869E+03</pdfrwt>
<totfact> 0.60043705E+04</totfact>
</mgrwt>
</event>
<event>
 5    1  0.1745726E+000  0.6554791E+02  0.7546771E-02  0.1375922E+00
         21   -1    0    0  501  502  0.00000000000E+00  0.00000000000E+00  0.97394713042E+03  0.97394713042E+03  0.00000000000E+00 0.  1.
         21   -1    0    0  502  503 -0.00000000000E+00 -0.00000000000E+00 -0.51833352353E+01  0.51833352353E+01  0.00000000000E+00 0. -1.
         24    1    1    2    0    0  0.46155155437E+01 -0.49580685949E+01  0.51334959952E+03  0.51965460905E+03  0.80419002446E+02 0. -1.
          1    1    1    2  501    0 -0.26891698253E+02 -0.22321328594E+01  0.36780267447E+03  0.36879120542E+03  0.00000000000E+00 0. -1.
         -2    1    1    2    0  503  0.22276182709E+02  0.71902014542E+01  0.87611521195E+02  0.90684651178E+02  0.00000000000E+00 0.  1.
<mgrwt>
<rscale>  2 0.65547906E+02</rscale>
<asrwt>0</asrwt>
<pdfrwt beam="1">  1       21 0.14983787E+00 0.65547906E+02</pdfrwt>
<pdfrwt beam="2">  1       21 0.79743696E-03 0.65547906E+02</pdfrwt>
<totfact> 0.16163769E+06</totfact>
</mgrwt>
</event>
<event>
 5    1  0.1745726E+000  0.1570130E+03  0.7546771E-02  0.1192111E+00
         21   -1    0    0  503  502  0.00000000000E+00  0.00000000000E+00  0.11162340539E+03  0.11162340539E+03  0.00000000000E+00 0. -1.
         21   -1    0    0  501  503 -0.00000000000E+00 -0.00000000000E+00 -0.45644880501E+03  0.45644880501E+03  0.00000000000E+00 0. -1.
         24    1    1    2    0    0 -0.53144690791E+02 -0.13665372293E+03 -0.17717448554E+02  0.16816575777E+03  0.80419002446E+02 0. -1.
          1    1    1    2  501    0  0.38357192046E+02  0.10683648338E+03 -0.34424036046E+03  0.36247308056E+03  0.00000000000E+00 0. -1.
         -2    1    1    2    0  502  0.14787498745E+02  0.29817239543E+02  0.17132409390E+02  0.37433372070E+02  0.00000000000E+00 0.  1.
<mgrwt>
<rscale>  2 0.15701300E+03</rscale>
<asrwt>0</asrwt>
<pdfrwt beam="1">  1       21 0.17172832E-01 0.15701300E+03</pdfrwt>
<pdfrwt beam="2">  1       21 0.70222893E-01 0.15701300E+03</pdfrwt>
<totfact> 0.57316785E+04</totfact>
</mgrwt>
</event>
<event>
 5    1  0.1745726E+000  0.9103394E+02  0.7546771E-02  0.1300367E+00
         21   -1    0    0  501  502  0.00000000000E+00  0.00000000000E+00  0.14495059185E+02  0.14495059185E+02  0.00000000000E+00 0. -1.
         21   -1    0    0  502  503 -0.00000000000E+00 -0.00000000000E+00 -0.79043077799E+03  0.79043077799E+03  0.00000000000E+00 0. -1.
         24    1    1    2    0    0  0.49816500724E+02 -0.18223240171E+02 -0.61571421706E+03  0.62320541018E+03  0.80419002446E+02 0. -1.
          1    1    1    2  501    0 -0.51851831348E+02 -0.13788322112E+02 -0.98912136447E+02  0.11252706775E+03  0.00000000000E+00 0. -1.
         -2    1    1    2    0  503  0.20353306235E+01  0.32011562283E+02 -0.61309365296E+02  0.69193359244E+02  0.00000000000E+00 0.  1.
<mgrwt>
<rscale>  2 0.91033938E+02</rscale>
<asrwt>0</asrwt>
<pdfrwt beam="1">  1       21 0.22300090E-02 0.91033938E+02</pdfrwt>
<pdfrwt beam="2">  1       21 0.12160474E+00 0.91033938E+02</pdfrwt>
<totfact> 0.53709166E+05</totfact>
</mgrwt>
</event>
<event>
 5    1  0.1745726E+000  0.1002170E+03  0.7546771E-02  0.1279840E+00
         21   -1    0    0  503  502  0.00000000000E+00  0.00000000000E+00  0.13562396137E+04  0.13562396137E+04  0.00000000000E+00 0.  1.
         21   -1    0    0  501  503 -0.00000000000E+00 -0.00000000000E+00 -0.21192471668E+02  0.21192471668E+02  0.00000000000E+00 0. -1.
         24    1    1    2    0    0  0.16488917646E+02 -0.66103983573E+02  0.34778345331E+03  0.36340358749E+03  0.80419002446E+02 0. -1.
          1    1    1    2  501    0 -0.41504002969E+02  0.51229676981E+02  0.69481065604E+02  0.95784552739E+02  0.00000000000E+00 0. -1.
         -2    1    1    2    0  502  0.25015085323E+02  0.14874306592E+02  0.91778262310E+03  0.91824394512E+03  0.00000000000E+00 0.  1.
<mgrwt>
<rscale>  2 0.10021699E+03</rscale>
<asrwt>0</asrwt>
<pdfrwt beam="1">  1       21 0.20865218E+00 0.10021699E+03</pdfrwt>
<pdfrwt beam="2">  1       21 0.32603813E-02 0.10021699E+03</pdfrwt>
<totfact> 0.69951649E+04</totfact>
</mgrwt>
</event>
<event>
 5    1  0.1745726E+000  0.9830377E+02  0.7546771E-02  0.1283904E+00
         21   -1    0    0  503  502  0.00000000000E+00  0.00000000000E+00  0.35831476739E+03  0.35831476739E+03  0.00000000000E+00 0. -1.
         21   -1    0    0  501  503 -0.00000000000E+00 -0.00000000000E+00 -0.36011587006E+02  0.36011587006E+02  0.00000000000E+00 0.  1.
         24    1    1    2    0    0 -0.71236572506E+02  0.40209857745E+02  0.18769877276E+03  0.21997619683E+03  0.80419002446E+02 0. -1.
          1    1    1    2  501    0  0.33481047539E+02 -0.16646530297E+02  0.55041072400E+01  0.37793950730E+02  0.00000000000E+00 0. -1.
         -2    1    1    2    0  502  0.37755524967E+02 -0.23563327448E+02  0.12910030038E+03  0.13655620683E+03  0.00000000000E+00 0.  1.
<mgrwt>
<rscale>  2 0.98303773E+02</rscale>
<asrwt>0</asrwt>
<pdfrwt beam="1">  1       21 0.55125346E-01 0.98303773E+02</pdfrwt>
<pdfrwt beam="2">  1       21 0.55402444E-02 0.98303773E+02</pdfrwt>
<totfact> 0.70537611E+05</totfact>
</mgrwt>
</event>
<event>
 5    1  0.1745726E+000  0.1295794E+03  0.7546771E-02  0.1228081E+00
         21   -1    0    0  501  502  0.00000000000E+00  0.00000000000E+00  0.27395729615E+03  0.27395729615E+03  0.00000000000E+00 0. -1.
         21   -1    0    0  502  503 -0.00000000000E+00 -0.00000000000E+00 -0.10912650324E+03  0.10912650324E+03  0.00000000000E+00 0. -1.
         24    1    1    2    0    0 -0.23384404096E+02 -0.85557467562E+02  0.20363493790E+03  0.23622301856E+03  0.80419002446E+02 0. -1.
          1    1    1    2  501    0  0.12976621455E+02  0.11109835510E+03 -0.20385904183E+02  0.11369618419E+03  0.00000000000E+00 0. -1.
         -2    1    1    2    0  503  0.10407782641E+02 -0.25540887536E+02 -0.18418240806E+02  0.33164596636E+02  0.00000000000E+00 0.  1.
<mgrwt>
<rscale>  2 0.12957945E+03</rscale>
<asrwt>0</asrwt>
<pdfrwt beam="1">  1       21 0.42147276E-01 0.12957945E+03</pdfrwt>
<pdfrwt beam="2">  1       21 0.16788693E-01 0.12957945E+03</pdfrwt>
<totfact> 0.17620373E+05</totfact>
</mgrwt>
</event>
<event>
 5    1  0.1745726E+000  0.9725078E+02  0.7546771E-02  0.1286186E+00
         21   -1    0    0  503  502  0.00000000000E+00  0.00000000000E+00  0.53077189958E+02  0.53077189958E+02  0.00000000000E+00 0.  1.
         21   -1    0    0  501  503 -0.00000000000E+00 -0.00000000000E+00 -0.56275584523E+03  0.56275584523E+03  0.00000000000E+00 0. -1.
         24    1    1    2    0    0 -0.11890306687E+02 -0.42954028683E+02 -0.18432853700E+03  0.20598702260E+03  0.80419002446E+02 0. -1.
          1    1    1    2  501    0 -0.13940917254E+01  0.71268387798E+02 -0.35776827751E+03  0.36480031111E+03  0.00000000000E+00 0. -1.
         -2    1    1    2    0  502  0.13284398412E+02 -0.28314359114E+02  0.32418159239E+02  0.45045701479E+02  0.00000000000E+00 0.  1.
<mgrwt>
<rscale>  2 0.97250781E+02</rscale>
<asrwt>0</asrwt>
<pdfrwt beam="1">  1       21 0.81657214E-02 0.97250781E+02</pdfrwt>
<pdfrwt beam="2">  1       21 0.86577824E-01 0.97250781E+02</pdfrwt>
<totfact> 0.13793441E+05</totfact>
</mgrwt>
</event>
<event>
 5    1  0.1745726E+000  0.6685814E+02  0.7546771E-02  0.1371115E+00
         21   -1    0    0  503  502  0.00000000000E+00  0.00000000000E+00  0.12107715413E+03  0.12107715413E+03  0.00000000000E+00 0. -1.
         21   -1    0    0  501  503 -0.00000000000E+00 -0.00000000000E+00 -0.39151739970E+02  0.39151739970E+02  0.00000000000E+00 0.  1.
         24    1    1    2    0    0  0.69662074513E+01  0.12060111861E+02  0.59937906448E+02  0.10126076697E+03  0.80419002446E+02 0. -1.
          1    1    1    2  501    0  0.21233770137E+02  0.47647506016E+00  0.28664054819E+00  0.21241049539E+02  0.00000000000E+00 0. -1.
         -2    1    1    2    0  502 -0.28199977589E+02 -0.12536586922E+02  0.21700867164E+02  0.37727077588E+02  0.00000000000E+00 0.  1.
<mgrwt>
<rscale>  2 0.66858143E+02</rscale>
<asrwt>0</asrwt>
<pdfrwt beam="1">  1       21 0.18627254E-01 0.66858143E+02</pdfrwt>
<pdfrwt beam="2">  1       21 0.60233446E-02 0.66858143E+02</pdfrwt>
<totfact> 0.48766750E+06</totfact>
</mgrwt>
</event>
<event>
 5    1  0.1745726E+000  0.7451274E+02  0.7546771E-02  0.1345387E+00
         21   -1    0    0  501  502  0.00000000000E+00  0.00000000000E+00  0.19383016873E+03  0.19383016873E+03  0.00000000000E+00 0.  1.
         21   -1    0    0  502  503 -0.00000000000E+00 -0.00000000000E+00 -0.33059116742E+02  0.33059116742E+02  0.00000000000E+00 0.  1.
         24    1    1    2    0    0  0.47324723371E+02 -0.14833447107E+02  0.12907834425E+03  0.15996279413E+03  0.80419002446E+02 0.  1.
          1    1    1    2  501    0 -0.25748708667E+02  0.19705834057E+02  0.30904844138E+02  0.44793138817E+02  0.00000000000E+00 0. -1.
         -2    1    1    2    0  503 -0.21576014704E+02 -0.48723869499E+01  0.78786359757E+00  0.22133352529E+02  0.00000000000E+00 0.  1.
<mgrwt>
<rscale>  2 0.74512738E+02</rscale>
<asrwt>0</asrwt>
<pdfrwt beam="1">  1       21 0.29820025E-01 0.74512738E+02</pdfrwt>
<pdfrwt beam="2">  1       21 0.50860181E-02 0.74512738E+02</pdfrwt>
<totfact> 0.27276287E+06</totfact>
</mgrwt>
</event>
<event>
 5    1  0.1745726E+000  0.8394150E+02  0.7546771E-02  0.1318224E+00
         21   -1    0    0  501  502  0.00000000000E+00  0.00000000000E+00  0.15809617515E+04  0.15809617515E+04  0.00000000000E+00 0. -1.
         21   -1    0    0  502  503 -0.00000000000E+00 -0.00000000000E+00 -0.65219543710E+01  0.65219543710E+01  0.00000000000E+00 0. -1.
         24    1    1    2    0    0 -0.17218538836E+02 -0.61714438070E+02  0.59105966717E+03  0.59993657669E+03  0.80419002446E+02 0. -1.
          1    1    1    2  501    0  0.16889948368E+02  0.40982808439E+02  0.91546353144E+03  0.91653605403E+03  0.00000000000E+00 0. -1.
         -2    1    1    2    0  503  0.32859046762E+00  0.20731629630E+02  0.67916598510E+02  0.71011075136E+02  0.00000000000E+00 0.  1.
<mgrwt>
<rscale>  2 0.83941498E+02</rscale>
<asrwt>0</asrwt>
<pdfrwt beam="1">  1       21 0.24322458E+00 0.83941498E+02</pdfrwt>
<pdfrwt beam="2">  1       21 0.10033789E-02 0.83941498E+02</pdfrwt>
<totfact> 0.29323821E+05</totfact>
</mgrwt>
</event>
<event>
 5    1  0.1745726E+000  0.1051877E+03  0.7546771E-02  0.1269750E+00
         21   -1    0    0  503  502  0.00000000000E+00  0.00000000000E+00  0.16169096916E+03  0.16169096916E+03  0.00000000000E+00 0. -1.
         21   -1    0    0  501  503 -0.00000000000E+00 -0.00000000000E+00 -0.24011114079E+03  0.24011114079E+03  0.00000000000E+00 0. -1.
         24    1    1    2    0    0  0.63933862394E+02 -0.55139042593E+02  0.80402288930E+02  0.14163190600E+03  0.80419002446E+02 0. -1.
          1    1    1    2  501    0 -0.21650347867E+02 -0.30329081960E+01 -0.18299838879E+03  0.18429961041E+03  0.00000000000E+00 0. -1.
         -2    1    1    2    0  502 -0.42283514526E+02  0.58171950789E+02  0.24175928235E+02  0.75870593548E+02  0.00000000000E+00 0.  1.
<mgrwt>
<rscale>  2 0.10518768E+03</rscale>
<asrwt>0</asrwt>
<pdfrwt beam="1">  1       21 0.24875534E-01 0.10518768E+03</pdfrwt>
<pdfrwt beam="2">  1       21 0.36940175E-01 0.10518768E+03</pdfrwt>
<totfact> 0.11174157E+05</totfact>
</mgrwt>
</event>
<event>
 5    1  0.1745726E+000  0.6928912E+02  0.7546771E-02  0.1362527E+00
         21   -1    0    0  503  502  0.00000000000E+00  0.00000000000E+00  0.30065552115E+03  0.30065552115E+03  0.00000000000E+00 0.  1.
         21   -1    0    0  501  503 -0.00000000000E+00 -0.00000000000E+00 -0.23963986690E+02  0.23963986690E+02  0.00000000000E+00 0. -1.
         24    1    1    2    0    0  0.38170810719E+01  0.90870143779E+01  0.21160927888E+03  0.22658959994E+03  0.80419002446E+02 0.  1.
          1    1    1    2  501    0  0.26367582197E+02 -0.13759078152E+01  0.59335288010E+00  0.26410122697E+02  0.00000000000E+00 0. -1.
         -2    1    1    2    0  502 -0.30184663269E+02 -0.77111065628E+01  0.64488902696E+02  0.71619785199E+02  0.00000000000E+00 0.  1.
<mgrwt>
<rscale>  2 0.69289124E+02</rscale>
<asrwt>0</asrwt>
<pdfrwt beam="1">  1       21 0.46254693E-01 0.69289124E+02</pdfrwt>
<pdfrwt beam="2">  1       21 0.36867674E-02 0.69289124E+02</pdfrwt>
<totfact> 0.19606626E+06</totfact>
</mgrwt>
</event>
<event>
 5    1  0.1745726E+000  0.7451056E+02  0.7546771E-02  0.1345393E+00
         21   -1    0    0  503  502  0.00000000000E+00  0.00000000000E+00  0.88725613177E+03  0.88725613177E+03  0.00000000000E+00 0.  1.
         21   -1    0    0  501  503 -0.00000000000E+00 -0.00000000000E+00 -0.30823484930E+02  0.30823484930E+02  0.00000000000E+00 0. -1.
         24    1    1    2    0    0  0.28783503090E+02 -0.10930400933E+02  0.21836539590E+03  0.23473096471E+03  0.80419002446E+02 0. -1.
          1    1    1    2  501    0 -0.75716304667E+01  0.32076511427E+02 -0.10114589840E+02  0.34475166437E+02  0.00000000000E+00 0. -1.
         -2    1    1    2    0  502 -0.21211872623E+02 -0.21146110494E+02  0.64818184079E+03  0.64887348556E+03  0.00000000000E+00 0.  1.
<mgrwt>
<rscale>  2 0.74510564E+02</rscale>
<asrwt>0</asrwt>
<pdfrwt beam="1">  1       21 0.13650092E+00 0.74510564E+02</pdfrwt>
<pdfrwt beam="2">  1       21 0.47420753E-02 0.74510564E+02</pdfrwt>
<totfact> 0.11944095E+05</totfact>
</mgrwt>
</event>
<event>
 5    1  0.1745726E+000  0.8129634E+02  0.7546771E-02  0.1325412E+00
         21   -1    0    0  503  502  0.00000000000E+00  0.00000000000E+00  0.40484570860E+03  0.40484570860E+03  0.00000000000E+00 0.  1.
         21   -1    0    0  501  503 -0.00000000000E+00 -0.00000000000E+00 -0.92307178547E+02  0.92307178547E+02  0.00000000000E+00 0.  1.
         24    1    1    2    0    0 -0.29776973210E+02 -0.39705717892E+02 -0.53288654764E+02  0.10849013249E+03  0.80419002446E+02 0.  1.
          1    1    1    2  501    0  0.41561259928E+02  0.22567589124E+02  0.39347431424E+02  0.61521173309E+02  0.00000000000E+00 0. -1.
         -2    1    1    2    0  502 -0.11784286718E+02  0.17138128768E+02  0.32647975340E+03  0.32714158135E+03  0.00000000000E+00 0.  1.
<mgrwt>
<rscale>  2 0.81296343E+02</rscale>
<asrwt>0</asrwt>
<pdfrwt beam="1">  1       21 0.62283954E-01 0.81296343E+02</pdfrwt>
<pdfrwt beam="2">  1       21 0.14201105E-01 0.81296343E+02</pdfrwt>
<totfact> 0.10857067E+05</totfact>
</mgrwt>
</event>
<event>
 5    1  0.1745726E+000  0.1108808E+03  0.7546771E-02  0.1258947E+00
         21   -1    0    0  501  502  0.00000000000E+00  0.00000000000E+00  0.15773385364E+03  0.15773385364E+03  0.00000000000E+00 0. -1.
         21   -1    0    0  502  503 -0.00000000000E+00 -0.00000000000E+00 -0.18973847616E+03  0.18973847616E+03  0.00000000000E+00 0.  1.
         24    1    1    2    0    0 -0.75438130970E+01 -0.52179889308E+02 -0.14438553538E+03  0.17347636365E+03  0.80419002446E+02 0.  1.
          1    1    1    2  501    0 -0.49872955055E+02  0.29357490706E+01  0.73701752373E+02  0.89038635274E+02  0.00000000000E+00 0. -1.
         -2    1    1    2    0  503  0.57416768152E+02  0.49244140238E+02  0.38679160485E+02  0.84957330870E+02  0.00000000000E+00 0.  1.
<mgrwt>
<rscale>  2 0.11088082E+03</rscale>
<asrwt>0</asrwt>
<pdfrwt beam="1">  1       21 0.24266747E-01 0.11088082E+03</pdfrwt>
<pdfrwt beam="2">  1       21 0.29190535E-01 0.11088082E+03</pdfrwt>
<totfact> 0.18446217E+05</totfact>
</mgrwt>
</event>
<event>
 5    1  0.1745726E+000  0.7863731E+02  0.7546771E-02  0.1332964E+00
         21   -1    0    0  503  502  0.00000000000E+00  0.00000000000E+00  0.75115012401E+03  0.75115012401E+03  0.00000000000E+00 0.  1.
         21   -1    0    0  501  503 -0.00000000000E+00 -0.00000000000E+00 -0.11743084953E+02  0.11743084953E+02  0.00000000000E+00 0.  1.
         24    1    1    2    0    0  0.35107023064E+02  0.45033593017E+02  0.24827588152E+03  0.26714912851E+03  0.80419002446E+02 0.  1.
          1    1    1    2  501    0 -0.23464371551E+02 -0.19233199970E+02  0.12948762902E+03  0.13299450659E+03  0.00000000000E+00 0. -1.
         -2    1    1    2    0  502 -0.11642651513E+02 -0.25800393047E+02  0.36164352851E+03  0.36274957385E+03  0.00000000000E+00 0.  1.
<mgrwt>
<rscale>  2 0.78637314E+02</rscale>
<asrwt>0</asrwt>
<pdfrwt beam="1">  1       21 0.11556152E+00 0.78637314E+02</pdfrwt>
<pdfrwt beam="2">  1       21 0.18066290E-02 0.78637314E+02</pdfrwt>
<totfact> 0.84992312E+05</totfact>
</mgrwt>
</event>
<event>
 5    1  0.1745726E+000  0.7330515E+02  0.7546771E-02  0.1349201E+00
         21   -1    0    0  503  502  0.00000000000E+00  0.00000000000E+00  0.14615056298E+03  0.14615056298E+03  0.00000000000E+00 0. -1.
         21   -1    0    0  501  503 -0.00000000000E+00 -0.00000000000E+00 -0.52857946056E+02  0.52857946056E+02  0.00000000000E+00 0.  1.
         24    1    1    2    0    0  0.48973935909E+00 -0.15385217791E+02  0.10065254780E+03  0.12975012950E+03  0.80419002446E+02 0. -1.
          1    1    1    2  501    0  0.25122641252E+02  0.26761677163E+02 -0.15840286083E+02  0.39978108150E+02  0.00000000000E+00 0. -1.
         -2    1    1    2    0  502 -0.25612380612E+02 -0.11376459372E+02  0.84803552107E+01  0.29280271394E+02  0.00000000000E+00 0.  1.
<mgrwt>
<rscale>  2 0.73305151E+02</rscale>
<asrwt>0</asrwt>
<pdfrwt beam="1">  1       21 0.22484702E-01 0.73305151E+02</pdfrwt>
<pdfrwt beam="2">  1       21 0.81319918E-02 0.73305151E+02</pdfrwt>
<totfact> 0.21012393E+06</totfact>
</mgrwt>
</event>
<event>
 5    1  0.1745726E+000  0.9211648E+02  0.7546771E-02  0.1297806E+00
         21   -1    0    0  503  502  0.00000000000E+00  0.00000000000E+00  0.19378651197E+02  0.19378651197E+02  0.00000000000E+00 0.  1.
         21   -1    0    0  501  503 -0.00000000000E+00 -0.00000000000E+00 -0.99265435740E+03  0.99265435740E+03  0.00000000000E+00 0.  1.
         24    1    1    2    0    0 -0.24784361167E+02  0.21227973548E+02 -0.17144800083E+03  0.19216275488E+03  0.80419002446E+02 0.  0.
          1    1    1    2  501    0  0.44487777600E+02  0.22227481383E+02 -0.74049807632E+03  0.74216617028E+03  0.00000000000E+00 0. -1.
         -2    1    1    2    0  502 -0.19703416433E+02 -0.43455454931E+02 -0.61329629063E+02  0.77704083441E+02  0.00000000000E+00 0.  1.
<mgrwt>
<rscale>  2 0.92116484E+02</rscale>
<asrwt>0</asrwt>
<pdfrwt beam="1">  1       21 0.29813299E-02 0.92116484E+02</pdfrwt>
<pdfrwt beam="2">  1       21 0.15271611E+00 0.92116484E+02</pdfrwt>
<totfact> 0.19054432E+05</totfact>
</mgrwt>
</event>
<event>
 5    1  0.1745726E+000  0.8925906E+02  0.7546771E-02  0.1304656E+00
         21   -1    0    0  503  502  0.00000000000E+00  0.00000000000E+00  0.58287192341E+02  0.58287192341E+02  0.00000000000E+00 0.  1.
         21   -1    0    0  501  503 -0.00000000000E+00 -0.00000000000E+00 -0.91039994207E+03  0.91039994207E+03  0.00000000000E+00 0.  1.
         24    1    1    2    0    0  0.41703433182E+01  0.16097273962E+02 -0.20945640808E+03  0.22497936979E+03  0.80419002446E+02 0.  1.
          1    1    1    2  501    0  0.26807181149E+02 -0.46064881607E+02 -0.68275893946E+03  0.68483601519E+03  0.00000000000E+00 0. -1.
         -2    1    1    2    0  502 -0.30977524467E+02  0.29967607644E+02  0.40102597813E+02  0.58871749434E+02  0.00000000000E+00 0.  1.
<mgrwt>
<rscale>  2 0.89259056E+02</rscale>
<asrwt>0</asrwt>
<pdfrwt beam="1">  1       21 0.89672608E-02 0.89259056E+02</pdfrwt>
<pdfrwt beam="2">  1       21 0.14006152E+00 0.89259056E+02</pdfrwt>
<totfact> 0.37831925E+04</totfact>
</mgrwt>
</event>
<event>
 5    1  0.1745726E+000  0.9057269E+02  0.7546771E-02  0.1301471E+00
         21   -1    0    0  503  502  0.00000000000E+00  0.00000000000E+00  0.34519542547E+02  0.34519542547E+02  0.00000000000E+00 0. -1.
         21   -1    0    0  501  503 -0.00000000000E+00 -0.00000000000E+00 -0.31375975437E+03  0.31375975437E+03  0.00000000000E+00 0. -1.
         24    1    1    2    0    0  0.22146905540E+01  0.51885363064E+02 -0.90014289883E+02  0.13140313578E+03  0.80419002446E+02 0. -1.
          1    1    1    2  501    0 -0.31184463265E+02 -0.46439418113E+02 -0.17580066642E+03  0.18448567591E+03  0.00000000000E+00 0. -1.
         -2    1    1    2    0  502  0.28969772711E+02 -0.54459449510E+01 -0.13425255518E+02  0.32390485224E+02  0.00000000000E+00 0.  1.
<mgrwt>
<rscale>  2 0.90572687E+02</rscale>
<asrwt>0</asrwt>
<pdfrwt beam="1">  1       21 0.53106990E-02 0.90572687E+02</pdfrwt>
<pdfrwt beam="2">  1       21 0.48270730E-01 0.90572687E+02</pdfrwt>
<totfact> 0.99384036E+05</totfact>
</mgrwt>
</event>
<event>
 5    1  0.1745726E+000  0.1266948E+03  0.7546771E-02  0.1232444E+00
         21   -1    0    0  501  502  0.00000000000E+00  0.00000000000E+00  0.23730909477E+03  0.23730909477E+03  0.00000000000E+00 0.  1.
         21   -1    0    0  502  503 -0.00000000000E+00 -0.00000000000E+00 -0.78343117458E+02  0.78343117458E+02  0.00000000000E+00 0.  1.
         24    1    1    2    0    0 -0.10696821223E+03 -0.39181405610E+02  0.13514241126E+03  0.19418565408E+03  0.80419002446E+02 0.  1.
          1    1    1    2  501    0  0.21749668768E+02  0.69018808855E+01  0.19864100730E+02  0.30253372524E+02  0.00000000000E+00 0. -1.
         -2    1    1    2    0  503  0.85218543464E+02  0.32279524725E+02  0.39594653224E+01  0.91213185627E+02  0.00000000000E+00 0.  1.
<mgrwt>
<rscale>  2 0.12669480E+03</rscale>
<asrwt>0</asrwt>
<pdfrwt beam="1">  1       21 0.36509091E-01 0.12669480E+03</pdfrwt>
<pdfrwt beam="2">  1       21 0.12052787E-01 0.12669480E+03</pdfrwt>
<totfact> 0.42553896E+05</totfact>
</mgrwt>
</event>
<event>
 5    1  0.1745726E+000  0.1475225E+03  0.7546771E-02  0.1203551E+00
         21   -1    0    0  503  502  0.00000000000E+00  0.00000000000E+00  0.43025877731E+02  0.43025877731E+02  0.00000000000E+00 0. -1.
         21   -1    0    0  501  503 -0.00000000000E+00 -0.00000000000E+00 -0.97518775408E+03  0.97518775408E+03  0.00000000000E+00 0. -1.
         24    1    1    2    0    0 -0.13246687033E+03  0.31492840133E+02 -0.23294290701E+03  0.28154730437E+03  0.80419002446E+02 0. -1.
          1    1    1    2  501    0  0.28822391834E+02 -0.13045737185E+02 -0.56595090096E+03  0.56683449421E+03  0.00000000000E+00 0. -1.
         -2    1    1    2    0  502  0.10364447850E+03 -0.18447102948E+02 -0.13326806837E+03  0.16983183323E+03  0.00000000000E+00 0.  1.
<mgrwt>
<rscale>  2 0.14752253E+03</rscale>
<asrwt>0</asrwt>
<pdfrwt beam="1">  1       21 0.66193661E-02 0.14752253E+03</pdfrwt>
<pdfrwt beam="2">  1       21 0.15002888E+00 0.14752253E+03</pdfrwt>
<totfact> 0.51096206E+04</totfact>
</mgrwt>
</event>
<event>
 5    1  0.1745726E+000  0.7194583E+02  0.7546771E-02  0.1353598E+00
         21   -1    0    0  503  502  0.00000000000E+00  0.00000000000E+00  0.63458176057E+03  0.63458176057E+03  0.00000000000E+00 0. -1.
         21   -1    0    0  501  503 -0.00000000000E+00 -0.00000000000E+00 -0.42879525736E+02  0.42879525736E+02  0.00000000000E+00 0. -1.
         24    1    1    2    0    0  0.14450957041E+02  0.47315681123E+02  0.47094928534E+03  0.48032077736E+03  0.80419002446E+02 0. -1.
          1    1    1    2  501    0 -0.67871842377E+01 -0.22363195105E+02 -0.33415919292E+02  0.40777469604E+02  0.00000000000E+00 0. -1.
         -2    1    1    2    0  502 -0.76637728028E+01 -0.24952486018E+02  0.15416886879E+03  0.15636303935E+03  0.00000000000E+00 0.  1.
<mgrwt>
<rscale>  2 0.71945828E+02</rscale>
<asrwt>0</asrwt>
<pdfrwt beam="1">  1       21 0.97627956E-01 0.71945828E+02</pdfrwt>
<pdfrwt beam="2">  1       21 0.65968506E-02 0.71945828E+02</pdfrwt>
<totfact> 0.15273645E+05</totfact>
</mgrwt>
</event>
<event>
 5    1  0.1745726E+000  0.7576735E+02  0.7546771E-02  0.1341511E+00
         21   -1    0    0  501  502  0.00000000000E+00  0.00000000000E+00  0.26007660445E+02  0.26007660445E+02  0.00000000000E+00 0. -1.
         21   -1    0    0  502  503 -0.00000000000E+00 -0.00000000000E+00 -0.39378286469E+03  0.39378286469E+03  0.00000000000E+00 0.  1.
         24    1    1    2    0    0  0.71216773170E+01 -0.13952629312E+02 -0.21601614583E+03  0.23103156790E+03  0.80419002446E+02 0.  0.
          1    1    1    2  501    0  0.13360740060E+02  0.36663044486E+02 -0.55842462971E+01  0.39419183308E+02  0.00000000000E+00 0. -1.
         -2    1    1    2    0  503 -0.20482417377E+02 -0.22710415174E+02 -0.14617481212E+03  0.14933977393E+03  0.00000000000E+00 0.  1.
<mgrwt>
<rscale>  2 0.75767354E+02</rscale>
<asrwt>0</asrwt>
<pdfrwt beam="1">  1       21 0.40011791E-02 0.75767354E+02</pdfrwt>
<pdfrwt beam="2">  1       21 0.60581971E-01 0.75767354E+02</pdfrwt>
<totfact> 0.99055293E+05</totfact>
</mgrwt>
</event>
<event>
 5    1  0.1745726E+000  0.8570129E+02  0.7546771E-02  0.1313609E+00
         21   -1    0    0  501  502  0.00000000000E+00  0.00000000000E+00  0.11322452835E+03  0.11322452835E+03  0.00000000000E+00 0.  1.
         21   -1    0    0  502  503 -0.00000000000E+00 -0.00000000000E+00 -0.13918613276E+03  0.13918613276E+03  0.00000000000E+00 0.  1.
         24    1    1    2    0    0  0.28920874561E+02 -0.50483063795E+02  0.38311681057E+02  0.10639528925E+03  0.80419002446E+02 0.  1.
          1    1    1    2  501    0  0.15252018700E+01  0.39873667749E+02  0.27686537949E+02  0.48567272974E+02  0.00000000000E+00 0. -1.
         -2    1    1    2    0  503 -0.30446076431E+02  0.10609396046E+02 -0.91959823413E+02  0.97448098887E+02  0.00000000000E+00 0.  1.
<mgrwt>
<rscale>  2 0.85701285E+02</rscale>
<asrwt>0</asrwt>
<pdfrwt beam="1">  1       21 0.17419158E-01 0.85701285E+02</pdfrwt>
<pdfrwt beam="2">  1       21 0.21413251E-01 0.85701285E+02</pdfrwt>
<totfact> 0.60916215E+05</totfact>
</mgrwt>
</event>
<event>
 5    1  0.1745726E+000  0.6662452E+02  0.7546771E-02  0.1371963E+00
         21   -1    0    0  501  502  0.00000000000E+00  0.00000000000E+00  0.92881897592E+02  0.92881897592E+02  0.00000000000E+00 0.  1.
         21   -1    0    0  502  503 -0.00000000000E+00 -0.00000000000E+00 -0.10237215207E+03  0.10237215207E+03  0.00000000000E+00 0.  1.
         24    1    1    2    0    0 -0.14565371523E+02  0.90012811082E+01  0.64492592911E+02  0.10449728994E+03  0.80419002446E+02 0.  1.
          1    1    1    2  501    0  0.13174612697E+02  0.18929057485E+02 -0.22787113986E+02  0.32421169023E+02  0.00000000000E+00 0. -1.
         -2    1    1    2    0  503  0.13907588259E+01 -0.27930338593E+02 -0.51195733401E+02  0.58335590701E+02  0.00000000000E+00 0.  1.
<mgrwt>
<rscale>  2 0.66624522E+02</rscale>
<asrwt>0</asrwt>
<pdfrwt beam="1">  1       21 0.14289523E-01 0.66624522E+02</pdfrwt>
<pdfrwt beam="2">  1       21 0.15749562E-01 0.66624522E+02</pdfrwt>
<totfact> 0.15014279E+06</totfact>
</mgrwt>
</event>
<event>
 5    1  0.1745726E+000  0.8193753E+02  0.7546771E-02  0.1323641E+00
         21   -1    0    0  501  502  0.00000000000E+00  0.00000000000E+00  0.29958655368E+02  0.29958655368E+02  0.00000000000E+00 0. -1.
         21   -1    0    0  502  503 -0.00000000000E+00 -0.00000000000E+00 -0.31987164659E+03  0.31987164659E+03  0.00000000000E+00 0. -1.
         24    1    1    2    0    0  0.40037329819E+02 -0.38551718854E+02 -0.18248026625E+03  0.20701566687E+03  0.80419002446E+02 0. -1.
          1    1    1    2  501    0 -0.32057639193E+02  0.60149743894E+01 -0.25558137762E+01  0.32717034273E+02  0.00000000000E+00 0. -1.
         -2    1    1    2    0  503 -0.79796906260E+01  0.32536744464E+02 -0.10487691120E+03  0.11009760081E+03  0.00000000000E+00 0.  1.
<mgrwt>
<rscale>  2 0.81937533E+02</rscale>
<asrwt>0</asrwt>
<pdfrwt beam="1">  1       21 0.46090237E-02 0.81937533E+02</pdfrwt>
<pdfrwt beam="2">  1       21 0.49211025E-01 0.81937533E+02</pdfrwt>
<totfact> 0.12067164E+06</totfact>
</mgrwt>
</event>
<event>
 5    1  0.1745726E+000  0.9092391E+02  0.7546771E-02  0.1300630E+00
         21   -1    0    0  503  502  0.00000000000E+00  0.00000000000E+00  0.40730180418E+03  0.40730180418E+03  0.00000000000E+00 0.  1.
         21   -1    0    0  501  503 -0.00000000000E+00 -0.00000000000E+00 -0.27396170546E+02  0.27396170546E+02  0.00000000000E+00 0. -1.
         24    1    1    2    0    0 -0.30843029388E+02 -0.64380365938E+02  0.10659274873E+03  0.15141120836E+03  0.80419002446E+02 0. -1.
          1    1    1    2  501    0  0.17658916714E+02  0.14890694495E+02  0.75779418785E+02  0.79221780045E+02  0.00000000000E+00 0. -1.
         -2    1    1    2    0  502  0.13184112674E+02  0.49489671443E+02  0.19753346612E+03  0.20406498632E+03  0.00000000000E+00 0.  1.
<mgrwt>
<rscale>  2 0.90923906E+02</rscale>
<asrwt>0</asrwt>
<pdfrwt beam="1">  1       21 0.62661812E-01 0.90923906E+02</pdfrwt>
<pdfrwt beam="2">  1       21 0.42147958E-02 0.90923906E+02</pdfrwt>
<totfact> 0.84931740E+05</totfact>
</mgrwt>
</event>
<event>
 5    1  0.1745726E+000  0.7208887E+02  0.7546771E-02  0.1353130E+00
         21   -1    0    0  503  502  0.00000000000E+00  0.00000000000E+00  0.49453489276E+02  0.49453489276E+02  0.00000000000E+00 0. -1.
         21   -1    0    0  501  503 -0.00000000000E+00 -0.00000000000E+00 -0.25963948489E+03  0.25963948489E+03  0.00000000000E+00 0.  1.
         24    1    1    2    0    0 -0.15618394336E+02  0.16809411678E+02 -0.47027588735E+02  0.95944257875E+02  0.80419002446E+02 0. -1.
          1    1    1    2  501    0 -0.28858651089E+01 -0.34694598198E+02 -0.17938044878E+03  0.18272763548E+03  0.00000000000E+00 0. -1.
         -2    1    1    2    0  502  0.18504259445E+02  0.17885186521E+02  0.16222041903E+02  0.30421080815E+02  0.00000000000E+00 0.  1.
<mgrwt>
<rscale>  2 0.72088872E+02</rscale>
<asrwt>0</asrwt>
<pdfrwt beam="1">  1       21 0.76082293E-02 0.72088872E+02</pdfrwt>
<pdfrwt beam="2">  1       21 0.39944535E-01 0.72088872E+02</pdfrwt>
<totfact> 0.78966542E+05</totfact>
</mgrwt>
</event>
<event>
 5    1  0.1745726E+000  0.8424063E+02  0.7546771E-02  0.1317430E+00
         21   -1    0    0  503  502  0.00000000000E+00  0.00000000000E+00  0.34995198158E+03  0.34995198158E+03  0.00000000000E+00 0.  1.
         21   -1    0    0  501  503 -0.00000000000E+00 -0.00000000000E+00 -0.63822724898E+02  0.63822724898E+02  0.00000000000E+00 0. -1.
         24    1    1    2    0    0 -0.14240924334E+02 -0.11856710007E+02  0.17840517891E+03  0.19656807807E+03  0.80419002446E+02 0.  0.
          1    1    1    2  501    0 -0.18546972892E+02 -0.28471590124E+02 -0.44708975735E+02  0.56156158691E+02  0.00000000000E+00 0. -1.
         -2    1    1    2    0  502  0.32787897226E+02  0.40328300131E+02  0.15243305350E+03  0.16105046972E+03  0.00000000000E+00 0.  1.
<mgrwt>
<rscale>  2 0.84240630E+02</rscale>
<asrwt>0</asrwt>
<pdfrwt beam="1">  1       21 0.53838766E-01 0.84240630E+02</pdfrwt>
<pdfrwt beam="2">  1       21 0.98188809E-02 0.84240630E+02</pdfrwt>
<totfact> 0.28013450E+05</totfact>
</mgrwt>
</event>
<event>
 5    1  0.1745726E+000  0.9983261E+02  0.7546771E-02  0.1280648E+00
         21   -1    0    0  501  502  0.00000000000E+00  0.00000000000E+00  0.11378913769E+03  0.11378913769E+03  0.00000000000E+00 0. -1.
         21   -1    0    0  502  503 -0.00000000000E+00 -0.00000000000E+00 -0.32940680307E+03  0.32940680307E+03  0.00000000000E+00 0.  1.
         24    1    1    2    0    0  0.22134770492E+02  0.63278502599E+00 -0.60423284008E+02  0.10299775573E+03  0.80419002446E+02 0. -1.
          1    1    1    2  501    0 -0.67871815582E+02  0.11722557902E+02  0.76947573616E+02  0.10327115183E+03  0.00000000000E+00 0. -1.
         -2    1    1    2    0  503  0.45737045090E+02 -0.12355342928E+02 -0.23214195499E+03  0.23692703320E+03  0.00000000000E+00 0.  1.
<mgrwt>
<rscale>  2 0.99832610E+02</rscale>
<asrwt>0</asrwt>
<pdfrwt beam="1">  1       21 0.17506021E-01 0.99832610E+02</pdfrwt>
<pdfrwt beam="2">  1       21 0.50677970E-01 0.99832610E+02</pdfrwt>
<totfact> 0.11350438E+05</totfact>
</mgrwt>
</event>
<event>
 5    1  0.1745726E+000  0.7054083E+02  0.7546771E-02  0.1358264E+00
         21   -1    0    0  503  502  0.00000000000E+00  0.00000000000E+00  0.69913318141E+02  0.69913318141E+02  0.00000000000E+00 0. -1.
         21   -1    0    0  501  503 -0.00000000000E+00 -0.00000000000E+00 -0.72494337667E+02  0.72494337667E+02  0.00000000000E+00 0.  1.
         24    1    1    2    0    0  0.13142013469E+02  0.15749601727E+02  0.23303689892E+00  0.82994172887E+02  0.80419002446E+02 0.  0.
          1    1    1    2  501    0 -0.41323268220E+01  0.20409249423E+02 -0.68737778890E+01  0.21928575181E+02  0.00000000000E+00 0. -1.
         -2    1    1    2    0  502 -0.90096866470E+01 -0.36158851150E+02  0.40597214645E+01  0.37484907740E+02  0.00000000000E+00 0.  1.
<mgrwt>
<rscale>  2 0.70540828E+02</rscale>
<asrwt>0</asrwt>
<pdfrwt beam="1">  1       21 0.10755895E-01 0.70540828E+02</pdfrwt>
<pdfrwt beam="2">  1       21 0.11152975E-01 0.70540828E+02</pdfrwt>
<totfact> 0.45306494E+06</totfact>
</mgrwt>
</event>
<event>
 5    1  0.1745726E+000  0.1217206E+03  0.7546771E-02  0.1240285E+00
         21   -1    0    0  501  502  0.00000000000E+00  0.00000000000E+00  0.31231798361E+03  0.31231798361E+03  0.00000000000E+00 0.  1.
         21   -1    0    0  502  503 -0.00000000000E+00 -0.00000000000E+00 -0.59880401511E+02  0.59880401511E+02  0.00000000000E+00 0.  1.
         24    1    1    2    0    0  0.20165881190E+02  0.92246447905E+02  0.16550921952E+03  0.20682501690E+03  0.80419002446E+02 0.  1.
          1    1    1    2  501    0  0.27234440141E+02 -0.23882684630E+02  0.72357688062E+02  0.80918059644E+02  0.00000000000E+00 0. -1.
         -2    1    1    2    0  503 -0.47400321331E+02 -0.68363763275E+02  0.14570674521E+02  0.84455308580E+02  0.00000000000E+00 0.  1.
<mgrwt>
<rscale>  2 0.12172058E+03</rscale>
<asrwt>0</asrwt>
<pdfrwt beam="1">  1       21 0.48048920E-01 0.12172058E+03</pdfrwt>
<pdfrwt beam="2">  1       21 0.92123696E-02 0.12172058E+03</pdfrwt>
<totfact> 0.39278888E+05</totfact>
</mgrwt>
</event>
<event>
 5    1  0.1745726E+000  0.1094066E+03  0.7546771E-02  0.1261673E+00
         21   -1    0    0  503  502  0.00000000000E+00  0.00000000000E+00  0.45565851464E+02  0.45565851464E+02  0.00000000000E+00 0.  1.
         21   -1    0    0  501  503 -0.00000000000E+00 -0.00000000000E+00 -0.33922786526E+03  0.33922786526E+03  0.00000000000E+00 0.  1.
         24    1    1    2    0    0  0.86147016237E+01 -0.76980259472E+02 -0.67000057391E+02  0.13021673117E+03  0.80419002446E+02 0.  1.
          1    1    1    2  501    0 -0.23461279021E+02 -0.48771762730E+01 -0.10148837369E+03  0.10427899336E+03  0.00000000000E+00 0. -1.
         -2    1    1    2    0  502  0.14846577397E+02  0.81857435745E+02 -0.12517358272E+03  0.15029799219E+03  0.00000000000E+00 0.  1.
<mgrwt>
<rscale>  2 0.10940662E+03</rscale>
<asrwt>0</asrwt>
<pdfrwt beam="1">  1       21 0.70101308E-02 0.10940662E+03</pdfrwt>
<pdfrwt beam="2">  1       21 0.52188904E-01 0.10940662E+03</pdfrwt>
<totfact> 0.53080803E+05</totfact>
</mgrwt>
</event>
<event>
 5    1  0.1745726E+000  0.1228290E+03  0.7546771E-02  0.1238502E+00
         21   -1    0    0  503  502  0.00000000000E+00  0.00000000000E+00  0.89249836047E+02  0.89249836047E+02  0.00000000000E+00 0.  1.
         21   -1    0    0  501  503 -0.00000000000E+00 -0.00000000000E+00 -0.28504985026E+03  0.28504985026E+03  0.00000000000E+00 0. -1.
         24    1    1    2    0    0  0.26915689826E+01  0.10210331595E+03 -0.74986072004E+02  0.15007484340E+03  0.80419002446E+02 0.  1.
          1    1    1    2  501    0  0.18947052445E+02 -0.10761845658E+02 -0.12822490330E+03  0.13006319212E+03  0.00000000000E+00 0. -1.
         -2    1    1    2    0  502 -0.21638621428E+02 -0.91341470297E+02  0.74109610980E+01  0.94161650781E+02  0.00000000000E+00 0.  1.
<mgrwt>
<rscale>  2 0.12282896E+03</rscale>
<asrwt>0</asrwt>
<pdfrwt beam="1">  1       21 0.13730744E-01 0.12282896E+03</pdfrwt>
<pdfrwt beam="2">  1       21 0.43853824E-01 0.12282896E+03</pdfrwt>
<totfact> 0.23414741E+05</totfact>
</mgrwt>
</event>
<event>
 5    1  0.1745726E+000  0.8164052E+02  0.7546771E-02  0.1324459E+00
         21   -1    0    0  503  502  0.00000000000E+00  0.00000000000E+00  0.14136942337E+04  0.14136942337E+04  0.00000000000E+00 0.  1.
         21   -1    0    0  501  503 -0.00000000000E+00 -0.00000000000E+00 -0.79222432702E+01  0.79222432702E+01  0.00000000000E+00 0.  1.
         24    1    1    2    0    0  0.34749696537E+02  0.11403367218E+02  0.10190617460E+04  0.10228839799E+04  0.80419002446E+02 0.  1.
          1    1    1    2  501    0 -0.20382750964E+02  0.27059769209E+02  0.55757243253E+02  0.65242300861E+02  0.00000000000E+00 0. -1.
         -2    1    1    2    0  502 -0.14366945573E+02 -0.38463136427E+02  0.33095300123E+03  0.33349019628E+03  0.00000000000E+00 0.  1.
<mgrwt>
<rscale>  2 0.81640524E+02</rscale>
<asrwt>0</asrwt>
<pdfrwt beam="1">  1       21 0.21749122E+00 0.81640524E+02</pdfrwt>
<pdfrwt beam="2">  1       21 0.12188078E-02 0.81640524E+02</pdfrwt>
<totfact> 0.30434435E+05</totfact>
</mgrwt>
</event>
<event>
 5    1  0.1745726E+000  0.8699035E+02  0.7546771E-02  0.1310308E+00
         21   -1    0    0  501  502  0.00000000000E+00  0.00000000000E+00  0.14267075588E+03  0.14267075588E+03  0.00000000000E+00 0.  1.
         21   -1    0    0  502  503 -0.00000000000E+00 -0.00000000000E+00 -0.86175807764E+02  0.86175807764E+02  0.00000000000E+00 0.  1.
         24    1    1    2    0    0  0.20887042691E+02  0.55367840298E+02 -0.32641012863E+02  0.10504531387E+03  0.80419002446E+02 0.  1.
          1    1    1    2  501    0 -0.24757176885E+02 -0.71590002982E+01  0.64638978868E+02  0.69587115774E+02  0.00000000000E+00 0. -1.
         -2    1    1    2    0  503  0.38701341934E+01 -0.48208839999E+02  0.24496982115E+02  0.54214134001E+02  0.00000000000E+00 0.  1.
<mgrwt>
<rscale>  2 0.86990352E+02</rscale>
<asrwt>0</asrwt>
<pdfrwt beam="1">  1       21 0.21949347E-01 0.86990352E+02</pdfrwt>
<pdfrwt beam="2">  1       21 0.13257817E-01 0.86990352E+02</pdfrwt>
<totfact> 0.94770637E+05</totfact>
</mgrwt>
</event>
<event>
 5    1  0.1745726E+000  0.1172135E+03  0.7546771E-02  0.1247766E+00
         21   -1    0    0  503  502  0.00000000000E+00  0.00000000000E+00  0.74086379678E+02  0.74086379678E+02  0.00000000000E+00 0.  1.
         21   -1    0    0  501  503 -0.00000000000E+00 -0.00000000000E+00 -0.42811092668E+03  0.42811092668E+03  0.00000000000E+00 0. -1.
         24    1    1    2    0    0 -0.20296826881E+01  0.84747881105E+02 -0.10826526692E+03  0.15929503112E+03  0.80419002446E+02 0.  1.
          1    1    1    2  501    0 -0.21183133252E+02  0.74872989109E+01 -0.24676494440E+03  0.24778563833E+03  0.00000000000E+00 0. -1.
         -2    1    1    2    0  502  0.23212815941E+02 -0.92235180016E+02  0.10056643127E+01  0.95116636910E+02  0.00000000000E+00 0.  1.
<mgrwt>
<rscale>  2 0.11721355E+03</rscale>
<asrwt>0</asrwt>
<pdfrwt beam="1">  1       21 0.11397905E-01 0.11721355E+03</pdfrwt>
<pdfrwt beam="2">  1       21 0.65863219E-01 0.11721355E+03</pdfrwt>
<totfact> 0.13985965E+05</totfact>
</mgrwt>
</event>
<event>
 5    1  0.1745726E+000  0.8110023E+02  0.7546771E-02  0.1325958E+00
         21   -1    0    0  503  502  0.00000000000E+00  0.00000000000E+00  0.26558620578E+02  0.26558620578E+02  0.00000000000E+00 0. -1.
         21   -1    0    0  501  503 -0.00000000000E+00 -0.00000000000E+00 -0.45957692723E+03  0.45957692723E+03  0.00000000000E+00 0.  1.
         24    1    1    2    0    0  0.53567765964E+01 -0.26484539937E+02 -0.23173026185E+03  0.24677166799E+03  0.80419002446E+02 0.  1.
          1    1    1    2  501    0 -0.39020251565E+02  0.14670780270E+02 -0.19932075662E+03  0.20363343499E+03  0.00000000000E+00 0. -1.
         -2    1    1    2    0  502  0.33663474968E+02  0.11813759667E+02 -0.19672881750E+01  0.35730444822E+02  0.00000000000E+00 0.  1.
<mgrwt>
<rscale>  2 0.81100232E+02</rscale>
<asrwt>0</asrwt>
<pdfrwt beam="1">  1       21 0.40859417E-02 0.81100232E+02</pdfrwt>
<pdfrwt beam="2">  1       21 0.70704141E-01 0.81100232E+02</pdfrwt>
<totfact> 0.69000521E+05</totfact>
</mgrwt>
</event>
<event>
 5    1  0.1745726E+000  0.8011076E+02  0.7546771E-02  0.1328737E+00
         21   -1    0    0  503  502  0.00000000000E+00  0.00000000000E+00  0.10143856430E+03  0.10143856430E+03  0.00000000000E+00 0. -1.
         21   -1    0    0  501  503 -0.00000000000E+00 -0.00000000000E+00 -0.10862787491E+03  0.10862787491E+03  0.00000000000E+00 0.  1.
         24    1    1    2    0    0 -0.38074095640E+01 -0.25489861436E+02 -0.69516506544E+02  0.10938002578E+03  0.80419002446E+02 0.  1.
          1    1    1    2  501    0 -0.49830947152E+01  0.49735052690E+02  0.26593238718E+02  0.56618080544E+02  0.00000000000E+00 0. -1.
         -2    1    1    2    0  502  0.87905042793E+01 -0.24245191254E+02  0.35733957214E+02  0.44068332878E+02  0.00000000000E+00 0.  1.
<mgrwt>
<rscale>  2 0.80110763E+02</rscale>
<asrwt>0</asrwt>
<pdfrwt beam="1">  1       21 0.15605933E-01 0.80110763E+02</pdfrwt>
<pdfrwt beam="2">  1       21 0.16711981E-01 0.80110763E+02</pdfrwt>
<totfact> 0.11627474E+06</totfact>
</mgrwt>
</event>
<event>
 5    1  0.1745726E+000  0.7960867E+02  0.7546771E-02  0.1330166E+00
         21   -1    0    0  503  502  0.00000000000E+00  0.00000000000E+00  0.13160761618E+03  0.13160761618E+03  0.00000000000E+00 0. -1.
         21   -1    0    0  501  503 -0.00000000000E+00 -0.00000000000E+00 -0.14650970858E+03  0.14650970858E+03  0.00000000000E+00 0. -1.
         24    1    1    2    0    0 -0.35497611847E+02  0.46439629412E+02  0.85412226676E+02  0.13106938638E+03  0.80419002446E+02 0. -1.
          1    1    1    2  501    0  0.11010118875E+02 -0.24745430325E+02 -0.10971534391E+03  0.11300891880E+03  0.00000000000E+00 0. -1.
         -2    1    1    2    0  502  0.24487492971E+02 -0.21694199087E+02  0.94010248335E+01  0.34039019580E+02  0.00000000000E+00 0.  1.
<mgrwt>
<rscale>  2 0.79608673E+02</rscale>
<asrwt>0</asrwt>
<pdfrwt beam="1">  1       21 0.20247326E-01 0.79608673E+02</pdfrwt>
<pdfrwt beam="2">  1       21 0.22539955E-01 0.79608673E+02</pdfrwt>
<totfact> 0.42170768E+05</totfact>
</mgrwt>
</event>
<event>
 5    1  0.1745726E+000  0.2315757E+03  0.7546771E-02  0.1125536E+00
         21   -1    0    0  503  502  0.00000000000E+00  0.00000000000E+00  0.42952738052E+04  0.42952738052E+04  0.00000000000E+00 0.  1.
         21   -1    0    0  501  503 -0.00000000000E+00 -0.00000000000E+00 -0.22441091196E+02  0.22441091196E+02  0.00000000000E+00 0. -1.
         24    1    1    2    0    0 -0.13437226924E+03  0.21174348857E+02  0.12718010280E+04  0.12815807936E+04  0.80419002446E+02 0. -1.
          1    1    1    2  501    0  0.21859566411E+03 -0.13368572960E+01  0.69694604321E+03  0.73042428677E+03  0.00000000000E+00 0. -1.
         -2    1    1    2    0  502 -0.84223394877E+02 -0.19837491561E+02  0.23040856428E+04  0.23057098160E+04  0.00000000000E+00 0.  1.
<mgrwt>
<rscale>  2 0.23157574E+03</rscale>
<asrwt>0</asrwt>
<pdfrwt beam="1">  1       21 0.66081070E+00 0.23157574E+03</pdfrwt>
<pdfrwt beam="2">  1       21 0.34524790E-02 0.23157574E+03</pdfrwt>
<totfact> 0.51489343E+01</totfact>
</mgrwt>
</event>
<event>
 5    1  0.1745726E+000  0.7616116E+02  0.7546771E-02  0.1340313E+00
         21   -1    0    0  503  502  0.00000000000E+00  0.00000000000E+00  0.77022436799E+02  0.77022436799E+02  0.00000000000E+00 0. -1.
         21   -1    0    0  501  503 -0.00000000000E+00 -0.00000000000E+00 -0.79437670663E+02  0.79437670663E+02  0.00000000000E+00 0.  1.
         24    1    1    2    0    0  0.19713749920E+02  0.26919702500E+02  0.13951425281E+02  0.88176870779E+02  0.80419002446E+02 0.  0.
          1    1    1    2  501    0 -0.37581874821E+02 -0.65297968525E+01 -0.15454323380E+02  0.41156672280E+02  0.00000000000E+00 0. -1.
         -2    1    1    2    0  502  0.17868124901E+02 -0.20389905648E+02 -0.91233576365E+00  0.27126564404E+02  0.00000000000E+00 0.  1.
<mgrwt>
<rscale>  2 0.76161159E+02</rscale>
<asrwt>0</asrwt>
<pdfrwt beam="1">  1       21 0.11849606E-01 0.76161159E+02</pdfrwt>
<pdfrwt beam="2">  1       21 0.12221180E-01 0.76161159E+02</pdfrwt>
<totfact> 0.32830996E+06</totfact>
</mgrwt>
</event>
<event>
 5    1  0.1745726E+000  0.8695671E+02  0.7546771E-02  0.1310393E+00
         21   -1    0    0  501  502  0.00000000000E+00  0.00000000000E+00  0.44260430792E+02  0.44260430792E+02  0.00000000000E+00 0.  1.
         21   -1    0    0  502  503 -0.00000000000E+00 -0.00000000000E+00 -0.18143937723E+03  0.18143937723E+03  0.00000000000E+00 0. -1.
         24    1    1    2    0    0 -0.23721950625E+02 -0.30694865884E+02 -0.71595892192E+02  0.11444690239E+03  0.80419002446E+02 0.  0.
          1    1    1    2  501    0 -0.96918735640E+01 -0.20968236298E+02 -0.26674256400E+01  0.23253268720E+02  0.00000000000E+00 0. -1.
         -2    1    1    2    0  503  0.33413824189E+02  0.51663102182E+02 -0.62915628605E+02  0.87999636913E+02  0.00000000000E+00 0.  1.
<mgrwt>
<rscale>  2 0.86956705E+02</rscale>
<asrwt>0</asrwt>
<pdfrwt beam="1">  1       21 0.68092971E-02 0.86956705E+02</pdfrwt>
<pdfrwt beam="2">  1       21 0.27913750E-01 0.86956705E+02</pdfrwt>
<totfact> 0.19105494E+06</totfact>
</mgrwt>
</event>
<event>
 5    1  0.1745726E+000  0.8918787E+02  0.7546771E-02  0.1304830E+00
         21   -1    0    0  501  502  0.00000000000E+00  0.00000000000E+00  0.13689447257E+02  0.13689447257E+02  0.00000000000E+00 0.  1.
         21   -1    0    0  502  503 -0.00000000000E+00 -0.00000000000E+00 -0.68245273369E+03  0.68245273369E+03  0.00000000000E+00 0. -1.
         24    1    1    2    0    0  0.52830515658E+01  0.27290287409E+02 -0.45504134915E+03  0.46292819725E+03  0.80419002446E+02 0. -1.
          1    1    1    2  501    0 -0.20845814951E+02  0.28532727670E+02 -0.77345257202E+02  0.85035012559E+02  0.00000000000E+00 0. -1.
         -2    1    1    2    0  503  0.15562763385E+02 -0.55823015079E+02 -0.13637668008E+03  0.14817897114E+03  0.00000000000E+00 0.  1.
<mgrwt>
<rscale>  2 0.89187874E+02</rscale>
<asrwt>0</asrwt>
<pdfrwt beam="1">  1       21 0.21060692E-02 0.89187874E+02</pdfrwt>
<pdfrwt beam="2">  1       21 0.10499271E+00 0.89187874E+02</pdfrwt>
<totfact> 0.83426033E+05</totfact>
</mgrwt>
</event>
<event>
 5    1  0.1745726E+000  0.1535052E+03  0.7546771E-02  0.1196231E+00
         21   -1    0    0  501  502  0.00000000000E+00  0.00000000000E+00  0.19782290171E+03  0.19782290171E+03  0.00000000000E+00 0.  1.
         21   -1    0    0  502  503 -0.00000000000E+00 -0.00000000000E+00 -0.12402817738E+03  0.12402817738E+03  0.00000000000E+00 0.  1.
         24    1    1    2    0    0 -0.96063412567E+02 -0.10083730978E+03  0.63511266786E+02  0.17290818153E+03  0.80419002446E+02 0.  1.
          1    1    1    2  501    0  0.78390876375E+02  0.51531543490E+02  0.19350610348E+02  0.95786614901E+02  0.00000000000E+00 0. -1.
         -2    1    1    2    0  503  0.17672536192E+02  0.49305766294E+02 -0.90671528019E+01  0.53156282651E+02  0.00000000000E+00 0.  1.
<mgrwt>
<rscale>  2 0.15350522E+03</rscale>
<asrwt>0</asrwt>
<pdfrwt beam="1">  1       21 0.30434292E-01 0.15350522E+03</pdfrwt>
<pdfrwt beam="2">  1       21 0.19081258E-01 0.15350522E+03</pdfrwt>
<totfact> 0.26360316E+05</totfact>
</mgrwt>
</event>
<event>
 5    1  0.1745726E+000  0.1662204E+03  0.7546771E-02  0.1181848E+00
         21   -1    0    0  503  502  0.00000000000E+00  0.00000000000E+00  0.29360618100E+03  0.29360618100E+03  0.00000000000E+00 0. -1.
         21   -1    0    0  501  503 -0.00000000000E+00 -0.00000000000E+00 -0.26328540028E+03  0.26328540028E+03  0.00000000000E+00 0. -1.
         24    1    1    2    0    0 -0.53941448957E+02 -0.72507405991E+02 -0.18583334066E+03  0.22173914921E+03  0.80419002446E+02 0. -1.
          1    1    1    2  501    0  0.11095673803E+03  0.98904931413E+02  0.48883436680E+02  0.15647099908E+03  0.00000000000E+00 0. -1.
         -2    1    1    2    0  502 -0.57015289075E+02 -0.26397525421E+02  0.16727068469E+03  0.17868143299E+03  0.00000000000E+00 0.  1.
<mgrwt>
<rscale>  2 0.16622040E+03</rscale>
<asrwt>0</asrwt>
<pdfrwt beam="1">  1       21 0.45170182E-01 0.16622040E+03</pdfrwt>
<pdfrwt beam="2">  1       21 0.40505446E-01 0.16622040E+03</pdfrwt>
<totfact> 0.28030580E+04</totfact>
</mgrwt>
</event>
<event>
 5    1  0.1745726E+000  0.6342692E+02  0.7546771E-02  0.1383988E+00
         21   -1    0    0  501  502  0.00000000000E+00  0.00000000000E+00  0.42803685332E+03  0.42803685332E+03  0.00000000000E+00 0. -1.
         21   -1    0    0  502  503 -0.00000000000E+00 -0.00000000000E+00 -0.13624815876E+02  0.13624815876E+02  0.00000000000E+00 0. -1.
         24    1    1    2    0    0 -0.10214294963E+02 -0.49145327797E+01  0.16231891849E+03  0.18150242894E+03  0.80419002446E+02 0. -1.
          1    1    1    2  501    0  0.56040386868E+01 -0.19759534839E+02  0.21106331092E+03  0.21206028785E+03  0.00000000000E+00 0. -1.
         -2    1    1    2    0  503  0.46102562758E+01  0.24674067619E+02  0.41029808023E+02  0.48098952403E+02  0.00000000000E+00 0.  1.
<mgrwt>
<rscale>  2 0.63426924E+02</rscale>
<asrwt>0</asrwt>
<pdfrwt beam="1">  1       21 0.65851813E-01 0.63426924E+02</pdfrwt>
<pdfrwt beam="2">  1       21 0.20961258E-02 0.63426924E+02</pdfrwt>
<totfact> 0.23422410E+06</totfact>
</mgrwt>
</event>
<event>
 5    1  0.1745726E+000  0.7416224E+02  0.7546771E-02  0.1346485E+00
         21   -1    0    0  503  502  0.00000000000E+00  0.00000000000E+00  0.62912659675E+01  0.62912659675E+01  0.00000000000E+00 0. -1.
         21   -1    0    0  501  503 -0.00000000000E+00 -0.00000000000E+00 -0.10734215357E+04  0.10734215357E+04  0.00000000000E+00 0.  1.
         24    1    1    2    0    0 -0.51728203485E+01 -0.10385101931E+02 -0.77382497554E+03  0.77807899158E+03  0.80419002446E+02 0.  1.
          1    1    1    2  501    0  0.28179785322E+02  0.26738161221E+02 -0.21297231847E+03  0.21648611503E+03  0.00000000000E+00 0. -1.
         -2    1    1    2    0  502 -0.23006964974E+02 -0.16353059289E+02 -0.80332975727E+02  0.85147695063E+02  0.00000000000E+00 0.  1.
<mgrwt>
<rscale>  2 0.74162239E+02</rscale>
<asrwt>0</asrwt>
<pdfrwt beam="1">  1       21 0.96788765E-03 0.74162239E+02</pdfrwt>
<pdfrwt beam="2">  1       21 0.16514168E+00 0.74162239E+02</pdfrwt>
<totfact> 0.93457501E+05</totfact>
</mgrwt>
</event>
<event>
 5    1  0.1745726E+000  0.6592483E+02  0.7546771E-02  0.1374526E+00
         21   -1    0    0  503  502  0.00000000000E+00  0.00000000000E+00  0.31532814614E+03  0.31532814614E+03  0.00000000000E+00 0.  1.
         21   -1    0    0  501  503 -0.00000000000E+00 -0.00000000000E+00 -0.38689928613E+02  0.38689928613E+02  0.00000000000E+00 0. -1.
         24    1    1    2    0    0  0.56584798876E+01  0.91583039277E+01  0.51170320156E+02  0.95924504402E+02  0.80419002446E+02 0.  0.
          1    1    1    2  501    0 -0.12122367108E+02  0.18605910600E+02 -0.74612537700E+01  0.23426523459E+02  0.00000000000E+00 0. -1.
         -2    1    1    2    0  502  0.64638872200E+01 -0.27764214527E+02  0.23292915114E+03  0.23466704689E+03  0.00000000000E+00 0.  1.
<mgrwt>
<rscale>  2 0.65924827E+02</rscale>
<asrwt>0</asrwt>
<pdfrwt beam="1">  1       21 0.48512021E-01 0.65924827E+02</pdfrwt>
<pdfrwt beam="2">  1       21 0.59522969E-02 0.65924827E+02</pdfrwt>
<totfact> 0.80856908E+05</totfact>
</mgrwt>
</event>
<event>
 5    1  0.1745726E+000  0.8482912E+02  0.7546771E-02  0.1315880E+00
         21   -1    0    0  503  502  0.00000000000E+00  0.00000000000E+00  0.19750093753E+03  0.19750093753E+03  0.00000000000E+00 0. -1.
         21   -1    0    0  501  503 -0.00000000000E+00 -0.00000000000E+00 -0.12588410490E+03  0.12588410490E+03  0.00000000000E+00 0. -1.
         24    1    1    2    0    0  0.49019722094E+02 -0.39549311868E+02 -0.66852426204E+02  0.12208007236E+03  0.80419002446E+02 0.  0.
          1    1    1    2  501    0 -0.89236932188E+01  0.22000996230E+02 -0.23572383811E+02  0.33456440551E+02  0.00000000000E+00 0. -1.
         -2    1    1    2    0  502 -0.40096028875E+02  0.17548315638E+02  0.16204164264E+03  0.16784852952E+03  0.00000000000E+00 0.  1.
<mgrwt>
<rscale>  2 0.84829119E+02</rscale>
<asrwt>0</asrwt>
<pdfrwt beam="1">  1       21 0.30384760E-01 0.84829119E+02</pdfrwt>
<pdfrwt beam="2">  1       21 0.19366785E-01 0.84829119E+02</pdfrwt>
<totfact> 0.26101867E+05</totfact>
</mgrwt>
</event>
<event>
 5    1  0.1745726E+000  0.6791237E+02  0.7546771E-02  0.1367340E+00
         21   -1    0    0  501  502  0.00000000000E+00  0.00000000000E+00  0.54626187872E+02  0.54626187872E+02  0.00000000000E+00 0.  1.
         21   -1    0    0  502  503 -0.00000000000E+00 -0.00000000000E+00 -0.92994194923E+02  0.92994194923E+02  0.00000000000E+00 0. -1.
         24    1    1    2    0    0 -0.29476729003E+01  0.12921522263E+02 -0.13885180477E+02  0.82678102932E+02  0.80419002446E+02 0.  1.
          1    1    1    2  501    0 -0.54769860399E+01 -0.32525483947E+02 -0.70037900589E+00  0.32990832254E+02  0.00000000000E+00 0. -1.
         -2    1    1    2    0  503  0.84246589402E+01  0.19603961684E+02 -0.23782447569E+02  0.31951447609E+02  0.00000000000E+00 0.  1.
<mgrwt>
<rscale>  2 0.67912367E+02</rscale>
<asrwt>0</asrwt>
<pdfrwt beam="1">  1       21 0.84040290E-02 0.67912367E+02</pdfrwt>
<pdfrwt beam="2">  1       21 0.14306799E-01 0.67912367E+02</pdfrwt>
<totfact> 0.44620065E+06</totfact>
</mgrwt>
</event>
<event>
 5    1  0.1745726E+000  0.9323562E+02  0.7546771E-02  0.1295200E+00
         21   -1    0    0  503  502  0.00000000000E+00  0.00000000000E+00  0.65177761914E+03  0.65177761914E+03  0.00000000000E+00 0. -1.
         21   -1    0    0  501  503 -0.00000000000E+00 -0.00000000000E+00 -0.19008531289E+02  0.19008531289E+02  0.00000000000E+00 0. -1.
         24    1    1    2    0    0 -0.65357656578E+02 -0.49291668045E+00  0.40929298112E+03  0.42220827395E+03  0.80419002446E+02 0. -1.
          1    1    1    2  501    0  0.58566938506E+02 -0.19499263519E+02  0.68658418959E+02  0.92327060268E+02  0.00000000000E+00 0. -1.
         -2    1    1    2    0  502  0.67907180719E+01  0.19992180199E+02  0.15481768776E+03  0.15625081621E+03  0.00000000000E+00 0.  1.
<mgrwt>
<rscale>  2 0.93235617E+02</rscale>
<asrwt>0</asrwt>
<pdfrwt beam="1">  1       21 0.10027346E+00 0.93235617E+02</pdfrwt>
<pdfrwt beam="2">  1       21 0.29243899E-02 0.93235617E+02</pdfrwt>
<totfact> 0.54674939E+05</totfact>
</mgrwt>
</event>
<event>
 5    1  0.1745726E+000  0.8280548E+02  0.7546771E-02  0.1321273E+00
         21   -1    0    0  501  502  0.00000000000E+00  0.00000000000E+00  0.93771969929E+02  0.93771969929E+02  0.00000000000E+00 0. -1.
         21   -1    0    0  502  503 -0.00000000000E+00 -0.00000000000E+00 -0.35412584969E+03  0.35412584969E+03  0.00000000000E+00 0.  1.
         24    1    1    2    0    0 -0.52138171843E+01 -0.44494325565E+02 -0.13170581918E+03  0.16068779561E+03  0.80419002446E+02 0. -1.
          1    1    1    2  501    0 -0.13563554819E+02  0.51695294128E+02  0.69707280938E+02  0.87837796364E+02  0.00000000000E+00 0. -1.
         -2    1    1    2    0  503  0.18777372003E+02 -0.72009685633E+01 -0.19835534152E+03  0.19937222765E+03  0.00000000000E+00 0.  1.
<mgrwt>
<rscale>  2 0.82805477E+02</rscale>
<asrwt>0</asrwt>
<pdfrwt beam="1">  1       21 0.14426457E-01 0.82805477E+02</pdfrwt>
<pdfrwt beam="2">  1       21 0.54480899E-01 0.82805477E+02</pdfrwt>
<totfact> 0.13946715E+05</totfact>
</mgrwt>
</event>
<event>
 5    1  0.1745726E+000  0.9177772E+02  0.7546771E-02  0.1298603E+00
         21   -1    0    0  503  502  0.00000000000E+00  0.00000000000E+00  0.56123217549E+02  0.56123217549E+02  0.00000000000E+00 0.  1.
         21   -1    0    0  501  503 -0.00000000000E+00 -0.00000000000E+00 -0.41990067283E+03  0.41990067283E+03  0.00000000000E+00 0. -1.
         24    1    1    2    0    0  0.31351071255E+02 -0.31266165586E+02 -0.59904792936E+01  0.91997633534E+02  0.80419002446E+02 0.  1.
          1    1    1    2  501    0  0.17413740039E+02 -0.16139963635E+02 -0.27873781639E+03  0.27974721993E+03  0.00000000000E+00 0. -1.
         -2    1    1    2    0  502 -0.48764811293E+02  0.47406129220E+02 -0.79049159590E+02  0.10427903692E+03  0.00000000000E+00 0.  1.
<mgrwt>
<rscale>  2 0.91777721E+02</rscale>
<asrwt>0</asrwt>
<pdfrwt beam="1">  1       21 0.86343412E-02 0.91777721E+02</pdfrwt>
<pdfrwt beam="2">  1       21 0.64600103E-01 0.91777721E+02</pdfrwt>
<totfact> 0.23826173E+05</totfact>
</mgrwt>
</event>
<event>
 5    1  0.1745726E+000  0.1001711E+03  0.7546771E-02  0.1279937E+00
         21   -1    0    0  503  502  0.00000000000E+00  0.00000000000E+00  0.31987175628E+02  0.31987175628E+02  0.00000000000E+00 0.  1.
         21   -1    0    0  501  503 -0.00000000000E+00 -0.00000000000E+00 -0.88068469518E+03  0.88068469518E+03  0.00000000000E+00 0. -1.
         24    1    1    2    0    0  0.37783381629E+02  0.71192076324E+02 -0.76555595089E+03  0.77397611433E+03  0.80419002446E+02 0. -1.
          1    1    1    2  501    0 -0.36075469703E+02 -0.35031590640E+02 -0.88805801493E+02  0.10205450620E+03  0.00000000000E+00 0. -1.
         -2    1    1    2    0  502 -0.17079119262E+01 -0.36160485684E+02  0.56642328333E+01  0.36641250274E+02  0.00000000000E+00 0.  1.
<mgrwt>
<rscale>  2 0.10017108E+03</rscale>
<asrwt>0</asrwt>
<pdfrwt beam="1">  1       21 0.49211047E-02 0.10017108E+03</pdfrwt>
<pdfrwt beam="2">  1       21 0.13548993E+00 0.10017108E+03</pdfrwt>
<totfact> 0.11250276E+05</totfact>
</mgrwt>
</event>
<event>
 5    1  0.1745726E+000  0.1242912E+03  0.7546771E-02  0.1236181E+00
         21   -1    0    0  501  502  0.00000000000E+00  0.00000000000E+00  0.39274377513E+02  0.39274377513E+02  0.00000000000E+00 0. -1.
         21   -1    0    0  502  503 -0.00000000000E+00 -0.00000000000E+00 -0.59918013019E+03  0.59918013019E+03  0.00000000000E+00 0.  1.
         24    1    1    2    0    0  0.71770518401E+01  0.59512045148E+02 -0.22139772620E+03  0.24305835248E+03  0.80419002446E+02 0. -1.
          1    1    1    2  501    0 -0.10063169869E+02 -0.10360546862E+03 -0.75222044336E+02  0.12842786485E+03  0.00000000000E+00 0. -1.
         -2    1    1    2    0  503  0.28861180290E+01  0.44093423473E+02 -0.26328598214E+03  0.26696829037E+03  0.00000000000E+00 0.  1.
<mgrwt>
<rscale>  2 0.12429120E+03</rscale>
<asrwt>0</asrwt>
<pdfrwt beam="1">  1       21 0.60422117E-02 0.12429120E+03</pdfrwt>
<pdfrwt beam="2">  1       21 0.92181561E-01 0.12429120E+03</pdfrwt>
<totfact> 0.19781524E+05</totfact>
</mgrwt>
</event>
<event>
 5    1  0.1745726E+000  0.6592163E+02  0.7546771E-02  0.1374538E+00
         21   -1    0    0  501  502  0.00000000000E+00  0.00000000000E+00  0.62869397919E+02  0.62869397919E+02  0.00000000000E+00 0. -1.
         21   -1    0    0  502  503 -0.00000000000E+00 -0.00000000000E+00 -0.11968153002E+03  0.11968153002E+03  0.00000000000E+00 0. -1.
         24    1    1    2    0    0  0.23770572129E+02  0.69851676257E+00 -0.79660275264E+02  0.11566548074E+03  0.80419002446E+02 0. -1.
          1    1    1    2  501    0 -0.55407607342E+01  0.19793660081E+02  0.31947135378E+02  0.37988267502E+02  0.00000000000E+00 0. -1.
         -2    1    1    2    0  503 -0.18229811394E+02 -0.20492176844E+02 -0.90989922184E+01  0.28897179701E+02  0.00000000000E+00 0.  1.
<mgrwt>
<rscale>  2 0.65921634E+02</rscale>
<asrwt>0</asrwt>
<pdfrwt beam="1">  1       21 0.96722152E-02 0.65921634E+02</pdfrwt>
<pdfrwt beam="2">  1       21 0.18412543E-01 0.65921634E+02</pdfrwt>
<totfact> 0.22356259E+06</totfact>
</mgrwt>
</event>
<event>
 5    1  0.1745726E+000  0.7263588E+02  0.7546771E-02  0.1351352E+00
         21   -1    0    0  501  502  0.00000000000E+00  0.00000000000E+00  0.18336120161E+03  0.18336120161E+03  0.00000000000E+00 0. -1.
         21   -1    0    0  502  503 -0.00000000000E+00 -0.00000000000E+00 -0.12942608477E+03  0.12942608477E+03  0.00000000000E+00 0. -1.
         24    1    1    2    0    0  0.11252925723E+02 -0.23210377318E+02 -0.95720767516E+02  0.12765199270E+03  0.80419002446E+02 0. -1.
          1    1    1    2  501    0  0.16801581724E+02  0.27708376496E+02  0.15312073902E+03  0.15651200591E+03  0.00000000000E+00 0. -1.
         -2    1    1    2    0  503 -0.28054507447E+02 -0.44979991781E+01 -0.34648546672E+01  0.28623287767E+02  0.00000000000E+00 0.  1.
<mgrwt>
<rscale>  2 0.72635878E+02</rscale>
<asrwt>0</asrwt>
<pdfrwt beam="1">  1       21 0.28209416E-01 0.72635878E+02</pdfrwt>
<pdfrwt beam="2">  1       21 0.19911705E-01 0.72635878E+02</pdfrwt>
<totfact> 0.28635069E+05</totfact>
</mgrwt>
</event>
<event>
 5    1  0.1745726E+000  0.6652495E+02  0.7546771E-02  0.1372325E+00
         21   -1    0    0  503  502  0.00000000000E+00  0.00000000000E+00  0.73482245080E+02  0.73482245080E+02  0.00000000000E+00 0.  1.
         21   -1    0    0  501  503 -0.00000000000E+00 -0.00000000000E+00 -0.16737070765E+03  0.16737070765E+03  0.00000000000E+00 0.  1.
         24    1    1    2    0    0 -0.28896808987E+01 -0.41987135293E+01 -0.10753981640E+03  0.13438008602E+03  0.80419002446E+02 0.  1.
          1    1    1    2  501    0  0.26789624436E+02 -0.42409310773E+01 -0.39309750021E+02  0.47759040197E+02  0.00000000000E+00 0. -1.
         -2    1    1    2    0  502 -0.23899943537E+02  0.84396446065E+01  0.52961103858E+02  0.58713826515E+02  0.00000000000E+00 0.  1.
<mgrwt>
<rscale>  2 0.66524947E+02</rscale>
<asrwt>0</asrwt>
<pdfrwt beam="1">  1       21 0.11304961E-01 0.66524947E+02</pdfrwt>
<pdfrwt beam="2">  1       21 0.25749339E-01 0.66524947E+02</pdfrwt>
<totfact> 0.92576995E+05</totfact>
</mgrwt>
</event>
<event>
 5    1  0.1745726E+000  0.6659652E+02  0.7546771E-02  0.1372065E+00
         21   -1    0    0  503  502  0.00000000000E+00  0.00000000000E+00  0.54760884128E+02  0.54760884128E+02  0.00000000000E+00 0.  1.
         21   -1    0    0  501  503 -0.00000000000E+00 -0.00000000000E+00 -0.11953588013E+03  0.11953588013E+03  0.00000000000E+00 0.  1.
         24    1    1    2    0    0  0.10211931066E+02 -0.46579356861E+01 -0.72517408852E+02  0.10886675545E+03  0.80419002446E+02 0.  1.
          1    1    1    2  501    0 -0.65528682356E+01  0.27801597876E+02 -0.15439472769E+02  0.32469158381E+02  0.00000000000E+00 0. -1.
         -2    1    1    2    0  502 -0.36590628304E+01 -0.23143662190E+02  0.23181885617E+02  0.32960850431E+02  0.00000000000E+00 0.  1.
<mgrwt>
<rscale>  2 0.66596523E+02</rscale>
<asrwt>0</asrwt>
<pdfrwt beam="1">  1       21 0.84247515E-02 0.66596523E+02</pdfrwt>
<pdfrwt beam="2">  1       21 0.18390135E-01 0.66596523E+02</pdfrwt>
<totfact> 0.28372921E+06</totfact>
</mgrwt>
</event>
<event>
 5    1  0.1745726E+000  0.8796373E+02  0.7546771E-02  0.1307859E+00
         21   -1    0    0  501  502  0.00000000000E+00  0.00000000000E+00  0.42693432124E+02  0.42693432124E+02  0.00000000000E+00 0. -1.
         21   -1    0    0  502  503 -0.00000000000E+00 -0.00000000000E+00 -0.18174790928E+03  0.18174790928E+03  0.00000000000E+00 0.  1.
         24    1    1    2    0    0 -0.46970679179E+02 -0.40546991004E+02 -0.76582199310E+02  0.12720987535E+03  0.80419002446E+02 0. -1.
          1    1    1    2  501    0  0.31763873719E+02  0.77617807000E+00 -0.29805608794E+02  0.43565128735E+02  0.00000000000E+00 0. -1.
         -2    1    1    2    0  503  0.15206805460E+02  0.39770812934E+02 -0.32666669048E+02  0.53666337311E+02  0.00000000000E+00 0.  1.
<mgrwt>
<rscale>  2 0.87963733E+02</rscale>
<asrwt>0</asrwt>
<pdfrwt beam="1">  1       21 0.65682203E-02 0.87963733E+02</pdfrwt>
<pdfrwt beam="2">  1       21 0.27961217E-01 0.87963733E+02</pdfrwt>
<totfact> 0.20249081E+06</totfact>
</mgrwt>
</event>
<event>
 5    1  0.1745726E+000  0.7259583E+02  0.7546771E-02  0.1351482E+00
         21   -1    0    0  503  502  0.00000000000E+00  0.00000000000E+00  0.12777548214E+03  0.12777548214E+03  0.00000000000E+00 0. -1.
         21   -1    0    0  501  503 -0.00000000000E+00 -0.00000000000E+00 -0.53437114138E+02  0.53437114138E+02  0.00000000000E+00 0. -1.
         24    1    1    2    0    0 -0.39180358533E+02 -0.20224103409E+02  0.85944959688E+02  0.12568956561E+03  0.80419002446E+02 0. -1.
          1    1    1    2  501    0  0.12297632521E+02  0.23374057032E+02 -0.10534740536E+02  0.28435173042E+02  0.00000000000E+00 0. -1.
         -2    1    1    2    0  502  0.26882726012E+02 -0.31499536225E+01 -0.10718511536E+01  0.27087857622E+02  0.00000000000E+00 0.  1.
<mgrwt>
<rscale>  2 0.72595829E+02</rscale>
<asrwt>0</asrwt>
<pdfrwt beam="1">  1       21 0.19657766E-01 0.72595829E+02</pdfrwt>
<pdfrwt beam="2">  1       21 0.82210945E-02 0.72595829E+02</pdfrwt>
<totfact> 0.26354874E+06</totfact>
</mgrwt>
</event>
<event>
 5    1  0.1745726E+000  0.8393443E+02  0.7546771E-02  0.1318243E+00
         21   -1    0    0  503  502  0.00000000000E+00  0.00000000000E+00  0.10247113248E+04  0.10247113248E+04  0.00000000000E+00 0.  1.
         21   -1    0    0  501  503 -0.00000000000E+00 -0.00000000000E+00 -0.39482234938E+03  0.39482234938E+03  0.00000000000E+00 0. -1.
         24    1    1    2    0    0 -0.47719495873E+02 -0.13604619610E+01  0.40958257055E+03  0.42012390933E+03  0.80419002446E+02 0.  1.
          1    1    1    2  501    0  0.30636615343E+02  0.28784943040E+02 -0.38798758550E+03  0.39025830119E+03  0.00000000000E+00 0. -1.
         -2    1    1    2    0  502  0.17082880530E+02 -0.27424481079E+02  0.60829399034E+03  0.60915146364E+03  0.00000000000E+00 0.  1.
<mgrwt>
<rscale>  2 0.83934427E+02</rscale>
<asrwt>0</asrwt>
<pdfrwt beam="1">  1       21 0.15764790E+00 0.83934427E+02</pdfrwt>
<pdfrwt beam="2">  1       21 0.60741900E-01 0.83934427E+02</pdfrwt>
<totfact> 0.78431871E+02</totfact>
</mgrwt>
</event>
<event>
 5    1  0.1745726E+000  0.9723069E+02  0.7546771E-02  0.1286230E+00
         21   -1    0    0  503  502  0.00000000000E+00  0.00000000000E+00  0.59057047425E+02  0.59057047425E+02  0.00000000000E+00 0.  1.
         21   -1    0    0  501  503 -0.00000000000E+00 -0.00000000000E+00 -0.19238929131E+03  0.19238929131E+03  0.00000000000E+00 0. -1.
         24    1    1    2    0    0  0.17994549273E+02 -0.71949885903E+02 -0.30141676735E+02  0.11347390236E+03  0.80419002446E+02 0.  1.
          1    1    1    2  501    0  0.90115396137E+01  0.48400710502E+02 -0.83900096543E+02  0.97278275186E+02  0.00000000000E+00 0. -1.
         -2    1    1    2    0  502 -0.27006088886E+02  0.23549175401E+02 -0.19290470606E+02  0.40694161193E+02  0.00000000000E+00 0.  1.
<mgrwt>
<rscale>  2 0.97230694E+02</rscale>
<asrwt>0</asrwt>
<pdfrwt beam="1">  1       21 0.90856996E-02 0.97230694E+02</pdfrwt>
<pdfrwt beam="2">  1       21 0.29598352E-01 0.97230694E+02</pdfrwt>
<totfact> 0.10477363E+06</totfact>
</mgrwt>
</event>
<event>
 5    1  0.1745726E+000  0.7233485E+02  0.7546771E-02  0.1352329E+00
         21   -1    0    0  503  502  0.00000000000E+00  0.00000000000E+00  0.42489197794E+03  0.42489197794E+03  0.00000000000E+00 0. -1.
         21   -1    0    0  501  503 -0.00000000000E+00 -0.00000000000E+00 -0.13595937704E+02  0.13595937704E+02  0.00000000000E+00 0. -1.
         24    1    1    2    0    0  0.17346212335E+02  0.41492755096E+02  0.29819999452E+03  0.31211054531E+03  0.80419002446E+02 0.  0.
          1    1    1    2  501    0  0.70115882794E+00 -0.32242117661E+02  0.45257526979E+02  0.55572380938E+02  0.00000000000E+00 0. -1.
         -2    1    1    2    0  502 -0.18047371163E+02 -0.92506374352E+01  0.67838518742E+02  0.70804989400E+02  0.00000000000E+00 0.  1.
<mgrwt>
<rscale>  2 0.72334849E+02</rscale>
<asrwt>0</asrwt>
<pdfrwt beam="1">  1       21 0.65367987E-01 0.72334849E+02</pdfrwt>
<pdfrwt beam="2">  1       21 0.20916830E-02 0.72334849E+02</pdfrwt>
<totfact> 0.24021721E+06</totfact>
</mgrwt>
</event>
<event>
 5    1  0.1745726E+000  0.8527468E+02  0.7546771E-02  0.1314716E+00
         21   -1    0    0  503  502  0.00000000000E+00  0.00000000000E+00  0.53300807779E+03  0.53300807779E+03  0.00000000000E+00 0. -1.
         21   -1    0    0  501  503 -0.00000000000E+00 -0.00000000000E+00 -0.25960677507E+02  0.25960677507E+02  0.00000000000E+00 0.  1.
         24    1    1    2    0    0  0.45619092878E+02 -0.46249148036E+02  0.20495515419E+03  0.22955155524E+03  0.80419002446E+02 0.  0.
          1    1    1    2  501    0 -0.15157122932E+02  0.27499786662E+02  0.70078823973E+01  0.32172768885E+02  0.00000000000E+00 0. -1.
         -2    1    1    2    0  502 -0.30461969946E+02  0.18749361374E+02  0.29508436370E+03  0.29724443118E+03  0.00000000000E+00 0.  1.
<mgrwt>
<rscale>  2 0.85274676E+02</rscale>
<asrwt>0</asrwt>
<pdfrwt beam="1">  1       21 0.82001235E-01 0.85274676E+02</pdfrwt>
<pdfrwt beam="2">  1       21 0.39939508E-02 0.85274676E+02</pdfrwt>
<totfact> 0.51825117E+05</totfact>
</mgrwt>
</event>
<event>
 5    1  0.1745726E+000  0.1038577E+03  0.7546771E-02  0.1272387E+00
         21   -1    0    0  503  502  0.00000000000E+00  0.00000000000E+00  0.34796066798E+02  0.34796066798E+02  0.00000000000E+00 0. -1.
         21   -1    0    0  501  503 -0.00000000000E+00 -0.00000000000E+00 -0.35277794266E+03  0.35277794266E+03  0.00000000000E+00 0. -1.
         24    1    1    2    0    0 -0.25530069044E+02 -0.48288598633E+02 -0.13540789194E+03  0.16669159048E+03  0.80419002446E+02 0. -1.
          1    1    1    2  501    0  0.12625270665E+02  0.77522999977E+02 -0.16861365477E+03  0.18601015445E+03  0.00000000000E+00 0. -1.
         -2    1    1    2    0  502  0.12904798379E+02 -0.29234401343E+02 -0.13960329158E+02  0.34872264528E+02  0.00000000000E+00 0.  1.
<mgrwt>
<rscale>  2 0.10385774E+03</rscale>
<asrwt>0</asrwt>
<pdfrwt beam="1">  1       21 0.53532408E-02 0.10385774E+03</pdfrwt>
<pdfrwt beam="2">  1       21 0.54273532E-01 0.10385774E+03</pdfrwt>
<totfact> 0.77191037E+05</totfact>
</mgrwt>
</event>
<event>
 5    1  0.1745726E+000  0.7923615E+02  0.7546771E-02  0.1331233E+00
         21   -1    0    0  503  502  0.00000000000E+00  0.00000000000E+00  0.12869736886E+04  0.12869736886E+04  0.00000000000E+00 0. -1.
         21   -1    0    0  501  503 -0.00000000000E+00 -0.00000000000E+00 -0.68520869996E+01  0.68520869996E+01  0.00000000000E+00 0.  1.
         24    1    1    2    0    0 -0.83987311568E+01 -0.43128825562E+01  0.40991417469E+03  0.41783487912E+03  0.80419002446E+02 0.  1.
          1    1    1    2  501    0  0.70806581634E+01  0.40588467976E+02  0.17297757430E+03  0.17781676148E+03  0.00000000000E+00 0. -1.
         -2    1    1    2    0  502  0.13180729934E+01 -0.36275585420E+02  0.69722985258E+03  0.69817413497E+03  0.00000000000E+00 0.  1.
<mgrwt>
<rscale>  2 0.79236150E+02</rscale>
<asrwt>0</asrwt>
<pdfrwt beam="1">  1       21 0.19799576E+00 0.79236150E+02</pdfrwt>
<pdfrwt beam="2">  1       21 0.10541683E-02 0.79236150E+02</pdfrwt>
<totfact> 0.50068157E+05</totfact>
</mgrwt>
</event>
<event>
 5    1  0.1745726E+000  0.8593327E+02  0.7546771E-02  0.1313010E+00
         21   -1    0    0  503  502  0.00000000000E+00  0.00000000000E+00  0.12126904828E+03  0.12126904828E+03  0.00000000000E+00 0.  1.
         21   -1    0    0  501  503 -0.00000000000E+00 -0.00000000000E+00 -0.10851150782E+03  0.10851150782E+03  0.00000000000E+00 0. -1.
         24    1    1    2    0    0  0.51148854894E+02  0.93949803265E-01 -0.54264553139E+02  0.10967256660E+03  0.80419002446E+02 0. -1.
          1    1    1    2  501    0 -0.19712790639E+02  0.28105023884E+02 -0.68603875452E+01  0.35007876251E+02  0.00000000000E+00 0. -1.
         -2    1    1    2    0  502 -0.31436064255E+02 -0.28198973687E+02  0.73882481151E+02  0.85100113242E+02  0.00000000000E+00 0.  1.
<mgrwt>
<rscale>  2 0.85933270E+02</rscale>
<asrwt>0</asrwt>
<pdfrwt beam="1">  1       21 0.18656777E-01 0.85933270E+02</pdfrwt>
<pdfrwt beam="2">  1       21 0.16694078E-01 0.85933270E+02</pdfrwt>
<totfact> 0.84608914E+05</totfact>
</mgrwt>
</event>
<event>
 5    1  0.1745726E+000  0.1066329E+03  0.7546771E-02  0.1266935E+00
         21   -1    0    0  501  502  0.00000000000E+00  0.00000000000E+00  0.21673638380E+03  0.21673638380E+03  0.00000000000E+00 0. -1.
         21   -1    0    0  502  503 -0.00000000000E+00 -0.00000000000E+00 -0.14835560567E+03  0.14835560567E+03  0.00000000000E+00 0.  1.
         24    1    1    2    0    0  0.51486744875E+02  0.23958042776E+02  0.21301964991E+02  0.10072667163E+03  0.80419002446E+02 0.  1.
          1    1    1    2  501    0 -0.81855021274E+02 -0.15710421026E+02  0.14183963347E+03  0.16451608876E+03  0.00000000000E+00 0. -1.
         -2    1    1    2    0  503  0.30368276399E+02 -0.82476217500E+01 -0.94760820336E+02  0.99849229074E+02  0.00000000000E+00 0.  1.
<mgrwt>
<rscale>  2 0.10663288E+03</rscale>
<asrwt>0</asrwt>
<pdfrwt beam="1">  1       21 0.33344059E-01 0.10663288E+03</pdfrwt>
<pdfrwt beam="2">  1       21 0.22823939E-01 0.10663288E+03</pdfrwt>
<totfact> 0.16026060E+05</totfact>
</mgrwt>
</event>
<event>
 5    1  0.1745726E+000  0.7422396E+02  0.7546771E-02  0.1346291E+00
         21   -1    0    0  501  502  0.00000000000E+00  0.00000000000E+00  0.17476964722E+03  0.17476964722E+03  0.00000000000E+00 0.  1.
         21   -1    0    0  502  503 -0.00000000000E+00 -0.00000000000E+00 -0.35531354940E+02  0.35531354940E+02  0.00000000000E+00 0. -1.
         24    1    1    2    0    0  0.40721962364E+01 -0.59355469404E+01  0.49930123346E+02  0.94931800106E+02  0.80419002446E+02 0.  0.
          1    1    1    2  501    0  0.23177982297E+02  0.25273895481E+02  0.66777572732E+02  0.75068188177E+02  0.00000000000E+00 0. -1.
         -2    1    1    2    0  503 -0.27250178533E+02 -0.19338348541E+02  0.22530596205E+02  0.40301013879E+02  0.00000000000E+00 0.  1.
<mgrwt>
<rscale>  2 0.74223962E+02</rscale>
<asrwt>0</asrwt>
<pdfrwt beam="1">  1       21 0.26887637E-01 0.74223962E+02</pdfrwt>
<pdfrwt beam="2">  1       21 0.54663624E-02 0.74223962E+02</pdfrwt>
<totfact> 0.29410095E+06</totfact>
</mgrwt>
</event>
<event>
 5    1  0.1745726E+000  0.8697496E+02  0.7546771E-02  0.1310347E+00
         21   -1    0    0  501  502  0.00000000000E+00  0.00000000000E+00  0.93247931883E+02  0.93247931883E+02  0.00000000000E+00 0. -1.
         21   -1    0    0  502  503 -0.00000000000E+00 -0.00000000000E+00 -0.25067563099E+03  0.25067563099E+03  0.00000000000E+00 0. -1.
         24    1    1    2    0    0 -0.75965462278E+01 -0.35515339906E+02 -0.16133829125E+03  0.18389210712E+03  0.80419002446E+02 0. -1.
          1    1    1    2  501    0  0.23785137141E+02  0.55269400828E+02  0.68143980920E+02  0.90906773963E+02  0.00000000000E+00 0. -1.
         -2    1    1    2    0  503 -0.16188590913E+02 -0.19754060923E+02 -0.64233388776E+02  0.69124681788E+02  0.00000000000E+00 0.  1.
<mgrwt>
<rscale>  2 0.86974963E+02</rscale>
<asrwt>0</asrwt>
<pdfrwt beam="1">  1       21 0.14345836E-01 0.86974963E+02</pdfrwt>
<pdfrwt beam="2">  1       21 0.38565482E-01 0.86974963E+02</pdfrwt>
<totfact> 0.28206743E+05</totfact>
</mgrwt>
</event>
<event>
 5    1  0.1745726E+000  0.1104986E+03  0.7546771E-02  0.1259649E+00
         21   -1    0    0  503  502  0.00000000000E+00  0.00000000000E+00  0.79017236328E+02  0.79017236328E+02  0.00000000000E+00 0.  1.
         21   -1    0    0  501  503 -0.00000000000E+00 -0.00000000000E+00 -0.21906968696E+03  0.21906968696E+03  0.00000000000E+00 0. -1.
         24    1    1    2    0    0 -0.34876266959E+02  0.34145265623E+02 -0.88907761265E+02  0.12943747189E+03  0.80419002446E+02 0. -1.
          1    1    1    2  501    0  0.68456395288E+02  0.12360530442E+02 -0.78679040227E+02  0.10502119853E+03  0.00000000000E+00 0. -1.
         -2    1    1    2    0  502 -0.33580128329E+02 -0.46505796065E+02  0.27534350862E+02  0.63628252872E+02  0.00000000000E+00 0.  1.
<mgrwt>
<rscale>  2 0.11049855E+03</rscale>
<asrwt>0</asrwt>
<pdfrwt beam="1">  1       21 0.12156498E-01 0.11049855E+03</pdfrwt>
<pdfrwt beam="2">  1       21 0.33703029E-01 0.11049855E+03</pdfrwt>
<totfact> 0.49101755E+05</totfact>
</mgrwt>
</event>
<event>
 5    1  0.1745726E+000  0.7163822E+02  0.7546771E-02  0.1354609E+00
         21   -1    0    0  503  502  0.00000000000E+00  0.00000000000E+00  0.38575960026E+02  0.38575960026E+02  0.00000000000E+00 0.  1.
         21   -1    0    0  501  503 -0.00000000000E+00 -0.00000000000E+00 -0.35526759196E+03  0.35526759196E+03  0.00000000000E+00 0. -1.
         24    1    1    2    0    0 -0.35713150743E+02 -0.16387775663E+02 -0.14160016234E+03  0.16751659696E+03  0.80419002446E+02 0. -1.
          1    1    1    2  501    0  0.25447199540E+02 -0.85160220707E+01 -0.19243024236E+03  0.19429225607E+03  0.00000000000E+00 0. -1.
         -2    1    1    2    0  502  0.10265951203E+02  0.24903797734E+02  0.17338772769E+02  0.32034698950E+02  0.00000000000E+00 0.  1.
<mgrwt>
<rscale>  2 0.71638222E+02</rscale>
<asrwt>0</asrwt>
<pdfrwt beam="1">  1       21 0.59347633E-02 0.71638222E+02</pdfrwt>
<pdfrwt beam="2">  1       21 0.54656550E-01 0.71638222E+02</pdfrwt>
<totfact> 0.63844381E+05</totfact>
</mgrwt>
</event>
<event>
 5    1  0.2774699E+000  0.2055865E+03  0.7546771E-02  0.1145109E+00
         21   -1    0    0  503  502  0.00000000000E+00  0.00000000000E+00  0.14466712699E+04  0.14466712699E+04  0.00000000000E+00 0.  1.
         21   -1    0    0  501  503 -0.00000000000E+00 -0.00000000000E+00 -0.33450294443E+03  0.33450294443E+03  0.00000000000E+00 0. -1.
         24    1    1    2    0    0  0.23434805131E+02 -0.54309222268E+02  0.14762025439E+03  0.17820672595E+03  0.80419002446E+02 0.  0.
          1    1    1    2  501    0 -0.10144691868E+03  0.15421320304E+03 -0.28905829826E+03  0.34296922470E+03  0.00000000000E+00 0. -1.
         -2    1    1    2    0  502  0.78012113548E+02 -0.99903980768E+02  0.12536063693E+04  0.12599982637E+04  0.00000000000E+00 0.  1.
<mgrwt>
<rscale>  2 0.20558653E+03</rscale>
<asrwt>0</asrwt>
<pdfrwt beam="1">  1       21 0.22256481E+00 0.20558653E+03</pdfrwt>
<pdfrwt beam="2">  1       21 0.51461992E-01 0.20558653E+03</pdfrwt>
<totfact> 0.34238560E+02</totfact>
</mgrwt>
</event>
<event>
 5    1  0.1745726E+000  0.7011133E+02  0.7546771E-02  0.1359715E+00
         21   -1    0    0  501  502  0.00000000000E+00  0.00000000000E+00  0.45609605095E+03  0.45609605095E+03  0.00000000000E+00 0.  1.
         21   -1    0    0  502  503 -0.00000000000E+00 -0.00000000000E+00 -0.11540996581E+02  0.11540996581E+02  0.00000000000E+00 0.  1.
         24    1    1    2    0    0 -0.50920895177E+01  0.58824784782E+01  0.19587327067E+03  0.21188224807E+03  0.80419002446E+02 0.  0.
          1    1    1    2  501    0 -0.26909582362E+02 -0.10855705676E+00  0.12554526500E+03  0.12839684953E+03  0.00000000000E+00 0. -1.
         -2    1    1    2    0  503  0.32001671879E+02 -0.57739214215E+01  0.12313651870E+03  0.12735794992E+03  0.00000000000E+00 0.  1.
<mgrwt>
<rscale>  2 0.70111334E+02</rscale>
<asrwt>0</asrwt>
<pdfrwt beam="1">  1       21 0.70168609E-01 0.70111334E+02</pdfrwt>
<pdfrwt beam="2">  1       21 0.17755383E-02 0.70111334E+02</pdfrwt>
<totfact> 0.26756600E+06</totfact>
</mgrwt>
</event>
<event>
 5    1  0.1745726E+000  0.1724174E+03  0.7546771E-02  0.1175350E+00
         21   -1    0    0  503  502  0.00000000000E+00  0.00000000000E+00  0.32790007466E+02  0.32790007466E+02  0.00000000000E+00 0. -1.
         21   -1    0    0  501  503 -0.00000000000E+00 -0.00000000000E+00 -0.93112768364E+03  0.93112768364E+03  0.00000000000E+00 0. -1.
         24    1    1    2    0    0  0.76866866153E+02  0.11485154622E+03 -0.33940120626E+03  0.37517967369E+03  0.80419002446E+02 0. -1.
          1    1    1    2  501    0 -0.60903696284E+02 -0.14140139446E+03 -0.46518749326E+03  0.49000308005E+03  0.00000000000E+00 0. -1.
         -2    1    1    2    0  502 -0.15963169869E+02  0.26549848231E+02 -0.93748976649E+02  0.98734937363E+02  0.00000000000E+00 0.  1.
<mgrwt>
<rscale>  2 0.17241735E+03</rscale>
<asrwt>0</asrwt>
<pdfrwt beam="1">  1       21 0.50446169E-02 0.17241735E+03</pdfrwt>
<pdfrwt beam="2">  1       21 0.14325040E+00 0.17241735E+03</pdfrwt>
<totfact> 0.90218722E+04</totfact>
</mgrwt>
</event>
<event>
 5    1  0.1745726E+000  0.8378545E+02  0.7546771E-02  0.1318640E+00
         21   -1    0    0  503  502  0.00000000000E+00  0.00000000000E+00  0.38823598414E+03  0.38823598414E+03  0.00000000000E+00 0.  1.
         21   -1    0    0  501  503 -0.00000000000E+00 -0.00000000000E+00 -0.57613681645E+02  0.57613681645E+02  0.00000000000E+00 0.  1.
         24    1    1    2    0    0  0.33873106741E+02 -0.54179345107E+02  0.39397939880E+02  0.11001001053E+03  0.80419002446E+02 0.  1.
          1    1    1    2  501    0 -0.16553434364E+02  0.16421247126E+02 -0.14400049078E+02  0.27405017057E+02  0.00000000000E+00 0. -1.
         -2    1    1    2    0  502 -0.17319672377E+02  0.37758097981E+02  0.30562441169E+03  0.30843463819E+03  0.00000000000E+00 0.  1.
<mgrwt>
<rscale>  2 0.83785454E+02</rscale>
<asrwt>0</asrwt>
<pdfrwt beam="1">  1       21 0.59728611E-01 0.83785454E+02</pdfrwt>
<pdfrwt beam="2">  1       21 0.88636436E-02 0.83785454E+02</pdfrwt>
<totfact> 0.26931643E+05</totfact>
</mgrwt>
</event>
<event>
 5    1  0.1745726E+000  0.7331562E+02  0.7546771E-02  0.1349168E+00
         21   -1    0    0  503  502  0.00000000000E+00  0.00000000000E+00  0.36322610456E+02  0.36322610456E+02  0.00000000000E+00 0.  1.
         21   -1    0    0  501  503 -0.00000000000E+00 -0.00000000000E+00 -0.36051939793E+03  0.36051939793E+03  0.00000000000E+00 0. -1.
         24    1    1    2    0    0  0.14915447379E+02 -0.13218283408E+02 -0.10723452452E+03  0.13551255584E+03  0.80419002446E+02 0. -1.
          1    1    1    2  501    0 -0.63543511554E+01  0.37499075708E+02 -0.22954410106E+03  0.23267370455E+03  0.00000000000E+00 0. -1.
         -2    1    1    2    0  502 -0.85610962232E+01 -0.24280792300E+02  0.12581838104E+02  0.28655747998E+02  0.00000000000E+00 0.  1.
<mgrwt>
<rscale>  2 0.73315620E+02</rscale>
<asrwt>0</asrwt>
<pdfrwt beam="1">  1       21 0.55880940E-02 0.73315620E+02</pdfrwt>
<pdfrwt beam="2">  1       21 0.55464522E-01 0.73315620E+02</pdfrwt>
<totfact> 0.68500399E+05</totfact>
</mgrwt>
</event>
<event>
 5    1  0.1745726E+000  0.1077574E+03  0.7546771E-02  0.1264780E+00
         21   -1    0    0  503  502  0.00000000000E+00  0.00000000000E+00  0.64020343653E+03  0.64020343653E+03  0.00000000000E+00 0.  1.
         21   -1    0    0  501  503 -0.00000000000E+00 -0.00000000000E+00 -0.26177909179E+02  0.26177909179E+02  0.00000000000E+00 0. -1.
         24    1    1    2    0    0  0.22577457764E+02  0.30725826002E+02  0.22966913607E+03  0.24631066968E+03  0.80419002446E+02 0.  0.
          1    1    1    2  501    0 -0.36651822477E+02  0.40086877248E+02  0.38049639328E+02  0.66318088569E+02  0.00000000000E+00 0. -1.
         -2    1    1    2    0  502  0.14074364714E+02 -0.70812703250E+02  0.34630675195E+03  0.35375258746E+03  0.00000000000E+00 0.  1.
<mgrwt>
<rscale>  2 0.10775741E+03</rscale>
<asrwt>0</asrwt>
<pdfrwt beam="1">  1       21 0.98492824E-01 0.10775741E+03</pdfrwt>
<pdfrwt beam="2">  1       21 0.40273711E-02 0.10775741E+03</pdfrwt>
<totfact> 0.33641862E+05</totfact>
</mgrwt>
</event>
<event>
 5    1  0.1745726E+000  0.8617048E+02  0.7546771E-02  0.1312400E+00
         21   -1    0    0  501  502  0.00000000000E+00  0.00000000000E+00  0.32371577171E+02  0.32371577171E+02  0.00000000000E+00 0.  1.
         21   -1    0    0  502  503 -0.00000000000E+00 -0.00000000000E+00 -0.66097774314E+03  0.66097774314E+03  0.00000000000E+00 0.  1.
         24    1    1    2    0    0  0.28527208734E+02 -0.22537267004E+02 -0.59451624974E+02  0.10641166153E+03  0.80419002446E+02 0.  1.
          1    1    1    2  501    0 -0.21076995757E+02 -0.26853057722E+02 -0.29915290604E+02  0.45389988666E+02  0.00000000000E+00 0. -1.
         -2    1    1    2    0  503 -0.74502129770E+01  0.49390324726E+02 -0.53923925039E+03  0.54154767012E+03  0.00000000000E+00 0.  1.
<mgrwt>
<rscale>  2 0.86170478E+02</rscale>
<asrwt>0</asrwt>
<pdfrwt beam="1">  1       21 0.49802425E-02 0.86170478E+02</pdfrwt>
<pdfrwt beam="2">  1       21 0.10168889E+00 0.86170478E+02</pdfrwt>
<totfact> 0.22103338E+05</totfact>
</mgrwt>
</event>
<event>
 5    1  0.1745726E+000  0.7823219E+02  0.7546771E-02  0.1334144E+00
         21   -1    0    0  501  502  0.00000000000E+00  0.00000000000E+00  0.31469811864E+02  0.31469811864E+02  0.00000000000E+00 0.  1.
         21   -1    0    0  502  503 -0.00000000000E+00 -0.00000000000E+00 -0.19563315024E+03  0.19563315024E+03  0.00000000000E+00 0.  1.
         24    1    1    2    0    0 -0.35261396709E+01  0.33653335499E+02 -0.95643456943E+02  0.12945990677E+03  0.80419002446E+02 0.  0.
          1    1    1    2  501    0  0.20360822836E+02  0.98142970257E+01 -0.17917440149E+02  0.28842992115E+02  0.00000000000E+00 0. -1.
         -2    1    1    2    0  503 -0.16834683165E+02 -0.43467632525E+02 -0.50602441282E+02  0.68800063214E+02  0.00000000000E+00 0.  1.
<mgrwt>
<rscale>  2 0.78232193E+02</rscale>
<asrwt>0</asrwt>
<pdfrwt beam="1">  1       21 0.48415096E-02 0.78232193E+02</pdfrwt>
<pdfrwt beam="2">  1       21 0.30097407E-01 0.78232193E+02</pdfrwt>
<totfact> 0.29154009E+06</totfact>
</mgrwt>
</event>
<event>
 5    1  0.1745726E+000  0.7560549E+02  0.7546771E-02  0.1342006E+00
         21   -1    0    0  503  502  0.00000000000E+00  0.00000000000E+00  0.41411502583E+02  0.41411502583E+02  0.00000000000E+00 0.  1.
         21   -1    0    0  501  503 -0.00000000000E+00 -0.00000000000E+00 -0.22494345756E+03  0.22494345756E+03  0.00000000000E+00 0.  1.
         24    1    1    2    0    0 -0.32300237183E+01  0.54107646984E+02 -0.13680215952E+03  0.16769054034E+03  0.80419002446E+02 0.  1.
          1    1    1    2  501    0  0.20156459477E+01 -0.20100534128E+02 -0.59099795591E+02  0.62457026344E+02  0.00000000000E+00 0. -1.
         -2    1    1    2    0  502  0.12143777706E+01 -0.34007112856E+02  0.12370000131E+02  0.36207393463E+02  0.00000000000E+00 0.  1.
<mgrwt>
<rscale>  2 0.75605494E+02</rscale>
<asrwt>0</asrwt>
<pdfrwt beam="1">  1       21 0.63710003E-02 0.75605494E+02</pdfrwt>
<pdfrwt beam="2">  1       21 0.34606686E-01 0.75605494E+02</pdfrwt>
<totfact> 0.14100577E+06</totfact>
</mgrwt>
</event>
<event>
 5    1  0.1745726E+000  0.8583167E+02  0.7546771E-02  0.1313272E+00
         21   -1    0    0  503  502  0.00000000000E+00  0.00000000000E+00  0.48338169252E+02  0.48338169252E+02  0.00000000000E+00 0.  1.
         21   -1    0    0  501  503 -0.00000000000E+00 -0.00000000000E+00 -0.32766204004E+03  0.32766204004E+03  0.00000000000E+00 0. -1.
         24    1    1    2    0    0 -0.56604826965E+02 -0.66576874375E+01 -0.20797826739E+03  0.23015344208E+03  0.80419002446E+02 0. -1.
          1    1    1    2  501    0  0.37834311971E+02  0.26183128762E+02 -0.97740019077E+02  0.10802824965E+03  0.00000000000E+00 0. -1.
         -2    1    1    2    0  502  0.18770514994E+02 -0.19525441325E+02  0.26394415676E+02  0.37818517567E+02  0.00000000000E+00 0.  1.
<mgrwt>
<rscale>  2 0.85831674E+02</rscale>
<asrwt>0</asrwt>
<pdfrwt beam="1">  1       21 0.74366414E-02 0.85831674E+02</pdfrwt>
<pdfrwt beam="2">  1       21 0.50409545E-01 0.85831674E+02</pdfrwt>
<totfact> 0.51590641E+05</totfact>
</mgrwt>
</event>
<event>
 5    1  0.1745726E+000  0.8071368E+02  0.7546771E-02  0.1327038E+00
         21   -1    0    0  501  502  0.00000000000E+00  0.00000000000E+00  0.33313972317E+02  0.33313972317E+02  0.00000000000E+00 0.  1.
         21   -1    0    0  502  503 -0.00000000000E+00 -0.00000000000E+00 -0.24440090953E+03  0.24440090953E+03  0.00000000000E+00 0. -1.
         24    1    1    2    0    0 -0.76666399238E+01  0.58334585143E+02 -0.90328614333E+02  0.13449228868E+03  0.80419002446E+02 0.  0.
          1    1    1    2  501    0 -0.61749987226E+01 -0.23547633524E+02 -0.10017922858E+02  0.26324521500E+02  0.00000000000E+00 0. -1.
         -2    1    1    2    0  503  0.13841638646E+02 -0.34786951620E+02 -0.11074040002E+03  0.11689807167E+03  0.00000000000E+00 0.  1.
<mgrwt>
<rscale>  2 0.80713682E+02</rscale>
<asrwt>0</asrwt>
<pdfrwt beam="1">  1       21 0.51252263E-02 0.80713682E+02</pdfrwt>
<pdfrwt beam="2">  1       21 0.37600142E-01 0.80713682E+02</pdfrwt>
<totfact> 0.17293875E+06</totfact>
</mgrwt>
</event>
<event>
 5    1  0.1745726E+000  0.6754263E+02  0.7546771E-02  0.1368655E+00
         21   -1    0    0  501  502  0.00000000000E+00  0.00000000000E+00  0.34379602716E+02  0.34379602716E+02  0.00000000000E+00 0. -1.
         21   -1    0    0  502  503 -0.00000000000E+00 -0.00000000000E+00 -0.15417903418E+03  0.15417903418E+03  0.00000000000E+00 0.  1.
         24    1    1    2    0    0  0.29052494764E+02  0.21947669587E+02 -0.85089238209E+02  0.12260971440E+03  0.80419002446E+02 0.  0.
          1    1    1    2  501    0 -0.20384137826E+02  0.28093156943E+01  0.21710722676E+01  0.20691033913E+02  0.00000000000E+00 0. -1.
         -2    1    1    2    0  503 -0.86683569377E+01 -0.24756985282E+02 -0.36881265519E+02  0.45257888578E+02  0.00000000000E+00 0.  1.
<mgrwt>
<rscale>  2 0.67542631E+02</rscale>
<asrwt>0</asrwt>
<pdfrwt beam="1">  1       21 0.52891697E-02 0.67542631E+02</pdfrwt>
<pdfrwt beam="2">  1       21 0.23719851E-01 0.67542631E+02</pdfrwt>
<totfact> 0.38977764E+06</totfact>
</mgrwt>
</event>
<event>
 5    1  0.1745726E+000  0.7913723E+02  0.7546771E-02  0.1331518E+00
         21   -1    0    0  503  502  0.00000000000E+00  0.00000000000E+00  0.38865443914E+02  0.38865443914E+02  0.00000000000E+00 0.  1.
         21   -1    0    0  501  503 -0.00000000000E+00 -0.00000000000E+00 -0.21838130252E+03  0.21838130252E+03  0.00000000000E+00 0.  1.
         24    1    1    2    0    0 -0.50508732762E+02  0.15823112606E+02 -0.42734719316E+02  0.10533268803E+03  0.80419002446E+02 0.  1.
          1    1    1    2  501    0  0.14708670757E+02 -0.21195736278E+02 -0.84292132082E+02  0.88151958360E+02  0.00000000000E+00 0. -1.
         -2    1    1    2    0  502  0.35800062005E+02  0.53726236727E+01 -0.52489007210E+02  0.63762100048E+02  0.00000000000E+00 0.  1.
<mgrwt>
<rscale>  2 0.79137227E+02</rscale>
<asrwt>0</asrwt>
<pdfrwt beam="1">  1       21 0.59792991E-02 0.79137227E+02</pdfrwt>
<pdfrwt beam="2">  1       21 0.33597123E-01 0.79137227E+02</pdfrwt>
<totfact> 0.16629761E+06</totfact>
</mgrwt>
</event>
<event>
 5    1  0.1745726E+000  0.1031095E+03  0.7546771E-02  0.1273890E+00
         21   -1    0    0  501  502  0.00000000000E+00  0.00000000000E+00  0.32740129080E+03  0.32740129080E+03  0.00000000000E+00 0. -1.
         21   -1    0    0  502  503 -0.00000000000E+00 -0.00000000000E+00 -0.79864877200E+02  0.79864877200E+02  0.00000000000E+00 0.  1.
         24    1    1    2    0    0 -0.46034187225E+02  0.18308540467E+02  0.18720419954E+03  0.20968304015E+03  0.80419002446E+02 0.  0.
          1    1    1    2  501    0  0.75326058863E+02 -0.28809843195E+02  0.11155235345E+03  0.13765155201E+03  0.00000000000E+00 0. -1.
         -2    1    1    2    0  503 -0.29291871638E+02  0.10501302728E+02 -0.51220139395E+02  0.59931575840E+02  0.00000000000E+00 0.  1.
<mgrwt>
<rscale>  2 0.10310947E+03</rscale>
<asrwt>0</asrwt>
<pdfrwt beam="1">  1       21 0.50369429E-01 0.10310947E+03</pdfrwt>
<pdfrwt beam="2">  1       21 0.12286904E-01 0.10310947E+03</pdfrwt>
<totfact> 0.21620364E+05</totfact>
</mgrwt>
</event>
<event>
 5    1  0.1745726E+000  0.6237963E+02  0.7546771E-02  0.1388108E+00
         21   -1    0    0  501  502  0.00000000000E+00  0.00000000000E+00  0.58059186744E+02  0.58059186744E+02  0.00000000000E+00 0. -1.
         21   -1    0    0  502  503 -0.00000000000E+00 -0.00000000000E+00 -0.90499193037E+02  0.90499193037E+02  0.00000000000E+00 0. -1.
         24    1    1    2    0    0  0.67476249593E+01 -0.48411263583E-01 -0.59132875753E+01  0.80917956663E+02  0.80419002446E+02 0.  1.
          1    1    1    2  501    0 -0.74106932873E+01  0.21425178641E+02  0.10419580823E+02  0.24950437257E+02  0.00000000000E+00 0. -1.
         -2    1    1    2    0  503  0.66306832806E+00 -0.21376767377E+02 -0.36946299540E+02  0.42689985861E+02  0.00000000000E+00 0.  1.
<mgrwt>
<rscale>  2 0.62379632E+02</rscale>
<asrwt>0</asrwt>
<pdfrwt beam="1">  1       21 0.89321826E-02 0.62379632E+02</pdfrwt>
<pdfrwt beam="2">  1       21 0.13922953E-01 0.62379632E+02</pdfrwt>
<totfact> 0.41933561E+06</totfact>
</mgrwt>
</event>
<event>
 5    1  0.1745726E+000  0.8400128E+02  0.7546771E-02  0.1318065E+00
         21   -1    0    0  503  502  0.00000000000E+00  0.00000000000E+00  0.13194734169E+03  0.13194734169E+03  0.00000000000E+00 0.  1.
         21   -1    0    0  501  503 -0.00000000000E+00 -0.00000000000E+00 -0.84045024376E+02  0.84045024376E+02  0.00000000000E+00 0. -1.
         24    1    1    2    0    0  0.22668957396E+02 -0.59001133485E+02  0.58830083767E+02  0.11799665289E+03  0.80419002446E+02 0.  0.
          1    1    1    2  501    0 -0.21165924153E+01  0.30530250395E+02 -0.41413636498E+02  0.51494324353E+02  0.00000000000E+00 0. -1.
         -2    1    1    2    0  502 -0.20552364980E+02  0.28470883091E+02  0.30485870040E+02  0.46501388822E+02  0.00000000000E+00 0.  1.
<mgrwt>
<rscale>  2 0.84001276E+02</rscale>
<asrwt>0</asrwt>
<pdfrwt beam="1">  1       21 0.20299591E-01 0.84001276E+02</pdfrwt>
<pdfrwt beam="2">  1       21 0.12930004E-01 0.84001276E+02</pdfrwt>
<totfact> 0.11424599E+06</totfact>
</mgrwt>
</event>
<event>
 5    1  0.1745726E+000  0.8067575E+02  0.7546771E-02  0.1327145E+00
         21   -1    0    0  503  502  0.00000000000E+00  0.00000000000E+00  0.14935924885E+02  0.14935924885E+02  0.00000000000E+00 0.  1.
         21   -1    0    0  501  503 -0.00000000000E+00 -0.00000000000E+00 -0.68935193972E+03  0.68935193972E+03  0.00000000000E+00 0.  1.
         24    1    1    2    0    0 -0.20693496840E+02 -0.25477812186E+02 -0.19251341938E+03  0.21120126023E+03  0.80419002446E+02 0.  1.
          1    1    1    2  501    0 -0.19075985858E+02 -0.96968268686E+01 -0.35340717973E+03  0.35405445397E+03  0.00000000000E+00 0. -1.
         -2    1    1    2    0  502  0.39769482697E+02  0.35174639054E+02 -0.12849541573E+03  0.13903215042E+03  0.00000000000E+00 0.  1.
<mgrwt>
<rscale>  2 0.80675755E+02</rscale>
<asrwt>0</asrwt>
<pdfrwt beam="1">  1       21 0.22978345E-02 0.80675755E+02</pdfrwt>
<pdfrwt beam="2">  1       21 0.10605415E+00 0.80675755E+02</pdfrwt>
<totfact> 0.70851250E+05</totfact>
</mgrwt>
</event>
<event>
 5    1  0.1745726E+000  0.6280315E+02  0.7546771E-02  0.1386431E+00
         21   -1    0    0  503  502  0.00000000000E+00  0.00000000000E+00  0.93360295217E+02  0.93360295217E+02  0.00000000000E+00 0. -1.
         21   -1    0    0  501  503 -0.00000000000E+00 -0.00000000000E+00 -0.44525483346E+02  0.44525483346E+02  0.00000000000E+00 0.  1.
         24    1    1    2    0    0  0.19460515448E+02  0.11469723148E+02  0.24360607464E+02  0.87011041604E+02  0.80419002446E+02 0.  0.
          1    1    1    2  501    0 -0.17497704482E+02  0.10241923103E+02  0.34080624010E+01  0.20559220324E+02  0.00000000000E+00 0. -1.
         -2    1    1    2    0  502 -0.19628109660E+01 -0.21711646251E+02  0.21066142006E+02  0.30315516635E+02  0.00000000000E+00 0.  1.
<mgrwt>
<rscale>  2 0.62803146E+02</rscale>
<asrwt>0</asrwt>
<pdfrwt beam="1">  1       21 0.14363122E-01 0.62803146E+02</pdfrwt>
<pdfrwt beam="2">  1       21 0.68500744E-02 0.62803146E+02</pdfrwt>
<totfact> 0.62173257E+06</totfact>
</mgrwt>
</event>
<event>
 5    1  0.1745726E+000  0.7835599E+02  0.7546771E-02  0.1333783E+00
         21   -1    0    0  503  502  0.00000000000E+00  0.00000000000E+00  0.12393817040E+03  0.12393817040E+03  0.00000000000E+00 0. -1.
         21   -1    0    0  501  503 -0.00000000000E+00 -0.00000000000E+00 -0.59871879849E+02  0.59871879849E+02  0.00000000000E+00 0.  1.
         24    1    1    2    0    0 -0.85354146243E+01  0.48025842656E+02  0.61041893327E+02  0.11212788931E+03  0.80419002446E+02 0.  0.
          1    1    1    2  501    0 -0.15848882917E+02 -0.18346773044E+02 -0.15767125429E+02  0.28920467063E+02  0.00000000000E+00 0. -1.
         -2    1    1    2    0  502  0.24384297541E+02 -0.29679069613E+02  0.18791522652E+02  0.42761693877E+02  0.00000000000E+00 0.  1.
<mgrwt>
<rscale>  2 0.78355991E+02</rscale>
<asrwt>0</asrwt>
<pdfrwt beam="1">  1       21 0.19067411E-01 0.78355991E+02</pdfrwt>
<pdfrwt beam="2">  1       21 0.92110585E-02 0.78355991E+02</pdfrwt>
<totfact> 0.23029846E+06</totfact>
</mgrwt>
</event>
<event>
 5    1  0.1745726E+000  0.1069056E+03  0.7546771E-02  0.1266410E+00
         21   -1    0    0  503  502  0.00000000000E+00  0.00000000000E+00  0.61866915024E+02  0.61866915024E+02  0.00000000000E+00 0.  1.
         21   -1    0    0  501  503 -0.00000000000E+00 -0.00000000000E+00 -0.14630619015E+04  0.14630619015E+04  0.00000000000E+00 0. -1.
         24    1    1    2    0    0  0.67675438689E+02 -0.60167739723E+01 -0.33422289059E+02  0.11045556541E+03  0.80419002446E+02 0.  0.
          1    1    1    2  501    0  0.18874930401E+02  0.10988536072E+02 -0.13102503514E+04  0.13104323693E+04  0.00000000000E+00 0. -1.
         -2    1    1    2    0  502 -0.86550369090E+02 -0.49717620993E+01 -0.57522345936E+02  0.10404088182E+03  0.00000000000E+00 0.  1.
<mgrwt>
<rscale>  2 0.10690564E+03</rscale>
<asrwt>0</asrwt>
<pdfrwt beam="1">  1       21 0.95179872E-02 0.10690564E+03</pdfrwt>
<pdfrwt beam="2">  1       21 0.22508644E+00 0.10690564E+03</pdfrwt>
<totfact> 0.91359740E+03</totfact>
</mgrwt>
</event>
<event>
 5    1  0.1745726E+000  0.1196883E+03  0.7546771E-02  0.1243612E+00
         21   -1    0    0  501  502  0.00000000000E+00  0.00000000000E+00  0.32065696734E+02  0.32065696734E+02  0.00000000000E+00 0.  1.
         21   -1    0    0  502  503 -0.00000000000E+00 -0.00000000000E+00 -0.51512796405E+03  0.51512796405E+03  0.00000000000E+00 0.  1.
         24    1    1    2    0    0  0.97984368494E+02  0.27090048235E+01 -0.24265685431E+03  0.27378429479E+03  0.80419002446E+02 0.  1.
          1    1    1    2  501    0 -0.18129134130E+02 -0.23871866230E+02 -0.15363625571E+02  0.33683415687E+02  0.00000000000E+00 0. -1.
         -2    1    1    2    0  503 -0.79855234364E+02  0.21162861407E+02 -0.22504178743E+03  0.23972595030E+03  0.00000000000E+00 0.  1.
<mgrwt>
<rscale>  2 0.11968828E+03</rscale>
<asrwt>0</asrwt>
<pdfrwt beam="1">  1       21 0.49331843E-02 0.11968828E+03</pdfrwt>
<pdfrwt beam="2">  1       21 0.79250453E-01 0.11968828E+03</pdfrwt>
<totfact> 0.39213041E+05</totfact>
</mgrwt>
</event>
<event>
 5    1  0.1745726E+000  0.8969707E+02  0.7546771E-02  0.1303587E+00
         21   -1    0    0  501  502  0.00000000000E+00  0.00000000000E+00  0.25728973170E+03  0.25728973170E+03  0.00000000000E+00 0. -1.
         21   -1    0    0  502  503 -0.00000000000E+00 -0.00000000000E+00 -0.18502511579E+03  0.18502511579E+03  0.00000000000E+00 0.  1.
         24    1    1    2    0    0  0.43413846860E+02 -0.30199033902E+02  0.74276585472E+02  0.12157701613E+03  0.80419002446E+02 0. -1.
          1    1    1    2  501    0 -0.57437809130E+02  0.96144803103E+01  0.15301497890E+03  0.16372270434E+03  0.00000000000E+00 0. -1.
         -2    1    1    2    0  503  0.14023962269E+02  0.20584553591E+02 -0.15502694846E+03  0.15701512702E+03  0.00000000000E+00 0.  1.
<mgrwt>
<rscale>  2 0.89697067E+02</rscale>
<asrwt>0</asrwt>
<pdfrwt beam="1">  1       21 0.39583036E-01 0.89697067E+02</pdfrwt>
<pdfrwt beam="2">  1       21 0.28465402E-01 0.89697067E+02</pdfrwt>
<totfact> 0.76222140E+04</totfact>
</mgrwt>
</event>
<event>
 5    1  0.1745726E+000  0.6842751E+02  0.7546771E-02  0.1365523E+00
         21   -1    0    0  503  502  0.00000000000E+00  0.00000000000E+00  0.10391613228E+02  0.10391613228E+02  0.00000000000E+00 0.  1.
         21   -1    0    0  501  503 -0.00000000000E+00 -0.00000000000E+00 -0.12001639950E+04  0.12001639950E+04  0.00000000000E+00 0.  1.
         24    1    1    2    0    0  0.12682280049E+02 -0.28791663211E+01 -0.10528479616E+04  0.10559948750E+04  0.80419002446E+02 0.  1.
          1    1    1    2  501    0 -0.29016467307E+02 -0.13725678425E+02 -0.12365633289E+03  0.12775460182E+03  0.00000000000E+00 0. -1.
         -2    1    1    2    0  502  0.16334187258E+02  0.16604844746E+02 -0.13268087344E+02  0.26806131467E+02  0.00000000000E+00 0.  1.
<mgrwt>
<rscale>  2 0.68427514E+02</rscale>
<asrwt>0</asrwt>
<pdfrwt beam="1">  1       21 0.15987112E-02 0.68427514E+02</pdfrwt>
<pdfrwt beam="2">  1       21 0.18464045E+00 0.68427514E+02</pdfrwt>
<totfact> 0.31771904E+05</totfact>
</mgrwt>
</event>
<event>
 5    1  0.1745726E+000  0.7882987E+02  0.7546771E-02  0.1332405E+00
         21   -1    0    0  501  502  0.00000000000E+00  0.00000000000E+00  0.11308032766E+02  0.11308032766E+02  0.00000000000E+00 0. -1.
         21   -1    0    0  502  503 -0.00000000000E+00 -0.00000000000E+00 -0.86599871975E+03  0.86599871975E+03  0.00000000000E+00 0. -1.
         24    1    1    2    0    0 -0.33186312183E+02  0.81009547362E+01 -0.49515664195E+03  0.50280639694E+03  0.80419002446E+02 0. -1.
          1    1    1    2  501    0  0.25219839861E+02  0.25433872307E+02 -0.42422535100E+02  0.55521110106E+02  0.00000000000E+00 0. -1.
         -2    1    1    2    0  503  0.79664723220E+01 -0.33534827043E+02 -0.31711150994E+03  0.31897924547E+03  0.00000000000E+00 0.  1.
<mgrwt>
<rscale>  2 0.78829874E+02</rscale>
<asrwt>0</asrwt>
<pdfrwt beam="1">  1       21 0.17396973E-02 0.78829874E+02</pdfrwt>
<pdfrwt beam="2">  1       21 0.13323058E+00 0.78829874E+02</pdfrwt>
<totfact> 0.64015547E+05</totfact>
</mgrwt>
</event>
<event>
 5    1  0.1745726E+000  0.8280767E+02  0.7546771E-02  0.1321267E+00
         21   -1    0    0  501  502  0.00000000000E+00  0.00000000000E+00  0.11539227842E+03  0.11539227842E+03  0.00000000000E+00 0. -1.
         21   -1    0    0  502  503 -0.00000000000E+00 -0.00000000000E+00 -0.75074503536E+02  0.75074503536E+02  0.00000000000E+00 0. -1.
         24    1    1    2    0    0  0.43047593048E+02 -0.18073379767E+01  0.64973948112E+02  0.11200531963E+03  0.80419002446E+02 0. -1.
          1    1    1    2  501    0 -0.41785082225E+02  0.26615338635E+02 -0.18375444576E+02  0.52839628222E+02  0.00000000000E+00 0. -1.
         -2    1    1    2    0  503 -0.12625108223E+01 -0.24808000658E+02 -0.62807286555E+01  0.25621834100E+02  0.00000000000E+00 0.  1.
<mgrwt>
<rscale>  2 0.82807670E+02</rscale>
<asrwt>0</asrwt>
<pdfrwt beam="1">  1       21 0.17752658E-01 0.82807670E+02</pdfrwt>
<pdfrwt beam="2">  1       21 0.11549924E-01 0.82807670E+02</pdfrwt>
<totfact> 0.17758079E+06</totfact>
</mgrwt>
</event>
<event>
 5    1  0.1745726E+000  0.6949823E+02  0.7546771E-02  0.1361808E+00
         21   -1    0    0  501  502  0.00000000000E+00  0.00000000000E+00  0.67770566408E+01  0.67770566408E+01  0.00000000000E+00 0. -1.
         21   -1    0    0  502  503 -0.00000000000E+00 -0.00000000000E+00 -0.78273557542E+03  0.78273557542E+03  0.00000000000E+00 0.  1.
         24    1    1    2    0    0 -0.30439725945E+01 -0.42833472793E+01 -0.43080473278E+03  0.43827793302E+03  0.80419002446E+02 0.  0.
          1    1    1    2  501    0  0.28180349267E+02 -0.95000261531E+01 -0.97696484007E+02  0.10212240483E+03  0.00000000000E+00 0. -1.
         -2    1    1    2    0  503 -0.25136376672E+02  0.13783373432E+02 -0.24745730199E+03  0.24911229421E+03  0.00000000000E+00 0.  1.
<mgrwt>
<rscale>  2 0.69498227E+02</rscale>
<asrwt>0</asrwt>
<pdfrwt beam="1">  1       21 0.10426237E-02 0.69498227E+02</pdfrwt>
<pdfrwt beam="2">  1       21 0.12042091E+00 0.69498227E+02</pdfrwt>
<totfact> 0.18243292E+06</totfact>
</mgrwt>
</event>
<event>
 5    1  0.1745726E+000  0.9746191E+02  0.7546771E-02  0.1285726E+00
         21   -1    0    0  503  502  0.00000000000E+00  0.00000000000E+00  0.37163291592E+02  0.37163291592E+02  0.00000000000E+00 0.  1.
         21   -1    0    0  501  503 -0.00000000000E+00 -0.00000000000E+00 -0.29038435096E+03  0.29038435096E+03  0.00000000000E+00 0. -1.
         24    1    1    2    0    0  0.64276100156E+02 -0.36199531230E+02 -0.19574763416E+03  0.22411197055E+03  0.80419002446E+02 0. -1.
          1    1    1    2  501    0 -0.43202196548E+02  0.45515393554E+02 -0.45127420389E+02  0.77295309740E+02  0.00000000000E+00 0. -1.
         -2    1    1    2    0  502 -0.21073903608E+02 -0.93158623240E+01 -0.12346004827E+02  0.26140362265E+02  0.00000000000E+00 0.  1.
<mgrwt>
<rscale>  2 0.97461913E+02</rscale>
<asrwt>0</asrwt>
<pdfrwt beam="1">  1       21 0.57174295E-02 0.97461913E+02</pdfrwt>
<pdfrwt beam="2">  1       21 0.44674515E-01 0.97461913E+02</pdfrwt>
<totfact> 0.10283181E+06</totfact>
</mgrwt>
</event>
<event>
 5    1  0.1745726E+000  0.9341424E+02  0.7546771E-02  0.1294788E+00
         21   -1    0    0  503  502  0.00000000000E+00  0.00000000000E+00  0.20368242186E+02  0.20368242186E+02  0.00000000000E+00 0.  1.
         21   -1    0    0  501  503 -0.00000000000E+00 -0.00000000000E+00 -0.44689140415E+03  0.44689140415E+03  0.00000000000E+00 0.  1.
         24    1    1    2    0    0  0.38075405251E+02  0.40654606070E+02 -0.24733268041E+03  0.26597594671E+03  0.80419002446E+02 0.  1.
          1    1    1    2  501    0  0.19611045609E+02 -0.19232262350E+02 -0.79703838957E+02  0.84304062591E+02  0.00000000000E+00 0. -1.
         -2    1    1    2    0  502 -0.57686450859E+02 -0.21422343720E+02 -0.99486642597E+02  0.11697963702E+03  0.00000000000E+00 0.  1.
<mgrwt>
<rscale>  2 0.93414239E+02</rscale>
<asrwt>0</asrwt>
<pdfrwt beam="1">  1       21 0.31335759E-02 0.93414239E+02</pdfrwt>
<pdfrwt beam="2">  1       21 0.68752520E-01 0.93414239E+02</pdfrwt>
<totfact> 0.11332954E+06</totfact>
</mgrwt>
</event>
<event>
 5    1  0.1745726E+000  0.1515363E+03  0.7546771E-02  0.1198598E+00
         21   -1    0    0  501  502  0.00000000000E+00  0.00000000000E+00  0.55360639561E+03  0.55360639561E+03  0.00000000000E+00 0. -1.
         21   -1    0    0  502  503 -0.00000000000E+00 -0.00000000000E+00 -0.50096786884E+02  0.50096786884E+02  0.00000000000E+00 0. -1.
         24    1    1    2    0    0  0.12888406145E+03  0.24527188003E+01  0.21221401943E+03  0.26099640443E+03  0.80419002446E+02 0. -1.
          1    1    1    2  501    0 -0.70940218287E+02  0.37993142115E+02  0.24586319275E+03  0.25869809231E+03  0.00000000000E+00 0. -1.
         -2    1    1    2    0  503 -0.57943843167E+02 -0.40445860915E+02  0.45432396548E+02  0.84008685755E+02  0.00000000000E+00 0.  1.
<mgrwt>
<rscale>  2 0.15153627E+03</rscale>
<asrwt>0</asrwt>
<pdfrwt beam="1">  1       21 0.85170211E-01 0.15153627E+03</pdfrwt>
<pdfrwt beam="2">  1       21 0.77071984E-02 0.15153627E+03</pdfrwt>
<totfact> 0.15492317E+05</totfact>
</mgrwt>
</event>
<event>
 5    1  0.1745726E+000  0.8162010E+02  0.7546771E-02  0.1324516E+00
         21   -1    0    0  503  502  0.00000000000E+00  0.00000000000E+00  0.66742170359E+02  0.66742170359E+02  0.00000000000E+00 0. -1.
         21   -1    0    0  501  503 -0.00000000000E+00 -0.00000000000E+00 -0.24057615568E+03  0.24057615568E+03  0.00000000000E+00 0. -1.
         24    1    1    2    0    0 -0.26764754783E+02 -0.18065817606E+02 -0.20500226575E+03  0.22256655360E+03  0.80419002446E+02 0. -1.
          1    1    1    2  501    0  0.30267575222E+02  0.42344724342E+02  0.11488125028E+02  0.53302709182E+02  0.00000000000E+00 0. -1.
         -2    1    1    2    0  502 -0.35028204394E+01 -0.24278906737E+02  0.19680155398E+02  0.31449063259E+02  0.00000000000E+00 0.  1.
<mgrwt>
<rscale>  2 0.81620101E+02</rscale>
<asrwt>0</asrwt>
<pdfrwt beam="1">  1       21 0.10268026E-01 0.81620101E+02</pdfrwt>
<pdfrwt beam="2">  1       21 0.37011716E-01 0.81620101E+02</pdfrwt>
<totfact> 0.54970443E+05</totfact>
</mgrwt>
</event>
<event>
 5    1  0.1745726E+000  0.6482993E+02  0.7546771E-02  0.1378612E+00
         21   -1    0    0  503  502  0.00000000000E+00  0.00000000000E+00  0.68892647934E+02  0.68892647934E+02  0.00000000000E+00 0.  1.
         21   -1    0    0  501  503 -0.00000000000E+00 -0.00000000000E+00 -0.25626873070E+03  0.25626873070E+03  0.00000000000E+00 0. -1.
         24    1    1    2    0    0 -0.14332229751E+02  0.49081104726E+00 -0.34930057453E+02  0.88842436781E+02  0.80419002446E+02 0. -1.
          1    1    1    2  501    0  0.64761943455E+01  0.22637733833E+02 -0.19003635559E+03  0.19148948936E+03  0.00000000000E+00 0. -1.
         -2    1    1    2    0  502  0.78560354054E+01 -0.23128544880E+02  0.37590330282E+02  0.44829452498E+02  0.00000000000E+00 0.  1.
<mgrwt>
<rscale>  2 0.64829931E+02</rscale>
<asrwt>0</asrwt>
<pdfrwt beam="1">  1       21 0.10598869E-01 0.64829931E+02</pdfrwt>
<pdfrwt beam="2">  1       21 0.39425958E-01 0.64829931E+02</pdfrwt>
<totfact> 0.45942072E+05</totfact>
</mgrwt>
</event>
<event>
 5    1  0.1745726E+000  0.6566784E+02  0.7546771E-02  0.1375477E+00
         21   -1    0    0  501  502  0.00000000000E+00  0.00000000000E+00  0.20254803422E+04  0.20254803422E+04  0.00000000000E+00 0.  1.
         21   -1    0    0  502  503 -0.00000000000E+00 -0.00000000000E+00 -0.14725058200E+02  0.14725058200E+02  0.00000000000E+00 0.  1.
         24    1    1    2    0    0  0.12278705167E+02  0.18651333191E+02  0.16845835963E+04  0.16866498592E+04  0.80419002446E+02 0.  1.
          1    1    1    2  501    0  0.10597401809E+02 -0.22317662724E+02  0.32925731415E+03  0.33018292190E+03  0.00000000000E+00 0. -1.
         -2    1    1    2    0  503 -0.22876106976E+02  0.36663295334E+01 -0.30856263997E+01  0.23372619299E+02  0.00000000000E+00 0.  1.
<mgrwt>
<rscale>  2 0.65667835E+02</rscale>
<asrwt>0</asrwt>
<pdfrwt beam="1">  1       21 0.31161214E+00 0.65667835E+02</pdfrwt>
<pdfrwt beam="2">  1       21 0.22653952E-02 0.65667835E+02</pdfrwt>
<totfact> 0.35585101E+04</totfact>
</mgrwt>
</event>
<event>
 5    1  0.1745726E+000  0.8516307E+02  0.7546771E-02  0.1315007E+00
         21   -1    0    0  501  502  0.00000000000E+00  0.00000000000E+00  0.24696866252E+03  0.24696866252E+03  0.00000000000E+00 0. -1.
         21   -1    0    0  502  503 -0.00000000000E+00 -0.00000000000E+00 -0.10575652937E+03  0.10575652937E+03  0.00000000000E+00 0.  1.
         24    1    1    2    0    0 -0.41848856448E+02  0.23158780207E+02  0.12157993170E+02  0.94354060002E+02  0.80419002446E+02 0.  1.
          1    1    1    2  501    0 -0.83231168696E+01 -0.25206328448E+02  0.18285864511E+03  0.18477531588E+03  0.00000000000E+00 0. -1.
         -2    1    1    2    0  503  0.50171973318E+02  0.20475482415E+01 -0.53804505136E+02  0.73595816004E+02  0.00000000000E+00 0.  1.
<mgrwt>
<rscale>  2 0.85163069E+02</rscale>
<asrwt>0</asrwt>
<pdfrwt beam="1">  1       21 0.37995179E-01 0.85163069E+02</pdfrwt>
<pdfrwt beam="2">  1       21 0.16270235E-01 0.85163069E+02</pdfrwt>
<totfact> 0.23206794E+05</totfact>
</mgrwt>
</event>
<event>
 5    1  0.1745726E+000  0.6789319E+02  0.7546771E-02  0.1367407E+00
         21   -1    0    0  501  502  0.00000000000E+00  0.00000000000E+00  0.10099740115E+03  0.10099740115E+03  0.00000000000E+00 0. -1.
         21   -1    0    0  502  503 -0.00000000000E+00 -0.00000000000E+00 -0.11350320059E+03  0.11350320059E+03  0.00000000000E+00 0.  1.
         24    1    1    2    0    0  0.15950683451E+02  0.14772695178E+02  0.62665068657E+02  0.10424386605E+03  0.80419002446E+02 0. -1.
          1    1    1    2  501    0 -0.16423340997E+02  0.15275154245E+02  0.64017520497E+01  0.23324641391E+02  0.00000000000E+00 0. -1.
         -2    1    1    2    0  503  0.47265754651E+00 -0.30047849424E+02 -0.81572620154E+02  0.86932094297E+02  0.00000000000E+00 0.  1.
<mgrwt>
<rscale>  2 0.67893193E+02</rscale>
<asrwt>0</asrwt>
<pdfrwt beam="1">  1       21 0.15538062E-01 0.67893193E+02</pdfrwt>
<pdfrwt beam="2">  1       21 0.17462031E-01 0.67893193E+02</pdfrwt>
<totfact> 0.10776338E+06</totfact>
</mgrwt>
</event>
<event>
 5    1  0.1745726E+000  0.7634026E+02  0.7546771E-02  0.1339770E+00
         21   -1    0    0  501  502  0.00000000000E+00  0.00000000000E+00  0.15717154824E+04  0.15717154824E+04  0.00000000000E+00 0. -1.
         21   -1    0    0  502  503 -0.00000000000E+00 -0.00000000000E+00 -0.14906910400E+02  0.14906910400E+02  0.00000000000E+00 0.  1.
         24    1    1    2    0    0 -0.35806478477E+02 -0.16990036634E+02  0.25148120530E+03  0.26698460222E+03  0.80419002446E+02 0.  1.
          1    1    1    2  501    0  0.53381164750E+01  0.29580617673E+02  0.12733661573E+04  0.12737208795E+04  0.00000000000E+00 0. -1.
         -2    1    1    2    0  503  0.30468362002E+02 -0.12590581040E+02  0.31961209424E+02  0.45916911066E+02  0.00000000000E+00 0.  1.
<mgrwt>
<rscale>  2 0.76340260E+02</rscale>
<asrwt>0</asrwt>
<pdfrwt beam="1">  1       21 0.24180225E+00 0.76340260E+02</pdfrwt>
<pdfrwt beam="2">  1       21 0.22933721E-02 0.76340260E+02</pdfrwt>
<totfact> 0.81643548E+04</totfact>
</mgrwt>
</event>
<event>
 5    1  0.1745726E+000  0.9051954E+02  0.7546771E-02  0.1301598E+00
         21   -1    0    0  503  502  0.00000000000E+00  0.00000000000E+00  0.18257690143E+03  0.18257690143E+03  0.00000000000E+00 0.  1.
         21   -1    0    0  501  503 -0.00000000000E+00 -0.00000000000E+00 -0.11635668568E+03  0.11635668568E+03  0.00000000000E+00 0. -1.
         24    1    1    2    0    0  0.37894729417E+02  0.24507830149E+02 -0.75705192523E+02  0.11931109079E+03  0.80419002446E+02 0.  0.
          1    1    1    2  501    0 -0.50543262837E+02 -0.43039874422E+02  0.45160167397E+02  0.80290054975E+02  0.00000000000E+00 0. -1.
         -2    1    1    2    0  502  0.12648533420E+02  0.18532044273E+02  0.96765240878E+02  0.99332441351E+02  0.00000000000E+00 0.  1.
<mgrwt>
<rscale>  2 0.90519539E+02</rscale>
<asrwt>0</asrwt>
<pdfrwt beam="1">  1       21 0.28088754E-01 0.90519539E+02</pdfrwt>
<pdfrwt beam="2">  1       21 0.17901029E-01 0.90519539E+02</pdfrwt>
<totfact> 0.34939870E+05</totfact>
</mgrwt>
</event>
<event>
 5    1  0.1745726E+000  0.7716354E+02  0.7546771E-02  0.1337299E+00
         21   -1    0    0  501  502  0.00000000000E+00  0.00000000000E+00  0.14853585500E+02  0.14853585500E+02  0.00000000000E+00 0. -1.
         21   -1    0    0  502  503 -0.00000000000E+00 -0.00000000000E+00 -0.42413082239E+03  0.42413082239E+03  0.00000000000E+00 0.  1.
         24    1    1    2    0    0 -0.13709559805E+02  0.26325539053E+02 -0.22937912848E+03  0.24487340928E+03  0.80419002446E+02 0. -1.
          1    1    1    2  501    0 -0.17538035013E+02  0.10396518791E+02 -0.27277472159E+02  0.34054819960E+02  0.00000000000E+00 0. -1.
         -2    1    1    2    0  503  0.31247594818E+02 -0.36722057844E+02 -0.15262063625E+03  0.16005617865E+03  0.00000000000E+00 0.  1.
<mgrwt>
<rscale>  2 0.77163545E+02</rscale>
<asrwt>0</asrwt>
<pdfrwt beam="1">  1       21 0.22851671E-02 0.77163545E+02</pdfrwt>
<pdfrwt beam="2">  1       21 0.65250892E-01 0.77163545E+02</pdfrwt>
<totfact> 0.20993661E+06</totfact>
</mgrwt>
</event>
<event>
 5    1  0.1745726E+000  0.1432700E+03  0.7546771E-02  0.1208995E+00
         21   -1    0    0  503  502  0.00000000000E+00  0.00000000000E+00  0.61491094032E+03  0.61491094032E+03  0.00000000000E+00 0.  1.
         21   -1    0    0  501  503 -0.00000000000E+00 -0.00000000000E+00 -0.49434028892E+02  0.49434028892E+02  0.00000000000E+00 0. -1.
         24    1    1    2    0    0 -0.99763796971E+02 -0.19210165606E+02  0.13500765968E+03  0.18712597301E+03  0.80419002446E+02 0.  0.
          1    1    1    2  501    0  0.12459343325E+03  0.32558420086E+02  0.16047309983E+03  0.20575517028E+03  0.00000000000E+00 0. -1.
         -2    1    1    2    0  502 -0.24829636275E+02 -0.13348254479E+02  0.26999615192E+03  0.27146382593E+03  0.00000000000E+00 0.  1.
<mgrwt>
<rscale>  2 0.14327001E+03</rscale>
<asrwt>0</asrwt>
<pdfrwt beam="1">  1       21 0.94601678E-01 0.14327001E+03</pdfrwt>
<pdfrwt beam="2">  1       21 0.76052356E-02 0.14327001E+03</pdfrwt>
<totfact> 0.12492677E+05</totfact>
</mgrwt>
</event>
<event>
 5    1  0.1745726E+000  0.6989471E+02  0.7546771E-02  0.1360451E+00
         21   -1    0    0  503  502  0.00000000000E+00  0.00000000000E+00  0.73966003456E+02  0.73966003456E+02  0.00000000000E+00 0.  1.
         21   -1    0    0  501  503 -0.00000000000E+00 -0.00000000000E+00 -0.15684540207E+03  0.15684540207E+03  0.00000000000E+00 0.  1.
         24    1    1    2    0    0  0.34959326179E+02 -0.15289622205E+02 -0.20936628216E+02  0.91441158072E+02  0.80419002446E+02 0.  1.
          1    1    1    2  501    0 -0.18108385495E+02 -0.97724412160E+01 -0.93472352563E+02  0.95710474486E+02  0.00000000000E+00 0. -1.
         -2    1    1    2    0  502 -0.16850940684E+02  0.25062063421E+02  0.31529582160E+02  0.43659772973E+02  0.00000000000E+00 0.  1.
<mgrwt>
<rscale>  2 0.69894711E+02</rscale>
<asrwt>0</asrwt>
<pdfrwt beam="1">  1       21 0.11379385E-01 0.69894711E+02</pdfrwt>
<pdfrwt beam="2">  1       21 0.24130062E-01 0.69894711E+02</pdfrwt>
<totfact> 0.10339376E+06</totfact>
</mgrwt>
</event>
<event>
 5    1  0.1745726E+000  0.7280454E+02  0.7546771E-02  0.1350808E+00
         21   -1    0    0  503  502  0.00000000000E+00  0.00000000000E+00  0.35011292038E+03  0.35011292038E+03  0.00000000000E+00 0.  1.
         21   -1    0    0  501  503 -0.00000000000E+00 -0.00000000000E+00 -0.56630297644E+02  0.56630297644E+02  0.00000000000E+00 0. -1.
         24    1    1    2    0    0 -0.31298171941E+02 -0.28623594967E+02 -0.97081214837E+01  0.91434945906E+02  0.80419002446E+02 0.  0.
          1    1    1    2  501    0  0.25420917589E+02 -0.50292927942E-01  0.25248026250E+02  0.35828597656E+02  0.00000000000E+00 0. -1.
         -2    1    1    2    0  502  0.58772543522E+01  0.28673887895E+02  0.27794271797E+03  0.27947967447E+03  0.00000000000E+00 0.  1.
<mgrwt>
<rscale>  2 0.72804545E+02</rscale>
<asrwt>0</asrwt>
<pdfrwt beam="1">  1       21 0.53863525E-01 0.72804545E+02</pdfrwt>
<pdfrwt beam="2">  1       21 0.87123537E-02 0.72804545E+02</pdfrwt>
<totfact> 0.34427243E+05</totfact>
</mgrwt>
</event>
<event>
 5    1  0.1745726E+000  0.9594902E+02  0.7546771E-02  0.1289053E+00
         21   -1    0    0  503  502  0.00000000000E+00  0.00000000000E+00  0.20688257422E+03  0.20688257422E+03  0.00000000000E+00 0.  1.
         21   -1    0    0  501  503 -0.00000000000E+00 -0.00000000000E+00 -0.10298878590E+03  0.10298878590E+03  0.00000000000E+00 0. -1.
         24    1    1    2    0    0 -0.12607952208E+02 -0.67573431340E+02  0.56873303844E+02  0.12011210483E+03  0.80419002446E+02 0.  1.
          1    1    1    2  501    0 -0.20361959977E+02  0.24348770716E+02 -0.61037303704E+02  0.68796980260E+02  0.00000000000E+00 0. -1.
         -2    1    1    2    0  502  0.32969912185E+02  0.43224660624E+02  0.10805778817E+03  0.12096227503E+03  0.00000000000E+00 0.  1.
<mgrwt>
<rscale>  2 0.95949023E+02</rscale>
<asrwt>0</asrwt>
<pdfrwt beam="1">  1       21 0.31828088E-01 0.95949023E+02</pdfrwt>
<pdfrwt beam="2">  1       21 0.15844429E-01 0.95949023E+02</pdfrwt>
<totfact> 0.34267468E+05</totfact>
</mgrwt>
</event>
<event>
 5    1  0.1745726E+000  0.1033703E+03  0.7546771E-02  0.1273364E+00
         21   -1    0    0  503  502  0.00000000000E+00  0.00000000000E+00  0.72706454137E+02  0.72706454137E+02  0.00000000000E+00 0. -1.
         21   -1    0    0  501  503 -0.00000000000E+00 -0.00000000000E+00 -0.26194108012E+03  0.26194108012E+03  0.00000000000E+00 0. -1.
         24    1    1    2    0    0 -0.39363951453E+01  0.86170448964E+02 -0.26375146659E+02  0.12084579346E+03  0.80419002446E+02 0. -1.
          1    1    1    2  501    0  0.12485390754E+02 -0.59692644352E+02 -0.17358219490E+03  0.18398335566E+03  0.00000000000E+00 0. -1.
         -2    1    1    2    0  502 -0.85489956084E+01 -0.26477804612E+02  0.10722715578E+02  0.29818385140E+02  0.00000000000E+00 0.  1.
<mgrwt>
<rscale>  2 0.10337027E+03</rscale>
<asrwt>0</asrwt>
<pdfrwt beam="1">  1       21 0.11185608E-01 0.10337027E+03</pdfrwt>
<pdfrwt beam="2">  1       21 0.40298628E-01 0.10337027E+03</pdfrwt>
<totfact> 0.40015334E+05</totfact>
</mgrwt>
</event>
<event>
 5    1  0.1745726E+000  0.8845811E+02  0.7546771E-02  0.1306629E+00
         21   -1    0    0  503  502  0.00000000000E+00  0.00000000000E+00  0.14899628841E+04  0.14899628841E+04  0.00000000000E+00 0. -1.
         21   -1    0    0  501  503 -0.00000000000E+00 -0.00000000000E+00 -0.13021936627E+02  0.13021936627E+02  0.00000000000E+00 0. -1.
         24    1    1    2    0    0 -0.65797051821E+02 -0.24396727712E+02  0.10566810339E+04  0.10620576612E+04  0.80419002446E+02 0. -1.
          1    1    1    2  501    0  0.38938027762E+02  0.13815180771E+02  0.33772245823E+02  0.53362850502E+02  0.00000000000E+00 0. -1.
         -2    1    1    2    0  502  0.26859024059E+02  0.10581546941E+02  0.38648766775E+03  0.38756430903E+03  0.00000000000E+00 0.  1.
<mgrwt>
<rscale>  2 0.88458113E+02</rscale>
<asrwt>0</asrwt>
<pdfrwt beam="1">  1       21 0.22922492E+00 0.88458113E+02</pdfrwt>
<pdfrwt beam="2">  1       21 0.20033760E-02 0.88458113E+02</pdfrwt>
<totfact> 0.11766336E+05</totfact>
</mgrwt>
</event>
<event>
 5    1  0.1745726E+000  0.6677466E+02  0.7546771E-02  0.1371418E+00
         21   -1    0    0  501  502  0.00000000000E+00  0.00000000000E+00  0.57851070260E+02  0.57851070260E+02  0.00000000000E+00 0. -1.
         21   -1    0    0  502  503 -0.00000000000E+00 -0.00000000000E+00 -0.16942974871E+03  0.16942974871E+03  0.00000000000E+00 0.  1.
         24    1    1    2    0    0 -0.93426240330E+01 -0.85996186143E+01 -0.11519181286E+03  0.14105888051E+03  0.80419002446E+02 0.  1.
          1    1    1    2  501    0  0.77209080655E+00  0.29517932455E+02  0.36103581346E+02  0.46640894573E+02  0.00000000000E+00 0. -1.
         -2    1    1    2    0  503  0.85705332265E+01 -0.20918313840E+02 -0.32490446935E+02  0.39581043894E+02  0.00000000000E+00 0.  1.
<mgrwt>
<rscale>  2 0.66774658E+02</rscale>
<asrwt>0</asrwt>
<pdfrwt beam="1">  1       21 0.89001648E-02 0.66774658E+02</pdfrwt>
<pdfrwt beam="2">  1       21 0.26066115E-01 0.66774658E+02</pdfrwt>
<totfact> 0.13650079E+06</totfact>
</mgrwt>
</event>
<event>
 5    1  0.1745726E+000  0.6763201E+02  0.7546771E-02  0.1368336E+00
         21   -1    0    0  501  502  0.00000000000E+00  0.00000000000E+00  0.35471937553E+02  0.35471937553E+02  0.00000000000E+00 0. -1.
         21   -1    0    0  502  503 -0.00000000000E+00 -0.00000000000E+00 -0.35477111744E+03  0.35477111744E+03  0.00000000000E+00 0.  1.
         24    1    1    2    0    0 -0.22619900995E+01  0.15175904351E+01 -0.27201429414E+02  0.84938527162E+02  0.80419002446E+02 0. -1.
          1    1    1    2  501    0 -0.23646466346E+02  0.10935905274E+02 -0.23232702429E+02  0.34907131893E+02  0.00000000000E+00 0. -1.
         -2    1    1    2    0  503  0.25908456446E+02 -0.12453495709E+02 -0.26886504805E+03  0.27039739594E+03  0.00000000000E+00 0.  1.
<mgrwt>
<rscale>  2 0.67632015E+02</rscale>
<asrwt>0</asrwt>
<pdfrwt beam="1">  1       21 0.54572211E-02 0.67632015E+02</pdfrwt>
<pdfrwt beam="2">  1       21 0.54580172E-01 0.67632015E+02</pdfrwt>
<totfact> 0.73552286E+05</totfact>
</mgrwt>
</event>
<event>
 5    1  0.1745726E+000  0.1060867E+03  0.7546771E-02  0.1267993E+00
         21   -1    0    0  501  502  0.00000000000E+00  0.00000000000E+00  0.35888112137E+03  0.35888112137E+03  0.00000000000E+00 0. -1.
         21   -1    0    0  502  503 -0.00000000000E+00 -0.00000000000E+00 -0.39747438585E+02  0.39747438585E+02  0.00000000000E+00 0.  1.
         24    1    1    2    0    0  0.27499630748E+02 -0.54148376756E+02  0.14674425407E+03  0.17801507929E+03  0.80419002446E+02 0. -1.
          1    1    1    2  501    0 -0.12616402191E+02  0.80312708226E+02  0.17229499361E+03  0.19051212437E+03  0.00000000000E+00 0. -1.
         -2    1    1    2    0  503 -0.14883228557E+02 -0.26164331470E+02  0.94435107940E-01  0.30101356307E+02  0.00000000000E+00 0.  1.
<mgrwt>
<rscale>  2 0.10608665E+03</rscale>
<asrwt>0</asrwt>
<pdfrwt beam="1">  1       21 0.55212478E-01 0.10608665E+03</pdfrwt>
<pdfrwt beam="2">  1       21 0.61149908E-02 0.10608665E+03</pdfrwt>
<totfact> 0.59550861E+05</totfact>
</mgrwt>
</event>
<event>
 5    1  0.1745726E+000  0.8951681E+02  0.7546771E-02  0.1304026E+00
         21   -1    0    0  501  502  0.00000000000E+00  0.00000000000E+00  0.90291616644E+03  0.90291616644E+03  0.00000000000E+00 0. -1.
         21   -1    0    0  502  503 -0.00000000000E+00 -0.00000000000E+00 -0.19354278335E+02  0.19354278335E+02  0.00000000000E+00 0.  1.
         24    1    1    2    0    0  0.11018225295E+02 -0.39069841925E+02  0.41056436590E+03  0.42033102234E+03  0.80419002446E+02 0. -1.
          1    1    1    2  501    0 -0.44345536023E+01  0.63496721497E+02  0.47236367761E+03  0.47663292253E+03  0.00000000000E+00 0. -1.
         -2    1    1    2    0  503 -0.65836716923E+01 -0.24426879572E+02  0.63384458429E+00  0.25306499907E+02  0.00000000000E+00 0.  1.
<mgrwt>
<rscale>  2 0.89516814E+02</rscale>
<asrwt>0</asrwt>
<pdfrwt beam="1">  1       21 0.13891015E+00 0.89516814E+02</pdfrwt>
<pdfrwt beam="2">  1       21 0.29775820E-02 0.89516814E+02</pdfrwt>
<totfact> 0.24299665E+05</totfact>
</mgrwt>
</event>
<event>
 5    1  0.1745726E+000  0.7275932E+02  0.7546771E-02  0.1350954E+00
         21   -1    0    0  501  502  0.00000000000E+00  0.00000000000E+00  0.54089420903E+02  0.54089420903E+02  0.00000000000E+00 0. -1.
         21   -1    0    0  502  503 -0.00000000000E+00 -0.00000000000E+00 -0.17942383644E+03  0.17942383644E+03  0.00000000000E+00 0. -1.
         24    1    1    2    0    0 -0.25206602047E+02 -0.28557704589E+02 -0.10162706973E+03  0.13507846807E+03  0.80419002446E+02 0. -1.
          1    1    1    2  501    0 -0.53188747093E+01  0.25280385649E+02  0.28127135229E+02  0.38190627946E+02  0.00000000000E+00 0. -1.
         -2    1    1    2    0  503  0.30525476756E+02  0.32773189406E+01 -0.51834481035E+02  0.60244161334E+02  0.00000000000E+00 0.  1.
<mgrwt>
<rscale>  2 0.72759323E+02</rscale>
<asrwt>0</asrwt>
<pdfrwt beam="1">  1       21 0.83214493E-02 0.72759323E+02</pdfrwt>
<pdfrwt beam="2">  1       21 0.27603667E-01 0.72759323E+02</pdfrwt>
<totfact> 0.13795268E+06</totfact>
</mgrwt>
</event>
<event>
 5    1  0.1745726E+000  0.1115400E+03  0.7546771E-02  0.1257744E+00
         21   -1    0    0  501  502  0.00000000000E+00  0.00000000000E+00  0.40138738960E+02  0.40138738960E+02  0.00000000000E+00 0. -1.
         21   -1    0    0  502  503 -0.00000000000E+00 -0.00000000000E+00 -0.19103786944E+04  0.19103786944E+04  0.00000000000E+00 0.  1.
         24    1    1    2    0    0 -0.29432540725E+02  0.87035087027E+01 -0.26117129381E+03  0.27499033835E+03  0.80419002446E+02 0.  1.
          1    1    1    2  501    0 -0.31765110016E+02  0.45338825746E+02  0.84055904087E+01  0.55993618248E+02  0.00000000000E+00 0. -1.
         -2    1    1    2    0  503  0.61197650741E+02 -0.54042334449E+02 -0.16174742521E+04  0.16195334768E+04  0.00000000000E+00 0.  1.
<mgrwt>
<rscale>  2 0.11153998E+03</rscale>
<asrwt>0</asrwt>
<pdfrwt beam="1">  1       21 0.61751891E-02 0.11153998E+03</pdfrwt>
<pdfrwt beam="2">  1       21 0.29390449E+00 0.11153998E+03</pdfrwt>
<totfact> 0.77602620E+03</totfact>
</mgrwt>
</event>
<event>
 5    1  0.1745726E+000  0.1124334E+03  0.7546771E-02  0.1256129E+00
         21   -1    0    0  503  502  0.00000000000E+00  0.00000000000E+00  0.23411966518E+04  0.23411966518E+04  0.00000000000E+00 0.  1.
         21   -1    0    0  501  503 -0.00000000000E+00 -0.00000000000E+00 -0.81825957928E+01  0.81825957928E+01  0.00000000000E+00 0. -1.
         24    1    1    2    0    0  0.30755402291E+02  0.62273455244E+02  0.73709121087E+03  0.74471104940E+03  0.80419002446E+02 0. -1.
          1    1    1    2  501    0 -0.65628766426E+02 -0.45860546011E+02  0.39019960793E+03  0.39832908341E+03  0.00000000000E+00 0. -1.
         -2    1    1    2    0  502  0.34873364136E+02 -0.16412909233E+02  0.12057232372E+04  0.12063391148E+04  0.00000000000E+00 0.  1.
<mgrwt>
<rscale>  2 0.11243335E+03</rscale>
<asrwt>0</asrwt>
<pdfrwt beam="1">  1       21 0.36018357E+00 0.11243335E+03</pdfrwt>
<pdfrwt beam="2">  1       21 0.12588628E-02 0.11243335E+03</pdfrwt>
<totfact> 0.43931571E+04</totfact>
</mgrwt>
</event>
<event>
 5    1  0.1745726E+000  0.6949119E+02  0.7546771E-02  0.1361832E+00
         21   -1    0    0  501  502  0.00000000000E+00  0.00000000000E+00  0.38906284679E+02  0.38906284679E+02  0.00000000000E+00 0.  1.
         21   -1    0    0  502  503 -0.00000000000E+00 -0.00000000000E+00 -0.20308429971E+03  0.20308429971E+03  0.00000000000E+00 0. -1.
         24    1    1    2    0    0  0.38746159361E+02  0.17886496716E+02 -0.51817927488E+02  0.10475449963E+03  0.80419002446E+02 0.  1.
          1    1    1    2  501    0 -0.17753237521E+02 -0.20117227785E+02 -0.43484524798E+01  0.27180679447E+02  0.00000000000E+00 0. -1.
         -2    1    1    2    0  503 -0.20992921840E+02  0.22307310692E+01 -0.10801163506E+03  0.11005540531E+03  0.00000000000E+00 0.  1.
<mgrwt>
<rscale>  2 0.69491193E+02</rscale>
<asrwt>0</asrwt>
<pdfrwt beam="1">  1       21 0.59855822E-02 0.69491193E+02</pdfrwt>
<pdfrwt beam="2">  1       21 0.31243739E-01 0.69491193E+02</pdfrwt>
<totfact> 0.18973394E+06</totfact>
</mgrwt>
</event>
<event>
 5    1  0.1745726E+000  0.1365342E+03  0.7546771E-02  0.1218070E+00
         21   -1    0    0  501  502  0.00000000000E+00  0.00000000000E+00  0.20283187854E+02  0.20283187854E+02  0.00000000000E+00 0. -1.
         21   -1    0    0  502  503 -0.00000000000E+00 -0.00000000000E+00 -0.11007529860E+04  0.11007529860E+04  0.00000000000E+00 0.  1.
         24    1    1    2    0    0 -0.24554674155E+02 -0.56429643131E+02 -0.43047795524E+03  0.44222813406E+03  0.80419002446E+02 0.  1.
          1    1    1    2  501    0 -0.67608405883E+02  0.91607208899E+01 -0.11364889762E+03  0.13255522353E+03  0.00000000000E+00 0. -1.
         -2    1    1    2    0  503  0.92163080038E+02  0.47268922241E+02 -0.53634294530E+03  0.54625281629E+03  0.00000000000E+00 0.  1.
<mgrwt>
<rscale>  2 0.13653420E+03</rscale>
<asrwt>0</asrwt>
<pdfrwt beam="1">  1       21 0.31204905E-02 0.13653420E+03</pdfrwt>
<pdfrwt beam="2">  1       21 0.16934661E+00 0.13653420E+03</pdfrwt>
<totfact> 0.13145341E+05</totfact>
</mgrwt>
</event>
<event>
 5    1  0.1745726E+000  0.1227058E+03  0.7546771E-02  0.1238699E+00
         21   -1    0    0  501  502  0.00000000000E+00  0.00000000000E+00  0.10861005620E+03  0.10861005620E+03  0.00000000000E+00 0.  1.
         21   -1    0    0  502  503 -0.00000000000E+00 -0.00000000000E+00 -0.15911259842E+03  0.15911259842E+03  0.00000000000E+00 0. -1.
         24    1    1    2    0    0  0.32792637758E+02  0.65017425449E+01 -0.18539696007E+02  0.89042495639E+02  0.80419002446E+02 0.  1.
          1    1    1    2  501    0 -0.43076503685E+02  0.69423562095E+02  0.22421076440E+02  0.84722610987E+02  0.00000000000E+00 0. -1.
         -2    1    1    2    0  503  0.10283865927E+02 -0.75925304640E+02 -0.54383922655E+02  0.93957548001E+02  0.00000000000E+00 0.  1.
<mgrwt>
<rscale>  2 0.12270581E+03</rscale>
<asrwt>0</asrwt>
<pdfrwt beam="1">  1       21 0.16709240E-01 0.12270581E+03</pdfrwt>
<pdfrwt beam="2">  1       21 0.24478861E-01 0.12270581E+03</pdfrwt>
<totfact> 0.51189300E+05</totfact>
</mgrwt>
</event>
<event>
 5    1  0.1745726E+000  0.1156548E+03  0.7546771E-02  0.1250442E+00
         21   -1    0    0  503  502  0.00000000000E+00  0.00000000000E+00  0.37212954843E+03  0.37212954843E+03  0.00000000000E+00 0.  1.
         21   -1    0    0  501  503 -0.00000000000E+00 -0.00000000000E+00 -0.96257133750E+02  0.96257133750E+02  0.00000000000E+00 0.  1.
         24    1    1    2    0    0 -0.10391193005E+02 -0.46385763493E+02  0.26211444630E+02  0.97025108765E+02  0.80419002446E+02 0.  1.
          1    1    1    2  501    0  0.10414880344E+02 -0.45160424331E+02 -0.43912578800E+02  0.63845502858E+02  0.00000000000E+00 0. -1.
         -2    1    1    2    0  502 -0.23687338029E-01  0.91546187824E+02  0.29357354885E+03  0.30751607055E+03  0.00000000000E+00 0.  1.
<mgrwt>
<rscale>  2 0.11565475E+03</rscale>
<asrwt>0</asrwt>
<pdfrwt beam="1">  1       21 0.57250699E-01 0.11565475E+03</pdfrwt>
<pdfrwt beam="2">  1       21 0.14808790E-01 0.11565475E+03</pdfrwt>
<totfact> 0.11836635E+05</totfact>
</mgrwt>
</event>
<event>
 5    1  0.1745726E+000  0.7279305E+02  0.7546771E-02  0.1350845E+00
         21   -1    0    0  501  502  0.00000000000E+00  0.00000000000E+00  0.94797398374E+02  0.94797398374E+02  0.00000000000E+00 0.  1.
         21   -1    0    0  502  503 -0.00000000000E+00 -0.00000000000E+00 -0.11218276723E+03  0.11218276723E+03  0.00000000000E+00 0. -1.
         24    1    1    2    0    0 -0.43179203411E+02 -0.12442048375E+02  0.62108273772E+02  0.11110311337E+03  0.80419002446E+02 0.  1.
          1    1    1    2  501    0  0.27735706068E+02 -0.70285493021E+01 -0.39100619276E+02  0.48451298477E+02  0.00000000000E+00 0. -1.
         -2    1    1    2    0  503  0.15443497343E+02  0.19470597677E+02 -0.40393023352E+02  0.47425753759E+02  0.00000000000E+00 0.  1.
<mgrwt>
<rscale>  2 0.72793045E+02</rscale>
<asrwt>0</asrwt>
<pdfrwt beam="1">  1       21 0.14584215E-01 0.72793045E+02</pdfrwt>
<pdfrwt beam="2">  1       21 0.17258887E-01 0.72793045E+02</pdfrwt>
<totfact> 0.12342043E+06</totfact>
</mgrwt>
</event>
<event>
 5    1  0.1745726E+000  0.7832789E+02  0.7546771E-02  0.1333865E+00
         21   -1    0    0  503  502  0.00000000000E+00  0.00000000000E+00  0.38176513156E+03  0.38176513156E+03  0.00000000000E+00 0. -1.
         21   -1    0    0  501  503 -0.00000000000E+00 -0.00000000000E+00 -0.25735693506E+02  0.25735693506E+02  0.00000000000E+00 0.  1.
         24    1    1    2    0    0 -0.17325013914E+02  0.32106400562E+02  0.15229093428E+03  0.17604181800E+03  0.80419002446E+02 0.  0.
          1    1    1    2  501    0 -0.49199783757E+01 -0.43207904763E+02  0.23338508311E+02  0.49353978476E+02  0.00000000000E+00 0. -1.
         -2    1    1    2    0  502  0.22244992290E+02  0.11101504201E+02  0.18039999546E+03  0.18210502859E+03  0.00000000000E+00 0.  1.
<mgrwt>
<rscale>  2 0.78327885E+02</rscale>
<asrwt>0</asrwt>
<pdfrwt beam="1">  1       21 0.58733093E-01 0.78327885E+02</pdfrwt>
<pdfrwt beam="2">  1       21 0.39593377E-02 0.78327885E+02</pdfrwt>
<totfact> 0.10758806E+06</totfact>
</mgrwt>
</event>
<event>
 5    1  0.1745726E+000  0.8378324E+02  0.7546771E-02  0.1318645E+00
         21   -1    0    0  503  502  0.00000000000E+00  0.00000000000E+00  0.11000572699E+03  0.11000572699E+03  0.00000000000E+00 0.  1.
         21   -1    0    0  501  503 -0.00000000000E+00 -0.00000000000E+00 -0.84928756799E+02  0.84928756799E+02  0.00000000000E+00 0. -1.
         24    1    1    2    0    0 -0.26887418674E+02 -0.24842333644E+01  0.21270562022E+02  0.87457175014E+02  0.80419002446E+02 0. -1.
          1    1    1    2  501    0  0.48811238832E+02  0.21854333046E+02 -0.31152801696E+02  0.61892212456E+02  0.00000000000E+00 0. -1.
         -2    1    1    2    0  502 -0.21923820158E+02 -0.19370099682E+02  0.34959209865E+02  0.45585096318E+02  0.00000000000E+00 0.  1.
<mgrwt>
<rscale>  2 0.83783242E+02</rscale>
<asrwt>0</asrwt>
<pdfrwt beam="1">  1       21 0.16923958E-01 0.83783242E+02</pdfrwt>
<pdfrwt beam="2">  1       21 0.13065962E-01 0.83783242E+02</pdfrwt>
<totfact> 0.15598349E+06</totfact>
</mgrwt>
</event>
<event>
 5    1  0.1745726E+000  0.7303974E+02  0.7546771E-02  0.1350051E+00
         21   -1    0    0  501  502  0.00000000000E+00  0.00000000000E+00  0.46602465119E+03  0.46602465119E+03  0.00000000000E+00 0.  1.
         21   -1    0    0  502  503 -0.00000000000E+00 -0.00000000000E+00 -0.31592085920E+02  0.31592085920E+02  0.00000000000E+00 0.  1.
         24    1    1    2    0    0  0.22517235782E+02 -0.13299288605E+02  0.38684221280E+03  0.39597728539E+03  0.80419002446E+02 0.  1.
          1    1    1    2  501    0 -0.29952633570E+02 -0.14114038052E+02  0.61625231590E+02  0.69957383430E+02  0.00000000000E+00 0. -1.
         -2    1    1    2    0  503  0.74353977872E+01  0.27413326657E+02 -0.14034879127E+02  0.31682068284E+02  0.00000000000E+00 0.  1.
<mgrwt>
<rscale>  2 0.73039736E+02</rscale>
<asrwt>0</asrwt>
<pdfrwt beam="1">  1       21 0.71696096E-01 0.73039736E+02</pdfrwt>
<pdfrwt beam="2">  1       21 0.48603212E-02 0.73039736E+02</pdfrwt>
<totfact> 0.50286773E+05</totfact>
</mgrwt>
</event>
<event>
 5    1  0.1745726E+000  0.1167590E+03  0.7546771E-02  0.1248541E+00
         21   -1    0    0  501  502  0.00000000000E+00  0.00000000000E+00  0.31156754280E+03  0.31156754280E+03  0.00000000000E+00 0. -1.
         21   -1    0    0  502  503 -0.00000000000E+00 -0.00000000000E+00 -0.39045231283E+03  0.39045231283E+03  0.00000000000E+00 0.  1.
         24    1    1    2    0    0  0.56856220837E+02 -0.35533617863E+02 -0.32508043173E+03  0.34152565189E+03  0.80419002446E+02 0.  1.
          1    1    1    2  501    0 -0.42673554370E+02 -0.36036747117E+02  0.27606225036E+03  0.28165589903E+03  0.00000000000E+00 0. -1.
         -2    1    1    2    0  503 -0.14182666467E+02  0.71570364980E+02 -0.29866588652E+02  0.78838304707E+02  0.00000000000E+00 0.  1.
<mgrwt>
<rscale>  2 0.11675903E+03</rscale>
<asrwt>0</asrwt>
<pdfrwt beam="1">  1       21 0.47933468E-01 0.11675903E+03</pdfrwt>
<pdfrwt beam="2">  1       21 0.60069586E-01 0.11675903E+03</pdfrwt>
<totfact> 0.11403639E+04</totfact>
</mgrwt>
</event>
<event>
 5    1  0.1745726E+000  0.9313354E+02  0.7546771E-02  0.1295436E+00
         21   -1    0    0  501  502  0.00000000000E+00  0.00000000000E+00  0.16592263121E+02  0.16592263121E+02  0.00000000000E+00 0.  1.
         21   -1    0    0  502  503 -0.00000000000E+00 -0.00000000000E+00 -0.57486517030E+03  0.57486517030E+03  0.00000000000E+00 0.  1.
         24    1    1    2    0    0 -0.74768716884E+02  0.34320394559E+00 -0.24831268344E+03  0.27150853306E+03  0.80419002446E+02 0.  1.
          1    1    1    2  501    0  0.21405523825E+02 -0.73632741444E+01 -0.57089185338E+02  0.61413266798E+02  0.00000000000E+00 0. -1.
         -2    1    1    2    0  503  0.53363193059E+02  0.70200701988E+01 -0.25287103840E+03  0.25853563356E+03  0.00000000000E+00 0.  1.
<mgrwt>
<rscale>  2 0.93133535E+02</rscale>
<asrwt>0</asrwt>
<pdfrwt beam="1">  1       21 0.25526558E-02 0.93133535E+02</pdfrwt>
<pdfrwt beam="2">  1       21 0.88440799E-01 0.93133535E+02</pdfrwt>
<totfact> 0.90785350E+05</totfact>
</mgrwt>
</event>
<event>
 5    1  0.1745726E+000  0.1037868E+03  0.7546771E-02  0.1272529E+00
         21   -1    0    0  501  502  0.00000000000E+00  0.00000000000E+00  0.89858815613E+02  0.89858815613E+02  0.00000000000E+00 0. -1.
         21   -1    0    0  502  503 -0.00000000000E+00 -0.00000000000E+00 -0.17057434075E+03  0.17057434075E+03  0.00000000000E+00 0.  1.
         24    1    1    2    0    0 -0.52594007787E+02 -0.14902028883E+01 -0.10894110386E+03  0.14527123055E+03  0.80419002446E+02 0.  1.
          1    1    1    2  501    0 -0.26145913247E+02 -0.16214971585E+02  0.10714343852E+02  0.32578079243E+02  0.00000000000E+00 0. -1.
         -2    1    1    2    0  503  0.78739921034E+02  0.17705174473E+02  0.17511234875E+02  0.82583846571E+02  0.00000000000E+00 0.  1.
<mgrwt>
<rscale>  2 0.10378679E+03</rscale>
<asrwt>0</asrwt>
<pdfrwt beam="1">  1       21 0.13824433E-01 0.10378679E+03</pdfrwt>
<pdfrwt beam="2">  1       21 0.26242206E-01 0.10378679E+03</pdfrwt>
<totfact> 0.63162260E+05</totfact>
</mgrwt>
</event>
<event>
 5    1  0.1745726E+000  0.6999098E+02  0.7546771E-02  0.1360124E+00
         21   -1    0    0  501  502  0.00000000000E+00  0.00000000000E+00  0.10545471089E+02  0.10545471089E+02  0.00000000000E+00 0.  1.
         21   -1    0    0  502  503 -0.00000000000E+00 -0.00000000000E+00 -0.59850209609E+03  0.59850209609E+03  0.00000000000E+00 0. -1.
         24    1    1    2    0    0  0.41856718286E+02  0.16277683237E+02 -0.31680219176E+03  0.32992088824E+03  0.80419002446E+02 0. -1.
          1    1    1    2  501    0 -0.23670730447E+02 -0.31231390048E+00 -0.38350838224E+02  0.45068701028E+02  0.00000000000E+00 0. -1.
         -2    1    1    2    0  503 -0.18185987839E+02 -0.15965369336E+02 -0.23280359502E+03  0.23405797792E+03  0.00000000000E+00 0.  1.
<mgrwt>
<rscale>  2 0.69990982E+02</rscale>
<asrwt>0</asrwt>
<pdfrwt beam="1">  1       21 0.16223809E-02 0.69990982E+02</pdfrwt>
<pdfrwt beam="2">  1       21 0.92077206E-01 0.69990982E+02</pdfrwt>
<totfact> 0.16999092E+06</totfact>
</mgrwt>
</event>
<event>
 5    1  0.1745726E+000  0.6671266E+02  0.7546771E-02  0.1371643E+00
         21   -1    0    0  503  502  0.00000000000E+00  0.00000000000E+00  0.10722539246E+03  0.10722539246E+03  0.00000000000E+00 0.  1.
         21   -1    0    0  501  503 -0.00000000000E+00 -0.00000000000E+00 -0.62059237542E+02  0.62059237542E+02  0.00000000000E+00 0.  1.
         24    1    1    2    0    0 -0.14818881172E+02 -0.37580720649E+02  0.63054505521E+01  0.90215766165E+02  0.80419002446E+02 0.  1.
          1    1    1    2  501    0  0.14345185209E+02  0.14682479446E+02 -0.11653998679E+02  0.23604559445E+02  0.00000000000E+00 0. -1.
         -2    1    1    2    0  502  0.47369596224E+00  0.22898241203E+02  0.50514703048E+02  0.55464304396E+02  0.00000000000E+00 0.  1.
<mgrwt>
<rscale>  2 0.66712664E+02</rscale>
<asrwt>0</asrwt>
<pdfrwt beam="1">  1       21 0.16496214E-01 0.66712664E+02</pdfrwt>
<pdfrwt beam="2">  1       21 0.95475750E-02 0.66712664E+02</pdfrwt>
<totfact> 0.27850342E+06</totfact>
</mgrwt>
</event>
<event>
 5    1  0.1745726E+000  0.7708218E+02  0.7546771E-02  0.1337542E+00
         21   -1    0    0  501  502  0.00000000000E+00  0.00000000000E+00  0.11071599790E+03  0.11071599790E+03  0.00000000000E+00 0.  1.
         21   -1    0    0  502  503 -0.00000000000E+00 -0.00000000000E+00 -0.87967001460E+02  0.87967001460E+02  0.00000000000E+00 0. -1.
         24    1    1    2    0    0  0.23621043899E+02  0.30331571456E+02  0.41899362669E+02  0.98492286441E+02  0.80419002446E+02 0.  1.
          1    1    1    2  501    0 -0.39153667863E+02 -0.11893892932E+02  0.26369483686E+02  0.48680838798E+02  0.00000000000E+00 0. -1.
         -2    1    1    2    0  503  0.15532623964E+02 -0.18437678524E+02 -0.45519849910E+02  0.51509874126E+02  0.00000000000E+00 0.  1.
<mgrwt>
<rscale>  2 0.77082176E+02</rscale>
<asrwt>0</asrwt>
<pdfrwt beam="1">  1       21 0.17033230E-01 0.77082176E+02</pdfrwt>
<pdfrwt beam="2">  1       21 0.13533385E-01 0.77082176E+02</pdfrwt>
<totfact> 0.14451172E+06</totfact>
</mgrwt>
</event>
<event>
 5    1  0.1745726E+000  0.7590860E+02  0.7546771E-02  0.1341080E+00
         21   -1    0    0  503  502  0.00000000000E+00  0.00000000000E+00  0.26176223780E+03  0.26176223780E+03  0.00000000000E+00 0. -1.
         21   -1    0    0  501  503 -0.00000000000E+00 -0.00000000000E+00 -0.39226116015E+02  0.39226116015E+02  0.00000000000E+00 0. -1.
         24    1    1    2    0    0  0.26694103995E+01 -0.11405829797E+02  0.19306174159E+03  0.20946902092E+03  0.80419002446E+02 0. -1.
          1    1    1    2  501    0 -0.33563891189E+02  0.19226345327E+02 -0.10801146214E+02  0.40160327512E+02  0.00000000000E+00 0. -1.
         -2    1    1    2    0  502  0.30894480790E+02 -0.78205155299E+01  0.40275526418E+02  0.51359005390E+02  0.00000000000E+00 0.  1.
<mgrwt>
<rscale>  2 0.75908596E+02</rscale>
<asrwt>0</asrwt>
<pdfrwt beam="1">  1       21 0.40271112E-01 0.75908596E+02</pdfrwt>
<pdfrwt beam="2">  1       21 0.60347872E-02 0.75908596E+02</pdfrwt>
<totfact> 0.11490145E+06</totfact>
</mgrwt>
</event>
<event>
 5    1  0.1745726E+000  0.6612003E+02  0.7546771E-02  0.1373807E+00
         21   -1    0    0  503  502  0.00000000000E+00  0.00000000000E+00  0.25809996523E+02  0.25809996523E+02  0.00000000000E+00 0. -1.
         21   -1    0    0  501  503 -0.00000000000E+00 -0.00000000000E+00 -0.17078298954E+03  0.17078298954E+03  0.00000000000E+00 0.  1.
         24    1    1    2    0    0 -0.32152056276E+02  0.24509793186E+02 -0.10262222531E+03  0.13650282695E+03  0.80419002446E+02 0. -1.
          1    1    1    2  501    0  0.20228920446E+02 -0.77506517150E+01 -0.25811486961E+02  0.33697398765E+02  0.00000000000E+00 0. -1.
         -2    1    1    2    0  502  0.11923135829E+02 -0.16759141471E+02 -0.16539280746E+02  0.26392760342E+02  0.00000000000E+00 0.  1.
<mgrwt>
<rscale>  2 0.66120027E+02</rscale>
<asrwt>0</asrwt>
<pdfrwt beam="1">  1       21 0.39707686E-02 0.66120027E+02</pdfrwt>
<pdfrwt beam="2">  1       21 0.26274307E-01 0.66120027E+02</pdfrwt>
<totfact> 0.51573702E+06</totfact>
</mgrwt>
</event>
<event>
 5    1  0.1745726E+000  0.1071902E+03  0.7546771E-02  0.1265863E+00
         21   -1    0    0  501  502  0.00000000000E+00  0.00000000000E+00  0.16001294788E+02  0.16001294788E+02  0.00000000000E+00 0.  1.
         21   -1    0    0  502  503 -0.00000000000E+00 -0.00000000000E+00 -0.86597623012E+03  0.86597623012E+03  0.00000000000E+00 0.  1.
         24    1    1    2    0    0 -0.74956760548E+02  0.24981731423E+02 -0.26428306532E+03  0.28732448108E+03  0.80419002446E+02 0.  1.
          1    1    1    2  501    0  0.61545941997E+02 -0.45912193182E+02 -0.39982743821E+03  0.40713365472E+03  0.00000000000E+00 0. -1.
         -2    1    1    2    0  503  0.13410818551E+02  0.20930461759E+02 -0.18586443180E+03  0.18751938911E+03  0.00000000000E+00 0.  1.
<mgrwt>
<rscale>  2 0.10719022E+03</rscale>
<asrwt>0</asrwt>
<pdfrwt beam="1">  1       21 0.24617386E-02 0.10719022E+03</pdfrwt>
<pdfrwt beam="2">  1       21 0.13322706E+00 0.10719022E+03</pdfrwt>
<totfact> 0.36478869E+05</totfact>
</mgrwt>
</event>
<event>
 5    1  0.1745726E+000  0.8637684E+02  0.7546771E-02  0.1311871E+00
         21   -1    0    0  501  502  0.00000000000E+00  0.00000000000E+00  0.39701431211E+02  0.39701431211E+02  0.00000000000E+00 0. -1.
         21   -1    0    0  502  503 -0.00000000000E+00 -0.00000000000E+00 -0.25863544511E+03  0.25863544511E+03  0.00000000000E+00 0.  1.
         24    1    1    2    0    0 -0.39839156084E+02 -0.10301963984E+02 -0.10127133321E+03  0.13570699209E+03  0.80419002446E+02 0.  1.
          1    1    1    2  501    0  0.20375138717E+02  0.41164219721E+02 -0.74458002112E+01  0.46530411601E+02  0.00000000000E+00 0. -1.
         -2    1    1    2    0  503  0.19464017367E+02 -0.30862255737E+02 -0.11021688048E+03  0.11609947262E+03  0.00000000000E+00 0.  1.
<mgrwt>
<rscale>  2 0.86376837E+02</rscale>
<asrwt>0</asrwt>
<pdfrwt beam="1">  1       21 0.61079128E-02 0.86376837E+02</pdfrwt>
<pdfrwt beam="2">  1       21 0.39790067E-01 0.86376837E+02</pdfrwt>
<totfact> 0.11567349E+06</totfact>
</mgrwt>
</event>
<event>
 5    1  0.1745726E+000  0.6966540E+02  0.7546771E-02  0.1361235E+00
         21   -1    0    0  501  502  0.00000000000E+00  0.00000000000E+00  0.29747089541E+03  0.29747089541E+03  0.00000000000E+00 0.  1.
         21   -1    0    0  502  503 -0.00000000000E+00 -0.00000000000E+00 -0.26570135517E+02  0.26570135517E+02  0.00000000000E+00 0.  1.
         24    1    1    2    0    0  0.16954008650E+02 -0.91238257457E+01  0.10918185433E+03  0.13696195047E+03  0.80419002446E+02 0.  1.
          1    1    1    2  501    0  0.33457984945E+01  0.28429138153E+02  0.15585000063E+03  0.15845703822E+03  0.00000000000E+00 0. -1.
         -2    1    1    2    0  503 -0.20299807145E+02 -0.19305312407E+02  0.58689049309E+01  0.28622042246E+02  0.00000000000E+00 0.  1.
<mgrwt>
<rscale>  2 0.69665403E+02</rscale>
<asrwt>0</asrwt>
<pdfrwt beam="1">  1       21 0.45764751E-01 0.69665403E+02</pdfrwt>
<pdfrwt beam="2">  1       21 0.40877134E-02 0.69665403E+02</pdfrwt>
<totfact> 0.16926914E+06</totfact>
</mgrwt>
</event>
<event>
 5    1  0.1745726E+000  0.6817548E+02  0.7546771E-02  0.1366410E+00
         21   -1    0    0  501  502  0.00000000000E+00  0.00000000000E+00  0.65538454812E+02  0.65538454812E+02  0.00000000000E+00 0. -1.
         21   -1    0    0  502  503 -0.00000000000E+00 -0.00000000000E+00 -0.74759188895E+02  0.74759188895E+02  0.00000000000E+00 0.  1.
         24    1    1    2    0    0  0.19164551220E+02  0.21895397999E+02 -0.80672367666E+01  0.85901017109E+02  0.80419002446E+02 0.  1.
          1    1    1    2  501    0 -0.30124762542E+02 -0.47741546259E+01  0.88236541278E+01  0.31751389619E+02  0.00000000000E+00 0. -1.
         -2    1    1    2    0  503  0.10960211322E+02 -0.17121243373E+02 -0.99771514443E+01  0.22645236978E+02  0.00000000000E+00 0.  1.
<mgrwt>
<rscale>  2 0.68175482E+02</rscale>
<asrwt>0</asrwt>
<pdfrwt beam="1">  1       21 0.10082839E-01 0.68175482E+02</pdfrwt>
<pdfrwt beam="2">  1       21 0.11501414E-01 0.68175482E+02</pdfrwt>
<totfact> 0.47890819E+06</totfact>
</mgrwt>
</event>
<event>
 5    1  0.1745726E+000  0.1528982E+03  0.7546771E-02  0.1196956E+00
         21   -1    0    0  503  502  0.00000000000E+00  0.00000000000E+00  0.19171696741E+03  0.19171696741E+03  0.00000000000E+00 0.  1.
         21   -1    0    0  501  503 -0.00000000000E+00 -0.00000000000E+00 -0.18352361012E+03  0.18352361012E+03  0.00000000000E+00 0. -1.
         24    1    1    2    0    0  0.51663780354E+02 -0.12396805097E+00  0.10603290143E+03  0.14275627380E+03  0.80419002446E+02 0.  1.
          1    1    1    2  501    0  0.12120634722E+02 -0.94951943305E+02 -0.35275666131E+02  0.10201545934E+03  0.00000000000E+00 0. -1.
         -2    1    1    2    0  502 -0.63784415077E+02  0.95075911356E+02 -0.62563878009E+02  0.13046884440E+03  0.00000000000E+00 0.  1.
<mgrwt>
<rscale>  2 0.15289824E+03</rscale>
<asrwt>0</asrwt>
<pdfrwt beam="1">  1       21 0.29494918E-01 0.15289824E+03</pdfrwt>
<pdfrwt beam="2">  1       21 0.28234401E-01 0.15289824E+03</pdfrwt>
<totfact> 0.13385901E+05</totfact>
</mgrwt>
</event>
<event>
 5    1  0.1745726E+000  0.9259677E+02  0.7546771E-02  0.1296682E+00
         21   -1    0    0  501  502  0.00000000000E+00  0.00000000000E+00  0.40766235559E+02  0.40766235559E+02  0.00000000000E+00 0. -1.
         21   -1    0    0  502  503 -0.00000000000E+00 -0.00000000000E+00 -0.23039174696E+03  0.23039174696E+03  0.00000000000E+00 0. -1.
         24    1    1    2    0    0 -0.35398068951E+02  0.49318063531E+02 -0.66256681327E+02  0.12059211604E+03  0.80419002446E+02 0. -1.
          1    1    1    2  501    0 -0.78361093331E+01 -0.39274273700E+02 -0.43042369994E+02  0.58792166135E+02  0.00000000000E+00 0. -1.
         -2    1    1    2    0  503  0.43234178284E+02 -0.10043789832E+02 -0.80326460076E+02  0.91773700341E+02  0.00000000000E+00 0.  1.
<mgrwt>
<rscale>  2 0.92596773E+02</rscale>
<asrwt>0</asrwt>
<pdfrwt beam="1">  1       21 0.62717286E-02 0.92596773E+02</pdfrwt>
<pdfrwt beam="2">  1       21 0.35444884E-01 0.92596773E+02</pdfrwt>
<totfact> 0.13905034E+06</totfact>
</mgrwt>
</event>
<event>
 5    1  0.1745726E+000  0.8605390E+02  0.7546771E-02  0.1312699E+00
         21   -1    0    0  501  502  0.00000000000E+00  0.00000000000E+00  0.13528928360E+03  0.13528928360E+03  0.00000000000E+00 0.  1.
         21   -1    0    0  502  503 -0.00000000000E+00 -0.00000000000E+00 -0.10649652330E+03  0.10649652330E+03  0.00000000000E+00 0. -1.
         24    1    1    2    0    0 -0.46898471029E+02  0.14544986771E+02  0.55811909138E+02  0.10951350776E+03  0.80419002446E+02 0.  1.
          1    1    1    2  501    0  0.36666667751E+02 -0.37686661056E+02  0.36427504567E+02  0.63966335165E+02  0.00000000000E+00 0. -1.
         -2    1    1    2    0  503  0.10231803278E+02  0.23141674285E+02 -0.63446653407E+02  0.68305963982E+02  0.00000000000E+00 0.  1.
<mgrwt>
<rscale>  2 0.86053902E+02</rscale>
<asrwt>0</asrwt>
<pdfrwt beam="1">  1       21 0.20813736E-01 0.86053902E+02</pdfrwt>
<pdfrwt beam="2">  1       21 0.16384080E-01 0.86053902E+02</pdfrwt>
<totfact> 0.71664691E+05</totfact>
</mgrwt>
</event>
<event>
 5    1  0.1745726E+000  0.9124442E+02  0.7546771E-02  0.1299866E+00
         21   -1    0    0  501  502  0.00000000000E+00  0.00000000000E+00  0.38927489841E+03  0.38927489841E+03  0.00000000000E+00 0. -1.
         21   -1    0    0  502  503 -0.00000000000E+00 -0.00000000000E+00 -0.32697245969E+02  0.32697245969E+02  0.00000000000E+00 0. -1.
         24    1    1    2    0    0 -0.38592482234E+02 -0.20301605394E+02  0.55533256613E+02  0.10701725754E+03  0.80419002446E+02 0. -1.
          1    1    1    2  501    0  0.62820925546E+02  0.22385267282E+02  0.24385810862E+03  0.25281286759E+03  0.00000000000E+00 0. -1.
         -2    1    1    2    0  503 -0.24228443312E+02 -0.20836618885E+01  0.57186287203E+02  0.62142019249E+02  0.00000000000E+00 0.  1.
<mgrwt>
<rscale>  2 0.91244424E+02</rscale>
<asrwt>0</asrwt>
<pdfrwt beam="1">  1       21 0.59888442E-01 0.91244424E+02</pdfrwt>
<pdfrwt beam="2">  1       21 0.50303458E-02 0.91244424E+02</pdfrwt>
<totfact> 0.69691419E+05</totfact>
</mgrwt>
</event>
<event>
 5    1  0.1745726E+000  0.1461253E+03  0.7546771E-02  0.1205317E+00
         21   -1    0    0  503  502  0.00000000000E+00  0.00000000000E+00  0.91085516102E+02  0.91085516102E+02  0.00000000000E+00 0.  1.
         21   -1    0    0  501  503 -0.00000000000E+00 -0.00000000000E+00 -0.37742555504E+03  0.37742555504E+03  0.00000000000E+00 0. -1.
         24    1    1    2    0    0  0.89702194200E+02  0.22338489901E+02 -0.21057526316E+03  0.24362809605E+03  0.80419002446E+02 0. -1.
          1    1    1    2  501    0  0.21920864005E+02  0.37227675507E+02 -0.87735960287E+02  0.97795822149E+02  0.00000000000E+00 0. -1.
         -2    1    1    2    0  502 -0.11162305821E+03 -0.59566165408E+02  0.11971184508E+02  0.12708715294E+03  0.00000000000E+00 0.  1.
<mgrwt>
<rscale>  2 0.14612528E+03</rscale>
<asrwt>0</asrwt>
<pdfrwt beam="1">  1       21 0.14013156E-01 0.14612528E+03</pdfrwt>
<pdfrwt beam="2">  1       21 0.58065470E-01 0.14612528E+03</pdfrwt>
<totfact> 0.12544469E+05</totfact>
</mgrwt>
</event>
<event>
 5    1  0.1745726E+000  0.9570135E+02  0.7546771E-02  0.1289604E+00
         21   -1    0    0  501  502  0.00000000000E+00  0.00000000000E+00  0.38137685389E+03  0.38137685389E+03  0.00000000000E+00 0.  1.
         21   -1    0    0  502  503 -0.00000000000E+00 -0.00000000000E+00 -0.76291071225E+02  0.76291071225E+02  0.00000000000E+00 0.  1.
         24    1    1    2    0    0 -0.49666240010E+02  0.34947561858E+02  0.31681864219E+03  0.33245952456E+03  0.80419002446E+02 0.  1.
          1    1    1    2  501    0  0.23411922912E+02  0.19313638190E+02  0.36884933495E+02  0.47766442965E+02  0.00000000000E+00 0. -1.
         -2    1    1    2    0  503  0.26254317098E+02 -0.54261200048E+02 -0.48617793022E+02  0.77441957589E+02  0.00000000000E+00 0.  1.
<mgrwt>
<rscale>  2 0.95701352E+02</rscale>
<asrwt>0</asrwt>
<pdfrwt beam="1">  1       21 0.58673361E-01 0.95701352E+02</pdfrwt>
<pdfrwt beam="2">  1       21 0.11737088E-01 0.95701352E+02</pdfrwt>
<totfact> 0.17116296E+05</totfact>
</mgrwt>
</event>
<event>
 5    1  0.1745726E+000  0.1019154E+03  0.7546771E-02  0.1276319E+00
         21   -1    0    0  501  502  0.00000000000E+00  0.00000000000E+00  0.11920896899E+03  0.11920896899E+03  0.00000000000E+00 0. -1.
         21   -1    0    0  502  503 -0.00000000000E+00 -0.00000000000E+00 -0.26236453577E+03  0.26236453577E+03  0.00000000000E+00 0. -1.
         24    1    1    2    0    0 -0.78746724461E+02 -0.10074458640E+02 -0.15322695398E+03  0.19038974949E+03  0.80419002446E+02 0. -1.
          1    1    1    2  501    0  0.50850023182E+02  0.27624752880E+02  0.88710752418E+02  0.10591718191E+03  0.00000000000E+00 0. -1.
         -2    1    1    2    0  503  0.27896701279E+02 -0.17550294240E+02 -0.78639365212E+02  0.85266573352E+02  0.00000000000E+00 0.  1.
<mgrwt>
<rscale>  2 0.10191538E+03</rscale>
<asrwt>0</asrwt>
<pdfrwt beam="1">  1       21 0.18339842E-01 0.10191538E+03</pdfrwt>
<pdfrwt beam="2">  1       21 0.40363774E-01 0.10191538E+03</pdfrwt>
<totfact> 0.16501241E+05</totfact>
</mgrwt>
</event>
<event>
 5    1  0.1745726E+000  0.7832029E+02  0.7546771E-02  0.1333887E+00
         21   -1    0    0  503  502  0.00000000000E+00  0.00000000000E+00  0.22381064563E+04  0.22381064563E+04  0.00000000000E+00 0.  1.
         21   -1    0    0  501  503 -0.00000000000E+00 -0.00000000000E+00 -0.31418965105E+01  0.31418965105E+01  0.00000000000E+00 0. -1.
         24    1    1    2    0    0  0.23560337263E+02 -0.51208679439E+02  0.12251074689E+04  0.12290374057E+04  0.80419002446E+02 0.  1.
          1    1    1    2  501    0 -0.19197723418E+02  0.23319573957E+02  0.24823696531E+03  0.25006788291E+03  0.00000000000E+00 0. -1.
         -2    1    1    2    0  502 -0.43626138454E+01  0.27889105482E+02  0.76162012556E+03  0.76214306417E+03  0.00000000000E+00 0.  1.
<mgrwt>
<rscale>  2 0.78320287E+02</rscale>
<asrwt>0</asrwt>
<pdfrwt beam="1">  1       21 0.34432280E+00 0.78320287E+02</pdfrwt>
<pdfrwt beam="2">  1       21 0.48337048E-03 0.78320287E+02</pdfrwt>
<totfact> 0.25429447E+05</totfact>
</mgrwt>
</event>
<event>
 5    1  0.1745726E+000  0.9519116E+02  0.7546771E-02  0.1290746E+00
         21   -1    0    0  501  502  0.00000000000E+00  0.00000000000E+00  0.95887365447E+02  0.95887365447E+02  0.00000000000E+00 0.  1.
         21   -1    0    0  502  503 -0.00000000000E+00 -0.00000000000E+00 -0.98286471125E+02  0.98286471125E+02  0.00000000000E+00 0. -1.
         24    1    1    2    0    0 -0.46050443039E+02  0.21401055761E+02  0.74968778782E+01  0.95404756821E+02  0.80419002446E+02 0. -1.
          1    1    1    2  501    0  0.44172902557E+02  0.23702218719E+02  0.69010300282E+01  0.50603010859E+02  0.00000000000E+00 0. -1.
         -2    1    1    2    0  503  0.18775404820E+01 -0.45103274481E+02 -0.16797013584E+02  0.48166068892E+02  0.00000000000E+00 0.  1.
<mgrwt>
<rscale>  2 0.95191161E+02</rscale>
<asrwt>0</asrwt>
<pdfrwt beam="1">  1       21 0.14751902E-01 0.95191161E+02</pdfrwt>
<pdfrwt beam="2">  1       21 0.15120995E-01 0.95191161E+02</pdfrwt>
<totfact> 0.15458437E+06</totfact>
</mgrwt>
</event>
<event>
 5    1  0.1745726E+000  0.8640838E+02  0.7546771E-02  0.1311790E+00
         21   -1    0    0  501  502  0.00000000000E+00  0.00000000000E+00  0.52493121041E+03  0.52493121041E+03  0.00000000000E+00 0.  1.
         21   -1    0    0  502  503 -0.00000000000E+00 -0.00000000000E+00 -0.26925943946E+02  0.26925943946E+02  0.00000000000E+00 0. -1.
         24    1    1    2    0    0  0.39214861784E+02 -0.52112580347E+02  0.88615893840E+02  0.13628469837E+03  0.80419002446E+02 0. -1.
          1    1    1    2  501    0 -0.18751044318E+02  0.42929453063E+02  0.32005966801E+03  0.32346982964E+03  0.00000000000E+00 0. -1.
         -2    1    1    2    0  503 -0.20463817466E+02  0.91831272842E+01  0.89329704620E+02  0.92102626344E+02  0.00000000000E+00 0.  1.
<mgrwt>
<rscale>  2 0.86408385E+02</rscale>
<asrwt>0</asrwt>
<pdfrwt beam="1">  1       21 0.80758640E-01 0.86408385E+02</pdfrwt>
<pdfrwt beam="2">  1       21 0.41424533E-02 0.86408385E+02</pdfrwt>
<totfact> 0.50478547E+05</totfact>
</mgrwt>
</event>
<event>
 5    1  0.1745726E+000  0.1249822E+03  0.7546771E-02  0.1235097E+00
         21   -1    0    0  503  502  0.00000000000E+00  0.00000000000E+00  0.43373269857E+03  0.43373269857E+03  0.00000000000E+00 0.  1.
         21   -1    0    0  501  503 -0.00000000000E+00 -0.00000000000E+00 -0.14094785570E+03  0.14094785570E+03  0.00000000000E+00 0. -1.
         24    1    1    2    0    0 -0.63181446834E+02 -0.77894095305E+02  0.20413130614E+03  0.24123886794E+03  0.80419002446E+02 0.  1.
          1    1    1    2  501    0 -0.11702285987E+02  0.30797237121E+02 -0.11061636222E+03  0.11541833867E+03  0.00000000000E+00 0. -1.
         -2    1    1    2    0  502  0.74883732820E+02  0.47096858183E+02  0.19926989896E+03  0.21802334765E+03  0.00000000000E+00 0.  1.
<mgrwt>
<rscale>  2 0.12498218E+03</rscale>
<asrwt>0</asrwt>
<pdfrwt beam="1">  1       21 0.66728107E-01 0.12498218E+03</pdfrwt>
<pdfrwt beam="2">  1       21 0.21684286E-01 0.12498218E+03</pdfrwt>
<totfact> 0.42341618E+04</totfact>
</mgrwt>
</event>
<event>
 5    1  0.1745726E+000  0.6256752E+02  0.7546771E-02  0.1387362E+00
         21   -1    0    0  501  502  0.00000000000E+00  0.00000000000E+00  0.26240610181E+03  0.26240610181E+03  0.00000000000E+00 0. -1.
         21   -1    0    0  502  503 -0.00000000000E+00 -0.00000000000E+00 -0.90294208044E+02  0.90294208044E+02  0.00000000000E+00 0.  1.
         24    1    1    2    0    0  0.86038934654E+00 -0.73851860324E+00  0.34826783695E+02  0.87643633519E+02  0.80419002446E+02 0. -1.
          1    1    1    2  501    0 -0.22234134502E+02 -0.45382643800E+01  0.19860874595E+03  0.19990094184E+03  0.00000000000E+00 0. -1.
         -2    1    1    2    0  503  0.21373745155E+02  0.52767829832E+01 -0.61323635877E+02  0.65155734497E+02  0.00000000000E+00 0.  1.
<mgrwt>
<rscale>  2 0.62567522E+02</rscale>
<asrwt>0</asrwt>
<pdfrwt beam="1">  1       21 0.40370169E-01 0.62567522E+02</pdfrwt>
<pdfrwt beam="2">  1       21 0.13891417E-01 0.62567522E+02</pdfrwt>
<totfact> 0.27408744E+05</totfact>
</mgrwt>
</event>
<event>
 5    1  0.1745726E+000  0.8307821E+02  0.7546771E-02  0.1320536E+00
         21   -1    0    0  501  502  0.00000000000E+00  0.00000000000E+00  0.30239619316E+02  0.30239619316E+02  0.00000000000E+00 0.  1.
         21   -1    0    0  502  503 -0.00000000000E+00 -0.00000000000E+00 -0.29190726047E+03  0.29190726047E+03  0.00000000000E+00 0.  1.
         24    1    1    2    0    0 -0.33077834888E+02  0.57674859152E+01 -0.96617160187E+02  0.13011340689E+03  0.80419002446E+02 0.  1.
          1    1    1    2  501    0  0.21145238234E+01  0.30925558818E+02 -0.14898302525E+02  0.34392162149E+02  0.00000000000E+00 0. -1.
         -2    1    1    2    0  503  0.30963311065E+02 -0.36693044733E+02 -0.15015217844E+03  0.15764131075E+03  0.00000000000E+00 0.  1.
<mgrwt>
<rscale>  2 0.83078210E+02</rscale>
<asrwt>0</asrwt>
<pdfrwt beam="1">  1       21 0.46522491E-02 0.83078210E+02</pdfrwt>
<pdfrwt beam="2">  1       21 0.44908810E-01 0.83078210E+02</pdfrwt>
<totfact> 0.14297137E+06</totfact>
</mgrwt>
</event>
<event>
 5    1  0.1745726E+000  0.8807510E+02  0.7546771E-02  0.1307581E+00
         21   -1    0    0  503  502  0.00000000000E+00  0.00000000000E+00  0.57539939622E+02  0.57539939622E+02  0.00000000000E+00 0. -1.
         21   -1    0    0  501  503 -0.00000000000E+00 -0.00000000000E+00 -0.32627475115E+03  0.32627475115E+03  0.00000000000E+00 0.  1.
         24    1    1    2    0    0  0.40399335998E+02  0.51412229120E+02 -0.29004668438E+03  0.30800912117E+03  0.80419002446E+02 0.  1.
          1    1    1    2  501    0 -0.15713894874E+02 -0.44012107217E+02  0.10745108210E+02  0.47952574741E+02  0.00000000000E+00 0. -1.
         -2    1    1    2    0  502 -0.24685441124E+02 -0.74001219030E+01  0.10566764640E+02  0.27852994859E+02  0.00000000000E+00 0.  1.
<mgrwt>
<rscale>  2 0.88075099E+02</rscale>
<asrwt>0</asrwt>
<pdfrwt beam="1">  1       21 0.88522982E-02 0.88075099E+02</pdfrwt>
<pdfrwt beam="2">  1       21 0.50196117E-01 0.88075099E+02</pdfrwt>
<totfact> 0.38641749E+05</totfact>
</mgrwt>
</event>
<event>
 5    1  0.1745726E+000  0.1278007E+03  0.7546771E-02  0.1230756E+00
         21   -1    0    0  501  502  0.00000000000E+00  0.00000000000E+00  0.82572421499E+02  0.82572421499E+02  0.00000000000E+00 0. -1.
         21   -1    0    0  502  503 -0.00000000000E+00 -0.00000000000E+00 -0.26163039709E+03  0.26163039709E+03  0.00000000000E+00 0.  1.
         24    1    1    2    0    0 -0.57906020610E+02  0.65929272064E+02 -0.14745077930E+03  0.18949597465E+03  0.80419002446E+02 0.  1.
          1    1    1    2  501    0 -0.16737071405E+02 -0.59325851774E+02  0.18742375236E+02  0.64427966578E+02  0.00000000000E+00 0. -1.
         -2    1    1    2    0  503  0.74643092015E+02 -0.66034202900E+01 -0.50349571530E+02  0.90278877365E+02  0.00000000000E+00 0.  1.
<mgrwt>
<rscale>  2 0.12780069E+03</rscale>
<asrwt>0</asrwt>
<pdfrwt beam="1">  1       21 0.12703450E-01 0.12780069E+03</pdfrwt>
<pdfrwt beam="2">  1       21 0.40250830E-01 0.12780069E+03</pdfrwt>
<totfact> 0.31927879E+05</totfact>
</mgrwt>
</event>
<event>
 5    1  0.1745726E+000  0.1835367E+03  0.7546771E-02  0.1164423E+00
         21   -1    0    0  501  502  0.00000000000E+00  0.00000000000E+00  0.25554718232E+04  0.25554718232E+04  0.00000000000E+00 0. -1.
         21   -1    0    0  502  503 -0.00000000000E+00 -0.00000000000E+00 -0.39594323100E+02  0.39594323100E+02  0.00000000000E+00 0.  1.
         24    1    1    2    0    0  0.54355284085E+02  0.22027320511E+01  0.43726542405E+03  0.44791474184E+03  0.80419002446E+02 0. -1.
          1    1    1    2  501    0 -0.13771673607E+03 -0.77175308338E+02  0.20089770258E+04  0.20151701213E+04  0.00000000000E+00 0. -1.
         -2    1    1    2    0  503  0.83361451986E+02  0.74972576287E+02  0.69635050195E+02  0.13198128310E+03  0.00000000000E+00 0.  1.
<mgrwt>
<rscale>  2 0.18353670E+03</rscale>
<asrwt>0</asrwt>
<pdfrwt beam="1">  1       21 0.39314938E+00 0.18353670E+03</pdfrwt>
<pdfrwt beam="2">  1       21 0.60914363E-02 0.18353670E+03</pdfrwt>
<totfact> 0.18715497E+03</totfact>
</mgrwt>
</event>
<event>
 5    1  0.1745726E+000  0.7250553E+02  0.7546771E-02  0.1351774E+00
         21   -1    0    0  503  502  0.00000000000E+00  0.00000000000E+00  0.51958401830E+02  0.51958401830E+02  0.00000000000E+00 0.  1.
         21   -1    0    0  501  503 -0.00000000000E+00 -0.00000000000E+00 -0.21833236590E+03  0.21833236590E+03  0.00000000000E+00 0. -1.
         24    1    1    2    0    0  0.14055693345E+02 -0.12000061766E+02 -0.87345711661E+02  0.12015845080E+03  0.80419002446E+02 0.  0.
          1    1    1    2  501    0 -0.37393465636E+02  0.11611199566E+02 -0.10686066290E+03  0.11380813900E+03  0.00000000000E+00 0. -1.
         -2    1    1    2    0  502  0.23337772292E+02  0.38886220021E+00  0.27832410485E+02  0.36324177937E+02  0.00000000000E+00 0.  1.
<mgrwt>
<rscale>  2 0.72505526E+02</rscale>
<asrwt>0</asrwt>
<pdfrwt beam="1">  1       21 0.79936002E-02 0.72505526E+02</pdfrwt>
<pdfrwt beam="2">  1       21 0.33589595E-01 0.72505526E+02</pdfrwt>
<totfact> 0.10170490E+06</totfact>
</mgrwt>
</event>
<event>
 5    1  0.1745726E+000  0.1766126E+03  0.7546771E-02  0.1171122E+00
         21   -1    0    0  501  502  0.00000000000E+00  0.00000000000E+00  0.42041315623E+03  0.42041315623E+03  0.00000000000E+00 0.  1.
         21   -1    0    0  502  503 -0.00000000000E+00 -0.00000000000E+00 -0.12314421679E+03  0.12314421679E+03  0.00000000000E+00 0.  1.
         24    1    1    2    0    0 -0.14412627715E+03 -0.30365119015E+02 -0.18777827862E+02  0.16886162084E+03  0.80419002446E+02 0.  1.
          1    1    1    2  501    0 -0.11573280266E+02 -0.18849091092E+02  0.10788343967E+03  0.11012749705E+03  0.00000000000E+00 0. -1.
         -2    1    1    2    0  503  0.15569955742E+03  0.49214210106E+02  0.20816332763E+03  0.26456825514E+03  0.00000000000E+00 0.  1.
<mgrwt>
<rscale>  2 0.17661259E+03</rscale>
<asrwt>0</asrwt>
<pdfrwt beam="1">  1       21 0.64678947E-01 0.17661259E+03</pdfrwt>
<pdfrwt beam="2">  1       21 0.18945264E-01 0.17661259E+03</pdfrwt>
<totfact> 0.56674903E+04</totfact>
</mgrwt>
</event>
<event>
 5    1  0.1745726E+000  0.6890102E+02  0.7546771E-02  0.1363871E+00
         21   -1    0    0  501  502  0.00000000000E+00  0.00000000000E+00  0.40622057482E+02  0.40622057482E+02  0.00000000000E+00 0. -1.
         21   -1    0    0  502  503 -0.00000000000E+00 -0.00000000000E+00 -0.14735232354E+03  0.14735232354E+03  0.00000000000E+00 0. -1.
         24    1    1    2    0    0 -0.10231700885E+02  0.45757569538E+01 -0.82746726288E+02  0.11593041844E+03  0.80419002446E+02 0. -1.
          1    1    1    2  501    0  0.33190199485E+02  0.27888184975E-01  0.62804095574E+01  0.33779189804E+02  0.00000000000E+00 0. -1.
         -2    1    1    2    0  503 -0.22958498600E+02 -0.46036451388E+01 -0.30263949326E+02  0.38264772772E+02  0.00000000000E+00 0.  1.
<mgrwt>
<rscale>  2 0.68901018E+02</rscale>
<asrwt>0</asrwt>
<pdfrwt beam="1">  1       21 0.62495474E-02 0.68901018E+02</pdfrwt>
<pdfrwt beam="2">  1       21 0.22669588E-01 0.68901018E+02</pdfrwt>
<totfact> 0.32143589E+06</totfact>
</mgrwt>
</event>
<event>
 5    1  0.1745726E+000  0.7011677E+02  0.7546771E-02  0.1359696E+00
         21   -1    0    0  501  502  0.00000000000E+00  0.00000000000E+00  0.69453440648E+02  0.69453440648E+02  0.00000000000E+00 0. -1.
         21   -1    0    0  502  503 -0.00000000000E+00 -0.00000000000E+00 -0.17890854973E+03  0.17890854973E+03  0.00000000000E+00 0.  1.
         24    1    1    2    0    0 -0.63337624684E+01 -0.23309445098E+02 -0.61780578750E+01  0.84195196604E+02  0.80419002446E+02 0. -1.
          1    1    1    2  501    0 -0.21734982158E+02  0.16749959398E+02  0.22278151998E+02  0.35345249266E+02  0.00000000000E+00 0. -1.
         -2    1    1    2    0  503  0.28068744626E+02  0.65594856995E+01 -0.12555520321E+03  0.12882154451E+03  0.00000000000E+00 0.  1.
<mgrwt>
<rscale>  2 0.70116773E+02</rscale>
<asrwt>0</asrwt>
<pdfrwt beam="1">  1       21 0.10685145E-01 0.70116773E+02</pdfrwt>
<pdfrwt beam="2">  1       21 0.27524392E-01 0.70116773E+02</pdfrwt>
<totfact> 0.90237576E+05</totfact>
</mgrwt>
</event>
<event>
 5    1  0.1745726E+000  0.8575171E+02  0.7546771E-02  0.1313478E+00
         21   -1    0    0  503  502  0.00000000000E+00  0.00000000000E+00  0.11125234274E+04  0.11125234274E+04  0.00000000000E+00 0.  1.
         21   -1    0    0  501  503 -0.00000000000E+00 -0.00000000000E+00 -0.21937001349E+02  0.21937001349E+02  0.00000000000E+00 0. -1.
         24    1    1    2    0    0 -0.15268865135E+02  0.57538051605E+02  0.26721824024E+03  0.28533588891E+03  0.80419002446E+02 0.  1.
          1    1    1    2  501    0 -0.13020341054E+02 -0.26026360470E+02  0.48395548287E+01  0.29501220507E+02  0.00000000000E+00 0. -1.
         -2    1    1    2    0  502  0.28289206189E+02 -0.31511691135E+02  0.81852863100E+03  0.81962331936E+03  0.00000000000E+00 0.  1.
<mgrwt>
<rscale>  2 0.85751711E+02</rscale>
<asrwt>0</asrwt>
<pdfrwt beam="1">  1       21 0.17115741E+00 0.85751711E+02</pdfrwt>
<pdfrwt beam="2">  1       21 0.33749241E-02 0.85751711E+02</pdfrwt>
<totfact> 0.11609719E+05</totfact>
</mgrwt>
</event>
<event>
 5    1  0.1745726E+000  0.1864416E+03  0.7546771E-02  0.1161710E+00
         21   -1    0    0  501  502  0.00000000000E+00  0.00000000000E+00  0.50979880053E+03  0.50979880053E+03  0.00000000000E+00 0. -1.
         21   -1    0    0  502  503 -0.00000000000E+00 -0.00000000000E+00 -0.79843693208E+02  0.79843693208E+02  0.00000000000E+00 0. -1.
         24    1    1    2    0    0 -0.17344656436E+03 -0.37834500629E+02  0.20909662326E+03  0.28583872016E+03  0.80419002446E+02 0. -1.
          1    1    1    2  501    0  0.15472911494E+03  0.29558838030E+02  0.23205822078E+03  0.28047431566E+03  0.00000000000E+00 0. -1.
         -2    1    1    2    0  503  0.18717449421E+02  0.82756625985E+01 -0.11199736716E+02  0.23329457919E+02  0.00000000000E+00 0.  1.
<mgrwt>
<rscale>  2 0.18644161E+03</rscale>
<asrwt>0</asrwt>
<pdfrwt beam="1">  1       21 0.78430583E-01 0.18644161E+03</pdfrwt>
<pdfrwt beam="2">  1       21 0.12283645E-01 0.18644161E+03</pdfrwt>
<totfact> 0.81150406E+04</totfact>
</mgrwt>
</event>
<event>
 5    1  0.1745726E+000  0.7787379E+02  0.7546771E-02  0.1335196E+00
         21   -1    0    0  501  502  0.00000000000E+00  0.00000000000E+00  0.24320413443E+04  0.24320413443E+04  0.00000000000E+00 0. -1.
         21   -1    0    0  502  503 -0.00000000000E+00 -0.00000000000E+00 -0.46489705470E+01  0.46489705470E+01  0.00000000000E+00 0.  1.
         24    1    1    2    0    0  0.23776201450E+02  0.49051065131E+02  0.19545184629E+04  0.19569315145E+04  0.80419002446E+02 0. -1.
          1    1    1    2  501    0 -0.20190912540E+02 -0.17143761794E+02  0.38975354745E+03  0.39065254289E+03  0.00000000000E+00 0. -1.
         -2    1    1    2    0  503 -0.35852889093E+01 -0.31907303337E+02  0.83120363463E+02  0.89106257496E+02  0.00000000000E+00 0.  1.
<mgrwt>
<rscale>  2 0.77873794E+02</rscale>
<asrwt>0</asrwt>
<pdfrwt beam="1">  1       21 0.37415919E+00 0.77873794E+02</pdfrwt>
<pdfrwt beam="2">  1       21 0.71522818E-03 0.77873794E+02</pdfrwt>
<totfact> 0.94689612E+04</totfact>
</mgrwt>
</event>
<event>
 5    1  0.1745726E+000  0.7821058E+02  0.7546771E-02  0.1334208E+00
         21   -1    0    0  503  502  0.00000000000E+00  0.00000000000E+00  0.19655793255E+03  0.19655793255E+03  0.00000000000E+00 0.  1.
         21   -1    0    0  501  503 -0.00000000000E+00 -0.00000000000E+00 -0.11303028017E+03  0.11303028017E+03  0.00000000000E+00 0.  1.
         24    1    1    2    0    0 -0.19075425361E+01 -0.53211852830E+02 -0.82178926165E+02  0.12671121442E+03  0.80419002446E+02 0.  1.
          1    1    1    2  501    0 -0.11597965693E+02  0.37506473644E+02  0.42168835825E+02  0.57614747142E+02  0.00000000000E+00 0. -1.
         -2    1    1    2    0  502  0.13505508229E+02  0.15705379186E+02  0.12353774272E+03  0.12526225115E+03  0.00000000000E+00 0.  1.
<mgrwt>
<rscale>  2 0.78210583E+02</rscale>
<asrwt>0</asrwt>
<pdfrwt beam="1">  1       21 0.30239682E-01 0.78210583E+02</pdfrwt>
<pdfrwt beam="2">  1       21 0.17389274E-01 0.78210583E+02</pdfrwt>
<totfact> 0.32049774E+05</totfact>
</mgrwt>
</event>
<event>
 5    1  0.1745726E+000  0.9076152E+02  0.7546771E-02  0.1301018E+00
         21   -1    0    0  501  502  0.00000000000E+00  0.00000000000E+00  0.12676480723E+04  0.12676480723E+04  0.00000000000E+00 0.  1.
         21   -1    0    0  502  503 -0.00000000000E+00 -0.00000000000E+00 -0.12226129922E+02  0.12226129922E+02  0.00000000000E+00 0.  1.
         24    1    1    2    0    0  0.14879661752E+02  0.12121333783E+02  0.36482108934E+03  0.37407215112E+03  0.80419002446E+02 0. -1.
          1    1    1    2  501    0 -0.20855225993E+02 -0.53300426229E+02  0.83180415946E+03  0.83377097310E+03  0.00000000000E+00 0. -1.
         -2    1    1    2    0  503  0.59755642416E+01  0.41179092446E+02  0.58796693611E+02  0.72031078030E+02  0.00000000000E+00 0.  1.
<mgrwt>
<rscale>  2 0.90761515E+02</rscale>
<asrwt>0</asrwt>
<pdfrwt beam="1">  1       21 0.19502268E+00 0.90761515E+02</pdfrwt>
<pdfrwt beam="2">  1       21 0.18809441E-02 0.90761515E+02</pdfrwt>
<totfact> 0.20799644E+05</totfact>
</mgrwt>
</event>
<event>
 5    1  0.1745726E+000  0.9041082E+02  0.7546771E-02  0.1301860E+00
         21   -1    0    0  503  502  0.00000000000E+00  0.00000000000E+00  0.28339554486E+03  0.28339554486E+03  0.00000000000E+00 0.  1.
         21   -1    0    0  501  503 -0.00000000000E+00 -0.00000000000E+00 -0.29098460537E+03  0.29098460537E+03  0.00000000000E+00 0.  1.
         24    1    1    2    0    0 -0.50330144607E+01 -0.60819513282E+02 -0.20750155100E+03  0.23075626547E+03  0.80419002446E+02 0.  1.
          1    1    1    2  501    0  0.26884325845E+02  0.46596479388E+02 -0.61045439654E+02  0.81366728888E+02  0.00000000000E+00 0. -1.
         -2    1    1    2    0  502 -0.21851311384E+02  0.14223033894E+02  0.26095793014E+03  0.26225715587E+03  0.00000000000E+00 0.  1.
<mgrwt>
<rscale>  2 0.90410822E+02</rscale>
<asrwt>0</asrwt>
<pdfrwt beam="1">  1       21 0.43599315E-01 0.90410822E+02</pdfrwt>
<pdfrwt beam="2">  1       21 0.44766862E-01 0.90410822E+02</pdfrwt>
<totfact> 0.25983702E+04</totfact>
</mgrwt>
</event>
<event>
 5    1  0.1745726E+000  0.7447815E+02  0.7546771E-02  0.1345495E+00
         21   -1    0    0  501  502  0.00000000000E+00  0.00000000000E+00  0.26748904586E+02  0.26748904586E+02  0.00000000000E+00 0. -1.
         21   -1    0    0  502  503 -0.00000000000E+00 -0.00000000000E+00 -0.24866438593E+03  0.24866438593E+03  0.00000000000E+00 0. -1.
         24    1    1    2    0    0 -0.39763950207E+02  0.34568301750E+02 -0.14467421894E+03  0.17370660553E+03  0.80419002446E+02 0. -1.
          1    1    1    2  501    0  0.19405049661E+02 -0.14473497024E+02 -0.60055497863E+01  0.24942026715E+02  0.00000000000E+00 0. -1.
         -2    1    1    2    0  503  0.20358900546E+02 -0.20094804726E+02 -0.71235712614E+02  0.76764658275E+02  0.00000000000E+00 0.  1.
<mgrwt>
<rscale>  2 0.74478146E+02</rscale>
<asrwt>0</asrwt>
<pdfrwt beam="1">  1       21 0.41152162E-02 0.74478146E+02</pdfrwt>
<pdfrwt beam="2">  1       21 0.38256059E-01 0.74478146E+02</pdfrwt>
<totfact> 0.23937570E+06</totfact>
</mgrwt>
</event>
<event>
 5    1  0.1745726E+000  0.9314587E+02  0.7546771E-02  0.1295407E+00
         21   -1    0    0  503  502  0.00000000000E+00  0.00000000000E+00  0.14507351092E+04  0.14507351092E+04  0.00000000000E+00 0. -1.
         21   -1    0    0  501  503 -0.00000000000E+00 -0.00000000000E+00 -0.32538331581E+02  0.32538331581E+02  0.00000000000E+00 0. -1.
         24    1    1    2    0    0  0.51506135951E+01  0.46957324797E+02  0.83832849089E+03  0.84350067798E+03  0.80419002446E+02 0. -1.
          1    1    1    2  501    0 -0.15511508759E+02 -0.67905374841E+02  0.11110488692E+02  0.70535025309E+02  0.00000000000E+00 0. -1.
         -2    1    1    2    0  502  0.10360895164E+02  0.20948050044E+02  0.56875779802E+03  0.56923773747E+03  0.00000000000E+00 0.  1.
<mgrwt>
<rscale>  2 0.93145875E+02</rscale>
<asrwt>0</asrwt>
<pdfrwt beam="1">  1       21 0.22318997E+00 0.93145875E+02</pdfrwt>
<pdfrwt beam="2">  1       21 0.50058983E-02 0.93145875E+02</pdfrwt>
<totfact> 0.28485133E+04</totfact>
</mgrwt>
</event>
<event>
 5    1  0.1745726E+000  0.6901199E+02  0.7546771E-02  0.1363485E+00
         21   -1    0    0  503  502  0.00000000000E+00  0.00000000000E+00  0.46629820878E+02  0.46629820878E+02  0.00000000000E+00 0.  1.
         21   -1    0    0  501  503 -0.00000000000E+00 -0.00000000000E+00 -0.88350127707E+03  0.88350127707E+03  0.00000000000E+00 0. -1.
         24    1    1    2    0    0 -0.97128840591E+01  0.54633514729E+01 -0.13221926290E+03  0.15515584992E+03  0.80419002446E+02 0.  0.
          1    1    1    2  501    0 -0.10507976971E+02  0.21029418361E+02 -0.73168482834E+03  0.73206238945E+03  0.00000000000E+00 0. -1.
         -2    1    1    2    0  502  0.20220861030E+02 -0.26492769834E+02  0.27032635051E+02  0.42912858587E+02  0.00000000000E+00 0.  1.
<mgrwt>
<rscale>  2 0.69011988E+02</rscale>
<asrwt>0</asrwt>
<pdfrwt beam="1">  1       21 0.71738187E-02 0.69011988E+02</pdfrwt>
<pdfrwt beam="2">  1       21 0.13592327E+00 0.69011988E+02</pdfrwt>
<totfact> 0.60810612E+04</totfact>
</mgrwt>
</event>
<event>
 5    1  0.1745726E+000  0.9690297E+02  0.7546771E-02  0.1286947E+00
         21   -1    0    0  501  502  0.00000000000E+00  0.00000000000E+00  0.38164721555E+03  0.38164721555E+03  0.00000000000E+00 0.  1.
         21   -1    0    0  502  503 -0.00000000000E+00 -0.00000000000E+00 -0.27166804329E+02  0.27166804329E+02  0.00000000000E+00 0.  1.
         24    1    1    2    0    0 -0.31992605196E+02 -0.64498994339E+02  0.21090154013E+03  0.23691838815E+03  0.80419002446E+02 0.  1.
          1    1    1    2  501    0 -0.10494902905E+02  0.27832012342E+02  0.88078940938E+02  0.92965927816E+02  0.00000000000E+00 0. -1.
         -2    1    1    2    0  503  0.42487508101E+02  0.36666981998E+02  0.55499930155E+02  0.78929703918E+02  0.00000000000E+00 0.  1.
<mgrwt>
<rscale>  2 0.96902970E+02</rscale>
<asrwt>0</asrwt>
<pdfrwt beam="1">  1       21 0.58714953E-01 0.96902970E+02</pdfrwt>
<pdfrwt beam="2">  1       21 0.41795086E-02 0.96902970E+02</pdfrwt>
<totfact> 0.98839770E+05</totfact>
</mgrwt>
</event>
<event>
 5    1  0.1745726E+000  0.2565044E+03  0.7546771E-02  0.1109262E+00
         21   -1    0    0  503  502  0.00000000000E+00  0.00000000000E+00  0.20239219927E+03  0.20239219927E+03  0.00000000000E+00 0. -1.
         21   -1    0    0  501  503 -0.00000000000E+00 -0.00000000000E+00 -0.36551513696E+03  0.36551513696E+03  0.00000000000E+00 0.  1.
         24    1    1    2    0    0  0.20455291630E+03  0.12900400652E+03  0.10251433609E+02  0.25506124188E+03  0.80419002446E+02 0. -1.
          1    1    1    2  501    0 -0.15825455424E+02  0.14186879289E+02 -0.27045012638E+02  0.34396879102E+02  0.00000000000E+00 0. -1.
         -2    1    1    2    0  502 -0.18872746088E+03 -0.14319088581E+03 -0.14632935866E+03  0.27844921525E+03  0.00000000000E+00 0.  1.
<mgrwt>
<rscale>  2 0.25650442E+03</rscale>
<asrwt>0</asrwt>
<pdfrwt beam="1">  1       21 0.31137261E-01 0.25650442E+03</pdfrwt>
<pdfrwt beam="2">  1       21 0.56233098E-01 0.25650442E+03</pdfrwt>
<totfact> 0.28563837E+04</totfact>
</mgrwt>
</event>
<event>
 5    1  0.1745726E+000  0.7574803E+02  0.7546771E-02  0.1341570E+00
         21   -1    0    0  503  502  0.00000000000E+00  0.00000000000E+00  0.28392088771E+02  0.28392088771E+02  0.00000000000E+00 0.  1.
         21   -1    0    0  501  503 -0.00000000000E+00 -0.00000000000E+00 -0.27955937099E+03  0.27955937099E+03  0.00000000000E+00 0.  1.
         24    1    1    2    0    0  0.26879503219E+02  0.14521904717E+02 -0.12767996111E+03  0.15395707789E+03  0.80419002446E+02 0.  1.
          1    1    1    2  501    0  0.60029745398E+01 -0.28946262376E+02 -0.11268409562E+03  0.11649732707E+03  0.00000000000E+00 0. -1.
         -2    1    1    2    0  502 -0.32882477759E+02  0.14424357660E+02 -0.10803225489E+02  0.37497054797E+02  0.00000000000E+00 0.  1.
<mgrwt>
<rscale>  2 0.75748029E+02</rscale>
<asrwt>0</asrwt>
<pdfrwt beam="1">  1       21 0.43680138E-02 0.75748029E+02</pdfrwt>
<pdfrwt beam="2">  1       21 0.43009133E-01 0.75748029E+02</pdfrwt>
<totfact> 0.17242505E+06</totfact>
</mgrwt>
</event>
<event>
 5    1  0.1745726E+000  0.1259100E+03  0.7546771E-02  0.1233654E+00
         21   -1    0    0  501  502  0.00000000000E+00  0.00000000000E+00  0.59163335149E+02  0.59163335149E+02  0.00000000000E+00 0. -1.
         21   -1    0    0  502  503 -0.00000000000E+00 -0.00000000000E+00 -0.27986510171E+03  0.27986510171E+03  0.00000000000E+00 0. -1.
         24    1    1    2    0    0  0.92229531065E+02  0.55970534913E+02 -0.10696439062E+03  0.17189410692E+03  0.80419002446E+02 0. -1.
          1    1    1    2  501    0 -0.78127746137E+02 -0.23065858910E+02 -0.54807002744E+02  0.98182412445E+02  0.00000000000E+00 0. -1.
         -2    1    1    2    0  503 -0.14101784928E+02 -0.32904676003E+02 -0.58930373196E+02  0.68951917494E+02  0.00000000000E+00 0.  1.
<mgrwt>
<rscale>  2 0.12590997E+03</rscale>
<asrwt>0</asrwt>
<pdfrwt beam="1">  1       21 0.91020515E-02 0.12590997E+03</pdfrwt>
<pdfrwt beam="2">  1       21 0.43056170E-01 0.12590997E+03</pdfrwt>
<totfact> 0.50109559E+05</totfact>
</mgrwt>
</event>
<event>
 5    1  0.1745726E+000  0.1233023E+03  0.7546771E-02  0.1237747E+00
         21   -1    0    0  501  502  0.00000000000E+00  0.00000000000E+00  0.72195056278E+02  0.72195056278E+02  0.00000000000E+00 0. -1.
         21   -1    0    0  502  503 -0.00000000000E+00 -0.00000000000E+00 -0.35323932038E+03  0.35323932038E+03  0.00000000000E+00 0.  1.
         24    1    1    2    0    0 -0.11013309803E+03 -0.68908037533E+00 -0.48502354701E+02  0.14473931214E+03  0.80419002446E+02 0. -1.
          1    1    1    2  501    0  0.33279369544E+02  0.23494526758E+01  0.24473608474E+01  0.33451845095E+02  0.00000000000E+00 0. -1.
         -2    1    1    2    0  503  0.76853728485E+02 -0.16603723004E+01 -0.23498927025E+03  0.24724321942E+03  0.00000000000E+00 0.  1.
<mgrwt>
<rscale>  2 0.12330232E+03</rscale>
<asrwt>0</asrwt>
<pdfrwt beam="1">  1       21 0.11106932E-01 0.12330232E+03</pdfrwt>
<pdfrwt beam="2">  1       21 0.54344510E-01 0.12330232E+03</pdfrwt>
<totfact> 0.21953023E+05</totfact>
</mgrwt>
</event>
<event>
 5    1  0.1745726E+000  0.1647065E+03  0.7546771E-02  0.1183483E+00
         21   -1    0    0  503  502  0.00000000000E+00  0.00000000000E+00  0.65341653513E+02  0.65341653513E+02  0.00000000000E+00 0.  1.
         21   -1    0    0  501  503 -0.00000000000E+00 -0.00000000000E+00 -0.52380606471E+03  0.52380606471E+03  0.00000000000E+00 0.  1.
         24    1    1    2    0    0  0.86225903381E+02 -0.11252846684E+03 -0.26953913724E+03  0.31498591194E+03  0.80419002446E+02 0.  1.
          1    1    1    2  501    0 -0.43298382885E+02 -0.27785662775E+01 -0.13132746077E+03  0.13830897420E+03  0.00000000000E+00 0. -1.
         -2    1    1    2    0  502 -0.42927520496E+02  0.11530703311E+03 -0.57597813181E+02  0.13585283208E+03  0.00000000000E+00 0.  1.
<mgrwt>
<rscale>  2 0.16470652E+03</rscale>
<asrwt>0</asrwt>
<pdfrwt beam="1">  1       21 0.10052562E-01 0.16470652E+03</pdfrwt>
<pdfrwt beam="2">  1       21 0.80585548E-01 0.16470652E+03</pdfrwt>
<totfact> 0.10997474E+05</totfact>
</mgrwt>
</event>
<event>
 5    1  0.1745726E+000  0.8472333E+02  0.7546771E-02  0.1316158E+00
         21   -1    0    0  501  502  0.00000000000E+00  0.00000000000E+00  0.79069946849E+03  0.79069946849E+03  0.00000000000E+00 0.  1.
         21   -1    0    0  502  503 -0.00000000000E+00 -0.00000000000E+00 -0.37893634256E+02  0.37893634256E+02  0.00000000000E+00 0.  1.
         24    1    1    2    0    0  0.32689350441E+00 -0.57073864038E+02  0.49719276849E+03  0.50687808969E+03  0.80419002446E+02 0.  1.
          1    1    1    2  501    0  0.20629795797E+02  0.23662925541E+02  0.27568157592E+03  0.27746324769E+03  0.00000000000E+00 0. -1.
         -2    1    1    2    0  503 -0.20956689302E+02  0.33410938498E+02 -0.20068510168E+02  0.44251765368E+02  0.00000000000E+00 0.  1.
<mgrwt>
<rscale>  2 0.84723334E+02</rscale>
<asrwt>0</asrwt>
<pdfrwt beam="1">  1       21 0.12164606E+00 0.84723334E+02</pdfrwt>
<pdfrwt beam="2">  1       21 0.58297905E-02 0.84723334E+02</pdfrwt>
<totfact> 0.11140647E+05</totfact>
</mgrwt>
</event>
<event>
 5    1  0.1745726E+000  0.1052450E+03  0.7546771E-02  0.1269638E+00
         21   -1    0    0  501  502  0.00000000000E+00  0.00000000000E+00  0.27487887159E+03  0.27487887159E+03  0.00000000000E+00 0. -1.
         21   -1    0    0  502  503 -0.00000000000E+00 -0.00000000000E+00 -0.13195765267E+03  0.13195765267E+03  0.00000000000E+00 0.  1.
         24    1    1    2    0    0 -0.59183473571E+02 -0.29987746946E+02  0.97642514527E+02  0.14283985826E+03  0.80419002446E+02 0. -1.
          1    1    1    2  501    0  0.67983926282E+02  0.49988127164E+02  0.14181320596E+03  0.16502003659E+03  0.00000000000E+00 0. -1.
         -2    1    1    2    0  503 -0.88004527112E+01 -0.20000380218E+02 -0.96534501569E+02  0.98976629413E+02  0.00000000000E+00 0.  1.
<mgrwt>
<rscale>  2 0.10524501E+03</rscale>
<asrwt>0</asrwt>
<pdfrwt beam="1">  1       21 0.42289057E-01 0.10524501E+03</pdfrwt>
<pdfrwt beam="2">  1       21 0.20301177E-01 0.10524501E+03</pdfrwt>
<totfact> 0.12466857E+05</totfact>
</mgrwt>
</event>
<event>
 5    1  0.1745726E+000  0.7238387E+02  0.7546771E-02  0.1352169E+00
         21   -1    0    0  503  502  0.00000000000E+00  0.00000000000E+00  0.49170747798E+02  0.49170747798E+02  0.00000000000E+00 0. -1.
         21   -1    0    0  501  503 -0.00000000000E+00 -0.00000000000E+00 -0.15975886745E+03  0.15975886745E+03  0.00000000000E+00 0.  1.
         24    1    1    2    0    0  0.25857049585E+02  0.26011137327E+02 -0.42978918765E+02  0.98283109896E+02  0.80419002446E+02 0.  0.
          1    1    1    2  501    0 -0.46237027633E+01 -0.33535646930E+02 -0.78600683685E+02  0.85580872384E+02  0.00000000000E+00 0. -1.
         -2    1    1    2    0  502 -0.21233346821E+02  0.75245096029E+01  0.10991482798E+02  0.25065632968E+02  0.00000000000E+00 0.  1.
<mgrwt>
<rscale>  2 0.72383870E+02</rscale>
<asrwt>0</asrwt>
<pdfrwt beam="1">  1       21 0.75647303E-02 0.72383870E+02</pdfrwt>
<pdfrwt beam="2">  1       21 0.24578288E-01 0.72383870E+02</pdfrwt>
<totfact> 0.20137744E+06</totfact>
</mgrwt>
</event>
<event>
 5    1  0.1745726E+000  0.1279542E+03  0.7546771E-02  0.1230523E+00
         21   -1    0    0  503  502  0.00000000000E+00  0.00000000000E+00  0.32376073384E+02  0.32376073384E+02  0.00000000000E+00 0.  1.
         21   -1    0    0  501  503 -0.00000000000E+00 -0.00000000000E+00 -0.73271368779E+03  0.73271368779E+03  0.00000000000E+00 0. -1.
         24    1    1    2    0    0 -0.10092479495E+03 -0.36356203031E+02 -0.14902103930E+03  0.20045466780E+03  0.80419002446E+02 0.  1.
          1    1    1    2  501    0  0.80060615898E+02  0.52256682258E+02 -0.44056406665E+03  0.45081832248E+03  0.00000000000E+00 0. -1.
         -2    1    1    2    0  502  0.20864179054E+02 -0.15900479228E+02 -0.11075250846E+03  0.11381677090E+03  0.00000000000E+00 0.  1.
<mgrwt>
<rscale>  2 0.12795416E+03</rscale>
<asrwt>0</asrwt>
<pdfrwt beam="1">  1       21 0.49809344E-02 0.12795416E+03</pdfrwt>
<pdfrwt beam="2">  1       21 0.11272518E+00 0.12795416E+03</pdfrwt>
<totfact> 0.17057057E+05</totfact>
</mgrwt>
</event>
<event>
 5    1  0.1745726E+000  0.7090293E+02  0.7546771E-02  0.1357049E+00
         21   -1    0    0  503  502  0.00000000000E+00  0.00000000000E+00  0.73178400645E+03  0.73178400645E+03  0.00000000000E+00 0.  1.
         21   -1    0    0  501  503 -0.00000000000E+00 -0.00000000000E+00 -0.50357982249E+02  0.50357982249E+02  0.00000000000E+00 0. -1.
         24    1    1    2    0    0  0.27247555689E+02  0.16620448881E+02  0.25616406189E+03  0.27038104809E+03  0.80419002446E+02 0. -1.
          1    1    1    2  501    0 -0.14462010378E+02  0.15206739117E+02 -0.40034885646E+02  0.45201623062E+02  0.00000000000E+00 0. -1.
         -2    1    1    2    0  502 -0.12785545311E+02 -0.31827187998E+02  0.46529684796E+03  0.46655931755E+03  0.00000000000E+00 0.  1.
<mgrwt>
<rscale>  2 0.70902930E+02</rscale>
<asrwt>0</asrwt>
<pdfrwt beam="1">  1       21 0.11258215E+00 0.70902930E+02</pdfrwt>
<pdfrwt beam="2">  1       21 0.77473824E-02 0.70902930E+02</pdfrwt>
<totfact> 0.83770304E+04</totfact>
</mgrwt>
</event>
<event>
 5    1  0.1745726E+000  0.6999542E+02  0.7546771E-02  0.1360109E+00
         21   -1    0    0  501  502  0.00000000000E+00  0.00000000000E+00  0.43936260459E+03  0.43936260459E+03  0.00000000000E+00 0. -1.
         21   -1    0    0  502  503 -0.00000000000E+00 -0.00000000000E+00 -0.60663874753E+02  0.60663874753E+02  0.00000000000E+00 0. -1.
         24    1    1    2    0    0 -0.25607423719E+02 -0.37282739267E+02  0.10324906687E+03  0.13846778889E+03  0.80419002446E+02 0.  1.
          1    1    1    2  501    0  0.54413745719E+01  0.21327152547E+02  0.31424498607E+03  0.31501486832E+03  0.00000000000E+00 0. -1.
         -2    1    1    2    0  503  0.20166049147E+02  0.15955586719E+02 -0.38795323091E+02  0.46543822141E+02  0.00000000000E+00 0.  1.
<mgrwt>
<rscale>  2 0.69995422E+02</rscale>
<asrwt>0</asrwt>
<pdfrwt beam="1">  1       21 0.67594245E-01 0.69995422E+02</pdfrwt>
<pdfrwt beam="2">  1       21 0.93329041E-02 0.69995422E+02</pdfrwt>
<totfact> 0.19061078E+05</totfact>
</mgrwt>
</event>
<event>
 5    1  0.1745726E+000  0.6828878E+02  0.7546771E-02  0.1366011E+00
         21   -1    0    0  501  502  0.00000000000E+00  0.00000000000E+00  0.34854744899E+03  0.34854744899E+03  0.00000000000E+00 0. -1.
         21   -1    0    0  502  503 -0.00000000000E+00 -0.00000000000E+00 -0.66596157959E+02  0.66596157959E+02  0.00000000000E+00 0.  1.
         24    1    1    2    0    0 -0.36474830089E+02  0.64142981719E+01  0.23411604034E+03  0.25029800788E+03  0.80419002446E+02 0.  0.
          1    1    1    2  501    0  0.16820052669E+02 -0.18471644617E+02  0.10250850356E+03  0.10550881067E+03  0.00000000000E+00 0. -1.
         -2    1    1    2    0  503  0.19654777420E+02  0.12057346445E+02 -0.54673252866E+02  0.59336788400E+02  0.00000000000E+00 0.  1.
<mgrwt>
<rscale>  2 0.68288777E+02</rscale>
<asrwt>0</asrwt>
<pdfrwt beam="1">  1       21 0.53622684E-01 0.68288777E+02</pdfrwt>
<pdfrwt beam="2">  1       21 0.10245563E-01 0.68288777E+02</pdfrwt>
<totfact> 0.26331377E+05</totfact>
</mgrwt>
</event>
<event>
 5    1  0.1745726E+000  0.9062074E+02  0.7546771E-02  0.1301355E+00
         21   -1    0    0  501  502  0.00000000000E+00  0.00000000000E+00  0.16277065614E+04  0.16277065614E+04  0.00000000000E+00 0.  1.
         21   -1    0    0  502  503 -0.00000000000E+00 -0.00000000000E+00 -0.68806925853E+01  0.68806925853E+01  0.00000000000E+00 0.  1.
         24    1    1    2    0    0  0.71540508351E+02 -0.13222661219E+02  0.67708156912E+03  0.68571098161E+03  0.80419002446E+02 0.  1.
          1    1    1    2  501    0 -0.24710476548E+02  0.33282150953E+01  0.70180910387E+03  0.70225187998E+03  0.00000000000E+00 0. -1.
         -2    1    1    2    0  503 -0.46830031803E+02  0.98944461233E+01  0.24193519578E+03  0.24662439235E+03  0.00000000000E+00 0.  1.
<mgrwt>
<rscale>  2 0.90620743E+02</rscale>
<asrwt>0</asrwt>
<pdfrwt beam="1">  1       21 0.25041609E+00 0.90620743E+02</pdfrwt>
<pdfrwt beam="2">  1       21 0.10585694E-02 0.90620743E+02</pdfrwt>
<totfact> 0.24410928E+05</totfact>
</mgrwt>
</event>
<event>
 5    1  0.1745726E+000  0.7364944E+02  0.7546771E-02  0.1348105E+00
         21   -1    0    0  501  502  0.00000000000E+00  0.00000000000E+00  0.49646540842E+02  0.49646540842E+02  0.00000000000E+00 0. -1.
         21   -1    0    0  502  503 -0.00000000000E+00 -0.00000000000E+00 -0.14831839904E+03  0.14831839904E+03  0.00000000000E+00 0. -1.
         24    1    1    2    0    0  0.47065028757E+02  0.20706426505E+02 -0.19339246625E+02  0.97391454681E+02  0.80419002446E+02 0.  0.
          1    1    1    2  501    0 -0.22222869556E+02 -0.61669581219E+01 -0.93198281053E+01  0.24874615569E+02  0.00000000000E+00 0. -1.
         -2    1    1    2    0  503 -0.24842159201E+02 -0.14539468383E+02 -0.70012783468E+02  0.75698869632E+02  0.00000000000E+00 0.  1.
<mgrwt>
<rscale>  2 0.73649443E+02</rscale>
<asrwt>0</asrwt>
<pdfrwt beam="1">  1       21 0.76379295E-02 0.73649443E+02</pdfrwt>
<pdfrwt beam="2">  1       21 0.22818215E-01 0.73649443E+02</pdfrwt>
<totfact> 0.22750510E+06</totfact>
</mgrwt>
</event>
<event>
 5    1  0.1745726E+000  0.7018840E+02  0.7546771E-02  0.1359454E+00
         21   -1    0    0  503  502  0.00000000000E+00  0.00000000000E+00  0.38103080017E+02  0.38103080017E+02  0.00000000000E+00 0. -1.
         21   -1    0    0  501  503 -0.00000000000E+00 -0.00000000000E+00 -0.24736646239E+03  0.24736646239E+03  0.00000000000E+00 0. -1.
         24    1    1    2    0    0  0.43580792403E+02 -0.58843800839E+01 -0.35733522682E+02  0.98376887494E+02  0.80419002446E+02 0. -1.
          1    1    1    2  501    0 -0.22317862855E+02  0.13558662051E+02 -0.15682595174E+03  0.15898523032E+03  0.00000000000E+00 0. -1.
         -2    1    1    2    0  502 -0.21262929548E+02 -0.76742819672E+01 -0.16703907948E+02  0.28107424596E+02  0.00000000000E+00 0.  1.
<mgrwt>
<rscale>  2 0.70188402E+02</rscale>
<asrwt>0</asrwt>
<pdfrwt beam="1">  1       21 0.58620124E-02 0.70188402E+02</pdfrwt>
<pdfrwt beam="2">  1       21 0.38056379E-01 0.70188402E+02</pdfrwt>
<totfact> 0.13440400E+06</totfact>
</mgrwt>
</event>
<event>
 5    1  0.1745726E+000  0.7736796E+02  0.7546771E-02  0.1336691E+00
         21   -1    0    0  501  502  0.00000000000E+00  0.00000000000E+00  0.17153401121E+03  0.17153401121E+03  0.00000000000E+00 0.  1.
         21   -1    0    0  502  503 -0.00000000000E+00 -0.00000000000E+00 -0.47016953993E+02  0.47016953993E+02  0.00000000000E+00 0.  1.
         24    1    1    2    0    0  0.32997944951E+02 -0.17400285108E+02  0.44072210563E+02  0.99001060556E+02  0.80419002446E+02 0.  1.
          1    1    1    2  501    0  0.30033376908E+01  0.28309144759E+02  0.76620593937E+02  0.81738259888E+02  0.00000000000E+00 0. -1.
         -2    1    1    2    0  503 -0.36001282642E+02 -0.10908859651E+02  0.38242527181E+01  0.37811644762E+02  0.00000000000E+00 0.  1.
<mgrwt>
<rscale>  2 0.77367962E+02</rscale>
<asrwt>0</asrwt>
<pdfrwt beam="1">  1       21 0.26389848E-01 0.77367962E+02</pdfrwt>
<pdfrwt beam="2">  1       21 0.72333776E-02 0.77367962E+02</pdfrwt>
<totfact> 0.19083641E+06</totfact>
</mgrwt>
</event>
<event>
 5    1  0.1745726E+000  0.1129675E+03  0.7546771E-02  0.1255171E+00
         21   -1    0    0  503  502  0.00000000000E+00  0.00000000000E+00  0.11114852725E+03  0.11114852725E+03  0.00000000000E+00 0.  1.
         21   -1    0    0  501  503 -0.00000000000E+00 -0.00000000000E+00 -0.16163636622E+03  0.16163636622E+03  0.00000000000E+00 0.  1.
         24    1    1    2    0    0 -0.17813693494E+02  0.95166270068E+02 -0.99983317930E+02  0.16074148952E+03  0.80419002446E+02 0.  1.
          1    1    1    2  501    0  0.16917766016E+02 -0.26748125699E+02  0.10833061788E+02  0.33451879814E+02  0.00000000000E+00 0. -1.
         -2    1    1    2    0  502  0.89592747857E+00 -0.68418144369E+02  0.38662417169E+02  0.78591524138E+02  0.00000000000E+00 0.  1.
<mgrwt>
<rscale>  2 0.11296745E+03</rscale>
<asrwt>0</asrwt>
<pdfrwt beam="1">  1       21 0.17099773E-01 0.11296745E+03</pdfrwt>
<pdfrwt beam="2">  1       21 0.24867133E-01 0.11296745E+03</pdfrwt>
<totfact> 0.47686185E+05</totfact>
</mgrwt>
</event>
<event>
 5    1  0.1745726E+000  0.1737135E+03  0.7546771E-02  0.1174030E+00
         21   -1    0    0  503  502  0.00000000000E+00  0.00000000000E+00  0.87576629211E+02  0.87576629211E+02  0.00000000000E+00 0.  1.
         21   -1    0    0  501  503 -0.00000000000E+00 -0.00000000000E+00 -0.11152462135E+04  0.11152462135E+04  0.00000000000E+00 0.  1.
         24    1    1    2    0    0  0.96703847469E+02 -0.98581857991E+02 -0.76383635172E+03  0.78037375982E+03  0.80419002446E+02 0.  1.
          1    1    1    2  501    0  0.30442765103E+02  0.31732554086E+02 -0.27488056368E+03  0.27837571953E+03  0.00000000000E+00 0. -1.
         -2    1    1    2    0  502 -0.12714661257E+03  0.66849303904E+02  0.11047331067E+02  0.14407336341E+03  0.00000000000E+00 0.  1.
<mgrwt>
<rscale>  2 0.17371349E+03</rscale>
<asrwt>0</asrwt>
<pdfrwt beam="1">  1       21 0.13473328E-01 0.17371349E+03</pdfrwt>
<pdfrwt beam="2">  1       21 0.17157633E+00 0.17371349E+03</pdfrwt>
<totfact> 0.10067684E+04</totfact>
</mgrwt>
</event>
<event>
 5    1  0.1745726E+000  0.1024968E+03  0.7546771E-02  0.1275132E+00
         21   -1    0    0  501  502  0.00000000000E+00  0.00000000000E+00  0.40085422166E+03  0.40085422166E+03  0.00000000000E+00 0.  1.
         21   -1    0    0  502  503 -0.00000000000E+00 -0.00000000000E+00 -0.34409259489E+02  0.34409259489E+02  0.00000000000E+00 0. -1.
         24    1    1    2    0    0  0.77331978545E+02  0.50656613775E+01  0.26870924960E+03  0.29099445460E+03  0.80419002446E+02 0.  1.
          1    1    1    2  501    0 -0.69679360143E+02  0.15486651963E+02  0.99288288994E+02  0.12228333472E+03  0.00000000000E+00 0. -1.
         -2    1    1    2    0  503 -0.76526184017E+01 -0.20552313340E+02 -0.15525764184E+01  0.21985691837E+02  0.00000000000E+00 0.  1.
<mgrwt>
<rscale>  2 0.10249675E+03</rscale>
<asrwt>0</asrwt>
<pdfrwt beam="1">  1       21 0.61669877E-01 0.10249675E+03</pdfrwt>
<pdfrwt beam="2">  1       21 0.52937325E-02 0.10249675E+03</pdfrwt>
<totfact> 0.60161902E+05</totfact>
</mgrwt>
</event>
<event>
 5    1  0.1745726E+000  0.1148342E+03  0.7546771E-02  0.1251871E+00
         21   -1    0    0  501  502  0.00000000000E+00  0.00000000000E+00  0.28123366682E+03  0.28123366682E+03  0.00000000000E+00 0. -1.
         21   -1    0    0  502  503 -0.00000000000E+00 -0.00000000000E+00 -0.95814174297E+02  0.95814174297E+02  0.00000000000E+00 0.  1.
         24    1    1    2    0    0  0.18917959735E+02  0.79742353744E+02 -0.35072443479E+02  0.12005842089E+03  0.80419002446E+02 0.  1.
          1    1    1    2  501    0  0.14027322132E+02 -0.80678007432E+02  0.20464166535E+03  0.22041759876E+03  0.00000000000E+00 0. -1.
         -2    1    1    2    0  503 -0.32945281867E+02  0.93565368832E+00  0.15850270658E+02  0.36571821462E+02  0.00000000000E+00 0.  1.
<mgrwt>
<rscale>  2 0.11483416E+03</rscale>
<asrwt>0</asrwt>
<pdfrwt beam="1">  1       21 0.43266717E-01 0.11483416E+03</pdfrwt>
<pdfrwt beam="2">  1       21 0.14740642E-01 0.11483416E+03</pdfrwt>
<totfact> 0.21231496E+05</totfact>
</mgrwt>
</event>
<event>
 5    1  0.1745726E+000  0.6615015E+02  0.7546771E-02  0.1373697E+00
         21   -1    0    0  503  502  0.00000000000E+00  0.00000000000E+00  0.22419768193E+02  0.22419768193E+02  0.00000000000E+00 0.  1.
         21   -1    0    0  501  503 -0.00000000000E+00 -0.00000000000E+00 -0.25194474511E+03  0.25194474511E+03  0.00000000000E+00 0.  1.
         24    1    1    2    0    0  0.11755164298E+02 -0.38223195152E+01 -0.17889790868E+03  0.19653109601E+03  0.80419002446E+02 0.  1.
          1    1    1    2  501    0 -0.50447182025E+01 -0.22867006556E+02 -0.43504921086E+02  0.49406753883E+02  0.00000000000E+00 0. -1.
         -2    1    1    2    0  502 -0.67104460957E+01  0.26689326071E+02 -0.71221471596E+01  0.28426663418E+02  0.00000000000E+00 0.  1.
<mgrwt>
<rscale>  2 0.66150148E+02</rscale>
<asrwt>0</asrwt>
<pdfrwt beam="1">  1       21 0.34491951E-02 0.66150148E+02</pdfrwt>
<pdfrwt beam="2">  1       21 0.38760730E-01 0.66150148E+02</pdfrwt>
<totfact> 0.30909719E+06</totfact>
</mgrwt>
</event>
<event>
 5    1  0.1745726E+000  0.9221435E+02  0.7546771E-02  0.1297576E+00
         21   -1    0    0  501  502  0.00000000000E+00  0.00000000000E+00  0.36121103363E+03  0.36121103363E+03  0.00000000000E+00 0. -1.
         21   -1    0    0  502  503 -0.00000000000E+00 -0.00000000000E+00 -0.31542452086E+02  0.31542452086E+02  0.00000000000E+00 0.  1.
         24    1    1    2    0    0  0.43942844136E+02 -0.26268578512E+02  0.20350486977E+03  0.22472752333E+03  0.80419002446E+02 0.  1.
          1    1    1    2  501    0  0.20595586210E+02  0.60902489553E+01  0.87575946227E+02  0.90171035600E+02  0.00000000000E+00 0. -1.
         -2    1    1    2    0  503 -0.64538430345E+02  0.20178329556E+02  0.38587765550E+02  0.77854926788E+02  0.00000000000E+00 0.  1.
<mgrwt>
<rscale>  2 0.92214355E+02</rscale>
<asrwt>0</asrwt>
<pdfrwt beam="1">  1       21 0.55570925E-01 0.92214355E+02</pdfrwt>
<pdfrwt beam="2">  1       21 0.48526852E-02 0.92214355E+02</pdfrwt>
<totfact> 0.86511543E+05</totfact>
</mgrwt>
</event>
<event>
 5    1  0.1745726E+000  0.7411998E+02  0.7546771E-02  0.1346618E+00
         21   -1    0    0  501  502  0.00000000000E+00  0.00000000000E+00  0.25234549219E+03  0.25234549219E+03  0.00000000000E+00 0. -1.
         21   -1    0    0  502  503 -0.00000000000E+00 -0.00000000000E+00 -0.29424533073E+02  0.29424533073E+02  0.00000000000E+00 0. -1.
         24    1    1    2    0    0  0.39831982225E+02 -0.13720298722E+02  0.68378471655E+02  0.11365590502E+03  0.80419002446E+02 0. -1.
          1    1    1    2  501    0 -0.34318874861E+02 -0.78376770026E+01  0.13130029103E+03  0.13593741493E+03  0.00000000000E+00 0. -1.
         -2    1    1    2    0  503 -0.55131073642E+01  0.21557975724E+02  0.23242196426E+02  0.32176705314E+02  0.00000000000E+00 0.  1.
<mgrwt>
<rscale>  2 0.74119983E+02</rscale>
<asrwt>0</asrwt>
<pdfrwt beam="1">  1       21 0.38822382E-01 0.74119983E+02</pdfrwt>
<pdfrwt beam="2">  1       21 0.45268514E-02 0.74119983E+02</pdfrwt>
<totfact> 0.19880829E+06</totfact>
</mgrwt>
</event>
<event>
 5    1  0.1745726E+000  0.9191399E+02  0.7546771E-02  0.1298282E+00
         21   -1    0    0  501  502  0.00000000000E+00  0.00000000000E+00  0.56296885132E+03  0.56296885132E+03  0.00000000000E+00 0. -1.
         21   -1    0    0  502  503 -0.00000000000E+00 -0.00000000000E+00 -0.16062344606E+02  0.16062344606E+02  0.00000000000E+00 0.  1.
         24    1    1    2    0    0 -0.30769476627E+02  0.21610639208E+02  0.22696372665E+03  0.24370787757E+03  0.80419002446E+02 0.  1.
          1    1    1    2  501    0 -0.14605430700E+02  0.25662209495E+02  0.15601495211E+03  0.15878454863E+03  0.00000000000E+00 0. -1.
         -2    1    1    2    0  503  0.45374907327E+02 -0.47272848703E+02  0.16392782794E+03  0.17653876972E+03  0.00000000000E+00 0.  1.
<mgrwt>
<rscale>  2 0.91913991E+02</rscale>
<asrwt>0</asrwt>
<pdfrwt beam="1">  1       21 0.86610577E-01 0.91913991E+02</pdfrwt>
<pdfrwt beam="2">  1       21 0.24711304E-02 0.91913991E+02</pdfrwt>
<totfact> 0.10026932E+06</totfact>
</mgrwt>
</event>
<event>
 5    1  0.1745726E+000  0.1028461E+03  0.7546771E-02  0.1274422E+00
         21   -1    0    0  503  502  0.00000000000E+00  0.00000000000E+00  0.15497774743E+03  0.15497774743E+03  0.00000000000E+00 0.  1.
         21   -1    0    0  501  503 -0.00000000000E+00 -0.00000000000E+00 -0.11010981189E+03  0.11010981189E+03  0.00000000000E+00 0.  1.
         24    1    1    2    0    0 -0.24729996999E+02  0.37579317959E+02 -0.64297673660E+01  0.92370643348E+02  0.80419002446E+02 0.  1.
          1    1    1    2  501    0 -0.27463002761E+02 -0.52510902008E+02 -0.36422581117E+02  0.69557284058E+02  0.00000000000E+00 0. -1.
         -2    1    1    2    0  502  0.52192999760E+02  0.14931584048E+02  0.87720284023E+02  0.10315963191E+03  0.00000000000E+00 0.  1.
<mgrwt>
<rscale>  2 0.10284614E+03</rscale>
<asrwt>0</asrwt>
<pdfrwt beam="1">  1       21 0.23842730E-01 0.10284614E+03</pdfrwt>
<pdfrwt beam="2">  1       21 0.16939971E-01 0.10284614E+03</pdfrwt>
<totfact> 0.52509793E+05</totfact>
</mgrwt>
</event>
<event>
 5    1  0.1745726E+000  0.6958707E+02  0.7546771E-02  0.1361503E+00
         21   -1    0    0  503  502  0.00000000000E+00  0.00000000000E+00  0.15702101108E+03  0.15702101108E+03  0.00000000000E+00 0. -1.
         21   -1    0    0  501  503 -0.00000000000E+00 -0.00000000000E+00 -0.54517082607E+02  0.54517082607E+02  0.00000000000E+00 0.  1.
         24    1    1    2    0    0  0.44427202229E+02 -0.11363798627E+02  0.10617551776E+03  0.14086649262E+03  0.80419002446E+02 0. -1.
          1    1    1    2  501    0 -0.22870914005E+02  0.10111799887E+02 -0.28401619662E+02  0.37841501077E+02  0.00000000000E+00 0. -1.
         -2    1    1    2    0  502 -0.21556288225E+02  0.12519987395E+01  0.24730030368E+02  0.32830099983E+02  0.00000000000E+00 0.  1.
<mgrwt>
<rscale>  2 0.69587073E+02</rscale>
<asrwt>0</asrwt>
<pdfrwt beam="1">  1       21 0.24157078E-01 0.69587073E+02</pdfrwt>
<pdfrwt beam="2">  1       21 0.83872435E-02 0.69587073E+02</pdfrwt>
<totfact> 0.17421263E+06</totfact>
</mgrwt>
</event>
<event>
 5    1  0.1745726E+000  0.2339576E+03  0.7546771E-02  0.1123885E+00
         21   -1    0    0  503  502  0.00000000000E+00  0.00000000000E+00  0.59523176358E+03  0.59523176358E+03  0.00000000000E+00 0. -1.
         21   -1    0    0  501  503 -0.00000000000E+00 -0.00000000000E+00 -0.12422721550E+03  0.12422721550E+03  0.00000000000E+00 0. -1.
         24    1    1    2    0    0  0.61558026508E+02  0.20564198578E+03  0.30473661912E+03  0.38132615951E+03  0.80419002446E+02 0. -1.
          1    1    1    2  501    0  0.31637837250E+01 -0.15870817876E+03  0.57927121748E+01  0.15884536836E+03  0.00000000000E+00 0. -1.
         -2    1    1    2    0  502 -0.64721810233E+02 -0.46933807019E+02  0.16047521678E+03  0.17928745121E+03  0.00000000000E+00 0.  1.
<mgrwt>
<rscale>  2 0.23395763E+03</rscale>
<asrwt>0</asrwt>
<pdfrwt beam="1">  1       21 0.91574116E-01 0.23395763E+03</pdfrwt>
<pdfrwt beam="2">  1       21 0.19111880E-01 0.23395763E+03</pdfrwt>
<totfact> 0.24777965E+04</totfact>
</mgrwt>
</event>
<event>
 5    1  0.1745726E+000  0.7039876E+02  0.7546771E-02  0.1358742E+00
         21   -1    0    0  501  502  0.00000000000E+00  0.00000000000E+00  0.58594754150E+03  0.58594754150E+03  0.00000000000E+00 0. -1.
         21   -1    0    0  502  503 -0.00000000000E+00 -0.00000000000E+00 -0.66035972206E+02  0.66035972206E+02  0.00000000000E+00 0. -1.
         24    1    1    2    0    0 -0.30198798061E+01  0.32711964170E+02 -0.64390182687E+01  0.87108376087E+02  0.80419002446E+02 0. -1.
          1    1    1    2  501    0  0.20305730175E+02 -0.44332519315E+01  0.53100052067E+03  0.53140712204E+03  0.00000000000E+00 0. -1.
         -2    1    1    2    0  503 -0.17285850369E+02 -0.28278712238E+02 -0.46499331108E+01  0.33468015578E+02  0.00000000000E+00 0.  1.
<mgrwt>
<rscale>  2 0.70398763E+02</rscale>
<asrwt>0</asrwt>
<pdfrwt beam="1">  1       21 0.90145772E-01 0.70398763E+02</pdfrwt>
<pdfrwt beam="2">  1       21 0.10159381E-01 0.70398763E+02</pdfrwt>
<totfact> 0.87886810E+04</totfact>
</mgrwt>
</event>
<event>
 5    1  0.1745726E+000  0.1279003E+03  0.7546771E-02  0.1230605E+00
         21   -1    0    0  503  502  0.00000000000E+00  0.00000000000E+00  0.55323018703E+03  0.55323018703E+03  0.00000000000E+00 0.  1.
         21   -1    0    0  501  503 -0.00000000000E+00 -0.00000000000E+00 -0.78259414105E+02  0.78259414105E+02  0.00000000000E+00 0. -1.
         24    1    1    2    0    0  0.37662538306E+02  0.80819921202E+02  0.84258985676E+02  0.14668714694E+03  0.80419002446E+02 0. -1.
          1    1    1    2  501    0 -0.62648650388E+02 -0.89525066916E+02  0.17508346301E+02  0.11066224827E+03  0.00000000000E+00 0. -1.
         -2    1    1    2    0  502  0.24986112082E+02  0.87051457133E+01  0.37320344095E+03  0.37414020593E+03  0.00000000000E+00 0.  1.
<mgrwt>
<rscale>  2 0.12790032E+03</rscale>
<asrwt>0</asrwt>
<pdfrwt beam="1">  1       21 0.85112334E-01 0.12790032E+03</pdfrwt>
<pdfrwt beam="2">  1       21 0.12039910E-01 0.12790032E+03</pdfrwt>
<totfact> 0.71807686E+04</totfact>
</mgrwt>
</event>
<event>
 5    1  0.1745726E+000  0.9029940E+02  0.7546771E-02  0.1302128E+00
         21   -1    0    0  501  502  0.00000000000E+00  0.00000000000E+00  0.17427412771E+03  0.17427412771E+03  0.00000000000E+00 0.  1.
         21   -1    0    0  502  503 -0.00000000000E+00 -0.00000000000E+00 -0.77403926192E+02  0.77403926192E+02  0.00000000000E+00 0.  1.
         24    1    1    2    0    0 -0.89742816369E+01 -0.62033455814E+02  0.17769597603E+01  0.10197578591E+03  0.80419002446E+02 0.  0.
          1    1    1    2  501    0  0.28419592727E+02  0.31369005815E+02  0.10402720841E+03  0.11230916198E+03  0.00000000000E+00 0. -1.
         -2    1    1    2    0  503 -0.19445311090E+02  0.30664450000E+02 -0.89339666478E+01  0.37393106012E+02  0.00000000000E+00 0.  1.
<mgrwt>
<rscale>  2 0.90299404E+02</rscale>
<asrwt>0</asrwt>
<pdfrwt beam="1">  1       21 0.26811404E-01 0.90299404E+02</pdfrwt>
<pdfrwt beam="2">  1       21 0.11908296E-01 0.90299404E+02</pdfrwt>
<totfact> 0.78883074E+05</totfact>
</mgrwt>
</event>
<event>
 5    1  0.1745726E+000  0.9521373E+02  0.7546771E-02  0.1290695E+00
         21   -1    0    0  503  502  0.00000000000E+00  0.00000000000E+00  0.37211679284E+03  0.37211679284E+03  0.00000000000E+00 0.  1.
         21   -1    0    0  501  503 -0.00000000000E+00 -0.00000000000E+00 -0.33530555564E+03  0.33530555564E+03  0.00000000000E+00 0. -1.
         24    1    1    2    0    0 -0.66590483269E+02 -0.28215505960E+02 -0.26731152132E+03  0.28836274486E+03  0.80419002446E+02 0. -1.
          1    1    1    2  501    0  0.35784465011E+02  0.35723906822E+02 -0.45488045190E+02  0.68013878804E+02  0.00000000000E+00 0. -1.
         -2    1    1    2    0  502  0.30806018259E+02 -0.75084008622E+01  0.34961080371E+03  0.35104572482E+03  0.00000000000E+00 0.  1.
<mgrwt>
<rscale>  2 0.95213730E+02</rscale>
<asrwt>0</asrwt>
<pdfrwt beam="1">  1       21 0.57248737E-01 0.95213730E+02</pdfrwt>
<pdfrwt beam="2">  1       21 0.51585470E-01 0.95213730E+02</pdfrwt>
<totfact> 0.11106474E+04</totfact>
</mgrwt>
</event>
<event>
 5    1  0.1745726E+000  0.1181132E+03  0.7546771E-02  0.1246243E+00
         21   -1    0    0  503  502  0.00000000000E+00  0.00000000000E+00  0.44461243785E+03  0.44461243785E+03  0.00000000000E+00 0. -1.
         21   -1    0    0  501  503 -0.00000000000E+00 -0.00000000000E+00 -0.10004740232E+03  0.10004740232E+03  0.00000000000E+00 0. -1.
         24    1    1    2    0    0 -0.63664374088E+02 -0.49061342898E+02  0.26051118819E+03  0.28424190933E+03  0.80419002446E+02 0. -1.
          1    1    1    2  501    0  0.80293152808E+02  0.62011194557E+02 -0.57965356431E+02  0.11684331895E+03  0.00000000000E+00 0. -1.
         -2    1    1    2    0  502 -0.16628778720E+02 -0.12949851659E+02  0.14201920377E+03  0.14357461189E+03  0.00000000000E+00 0.  1.
<mgrwt>
<rscale>  2 0.11811321E+03</rscale>
<asrwt>0</asrwt>
<pdfrwt beam="1">  1       21 0.68401913E-01 0.11811321E+03</pdfrwt>
<pdfrwt beam="2">  1       21 0.15391908E-01 0.11811321E+03</pdfrwt>
<totfact> 0.75458049E+04</totfact>
</mgrwt>
</event>
<event>
 5    1  0.1745726E+000  0.1103295E+03  0.7546771E-02  0.1259961E+00
         21   -1    0    0  501  502  0.00000000000E+00  0.00000000000E+00  0.90086357741E+02  0.90086357741E+02  0.00000000000E+00 0.  1.
         21   -1    0    0  502  503 -0.00000000000E+00 -0.00000000000E+00 -0.29793577002E+03  0.29793577002E+03  0.00000000000E+00 0.  1.
         24    1    1    2    0    0 -0.80908806021E+02 -0.17155467685E+02 -0.24942576288E+03  0.27481079328E+03  0.80419002446E+02 0.  1.
          1    1    1    2  501    0  0.12009359135E+02 -0.22716031000E+02  0.10350557194E+02  0.27701566841E+02  0.00000000000E+00 0. -1.
         -2    1    1    2    0  503  0.68899446886E+02  0.39871498685E+02  0.31225793401E+02  0.85509767642E+02  0.00000000000E+00 0.  1.
<mgrwt>
<rscale>  2 0.11032946E+03</rscale>
<asrwt>0</asrwt>
<pdfrwt beam="1">  1       21 0.13859440E-01 0.11032946E+03</pdfrwt>
<pdfrwt beam="2">  1       21 0.45836272E-01 0.11032946E+03</pdfrwt>
<totfact> 0.21124820E+05</totfact>
</mgrwt>
</event>
<event>
 5    1  0.1745726E+000  0.1059471E+03  0.7546771E-02  0.1268265E+00
         21   -1    0    0  503  502  0.00000000000E+00  0.00000000000E+00  0.11227044172E+03  0.11227044172E+03  0.00000000000E+00 0.  1.
         21   -1    0    0  501  503 -0.00000000000E+00 -0.00000000000E+00 -0.17743355731E+03  0.17743355731E+03  0.00000000000E+00 0.  1.
         24    1    1    2    0    0 -0.28992384949E+02 -0.77309423257E+02  0.55529539585E+01  0.11539218588E+03  0.80419002446E+02 0.  1.
          1    1    1    2  501    0 -0.14266066238E+02  0.14242417166E+02 -0.92597200465E+02  0.94766073184E+02  0.00000000000E+00 0. -1.
         -2    1    1    2    0  502  0.43258451187E+02  0.63067006091E+02  0.21881130923E+02  0.79545739966E+02  0.00000000000E+00 0.  1.
<mgrwt>
<rscale>  2 0.10594705E+03</rscale>
<asrwt>0</asrwt>
<pdfrwt beam="1">  1       21 0.17272376E-01 0.10594705E+03</pdfrwt>
<pdfrwt beam="2">  1       21 0.27297470E-01 0.10594705E+03</pdfrwt>
<totfact> 0.39284357E+05</totfact>
</mgrwt>
</event>
<event>
 5    1  0.1745726E+000  0.2118444E+03  0.7546771E-02  0.1140114E+00
         21   -1    0    0  501  502  0.00000000000E+00  0.00000000000E+00  0.25752498530E+03  0.25752498530E+03  0.00000000000E+00 0. -1.
         21   -1    0    0  502  503 -0.00000000000E+00 -0.00000000000E+00 -0.29892036769E+03  0.29892036769E+03  0.00000000000E+00 0. -1.
         24    1    1    2    0    0 -0.67811015114E+02  0.18814943847E+03  0.89281513374E+02  0.23331727229E+03  0.80419002446E+02 0. -1.
          1    1    1    2  501    0  0.42659864077E+02 -0.17424469015E+03  0.98804996779E+01  0.17966274050E+03  0.00000000000E+00 0. -1.
         -2    1    1    2    0  503  0.25151151037E+02 -0.13904748316E+02 -0.14055739545E+03  0.14346534020E+03  0.00000000000E+00 0.  1.
<mgrwt>
<rscale>  2 0.21184445E+03</rscale>
<asrwt>0</asrwt>
<pdfrwt beam="1">  1       21 0.39619229E-01 0.21184445E+03</pdfrwt>
<pdfrwt beam="2">  1       21 0.45987749E-01 0.21184445E+03</pdfrwt>
<totfact> 0.27535263E+04</totfact>
</mgrwt>
</event>
<event>
 5    1  0.4779089E+000  0.2440419E+03  0.7546771E-02  0.1117129E+00
         21   -1    0    0  501  502  0.00000000000E+00  0.00000000000E+00  0.22879493590E+03  0.22879493590E+03  0.00000000000E+00 0. -1.
         21   -1    0    0  502  503 -0.00000000000E+00 -0.00000000000E+00 -0.83619584046E+03  0.83619584046E+03  0.00000000000E+00 0.  1.
         24    1    1    2    0    0  0.26204363418E-02 -0.12445844442E+02 -0.20383532522E+02  0.83890424979E+02  0.80419002446E+02 0.  0.
          1    1    1    2  501    0  0.89420527916E+02 -0.17639405545E+03  0.12840304237E+03  0.23579277958E+03  0.00000000000E+00 0. -1.
         -2    1    1    2    0  503 -0.89423148353E+02  0.18883989989E+03 -0.71542041440E+03  0.74530757180E+03  0.00000000000E+00 0.  1.
<mgrwt>
<rscale>  2 0.24404186E+03</rscale>
<asrwt>0</asrwt>
<pdfrwt beam="1">  1       21 0.35199221E-01 0.24404186E+03</pdfrwt>
<pdfrwt beam="2">  1       21 0.12864551E+00 0.24404186E+03</pdfrwt>
<totfact> 0.33160108E+03</totfact>
</mgrwt>
</event>
<event>
 5    1  0.1745726E+000  0.6964241E+02  0.7546771E-02  0.1361313E+00
         21   -1    0    0  501  502  0.00000000000E+00  0.00000000000E+00  0.25647919679E+03  0.25647919679E+03  0.00000000000E+00 0. -1.
         21   -1    0    0  502  503 -0.00000000000E+00 -0.00000000000E+00 -0.18165591395E+03  0.18165591395E+03  0.00000000000E+00 0.  1.
         24    1    1    2    0    0  0.20688590034E+01 -0.77761248442E+01 -0.50715383719E+02  0.95414958970E+02  0.80419002446E+02 0. -1.
          1    1    1    2  501    0  0.90157092823E+01  0.31239446486E+02  0.23142625517E+03  0.23369916049E+03  0.00000000000E+00 0. -1.
         -2    1    1    2    0  503 -0.11084568286E+02 -0.23463321641E+02 -0.10588758862E+03  0.10902099128E+03  0.00000000000E+00 0.  1.
<mgrwt>
<rscale>  2 0.69642412E+02</rscale>
<asrwt>0</asrwt>
<pdfrwt beam="1">  1       21 0.39458338E-01 0.69642412E+02</pdfrwt>
<pdfrwt beam="2">  1       21 0.27947064E-01 0.69642412E+02</pdfrwt>
<totfact> 0.80457976E+04</totfact>
</mgrwt>
</event>
<event>
 5    1  0.1745726E+000  0.7402018E+02  0.7546771E-02  0.1346932E+00
         21   -1    0    0  501  502  0.00000000000E+00  0.00000000000E+00  0.90127439065E+01  0.90127439065E+01  0.00000000000E+00 0.  1.
         21   -1    0    0  502  503 -0.00000000000E+00 -0.00000000000E+00 -0.62788779830E+03  0.62788779830E+03  0.00000000000E+00 0. -1.
         24    1    1    2    0    0 -0.29596088473E+02 -0.34111752737E+02 -0.32840991864E+03  0.34111556801E+03  0.80419002446E+02 0.  1.
          1    1    1    2  501    0  0.31570223824E+02  0.12259438348E+02 -0.17092967133E+03  0.17425247603E+03  0.00000000000E+00 0. -1.
         -2    1    1    2    0  503 -0.19741353512E+01  0.21852314389E+02 -0.11953546443E+03  0.12153249817E+03  0.00000000000E+00 0.  1.
<mgrwt>
<rscale>  2 0.74020185E+02</rscale>
<asrwt>0</asrwt>
<pdfrwt beam="1">  1       21 0.13865765E-02 0.74020185E+02</pdfrwt>
<pdfrwt beam="2">  1       21 0.96598090E-01 0.74020185E+02</pdfrwt>
<totfact> 0.19566402E+06</totfact>
</mgrwt>
</event>
<event>
 5    1  0.1745726E+000  0.1152501E+03  0.7546771E-02  0.1251145E+00
         21   -1    0    0  503  502  0.00000000000E+00  0.00000000000E+00  0.76133000562E+02  0.76133000562E+02  0.00000000000E+00 0. -1.
         21   -1    0    0  501  503 -0.00000000000E+00 -0.00000000000E+00 -0.27407884606E+03  0.27407884606E+03  0.00000000000E+00 0.  1.
         24    1    1    2    0    0  0.11932842614E+02  0.89693522813E+02 -0.10101443962E+03  0.15766563904E+03  0.80419002446E+02 0. -1.
          1    1    1    2  501    0 -0.34934878887E+02 -0.32163499331E+02 -0.11792598525E+03  0.12712778787E+03  0.00000000000E+00 0. -1.
         -2    1    1    2    0  502  0.23002036273E+02 -0.57530023482E+02  0.20994579373E+02  0.65418419712E+02  0.00000000000E+00 0.  1.
<mgrwt>
<rscale>  2 0.11525006E+03</rscale>
<asrwt>0</asrwt>
<pdfrwt beam="1">  1       21 0.11712769E-01 0.11525006E+03</pdfrwt>
<pdfrwt beam="2">  1       21 0.42165977E-01 0.11525006E+03</pdfrwt>
<totfact> 0.33655904E+05</totfact>
</mgrwt>
</event>
<event>
 5    1  0.1745726E+000  0.7697066E+02  0.7546771E-02  0.1337875E+00
         21   -1    0    0  501  502  0.00000000000E+00  0.00000000000E+00  0.44246255579E+03  0.44246255579E+03  0.00000000000E+00 0. -1.
         21   -1    0    0  502  503 -0.00000000000E+00 -0.00000000000E+00 -0.15282760333E+02  0.15282760333E+02  0.00000000000E+00 0.  1.
         24    1    1    2    0    0  0.51469156521E+02  0.14798031646E+02  0.33945390932E+03  0.35293657833E+03  0.80419002446E+02 0. -1.
          1    1    1    2  501    0 -0.20949446878E+02 -0.16629733410E+02  0.42572582432E+02  0.50277749877E+02  0.00000000000E+00 0. -1.
         -2    1    1    2    0  503 -0.30519709643E+02  0.18317017642E+01  0.45153303705E+02  0.54530987920E+02  0.00000000000E+00 0.  1.
<mgrwt>
<rscale>  2 0.76970655E+02</rscale>
<asrwt>0</asrwt>
<pdfrwt beam="1">  1       21 0.68071153E-01 0.76970655E+02</pdfrwt>
<pdfrwt beam="2">  1       21 0.23511942E-02 0.76970655E+02</pdfrwt>
<totfact> 0.18328269E+06</totfact>
</mgrwt>
</event>
<event>
 5    1  0.1745726E+000  0.1456497E+03  0.7546771E-02  0.1205923E+00
         21   -1    0    0  501  502  0.00000000000E+00  0.00000000000E+00  0.94437299685E+02  0.94437299685E+02  0.00000000000E+00 0. -1.
         21   -1    0    0  502  503 -0.00000000000E+00 -0.00000000000E+00 -0.15481946178E+04  0.15481946178E+04  0.00000000000E+00 0.  1.
         24    1    1    2    0    0  0.11215285455E+03  0.34482098514E+02 -0.44265498151E+03  0.46494938060E+03  0.80419002446E+02 0. -1.
          1    1    1    2  501    0 -0.12720372718E+03 -0.21160279981E+02  0.33223847942E+02  0.13316294428E+03  0.00000000000E+00 0. -1.
         -2    1    1    2    0  503  0.15050872632E+02 -0.13321818533E+02 -0.10443261845E+04  0.10445195926E+04  0.00000000000E+00 0.  1.
<mgrwt>
<rscale>  2 0.14564973E+03</rscale>
<asrwt>0</asrwt>
<pdfrwt beam="1">  1       21 0.14528816E-01 0.14564973E+03</pdfrwt>
<pdfrwt beam="2">  1       21 0.23818378E+00 0.14564973E+03</pdfrwt>
<totfact> 0.34319053E+03</totfact>
</mgrwt>
</event>
<event>
 5    1  0.1745726E+000  0.7094594E+02  0.7546771E-02  0.1356906E+00
         21   -1    0    0  503  502  0.00000000000E+00  0.00000000000E+00  0.50215592192E+03  0.50215592192E+03  0.00000000000E+00 0. -1.
         21   -1    0    0  501  503 -0.00000000000E+00 -0.00000000000E+00 -0.10941513280E+02  0.10941513280E+02  0.00000000000E+00 0.  1.
         24    1    1    2    0    0  0.31861499952E+01  0.80813986128E+01  0.20375934045E+03  0.21922715464E+03  0.80419002446E+02 0.  1.
          1    1    1    2  501    0 -0.30964383744E+02  0.29757767131E+01  0.13989138322E+03  0.14330822519E+03  0.00000000000E+00 0. -1.
         -2    1    1    2    0  502  0.27778233749E+02 -0.11057175326E+02  0.14756368498E+03  0.15056205538E+03  0.00000000000E+00 0.  1.
<mgrwt>
<rscale>  2 0.70945938E+02</rscale>
<asrwt>0</asrwt>
<pdfrwt beam="1">  1       21 0.77254739E-01 0.70945938E+02</pdfrwt>
<pdfrwt beam="2">  1       21 0.16833101E-02 0.70945938E+02</pdfrwt>
<totfact> 0.23664465E+06</totfact>
</mgrwt>
</event>
<event>
 5    1  0.1745726E+000  0.1153008E+03  0.7546771E-02  0.1251057E+00
         21   -1    0    0  501  502  0.00000000000E+00  0.00000000000E+00  0.18029705217E+03  0.18029705217E+03  0.00000000000E+00 0.  1.
         21   -1    0    0  502  503 -0.00000000000E+00 -0.00000000000E+00 -0.92676491464E+02  0.92676491464E+02  0.00000000000E+00 0. -1.
         24    1    1    2    0    0  0.30866380895E+02 -0.15724062807E+02  0.57993404843E+02  0.10502585672E+03  0.80419002446E+02 0.  1.
          1    1    1    2  501    0 -0.74124925075E+02  0.48659635414E+02  0.58655300987E+02  0.10631419929E+03  0.00000000000E+00 0. -1.
         -2    1    1    2    0  503  0.43258544180E+02 -0.32935572608E+02 -0.29028145124E+02  0.61633487626E+02  0.00000000000E+00 0.  1.
<mgrwt>
<rscale>  2 0.11530077E+03</rscale>
<asrwt>0</asrwt>
<pdfrwt beam="1">  1       21 0.27738008E-01 0.11530077E+03</pdfrwt>
<pdfrwt beam="2">  1       21 0.14257922E-01 0.11530077E+03</pdfrwt>
<totfact> 0.53800069E+05</totfact>
</mgrwt>
</event>
<event>
 5    1  0.1745726E+000  0.7764521E+02  0.7546771E-02  0.1335870E+00
         21   -1    0    0  501  502  0.00000000000E+00  0.00000000000E+00  0.90827663150E+03  0.90827663150E+03  0.00000000000E+00 0. -1.
         21   -1    0    0  502  503 -0.00000000000E+00 -0.00000000000E+00 -0.10908741042E+02  0.10908741042E+02  0.00000000000E+00 0. -1.
         24    1    1    2    0    0 -0.76682302564E+01 -0.36516791544E+01  0.24952769005E+03  0.26230406129E+03  0.80419002446E+02 0. -1.
          1    1    1    2  501    0 -0.28053031045E+02 -0.17351689134E+02  0.54512795450E+03  0.54612502272E+03  0.00000000000E+00 0. -1.
         -2    1    1    2    0  503  0.35721261302E+02  0.21003368289E+02  0.10271224592E+03  0.11075628853E+03  0.00000000000E+00 0.  1.
<mgrwt>
<rscale>  2 0.77645215E+02</rscale>
<asrwt>0</asrwt>
<pdfrwt beam="1">  1       21 0.13973481E+00 0.77645215E+02</pdfrwt>
<pdfrwt beam="2">  1       21 0.16782686E-02 0.77645215E+02</pdfrwt>
<totfact> 0.60256234E+05</totfact>
</mgrwt>
</event>
<event>
 5    1  0.1745726E+000  0.9331630E+02  0.7546771E-02  0.1295014E+00
         21   -1    0    0  503  502  0.00000000000E+00  0.00000000000E+00  0.39179614170E+03  0.39179614170E+03  0.00000000000E+00 0. -1.
         21   -1    0    0  501  503 -0.00000000000E+00 -0.00000000000E+00 -0.23174194301E+02  0.23174194301E+02  0.00000000000E+00 0. -1.
         24    1    1    2    0    0 -0.39966207304E+02  0.52495193683E+02  0.24044124297E+03  0.26197757607E+03  0.80419002446E+02 0. -1.
          1    1    1    2  501    0  0.50718382973E+02 -0.33494777535E+02  0.83669866768E+02  0.10341615492E+03  0.00000000000E+00 0. -1.
         -2    1    1    2    0  502 -0.10752175669E+02 -0.19000416148E+02  0.44510837657E+02  0.49576605010E+02  0.00000000000E+00 0.  1.
<mgrwt>
<rscale>  2 0.93316299E+02</rscale>
<asrwt>0</asrwt>
<pdfrwt beam="1">  1       21 0.60276324E-01 0.93316299E+02</pdfrwt>
<pdfrwt beam="2">  1       21 0.35652610E-02 0.93316299E+02</pdfrwt>
<totfact> 0.12143645E+06</totfact>
</mgrwt>
</event>
<event>
 5    1  0.1745726E+000  0.1738300E+03  0.7546771E-02  0.1173912E+00
         21   -1    0    0  501  502  0.00000000000E+00  0.00000000000E+00  0.14744154406E+03  0.14744154406E+03  0.00000000000E+00 0. -1.
         21   -1    0    0  502  503 -0.00000000000E+00 -0.00000000000E+00 -0.35009010628E+03  0.35009010628E+03  0.00000000000E+00 0.  1.
         24    1    1    2    0    0  0.80204697335E+02  0.13434048190E+03 -0.14215707792E+03  0.22617694248E+03  0.80419002446E+02 0.  1.
          1    1    1    2  501    0 -0.62307000160E+02 -0.36361201855E+02  0.74429017340E+02  0.10365316151E+03  0.00000000000E+00 0. -1.
         -2    1    1    2    0  503 -0.17897697175E+02 -0.97979280045E+02 -0.13492050165E+03  0.16770154635E+03  0.00000000000E+00 0.  1.
<mgrwt>
<rscale>  2 0.17383001E+03</rscale>
<asrwt>0</asrwt>
<pdfrwt beam="1">  1       21 0.22683315E-01 0.17383001E+03</pdfrwt>
<pdfrwt beam="2">  1       21 0.53860016E-01 0.17383001E+03</pdfrwt>
<totfact> 0.59912495E+04</totfact>
</mgrwt>
</event>
<event>
 5    1  0.1745726E+000  0.7103500E+02  0.7546771E-02  0.1356608E+00
         21   -1    0    0  501  502  0.00000000000E+00  0.00000000000E+00  0.43123203394E+03  0.43123203394E+03  0.00000000000E+00 0.  1.
         21   -1    0    0  502  503 -0.00000000000E+00 -0.00000000000E+00 -0.13695867588E+02  0.13695867588E+02  0.00000000000E+00 0.  1.
         24    1    1    2    0    0 -0.62601546644E+01 -0.92493650383E+00  0.30962771162E+03  0.31996340541E+03  0.80419002446E+02 0.  1.
          1    1    1    2  501    0 -0.73630236972E+01 -0.28255200227E+02  0.65509980642E+02  0.71722576791E+02  0.00000000000E+00 0. -1.
         -2    1    1    2    0  503  0.13623178362E+02  0.29180136731E+02  0.42398474083E+02  0.53241919320E+02  0.00000000000E+00 0.  1.
<mgrwt>
<rscale>  2 0.71034999E+02</rscale>
<asrwt>0</asrwt>
<pdfrwt beam="1">  1       21 0.66343379E-01 0.71034999E+02</pdfrwt>
<pdfrwt beam="2">  1       21 0.21070569E-02 0.71034999E+02</pdfrwt>
<totfact> 0.22990113E+06</totfact>
</mgrwt>
</event>
<event>
 5    1  0.1745726E+000  0.1582578E+03  0.7546771E-02  0.1190678E+00
         21   -1    0    0  503  502  0.00000000000E+00  0.00000000000E+00  0.89185030711E+01  0.89185030711E+01  0.00000000000E+00 0. -1.
         21   -1    0    0  501  503 -0.00000000000E+00 -0.00000000000E+00 -0.29408557617E+04  0.29408557617E+04  0.00000000000E+00 0. -1.
         24    1    1    2    0    0 -0.12780681952E+03 -0.43986072365E+02 -0.14564564667E+04  0.14649238933E+04  0.80419002446E+02 0. -1.
          1    1    1    2  501    0  0.12319223375E+03  0.85358481550E+01 -0.12942165572E+04  0.13000944904E+04  0.00000000000E+00 0. -1.
         -2    1    1    2    0  502  0.46145857669E+01  0.35450224210E+02 -0.18126423474E+03  0.18475588108E+03  0.00000000000E+00 0.  1.
<mgrwt>
<rscale>  2 0.15825778E+03</rscale>
<asrwt>0</asrwt>
<pdfrwt beam="1">  1       21 0.13720765E-02 0.15825778E+03</pdfrwt>
<pdfrwt beam="2">  1       21 0.45243965E+00 0.15825778E+03</pdfrwt>
<totfact> 0.95458568E+03</totfact>
</mgrwt>
</event>
<event>
 5    1  0.1745726E+000  0.6744846E+02  0.7546771E-02  0.1368991E+00
         21   -1    0    0  503  502  0.00000000000E+00  0.00000000000E+00  0.39686014594E+03  0.39686014594E+03  0.00000000000E+00 0.  1.
         21   -1    0    0  501  503 -0.00000000000E+00 -0.00000000000E+00 -0.14709008799E+02  0.14709008799E+02  0.00000000000E+00 0. -1.
         24    1    1    2    0    0 -0.12309659667E+02  0.38664845889E+02  0.14899580625E+03  0.17410762264E+03  0.80419002446E+02 0. -1.
          1    1    1    2  501    0  0.15541845992E+02 -0.17477500955E+02  0.13269681707E+03  0.13474218819E+03  0.00000000000E+00 0. -1.
         -2    1    1    2    0  502 -0.32321863256E+01 -0.21187344934E+02  0.10045851381E+03  0.10271934390E+03  0.00000000000E+00 0.  1.
<mgrwt>
<rscale>  2 0.67448455E+02</rscale>
<asrwt>0</asrwt>
<pdfrwt beam="1">  1       21 0.61055399E-01 0.67448455E+02</pdfrwt>
<pdfrwt beam="2">  1       21 0.22629247E-02 0.67448455E+02</pdfrwt>
<totfact> 0.24376540E+06</totfact>
</mgrwt>
</event>
<event>
 5    1  0.1745726E+000  0.1012778E+03  0.7546771E-02  0.1277632E+00
         21   -1    0    0  503  502  0.00000000000E+00  0.00000000000E+00  0.24845580367E+03  0.24845580367E+03  0.00000000000E+00 0.  1.
         21   -1    0    0  501  503 -0.00000000000E+00 -0.00000000000E+00 -0.92069864273E+02  0.92069864273E+02  0.00000000000E+00 0.  1.
         24    1    1    2    0    0 -0.48432662340E+01  0.70629664296E+02 -0.63938358855E+01  0.10733174646E+03  0.80419002446E+02 0.  1.
          1    1    1    2  501    0  0.32172356869E+02 -0.20007088631E+02 -0.19103313625E+02  0.42429715218E+02  0.00000000000E+00 0. -1.
         -2    1    1    2    0  502 -0.27329090635E+02 -0.50622575664E+02  0.18188308891E+03  0.19076420627E+03  0.00000000000E+00 0.  1.
<mgrwt>
<rscale>  2 0.10127777E+03</rscale>
<asrwt>0</asrwt>
<pdfrwt beam="1">  1       21 0.38223970E-01 0.10127777E+03</pdfrwt>
<pdfrwt beam="2">  1       21 0.14164595E-01 0.10127777E+03</pdfrwt>
<totfact> 0.29281947E+05</totfact>
</mgrwt>
</event>
<event>
 5    1  0.1745726E+000  0.6646954E+02  0.7546771E-02  0.1372527E+00
         21   -1    0    0  501  502  0.00000000000E+00  0.00000000000E+00  0.11763868740E+03  0.11763868740E+03  0.00000000000E+00 0. -1.
         21   -1    0    0  502  503 -0.00000000000E+00 -0.00000000000E+00 -0.44578054649E+02  0.44578054649E+02  0.00000000000E+00 0.  1.
         24    1    1    2    0    0 -0.26292736692E+00 -0.61099851624E+01  0.71276214158E+02  0.10763324630E+03  0.80419002446E+02 0. -1.
          1    1    1    2  501    0 -0.17125520328E+02 -0.16489096280E+02  0.85732058427E+01  0.25271992424E+02  0.00000000000E+00 0. -1.
         -2    1    1    2    0  503  0.17388447695E+02  0.22599081443E+02 -0.67887872456E+01  0.29311503332E+02  0.00000000000E+00 0.  1.
<mgrwt>
<rscale>  2 0.66469543E+02</rscale>
<asrwt>0</asrwt>
<pdfrwt beam="1">  1       21 0.18098259E-01 0.66469543E+02</pdfrwt>
<pdfrwt beam="2">  1       21 0.68581623E-02 0.66469543E+02</pdfrwt>
<totfact> 0.41321869E+06</totfact>
</mgrwt>
</event>
<event>
 5    1  0.1745726E+000  0.8664515E+02  0.7546771E-02  0.1311186E+00
         21   -1    0    0  503  502  0.00000000000E+00  0.00000000000E+00  0.28870494648E+03  0.28870494648E+03  0.00000000000E+00 0.  1.
         21   -1    0    0  501  503 -0.00000000000E+00 -0.00000000000E+00 -0.66185373899E+02  0.66185373899E+02  0.00000000000E+00 0. -1.
         24    1    1    2    0    0 -0.30215606128E+02 -0.34286629364E+02  0.26762627023E+02  0.96291276689E+02  0.80419002446E+02 0.  1.
          1    1    1    2  501    0  0.15671704319E+02 -0.19532984622E+02 -0.22297325831E+02  0.33530740280E+02  0.00000000000E+00 0. -1.
         -2    1    1    2    0  502  0.14543901810E+02  0.53819613986E+02  0.21805427139E+03  0.22506830341E+03  0.00000000000E+00 0.  1.
<mgrwt>
<rscale>  2 0.86645147E+02</rscale>
<asrwt>0</asrwt>
<pdfrwt beam="1">  1       21 0.44416145E-01 0.86645147E+02</pdfrwt>
<pdfrwt beam="2">  1       21 0.10182365E-01 0.86645147E+02</pdfrwt>
<totfact> 0.38877999E+05</totfact>
</mgrwt>
</event>
<event>
 5    1  0.1745726E+000  0.8307735E+02  0.7546771E-02  0.1320538E+00
         21   -1    0    0  501  502  0.00000000000E+00  0.00000000000E+00  0.16801276637E+04  0.16801276637E+04  0.00000000000E+00 0. -1.
         21   -1    0    0  502  503 -0.00000000000E+00 -0.00000000000E+00 -0.74857658888E+01  0.74857658888E+01  0.00000000000E+00 0.  1.
         24    1    1    2    0    0  0.35555641750E+02 -0.56258737790E+01  0.13394602526E+04  0.13423549599E+04  0.80419002446E+02 0.  0.
          1    1    1    2  501    0  0.21124314656E+02  0.42835450667E+00  0.19011430275E+03  0.19128478316E+03  0.00000000000E+00 0. -1.
         -2    1    1    2    0  503 -0.56679956406E+02  0.51975192724E+01  0.14306734242E+03  0.15397368650E+03  0.00000000000E+00 0.  1.
<mgrwt>
<rscale>  2 0.83077353E+02</rscale>
<asrwt>0</asrwt>
<pdfrwt beam="1">  1       21 0.25848088E+00 0.83077353E+02</pdfrwt>
<pdfrwt beam="2">  1       21 0.11516576E-02 0.83077353E+02</pdfrwt>
<totfact> 0.19456857E+05</totfact>
</mgrwt>
</event>
<event>
 5    1  0.1914643E+000  0.1055750E+03  0.7546771E-02  0.1268991E+00
         21   -1    0    0  501  502  0.00000000000E+00  0.00000000000E+00  0.64496071608E+03  0.64496071608E+03  0.00000000000E+00 0.  1.
         21   -1    0    0  502  503 -0.00000000000E+00 -0.00000000000E+00 -0.53228142339E+02  0.53228142339E+02  0.00000000000E+00 0.  1.
         24    1    1    2    0    0  0.23846382713E+02  0.32459606381E+02  0.40564281218E+03  0.41549438388E+03  0.80419002446E+02 0.  1.
          1    1    1    2  501    0  0.29438204555E+02 -0.55758655066E+02  0.21041294523E+03  0.21965710328E+03  0.00000000000E+00 0. -1.
         -2    1    1    2    0  503 -0.53284587268E+02  0.23299048684E+02 -0.24323183670E+02  0.63037371247E+02  0.00000000000E+00 0.  1.
<mgrwt>
<rscale>  2 0.10557500E+03</rscale>
<asrwt>0</asrwt>
<pdfrwt beam="1">  1       21 0.99224720E-01 0.10557500E+03</pdfrwt>
<pdfrwt beam="2">  1       21 0.81889454E-02 0.10557500E+03</pdfrwt>
<totfact> 0.10014259E+05</totfact>
</mgrwt>
</event>
<event>
 5    1  0.1745726E+000  0.6967210E+02  0.7546771E-02  0.1361212E+00
         21   -1    0    0  501  502  0.00000000000E+00  0.00000000000E+00  0.41342029329E+02  0.41342029329E+02  0.00000000000E+00 0.  1.
         21   -1    0    0  502  503 -0.00000000000E+00 -0.00000000000E+00 -0.16568359711E+03  0.16568359711E+03  0.00000000000E+00 0. -1.
         24    1    1    2    0    0 -0.14293116637E+02  0.18063364271E+01 -0.16549423690E+02  0.83358595318E+02  0.80419002446E+02 0.  1.
          1    1    1    2  501    0  0.35575105358E+02 -0.56429606881E+01 -0.47491124559E+02  0.59605687971E+02  0.00000000000E+00 0. -1.
         -2    1    1    2    0  503 -0.21281988721E+02  0.38366242611E+01 -0.60301019529E+02  0.64061343148E+02  0.00000000000E+00 0.  1.
<mgrwt>
<rscale>  2 0.69672099E+02</rscale>
<asrwt>0</asrwt>
<pdfrwt beam="1">  1       21 0.63603121E-02 0.69672099E+02</pdfrwt>
<pdfrwt beam="2">  1       21 0.25489785E-01 0.69672099E+02</pdfrwt>
<totfact> 0.25146254E+06</totfact>
</mgrwt>
</event>
<event>
 5    1  0.1745726E+000  0.1026837E+03  0.7546771E-02  0.1274752E+00
         21   -1    0    0  501  502  0.00000000000E+00  0.00000000000E+00  0.33065222399E+03  0.33065222399E+03  0.00000000000E+00 0.  1.
         21   -1    0    0  502  503 -0.00000000000E+00 -0.00000000000E+00 -0.64799245005E+02  0.64799245005E+02  0.00000000000E+00 0. -1.
         24    1    1    2    0    0 -0.10357586038E+02  0.57248923775E+02 -0.93841535722E+01  0.99699534375E+02  0.80419002446E+02 0. -1.
          1    1    1    2  501    0  0.40807963760E+02  0.51584852894E+00  0.13545736776E+03  0.14147174448E+03  0.00000000000E+00 0. -1.
         -2    1    1    2    0  503 -0.30450377723E+02 -0.57764772304E+02  0.13977976479E+03  0.15428019014E+03  0.00000000000E+00 0.  1.
<mgrwt>
<rscale>  2 0.10268370E+03</rscale>
<asrwt>0</asrwt>
<pdfrwt beam="1">  1       21 0.50869572E-01 0.10268370E+03</pdfrwt>
<pdfrwt beam="2">  1       21 0.99691148E-02 0.10268370E+03</pdfrwt>
<totfact> 0.30553796E+05</totfact>
</mgrwt>
</event>
<event>
 5    1  0.1745726E+000  0.7140703E+02  0.7546771E-02  0.1355373E+00
         21   -1    0    0  503  502  0.00000000000E+00  0.00000000000E+00  0.32290595124E+03  0.32290595124E+03  0.00000000000E+00 0.  1.
         21   -1    0    0  501  503 -0.00000000000E+00 -0.00000000000E+00 -0.27648201271E+02  0.27648201271E+02  0.00000000000E+00 0.  1.
         24    1    1    2    0    0 -0.30536548397E+02  0.29308063332E+02  0.11655796891E+03  0.14779857724E+03  0.80419002446E+02 0.  1.
          1    1    1    2  501    0  0.50147103437E+01 -0.25672166425E+02  0.43577466633E+01  0.26517869537E+02  0.00000000000E+00 0. -1.
         -2    1    1    2    0  502  0.25521838053E+02 -0.36358969071E+01  0.17434203440E+03  0.17623770573E+03  0.00000000000E+00 0.  1.
<mgrwt>
<rscale>  2 0.71407026E+02</rscale>
<asrwt>0</asrwt>
<pdfrwt beam="1">  1       21 0.49677836E-01 0.71407026E+02</pdfrwt>
<pdfrwt beam="2">  1       21 0.42535697E-02 0.71407026E+02</pdfrwt>
<totfact> 0.13457939E+06</totfact>
</mgrwt>
</event>
<event>
 5    1  0.1745726E+000  0.7808460E+02  0.7546771E-02  0.1334577E+00
         21   -1    0    0  501  502  0.00000000000E+00  0.00000000000E+00  0.76581549756E+01  0.76581549756E+01  0.00000000000E+00 0. -1.
         21   -1    0    0  502  503 -0.00000000000E+00 -0.00000000000E+00 -0.15864224357E+04  0.15864224357E+04  0.00000000000E+00 0. -1.
         24    1    1    2    0    0 -0.15804952746E+02 -0.51815719654E+02 -0.10039501287E+04  0.10086217042E+04  0.80419002446E+02 0. -1.
          1    1    1    2  501    0 -0.49398320302E+01  0.24018183897E+02 -0.26711583957E+02  0.36259947817E+02  0.00000000000E+00 0. -1.
         -2    1    1    2    0  503  0.20744784776E+02  0.27797535757E+02 -0.54810256814E+03  0.54919893872E+03  0.00000000000E+00 0.  1.
<mgrwt>
<rscale>  2 0.78084604E+02</rscale>
<asrwt>0</asrwt>
<pdfrwt beam="1">  1       21 0.11781783E-02 0.78084604E+02</pdfrwt>
<pdfrwt beam="2">  1       21 0.24406487E+00 0.78084604E+02</pdfrwt>
<totfact> 0.22704450E+05</totfact>
</mgrwt>
</event>
<event>
 5    1  0.1745726E+000  0.7088567E+02  0.7546771E-02  0.1357107E+00
         21   -1    0    0  501  502  0.00000000000E+00  0.00000000000E+00  0.13121869915E+02  0.13121869915E+02  0.00000000000E+00 0. -1.
         21   -1    0    0  502  503 -0.00000000000E+00 -0.00000000000E+00 -0.20290623527E+04  0.20290623527E+04  0.00000000000E+00 0. -1.
         24    1    1    2    0    0  0.28035177295E+02  0.38268928785E+01 -0.12447966082E+04  0.12477124781E+04  0.80419002446E+02 0. -1.
          1    1    1    2  501    0 -0.10598618366E+02 -0.26137001768E+02 -0.60394283335E+01  0.28843513435E+02  0.00000000000E+00 0. -1.
         -2    1    1    2    0  503 -0.17436558928E+02  0.22310108890E+02 -0.76510444624E+03  0.76562823107E+03  0.00000000000E+00 0.  1.
<mgrwt>
<rscale>  2 0.70885673E+02</rscale>
<asrwt>0</asrwt>
<pdfrwt beam="1">  1       21 0.20187482E-02 0.70885673E+02</pdfrwt>
<pdfrwt beam="2">  1       21 0.31216360E+00 0.70885673E+02</pdfrwt>
<totfact> 0.41900241E+04</totfact>
</mgrwt>
</event>
<event>
 5    1  0.1745726E+000  0.7635672E+02  0.7546771E-02  0.1339720E+00
         21   -1    0    0  503  502  0.00000000000E+00  0.00000000000E+00  0.50364386216E+02  0.50364386216E+02  0.00000000000E+00 0. -1.
         21   -1    0    0  501  503 -0.00000000000E+00 -0.00000000000E+00 -0.14630763545E+03  0.14630763545E+03  0.00000000000E+00 0.  1.
         24    1    1    2    0    0  0.14966881610E+02  0.26258701542E+02 -0.88842973772E+01  0.86369402256E+02  0.80419002446E+02 0. -1.
          1    1    1    2  501    0 -0.38194777876E+02 -0.16055491501E+02 -0.62550639092E+02  0.75028010203E+02  0.00000000000E+00 0. -1.
         -2    1    1    2    0  502  0.23227896265E+02 -0.10203210041E+02 -0.24508312761E+02  0.35274609203E+02  0.00000000000E+00 0.  1.
<mgrwt>
<rscale>  2 0.76356718E+02</rscale>
<asrwt>0</asrwt>
<pdfrwt beam="1">  1       21 0.77483672E-02 0.76356718E+02</pdfrwt>
<pdfrwt beam="2">  1       21 0.22508867E-01 0.76356718E+02</pdfrwt>
<totfact> 0.22811015E+06</totfact>
</mgrwt>
</event>
<event>
 5    1  0.1745726E+000  0.8709452E+02  0.7546771E-02  0.1310044E+00
         21   -1    0    0  501  502  0.00000000000E+00  0.00000000000E+00  0.91314416667E+03  0.91314416667E+03  0.00000000000E+00 0. -1.
         21   -1    0    0  502  503 -0.00000000000E+00 -0.00000000000E+00 -0.46673901502E+02  0.46673901502E+02  0.00000000000E+00 0.  1.
         24    1    1    2    0    0  0.11013115324E+02 -0.35737729422E+02  0.93916512188E+02  0.12917430561E+03  0.80419002446E+02 0.  1.
          1    1    1    2  501    0  0.25182704441E+02 -0.10067078538E+02  0.77178236612E+03  0.77225872305E+03  0.00000000000E+00 0. -1.
         -2    1    1    2    0  503 -0.36195819766E+02  0.45804807960E+02  0.77138685553E+00  0.58385039509E+02  0.00000000000E+00 0.  1.
<mgrwt>
<rscale>  2 0.87094521E+02</rscale>
<asrwt>0</asrwt>
<pdfrwt beam="1">  1       21 0.14048370E+00 0.87094521E+02</pdfrwt>
<pdfrwt beam="2">  1       21 0.71806009E-02 0.87094521E+02</pdfrwt>
<totfact> 0.54983213E+04</totfact>
</mgrwt>
</event>
<event>
 5    1  0.1745726E+000  0.1602992E+03  0.7546771E-02  0.1188359E+00
         21   -1    0    0  501  502  0.00000000000E+00  0.00000000000E+00  0.81638453218E+02  0.81638453218E+02  0.00000000000E+00 0. -1.
         21   -1    0    0  502  503 -0.00000000000E+00 -0.00000000000E+00 -0.70403670808E+03  0.70403670808E+03  0.00000000000E+00 0.  1.
         24    1    1    2    0    0  0.60070054741E+02  0.74352332042E+02 -0.78343384981E+02  0.14745027189E+03  0.80419002446E+02 0.  1.
          1    1    1    2  501    0  0.43559729586E+02  0.26575131960E+02  0.20828509034E+02  0.55113650477E+02  0.00000000000E+00 0. -1.
         -2    1    1    2    0  503 -0.10362978433E+03 -0.10092746400E+03 -0.56488337892E+03  0.58311123893E+03  0.00000000000E+00 0.  1.
<mgrwt>
<rscale>  2 0.16029917E+03</rscale>
<asrwt>0</asrwt>
<pdfrwt beam="1">  1       21 0.12559762E-01 0.16029917E+03</pdfrwt>
<pdfrwt beam="2">  1       21 0.10831334E+00 0.16029917E+03</pdfrwt>
<totfact> 0.37347338E+04</totfact>
</mgrwt>
</event>
<event>
 5    1  0.1745726E+000  0.6478703E+02  0.7546771E-02  0.1378774E+00
         21   -1    0    0  503  502  0.00000000000E+00  0.00000000000E+00  0.66706650901E+02  0.66706650901E+02  0.00000000000E+00 0. -1.
         21   -1    0    0  501  503 -0.00000000000E+00 -0.00000000000E+00 -0.74614977056E+02  0.74614977056E+02  0.00000000000E+00 0.  1.
         24    1    1    2    0    0  0.29550083033E+02 -0.87571860621E+01 -0.30346872088E+02  0.91312892380E+02  0.80419002446E+02 0.  1.
          1    1    1    2  501    0 -0.17643425678E+02 -0.10704203554E+02  0.48438173222E+01  0.21197476492E+02  0.00000000000E+00 0. -1.
         -2    1    1    2    0  502 -0.11906657355E+02  0.19461389616E+02  0.17594728612E+02  0.28811259085E+02  0.00000000000E+00 0.  1.
<mgrwt>
<rscale>  2 0.64787032E+02</rscale>
<asrwt>0</asrwt>
<pdfrwt beam="1">  1       21 0.10262562E-01 0.64787032E+02</pdfrwt>
<pdfrwt beam="2">  1       21 0.11479227E-01 0.64787032E+02</pdfrwt>
<totfact> 0.46431410E+06</totfact>
</mgrwt>
</event>
<event>
 5    1  0.1745726E+000  0.1019699E+03  0.7546771E-02  0.1276207E+00
         21   -1    0    0  501  502  0.00000000000E+00  0.00000000000E+00  0.11884179276E+02  0.11884179276E+02  0.00000000000E+00 0. -1.
         21   -1    0    0  502  503 -0.00000000000E+00 -0.00000000000E+00 -0.11641365358E+04  0.11641365358E+04  0.00000000000E+00 0.  1.
         24    1    1    2    0    0 -0.76070151585E+02 -0.37158776578E+02 -0.53864295169E+03  0.55115414178E+03  0.80419002446E+02 0. -1.
          1    1    1    2  501    0  0.50523931981E+02  0.35147880562E+02 -0.17496869102E+03  0.18547798805E+03  0.00000000000E+00 0. -1.
         -2    1    1    2    0  503  0.25546219604E+02  0.20108960162E+01 -0.43864071385E+03  0.43938858529E+03  0.00000000000E+00 0.  1.
<mgrwt>
<rscale>  2 0.10196992E+03</rscale>
<asrwt>0</asrwt>
<pdfrwt beam="1">  1       21 0.18283345E-02 0.10196992E+03</pdfrwt>
<pdfrwt beam="2">  1       21 0.17909801E+00 0.10196992E+03</pdfrwt>
<totfact> 0.27359075E+05</totfact>
</mgrwt>
</event>
<event>
 5    1  0.1745726E+000  0.8011971E+02  0.7546771E-02  0.1328712E+00
         21   -1    0    0  501  502  0.00000000000E+00  0.00000000000E+00  0.16184766309E+02  0.16184766309E+02  0.00000000000E+00 0.  1.
         21   -1    0    0  502  503 -0.00000000000E+00 -0.00000000000E+00 -0.50783682207E+03  0.50783682207E+03  0.00000000000E+00 0. -1.
         24    1    1    2    0    0  0.27256976720E+01  0.70364500273E+00 -0.26654080211E+03  0.27842259192E+03  0.80419002446E+02 0.  0.
          1    1    1    2  501    0 -0.25424541889E+02  0.31431926808E+02 -0.41949081688E+02  0.58258894665E+02  0.00000000000E+00 0. -1.
         -2    1    1    2    0  503  0.22698844217E+02 -0.32135571811E+02 -0.18316217196E+03  0.18734010180E+03  0.00000000000E+00 0.  1.
<mgrwt>
<rscale>  2 0.80119707E+02</rscale>
<asrwt>0</asrwt>
<pdfrwt beam="1">  1       21 0.24899640E-02 0.80119707E+02</pdfrwt>
<pdfrwt beam="2">  1       21 0.78128744E-01 0.80119707E+02</pdfrwt>
<totfact> 0.12420962E+06</totfact>
</mgrwt>
</event>
<event>
 5    1  0.1745726E+000  0.8257675E+02  0.7546771E-02  0.1321894E+00
         21   -1    0    0  503  502  0.00000000000E+00  0.00000000000E+00  0.15507286015E+03  0.15507286015E+03  0.00000000000E+00 0. -1.
         21   -1    0    0  501  503 -0.00000000000E+00 -0.00000000000E+00 -0.52449195957E+02  0.52449195957E+02  0.00000000000E+00 0. -1.
         24    1    1    2    0    0  0.25585410197E+02 -0.44382380368E+02  0.94581102546E+02  0.13430267985E+03  0.80419002446E+02 0. -1.
          1    1    1    2  501    0  0.12438780820E+02  0.23080583868E+02 -0.69566020451E+01  0.27126203789E+02  0.00000000000E+00 0. -1.
         -2    1    1    2    0  502 -0.38024191018E+02  0.21301796499E+02  0.14999163692E+02  0.46093172467E+02  0.00000000000E+00 0.  1.
<mgrwt>
<rscale>  2 0.82576745E+02</rscale>
<asrwt>0</asrwt>
<pdfrwt beam="1">  1       21 0.23857363E-01 0.82576745E+02</pdfrwt>
<pdfrwt beam="2">  1       21 0.80691072E-02 0.82576745E+02</pdfrwt>
<totfact> 0.19183078E+06</totfact>
</mgrwt>
</event>
<event>
 5    1  0.1745726E+000  0.1350764E+03  0.7546771E-02  0.1220112E+00
         21   -1    0    0  501  502  0.00000000000E+00  0.00000000000E+00  0.22385329991E+04  0.22385329991E+04  0.00000000000E+00 0. -1.
         21   -1    0    0  502  503 -0.00000000000E+00 -0.00000000000E+00 -0.85962041221E+01  0.85962041221E+01  0.00000000000E+00 0. -1.
         24    1    1    2    0    0 -0.10925412290E+03  0.49227030568E+02  0.12074942876E+04  0.12160877577E+04  0.80419002446E+02 0. -1.
          1    1    1    2  501    0  0.53080358779E+02 -0.44853367511E+02  0.72394667888E+03  0.72727446189E+03  0.00000000000E+00 0. -1.
         -2    1    1    2    0  503  0.56173764124E+02 -0.43736630567E+01  0.29849582847E+03  0.30376698359E+03  0.00000000000E+00 0.  1.
<mgrwt>
<rscale>  2 0.13507642E+03</rscale>
<asrwt>0</asrwt>
<pdfrwt beam="1">  1       21 0.34438923E+00 0.13507642E+03</pdfrwt>
<pdfrwt beam="2">  1       21 0.13224947E-02 0.13507642E+03</pdfrwt>
<totfact> 0.48409948E+04</totfact>
</mgrwt>
</event>
<event>
 5    1  0.1745726E+000  0.9089675E+02  0.7546771E-02  0.1300694E+00
         21   -1    0    0  501  502  0.00000000000E+00  0.00000000000E+00  0.37996416613E+03  0.37996416613E+03  0.00000000000E+00 0. -1.
         21   -1    0    0  502  503 -0.00000000000E+00 -0.00000000000E+00 -0.26577643867E+02  0.26577643867E+02  0.00000000000E+00 0.  1.
         24    1    1    2    0    0  0.61206157154E+01 -0.12177133942E+02  0.14691089539E+03  0.16803503107E+03  0.80419002446E+02 0.  1.
          1    1    1    2  501    0  0.37537188148E+02  0.34685801953E+02  0.16946777033E+03  0.17700697877E+03  0.00000000000E+00 0. -1.
         -2    1    1    2    0  503 -0.43657803864E+02 -0.22508668011E+02  0.37007856539E+02  0.61499800158E+02  0.00000000000E+00 0.  1.
<mgrwt>
<rscale>  2 0.90896753E+02</rscale>
<asrwt>0</asrwt>
<pdfrwt beam="1">  1       21 0.58456022E-01 0.90896753E+02</pdfrwt>
<pdfrwt beam="2">  1       21 0.40888686E-02 0.90896753E+02</pdfrwt>
<totfact> 0.10335142E+06</totfact>
</mgrwt>
</event>
<event>
 5    1  0.1745726E+000  0.8431392E+02  0.7546771E-02  0.1317237E+00
         21   -1    0    0  501  502  0.00000000000E+00  0.00000000000E+00  0.56771259729E+02  0.56771259729E+02  0.00000000000E+00 0. -1.
         21   -1    0    0  502  503 -0.00000000000E+00 -0.00000000000E+00 -0.56575062936E+03  0.56575062936E+03  0.00000000000E+00 0.  1.
         24    1    1    2    0    0  0.27648770950E+02 -0.56433160465E+02 -0.67242559230E+02  0.12222084054E+03  0.80419002446E+02 0.  1.
          1    1    1    2  501    0 -0.21467886496E+02  0.19127335204E+02  0.21262201374E+02  0.35760401423E+02  0.00000000000E+00 0. -1.
         -2    1    1    2    0  503 -0.61808844541E+01  0.37305825261E+02 -0.46299901178E+03  0.46454064713E+03  0.00000000000E+00 0.  1.
<mgrwt>
<rscale>  2 0.84313923E+02</rscale>
<asrwt>0</asrwt>
<pdfrwt beam="1">  1       21 0.87340401E-02 0.84313923E+02</pdfrwt>
<pdfrwt beam="2">  1       21 0.87038557E-01 0.84313923E+02</pdfrwt>
<totfact> 0.12222241E+05</totfact>
</mgrwt>
</event>
<event>
 5    1  0.1745726E+000  0.9934662E+02  0.7546771E-02  0.1281676E+00
         21   -1    0    0  501  502  0.00000000000E+00  0.00000000000E+00  0.19722806789E+04  0.19722806789E+04  0.00000000000E+00 0.  1.
         21   -1    0    0  502  503 -0.00000000000E+00 -0.00000000000E+00 -0.81929673750E+01  0.81929673750E+01  0.00000000000E+00 0. -1.
         24    1    1    2    0    0  0.62467290987E+01  0.82442725218E+02  0.15202492721E+04  0.15246182768E+04  0.80419002446E+02 0.  1.
          1    1    1    2  501    0  0.30007408721E+01 -0.23472554398E+02  0.28809225461E+03  0.28906247148E+03  0.00000000000E+00 0. -1.
         -2    1    1    2    0  503 -0.92474699708E+01 -0.58970170820E+02  0.15574618483E+03  0.16679289804E+03  0.00000000000E+00 0.  1.
<mgrwt>
<rscale>  2 0.99346618E+02</rscale>
<asrwt>0</asrwt>
<pdfrwt beam="1">  1       21 0.30342742E+00 0.99346618E+02</pdfrwt>
<pdfrwt beam="2">  1       21 0.12604581E-02 0.99346618E+02</pdfrwt>
<totfact> 0.93449611E+04</totfact>
</mgrwt>
</event>
<event>
 5    1  0.1745726E+000  0.1044989E+03  0.7546771E-02  0.1271110E+00
         21   -1    0    0  503  502  0.00000000000E+00  0.00000000000E+00  0.99802360749E+02  0.99802360749E+02  0.00000000000E+00 0. -1.
         21   -1    0    0  501  503 -0.00000000000E+00 -0.00000000000E+00 -0.15245983941E+03  0.15245983941E+03  0.00000000000E+00 0. -1.
         24    1    1    2    0    0 -0.84423223663E+01  0.73553514457E+02 -0.39432986234E+02  0.11620485641E+03  0.80419002446E+02 0. -1.
          1    1    1    2  501    0 -0.26686967658E+02 -0.52069653189E+02 -0.52897599342E+02  0.78877113551E+02  0.00000000000E+00 0. -1.
         -2    1    1    2    0  502  0.35129290025E+02 -0.21483861268E+02  0.39673106917E+02  0.57180230194E+02  0.00000000000E+00 0.  1.
<mgrwt>
<rscale>  2 0.10449892E+03</rscale>
<asrwt>0</asrwt>
<pdfrwt beam="1">  1       21 0.15354209E-01 0.10449892E+03</pdfrwt>
<pdfrwt beam="2">  1       21 0.23455360E-01 0.10449892E+03</pdfrwt>
<totfact> 0.64637933E+05</totfact>
</mgrwt>
</event>
<event>
 5    1  0.1745726E+000  0.7403905E+02  0.7546771E-02  0.1346873E+00
         21   -1    0    0  503  502  0.00000000000E+00  0.00000000000E+00  0.80186260183E+03  0.80186260183E+03  0.00000000000E+00 0.  1.
         21   -1    0    0  501  503 -0.00000000000E+00 -0.00000000000E+00 -0.20318322231E+02  0.20318322231E+02  0.00000000000E+00 0. -1.
         24    1    1    2    0    0 -0.12868701621E+02  0.24268745992E+02  0.22213983952E+03  0.23784007183E+03  0.80419002446E+02 0.  1.
          1    1    1    2  501    0 -0.21746287952E+02 -0.17818411484E+01 -0.15458779857E+01  0.21873859658E+02  0.00000000000E+00 0. -1.
         -2    1    1    2    0  502  0.34614989574E+02 -0.22486904844E+02  0.56095031807E+03  0.56246699257E+03  0.00000000000E+00 0.  1.
<mgrwt>
<rscale>  2 0.74039055E+02</rscale>
<asrwt>0</asrwt>
<pdfrwt beam="1">  1       21 0.12336345E+00 0.74039055E+02</pdfrwt>
<pdfrwt beam="2">  1       21 0.31258964E-02 0.74039055E+02</pdfrwt>
<totfact> 0.30204050E+05</totfact>
</mgrwt>
</event>
<event>
 5    1  0.1745726E+000  0.1173448E+03  0.7546771E-02  0.1247543E+00
         21   -1    0    0  503  502  0.00000000000E+00  0.00000000000E+00  0.20241933212E+02  0.20241933212E+02  0.00000000000E+00 0. -1.
         21   -1    0    0  501  503 -0.00000000000E+00 -0.00000000000E+00 -0.23259853482E+04  0.23259853482E+04  0.00000000000E+00 0. -1.
         24    1    1    2    0    0  0.16599253467E+02  0.35991326892E+02 -0.97350061611E+02  0.13234485739E+03  0.80419002446E+02 0. -1.
          1    1    1    2  501    0  0.18898463410E+02 -0.83565522203E+02 -0.16763840387E+04  0.16785719507E+04  0.00000000000E+00 0. -1.
         -2    1    1    2    0  502 -0.35497716877E+02  0.47574195311E+02 -0.53200931467E+03  0.53531047333E+03  0.00000000000E+00 0.  1.
<mgrwt>
<rscale>  2 0.11734480E+03</rscale>
<asrwt>0</asrwt>
<pdfrwt beam="1">  1       21 0.31141409E-02 0.11734480E+03</pdfrwt>
<pdfrwt beam="2">  1       21 0.35784420E+00 0.11734480E+03</pdfrwt>
<totfact> 0.10459184E+04</totfact>
</mgrwt>
</event>
<event>
 5    1  0.1745726E+000  0.7336561E+02  0.7546771E-02  0.1349008E+00
         21   -1    0    0  503  502  0.00000000000E+00  0.00000000000E+00  0.55702209039E+03  0.55702209039E+03  0.00000000000E+00 0.  1.
         21   -1    0    0  501  503 -0.00000000000E+00 -0.00000000000E+00 -0.23623420199E+02  0.23623420199E+02  0.00000000000E+00 0. -1.
         24    1    1    2    0    0 -0.19533146203E+01  0.30896899104E+02  0.17359295751E+03  0.19380444955E+03  0.80419002446E+02 0.  1.
          1    1    1    2  501    0 -0.22702191358E+02 -0.23267355853E+01 -0.21511058597E+01  0.22922269681E+02  0.00000000000E+00 0. -1.
         -2    1    1    2    0  502  0.24655505978E+02 -0.28570163519E+02  0.36195681854E+03  0.36391879136E+03  0.00000000000E+00 0.  1.
<mgrwt>
<rscale>  2 0.73365606E+02</rscale>
<asrwt>0</asrwt>
<pdfrwt beam="1">  1       21 0.85695697E-01 0.73365606E+02</pdfrwt>
<pdfrwt beam="2">  1       21 0.36343728E-02 0.73365606E+02</pdfrwt>
<totfact> 0.54857783E+05</totfact>
</mgrwt>
</event>
<event>
 5    1  0.1745726E+000  0.9423332E+02  0.7546771E-02  0.1292912E+00
         21   -1    0    0  503  502  0.00000000000E+00  0.00000000000E+00  0.25757053005E+02  0.25757053005E+02  0.00000000000E+00 0.  1.
         21   -1    0    0  501  503 -0.00000000000E+00 -0.00000000000E+00 -0.72683371215E+03  0.72683371215E+03  0.00000000000E+00 0. -1.
         24    1    1    2    0    0  0.17381510218E+02  0.40992055456E+02 -0.17490196466E+03  0.19758638289E+03  0.80419002446E+02 0.  1.
          1    1    1    2  501    0  0.32181015662E+02  0.71333653342E-01 -0.46530580968E+03  0.46641732319E+03  0.00000000000E+00 0. -1.
         -2    1    1    2    0  502 -0.49562525880E+02 -0.41063389109E+02 -0.60868884812E+02  0.88587059072E+02  0.00000000000E+00 0.  1.
<mgrwt>
<rscale>  2 0.94233317E+02</rscale>
<asrwt>0</asrwt>
<pdfrwt beam="1">  1       21 0.39626230E-02 0.94233317E+02</pdfrwt>
<pdfrwt beam="2">  1       21 0.11182059E+00 0.94233317E+02</pdfrwt>
<totfact> 0.25746365E+05</totfact>
</mgrwt>
</event>
<event>
 5    1  0.1745726E+000  0.2122048E+03  0.7546771E-02  0.1139832E+00
         21   -1    0    0  503  502  0.00000000000E+00  0.00000000000E+00  0.15488722303E+03  0.15488722303E+03  0.00000000000E+00 0.  1.
         21   -1    0    0  501  503 -0.00000000000E+00 -0.00000000000E+00 -0.89181554849E+03  0.89181554849E+03  0.00000000000E+00 0.  1.
         24    1    1    2    0    0 -0.16093651518E+03  0.39757398266E+02 -0.55111906609E+03  0.58110296299E+03  0.80419002446E+02 0.  1.
          1    1    1    2  501    0  0.18962860534E+03 -0.66485419180E+02 -0.29082912557E+03  0.35349808940E+03  0.00000000000E+00 0. -1.
         -2    1    1    2    0  502 -0.28692090158E+02  0.26728020914E+02  0.10501986619E+03  0.11210171914E+03  0.00000000000E+00 0.  1.
<mgrwt>
<rscale>  2 0.21220480E+03</rscale>
<asrwt>0</asrwt>
<pdfrwt beam="1">  1       21 0.23828803E-01 0.21220480E+03</pdfrwt>
<pdfrwt beam="2">  1       21 0.13720239E+00 0.21220480E+03</pdfrwt>
<totfact> 0.61606045E+03</totfact>
</mgrwt>
</event>
<event>
 5    1  0.1745726E+000  0.9504337E+02  0.7546771E-02  0.1291078E+00
         21   -1    0    0  501  502  0.00000000000E+00  0.00000000000E+00  0.17353332696E+02  0.17353332696E+02  0.00000000000E+00 0. -1.
         21   -1    0    0  502  503 -0.00000000000E+00 -0.00000000000E+00 -0.60337345413E+03  0.60337345413E+03  0.00000000000E+00 0. -1.
         24    1    1    2    0    0 -0.24336220896E+02  0.48678857863E+02 -0.39113147748E+03  0.40300487774E+03  0.80419002446E+02 0. -1.
          1    1    1    2  501    0  0.14667671017E+02 -0.68966734825E+02 -0.11650359494E+03  0.13617870142E+03  0.00000000000E+00 0. -1.
         -2    1    1    2    0  503  0.96685498793E+01  0.20287876962E+02 -0.78385049013E+02  0.81543207670E+02  0.00000000000E+00 0.  1.
<mgrwt>
<rscale>  2 0.95043366E+02</rscale>
<asrwt>0</asrwt>
<pdfrwt beam="1">  1       21 0.26697441E-02 0.95043366E+02</pdfrwt>
<pdfrwt beam="2">  1       21 0.92826665E-01 0.95043366E+02</pdfrwt>
<totfact> 0.75663610E+05</totfact>
</mgrwt>
</event>
<event>
 5    1  0.1745726E+000  0.7924907E+02  0.7546771E-02  0.1331196E+00
         21   -1    0    0  501  502  0.00000000000E+00  0.00000000000E+00  0.10784265774E+02  0.10784265774E+02  0.00000000000E+00 0. -1.
         21   -1    0    0  502  503 -0.00000000000E+00 -0.00000000000E+00 -0.66151839098E+03  0.66151839098E+03  0.00000000000E+00 0.  1.
         24    1    1    2    0    0 -0.45230204960E+00 -0.35570058746E+02 -0.43666859839E+03  0.44543474767E+03  0.80419002446E+02 0.  1.
          1    1    1    2  501    0 -0.30236772597E+02  0.18451124759E+02 -0.68449008668E+02  0.77071221669E+02  0.00000000000E+00 0. -1.
         -2    1    1    2    0  503  0.30689074646E+02  0.17118933987E+02 -0.14561651815E+03  0.14979668741E+03  0.00000000000E+00 0.  1.
<mgrwt>
<rscale>  2 0.79249070E+02</rscale>
<asrwt>0</asrwt>
<pdfrwt beam="1">  1       21 0.16591181E-02 0.79249070E+02</pdfrwt>
<pdfrwt beam="2">  1       21 0.10177204E+00 0.79249070E+02</pdfrwt>
<totfact> 0.13100636E+06</totfact>
</mgrwt>
</event>
<event>
 5    1  0.1745726E+000  0.7464835E+02  0.7546771E-02  0.1344963E+00
         21   -1    0    0  501  502  0.00000000000E+00  0.00000000000E+00  0.49079505377E+03  0.49079505377E+03  0.00000000000E+00 0. -1.
         21   -1    0    0  502  503 -0.00000000000E+00 -0.00000000000E+00 -0.37509154498E+02  0.37509154498E+02  0.00000000000E+00 0.  1.
         24    1    1    2    0    0 -0.21574294048E+02 -0.16727223610E+01  0.16098183664E+03  0.18124738853E+03  0.80419002446E+02 0.  0.
          1    1    1    2  501    0 -0.70006669329E+01 -0.25585675286E+02  0.30455584576E+03  0.30570884728E+03  0.00000000000E+00 0. -1.
         -2    1    1    2    0  503  0.28574960981E+02  0.27258397647E+02 -0.12251783128E+02  0.41347972467E+02  0.00000000000E+00 0.  1.
<mgrwt>
<rscale>  2 0.74648348E+02</rscale>
<asrwt>0</asrwt>
<pdfrwt beam="1">  1       21 0.75506927E-01 0.74648348E+02</pdfrwt>
<pdfrwt beam="2">  1       21 0.57706395E-02 0.74648348E+02</pdfrwt>
<totfact> 0.33809139E+05</totfact>
</mgrwt>
</event>
<event>
 5    1  0.1857592E+000  0.2155932E+03  0.7546771E-02  0.1137212E+00
         21   -1    0    0  503  502  0.00000000000E+00  0.00000000000E+00  0.29998145765E+03  0.29998145765E+03  0.00000000000E+00 0. -1.
         21   -1    0    0  501  503 -0.00000000000E+00 -0.00000000000E+00 -0.16977606200E+03  0.16977606200E+03  0.00000000000E+00 0. -1.
         24    1    1    2    0    0 -0.11384588143E+03 -0.16820849206E+03  0.11742259401E+03  0.24801262681E+03  0.80419002446E+02 0. -1.
          1    1    1    2  501    0  0.55019717197E+02  0.13358800963E+03 -0.20297862576E+02  0.14589355305E+03  0.00000000000E+00 0. -1.
         -2    1    1    2    0  502  0.58826164237E+02  0.34620482429E+02  0.33080664209E+02  0.75851339784E+02  0.00000000000E+00 0.  1.
<mgrwt>
<rscale>  2 0.21559316E+03</rscale>
<asrwt>0</asrwt>
<pdfrwt beam="1">  1       21 0.46150993E-01 0.21559316E+03</pdfrwt>
<pdfrwt beam="2">  1       21 0.26119394E-01 0.21559316E+03</pdfrwt>
<totfact> 0.62015174E+04</totfact>
</mgrwt>
</event>
<event>
 5    1  0.1745726E+000  0.8805706E+02  0.7546771E-02  0.1307626E+00
         21   -1    0    0  503  502  0.00000000000E+00  0.00000000000E+00  0.12712949703E+03  0.12712949703E+03  0.00000000000E+00 0.  1.
         21   -1    0    0  501  503 -0.00000000000E+00 -0.00000000000E+00 -0.12075497985E+03  0.12075497985E+03  0.00000000000E+00 0.  1.
         24    1    1    2    0    0  0.82125099887E+01  0.67223530630E+02 -0.31107303779E+02  0.10964182000E+03  0.80419002446E+02 0.  1.
          1    1    1    2  501    0  0.71398974692E+01 -0.26870397961E+02 -0.40489288344E+02  0.49115973909E+02  0.00000000000E+00 0. -1.
         -2    1    1    2    0  502 -0.15352407458E+02 -0.40353132669E+02  0.77971109304E+02  0.89126682969E+02  0.00000000000E+00 0.  1.
<mgrwt>
<rscale>  2 0.88057059E+02</rscale>
<asrwt>0</asrwt>
<pdfrwt beam="1">  1       21 0.19558384E-01 0.88057059E+02</pdfrwt>
<pdfrwt beam="2">  1       21 0.18577689E-01 0.88057059E+02</pdfrwt>
<totfact> 0.64021149E+05</totfact>
</mgrwt>
</event>
<event>
 5    1  0.1745726E+000  0.7629898E+02  0.7546771E-02  0.1339895E+00
         21   -1    0    0  503  502  0.00000000000E+00  0.00000000000E+00  0.27821464801E+03  0.27821464801E+03  0.00000000000E+00 0.  1.
         21   -1    0    0  501  503 -0.00000000000E+00 -0.00000000000E+00 -0.19978847094E+03  0.19978847094E+03  0.00000000000E+00 0. -1.
         24    1    1    2    0    0 -0.28484701207E+02 -0.34300049844E+02 -0.74910168008E+02  0.11860278600E+03  0.80419002446E+02 0. -1.
          1    1    1    2  501    0  0.21902123427E+01  0.34282018003E+02 -0.99467706364E+02  0.10523249687E+03  0.00000000000E+00 0. -1.
         -2    1    1    2    0  502  0.26294488864E+02  0.18031841515E-01  0.25280405144E+03  0.25416783607E+03  0.00000000000E+00 0.  1.
<mgrwt>
<rscale>  2 0.76298978E+02</rscale>
<asrwt>0</asrwt>
<pdfrwt beam="1">  1       21 0.42802254E-01 0.76298978E+02</pdfrwt>
<pdfrwt beam="2">  1       21 0.30736688E-01 0.76298978E+02</pdfrwt>
<totfact> 0.56948530E+04</totfact>
</mgrwt>
</event>
<event>
 5    1  0.1745726E+000  0.7835402E+02  0.7546771E-02  0.1333788E+00
         21   -1    0    0  503  502  0.00000000000E+00  0.00000000000E+00  0.12241794283E+04  0.12241794283E+04  0.00000000000E+00 0.  1.
         21   -1    0    0  501  503 -0.00000000000E+00 -0.00000000000E+00 -0.85311710609E+01  0.85311710609E+01  0.00000000000E+00 0. -1.
         24    1    1    2    0    0  0.20654653958E+02  0.33177720738E+01  0.48118377077E+03  0.48830590776E+03  0.80419002446E+02 0.  1.
          1    1    1    2  501    0  0.16877284790E+02  0.22450153087E+02  0.42487567634E+02  0.50931773177E+02  0.00000000000E+00 0. -1.
         -2    1    1    2    0  502 -0.37531938748E+02 -0.25767925161E+02  0.69197691884E+03  0.69347291844E+03  0.00000000000E+00 0.  1.
<mgrwt>
<rscale>  2 0.78354020E+02</rscale>
<asrwt>0</asrwt>
<pdfrwt beam="1">  1       21 0.18833516E+00 0.78354020E+02</pdfrwt>
<pdfrwt beam="2">  1       21 0.13124888E-02 0.78354020E+02</pdfrwt>
<totfact> 0.40828159E+05</totfact>
</mgrwt>
</event>
<event>
 5    1  0.1745726E+000  0.9462496E+02  0.7546771E-02  0.1292023E+00
         21   -1    0    0  503  502  0.00000000000E+00  0.00000000000E+00  0.82022363373E+02  0.82022363373E+02  0.00000000000E+00 0. -1.
         21   -1    0    0  501  503 -0.00000000000E+00 -0.00000000000E+00 -0.11111207697E+03  0.11111207697E+03  0.00000000000E+00 0. -1.
         24    1    1    2    0    0 -0.38429339064E+02 -0.33821154320E+02 -0.12761067647E+02  0.96180795288E+02  0.80419002446E+02 0. -1.
          1    1    1    2  501    0  0.38210953110E+02  0.58154757991E+02 -0.19861657192E+02  0.72363929143E+02  0.00000000000E+00 0. -1.
         -2    1    1    2    0  502  0.21838595361E+00 -0.24333603671E+02  0.35330112446E+01  0.24589715909E+02  0.00000000000E+00 0.  1.
<mgrwt>
<rscale>  2 0.94624962E+02</rscale>
<asrwt>0</asrwt>
<pdfrwt beam="1">  1       21 0.12618825E-01 0.94624962E+02</pdfrwt>
<pdfrwt beam="2">  1       21 0.17094166E-01 0.94624962E+02</pdfrwt>
<totfact> 0.16356415E+06</totfact>
</mgrwt>
</event>
<event>
 5    1  0.1745726E+000  0.6782882E+02  0.7546771E-02  0.1367636E+00
         21   -1    0    0  501  502  0.00000000000E+00  0.00000000000E+00  0.12403737818E+03  0.12403737818E+03  0.00000000000E+00 0. -1.
         21   -1    0    0  502  503 -0.00000000000E+00 -0.00000000000E+00 -0.20206868114E+03  0.20206868114E+03  0.00000000000E+00 0. -1.
         24    1    1    2    0    0 -0.14277633489E+02  0.39845568640E+02 -0.13988898530E+03  0.16681625916E+03  0.80419002446E+02 0. -1.
          1    1    1    2  501    0  0.14469549307E+02 -0.18751726011E+02  0.10693189576E+03  0.10952362949E+03  0.00000000000E+00 0. -1.
         -2    1    1    2    0  503 -0.19191581814E+00 -0.21093842629E+02 -0.45074213420E+02  0.49766170678E+02  0.00000000000E+00 0.  1.
<mgrwt>
<rscale>  2 0.67828820E+02</rscale>
<asrwt>0</asrwt>
<pdfrwt beam="1">  1       21 0.19082674E-01 0.67828820E+02</pdfrwt>
<pdfrwt beam="2">  1       21 0.31087489E-01 0.67828820E+02</pdfrwt>
<totfact> 0.25754770E+05</totfact>
</mgrwt>
</event>
<event>
 5    1  0.1745726E+000  0.8290386E+02  0.7546771E-02  0.1321007E+00
         21   -1    0    0  503  502  0.00000000000E+00  0.00000000000E+00  0.80944302583E+02  0.80944302583E+02  0.00000000000E+00 0.  1.
         21   -1    0    0  501  503 -0.00000000000E+00 -0.00000000000E+00 -0.13172798082E+03  0.13172798082E+03  0.00000000000E+00 0. -1.
         24    1    1    2    0    0 -0.23347764889E+02  0.24499170099E+02  0.24124574711E+02  0.90523690381E+02  0.80419002446E+02 0.  1.
          1    1    1    2  501    0 -0.24022554140E+02  0.22997637366E+01 -0.61544145022E+02  0.66106382499E+02  0.00000000000E+00 0. -1.
         -2    1    1    2    0  502  0.47370319028E+02 -0.26798933836E+02 -0.13364107925E+02  0.56042210522E+02  0.00000000000E+00 0.  1.
<mgrwt>
<rscale>  2 0.82903865E+02</rscale>
<asrwt>0</asrwt>
<pdfrwt beam="1">  1       21 0.12452970E-01 0.82903865E+02</pdfrwt>
<pdfrwt beam="2">  1       21 0.20265843E-01 0.82903865E+02</pdfrwt>
<totfact> 0.12237824E+06</totfact>
</mgrwt>
</event>
<event>
 5    1  0.1745726E+000  0.1054734E+03  0.7546771E-02  0.1269190E+00
         21   -1    0    0  501  502  0.00000000000E+00  0.00000000000E+00  0.32604823071E+02  0.32604823071E+02  0.00000000000E+00 0. -1.
         21   -1    0    0  502  503 -0.00000000000E+00 -0.00000000000E+00 -0.36110404306E+03  0.36110404306E+03  0.00000000000E+00 0. -1.
         24    1    1    2    0    0  0.36544700214E+02 -0.81667445322E+02 -0.22260739585E+03  0.25303429685E+03  0.80419002446E+02 0. -1.
          1    1    1    2  501    0 -0.79072546252E+01  0.35082613715E+02 -0.28364665700E+02  0.45802496886E+02  0.00000000000E+00 0. -1.
         -2    1    1    2    0  503 -0.28637445589E+02  0.46584831607E+02 -0.77527158439E+02  0.94872072399E+02  0.00000000000E+00 0.  1.
<mgrwt>
<rscale>  2 0.10547337E+03</rscale>
<asrwt>0</asrwt>
<pdfrwt beam="1">  1       21 0.50161267E-02 0.10547337E+03</pdfrwt>
<pdfrwt beam="2">  1       21 0.55554467E-01 0.10547337E+03</pdfrwt>
<totfact> 0.82000189E+05</totfact>
</mgrwt>
</event>
<event>
 5    1  0.1745726E+000  0.1232313E+03  0.7546771E-02  0.1237860E+00
         21   -1    0    0  503  502  0.00000000000E+00  0.00000000000E+00  0.18085737480E+04  0.18085737480E+04  0.00000000000E+00 0. -1.
         21   -1    0    0  501  503 -0.00000000000E+00 -0.00000000000E+00 -0.14750770124E+02  0.14750770124E+02  0.00000000000E+00 0. -1.
         24    1    1    2    0    0  0.39446681576E+02  0.74505023813E+01  0.43428678838E+03  0.44349045219E+03  0.80419002446E+02 0.  0.
          1    1    1    2  501    0 -0.14068524851E+02 -0.79218304910E+02  0.17229817943E+03  0.19015816012E+03  0.00000000000E+00 0. -1.
         -2    1    1    2    0  502 -0.25378156724E+02  0.71767802529E+02  0.11872380100E+04  0.11896759058E+04  0.00000000000E+00 0.  1.
<mgrwt>
<rscale>  2 0.12323126E+03</rscale>
<asrwt>0</asrwt>
<pdfrwt beam="1">  1       21 0.27824194E+00 0.12323126E+03</pdfrwt>
<pdfrwt beam="2">  1       21 0.22693507E-02 0.12323126E+03</pdfrwt>
<totfact> 0.48838442E+04</totfact>
</mgrwt>
</event>
<event>
 5    1  0.1745726E+000  0.3693035E+03  0.7546771E-02  0.1054960E+00
         21   -1    0    0  501  502  0.00000000000E+00  0.00000000000E+00  0.17499278488E+04  0.17499278488E+04  0.00000000000E+00 0.  1.
         21   -1    0    0  502  503 -0.00000000000E+00 -0.00000000000E+00 -0.82861364671E+02  0.82861364671E+02  0.00000000000E+00 0.  1.
         24    1    1    2    0    0 -0.14331632471E+03  0.30296444769E+03  0.92262866447E+03  0.98490501773E+03  0.80419002446E+02 0.  1.
          1    1    1    2  501    0  0.15221316830E+03 -0.82185642602E+02  0.43076908374E+03  0.46420397668E+03  0.00000000000E+00 0. -1.
         -2    1    1    2    0  503 -0.88968435967E+01 -0.22077880509E+03  0.31366873587E+03  0.38368021902E+03  0.00000000000E+00 0.  1.
<mgrwt>
<rscale>  2 0.36930350E+03</rscale>
<asrwt>0</asrwt>
<pdfrwt beam="1">  1       21 0.26921964E+00 0.36930350E+03</pdfrwt>
<pdfrwt beam="2">  1       21 0.12747904E-01 0.36930350E+03</pdfrwt>
<totfact> 0.23382006E+03</totfact>
</mgrwt>
</event>
<event>
 5    1  0.1745726E+000  0.7566273E+02  0.7546771E-02  0.1341831E+00
         21   -1    0    0  503  502  0.00000000000E+00  0.00000000000E+00  0.13579814161E+03  0.13579814161E+03  0.00000000000E+00 0.  1.
         21   -1    0    0  501  503 -0.00000000000E+00 -0.00000000000E+00 -0.43014284231E+02  0.43014284231E+02  0.00000000000E+00 0.  1.
         24    1    1    2    0    0 -0.25899753956E+02  0.23838041790E+02  0.41238292914E+02  0.96988980035E+02  0.80419002446E+02 0.  1.
          1    1    1    2  501    0  0.15467342394E+02  0.16062118980E+02  0.17546708872E+02  0.28374589673E+02  0.00000000000E+00 0. -1.
         -2    1    1    2    0  502  0.10432411562E+02 -0.39900160770E+02  0.33998855594E+02  0.53448856136E+02  0.00000000000E+00 0.  1.
<mgrwt>
<rscale>  2 0.75662730E+02</rscale>
<asrwt>0</asrwt>
<pdfrwt beam="1">  1       21 0.20892022E-01 0.75662730E+02</pdfrwt>
<pdfrwt beam="2">  1       21 0.66175823E-02 0.75662730E+02</pdfrwt>
<totfact> 0.34124794E+06</totfact>
</mgrwt>
</event>
<event>
 5    1  0.1745726E+000  0.8131670E+02  0.7546771E-02  0.1325356E+00
         21   -1    0    0  503  502  0.00000000000E+00  0.00000000000E+00  0.67476208640E+02  0.67476208640E+02  0.00000000000E+00 0.  1.
         21   -1    0    0  501  503 -0.00000000000E+00 -0.00000000000E+00 -0.11457961331E+03  0.11457961331E+03  0.00000000000E+00 0. -1.
         24    1    1    2    0    0 -0.48774484921E+00  0.65953340572E+00 -0.26045915610E+02  0.84535664389E+02  0.80419002446E+02 0. -1.
          1    1    1    2  501    0  0.30242103137E+02 -0.28431914855E+02 -0.35207376856E+02  0.54429017716E+02  0.00000000000E+00 0. -1.
         -2    1    1    2    0  502 -0.29754358288E+02  0.27772381449E+02  0.14149887795E+02  0.43091139845E+02  0.00000000000E+00 0.  1.
<mgrwt>
<rscale>  2 0.81316703E+02</rscale>
<asrwt>0</asrwt>
<pdfrwt beam="1">  1       21 0.10380955E-01 0.81316703E+02</pdfrwt>
<pdfrwt beam="2">  1       21 0.17627632E-01 0.81316703E+02</pdfrwt>
<totfact> 0.21636120E+06</totfact>
</mgrwt>
</event>
<event>
 5    1  0.1745726E+000  0.8275346E+02  0.7546771E-02  0.1321414E+00
         21   -1    0    0  501  502  0.00000000000E+00  0.00000000000E+00  0.99523814244E+01  0.99523814244E+01  0.00000000000E+00 0. -1.
         21   -1    0    0  502  503 -0.00000000000E+00 -0.00000000000E+00 -0.83786835522E+03  0.83786835522E+03  0.00000000000E+00 0.  1.
         24    1    1    2    0    0  0.85110130898E+01  0.24337838978E+02 -0.45379110393E+03  0.46158244086E+03  0.80419002446E+02 0. -1.
          1    1    1    2  501    0 -0.40305487024E+02 -0.27962511788E+02 -0.11338225508E+03  0.12353934643E+03  0.00000000000E+00 0. -1.
         -2    1    1    2    0  503  0.31794473934E+02  0.36246728094E+01 -0.26074261479E+03  0.26269894935E+03  0.00000000000E+00 0.  1.
<mgrwt>
<rscale>  2 0.82753457E+02</rscale>
<asrwt>0</asrwt>
<pdfrwt beam="1">  1       21 0.15311363E-02 0.82753457E+02</pdfrwt>
<pdfrwt beam="2">  1       21 0.12890276E+00 0.82753457E+02</pdfrwt>
<totfact> 0.84931730E+05</totfact>
</mgrwt>
</event>
<event>
 5    1  0.1745726E+000  0.7809297E+02  0.7546771E-02  0.1334552E+00
         21   -1    0    0  503  502  0.00000000000E+00  0.00000000000E+00  0.28009663482E+03  0.28009663482E+03  0.00000000000E+00 0.  1.
         21   -1    0    0  501  503 -0.00000000000E+00 -0.00000000000E+00 -0.27224639288E+02  0.27224639288E+02  0.00000000000E+00 0.  1.
         24    1    1    2    0    0 -0.76850156377E+01 -0.47517602206E+02  0.81451899008E+02  0.12417169481E+03  0.80419002446E+02 0.  1.
          1    1    1    2  501    0  0.23876885997E+02  0.23543817507E+02  0.68909787605E+02  0.76635343383E+02  0.00000000000E+00 0. -1.
         -2    1    1    2    0  502 -0.16191870359E+02  0.23973784699E+02  0.10251030891E+03  0.10651423591E+03  0.00000000000E+00 0.  1.
<mgrwt>
<rscale>  2 0.78092966E+02</rscale>
<asrwt>0</asrwt>
<pdfrwt beam="1">  1       21 0.43091788E-01 0.78092966E+02</pdfrwt>
<pdfrwt beam="2">  1       21 0.41884062E-02 0.78092966E+02</pdfrwt>
<totfact> 0.18425282E+06</totfact>
</mgrwt>
</event>
<event>
 5    1  0.1745726E+000  0.6563849E+02  0.7546771E-02  0.1375586E+00
         21   -1    0    0  503  502  0.00000000000E+00  0.00000000000E+00  0.69727265832E+03  0.69727265832E+03  0.00000000000E+00 0.  1.
         21   -1    0    0  501  503 -0.00000000000E+00 -0.00000000000E+00 -0.91265595907E+01  0.91265595907E+01  0.00000000000E+00 0.  1.
         24    1    1    2    0    0 -0.80162590738E+01  0.50406468872E+01  0.20712664229E+03  0.22239228951E+03  0.80419002446E+02 0.  0.
          1    1    1    2  501    0  0.20569811975E+02 -0.21399055996E+02  0.19511197760E+03  0.19735683562E+03  0.00000000000E+00 0. -1.
         -2    1    1    2    0  502 -0.12553552901E+02  0.16358409109E+02  0.28590747883E+03  0.28665009278E+03  0.00000000000E+00 0.  1.
<mgrwt>
<rscale>  2 0.65638486E+02</rscale>
<asrwt>0</asrwt>
<pdfrwt beam="1">  1       21 0.10727267E+00 0.65638486E+02</pdfrwt>
<pdfrwt beam="2">  1       21 0.14040866E-02 0.65638486E+02</pdfrwt>
<totfact> 0.15016206E+06</totfact>
</mgrwt>
</event>
<event>
 5    1  0.1745726E+000  0.8299404E+02  0.7546771E-02  0.1320763E+00
         21   -1    0    0  503  502  0.00000000000E+00  0.00000000000E+00  0.90248387004E+03  0.90248387004E+03  0.00000000000E+00 0.  1.
         21   -1    0    0  501  503 -0.00000000000E+00 -0.00000000000E+00 -0.82862735908E+02  0.82862735908E+02  0.00000000000E+00 0. -1.
         24    1    1    2    0    0  0.52053001595E+02 -0.34927505475E+01  0.15128025654E+03  0.17909395929E+03  0.80419002446E+02 0. -1.
          1    1    1    2  501    0 -0.23406883298E+02  0.25045488246E+02 -0.64229781638E+02  0.72805381095E+02  0.00000000000E+00 0. -1.
         -2    1    1    2    0  502 -0.28646118297E+02 -0.21552737698E+02  0.73257065923E+03  0.73344726557E+03  0.00000000000E+00 0.  1.
<mgrwt>
<rscale>  2 0.82994037E+02</rscale>
<asrwt>0</asrwt>
<pdfrwt beam="1">  1       21 0.13884367E+00 0.82994037E+02</pdfrwt>
<pdfrwt beam="2">  1       21 0.12748114E-01 0.82994037E+02</pdfrwt>
<totfact> 0.21123725E+04</totfact>
</mgrwt>
</event>
<event>
 5    1  0.1745726E+000  0.1071750E+03  0.7546771E-02  0.1265893E+00
         21   -1    0    0  503  502  0.00000000000E+00  0.00000000000E+00  0.65659705992E+02  0.65659705992E+02  0.00000000000E+00 0. -1.
         21   -1    0    0  501  503 -0.00000000000E+00 -0.00000000000E+00 -0.28354163481E+03  0.28354163481E+03  0.00000000000E+00 0.  1.
         24    1    1    2    0    0 -0.57215797001E+02 -0.29789962883E+02 -0.12130259518E+03  0.15919367094E+03  0.80419002446E+02 0.  1.
          1    1    1    2  501    0  0.63096279695E+02 -0.15997516036E+02 -0.12128527095E+03  0.13764874856E+03  0.00000000000E+00 0. -1.
         -2    1    1    2    0  502 -0.58804826936E+01  0.45787478919E+02  0.24705937306E+02  0.52358921309E+02  0.00000000000E+00 0.  1.
<mgrwt>
<rscale>  2 0.10717497E+03</rscale>
<asrwt>0</asrwt>
<pdfrwt beam="1">  1       21 0.10101493E-01 0.10717497E+03</pdfrwt>
<pdfrwt beam="2">  1       21 0.43621791E-01 0.10717497E+03</pdfrwt>
<totfact> 0.40791126E+05</totfact>
</mgrwt>
</event>
<event>
 5    1  0.1745726E+000  0.8744584E+02  0.7546771E-02  0.1309158E+00
         21   -1    0    0  503  502  0.00000000000E+00  0.00000000000E+00  0.14670512242E+03  0.14670512242E+03  0.00000000000E+00 0. -1.
         21   -1    0    0  501  503 -0.00000000000E+00 -0.00000000000E+00 -0.86822890714E+02  0.86822890714E+02  0.00000000000E+00 0. -1.
         24    1    1    2    0    0 -0.34343063968E+02 -0.46784840275E+02  0.35314564475E+02  0.10527393666E+03  0.80419002446E+02 0. -1.
          1    1    1    2  501    0  0.13976109335E+02  0.52689875273E+02 -0.35164217594E+02  0.64869690823E+02  0.00000000000E+00 0. -1.
         -2    1    1    2    0  502  0.20366954634E+02 -0.59050349987E+01  0.59731884829E+02  0.63384385653E+02  0.00000000000E+00 0.  1.
<mgrwt>
<rscale>  2 0.87445843E+02</rscale>
<asrwt>0</asrwt>
<pdfrwt beam="1">  1       21 0.22570019E-01 0.87445843E+02</pdfrwt>
<pdfrwt beam="2">  1       21 0.13357368E-01 0.87445843E+02</pdfrwt>
<totfact> 0.88838719E+05</totfact>
</mgrwt>
</event>
<event>
 5    1  0.1745726E+000  0.7846793E+02  0.7546771E-02  0.1333456E+00
         21   -1    0    0  503  502  0.00000000000E+00  0.00000000000E+00  0.23042981866E+03  0.23042981866E+03  0.00000000000E+00 0.  1.
         21   -1    0    0  501  503 -0.00000000000E+00 -0.00000000000E+00 -0.52758101663E+02  0.52758101663E+02  0.00000000000E+00 0. -1.
         24    1    1    2    0    0  0.31397162267E+02 -0.46916915395E+02  0.60345776866E+01  0.98440900193E+02  0.80419002446E+02 0. -1.
          1    1    1    2  501    0 -0.10378189843E+02  0.29856434183E+02  0.43440822983E+02  0.53723538490E+02  0.00000000000E+00 0. -1.
         -2    1    1    2    0  502 -0.21018972424E+02  0.17060481212E+02  0.12819631632E+03  0.13102348163E+03  0.00000000000E+00 0.  1.
<mgrwt>
<rscale>  2 0.78467927E+02</rscale>
<asrwt>0</asrwt>
<pdfrwt beam="1">  1       21 0.35450741E-01 0.78467927E+02</pdfrwt>
<pdfrwt beam="2">  1       21 0.81166311E-02 0.78467927E+02</pdfrwt>
<totfact> 0.89462778E+05</totfact>
</mgrwt>
</event>
<event>
 5    1  0.1745726E+000  0.8035940E+02  0.7546771E-02  0.1328035E+00
         21   -1    0    0  503  502  0.00000000000E+00  0.00000000000E+00  0.14301217961E+03  0.14301217961E+03  0.00000000000E+00 0. -1.
         21   -1    0    0  501  503 -0.00000000000E+00 -0.00000000000E+00 -0.56895246466E+02  0.56895246466E+02  0.00000000000E+00 0. -1.
         24    1    1    2    0    0 -0.14393267442E+01 -0.36921458817E+02  0.50103458733E+02  0.10169974589E+03  0.80419002446E+02 0. -1.
          1    1    1    2  501    0  0.31039878598E+02  0.26571173407E+02 -0.10429455633E+02  0.42169596446E+02  0.00000000000E+00 0. -1.
         -2    1    1    2    0  502 -0.29600551854E+02  0.10350285410E+02  0.46442930046E+02  0.56038083741E+02  0.00000000000E+00 0.  1.
<mgrwt>
<rscale>  2 0.80359396E+02</rscale>
<asrwt>0</asrwt>
<pdfrwt beam="1">  1       21 0.22001874E-01 0.80359396E+02</pdfrwt>
<pdfrwt beam="2">  1       21 0.87531149E-02 0.80359396E+02</pdfrwt>
<totfact> 0.19368394E+06</totfact>
</mgrwt>
</event>
<event>
 5    1  0.1745726E+000  0.6299594E+02  0.7546771E-02  0.1385673E+00
         21   -1    0    0  501  502  0.00000000000E+00  0.00000000000E+00  0.68436768970E+02  0.68436768970E+02  0.00000000000E+00 0. -1.
         21   -1    0    0  502  503 -0.00000000000E+00 -0.00000000000E+00 -0.15763253628E+03  0.15763253628E+03  0.00000000000E+00 0.  1.
         24    1    1    2    0    0  0.28978753980E+01  0.45484614941E+01  0.26173595865E+02  0.84742900934E+02  0.80419002446E+02 0. -1.
          1    1    1    2  501    0  0.17417413335E+02 -0.14599172352E+02  0.10210524753E+01  0.22749608102E+02  0.00000000000E+00 0. -1.
         -2    1    1    2    0  503 -0.20315288733E+02  0.10050710858E+02 -0.11639041565E+03  0.11857679621E+03  0.00000000000E+00 0.  1.
<mgrwt>
<rscale>  2 0.62995944E+02</rscale>
<asrwt>0</asrwt>
<pdfrwt beam="1">  1       21 0.10528734E-01 0.62995944E+02</pdfrwt>
<pdfrwt beam="2">  1       21 0.24251159E-01 0.62995944E+02</pdfrwt>
<totfact> 0.11676867E+06</totfact>
</mgrwt>
</event>
<event>
 5    1  0.1745726E+000  0.7943712E+02  0.7546771E-02  0.1330656E+00
         21   -1    0    0  503  502  0.00000000000E+00  0.00000000000E+00  0.37354333406E+03  0.37354333406E+03  0.00000000000E+00 0.  1.
         21   -1    0    0  501  503 -0.00000000000E+00 -0.00000000000E+00 -0.21703291634E+02  0.21703291634E+02  0.00000000000E+00 0. -1.
         24    1    1    2    0    0 -0.27586471895E+02 -0.20123074889E+02  0.25845480454E+03  0.27282238456E+03  0.80419002446E+02 0.  1.
          1    1    1    2  501    0  0.37953564200E+02 -0.10332199691E+02  0.24352418085E+02  0.46263026841E+02  0.00000000000E+00 0. -1.
         -2    1    1    2    0  502 -0.10367092305E+02  0.30455274579E+02  0.69032819806E+02  0.76161214295E+02  0.00000000000E+00 0.  1.
<mgrwt>
<rscale>  2 0.79437117E+02</rscale>
<asrwt>0</asrwt>
<pdfrwt beam="1">  1       21 0.57468201E-01 0.79437117E+02</pdfrwt>
<pdfrwt beam="2">  1       21 0.33389682E-02 0.79437117E+02</pdfrwt>
<totfact> 0.14875903E+06</totfact>
</mgrwt>
</event>
<event>
 5    1  0.1745726E+000  0.8020474E+02  0.7546771E-02  0.1328471E+00
         21   -1    0    0  503  502  0.00000000000E+00  0.00000000000E+00  0.40191962112E+03  0.40191962112E+03  0.00000000000E+00 0.  1.
         21   -1    0    0  501  503 -0.00000000000E+00 -0.00000000000E+00 -0.31996843134E+02  0.31996843134E+02  0.00000000000E+00 0. -1.
         24    1    1    2    0    0 -0.42544869254E+02  0.30444587090E+02  0.13678346281E+03  0.16707444579E+03  0.80419002446E+02 0. -1.
          1    1    1    2  501    0  0.39107646964E+02 -0.57376423355E+01  0.80034729589E+01  0.40328453604E+02  0.00000000000E+00 0. -1.
         -2    1    1    2    0  502  0.34372222899E+01 -0.24706944754E+02  0.22513584221E+03  0.22651356486E+03  0.00000000000E+00 0.  1.
<mgrwt>
<rscale>  2 0.80204740E+02</rscale>
<asrwt>0</asrwt>
<pdfrwt beam="1">  1       21 0.61833784E-01 0.80204740E+02</pdfrwt>
<pdfrwt beam="2">  1       21 0.49225915E-02 0.80204740E+02</pdfrwt>
<totfact> 0.67486079E+05</totfact>
</mgrwt>
</event>
<event>
 5    1  0.1745726E+000  0.8361850E+02  0.7546771E-02  0.1319085E+00
         21   -1    0    0  501  502  0.00000000000E+00  0.00000000000E+00  0.11980872332E+04  0.11980872332E+04  0.00000000000E+00 0. -1.
         21   -1    0    0  502  503 -0.00000000000E+00 -0.00000000000E+00 -0.25063803237E+02  0.25063803237E+02  0.00000000000E+00 0.  1.
         24    1    1    2    0    0 -0.89583607947E+01  0.58822712619E+02  0.28147670724E+03  0.29872515198E+03  0.80419002446E+02 0.  0.
          1    1    1    2  501    0 -0.11604793068E+02 -0.25919305492E+02  0.88454251737E+03  0.88499827494E+03  0.00000000000E+00 0. -1.
         -2    1    1    2    0  503  0.20563153862E+02 -0.32903407127E+02  0.70042053156E+01  0.39427609482E+02  0.00000000000E+00 0.  1.
<mgrwt>
<rscale>  2 0.83618497E+02</rscale>
<asrwt>0</asrwt>
<pdfrwt beam="1">  1       21 0.18432107E+00 0.83618497E+02</pdfrwt>
<pdfrwt beam="2">  1       21 0.38559707E-02 0.83618497E+02</pdfrwt>
<totfact> 0.76617611E+04</totfact>
</mgrwt>
</event>
<event>
 5    1  0.1745726E+000  0.7997886E+02  0.7546771E-02  0.1329111E+00
         21   -1    0    0  501  502  0.00000000000E+00  0.00000000000E+00  0.44508835059E+03  0.44508835059E+03  0.00000000000E+00 0. -1.
         21   -1    0    0  502  503 -0.00000000000E+00 -0.00000000000E+00 -0.30727100943E+02  0.30727100943E+02  0.00000000000E+00 0.  1.
         24    1    1    2    0    0 -0.10408177942E+02  0.22531810820E+02  0.76451869546E+02  0.11370187764E+03  0.80419002446E+02 0.  1.
          1    1    1    2  501    0 -0.24587152571E+02  0.11354921834E+02  0.29775434520E+03  0.29898346510E+03  0.00000000000E+00 0. -1.
         -2    1    1    2    0  503  0.34995330513E+02 -0.33886732655E+02  0.40155034898E+02  0.63130108786E+02  0.00000000000E+00 0.  1.
<mgrwt>
<rscale>  2 0.79978855E+02</rscale>
<asrwt>0</asrwt>
<pdfrwt beam="1">  1       21 0.68475126E-01 0.79978855E+02</pdfrwt>
<pdfrwt beam="2">  1       21 0.47272466E-02 0.79978855E+02</pdfrwt>
<totfact> 0.58116772E+05</totfact>
</mgrwt>
</event>
<event>
 5    1  0.1745726E+000  0.7949938E+02  0.7546771E-02  0.1330478E+00
         21   -1    0    0  501  502  0.00000000000E+00  0.00000000000E+00  0.16033829782E+03  0.16033829782E+03  0.00000000000E+00 0.  1.
         21   -1    0    0  502  503 -0.00000000000E+00 -0.00000000000E+00 -0.17257051797E+03  0.17257051797E+03  0.00000000000E+00 0. -1.
         24    1    1    2    0    0 -0.59393395686E+01  0.25275539997E+02 -0.74996323555E+02  0.11298580963E+03  0.80419002446E+02 0. -1.
          1    1    1    2  501    0 -0.31097988526E+02 -0.29288189543E+01  0.13344726886E+03  0.13705413689E+03  0.00000000000E+00 0. -1.
         -2    1    1    2    0  503  0.37037328095E+02 -0.22346721042E+02 -0.70683165458E+02  0.82868869263E+02  0.00000000000E+00 0.  1.
<mgrwt>
<rscale>  2 0.79499375E+02</rscale>
<asrwt>0</asrwt>
<pdfrwt beam="1">  1       21 0.24667430E-01 0.79499375E+02</pdfrwt>
<pdfrwt beam="2">  1       21 0.26549310E-01 0.79499375E+02</pdfrwt>
<totfact> 0.21611052E+05</totfact>
</mgrwt>
</event>
<event>
 5    1  0.1745726E+000  0.7885842E+02  0.7546771E-02  0.1332323E+00
         21   -1    0    0  503  502  0.00000000000E+00  0.00000000000E+00  0.17103098059E+04  0.17103098059E+04  0.00000000000E+00 0.  1.
         21   -1    0    0  501  503 -0.00000000000E+00 -0.00000000000E+00 -0.14409800159E+02  0.14409800159E+02  0.00000000000E+00 0.  1.
         24    1    1    2    0    0 -0.75694896312E+01 -0.15688457208E+02  0.14052118544E+03  0.16283993483E+03  0.80419002446E+02 0.  1.
          1    1    1    2  501    0  0.25989231971E+02  0.38289467068E+02  0.16977018999E+03  0.17596431705E+03  0.00000000000E+00 0. -1.
         -2    1    1    2    0  502 -0.18419742340E+02 -0.22601009860E+02  0.13856086303E+04  0.13859153542E+04  0.00000000000E+00 0.  1.
<mgrwt>
<rscale>  2 0.78858424E+02</rscale>
<asrwt>0</asrwt>
<pdfrwt beam="1">  1       21 0.26312442E+00 0.78858424E+02</pdfrwt>
<pdfrwt beam="2">  1       21 0.22168937E-02 0.78858424E+02</pdfrwt>
<totfact> 0.65447837E+04</totfact>
</mgrwt>
</event>
<event>
 5    1  0.1745726E+000  0.1090505E+03  0.7546771E-02  0.1262338E+00
         21   -1    0    0  503  502  0.00000000000E+00  0.00000000000E+00  0.16716227889E+02  0.16716227889E+02  0.00000000000E+00 0. -1.
         21   -1    0    0  501  503 -0.00000000000E+00 -0.00000000000E+00 -0.92145172722E+03  0.92145172722E+03  0.00000000000E+00 0. -1.
         24    1    1    2    0    0 -0.49751840527E+02 -0.76453159458E+02 -0.46334666643E+03  0.47903828706E+03  0.80419002446E+02 0. -1.
          1    1    1    2  501    0  0.46803869132E+02  0.45071701767E+02 -0.40827401223E+03  0.41341229968E+03  0.00000000000E+00 0. -1.
         -2    1    1    2    0  502  0.29479713949E+01  0.31381457691E+02 -0.33114820676E+02  0.45717368369E+02  0.00000000000E+00 0.  1.
<mgrwt>
<rscale>  2 0.10905053E+03</rscale>
<asrwt>0</asrwt>
<pdfrwt beam="1">  1       21 0.25717280E-02 0.10905053E+03</pdfrwt>
<pdfrwt beam="2">  1       21 0.14176177E+00 0.10905053E+03</pdfrwt>
<totfact> 0.29064382E+05</totfact>
</mgrwt>
</event>
<event>
 5    1  0.1745726E+000  0.9980481E+02  0.7546771E-02  0.1280707E+00
         21   -1    0    0  503  502  0.00000000000E+00  0.00000000000E+00  0.16789675872E+02  0.16789675872E+02  0.00000000000E+00 0.  1.
         21   -1    0    0  501  503 -0.00000000000E+00 -0.00000000000E+00 -0.13431387383E+04  0.13431387383E+04  0.00000000000E+00 0. -1.
         24    1    1    2    0    0 -0.10457962608E+02 -0.87170561069E+00 -0.93956688197E+03  0.94306058687E+03  0.80419002446E+02 0. -1.
          1    1    1    2  501    0 -0.50876128562E+02 -0.18582164437E+02 -0.31839162427E+03  0.32296579339E+03  0.00000000000E+00 0. -1.
         -2    1    1    2    0  502  0.61334091170E+02  0.19453870048E+02 -0.68390556215E+02  0.93902033944E+02  0.00000000000E+00 0.  1.
<mgrwt>
<rscale>  2 0.99804805E+02</rscale>
<asrwt>0</asrwt>
<pdfrwt beam="1">  1       21 0.25830269E-02 0.99804805E+02</pdfrwt>
<pdfrwt beam="2">  1       21 0.20663674E+00 0.99804805E+02</pdfrwt>
<totfact> 0.10515070E+05</totfact>
</mgrwt>
</event>
<event>
 5    1  0.1745726E+000  0.9348159E+02  0.7546771E-02  0.1294633E+00
         21   -1    0    0  503  502  0.00000000000E+00  0.00000000000E+00  0.16773316577E+04  0.16773316577E+04  0.00000000000E+00 0.  1.
         21   -1    0    0  501  503 -0.00000000000E+00 -0.00000000000E+00 -0.11808354940E+02  0.11808354940E+02  0.00000000000E+00 0.  1.
         24    1    1    2    0    0  0.72426868535E+02  0.43628285332E+01  0.36792845621E+03  0.38354041561E+03  0.80419002446E+02 0.  1.
          1    1    1    2  501    0 -0.39526362489E+02 -0.17494548383E+02  0.12129947735E+03  0.12877094299E+03  0.00000000000E+00 0. -1.
         -2    1    1    2    0  502 -0.32900506045E+02  0.13131719850E+02  0.11762953692E+04  0.11768286540E+04  0.00000000000E+00 0.  1.
<mgrwt>
<rscale>  2 0.93481585E+02</rscale>
<asrwt>0</asrwt>
<pdfrwt beam="1">  1       21 0.25805084E+00 0.93481585E+02</pdfrwt>
<pdfrwt beam="2">  1       21 0.18166713E-02 0.93481585E+02</pdfrwt>
<totfact> 0.93945500E+04</totfact>
</mgrwt>
</event>
<event>
 5    1  0.1745726E+000  0.6499865E+02  0.7546771E-02  0.1377977E+00
         21   -1    0    0  503  502  0.00000000000E+00  0.00000000000E+00  0.10311718716E+03  0.10311718716E+03  0.00000000000E+00 0.  1.
         21   -1    0    0  501  503 -0.00000000000E+00 -0.00000000000E+00 -0.79621548417E+02  0.79621548417E+02  0.00000000000E+00 0.  1.
         24    1    1    2    0    0  0.14079229223E+02 -0.12784085063E+02 -0.38746014823E+02  0.91269530214E+02  0.80419002446E+02 0.  1.
          1    1    1    2  501    0  0.15421686954E+01  0.26516363459E+02  0.76801397869E+00  0.26572272407E+02  0.00000000000E+00 0. -1.
         -2    1    1    2    0  502 -0.15621397918E+02 -0.13732278397E+02  0.61473639586E+02  0.64896932954E+02  0.00000000000E+00 0.  1.
<mgrwt>
<rscale>  2 0.64998647E+02</rscale>
<asrwt>0</asrwt>
<pdfrwt beam="1">  1       21 0.15864183E-01 0.64998647E+02</pdfrwt>
<pdfrwt beam="2">  1       21 0.12249469E-01 0.64998647E+02</pdfrwt>
<totfact> 0.19390461E+06</totfact>
</mgrwt>
</event>
<event>
 5    1  0.1745726E+000  0.7080784E+02  0.7546771E-02  0.1357367E+00
         21   -1    0    0  503  502  0.00000000000E+00  0.00000000000E+00  0.12208073427E+02  0.12208073427E+02  0.00000000000E+00 0.  1.
         21   -1    0    0  501  503 -0.00000000000E+00 -0.00000000000E+00 -0.10845698305E+04  0.10845698305E+04  0.00000000000E+00 0.  1.
         24    1    1    2    0    0  0.44218131727E+02 -0.15300365837E+02 -0.45205254668E+03  0.46152796804E+03  0.80419002446E+02 0.  1.
          1    1    1    2  501    0 -0.21293839380E+02  0.52229107918E+00 -0.60205181504E+03  0.60242849233E+03  0.00000000000E+00 0. -1.
         -2    1    1    2    0  502 -0.22924292348E+02  0.14778074758E+02 -0.18257395401E+02  0.32821443600E+02  0.00000000000E+00 0.  1.
<mgrwt>
<rscale>  2 0.70807840E+02</rscale>
<asrwt>0</asrwt>
<pdfrwt beam="1">  1       21 0.18781654E-02 0.70807840E+02</pdfrwt>
<pdfrwt beam="2">  1       21 0.16685687E+00 0.70807840E+02</pdfrwt>
<totfact> 0.32175622E+05</totfact>
</mgrwt>
</event>
<event>
 5    1  0.1745726E+000  0.7817818E+02  0.7546771E-02  0.1334302E+00
         21   -1    0    0  501  502  0.00000000000E+00  0.00000000000E+00  0.97426967263E+03  0.97426967263E+03  0.00000000000E+00 0. -1.
         21   -1    0    0  502  503 -0.00000000000E+00 -0.00000000000E+00 -0.27148574455E+02  0.27148574455E+02  0.00000000000E+00 0.  1.
         24    1    1    2    0    0 -0.28378870316E+02  0.27054234436E+02  0.21972156321E+03  0.23723843107E+03  0.80419002446E+02 0.  1.
          1    1    1    2  501    0  0.14744192780E+02 -0.43263675416E+02  0.73874069120E+03  0.74015332578E+03  0.00000000000E+00 0. -1.
         -2    1    1    2    0  503  0.13634677536E+02  0.16209440980E+02 -0.11341156234E+02  0.24026490237E+02  0.00000000000E+00 0.  1.
<mgrwt>
<rscale>  2 0.78178180E+02</rscale>
<asrwt>0</asrwt>
<pdfrwt beam="1">  1       21 0.14988761E+00 0.78178180E+02</pdfrwt>
<pdfrwt beam="2">  1       21 0.41767045E-02 0.78178180E+02</pdfrwt>
<totfact> 0.11620727E+05</totfact>
</mgrwt>
</event>
<event>
 5    1  0.1745726E+000  0.7374864E+02  0.7546771E-02  0.1347790E+00
         21   -1    0    0  503  502  0.00000000000E+00  0.00000000000E+00  0.14052518856E+03  0.14052518856E+03  0.00000000000E+00 0.  1.
         21   -1    0    0  501  503 -0.00000000000E+00 -0.00000000000E+00 -0.51590833318E+02  0.51590833318E+02  0.00000000000E+00 0.  1.
         24    1    1    2    0    0  0.29563642072E+02  0.25245117452E+02  0.12845874985E+02  0.90241660813E+02  0.80419002446E+02 0.  1.
          1    1    1    2  501    0 -0.29405520275E+01 -0.30831764957E+02  0.13804217284E+02  0.33908715567E+02  0.00000000000E+00 0. -1.
         -2    1    1    2    0  502 -0.26623090044E+02  0.55866475048E+01  0.62284262978E+02  0.67965645503E+02  0.00000000000E+00 0.  1.
<mgrwt>
<rscale>  2 0.73748642E+02</rscale>
<asrwt>0</asrwt>
<pdfrwt beam="1">  1       21 0.21619260E-01 0.73748642E+02</pdfrwt>
<pdfrwt beam="2">  1       21 0.79370513E-02 0.73748642E+02</pdfrwt>
<totfact> 0.23540730E+06</totfact>
</mgrwt>
</event>
<event>
 5    1  0.1745726E+000  0.8021028E+02  0.7546771E-02  0.1328456E+00
         21   -1    0    0  501  502  0.00000000000E+00  0.00000000000E+00  0.10392569449E+03  0.10392569449E+03  0.00000000000E+00 0. -1.
         21   -1    0    0  502  503 -0.00000000000E+00 -0.00000000000E+00 -0.13867140155E+03  0.13867140155E+03  0.00000000000E+00 0. -1.
         24    1    1    2    0    0 -0.30561940441E+02 -0.48385979810E+02 -0.79322583896E+02  0.12662749905E+03  0.80419002446E+02 0. -1.
          1    1    1    2  501    0  0.23498032222E+02  0.15662627036E+02  0.68983649960E+02  0.74540052091E+02  0.00000000000E+00 0. -1.
         -2    1    1    2    0  503  0.70639082189E+01  0.32723352774E+02 -0.24406773124E+02  0.41429544897E+02  0.00000000000E+00 0.  1.
<mgrwt>
<rscale>  2 0.80210284E+02</rscale>
<asrwt>0</asrwt>
<pdfrwt beam="1">  1       21 0.15988569E-01 0.80210284E+02</pdfrwt>
<pdfrwt beam="2">  1       21 0.21334062E-01 0.80210284E+02</pdfrwt>
<totfact> 0.71491744E+05</totfact>
</mgrwt>
</event>
<event>
 5    1  0.1745726E+000  0.8075085E+02  0.7546771E-02  0.1326934E+00
         21   -1    0    0  503  502  0.00000000000E+00  0.00000000000E+00  0.28460084965E+03  0.28460084965E+03  0.00000000000E+00 0.  1.
         21   -1    0    0  501  503 -0.00000000000E+00 -0.00000000000E+00 -0.60677938897E+02  0.60677938897E+02  0.00000000000E+00 0. -1.
         24    1    1    2    0    0 -0.98340125455E+00 -0.32358459222E+02  0.22679545621E+01  0.86720219865E+02  0.80419002446E+02 0. -1.
          1    1    1    2  501    0  0.15908202202E+02  0.49552279429E+02  0.20207695313E+02  0.55828758215E+02  0.00000000000E+00 0. -1.
         -2    1    1    2    0  502 -0.14924800948E+02 -0.17193820207E+02  0.20144726087E+03  0.20272981046E+03  0.00000000000E+00 0.  1.
<mgrwt>
<rscale>  2 0.80750850E+02</rscale>
<asrwt>0</asrwt>
<pdfrwt beam="1">  1       21 0.43784745E-01 0.80750850E+02</pdfrwt>
<pdfrwt beam="2">  1       21 0.93350677E-02 0.80750850E+02</pdfrwt>
<totfact> 0.46494468E+05</totfact>
</mgrwt>
</event>
<event>
 5    1  0.1745726E+000  0.1113149E+03  0.7546771E-02  0.1258154E+00
         21   -1    0    0  501  502  0.00000000000E+00  0.00000000000E+00  0.56902479441E+02  0.56902479441E+02  0.00000000000E+00 0. -1.
         21   -1    0    0  502  503 -0.00000000000E+00 -0.00000000000E+00 -0.58748833671E+03  0.58748833671E+03  0.00000000000E+00 0.  1.
         24    1    1    2    0    0  0.68584536061E+02 -0.36645508396E+02 -0.71119416411E+02  0.13255911593E+03  0.80419002446E+02 0. -1.
          1    1    1    2  501    0 -0.76362702801E+02  0.32039469982E+01 -0.31787258851E+02  0.82776551514E+02  0.00000000000E+00 0. -1.
         -2    1    1    2    0  503  0.77781667398E+01  0.33441561398E+02 -0.42767918200E+03  0.42905514870E+03  0.00000000000E+00 0.  1.
<mgrwt>
<rscale>  2 0.11131493E+03</rscale>
<asrwt>0</asrwt>
<pdfrwt beam="1">  1       21 0.87542273E-02 0.11131493E+03</pdfrwt>
<pdfrwt beam="2">  1       21 0.90382824E-01 0.11131493E+03</pdfrwt>
<totfact> 0.11030483E+05</totfact>
</mgrwt>
</event>
<event>
 5    1  0.4122228E+000  0.9341900E+02  0.7546771E-02  0.1294777E+00
         21   -1    0    0  501  502  0.00000000000E+00  0.00000000000E+00  0.49263925266E+03  0.49263925266E+03  0.00000000000E+00 0.  1.
         21   -1    0    0  502  503 -0.00000000000E+00 -0.00000000000E+00 -0.11557160235E+03  0.11557160235E+03  0.00000000000E+00 0.  1.
         24    1    1    2    0    0 -0.95544789203E+01 -0.53479529890E+02  0.45294375913E+03  0.46322414993E+03  0.80419002446E+02 0.  1.
          1    1    1    2  501    0  0.15159775788E+02 -0.14854954229E+02  0.18621508615E+02  0.28235598988E+02  0.00000000000E+00 0. -1.
         -2    1    1    2    0  503 -0.56052968681E+01  0.68334484119E+02 -0.94497617435E+02  0.11675110609E+03  0.00000000000E+00 0.  1.
<mgrwt>
<rscale>  2 0.93418997E+02</rscale>
<asrwt>0</asrwt>
<pdfrwt beam="1">  1       21 0.75790653E-01 0.93418997E+02</pdfrwt>
<pdfrwt beam="2">  1       21 0.17780247E-01 0.93418997E+02</pdfrwt>
<totfact> 0.47228624E+04</totfact>
</mgrwt>
</event>
<event>
 5    1  0.1745726E+000  0.7328749E+02  0.7546771E-02  0.1349258E+00
         21   -1    0    0  501  502  0.00000000000E+00  0.00000000000E+00  0.15181896449E+04  0.15181896449E+04  0.00000000000E+00 0.  1.
         21   -1    0    0  502  503 -0.00000000000E+00 -0.00000000000E+00 -0.86442742121E+01  0.86442742121E+01  0.00000000000E+00 0.  1.
         24    1    1    2    0    0  0.48192138960E+02  0.53747415585E-01  0.58916219300E+03  0.59657505040E+03  0.80419002446E+02 0.  1.
          1    1    1    2  501    0 -0.24217339875E+02 -0.10839300635E+02  0.88867043695E+03  0.88906642918E+03  0.00000000000E+00 0. -1.
         -2    1    1    2    0  503 -0.23974799086E+02  0.10785553219E+02  0.31712740747E+02  0.41192439539E+02  0.00000000000E+00 0.  1.
<mgrwt>
<rscale>  2 0.73287492E+02</rscale>
<asrwt>0</asrwt>
<pdfrwt beam="1">  1       21 0.23356743E+00 0.73287492E+02</pdfrwt>
<pdfrwt beam="2">  1       21 0.13298895E-02 0.73287492E+02</pdfrwt>
<totfact> 0.21621682E+05</totfact>
</mgrwt>
</event>
<event>
 5    1  0.1745726E+000  0.7632724E+02  0.7546771E-02  0.1339810E+00
         21   -1    0    0  503  502  0.00000000000E+00  0.00000000000E+00  0.97164315975E+01  0.97164315975E+01  0.00000000000E+00 0.  1.
         21   -1    0    0  501  503 -0.00000000000E+00 -0.00000000000E+00 -0.67562165498E+03  0.67562165498E+03  0.00000000000E+00 0.  1.
         24    1    1    2    0    0  0.13385900376E+02  0.12140512601E+02 -0.25262769001E+03  0.26573396488E+03  0.80419002446E+02 0.  1.
          1    1    1    2  501    0 -0.39368518508E+02  0.41124972967E+01 -0.28390543731E+03  0.28665151355E+03  0.00000000000E+00 0. -1.
         -2    1    1    2    0  502  0.25982618132E+02 -0.16253009898E+02 -0.12937209606E+03  0.13295260816E+03  0.00000000000E+00 0.  1.
<mgrwt>
<rscale>  2 0.76327242E+02</rscale>
<asrwt>0</asrwt>
<pdfrwt beam="1">  1       21 0.14948355E-02 0.76327242E+02</pdfrwt>
<pdfrwt beam="2">  1       21 0.10394180E+00 0.76327242E+02</pdfrwt>
<totfact> 0.14698729E+06</totfact>
</mgrwt>
</event>
<event>
 5    1  0.1745726E+000  0.7308452E+02  0.7546771E-02  0.1349907E+00
         21   -1    0    0  501  502  0.00000000000E+00  0.00000000000E+00  0.40756995411E+02  0.40756995411E+02  0.00000000000E+00 0.  1.
         21   -1    0    0  502  503 -0.00000000000E+00 -0.00000000000E+00 -0.14364685843E+03  0.14364685843E+03  0.00000000000E+00 0. -1.
         24    1    1    2    0    0 -0.13847088501E+02 -0.18766726600E+02 -0.77731063811E+02  0.11425089112E+03  0.80419002446E+02 0. -1.
          1    1    1    2  501    0  0.35813885549E+02  0.18845309045E+02 -0.58190585689E+01  0.40885712832E+02  0.00000000000E+00 0. -1.
         -2    1    1    2    0  503 -0.21966797049E+02 -0.78582445404E-01 -0.19339740640E+02  0.29267249884E+02  0.00000000000E+00 0.  1.
<mgrwt>
<rscale>  2 0.73084515E+02</rscale>
<asrwt>0</asrwt>
<pdfrwt beam="1">  1       21 0.62703069E-02 0.73084515E+02</pdfrwt>
<pdfrwt beam="2">  1       21 0.22099517E-01 0.73084515E+02</pdfrwt>
<totfact> 0.33624587E+06</totfact>
</mgrwt>
</event>
<event>
 5    1  0.1745726E+000  0.8018167E+02  0.7546771E-02  0.1328537E+00
         21   -1    0    0  501  502  0.00000000000E+00  0.00000000000E+00  0.22776942526E+02  0.22776942526E+02  0.00000000000E+00 0.  1.
         21   -1    0    0  502  503 -0.00000000000E+00 -0.00000000000E+00 -0.54204076773E+03  0.54204076773E+03  0.00000000000E+00 0.  1.
         24    1    1    2    0    0 -0.46402041872E+02  0.37787654032E+02 -0.14535372016E+03  0.17656720025E+03  0.80419002446E+02 0.  1.
          1    1    1    2  501    0  0.26316236127E+02 -0.17697010226E+02 -0.31619666538E+02  0.44783163877E+02  0.00000000000E+00 0. -1.
         -2    1    1    2    0  503  0.20085805745E+02 -0.20090643805E+02 -0.34229043851E+03  0.34346734613E+03  0.00000000000E+00 0.  1.
<mgrwt>
<rscale>  2 0.80181666E+02</rscale>
<asrwt>0</asrwt>
<pdfrwt beam="1">  1       21 0.35041452E-02 0.80181666E+02</pdfrwt>
<pdfrwt beam="2">  1       21 0.83390884E-01 0.80181666E+02</pdfrwt>
<totfact> 0.61862733E+05</totfact>
</mgrwt>
</event>
<event>
 5    1  0.1745726E+000  0.7998159E+02  0.7546771E-02  0.1329104E+00
         21   -1    0    0  503  502  0.00000000000E+00  0.00000000000E+00  0.23242261259E+03  0.23242261259E+03  0.00000000000E+00 0.  1.
         21   -1    0    0  501  503 -0.00000000000E+00 -0.00000000000E+00 -0.72882584615E+02  0.72882584615E+02  0.00000000000E+00 0.  1.
         24    1    1    2    0    0  0.29904773172E+02 -0.38337860173E+01 -0.17006208662E+02  0.87552386953E+02  0.80419002446E+02 0.  1.
          1    1    1    2  501    0  0.21774110450E+02 -0.28853746499E+01 -0.99493460535E+01  0.24112792448E+02  0.00000000000E+00 0. -1.
         -2    1    1    2    0  502 -0.51678883622E+02  0.67191606672E+01  0.18649558269E+03  0.19364001781E+03  0.00000000000E+00 0.  1.
<mgrwt>
<rscale>  2 0.79981587E+02</rscale>
<asrwt>0</asrwt>
<pdfrwt beam="1">  1       21 0.35757324E-01 0.79981587E+02</pdfrwt>
<pdfrwt beam="2">  1       21 0.11212705E-01 0.79981587E+02</pdfrwt>
<totfact> 0.50457871E+05</totfact>
</mgrwt>
</event>
<event>
 5    1  0.1745726E+000  0.8195398E+02  0.7546771E-02  0.1323596E+00
         21   -1    0    0  501  502  0.00000000000E+00  0.00000000000E+00  0.56344249509E+02  0.56344249509E+02  0.00000000000E+00 0.  1.
         21   -1    0    0  502  503 -0.00000000000E+00 -0.00000000000E+00 -0.21509499564E+03  0.21509499564E+03  0.00000000000E+00 0.  1.
         24    1    1    2    0    0  0.56645844760E+02 -0.29709168396E+01  0.13818421141E+01  0.98421052207E+02  0.80419002446E+02 0.  1.
          1    1    1    2  501    0 -0.19171825752E+02 -0.14609338025E+02 -0.56724602289E+02  0.61633368925E+02  0.00000000000E+00 0. -1.
         -2    1    1    2    0  503 -0.37474019008E+02  0.17580254865E+02 -0.10340798596E+03  0.11138482402E+03  0.00000000000E+00 0.  1.
<mgrwt>
<rscale>  2 0.81953981E+02</rscale>
<asrwt>0</asrwt>
<pdfrwt beam="1">  1       21 0.86683462E-02 0.81953981E+02</pdfrwt>
<pdfrwt beam="2">  1       21 0.33091537E-01 0.81953981E+02</pdfrwt>
<totfact> 0.91419195E+05</totfact>
</mgrwt>
</event>
<event>
 5    1  0.1745726E+000  0.8014635E+02  0.7546771E-02  0.1328637E+00
         21   -1    0    0  501  502  0.00000000000E+00  0.00000000000E+00  0.55523495315E+03  0.55523495315E+03  0.00000000000E+00 0.  1.
         21   -1    0    0  502  503 -0.00000000000E+00 -0.00000000000E+00 -0.39250875932E+02  0.39250875932E+02  0.00000000000E+00 0.  1.
         24    1    1    2    0    0 -0.46472643836E+01  0.40422204572E+02  0.45881363555E+03  0.46758177874E+03  0.80419002446E+02 0.  1.
          1    1    1    2  501    0  0.26585109176E+02 -0.29547588558E+01  0.75257480516E+02  0.79869812842E+02  0.00000000000E+00 0. -1.
         -2    1    1    2    0  503 -0.21937844792E+02 -0.37467445716E+02 -0.18087038850E+02  0.47034237498E+02  0.00000000000E+00 0.  1.
<mgrwt>
<rscale>  2 0.80146348E+02</rscale>
<asrwt>0</asrwt>
<pdfrwt beam="1">  1       21 0.85420756E-01 0.80146348E+02</pdfrwt>
<pdfrwt beam="2">  1       21 0.60385967E-02 0.80146348E+02</pdfrwt>
<totfact> 0.23858965E+05</totfact>
</mgrwt>
</event>
<event>
 5    1  0.1745726E+000  0.1292158E+03  0.7546771E-02  0.1228624E+00
         21   -1    0    0  501  502  0.00000000000E+00  0.00000000000E+00  0.12004035823E+03  0.12004035823E+03  0.00000000000E+00 0.  1.
         21   -1    0    0  502  503 -0.00000000000E+00 -0.00000000000E+00 -0.23179604691E+03  0.23179604691E+03  0.00000000000E+00 0.  1.
         24    1    1    2    0    0 -0.19621858839E+02  0.63367510824E+02  0.18832671436E+02  0.10593556645E+03  0.80419002446E+02 0.  1.
          1    1    1    2  501    0 -0.47489337158E+02  0.16122887583E+02  0.27086465395E+02  0.56998782928E+02  0.00000000000E+00 0. -1.
         -2    1    1    2    0  503  0.67111195996E+02 -0.79490398407E+02 -0.15767482552E+03  0.18890205576E+03  0.00000000000E+00 0.  1.
<mgrwt>
<rscale>  2 0.12921583E+03</rscale>
<asrwt>0</asrwt>
<pdfrwt beam="1">  1       21 0.18467748E-01 0.12921583E+03</pdfrwt>
<pdfrwt beam="2">  1       21 0.35660930E-01 0.12921583E+03</pdfrwt>
<totfact> 0.20649578E+05</totfact>
</mgrwt>
</event>
<event>
 5    1  0.1745726E+000  0.7362707E+02  0.7546771E-02  0.1348176E+00
         21   -1    0    0  503  502  0.00000000000E+00  0.00000000000E+00  0.42130758477E+03  0.42130758477E+03  0.00000000000E+00 0. -1.
         21   -1    0    0  501  503 -0.00000000000E+00 -0.00000000000E+00 -0.12879800666E+02  0.12879800666E+02  0.00000000000E+00 0.  1.
         24    1    1    2    0    0 -0.44158603142E+02  0.82600267004E+01  0.25037457127E+03  0.26678240602E+03  0.80419002446E+02 0. -1.
          1    1    1    2  501    0  0.26455634806E+02  0.11289665388E+02  0.85257361545E+02  0.89978746686E+02  0.00000000000E+00 0. -1.
         -2    1    1    2    0  502  0.17702968336E+02 -0.19549692089E+02  0.72795851293E+02  0.77426232726E+02  0.00000000000E+00 0.  1.
<mgrwt>
<rscale>  2 0.73627073E+02</rscale>
<asrwt>0</asrwt>
<pdfrwt beam="1">  1       21 0.64816541E-01 0.73627073E+02</pdfrwt>
<pdfrwt beam="2">  1       21 0.19815081E-02 0.73627073E+02</pdfrwt>
<totfact> 0.26679330E+06</totfact>
</mgrwt>
</event>
<event>
 5    1  0.1745726E+000  0.1272611E+03  0.7546771E-02  0.1231577E+00
         21   -1    0    0  503  502  0.00000000000E+00  0.00000000000E+00  0.19093068632E+04  0.19093068632E+04  0.00000000000E+00 0.  1.
         21   -1    0    0  501  503 -0.00000000000E+00 -0.00000000000E+00 -0.10064241840E+02  0.10064241840E+02  0.00000000000E+00 0.  1.
         24    1    1    2    0    0 -0.63138722696E+02 -0.90801165870E+02  0.82630829578E+03  0.83754639612E+03  0.80419002446E+02 0.  1.
          1    1    1    2  501    0 -0.16569118773E+01  0.26301694857E+02  0.71093931182E+02  0.75821313363E+02  0.00000000000E+00 0. -1.
         -2    1    1    2    0  502  0.64795634573E+02  0.64499471013E+02  0.10018403944E+04  0.10060033955E+04  0.00000000000E+00 0.  1.
<mgrwt>
<rscale>  2 0.12726111E+03</rscale>
<asrwt>0</asrwt>
<pdfrwt beam="1">  1       21 0.29373923E+00 0.12726111E+03</pdfrwt>
<pdfrwt beam="2">  1       21 0.15483464E-02 0.12726111E+03</pdfrwt>
<totfact> 0.73596430E+04</totfact>
</mgrwt>
</event>
<event>
 5    1  0.1745726E+000  0.9979733E+02  0.7546771E-02  0.1280723E+00
         21   -1    0    0  501  502  0.00000000000E+00  0.00000000000E+00  0.30024526128E+03  0.30024526128E+03  0.00000000000E+00 0. -1.
         21   -1    0    0  502  503 -0.00000000000E+00 -0.00000000000E+00 -0.88851866778E+02  0.88851866778E+02  0.00000000000E+00 0.  1.
         24    1    1    2    0    0 -0.75639801295E+02 -0.34287543188E+02 -0.18819761920E+02  0.11712563575E+03  0.80419002446E+02 0.  1.
          1    1    1    2  501    0  0.17152496235E+02  0.13814707673E+02  0.20317060706E+03  0.20436083247E+03  0.00000000000E+00 0. -1.
         -2    1    1    2    0  503  0.58487305060E+02  0.20472835515E+02  0.27042549366E+02  0.67610659836E+02  0.00000000000E+00 0.  1.
<mgrwt>
<rscale>  2 0.99797329E+02</rscale>
<asrwt>0</asrwt>
<pdfrwt beam="1">  1       21 0.46191578E-01 0.99797329E+02</pdfrwt>
<pdfrwt beam="2">  1       21 0.13669518E-01 0.99797329E+02</pdfrwt>
<totfact> 0.21375149E+05</totfact>
</mgrwt>
</event>
<event>
 5    1  0.1745726E+000  0.8014348E+02  0.7546771E-02  0.1328645E+00
         21   -1    0    0  503  502  0.00000000000E+00  0.00000000000E+00  0.27548945090E+03  0.27548945090E+03  0.00000000000E+00 0.  1.
         21   -1    0    0  501  503 -0.00000000000E+00 -0.00000000000E+00 -0.49566007148E+02  0.49566007148E+02  0.00000000000E+00 0. -1.
         24    1    1    2    0    0  0.26644705761E+02  0.74481135944E+01  0.18856080494E+03  0.20685214007E+03  0.80419002446E+02 0.  1.
          1    1    1    2  501    0 -0.50259000114E+02 -0.10756467489E+02 -0.20720079988E+02  0.55416517393E+02  0.00000000000E+00 0. -1.
         -2    1    1    2    0  502  0.23614294353E+02  0.33083538943E+01  0.58082718806E+02  0.62786800581E+02  0.00000000000E+00 0.  1.
<mgrwt>
<rscale>  2 0.80143479E+02</rscale>
<asrwt>0</asrwt>
<pdfrwt beam="1">  1       21 0.42382992E-01 0.80143479E+02</pdfrwt>
<pdfrwt beam="2">  1       21 0.76255397E-02 0.80143479E+02</pdfrwt>
<totfact> 0.70080626E+05</totfact>
</mgrwt>
</event>
<event>
 5    1  0.1745726E+000  0.1055698E+03  0.7546771E-02  0.1269001E+00
         21   -1    0    0  503  502  0.00000000000E+00  0.00000000000E+00  0.47794556508E+02  0.47794556508E+02  0.00000000000E+00 0.  1.
         21   -1    0    0  501  503 -0.00000000000E+00 -0.00000000000E+00 -0.24021268162E+03  0.24021268162E+03  0.00000000000E+00 0. -1.
         24    1    1    2    0    0 -0.27136262047E+02  0.24737662150E+02 -0.89293682383E+02  0.12565391484E+03  0.80419002446E+02 0.  0.
          1    1    1    2  501    0 -0.22035211132E+02  0.37452116793E+02 -0.53084334830E+02  0.68601444491E+02  0.00000000000E+00 0. -1.
         -2    1    1    2    0  502  0.49171473180E+02 -0.62189778943E+02 -0.50040107900E+02  0.93751878799E+02  0.00000000000E+00 0.  1.
<mgrwt>
<rscale>  2 0.10556983E+03</rscale>
<asrwt>0</asrwt>
<pdfrwt beam="1">  1       21 0.73530086E-02 0.10556983E+03</pdfrwt>
<pdfrwt beam="2">  1       21 0.36955798E-01 0.10556983E+03</pdfrwt>
<totfact> 0.98081702E+05</totfact>
</mgrwt>
</event>
<event>
 5    1  0.1745726E+000  0.6784733E+02  0.7546771E-02  0.1367570E+00
         21   -1    0    0  503  502  0.00000000000E+00  0.00000000000E+00  0.17220554111E+02  0.17220554111E+02  0.00000000000E+00 0. -1.
         21   -1    0    0  501  503 -0.00000000000E+00 -0.00000000000E+00 -0.72541173525E+03  0.72541173525E+03  0.00000000000E+00 0.  1.
         24    1    1    2    0    0 -0.13172665198E+02 -0.19837578813E+02 -0.26934523726E+03  0.28210126096E+03  0.80419002446E+02 0.  0.
          1    1    1    2  501    0  0.28029561605E+02  0.12891061220E+01 -0.43564937355E+03  0.43655205278E+03  0.00000000000E+00 0. -1.
         -2    1    1    2    0  502 -0.14856896407E+02  0.18548472691E+02 -0.31965703294E+01  0.23978975622E+02  0.00000000000E+00 0.  1.
<mgrwt>
<rscale>  2 0.67847335E+02</rscale>
<asrwt>0</asrwt>
<pdfrwt beam="1">  1       21 0.26493168E-02 0.67847335E+02</pdfrwt>
<pdfrwt beam="2">  1       21 0.11160177E+00 0.67847335E+02</pdfrwt>
<totfact> 0.50065698E+05</totfact>
</mgrwt>
</event>
<event>
 5    1  0.1745726E+000  0.7484064E+02  0.7546771E-02  0.1344365E+00
         21   -1    0    0  503  502  0.00000000000E+00  0.00000000000E+00  0.27667208701E+03  0.27667208701E+03  0.00000000000E+00 0.  1.
         21   -1    0    0  501  503 -0.00000000000E+00 -0.00000000000E+00 -0.57115387361E+02  0.57115387361E+02  0.00000000000E+00 0. -1.
         24    1    1    2    0    0  0.74608441804E+01 -0.12236043338E+02  0.40087589833E+02  0.90992393998E+02  0.80419002446E+02 0.  1.
          1    1    1    2  501    0 -0.28089593184E+02  0.29763774646E+02 -0.17111901962E+02  0.44359043217E+02  0.00000000000E+00 0. -1.
         -2    1    1    2    0  502  0.20628749004E+02 -0.17527731308E+02  0.19658101178E+03  0.19843603715E+03  0.00000000000E+00 0.  1.
<mgrwt>
<rscale>  2 0.74840643E+02</rscale>
<asrwt>0</asrwt>
<pdfrwt beam="1">  1       21 0.42564936E-01 0.74840643E+02</pdfrwt>
<pdfrwt beam="2">  1       21 0.87869828E-02 0.74840643E+02</pdfrwt>
<totfact> 0.54553313E+05</totfact>
</mgrwt>
</event>
<event>
 5    1  0.1745726E+000  0.9488986E+02  0.7546771E-02  0.1291424E+00
         21   -1    0    0  501  502  0.00000000000E+00  0.00000000000E+00  0.78401209804E+02  0.78401209804E+02  0.00000000000E+00 0. -1.
         21   -1    0    0  502  503 -0.00000000000E+00 -0.00000000000E+00 -0.17608148101E+03  0.17608148101E+03  0.00000000000E+00 0.  1.
         24    1    1    2    0    0 -0.60873618751E+02 -0.16666374328E+02 -0.12589909749E+03  0.16217633673E+03  0.80419002446E+02 0.  0.
          1    1    1    2  501    0  0.52285720889E+02  0.37946178852E+02  0.24319468227E+02  0.69030034284E+02  0.00000000000E+00 0. -1.
         -2    1    1    2    0  503  0.85878978622E+01 -0.21279804524E+02  0.38993580523E+01  0.23276319801E+02  0.00000000000E+00 0.  1.
<mgrwt>
<rscale>  2 0.94889856E+02</rscale>
<asrwt>0</asrwt>
<pdfrwt beam="1">  1       21 0.12061725E-01 0.94889856E+02</pdfrwt>
<pdfrwt beam="2">  1       21 0.27089458E-01 0.94889856E+02</pdfrwt>
<totfact> 0.75678620E+05</totfact>
</mgrwt>
</event>
<event>
 5    1  0.1745726E+000  0.7516397E+02  0.7546771E-02  0.1343364E+00
         21   -1    0    0  503  502  0.00000000000E+00  0.00000000000E+00  0.68506584881E+03  0.68506584881E+03  0.00000000000E+00 0.  1.
         21   -1    0    0  501  503 -0.00000000000E+00 -0.00000000000E+00 -0.27350727543E+03  0.27350727543E+03  0.00000000000E+00 0. -1.
         24    1    1    2    0    0  0.22443174734E+00  0.20620465958E+02  0.21451640299E+02  0.85747552804E+02  0.80419002446E+02 0.  1.
          1    1    1    2  501    0  0.17185507397E+02 -0.38616436835E+02 -0.23925793165E+03  0.24296281344E+03  0.00000000000E+00 0. -1.
         -2    1    1    2    0  502 -0.17409939144E+02  0.17995970877E+02  0.62936486474E+03  0.62986275800E+03  0.00000000000E+00 0.  1.
<mgrwt>
<rscale>  2 0.75163968E+02</rscale>
<asrwt>0</asrwt>
<pdfrwt beam="1">  1       21 0.10539475E+00 0.75163968E+02</pdfrwt>
<pdfrwt beam="2">  1       21 0.42078043E-01 0.75163968E+02</pdfrwt>
<totfact> 0.45146070E+03</totfact>
</mgrwt>
</event>
<event>
 5    1  0.2396229E+000  0.7573204E+02  0.7546771E-02  0.1341619E+00
         21   -1    0    0  501  502  0.00000000000E+00  0.00000000000E+00  0.13468401286E+03  0.13468401286E+03  0.00000000000E+00 0.  1.
         21   -1    0    0  502  503 -0.00000000000E+00 -0.00000000000E+00 -0.29877930056E+03  0.29877930056E+03  0.00000000000E+00 0.  1.
         24    1    1    2    0    0 -0.16588464996E+02 -0.82422499319E+01  0.11725551938E+03  0.14338474338E+03  0.80419002446E+02 0.  1.
          1    1    1    2  501    0 -0.23333800435E+02 -0.95745839898E+01 -0.74346345050E+02  0.78508075531E+02  0.00000000000E+00 0. -1.
         -2    1    1    2    0  503  0.39922265431E+02  0.17816833922E+02 -0.20700446202E+03  0.21157049451E+03  0.00000000000E+00 0.  1.
<mgrwt>
<rscale>  2 0.75732043E+02</rscale>
<asrwt>0</asrwt>
<pdfrwt beam="1">  1       21 0.20720617E-01 0.75732043E+02</pdfrwt>
<pdfrwt beam="2">  1       21 0.45966046E-01 0.75732043E+02</pdfrwt>
<totfact> 0.10306899E+05</totfact>
</mgrwt>
</event>
<event>
 5    1  0.1745726E+000  0.6714353E+02  0.7546771E-02  0.1370085E+00
         21   -1    0    0  501  502  0.00000000000E+00  0.00000000000E+00  0.34990742890E+03  0.34990742890E+03  0.00000000000E+00 0. -1.
         21   -1    0    0  502  503 -0.00000000000E+00 -0.00000000000E+00 -0.64192091190E+02  0.64192091190E+02  0.00000000000E+00 0.  1.
         24    1    1    2    0    0 -0.79535370174E+01 -0.42886743223E+01  0.64837671662E+02  0.10369566577E+03  0.80419002446E+02 0.  0.
          1    1    1    2  501    0 -0.16304046421E+02  0.18965250635E+02  0.26049157544E+03  0.26168944101E+03  0.00000000000E+00 0. -1.
         -2    1    1    2    0  503  0.24257583439E+02 -0.14676576313E+02 -0.39613909393E+02  0.48714413308E+02  0.00000000000E+00 0.  1.
<mgrwt>
<rscale>  2 0.67143530E+02</rscale>
<asrwt>0</asrwt>
<pdfrwt beam="1">  1       21 0.53831911E-01 0.67143530E+02</pdfrwt>
<pdfrwt beam="2">  1       21 0.98757066E-02 0.67143530E+02</pdfrwt>
<totfact> 0.27832704E+05</totfact>
</mgrwt>
</event>
<event>
 5    1  0.1745726E+000  0.1102639E+03  0.7546771E-02  0.1260082E+00
         21   -1    0    0  503  502  0.00000000000E+00  0.00000000000E+00  0.36942915104E+03  0.36942915104E+03  0.00000000000E+00 0. -1.
         21   -1    0    0  501  503 -0.00000000000E+00 -0.00000000000E+00 -0.51761394721E+02  0.51761394721E+02  0.00000000000E+00 0.  1.
         24    1    1    2    0    0  0.75025970148E+02  0.57000686395E+02  0.61792163999E+02  0.13843215642E+03  0.80419002446E+02 0.  1.
          1    1    1    2  501    0 -0.53987924765E+02 -0.52150091527E+02  0.98153759826E+02  0.12356572597E+03  0.00000000000E+00 0. -1.
         -2    1    1    2    0  502 -0.21038045382E+02 -0.48505948685E+01  0.15772183249E+03  0.15919266336E+03  0.00000000000E+00 0.  1.
<mgrwt>
<rscale>  2 0.11026393E+03</rscale>
<asrwt>0</asrwt>
<pdfrwt beam="1">  1       21 0.56835252E-01 0.11026393E+03</pdfrwt>
<pdfrwt beam="2">  1       21 0.79632917E-02 0.11026393E+03</pdfrwt>
<totfact> 0.35740247E+05</totfact>
</mgrwt>
</event>
<event>
 5    1  0.1745726E+000  0.7965384E+02  0.7546771E-02  0.1330037E+00
         21   -1    0    0  501  502  0.00000000000E+00  0.00000000000E+00  0.45664003398E+03  0.45664003398E+03  0.00000000000E+00 0. -1.
         21   -1    0    0  502  503 -0.00000000000E+00 -0.00000000000E+00 -0.53912613802E+02  0.53912613802E+02  0.00000000000E+00 0.  1.
         24    1    1    2    0    0 -0.31419033096E+01 -0.98360750674E+00  0.84212192173E+02  0.11648926262E+03  0.80419002446E+02 0. -1.
          1    1    1    2  501    0  0.14318475875E+02  0.37760265314E+02  0.34501882173E+03  0.34737421282E+03  0.00000000000E+00 0. -1.
         -2    1    1    2    0  503 -0.11176572565E+02 -0.36776657807E+02 -0.26503593722E+02  0.46689172342E+02  0.00000000000E+00 0.  1.
<mgrwt>
<rscale>  2 0.79653844E+02</rscale>
<asrwt>0</asrwt>
<pdfrwt beam="1">  1       21 0.70252310E-01 0.79653844E+02</pdfrwt>
<pdfrwt beam="2">  1       21 0.82942486E-02 0.79653844E+02</pdfrwt>
<totfact> 0.21404682E+05</totfact>
</mgrwt>
</event>
<event>
 5    1  0.1745726E+000  0.1112271E+03  0.7546771E-02  0.1258314E+00
         21   -1    0    0  501  502  0.00000000000E+00  0.00000000000E+00  0.19665509021E+03  0.19665509021E+03  0.00000000000E+00 0. -1.
         21   -1    0    0  502  503 -0.00000000000E+00 -0.00000000000E+00 -0.14751517762E+03  0.14751517762E+03  0.00000000000E+00 0.  1.
         24    1    1    2    0    0  0.24520965662E+02 -0.93245016947E+02 -0.90589285086E+02  0.15482101107E+03  0.80419002446E+02 0.  1.
          1    1    1    2  501    0 -0.58859839732E+01  0.41281640996E+02  0.12563546467E+03  0.13237480377E+03  0.00000000000E+00 0. -1.
         -2    1    1    2    0  503 -0.18634981689E+02  0.51963375951E+02  0.14093733009E+02  0.56974452985E+02  0.00000000000E+00 0.  1.
<mgrwt>
<rscale>  2 0.11122710E+03</rscale>
<asrwt>0</asrwt>
<pdfrwt beam="1">  1       21 0.30254629E-01 0.11122710E+03</pdfrwt>
<pdfrwt beam="2">  1       21 0.22694643E-01 0.11122710E+03</pdfrwt>
<totfact> 0.19517234E+05</totfact>
</mgrwt>
</event>
<event>
 5    1  0.1745726E+000  0.1427815E+03  0.7546771E-02  0.1209635E+00
         21   -1    0    0  503  502  0.00000000000E+00  0.00000000000E+00  0.43834946313E+03  0.43834946313E+03  0.00000000000E+00 0.  1.
         21   -1    0    0  501  503 -0.00000000000E+00 -0.00000000000E+00 -0.17849229280E+03  0.17849229280E+03  0.00000000000E+00 0. -1.
         24    1    1    2    0    0 -0.16713864433E+02 -0.10668923017E+03  0.25981744466E+03  0.29263332962E+03  0.80419002446E+02 0.  0.
          1    1    1    2  501    0  0.71101152794E+01  0.12765755817E+03 -0.13574610613E+03  0.18647791083E+03  0.00000000000E+00 0. -1.
         -2    1    1    2    0  502  0.96037491538E+01 -0.20968328003E+02  0.13578583180E+03  0.13773051548E+03  0.00000000000E+00 0.  1.
<mgrwt>
<rscale>  2 0.14278150E+03</rscale>
<asrwt>0</asrwt>
<pdfrwt beam="1">  1       21 0.67438379E-01 0.14278150E+03</pdfrwt>
<pdfrwt beam="2">  1       21 0.27460353E-01 0.14278150E+03</pdfrwt>
<totfact> 0.26208375E+04</totfact>
</mgrwt>
</event>
<event>
 5    1  0.1745726E+000  0.8764914E+02  0.7546771E-02  0.1308647E+00
         21   -1    0    0  501  502  0.00000000000E+00  0.00000000000E+00  0.28557923796E+03  0.28557923796E+03  0.00000000000E+00 0.  1.
         21   -1    0    0  502  503 -0.00000000000E+00 -0.00000000000E+00 -0.63548035965E+02  0.63548035965E+02  0.00000000000E+00 0.  1.
         24    1    1    2    0    0  0.65666182600E+02 -0.21237404528E+02  0.22945142255E+03  0.25274146109E+03  0.80419002446E+02 0.  1.
          1    1    1    2  501    0 -0.20088516058E+02  0.97112785774E+01  0.29231658459E+02  0.36774274504E+02  0.00000000000E+00 0. -1.
         -2    1    1    2    0  503 -0.45577666543E+02  0.11526125951E+02 -0.36651879015E+02  0.59611538332E+02  0.00000000000E+00 0.  1.
<mgrwt>
<rscale>  2 0.87649143E+02</rscale>
<asrwt>0</asrwt>
<pdfrwt beam="1">  1       21 0.43935267E-01 0.87649143E+02</pdfrwt>
<pdfrwt beam="2">  1       21 0.97766211E-02 0.87649143E+02</pdfrwt>
<totfact> 0.42630200E+05</totfact>
</mgrwt>
</event>
<event>
 5    1  0.1745726E+000  0.9309331E+02  0.7546771E-02  0.1295529E+00
         21   -1    0    0  501  502  0.00000000000E+00  0.00000000000E+00  0.79511833507E+02  0.79511833507E+02  0.00000000000E+00 0. -1.
         21   -1    0    0  502  503 -0.00000000000E+00 -0.00000000000E+00 -0.17075962726E+03  0.17075962726E+03  0.00000000000E+00 0. -1.
         24    1    1    2    0    0  0.54106364377E+00 -0.58165264075E+02 -0.75427887497E+02  0.12465982858E+03  0.80419002446E+02 0. -1.
          1    1    1    2  501    0 -0.23468038249E+02  0.59509286184E+02  0.32764684869E+02  0.71872307156E+02  0.00000000000E+00 0. -1.
         -2    1    1    2    0  503  0.22926974605E+02 -0.13440221091E+01 -0.48584591128E+02  0.53739325034E+02  0.00000000000E+00 0.  1.
<mgrwt>
<rscale>  2 0.93093308E+02</rscale>
<asrwt>0</asrwt>
<pdfrwt beam="1">  1       21 0.12232590E-01 0.93093308E+02</pdfrwt>
<pdfrwt beam="2">  1       21 0.26270712E-01 0.93093308E+02</pdfrwt>
<totfact> 0.78216790E+05</totfact>
</mgrwt>
</event>
<event>
 5    1  0.1745726E+000  0.1532574E+03  0.7546771E-02  0.1196526E+00
         21   -1    0    0  501  502  0.00000000000E+00  0.00000000000E+00  0.10867240291E+03  0.10867240291E+03  0.00000000000E+00 0.  1.
         21   -1    0    0  502  503 -0.00000000000E+00 -0.00000000000E+00 -0.59680246095E+03  0.59680246095E+03  0.00000000000E+00 0.  1.
         24    1    1    2    0    0 -0.69880416220E+02  0.95178165527E+02  0.11302516450E+02  0.14330777577E+03  0.80419002446E+02 0.  1.
          1    1    1    2  501    0  0.75749360179E+02 -0.11792706720E+03 -0.12744579950E+03  0.18943914737E+03  0.00000000000E+00 0. -1.
         -2    1    1    2    0  503 -0.58689439584E+01  0.22748901676E+02 -0.37198677498E+03  0.37272794072E+03  0.00000000000E+00 0.  1.
<mgrwt>
<rscale>  2 0.15325745E+03</rscale>
<asrwt>0</asrwt>
<pdfrwt beam="1">  1       21 0.16718831E-01 0.15325745E+03</pdfrwt>
<pdfrwt beam="2">  1       21 0.91815762E-01 0.15325745E+03</pdfrwt>
<totfact> 0.33001035E+04</totfact>
</mgrwt>
</event>
<event>
 5    1  0.1745726E+000  0.8693198E+02  0.7546771E-02  0.1310456E+00
         21   -1    0    0  501  502  0.00000000000E+00  0.00000000000E+00  0.19402248043E+03  0.19402248043E+03  0.00000000000E+00 0. -1.
         21   -1    0    0  502  503 -0.00000000000E+00 -0.00000000000E+00 -0.53989638007E+02  0.53989638007E+02  0.00000000000E+00 0. -1.
         24    1    1    2    0    0  0.47356190420E+02  0.44900349278E+02  0.27227176283E+02  0.10708494394E+03  0.80419002446E+02 0. -1.
          1    1    1    2  501    0 -0.42635556584E+02 -0.24113685553E+02  0.10869025469E+03  0.11921758251E+03  0.00000000000E+00 0. -1.
         -2    1    1    2    0  503 -0.47206338360E+01 -0.20786663726E+02  0.41154114547E+01  0.21709591984E+02  0.00000000000E+00 0.  1.
<mgrwt>
<rscale>  2 0.86931978E+02</rscale>
<asrwt>0</asrwt>
<pdfrwt beam="1">  1       21 0.29849612E-01 0.86931978E+02</pdfrwt>
<pdfrwt beam="2">  1       21 0.83060982E-02 0.86931978E+02</pdfrwt>
<totfact> 0.11998782E+06</totfact>
</mgrwt>
</event>
<event>
 5    1  0.1745726E+000  0.7802201E+02  0.7546771E-02  0.1334760E+00
         21   -1    0    0  501  502  0.00000000000E+00  0.00000000000E+00  0.52388992172E+03  0.52388992172E+03  0.00000000000E+00 0.  1.
         21   -1    0    0  502  503 -0.00000000000E+00 -0.00000000000E+00 -0.17761463209E+02  0.17761463209E+02  0.00000000000E+00 0. -1.
         24    1    1    2    0    0  0.35772396165E+02  0.20419310452E+02  0.32197556193E+03  0.33441305447E+03  0.80419002446E+02 0.  0.
          1    1    1    2  501    0 -0.33578235948E+02  0.10121544169E+02  0.16986800242E+03  0.17345051696E+03  0.00000000000E+00 0. -1.
         -2    1    1    2    0  503 -0.21941602168E+01 -0.30540854621E+02  0.14284894159E+02  0.33787813501E+02  0.00000000000E+00 0.  1.
<mgrwt>
<rscale>  2 0.78022015E+02</rscale>
<asrwt>0</asrwt>
<pdfrwt beam="1">  1       21 0.80598438E-01 0.78022015E+02</pdfrwt>
<pdfrwt beam="2">  1       21 0.27325332E-02 0.78022015E+02</pdfrwt>
<totfact> 0.99824051E+05</totfact>
</mgrwt>
</event>
<event>
 5    1  0.1745726E+000  0.6696763E+02  0.7546771E-02  0.1370719E+00
         21   -1    0    0  503  502  0.00000000000E+00  0.00000000000E+00  0.34137707227E+01  0.34137707227E+01  0.00000000000E+00 0. -1.
         21   -1    0    0  501  503 -0.00000000000E+00 -0.00000000000E+00 -0.22795416830E+04  0.22795416830E+04  0.00000000000E+00 0.  1.
         24    1    1    2    0    0 -0.18394898626E+02 -0.63794514782E+01 -0.96264418410E+03  0.96619361974E+03  0.80419002446E+02 0. -1.
          1    1    1    2  501    0 -0.66234510604E+01  0.21134234345E+02 -0.11776144551E+04  0.11778227077E+04  0.00000000000E+00 0. -1.
         -2    1    1    2    0  502  0.25018349687E+02 -0.14754782867E+02 -0.13586927306E+03  0.13893912624E+03  0.00000000000E+00 0.  1.
<mgrwt>
<rscale>  2 0.66967634E+02</rscale>
<asrwt>0</asrwt>
<pdfrwt beam="1">  1       21 0.52519594E-03 0.66967634E+02</pdfrwt>
<pdfrwt beam="2">  1       21 0.35069842E+00 0.66967634E+02</pdfrwt>
<totfact> 0.21156255E+05</totfact>
</mgrwt>
</event>
<event>
 5    1  0.1745726E+000  0.8694947E+02  0.7546771E-02  0.1310412E+00
         21   -1    0    0  503  502  0.00000000000E+00  0.00000000000E+00  0.89644702283E+02  0.89644702283E+02  0.00000000000E+00 0. -1.
         21   -1    0    0  501  503 -0.00000000000E+00 -0.00000000000E+00 -0.12919235203E+03  0.12919235203E+03  0.00000000000E+00 0. -1.
         24    1    1    2    0    0 -0.73489147149E+01  0.22388605584E+02  0.29898190125E+02  0.88974007073E+02  0.80419002446E+02 0. -1.
          1    1    1    2  501    0  0.38106956938E+02 -0.39513346340E+02 -0.76302709157E+02  0.93997596409E+02  0.00000000000E+00 0. -1.
         -2    1    1    2    0  502 -0.30758042223E+02  0.17124740756E+02  0.68568692806E+01  0.35865450836E+02  0.00000000000E+00 0.  1.
<mgrwt>
<rscale>  2 0.86949467E+02</rscale>
<asrwt>0</asrwt>
<pdfrwt beam="1">  1       21 0.13791493E-01 0.86949467E+02</pdfrwt>
<pdfrwt beam="2">  1       21 0.19875746E-01 0.86949467E+02</pdfrwt>
<totfact> 0.10604520E+06</totfact>
</mgrwt>
</event>
<event>
 5    1  0.1745726E+000  0.9276309E+02  0.7546771E-02  0.1296295E+00
         21   -1    0    0  501  502  0.00000000000E+00  0.00000000000E+00  0.30074122389E+02  0.30074122389E+02  0.00000000000E+00 0. -1.
         21   -1    0    0  502  503 -0.00000000000E+00 -0.00000000000E+00 -0.73964136386E+03  0.73964136386E+03  0.00000000000E+00 0.  1.
         24    1    1    2    0    0 -0.35219866191E+01  0.45348635377E+02 -0.42613321388E+03  0.43603398382E+03  0.80419002446E+02 0.  1.
          1    1    1    2  501    0  0.27931256167E+02  0.12309161206E+02  0.11165949510E+02  0.32501522258E+02  0.00000000000E+00 0. -1.
         -2    1    1    2    0  503 -0.24409269548E+02 -0.57657796583E+02 -0.29459997710E+03  0.30117998017E+03  0.00000000000E+00 0.  1.
<mgrwt>
<rscale>  2 0.92763085E+02</rscale>
<asrwt>0</asrwt>
<pdfrwt beam="1">  1       21 0.46267884E-02 0.92763085E+02</pdfrwt>
<pdfrwt beam="2">  1       21 0.11379097E+00 0.92763085E+02</pdfrwt>
<totfact> 0.19130040E+05</totfact>
</mgrwt>
</event>
<event>
 5    1  0.1745726E+000  0.8697070E+02  0.7546771E-02  0.1310358E+00
         21   -1    0    0  501  502  0.00000000000E+00  0.00000000000E+00  0.13624529300E+04  0.13624529300E+04  0.00000000000E+00 0.  1.
         21   -1    0    0  502  503 -0.00000000000E+00 -0.00000000000E+00 -0.11556601215E+02  0.11556601215E+02  0.00000000000E+00 0.  1.
         24    1    1    2    0    0 -0.49683549997E+02 -0.31537552410E+01  0.88085270150E+03  0.88591596611E+03  0.80419002446E+02 0.  1.
          1    1    1    2  501    0  0.52510993580E+02  0.24416645271E+02  0.46131492200E+03  0.46493551626E+03  0.00000000000E+00 0. -1.
         -2    1    1    2    0  503 -0.28274435827E+01 -0.21262890030E+02  0.87287052454E+01  0.23158048815E+02  0.00000000000E+00 0.  1.
<mgrwt>
<rscale>  2 0.86970703E+02</rscale>
<asrwt>0</asrwt>
<pdfrwt beam="1">  1       21 0.20960802E+00 0.86970703E+02</pdfrwt>
<pdfrwt beam="2">  1       21 0.17779397E-02 0.86970703E+02</pdfrwt>
<totfact> 0.18583670E+05</totfact>
</mgrwt>
</event>
<event>
 5    1  0.1745726E+000  0.6883437E+02  0.7546771E-02  0.1364102E+00
         21   -1    0    0  503  502  0.00000000000E+00  0.00000000000E+00  0.14725588613E+03  0.14725588613E+03  0.00000000000E+00 0.  1.
         21   -1    0    0  501  503 -0.00000000000E+00 -0.00000000000E+00 -0.39002058731E+02  0.39002058731E+02  0.00000000000E+00 0.  1.
         24    1    1    2    0    0 -0.25985211831E+02 -0.28547080496E+02  0.35869453147E+02  0.96145726178E+02  0.80419002446E+02 0.  1.
          1    1    1    2  501    0  0.26240731222E+02  0.73290628345E+01  0.20622849092E+02  0.34170060605E+02  0.00000000000E+00 0. -1.
         -2    1    1    2    0  502 -0.25551939064E+00  0.21218017661E+02  0.51761525156E+02  0.55942158075E+02  0.00000000000E+00 0.  1.
<mgrwt>
<rscale>  2 0.68834371E+02</rscale>
<asrwt>0</asrwt>
<pdfrwt beam="1">  1       21 0.22654751E-01 0.68834371E+02</pdfrwt>
<pdfrwt beam="2">  1       21 0.60003168E-02 0.68834371E+02</pdfrwt>
<totfact> 0.34442395E+06</totfact>
</mgrwt>
</event>
<event>
 5    1  0.1745726E+000  0.8664370E+02  0.7546771E-02  0.1311189E+00
         21   -1    0    0  503  502  0.00000000000E+00  0.00000000000E+00  0.14105524950E+02  0.14105524950E+02  0.00000000000E+00 0. -1.
         21   -1    0    0  501  503 -0.00000000000E+00 -0.00000000000E+00 -0.61827496901E+03  0.61827496901E+03  0.00000000000E+00 0. -1.
         24    1    1    2    0    0  0.32615222100E+02 -0.26793486310E+02 -0.36439214196E+03  0.37554026775E+03  0.80419002446E+02 0.  1.
          1    1    1    2  501    0  0.20123234413E+02  0.21519892742E+02 -0.14759659643E+03  0.15050849021E+03  0.00000000000E+00 0. -1.
         -2    1    1    2    0  502 -0.52738456513E+02  0.52735935678E+01 -0.92180705673E+02  0.10633173601E+03  0.00000000000E+00 0.  1.
<mgrwt>
<rscale>  2 0.86643697E+02</rscale>
<asrwt>0</asrwt>
<pdfrwt beam="1">  1       21 0.21700811E-02 0.86643697E+02</pdfrwt>
<pdfrwt beam="2">  1       21 0.95119209E-01 0.86643697E+02</pdfrwt>
<totfact> 0.99891570E+05</totfact>
</mgrwt>
</event>
<event>
 5    1  0.1745726E+000  0.6832251E+02  0.7546771E-02  0.1365892E+00
         21   -1    0    0  503  502  0.00000000000E+00  0.00000000000E+00  0.18256397778E+03  0.18256397778E+03  0.00000000000E+00 0. -1.
         21   -1    0    0  501  503 -0.00000000000E+00 -0.00000000000E+00 -0.26582258407E+02  0.26582258407E+02  0.00000000000E+00 0.  1.
         24    1    1    2    0    0 -0.14919724627E+02  0.42090517633E+02  0.10624758746E+03  0.14053460660E+03  0.80419002446E+02 0.  0.
          1    1    1    2  501    0  0.71490068485E+01 -0.19470863681E+02  0.34498972638E+02  0.40254216481E+02  0.00000000000E+00 0. -1.
         -2    1    1    2    0  502  0.77707177784E+01 -0.22619653951E+02  0.15235159272E+02  0.28357413100E+02  0.00000000000E+00 0.  1.
<mgrwt>
<rscale>  2 0.68322515E+02</rscale>
<asrwt>0</asrwt>
<pdfrwt beam="1">  1       21 0.28086765E-01 0.68322515E+02</pdfrwt>
<pdfrwt beam="2">  1       21 0.40895783E-02 0.68322515E+02</pdfrwt>
<totfact> 0.43487074E+06</totfact>
</mgrwt>
</event>
<event>
 5    1  0.1745726E+000  0.1281410E+03  0.7546771E-02  0.1230241E+00
         21   -1    0    0  501  502  0.00000000000E+00  0.00000000000E+00  0.20044150538E+03  0.20044150538E+03  0.00000000000E+00 0. -1.
         21   -1    0    0  502  503 -0.00000000000E+00 -0.00000000000E+00 -0.19635904010E+03  0.19635904010E+03  0.00000000000E+00 0. -1.
         24    1    1    2    0    0 -0.38881277129E+02 -0.37078204034E+02 -0.14412249956E+02  0.97782799248E+02  0.80419002446E+02 0. -1.
          1    1    1    2  501    0  0.47612609131E+02  0.92194683970E+02  0.13474480207E+03  0.17006758064E+03  0.00000000000E+00 0. -1.
         -2    1    1    2    0  503 -0.87313320021E+01 -0.55116479936E+02 -0.11625008683E+03  0.12895016560E+03  0.00000000000E+00 0.  1.
<mgrwt>
<rscale>  2 0.12814096E+03</rscale>
<asrwt>0</asrwt>
<pdfrwt beam="1">  1       21 0.30837155E-01 0.12814096E+03</pdfrwt>
<pdfrwt beam="2">  1       21 0.30209083E-01 0.12814096E+03</pdfrwt>
<totfact> 0.10874458E+05</totfact>
</mgrwt>
</event>
<event>
 5    1  0.1745726E+000  0.6737108E+02  0.7546771E-02  0.1369268E+00
         21   -1    0    0  503  502  0.00000000000E+00  0.00000000000E+00  0.64059390197E+02  0.64059390197E+02  0.00000000000E+00 0. -1.
         21   -1    0    0  501  503 -0.00000000000E+00 -0.00000000000E+00 -0.10832017244E+03  0.10832017244E+03  0.00000000000E+00 0. -1.
         24    1    1    2    0    0  0.66230083115E+01 -0.89923719546E+01 -0.19113149915E+01  0.81213275219E+02  0.80419002446E+02 0. -1.
          1    1    1    2  501    0  0.17447114422E+02 -0.12355026689E+02 -0.53102297715E+02  0.57244235594E+02  0.00000000000E+00 0. -1.
         -2    1    1    2    0  502 -0.24070122734E+02  0.21347398644E+02  0.10752830460E+02  0.33922051827E+02  0.00000000000E+00 0.  1.
<mgrwt>
<rscale>  2 0.67371084E+02</rscale>
<asrwt>0</asrwt>
<pdfrwt beam="1">  1       21 0.98552908E-02 0.67371084E+02</pdfrwt>
<pdfrwt beam="2">  1       21 0.16664642E-01 0.67371084E+02</pdfrwt>
<totfact> 0.25917553E+06</totfact>
</mgrwt>
</event>
<event>
 5    1  0.1745726E+000  0.2211308E+03  0.7546771E-02  0.1133043E+00
         21   -1    0    0  501  502  0.00000000000E+00  0.00000000000E+00  0.10320812923E+03  0.10320812923E+03  0.00000000000E+00 0.  1.
         21   -1    0    0  502  503 -0.00000000000E+00 -0.00000000000E+00 -0.53497664651E+03  0.53497664651E+03  0.00000000000E+00 0.  1.
         24    1    1    2    0    0 -0.49733473806E+02  0.20119009330E+03 -0.26959628972E+03  0.34942845827E+03  0.80419002446E+02 0.  1.
          1    1    1    2  501    0 -0.11930468711E+02 -0.10517049160E+03 -0.22176181193E+02  0.10814319858E+03  0.00000000000E+00 0. -1.
         -2    1    1    2    0  503  0.61663942517E+02 -0.96019601699E+02 -0.13999604636E+03  0.18061311888E+03  0.00000000000E+00 0.  1.
<mgrwt>
<rscale>  2 0.22113085E+03</rscale>
<asrwt>0</asrwt>
<pdfrwt beam="1">  1       21 0.15878174E-01 0.22113085E+03</pdfrwt>
<pdfrwt beam="2">  1       21 0.82304098E-01 0.22113085E+03</pdfrwt>
<totfact> 0.44959077E+04</totfact>
</mgrwt>
</event>
<event>
 5    1  0.1745726E+000  0.1698492E+03  0.7546771E-02  0.1178005E+00
         21   -1    0    0  501  502  0.00000000000E+00  0.00000000000E+00  0.19015198604E+04  0.19015198604E+04  0.00000000000E+00 0. -1.
         21   -1    0    0  502  503 -0.00000000000E+00 -0.00000000000E+00 -0.56852730618E+02  0.56852730618E+02  0.00000000000E+00 0.  1.
         24    1    1    2    0    0 -0.82044255290E+02 -0.47319359641E+02  0.42329802005E+03  0.44115622104E+03  0.80419002446E+02 0. -1.
          1    1    1    2  501    0  0.12254196708E+03 -0.31771851131E+02  0.14227284094E+04  0.14283494359E+04  0.00000000000E+00 0. -1.
         -2    1    1    2    0  503 -0.40497711789E+02  0.79091210772E+02 -0.13592996165E+01  0.88866934104E+02  0.00000000000E+00 0.  1.
<mgrwt>
<rscale>  2 0.16984922E+03</rscale>
<asrwt>0</asrwt>
<pdfrwt beam="1">  1       21 0.29254147E+00 0.16984922E+03</pdfrwt>
<pdfrwt beam="2">  1       21 0.87465754E-02 0.16984922E+03</pdfrwt>
<totfact> 0.39803166E+03</totfact>
</mgrwt>
</event>
<event>
 5    1  0.1745726E+000  0.7387083E+02  0.7546771E-02  0.1347404E+00
         21   -1    0    0  501  502  0.00000000000E+00  0.00000000000E+00  0.69837268303E+02  0.69837268303E+02  0.00000000000E+00 0.  1.
         21   -1    0    0  502  503 -0.00000000000E+00 -0.00000000000E+00 -0.11615590469E+03  0.11615590469E+03  0.00000000000E+00 0. -1.
         24    1    1    2    0    0  0.15821553867E+02  0.98161019090E+01  0.27687536659E+02  0.87066027037E+02  0.80419002446E+02 0.  1.
          1    1    1    2  501    0 -0.15113791124E+02 -0.35978129160E+02 -0.38510616721E+02  0.54826271625E+02  0.00000000000E+00 0. -1.
         -2    1    1    2    0  503 -0.70776274272E+00  0.26162027251E+02 -0.35495556329E+02  0.44100874334E+02  0.00000000000E+00 0.  1.
<mgrwt>
<rscale>  2 0.73870826E+02</rscale>
<asrwt>0</asrwt>
<pdfrwt beam="1">  1       21 0.10744195E-01 0.73870826E+02</pdfrwt>
<pdfrwt beam="2">  1       21 0.17870139E-01 0.73870826E+02</pdfrwt>
<totfact> 0.19803062E+06</totfact>
</mgrwt>
</event>
<event>
 5    1  0.1745726E+000  0.6835890E+02  0.7546771E-02  0.1365764E+00
         21   -1    0    0  501  502  0.00000000000E+00  0.00000000000E+00  0.71832265718E+02  0.71832265718E+02  0.00000000000E+00 0. -1.
         21   -1    0    0  502  503 -0.00000000000E+00 -0.00000000000E+00 -0.15157757085E+03  0.15157757085E+03  0.00000000000E+00 0. -1.
         24    1    1    2    0    0  0.99556967556E+01 -0.10591157526E+02 -0.39553056781E+02  0.90790686586E+02  0.80419002446E+02 0.  0.
          1    1    1    2  501    0  0.10934511330E+02 -0.17106925203E+02  0.40213533789E+02  0.45048182291E+02  0.00000000000E+00 0. -1.
         -2    1    1    2    0  503 -0.20890208086E+02  0.27698082729E+02 -0.80405782138E+02  0.87570967689E+02  0.00000000000E+00 0.  1.
<mgrwt>
<rscale>  2 0.68358900E+02</rscale>
<asrwt>0</asrwt>
<pdfrwt beam="1">  1       21 0.11051118E-01 0.68358900E+02</pdfrwt>
<pdfrwt beam="2">  1       21 0.23319626E-01 0.68358900E+02</pdfrwt>
<totfact> 0.11577275E+06</totfact>
</mgrwt>
</event>
<event>
 5    1  0.1745726E+000  0.1186463E+03  0.7546771E-02  0.1245347E+00
         21   -1    0    0  501  502  0.00000000000E+00  0.00000000000E+00  0.97956528687E+02  0.97956528687E+02  0.00000000000E+00 0. -1.
         21   -1    0    0  502  503 -0.00000000000E+00 -0.00000000000E+00 -0.29758633952E+03  0.29758633952E+03  0.00000000000E+00 0.  1.
         24    1    1    2    0    0  0.21861078037E+02 -0.67555139548E+02  0.36223991047E+02  0.11322984189E+03  0.80419002446E+02 0. -1.
          1    1    1    2  501    0 -0.54929299545E+02  0.14531959608E+00 -0.28707514222E+02  0.61978790236E+02  0.00000000000E+00 0. -1.
         -2    1    1    2    0  503  0.33068221508E+02  0.67409819952E+02 -0.20714628765E+03  0.22033423608E+03  0.00000000000E+00 0.  1.
<mgrwt>
<rscale>  2 0.11864628E+03</rscale>
<asrwt>0</asrwt>
<pdfrwt beam="1">  1       21 0.15070235E-01 0.11864628E+03</pdfrwt>
<pdfrwt beam="2">  1       21 0.45782514E-01 0.11864628E+03</pdfrwt>
<totfact> 0.18179453E+05</totfact>
</mgrwt>
</event>
<event>
 5    1  0.1745726E+000  0.7327790E+02  0.7546771E-02  0.1349288E+00
         21   -1    0    0  503  502  0.00000000000E+00  0.00000000000E+00  0.57819860573E+03  0.57819860573E+03  0.00000000000E+00 0.  1.
         21   -1    0    0  501  503 -0.00000000000E+00 -0.00000000000E+00 -0.24189185195E+02  0.24189185195E+02  0.00000000000E+00 0. -1.
         24    1    1    2    0    0  0.24933093668E+01 -0.20580689351E+02  0.16807890078E+03  0.18747670311E+03  0.80419002446E+02 0. -1.
          1    1    1    2  501    0 -0.26694923958E+02  0.27510584919E+02  0.12048204227E+02  0.40182215877E+02  0.00000000000E+00 0. -1.
         -2    1    1    2    0  502  0.24201614592E+02 -0.69298955679E+01  0.37388231552E+03  0.37472887194E+03  0.00000000000E+00 0.  1.
<mgrwt>
<rscale>  2 0.73277905E+02</rscale>
<asrwt>0</asrwt>
<pdfrwt beam="1">  1       21 0.88953621E-01 0.73277905E+02</pdfrwt>
<pdfrwt beam="2">  1       21 0.37214136E-02 0.73277905E+02</pdfrwt>
<totfact> 0.48565393E+05</totfact>
</mgrwt>
</event>
<event>
 5    1  0.1745726E+000  0.7283786E+02  0.7546771E-02  0.1350700E+00
         21   -1    0    0  501  502  0.00000000000E+00  0.00000000000E+00  0.48751436639E+03  0.48751436639E+03  0.00000000000E+00 0.  1.
         21   -1    0    0  502  503 -0.00000000000E+00 -0.00000000000E+00 -0.12819950009E+02  0.12819950009E+02  0.00000000000E+00 0. -1.
         24    1    1    2    0    0  0.21267365897E+02  0.28411847552E+01  0.34732035031E+03  0.35715404922E+03  0.80419002446E+02 0.  1.
          1    1    1    2  501    0 -0.31207307858E+02 -0.23800028384E+02  0.99225529702E+02  0.10670540361E+03  0.00000000000E+00 0. -1.
         -2    1    1    2    0  503  0.99399419612E+01  0.20958843629E+02  0.28148536374E+02  0.36474863570E+02  0.00000000000E+00 0.  1.
<mgrwt>
<rscale>  2 0.72837864E+02</rscale>
<asrwt>0</asrwt>
<pdfrwt beam="1">  1       21 0.75002196E-01 0.72837864E+02</pdfrwt>
<pdfrwt beam="2">  1       21 0.19723004E-02 0.72837864E+02</pdfrwt>
<totfact> 0.19653962E+06</totfact>
</mgrwt>
</event>
<event>
 5    1  0.1745726E+000  0.6966527E+02  0.7546771E-02  0.1361235E+00
         21   -1    0    0  501  502  0.00000000000E+00  0.00000000000E+00  0.25714430682E+03  0.25714430682E+03  0.00000000000E+00 0.  1.
         21   -1    0    0  502  503 -0.00000000000E+00 -0.00000000000E+00 -0.23704635835E+02  0.23704635835E+02  0.00000000000E+00 0.  1.
         24    1    1    2    0    0  0.13147224154E+02 -0.25279002438E+02  0.10409618190E+03  0.13459237909E+03  0.80419002446E+02 0.  0.
          1    1    1    2  501    0  0.16646025005E+02  0.15254207078E+02  0.10238593273E+03  0.10484588787E+03  0.00000000000E+00 0. -1.
         -2    1    1    2    0  503 -0.29793249159E+02  0.10024795359E+02  0.26957556357E+02  0.41410675703E+02  0.00000000000E+00 0.  1.
<mgrwt>
<rscale>  2 0.69665268E+02</rscale>
<asrwt>0</asrwt>
<pdfrwt beam="1">  1       21 0.39560661E-01 0.69665268E+02</pdfrwt>
<pdfrwt beam="2">  1       21 0.36468672E-02 0.69665268E+02</pdfrwt>
<totfact> 0.27210351E+06</totfact>
</mgrwt>
</event>
<event>
 5    1  0.1745726E+000  0.1289537E+03  0.7546771E-02  0.1229017E+00
         21   -1    0    0  503  502  0.00000000000E+00  0.00000000000E+00  0.48506717796E+02  0.48506717796E+02  0.00000000000E+00 0.  1.
         21   -1    0    0  501  503 -0.00000000000E+00 -0.00000000000E+00 -0.71145193385E+03  0.71145193385E+03  0.00000000000E+00 0. -1.
         24    1    1    2    0    0 -0.63528256095E+01 -0.91258583252E+02 -0.43777021051E+03  0.45439901032E+03  0.80419002446E+02 0. -1.
          1    1    1    2  501    0 -0.22718580221E+02  0.10246169965E+03 -0.24642798936E+03  0.26784564160E+03  0.00000000000E+00 0. -1.
         -2    1    1    2    0  502  0.29071405830E+02 -0.11203116403E+02  0.21252983822E+02  0.37713999727E+02  0.00000000000E+00 0.  1.
<mgrwt>
<rscale>  2 0.12895371E+03</rscale>
<asrwt>0</asrwt>
<pdfrwt beam="1">  1       21 0.74625720E-02 0.12895371E+03</pdfrwt>
<pdfrwt beam="2">  1       21 0.10945414E+00 0.12895371E+03</pdfrwt>
<totfact> 0.92106494E+04</totfact>
</mgrwt>
</event>
<event>
 5    1  0.1745726E+000  0.8380554E+02  0.7546771E-02  0.1318586E+00
         21   -1    0    0  501  502  0.00000000000E+00  0.00000000000E+00  0.11227794846E+03  0.11227794846E+03  0.00000000000E+00 0. -1.
         21   -1    0    0  502  503 -0.00000000000E+00 -0.00000000000E+00 -0.17987138368E+03  0.17987138368E+03  0.00000000000E+00 0. -1.
         24    1    1    2    0    0 -0.37795898085E+02  0.52033702817E+02 -0.69926117529E+01  0.10320924723E+03  0.80419002446E+02 0. -1.
          1    1    1    2  501    0  0.16467596985E+02 -0.17338848047E+02  0.58430517818E+02  0.63134323585E+02  0.00000000000E+00 0. -1.
         -2    1    1    2    0  503  0.21328301100E+02 -0.34694854770E+02 -0.11903134128E+03  0.12580576132E+03  0.00000000000E+00 0.  1.
<mgrwt>
<rscale>  2 0.83805536E+02</rscale>
<asrwt>0</asrwt>
<pdfrwt beam="1">  1       21 0.17273531E-01 0.83805536E+02</pdfrwt>
<pdfrwt beam="2">  1       21 0.27672520E-01 0.83805536E+02</pdfrwt>
<totfact> 0.38355969E+05</totfact>
</mgrwt>
</event>
<event>
 5    1  0.1745726E+000  0.8040937E+02  0.7546771E-02  0.1327894E+00
         21   -1    0    0  503  502  0.00000000000E+00  0.00000000000E+00  0.38650356237E+02  0.38650356237E+02  0.00000000000E+00 0.  1.
         21   -1    0    0  501  503 -0.00000000000E+00 -0.00000000000E+00 -0.32049985470E+03  0.32049985470E+03  0.00000000000E+00 0.  1.
         24    1    1    2    0    0 -0.26546142933E+02  0.23181288989E+02 -0.16666342323E+03  0.18837723446E+03  0.80419002446E+02 0.  1.
          1    1    1    2  501    0  0.37420601211E+02  0.94711543467E+01 -0.12827148080E+03  0.13395363730E+03  0.00000000000E+00 0. -1.
         -2    1    1    2    0  502 -0.10874458278E+02 -0.32652443335E+02  0.13085405569E+02  0.36819339178E+02  0.00000000000E+00 0.  1.
<mgrwt>
<rscale>  2 0.80409373E+02</rscale>
<asrwt>0</asrwt>
<pdfrwt beam="1">  1       21 0.59462089E-02 0.80409373E+02</pdfrwt>
<pdfrwt beam="2">  1       21 0.49307668E-01 0.80409373E+02</pdfrwt>
<totfact> 0.78650109E+05</totfact>
</mgrwt>
</event>
<event>
 5    1  0.1745726E+000  0.7910764E+02  0.7546771E-02  0.1331603E+00
         21   -1    0    0  503  502  0.00000000000E+00  0.00000000000E+00  0.54503219652E+01  0.54503219652E+01  0.00000000000E+00 0. -1.
         21   -1    0    0  501  503 -0.00000000000E+00 -0.00000000000E+00 -0.22193922794E+04  0.22193922794E+04  0.00000000000E+00 0.  1.
         24    1    1    2    0    0  0.40011616877E+02 -0.27661153320E+02 -0.19716018773E+04  0.19738407350E+04  0.80419002446E+02 0.  1.
          1    1    1    2  501    0 -0.26763107618E+02 -0.65413493307E+01 -0.12765462436E+03  0.13059386012E+03  0.00000000000E+00 0. -1.
         -2    1    1    2    0  502 -0.13248509258E+02  0.34202502651E+02 -0.11468545576E+03  0.12040800617E+03  0.00000000000E+00 0.  1.
<mgrwt>
<rscale>  2 0.79107637E+02</rscale>
<asrwt>0</asrwt>
<pdfrwt beam="1">  1       21 0.83850983E-03 0.79107637E+02</pdfrwt>
<pdfrwt beam="2">  1       21 0.34144547E+00 0.79107637E+02</pdfrwt>
<totfact> 0.11293833E+05</totfact>
</mgrwt>
</event>
<event>
 5    1  0.1745726E+000  0.7713101E+02  0.7546771E-02  0.1337396E+00
         21   -1    0    0  503  502  0.00000000000E+00  0.00000000000E+00  0.12256023074E+03  0.12256023074E+03  0.00000000000E+00 0.  1.
         21   -1    0    0  501  503 -0.00000000000E+00 -0.00000000000E+00 -0.17138517866E+03  0.17138517866E+03  0.00000000000E+00 0. -1.
         24    1    1    2    0    0 -0.40418072739E+02  0.37903974861E+02  0.94586246764E+02  0.13595626483E+03  0.80419002446E+02 0.  1.
          1    1    1    2  501    0  0.22679901809E+02 -0.13371711354E+02 -0.10909981629E+03  0.11223168236E+03  0.00000000000E+00 0. -1.
         -2    1    1    2    0  502  0.17738170930E+02 -0.24532263507E+02 -0.34311378403E+02  0.45757462218E+02  0.00000000000E+00 0.  1.
<mgrwt>
<rscale>  2 0.77131013E+02</rscale>
<asrwt>0</asrwt>
<pdfrwt beam="1">  1       21 0.18855420E-01 0.77131013E+02</pdfrwt>
<pdfrwt beam="2">  1       21 0.26366951E-01 0.77131013E+02</pdfrwt>
<totfact> 0.35873857E+05</totfact>
</mgrwt>
</event>
<event>
 5    1  0.1745726E+000  0.7094172E+02  0.7546771E-02  0.1356920E+00
         21   -1    0    0  503  502  0.00000000000E+00  0.00000000000E+00  0.46069270411E+02  0.46069270411E+02  0.00000000000E+00 0.  1.
         21   -1    0    0  501  503 -0.00000000000E+00 -0.00000000000E+00 -0.12057855877E+03  0.12057855877E+03  0.00000000000E+00 0. -1.
         24    1    1    2    0    0  0.69076827318E+01 -0.17874865585E+02 -0.55560549616E+02  0.99606312693E+02  0.80419002446E+02 0.  0.
          1    1    1    2  501    0  0.19538667136E+02  0.25089436910E+02 -0.23115777735E+02  0.39313846648E+02  0.00000000000E+00 0. -1.
         -2    1    1    2    0  502 -0.26446349868E+02 -0.72145713251E+01  0.41670389922E+01  0.27727669839E+02  0.00000000000E+00 0.  1.
<mgrwt>
<rscale>  2 0.70941720E+02</rscale>
<asrwt>0</asrwt>
<pdfrwt beam="1">  1       21 0.70875801E-02 0.70941720E+02</pdfrwt>
<pdfrwt beam="2">  1       21 0.18550547E-01 0.70941720E+02</pdfrwt>
<totfact> 0.37570480E+06</totfact>
</mgrwt>
</event>
<event>
 5    1  0.1745726E+000  0.8259213E+02  0.7546771E-02  0.1321852E+00
         21   -1    0    0  501  502  0.00000000000E+00  0.00000000000E+00  0.74940246381E+03  0.74940246381E+03  0.00000000000E+00 0.  1.
         21   -1    0    0  502  503 -0.00000000000E+00 -0.00000000000E+00 -0.12002070181E+02  0.12002070181E+02  0.00000000000E+00 0. -1.
         24    1    1    2    0    0  0.58116147378E+02  0.81467175038E+01  0.39298350267E+03  0.40539746536E+03  0.80419002446E+02 0.  0.
          1    1    1    2  501    0 -0.41078701961E+02 -0.19176020203E+02  0.32422083332E+03  0.32737490475E+03  0.00000000000E+00 0. -1.
         -2    1    1    2    0  503 -0.17037445417E+02  0.11029302699E+02  0.20196057648E+02  0.28632163887E+02  0.00000000000E+00 0.  1.
<mgrwt>
<rscale>  2 0.82592133E+02</rscale>
<asrwt>0</asrwt>
<pdfrwt beam="1">  1       21 0.11529265E+00 0.82592133E+02</pdfrwt>
<pdfrwt beam="2">  1       21 0.18464729E-02 0.82592133E+02</pdfrwt>
<totfact> 0.82560223E+05</totfact>
</mgrwt>
</event>
<event>
 5    1  0.1745726E+000  0.8145168E+02  0.7546771E-02  0.1324982E+00
         21   -1    0    0  503  502  0.00000000000E+00  0.00000000000E+00  0.20250191778E+03  0.20250191778E+03  0.00000000000E+00 0.  1.
         21   -1    0    0  501  503 -0.00000000000E+00 -0.00000000000E+00 -0.80952487271E+02  0.80952487271E+02  0.00000000000E+00 0.  1.
         24    1    1    2    0    0  0.22499547909E+02  0.55945591235E+02 -0.32620532287E+02  0.10567617478E+03  0.80419002446E+02 0.  1.
          1    1    1    2  501    0 -0.19468831950E+02 -0.27016801072E+02  0.16679115554E+02  0.37244272758E+02  0.00000000000E+00 0. -1.
         -2    1    1    2    0  502 -0.30307159590E+01 -0.28928790163E+02  0.13749084724E+03  0.14053395751E+03  0.00000000000E+00 0.  1.
<mgrwt>
<rscale>  2 0.81451677E+02</rscale>
<asrwt>0</asrwt>
<pdfrwt beam="1">  1       21 0.31154141E-01 0.81451677E+02</pdfrwt>
<pdfrwt beam="2">  1       21 0.12454229E-01 0.81451677E+02</pdfrwt>
<totfact> 0.54779069E+05</totfact>
</mgrwt>
</event>
<event>
 5    1  0.1745726E+000  0.6691354E+02  0.7546771E-02  0.1370915E+00
         21   -1    0    0  503  502  0.00000000000E+00  0.00000000000E+00  0.19360669279E+02  0.19360669279E+02  0.00000000000E+00 0.  1.
         21   -1    0    0  501  503 -0.00000000000E+00 -0.00000000000E+00 -0.39405293486E+03  0.39405293486E+03  0.00000000000E+00 0. -1.
         24    1    1    2    0    0  0.34299520319E+01  0.36163623475E+01 -0.79564405460E+02  0.11323671321E+03  0.80419002446E+02 0.  1.
          1    1    1    2  501    0 -0.20279379367E+02 -0.20896206581E+02 -0.19611420838E+03  0.19826418589E+03  0.00000000000E+00 0. -1.
         -2    1    1    2    0  502  0.16849427335E+02  0.17279844233E+02 -0.99013651745E+02  0.10191270505E+03  0.00000000000E+00 0.  1.
<mgrwt>
<rscale>  2 0.66913537E+02</rscale>
<asrwt>0</asrwt>
<pdfrwt beam="1">  1       21 0.29785647E-02 0.66913537E+02</pdfrwt>
<pdfrwt beam="2">  1       21 0.60623525E-01 0.66913537E+02</pdfrwt>
<totfact> 0.15919283E+06</totfact>
</mgrwt>
</event>
<event>
 5    1  0.1745726E+000  0.8791853E+02  0.7546771E-02  0.1307972E+00
         21   -1    0    0  501  502  0.00000000000E+00  0.00000000000E+00  0.23123085690E+02  0.23123085690E+02  0.00000000000E+00 0. -1.
         21   -1    0    0  502  503 -0.00000000000E+00 -0.00000000000E+00 -0.64231572355E+03  0.64231572355E+03  0.00000000000E+00 0.  1.
         24    1    1    2    0    0 -0.12423628485E+02  0.20362059933E+02 -0.83556828514E+02  0.11839729547E+03  0.80419002446E+02 0. -1.
          1    1    1    2  501    0 -0.20840231710E+02 -0.45642320521E+02 -0.13142454804E+03  0.14067675184E+03  0.00000000000E+00 0. -1.
         -2    1    1    2    0  503  0.33263860195E+02  0.25280260588E+02 -0.40421126131E+03  0.40636476194E+03  0.00000000000E+00 0.  1.
<mgrwt>
<rscale>  2 0.87918534E+02</rscale>
<asrwt>0</asrwt>
<pdfrwt beam="1">  1       21 0.35573972E-02 0.87918534E+02</pdfrwt>
<pdfrwt beam="2">  1       21 0.98817820E-01 0.87918534E+02</pdfrwt>
<totfact> 0.41112110E+05</totfact>
</mgrwt>
</event>
<event>
 5    1  0.1745726E+000  0.8704125E+02  0.7546771E-02  0.1310179E+00
         21   -1    0    0  501  502  0.00000000000E+00  0.00000000000E+00  0.93549101784E+01  0.93549101784E+01  0.00000000000E+00 0.  1.
         21   -1    0    0  502  503 -0.00000000000E+00 -0.00000000000E+00 -0.15395481494E+04  0.15395481494E+04  0.00000000000E+00 0.  1.
         24    1    1    2    0    0 -0.37335734274E+02  0.11086599186E+02 -0.28091956621E+03  0.29478787012E+03  0.80419002446E+02 0.  1.
          1    1    1    2  501    0  0.10635783231E+02 -0.42321421728E+02 -0.23548350544E+03  0.23949259687E+03  0.00000000000E+00 0. -1.
         -2    1    1    2    0  503  0.26699951043E+02  0.31234822542E+02 -0.10137901676E+04  0.10146225926E+04  0.00000000000E+00 0.  1.
<mgrwt>
<rscale>  2 0.87041245E+02</rscale>
<asrwt>0</asrwt>
<pdfrwt beam="1">  1       21 0.14392177E-02 0.87041245E+02</pdfrwt>
<pdfrwt beam="2">  1       21 0.23685344E+00 0.87041245E+02</pdfrwt>
<totfact> 0.18026570E+05</totfact>
</mgrwt>
</event>
<event>
 5    1  0.1745726E+000  0.8179522E+02  0.7546771E-02  0.1324033E+00
         21   -1    0    0  501  502  0.00000000000E+00  0.00000000000E+00  0.19496921057E+03  0.19496921057E+03  0.00000000000E+00 0.  1.
         21   -1    0    0  502  503 -0.00000000000E+00 -0.00000000000E+00 -0.38559700477E+02  0.38559700477E+02  0.00000000000E+00 0. -1.
         24    1    1    2    0    0 -0.13384368144E+02  0.51825863906E+02  0.93276873164E+02  0.13428645688E+03  0.80419002446E+02 0.  1.
          1    1    1    2  501    0 -0.13912122019E+02 -0.25584543612E+02  0.52295837809E+02  0.59857920638E+02  0.00000000000E+00 0. -1.
         -2    1    1    2    0  503  0.27296490163E+02 -0.26241320294E+02  0.10836799120E+02  0.39384533527E+02  0.00000000000E+00 0.  1.
<mgrwt>
<rscale>  2 0.81795223E+02</rscale>
<asrwt>0</asrwt>
<pdfrwt beam="1">  1       21 0.29995262E-01 0.81795223E+02</pdfrwt>
<pdfrwt beam="2">  1       21 0.59322618E-02 0.81795223E+02</pdfrwt>
<totfact> 0.20966701E+06</totfact>
</mgrwt>
</event>
<event>
 5    1  0.1745726E+000  0.8006758E+02  0.7546771E-02  0.1328860E+00
         21   -1    0    0  503  502  0.00000000000E+00  0.00000000000E+00  0.91444903122E+03  0.91444903122E+03  0.00000000000E+00 0.  1.
         21   -1    0    0  501  503 -0.00000000000E+00 -0.00000000000E+00 -0.41446225191E+02  0.41446225191E+02  0.00000000000E+00 0. -1.
         24    1    1    2    0    0 -0.27136543274E+02 -0.92238643206E+01  0.52609749828E+02  0.10028196939E+03  0.80419002446E+02 0.  0.
          1    1    1    2  501    0  0.47291155220E+02 -0.83479300887E+01  0.15768992001E+02  0.50545053245E+02  0.00000000000E+00 0. -1.
         -2    1    1    2    0  502 -0.20154611946E+02  0.17571794409E+02  0.80462406420E+03  0.80506823377E+03  0.00000000000E+00 0.  1.
<mgrwt>
<rscale>  2 0.80067576E+02</rscale>
<asrwt>0</asrwt>
<pdfrwt beam="1">  1       21 0.14068445E+00 0.80067576E+02</pdfrwt>
<pdfrwt beam="2">  1       21 0.63763430E-02 0.80067576E+02</pdfrwt>
<totfact> 0.67374770E+04</totfact>
</mgrwt>
</event>
<event>
 5    1  0.1745726E+000  0.7693392E+02  0.7546771E-02  0.1337985E+00
         21   -1    0    0  501  502  0.00000000000E+00  0.00000000000E+00  0.28595953161E+03  0.28595953161E+03  0.00000000000E+00 0.  1.
         21   -1    0    0  502  503 -0.00000000000E+00 -0.00000000000E+00 -0.30133226705E+02  0.30133226705E+02  0.00000000000E+00 0. -1.
         24    1    1    2    0    0 -0.28019299410E+02 -0.83985406348E+01  0.17349155843E+03  0.19344806390E+03  0.80419002446E+02 0.  1.
          1    1    1    2  501    0  0.35143495878E+02  0.29587314188E+02  0.88275833871E+02  0.99514307057E+02  0.00000000000E+00 0. -1.
         -2    1    1    2    0  503 -0.71241964682E+01 -0.21188773553E+02 -0.59410873975E+01  0.23130387361E+02  0.00000000000E+00 0.  1.
<mgrwt>
<rscale>  2 0.76933916E+02</rscale>
<asrwt>0</asrwt>
<pdfrwt beam="1">  1       21 0.43993772E-01 0.76933916E+02</pdfrwt>
<pdfrwt beam="2">  1       21 0.46358812E-02 0.76933916E+02</pdfrwt>
<totfact> 0.14950058E+06</totfact>
</mgrwt>
</event>
<event>
 5    1  0.1745726E+000  0.8993744E+02  0.7546771E-02  0.1303003E+00
         21   -1    0    0  501  502  0.00000000000E+00  0.00000000000E+00  0.14718260161E+04  0.14718260161E+04  0.00000000000E+00 0. -1.
         21   -1    0    0  502  503 -0.00000000000E+00 -0.00000000000E+00 -0.90973836463E+01  0.90973836463E+01  0.00000000000E+00 0.  1.
         24    1    1    2    0    0  0.48681548172E+02  0.47591399349E+02  0.76374498015E+03  0.77097888757E+03  0.80419002446E+02 0. -1.
          1    1    1    2  501    0 -0.33299098245E+02 -0.11421131868E+02  0.62651244059E+03  0.62750068559E+03  0.00000000000E+00 0. -1.
         -2    1    1    2    0  503 -0.15382449927E+02 -0.36170267481E+02  0.72471211729E+02  0.82443826602E+02  0.00000000000E+00 0.  1.
<mgrwt>
<rscale>  2 0.89937442E+02</rscale>
<asrwt>0</asrwt>
<pdfrwt beam="1">  1       21 0.22643458E+00 0.89937442E+02</pdfrwt>
<pdfrwt beam="2">  1       21 0.13995987E-02 0.89937442E+02</pdfrwt>
<totfact> 0.21558666E+05</totfact>
</mgrwt>
</event>
<event>
 5    1  0.1745726E+000  0.1126710E+03  0.7546771E-02  0.1255702E+00
         21   -1    0    0  501  502  0.00000000000E+00  0.00000000000E+00  0.64216260412E+02  0.64216260412E+02  0.00000000000E+00 0.  1.
         21   -1    0    0  502  503 -0.00000000000E+00 -0.00000000000E+00 -0.21473663250E+03  0.21473663250E+03  0.00000000000E+00 0.  1.
         24    1    1    2    0    0  0.30619693178E+02 -0.89261184374E+02 -0.60021211251E+02  0.13774936080E+03  0.80419002446E+02 0.  1.
          1    1    1    2  501    0 -0.32110378741E+02  0.36659071579E+02 -0.18729815432E+02  0.52208906693E+02  0.00000000000E+00 0. -1.
         -2    1    1    2    0  503  0.14906855633E+01  0.52602112796E+02 -0.71769345407E+02  0.88994625423E+02  0.00000000000E+00 0.  1.
<mgrwt>
<rscale>  2 0.11267104E+03</rscale>
<asrwt>0</asrwt>
<pdfrwt beam="1">  1       21 0.98794248E-02 0.11267104E+03</pdfrwt>
<pdfrwt beam="2">  1       21 0.33036405E-01 0.11267104E+03</pdfrwt>
<totfact> 0.73436308E+05</totfact>
</mgrwt>
</event>
<event>
 5    1  0.1745726E+000  0.7912321E+02  0.7546771E-02  0.1331558E+00
         21   -1    0    0  503  502  0.00000000000E+00  0.00000000000E+00  0.73226292176E+02  0.73226292176E+02  0.00000000000E+00 0.  1.
         21   -1    0    0  501  503 -0.00000000000E+00 -0.00000000000E+00 -0.10660415208E+03  0.10660415208E+03  0.00000000000E+00 0. -1.
         24    1    1    2    0    0 -0.43879155020E+02 -0.28842302448E+02  0.10971119763E+02  0.96668713031E+02  0.80419002446E+02 0.  1.
          1    1    1    2  501    0  0.21071350313E+02  0.32867560772E+02 -0.45522839128E+02  0.59971720314E+02  0.00000000000E+00 0. -1.
         -2    1    1    2    0  502  0.22807804707E+02 -0.40252583241E+01  0.11738594591E+01  0.23190010913E+02  0.00000000000E+00 0.  1.
<mgrwt>
<rscale>  2 0.79123209E+02</rscale>
<asrwt>0</asrwt>
<pdfrwt beam="1">  1       21 0.11265583E-01 0.79123209E+02</pdfrwt>
<pdfrwt beam="2">  1       21 0.16400639E-01 0.79123209E+02</pdfrwt>
<totfact> 0.21345836E+06</totfact>
</mgrwt>
</event>
<event>
 5    1  0.1745726E+000  0.1136642E+03  0.7546771E-02  0.1253931E+00
         21   -1    0    0  503  502  0.00000000000E+00  0.00000000000E+00  0.14840144548E+02  0.14840144548E+02  0.00000000000E+00 0. -1.
         21   -1    0    0  501  503 -0.00000000000E+00 -0.00000000000E+00 -0.18156127956E+04  0.18156127956E+04  0.00000000000E+00 0. -1.
         24    1    1    2    0    0  0.97904916941E+02 -0.12570611375E+02 -0.53059244159E+03  0.54565460509E+03  0.80419002446E+02 0. -1.
          1    1    1    2  501    0 -0.63843871324E+02  0.15871088796E+02 -0.12310860734E+04  0.12328425899E+04  0.00000000000E+00 0. -1.
         -2    1    1    2    0  502 -0.34061045617E+02 -0.33004774204E+01 -0.39094136067E+02  0.51955745155E+02  0.00000000000E+00 0.  1.
<mgrwt>
<rscale>  2 0.11366424E+03</rscale>
<asrwt>0</asrwt>
<pdfrwt beam="1">  1       21 0.22830998E-02 0.11366424E+03</pdfrwt>
<pdfrwt beam="2">  1       21 0.27932496E+00 0.11366424E+03</pdfrwt>
<totfact> 0.48259378E+04</totfact>
</mgrwt>
</event>
<event>
 5    1  0.1745726E+000  0.1011071E+03  0.7546771E-02  0.1277985E+00
         21   -1    0    0  501  502  0.00000000000E+00  0.00000000000E+00  0.79545969397E+03  0.79545969397E+03  0.00000000000E+00 0. -1.
         21   -1    0    0  502  503 -0.00000000000E+00 -0.00000000000E+00 -0.46799153481E+02  0.46799153481E+02  0.00000000000E+00 0.  1.
         24    1    1    2    0    0  0.29748317470E+02 -0.34185106691E+02  0.45557278116E+03  0.46483046243E+03  0.80419002446E+02 0.  0.
          1    1    1    2  501    0  0.21377270890E+01  0.65311407716E+02  0.31917385743E+03  0.32579456890E+03  0.00000000000E+00 0. -1.
         -2    1    1    2    0  503 -0.31886044559E+02 -0.31126301025E+02 -0.26086098106E+02  0.51633816124E+02  0.00000000000E+00 0.  1.
<mgrwt>
<rscale>  2 0.10110713E+03</rscale>
<asrwt>0</asrwt>
<pdfrwt beam="1">  1       21 0.12237840E+00 0.10110713E+03</pdfrwt>
<pdfrwt beam="2">  1       21 0.71998704E-02 0.10110713E+03</pdfrwt>
<totfact> 0.76062075E+04</totfact>
</mgrwt>
</event>
<event>
 5    1  0.1745726E+000  0.7692766E+02  0.7546771E-02  0.1338004E+00
         21   -1    0    0  503  502  0.00000000000E+00  0.00000000000E+00  0.33294720360E+02  0.33294720360E+02  0.00000000000E+00 0. -1.
         21   -1    0    0  501  503 -0.00000000000E+00 -0.00000000000E+00 -0.35660986728E+03  0.35660986728E+03  0.00000000000E+00 0. -1.
         24    1    1    2    0    0  0.29058091192E+02 -0.17533275536E+02 -0.50792624502E+02  0.10098957903E+03  0.80419002446E+02 0. -1.
          1    1    1    2  501    0 -0.60328848147E+01  0.36340857580E+02 -0.24700100503E+03  0.24973295761E+03  0.00000000000E+00 0. -1.
         -2    1    1    2    0  502 -0.23025206377E+02 -0.18807582044E+02 -0.25521517388E+02  0.39182051003E+02  0.00000000000E+00 0.  1.
<mgrwt>
<rscale>  2 0.76927663E+02</rscale>
<asrwt>0</asrwt>
<pdfrwt beam="1">  1       21 0.51222645E-02 0.76927663E+02</pdfrwt>
<pdfrwt beam="2">  1       21 0.54863058E-01 0.76927663E+02</pdfrwt>
<totfact> 0.81013291E+05</totfact>
</mgrwt>
</event>
<event>
 5    1  0.1745726E+000  0.6466637E+02  0.7546771E-02  0.1379231E+00
         21   -1    0    0  503  502  0.00000000000E+00  0.00000000000E+00  0.14112013129E+03  0.14112013129E+03  0.00000000000E+00 0.  1.
         21   -1    0    0  501  503 -0.00000000000E+00 -0.00000000000E+00 -0.65614013051E+03  0.65614013051E+03  0.00000000000E+00 0. -1.
         24    1    1    2    0    0 -0.19565371312E+02  0.13271404635E+02 -0.40898581126E+02  0.93267592593E+02  0.80419002446E+02 0.  0.
          1    1    1    2  501    0  0.18545751968E+02  0.10770956323E+02 -0.58759970427E+03  0.58799096156E+03  0.00000000000E+00 0. -1.
         -2    1    1    2    0  502  0.10196193433E+01 -0.24042360958E+02  0.11347828617E+03  0.11600170765E+03  0.00000000000E+00 0.  1.
<mgrwt>
<rscale>  2 0.64666373E+02</rscale>
<asrwt>0</asrwt>
<pdfrwt beam="1">  1       21 0.21710789E-01 0.64666373E+02</pdfrwt>
<pdfrwt beam="2">  1       21 0.10094464E+00 0.64666373E+02</pdfrwt>
<totfact> 0.17844796E+04</totfact>
</mgrwt>
</event>
<event>
 5    1  0.1745726E+000  0.1655476E+03  0.7546771E-02  0.1182572E+00
         21   -1    0    0  501  502  0.00000000000E+00  0.00000000000E+00  0.15305468572E+04  0.15305468572E+04  0.00000000000E+00 0. -1.
         21   -1    0    0  502  503 -0.00000000000E+00 -0.00000000000E+00 -0.18950572910E+02  0.18950572910E+02  0.00000000000E+00 0. -1.
         24    1    1    2    0    0 -0.47522852959E+00 -0.15533899999E+03  0.69921042654E+03  0.72075853606E+03  0.80419002446E+02 0. -1.
          1    1    1    2  501    0  0.74514284368E+01  0.11454887902E+03  0.69157455968E+03  0.70103661892E+03  0.00000000000E+00 0. -1.
         -2    1    1    2    0  503 -0.69761999072E+01  0.40790120964E+02  0.12081129811E+03  0.12770227517E+03  0.00000000000E+00 0.  1.
<mgrwt>
<rscale>  2 0.16554760E+03</rscale>
<asrwt>0</asrwt>
<pdfrwt beam="1">  1       21 0.23546865E+00 0.16554760E+03</pdfrwt>
<pdfrwt beam="2">  1       21 0.29154740E-02 0.16554760E+03</pdfrwt>
<totfact> 0.54902191E+04</totfact>
</mgrwt>
</event>
<event>
 5    1  0.1745726E+000  0.8373660E+02  0.7546771E-02  0.1318770E+00
         21   -1    0    0  503  502  0.00000000000E+00  0.00000000000E+00  0.23309120033E+02  0.23309120033E+02  0.00000000000E+00 0.  1.
         21   -1    0    0  501  503 -0.00000000000E+00 -0.00000000000E+00 -0.30230990705E+03  0.30230990705E+03  0.00000000000E+00 0. -1.
         24    1    1    2    0    0  0.23400684247E+02 -0.46471394634E+02 -0.15694644995E+03  0.18386567556E+03  0.80419002446E+02 0.  1.
          1    1    1    2  501    0 -0.47733627265E+00  0.48660177359E+02 -0.89563310440E+02  0.10192952118E+03  0.00000000000E+00 0. -1.
         -2    1    1    2    0  502 -0.22923347974E+02 -0.21887827250E+01 -0.32491026629E+02  0.39823830347E+02  0.00000000000E+00 0.  1.
<mgrwt>
<rscale>  2 0.83736603E+02</rscale>
<asrwt>0</asrwt>
<pdfrwt beam="1">  1       21 0.35860183E-02 0.83736603E+02</pdfrwt>
<pdfrwt beam="2">  1       21 0.46509218E-01 0.83736603E+02</pdfrwt>
<totfact> 0.20450542E+06</totfact>
</mgrwt>
</event>
<event>
 5    1  0.1745726E+000  0.9393223E+02  0.7546771E-02  0.1293599E+00
         21   -1    0    0  503  502  0.00000000000E+00  0.00000000000E+00  0.29601380018E+02  0.29601380018E+02  0.00000000000E+00 0.  1.
         21   -1    0    0  501  503 -0.00000000000E+00 -0.00000000000E+00 -0.92071704585E+03  0.92071704585E+03  0.00000000000E+00 0.  1.
         24    1    1    2    0    0 -0.45398306082E+02 -0.61824235580E+02 -0.62069061797E+03  0.63056110052E+03  0.80419002446E+02 0.  1.
          1    1    1    2  501    0  0.14634719009E+02  0.21634557649E+02 -0.26780658098E+03  0.26907730097E+03  0.00000000000E+00 0. -1.
         -2    1    1    2    0  502  0.30763587073E+02  0.40189677931E+02 -0.26184668867E+01  0.50680024375E+02  0.00000000000E+00 0.  1.
<mgrwt>
<rscale>  2 0.93932233E+02</rscale>
<asrwt>0</asrwt>
<pdfrwt beam="1">  1       21 0.45540581E-02 0.93932233E+02</pdfrwt>
<pdfrwt beam="2">  1       21 0.14164879E+00 0.93932233E+02</pdfrwt>
<totfact> 0.11493773E+05</totfact>
</mgrwt>
</event>
<event>
 5    1  0.1745726E+000  0.8421927E+02  0.7546771E-02  0.1317487E+00
         21   -1    0    0  503  502  0.00000000000E+00  0.00000000000E+00  0.11221496366E+02  0.11221496366E+02  0.00000000000E+00 0. -1.
         21   -1    0    0  501  503 -0.00000000000E+00 -0.00000000000E+00 -0.88808287257E+03  0.88808287257E+03  0.00000000000E+00 0.  1.
         24    1    1    2    0    0 -0.16022966776E+02 -0.18675256202E+02 -0.29156209166E+03  0.30344879289E+03  0.80419002446E+02 0.  0.
          1    1    1    2  501    0  0.36302494021E+02  0.40607021108E+02 -0.53180010979E+03  0.53458222754E+03  0.00000000000E+00 0. -1.
         -2    1    1    2    0  502 -0.20279527245E+02 -0.21931764906E+02 -0.53499174758E+02  0.61273348504E+02  0.00000000000E+00 0.  1.
<mgrwt>
<rscale>  2 0.84219271E+02</rscale>
<asrwt>0</asrwt>
<pdfrwt beam="1">  1       21 0.17263844E-02 0.84219271E+02</pdfrwt>
<pdfrwt beam="2">  1       21 0.13662811E+00 0.84219271E+02</pdfrwt>
<totfact> 0.60866469E+05</totfact>
</mgrwt>
</event>
<event>
 5    1  0.1745726E+000  0.7880030E+02  0.7546771E-02  0.1332491E+00
         21   -1    0    0  501  502  0.00000000000E+00  0.00000000000E+00  0.10919703551E+03  0.10919703551E+03  0.00000000000E+00 0. -1.
         21   -1    0    0  502  503 -0.00000000000E+00 -0.00000000000E+00 -0.65443772424E+02  0.65443772424E+02  0.00000000000E+00 0.  1.
         24    1    1    2    0    0  0.91066569696E-01 -0.63465847596E+01  0.36871599757E+01  0.80753319030E+02  0.80419002446E+02 0.  1.
          1    1    1    2  501    0  0.29368387795E+02 -0.21497513973E+02  0.38990143195E+02  0.53337384403E+02  0.00000000000E+00 0. -1.
         -2    1    1    2    0  503 -0.29459454364E+02  0.27844098732E+02  0.10759599211E+01  0.40550104506E+02  0.00000000000E+00 0.  1.
<mgrwt>
<rscale>  2 0.78800301E+02</rscale>
<asrwt>0</asrwt>
<pdfrwt beam="1">  1       21 0.16799544E-01 0.78800301E+02</pdfrwt>
<pdfrwt beam="2">  1       21 0.10068273E-01 0.78800301E+02</pdfrwt>
<totfact> 0.24837604E+06</totfact>
</mgrwt>
</event>
<event>
 5    1  0.1745726E+000  0.8244928E+02  0.7546771E-02  0.1322241E+00
         21   -1    0    0  501  502  0.00000000000E+00  0.00000000000E+00  0.34756425924E+03  0.34756425924E+03  0.00000000000E+00 0.  1.
         21   -1    0    0  502  503 -0.00000000000E+00 -0.00000000000E+00 -0.20451346753E+02  0.20451346753E+02  0.00000000000E+00 0. -1.
         24    1    1    2    0    0 -0.15499543523E+02  0.57211909971E+01  0.17976721686E+03  0.19762701255E+03  0.80419002446E+02 0. -1.
          1    1    1    2  501    0  0.24297580434E+02  0.34182281544E+02  0.96053944799E+02  0.10481011925E+03  0.00000000000E+00 0. -1.
         -2    1    1    2    0  503 -0.87980369108E+01 -0.39903472541E+02  0.51291750822E+02  0.65578474187E+02  0.00000000000E+00 0.  1.
<mgrwt>
<rscale>  2 0.82449277E+02</rscale>
<asrwt>0</asrwt>
<pdfrwt beam="1">  1       21 0.53471420E-01 0.82449277E+02</pdfrwt>
<pdfrwt beam="2">  1       21 0.31463613E-02 0.82449277E+02</pdfrwt>
<totfact> 0.19041006E+06</totfact>
</mgrwt>
</event>
<event>
 5    1  0.1949089E+000  0.8734875E+02  0.7546771E-02  0.1309402E+00
         21   -1    0    0  503  502  0.00000000000E+00  0.00000000000E+00  0.13381654033E+03  0.13381654033E+03  0.00000000000E+00 0.  1.
         21   -1    0    0  501  503 -0.00000000000E+00 -0.00000000000E+00 -0.45341631600E+03  0.45341631600E+03  0.00000000000E+00 0. -1.
         24    1    1    2    0    0 -0.50910044701E+02 -0.20802668860E+02  0.25618886753E+02  0.10073791241E+03  0.80419002446E+02 0.  1.
          1    1    1    2  501    0  0.54340111291E+01  0.30326115836E+02 -0.40757176968E+03  0.40873457062E+03  0.00000000000E+00 0. -1.
         -2    1    1    2    0  502  0.45476033572E+02 -0.95234469759E+01  0.62353107261E+02  0.77760373307E+02  0.00000000000E+00 0.  1.
<mgrwt>
<rscale>  2 0.87348752E+02</rscale>
<asrwt>0</asrwt>
<pdfrwt beam="1">  1       21 0.20587160E-01 0.87348752E+02</pdfrwt>
<pdfrwt beam="2">  1       21 0.69756355E-01 0.87348752E+02</pdfrwt>
<totfact> 0.43499712E+04</totfact>
</mgrwt>
</event>
<event>
 5    1  0.1745726E+000  0.1378679E+03  0.7546771E-02  0.1216227E+00
         21   -1    0    0  503  502  0.00000000000E+00  0.00000000000E+00  0.38813100200E+03  0.38813100200E+03  0.00000000000E+00 0. -1.
         21   -1    0    0  501  503 -0.00000000000E+00 -0.00000000000E+00 -0.69995596704E+02  0.69995596704E+02  0.00000000000E+00 0.  1.
         24    1    1    2    0    0  0.14052850117E+02 -0.10962820504E+03  0.45920370679E+02  0.14419335052E+03  0.80419002446E+02 0.  1.
          1    1    1    2  501    0  0.16130568433E+02  0.10759577355E+03  0.13480381029E+03  0.17323138570E+03  0.00000000000E+00 0. -1.
         -2    1    1    2    0  502 -0.30183418550E+02  0.20324314883E+01  0.13741122433E+03  0.14070186248E+03  0.00000000000E+00 0.  1.
<mgrwt>
<rscale>  2 0.13786794E+03</rscale>
<asrwt>0</asrwt>
<pdfrwt beam="1">  1       21 0.59712461E-01 0.13786794E+03</pdfrwt>
<pdfrwt beam="2">  1       21 0.10768554E-01 0.13786794E+03</pdfrwt>
<totfact> 0.18936258E+05</totfact>
</mgrwt>
</event>
<event>
 5    1  0.1745726E+000  0.7312304E+02  0.7546771E-02  0.1349784E+00
         21   -1    0    0  501  502  0.00000000000E+00  0.00000000000E+00  0.15403688717E+02  0.15403688717E+02  0.00000000000E+00 0.  1.
         21   -1    0    0  502  503 -0.00000000000E+00 -0.00000000000E+00 -0.40982664646E+03  0.40982664646E+03  0.00000000000E+00 0. -1.
         24    1    1    2    0    0  0.34569138359E+01  0.35658038116E+02 -0.15331999062E+03  0.17679842028E+03  0.80419002446E+02 0.  0.
          1    1    1    2  501    0  0.21062215374E+02 -0.12560245938E+02 -0.73679559459E+02  0.77653423470E+02  0.00000000000E+00 0. -1.
         -2    1    1    2    0  503 -0.24519129210E+02 -0.23097792177E+02 -0.16742340766E+03  0.17077849142E+03  0.00000000000E+00 0.  1.
<mgrwt>
<rscale>  2 0.73123036E+02</rscale>
<asrwt>0</asrwt>
<pdfrwt beam="1">  1       21 0.23697987E-02 0.73123036E+02</pdfrwt>
<pdfrwt beam="2">  1       21 0.63050241E-01 0.73123036E+02</pdfrwt>
<totfact> 0.21247811E+06</totfact>
</mgrwt>
</event>
<event>
 5    1  0.1745726E+000  0.1733713E+03  0.7546771E-02  0.1174377E+00
         21   -1    0    0  501  502  0.00000000000E+00  0.00000000000E+00  0.10791691925E+04  0.10791691925E+04  0.00000000000E+00 0. -1.
         21   -1    0    0  502  503 -0.00000000000E+00 -0.00000000000E+00 -0.15070644862E+03  0.15070644862E+03  0.00000000000E+00 0. -1.
         24    1    1    2    0    0 -0.15614572317E+03 -0.23815737725E+02 -0.27021474023E+02  0.17929320188E+03  0.80419002446E+02 0. -1.
          1    1    1    2  501    0  0.14044662605E+03  0.40914220838E+02  0.99449049432E+03  0.10051918083E+04  0.00000000000E+00 0. -1.
         -2    1    1    2    0  503  0.15699097111E+02 -0.17098483113E+02 -0.39006276417E+02  0.45390630914E+02  0.00000000000E+00 0.  1.
<mgrwt>
<rscale>  2 0.17337127E+03</rscale>
<asrwt>0</asrwt>
<pdfrwt beam="1">  1       21 0.16602602E+00 0.17337127E+03</pdfrwt>
<pdfrwt beam="2">  1       21 0.23185608E-01 0.17337127E+03</pdfrwt>
<totfact> 0.40515844E+03</totfact>
</mgrwt>
</event>
<event>
 5    1  0.1745726E+000  0.9325381E+02  0.7546771E-02  0.1295158E+00
         21   -1    0    0  503  502  0.00000000000E+00  0.00000000000E+00  0.62104510130E+03  0.62104510130E+03  0.00000000000E+00 0. -1.
         21   -1    0    0  501  503 -0.00000000000E+00 -0.00000000000E+00 -0.15443924534E+02  0.15443924534E+02  0.00000000000E+00 0.  1.
         24    1    1    2    0    0 -0.45068837837E+02 -0.27123066322E+02  0.28588081614E+03  0.30159893545E+03  0.80419002446E+02 0.  1.
          1    1    1    2  501    0 -0.12216645177E+02  0.30674811385E+02  0.56111527014E+02  0.65105252758E+02  0.00000000000E+00 0. -1.
         -2    1    1    2    0  502  0.57285483014E+02 -0.35517450624E+01  0.26360883361E+03  0.26978483763E+03  0.00000000000E+00 0.  1.
<mgrwt>
<rscale>  2 0.93253810E+02</rscale>
<asrwt>0</asrwt>
<pdfrwt beam="1">  1       21 0.95545381E-01 0.93253810E+02</pdfrwt>
<pdfrwt beam="2">  1       21 0.23759889E-02 0.93253810E+02</pdfrwt>
<totfact> 0.85512835E+05</totfact>
</mgrwt>
</event>
<event>
 5    1  0.2543809E+000  0.8414278E+02  0.7546771E-02  0.1317690E+00
         21   -1    0    0  501  502  0.00000000000E+00  0.00000000000E+00  0.65641164307E+02  0.65641164307E+02  0.00000000000E+00 0. -1.
         21   -1    0    0  502  503 -0.00000000000E+00 -0.00000000000E+00 -0.11162123712E+04  0.11162123712E+04  0.00000000000E+00 0.  1.
         24    1    1    2    0    0  0.51409535784E+00  0.13070489409E+01 -0.81818515354E+00  0.80435427843E+02  0.80419002446E+02 0.  0.
          1    1    1    2  501    0 -0.42216181684E+02 -0.13642920570E+02  0.59999827539E+01  0.44769800879E+02  0.00000000000E+00 0. -1.
         -2    1    1    2    0  503  0.41702086327E+02  0.12335871629E+02 -0.10557530045E+04  0.10566483068E+04  0.00000000000E+00 0.  1.
<mgrwt>
<rscale>  2 0.84142777E+02</rscale>
<asrwt>0</asrwt>
<pdfrwt beam="1">  1       21 0.10098640E-01 0.84142777E+02</pdfrwt>
<pdfrwt beam="2">  1       21 0.17172499E+00 0.84142777E+02</pdfrwt>
<totfact> 0.18346885E+04</totfact>
</mgrwt>
</event>
<event>
 5    1  0.1745726E+000  0.1339067E+03  0.7546771E-02  0.1221771E+00
         21   -1    0    0  501  502  0.00000000000E+00  0.00000000000E+00  0.20672898166E+03  0.20672898166E+03  0.00000000000E+00 0.  1.
         21   -1    0    0  502  503 -0.00000000000E+00 -0.00000000000E+00 -0.97520484933E+02  0.97520484933E+02  0.00000000000E+00 0. -1.
         24    1    1    2    0    0  0.12071216896E+03 -0.15515955179E+02  0.10414912597E+03  0.17923846963E+03  0.80419002446E+02 0. -1.
          1    1    1    2  501    0 -0.32305203601E+02  0.75360123161E+01  0.13563175389E+02  0.35838211283E+02  0.00000000000E+00 0. -1.
         -2    1    1    2    0  503 -0.88406965359E+02  0.79799428631E+01 -0.85038046377E+01  0.89172785677E+02  0.00000000000E+00 0.  1.
<mgrwt>
<rscale>  2 0.13390675E+03</rscale>
<asrwt>0</asrwt>
<pdfrwt beam="1">  1       21 0.31804459E-01 0.13390675E+03</pdfrwt>
<pdfrwt beam="2">  1       21 0.15003152E-01 0.13390675E+03</pdfrwt>
<totfact> 0.37663034E+05</totfact>
</mgrwt>
</event>
<event>
 5    1  0.1745726E+000  0.6465462E+02  0.7546771E-02  0.1379275E+00
         21   -1    0    0  501  502  0.00000000000E+00  0.00000000000E+00  0.34379477609E+03  0.34379477609E+03  0.00000000000E+00 0. -1.
         21   -1    0    0  502  503 -0.00000000000E+00 -0.00000000000E+00 -0.57073874526E+02  0.57073874526E+02  0.00000000000E+00 0. -1.
         24    1    1    2    0    0 -0.91579783736E+01  0.27195103562E+01 -0.56402067837E+01  0.81180614628E+02  0.80419002446E+02 0. -1.
          1    1    1    2  501    0  0.19227527688E+02  0.17332449290E+02  0.29584979477E+03  0.29698015537E+03  0.00000000000E+00 0. -1.
         -2    1    1    2    0  503 -0.10069549314E+02 -0.20051959647E+02 -0.34886864227E+01  0.22707880615E+02  0.00000000000E+00 0.  1.
<mgrwt>
<rscale>  2 0.64654625E+02</rscale>
<asrwt>0</asrwt>
<pdfrwt beam="1">  1       21 0.52891503E-01 0.64654625E+02</pdfrwt>
<pdfrwt beam="2">  1       21 0.87805963E-02 0.64654625E+02</pdfrwt>
<totfact> 0.35281756E+05</totfact>
</mgrwt>
</event>
<event>
 5    1  0.1745726E+000  0.1132994E+03  0.7546771E-02  0.1254579E+00
         21   -1    0    0  503  502  0.00000000000E+00  0.00000000000E+00  0.20376417267E+02  0.20376417267E+02  0.00000000000E+00 0. -1.
         21   -1    0    0  501  503 -0.00000000000E+00 -0.00000000000E+00 -0.65605128440E+03  0.65605128440E+03  0.00000000000E+00 0.  1.
         24    1    1    2    0    0  0.41184054478E+01 -0.77990300850E+02 -0.28571498393E+03  0.30691972287E+03  0.80419002446E+02 0. -1.
          1    1    1    2  501    0  0.31586434402E+02  0.33580860946E+01 -0.14583231296E+03  0.14925160998E+03  0.00000000000E+00 0. -1.
         -2    1    1    2    0  502 -0.35704839850E+02  0.74632214755E+02 -0.20412757024E+03  0.22025636881E+03  0.00000000000E+00 0.  1.
<mgrwt>
<rscale>  2 0.11329945E+03</rscale>
<asrwt>0</asrwt>
<pdfrwt beam="1">  1       21 0.31348330E-02 0.11329945E+03</pdfrwt>
<pdfrwt beam="2">  1       21 0.10093098E+00 0.11329945E+03</pdfrwt>
<totfact> 0.47950274E+05</totfact>
</mgrwt>
</event>
<event>
 5    1  0.1745726E+000  0.2010740E+03  0.7546771E-02  0.1148836E+00
         21   -1    0    0  503  502  0.00000000000E+00  0.00000000000E+00  0.53377563224E+03  0.53377563224E+03  0.00000000000E+00 0. -1.
         21   -1    0    0  501  503 -0.00000000000E+00 -0.00000000000E+00 -0.88827677037E+02  0.88827677037E+02  0.00000000000E+00 0. -1.
         24    1    1    2    0    0  0.43529590379E+02 -0.18481263354E+03  0.11031578823E+03  0.23385321003E+03  0.80419002446E+02 0. -1.
          1    1    1    2  501    0 -0.68525437086E+01  0.12889304245E+03  0.19383876664E+03  0.23288160340E+03  0.00000000000E+00 0. -1.
         -2    1    1    2    0  502 -0.36677046671E+02  0.55919591093E+02  0.14079340033E+03  0.15586849585E+03  0.00000000000E+00 0.  1.
<mgrwt>
<rscale>  2 0.20107398E+03</rscale>
<asrwt>0</asrwt>
<pdfrwt beam="1">  1       21 0.82119326E-01 0.20107398E+03</pdfrwt>
<pdfrwt beam="2">  1       21 0.13665797E-01 0.20107398E+03</pdfrwt>
<totfact> 0.59968569E+04</totfact>
</mgrwt>
</event>
<event>
 5    1  0.1745726E+000  0.7447377E+02  0.7546771E-02  0.1345508E+00
         21   -1    0    0  503  502  0.00000000000E+00  0.00000000000E+00  0.29238792375E+03  0.29238792375E+03  0.00000000000E+00 0.  1.
         21   -1    0    0  501  503 -0.00000000000E+00 -0.00000000000E+00 -0.21806431932E+02  0.21806431932E+02  0.00000000000E+00 0.  1.
         24    1    1    2    0    0 -0.12373256216E+02 -0.20686651955E+02  0.10352422445E+03  0.13328734388E+03  0.80419002446E+02 0.  1.
          1    1    1    2  501    0 -0.22624129158E+02 -0.28719837926E+01  0.31174423481E+02  0.38625693397E+02  0.00000000000E+00 0. -1.
         -2    1    1    2    0  502  0.34997385374E+02  0.23558635748E+02  0.13588284389E+03  0.14228131840E+03  0.00000000000E+00 0.  1.
<mgrwt>
<rscale>  2 0.74473770E+02</rscale>
<asrwt>0</asrwt>
<pdfrwt beam="1">  1       21 0.44982755E-01 0.74473770E+02</pdfrwt>
<pdfrwt beam="2">  1       21 0.33548359E-02 0.74473770E+02</pdfrwt>
<totfact> 0.24255338E+06</totfact>
</mgrwt>
</event>
<event>
 5    1  0.1745726E+000  0.9379152E+02  0.7546771E-02  0.1293921E+00
         21   -1    0    0  503  502  0.00000000000E+00  0.00000000000E+00  0.33386740752E+03  0.33386740752E+03  0.00000000000E+00 0.  1.
         21   -1    0    0  501  503 -0.00000000000E+00 -0.00000000000E+00 -0.27710182681E+02  0.27710182681E+02  0.00000000000E+00 0. -1.
         24    1    1    2    0    0 -0.42759357528E+01  0.21895415121E+02  0.13678178923E+03  0.16023160316E+03  0.80419002446E+02 0.  1.
          1    1    1    2  501    0  0.50447429978E+02 -0.27766002846E+02  0.63669216421E+02  0.85846742659E+02  0.00000000000E+00 0. -1.
         -2    1    1    2    0  502 -0.46171494226E+02  0.58705877251E+01  0.10570621918E+03  0.11549924438E+03  0.00000000000E+00 0.  1.
<mgrwt>
<rscale>  2 0.93791521E+02</rscale>
<asrwt>0</asrwt>
<pdfrwt beam="1">  1       21 0.51364214E-01 0.93791521E+02</pdfrwt>
<pdfrwt beam="2">  1       21 0.42631053E-02 0.93791521E+02</pdfrwt>
<totfact> 0.12618738E+06</totfact>
</mgrwt>
</event>
<event>
 5    1  0.1745726E+000  0.6844120E+02  0.7546771E-02  0.1365476E+00
         21   -1    0    0  503  502  0.00000000000E+00  0.00000000000E+00  0.88602716689E+02  0.88602716689E+02  0.00000000000E+00 0.  1.
         21   -1    0    0  501  503 -0.00000000000E+00 -0.00000000000E+00 -0.14727191651E+03  0.14727191651E+03  0.00000000000E+00 0.  1.
         24    1    1    2    0    0 -0.10430199981E+02  0.11658673181E+02 -0.10918124780E+03  0.13650082255E+03  0.80419002446E+02 0.  1.
          1    1    1    2  501    0 -0.20087957964E+02  0.42614260252E+01 -0.14958966784E+02  0.25405835830E+02  0.00000000000E+00 0. -1.
         -2    1    1    2    0  502  0.30518157945E+02 -0.15920099207E+02  0.65471014768E+02  0.73967974812E+02  0.00000000000E+00 0.  1.
<mgrwt>
<rscale>  2 0.68441195E+02</rscale>
<asrwt>0</asrwt>
<pdfrwt beam="1">  1       21 0.13631187E-01 0.68441195E+02</pdfrwt>
<pdfrwt beam="2">  1       21 0.22657218E-01 0.68441195E+02</pdfrwt>
<totfact> 0.84675633E+05</totfact>
</mgrwt>
</event>
<event>
 5    1  0.1745726E+000  0.1192841E+03  0.7546771E-02  0.1244283E+00
         21   -1    0    0  503  502  0.00000000000E+00  0.00000000000E+00  0.15066242344E+02  0.15066242344E+02  0.00000000000E+00 0.  1.
         21   -1    0    0  501  503 -0.00000000000E+00 -0.00000000000E+00 -0.11589401040E+04  0.11589401040E+04  0.00000000000E+00 0. -1.
         24    1    1    2    0    0 -0.94071076133E+02 -0.19160046748E+02 -0.81532698235E+03  0.82488894941E+03  0.80419002446E+02 0. -1.
          1    1    1    2  501    0  0.10998971544E+01  0.20325346622E+02 -0.10586085376E+03  0.10780004568E+03  0.00000000000E+00 0. -1.
         -2    1    1    2    0  502  0.92971178979E+02 -0.11652998743E+01 -0.22268602555E+03  0.24131735126E+03  0.00000000000E+00 0.  1.
<mgrwt>
<rscale>  2 0.11928405E+03</rscale>
<asrwt>0</asrwt>
<pdfrwt beam="1">  1       21 0.23178822E-02 0.11928405E+03</pdfrwt>
<pdfrwt beam="2">  1       21 0.17829857E+00 0.11928405E+03</pdfrwt>
<totfact> 0.18730973E+05</totfact>
</mgrwt>
</event>
<event>
 5    1  0.1745726E+000  0.6566945E+02  0.7546771E-02  0.1375471E+00
         21   -1    0    0  501  502  0.00000000000E+00  0.00000000000E+00  0.17219117286E+03  0.17219117286E+03  0.00000000000E+00 0.  1.
         21   -1    0    0  502  503 -0.00000000000E+00 -0.00000000000E+00 -0.29104051137E+02  0.29104051137E+02  0.00000000000E+00 0. -1.
         24    1    1    2    0    0 -0.56096512443E+01 -0.71765928181E+01  0.91429782877E+02  0.12210484357E+03  0.80419002446E+02 0.  1.
          1    1    1    2  501    0 -0.36448892669E+01 -0.20707546193E+02  0.44097386914E+02  0.48853528222E+02  0.00000000000E+00 0. -1.
         -2    1    1    2    0  503  0.92545405112E+01  0.27884139011E+02  0.75599519301E+01  0.30336852204E+02  0.00000000000E+00 0.  1.
<mgrwt>
<rscale>  2 0.65669448E+02</rscale>
<asrwt>0</asrwt>
<pdfrwt beam="1">  1       21 0.26490949E-01 0.65669448E+02</pdfrwt>
<pdfrwt beam="2">  1       21 0.44775464E-02 0.65669448E+02</pdfrwt>
<totfact> 0.41706863E+06</totfact>
</mgrwt>
</event>
<event>
 5    1  0.1745726E+000  0.9967460E+02  0.7546771E-02  0.1280982E+00
         21   -1    0    0  503  502  0.00000000000E+00  0.00000000000E+00  0.46500509604E+02  0.46500509604E+02  0.00000000000E+00 0.  1.
         21   -1    0    0  501  503 -0.00000000000E+00 -0.00000000000E+00 -0.54080475290E+03  0.54080475290E+03  0.00000000000E+00 0. -1.
         24    1    1    2    0    0 -0.11102294752E+02  0.21406277648E+02 -0.23658250878E+03  0.25103782401E+03  0.80419002446E+02 0.  0.
          1    1    1    2  501    0 -0.82583509646E+01 -0.66137611493E+02 -0.27620960705E+03  0.28413752135E+03  0.00000000000E+00 0. -1.
         -2    1    1    2    0  502  0.19360645716E+02  0.44731333845E+02  0.18487872530E+02  0.52129917137E+02  0.00000000000E+00 0.  1.
<mgrwt>
<rscale>  2 0.99674605E+02</rscale>
<asrwt>0</asrwt>
<pdfrwt beam="1">  1       21 0.71539241E-02 0.99674605E+02</pdfrwt>
<pdfrwt beam="2">  1       21 0.83200737E-01 0.99674605E+02</pdfrwt>
<totfact> 0.18882365E+05</totfact>
</mgrwt>
</event>
<event>
 5    1  0.2135979E+000  0.9076108E+02  0.7546771E-02  0.1301019E+00
         21   -1    0    0  503  502  0.00000000000E+00  0.00000000000E+00  0.36800513086E+02  0.36800513086E+02  0.00000000000E+00 0. -1.
         21   -1    0    0  501  503 -0.00000000000E+00 -0.00000000000E+00 -0.12995519778E+04  0.12995519778E+04  0.00000000000E+00 0. -1.
         24    1    1    2    0    0 -0.35645239504E+02 -0.62614801022E+02 -0.60771330820E+02  0.12390144071E+03  0.80419002446E+02 0. -1.
          1    1    1    2  501    0  0.17370441906E+02  0.44701677591E+02 -0.11722243502E+04  0.11732049691E+04  0.00000000000E+00 0. -1.
         -2    1    1    2    0  502  0.18274797598E+02  0.17913123431E+02 -0.29755783634E+02  0.39246081052E+02  0.00000000000E+00 0.  1.
<mgrwt>
<rscale>  2 0.90761078E+02</rscale>
<asrwt>0</asrwt>
<pdfrwt beam="1">  1       21 0.56616161E-02 0.90761078E+02</pdfrwt>
<pdfrwt beam="2">  1       21 0.19993112E+00 0.90761078E+02</pdfrwt>
<totfact> 0.32068654E+04</totfact>
</mgrwt>
</event>
<event>
 5    1  0.1745726E+000  0.8885476E+02  0.7546771E-02  0.1305649E+00
         21   -1    0    0  503  502  0.00000000000E+00  0.00000000000E+00  0.36180155270E+02  0.36180155270E+02  0.00000000000E+00 0.  1.
         21   -1    0    0  501  503 -0.00000000000E+00 -0.00000000000E+00 -0.14394058447E+04  0.14394058447E+04  0.00000000000E+00 0.  1.
         24    1    1    2    0    0 -0.62837852095E+02  0.14439688666E+02 -0.12572413481E+04  0.12614595212E+04  0.80419002446E+02 0.  1.
          1    1    1    2  501    0  0.16684217039E+02  0.12812566323E+02 -0.15783700890E+03  0.15923267985E+03  0.00000000000E+00 0. -1.
         -2    1    1    2    0  502  0.46153635056E+02 -0.27252254989E+02  0.11852667584E+02  0.54893798919E+02  0.00000000000E+00 0.  1.
<mgrwt>
<rscale>  2 0.88854757E+02</rscale>
<asrwt>0</asrwt>
<pdfrwt beam="1">  1       21 0.55661783E-02 0.88854757E+02</pdfrwt>
<pdfrwt beam="2">  1       21 0.22144703E+00 0.88854757E+02</pdfrwt>
<totfact> 0.24580907E+04</totfact>
</mgrwt>
</event>
<event>
 5    1  0.1745726E+000  0.1269674E+03  0.7546771E-02  0.1232026E+00
         21   -1    0    0  503  502  0.00000000000E+00  0.00000000000E+00  0.93126376870E+02  0.93126376870E+02  0.00000000000E+00 0. -1.
         21   -1    0    0  501  503 -0.00000000000E+00 -0.00000000000E+00 -0.18892413969E+03  0.18892413969E+03  0.00000000000E+00 0. -1.
         24    1    1    2    0    0 -0.65245477857E+02  0.59724570215E+02 -0.31389125051E+02  0.12359809786E+03  0.80419002446E+02 0. -1.
          1    1    1    2  501    0  0.92783531922E+02 -0.47917358540E+02 -0.72846680661E+02  0.12732437288E+03  0.00000000000E+00 0. -1.
         -2    1    1    2    0  502 -0.27538054065E+02 -0.11807211675E+02  0.84380428888E+01  0.31128045827E+02  0.00000000000E+00 0.  1.
<mgrwt>
<rscale>  2 0.12696737E+03</rscale>
<asrwt>0</asrwt>
<pdfrwt beam="1">  1       21 0.14327135E-01 0.12696737E+03</pdfrwt>
<pdfrwt beam="2">  1       21 0.29065252E-01 0.12696737E+03</pdfrwt>
<totfact> 0.48735872E+05</totfact>
</mgrwt>
</event>
<event>
 5    1  0.1745726E+000  0.8346539E+02  0.7546771E-02  0.1319495E+00
         21   -1    0    0  501  502  0.00000000000E+00  0.00000000000E+00  0.16990380383E+03  0.16990380383E+03  0.00000000000E+00 0.  1.
         21   -1    0    0  502  503 -0.00000000000E+00 -0.00000000000E+00 -0.99456507154E+02  0.99456507154E+02  0.00000000000E+00 0.  1.
         24    1    1    2    0    0 -0.54108332807E+02 -0.32493469242E+02  0.10734264863E+03  0.14823359064E+03  0.80419002446E+02 0.  1.
          1    1    1    2  501    0  0.39973568229E+02  0.16199295584E+02  0.28878336203E+02  0.51906277427E+02  0.00000000000E+00 0. -1.
         -2    1    1    2    0  503  0.14134764578E+02  0.16294173658E+02 -0.65773688158E+02  0.69220442926E+02  0.00000000000E+00 0.  1.
<mgrwt>
<rscale>  2 0.83465390E+02</rscale>
<asrwt>0</asrwt>
<pdfrwt beam="1">  1       21 0.26139047E-01 0.83465390E+02</pdfrwt>
<pdfrwt beam="2">  1       21 0.15301001E-01 0.83465390E+02</pdfrwt>
<totfact> 0.53069699E+05</totfact>
</mgrwt>
</event>
<event>
 5    1  0.1745726E+000  0.7572203E+02  0.7546771E-02  0.1341650E+00
         21   -1    0    0  501  502  0.00000000000E+00  0.00000000000E+00  0.41403425994E+02  0.41403425994E+02  0.00000000000E+00 0. -1.
         21   -1    0    0  502  503 -0.00000000000E+00 -0.00000000000E+00 -0.32874411426E+03  0.32874411426E+03  0.00000000000E+00 0. -1.
         24    1    1    2    0    0  0.30373585857E+02 -0.27400216403E+02 -0.20965767623E+03  0.22824741780E+03  0.80419002446E+02 0. -1.
          1    1    1    2  501    0 -0.90149433211E+01  0.36796687763E+02  0.19041359871E+02  0.42400929461E+02  0.00000000000E+00 0. -1.
         -2    1    1    2    0  503 -0.21358642536E+02 -0.93964713594E+01 -0.96724371914E+02  0.99499192997E+02  0.00000000000E+00 0.  1.
<mgrwt>
<rscale>  2 0.75722030E+02</rscale>
<asrwt>0</asrwt>
<pdfrwt beam="1">  1       21 0.63697579E-02 0.75722030E+02</pdfrwt>
<pdfrwt beam="2">  1       21 0.50576017E-01 0.75722030E+02</pdfrwt>
<totfact> 0.66516040E+05</totfact>
</mgrwt>
</event>
<event>
 5    1  0.1745726E+000  0.1129546E+03  0.7546771E-02  0.1255194E+00
         21   -1    0    0  501  502  0.00000000000E+00  0.00000000000E+00  0.52549118053E+03  0.52549118053E+03  0.00000000000E+00 0.  1.
         21   -1    0    0  502  503 -0.00000000000E+00 -0.00000000000E+00 -0.26398561334E+02  0.26398561334E+02  0.00000000000E+00 0.  1.
         24    1    1    2    0    0  0.85822236953E+02 -0.26827899446E+02  0.19254882961E+03  0.22721676937E+03  0.80419002446E+02 0.  1.
          1    1    1    2  501    0 -0.42686896479E+02 -0.14946399151E+02  0.16090808924E+03  0.16714358846E+03  0.00000000000E+00 0. -1.
         -2    1    1    2    0  503 -0.43135340473E+02  0.41774298597E+02  0.14563570034E+03  0.15752938404E+03  0.00000000000E+00 0.  1.
<mgrwt>
<rscale>  2 0.11295460E+03</rscale>
<asrwt>0</asrwt>
<pdfrwt beam="1">  1       21 0.80844789E-01 0.11295460E+03</pdfrwt>
<pdfrwt beam="2">  1       21 0.40613175E-02 0.11295460E+03</pdfrwt>
<totfact> 0.51914857E+05</totfact>
</mgrwt>
</event>
<event>
 5    1  0.1745726E+000  0.9283936E+02  0.7546771E-02  0.1296118E+00
         21   -1    0    0  503  502  0.00000000000E+00  0.00000000000E+00  0.15917360849E+03  0.15917360849E+03  0.00000000000E+00 0.  1.
         21   -1    0    0  501  503 -0.00000000000E+00 -0.00000000000E+00 -0.22993482457E+03  0.22993482457E+03  0.00000000000E+00 0. -1.
         24    1    1    2    0    0 -0.52658168044E+02 -0.25452827145E+02 -0.87347523507E+02  0.13235382461E+03  0.80419002446E+02 0.  1.
          1    1    1    2  501    0  0.16133830961E+02 -0.21420788156E+02 -0.11196583030E+03  0.11513252287E+03  0.00000000000E+00 0. -1.
         -2    1    1    2    0  502  0.36524337083E+02  0.46873615301E+02  0.12855213772E+03  0.14162208558E+03  0.00000000000E+00 0.  1.
<mgrwt>
<rscale>  2 0.92839361E+02</rscale>
<asrwt>0</asrwt>
<pdfrwt beam="1">  1       21 0.24488247E-01 0.92839361E+02</pdfrwt>
<pdfrwt beam="2">  1       21 0.35374589E-01 0.92839361E+02</pdfrwt>
<totfact> 0.12594761E+05</totfact>
</mgrwt>
</event>
<event>
 5    1  0.1745726E+000  0.8574549E+02  0.7546771E-02  0.1313494E+00
         21   -1    0    0  503  502  0.00000000000E+00  0.00000000000E+00  0.23967719829E+03  0.23967719829E+03  0.00000000000E+00 0.  1.
         21   -1    0    0  501  503 -0.00000000000E+00 -0.00000000000E+00 -0.46805581070E+02  0.46805581070E+02  0.00000000000E+00 0. -1.
         24    1    1    2    0    0  0.11464176110E+02  0.95455060453E+01  0.56335178668E+02  0.99314713560E+02  0.80419002446E+02 0. -1.
          1    1    1    2  501    0 -0.13408446565E+02 -0.48692436497E+02  0.59831242617E+01  0.50858013993E+02  0.00000000000E+00 0. -1.
         -2    1    1    2    0  502  0.19442704549E+01  0.39146930452E+02  0.13055331429E+03  0.13631005181E+03  0.00000000000E+00 0.  1.
<mgrwt>
<rscale>  2 0.85745493E+02</rscale>
<asrwt>0</asrwt>
<pdfrwt beam="1">  1       21 0.36873415E-01 0.85745493E+02</pdfrwt>
<pdfrwt beam="2">  1       21 0.72008587E-02 0.85745493E+02</pdfrwt>
<totfact> 0.10173225E+06</totfact>
</mgrwt>
</event>
<event>
 5    1  0.1745726E+000  0.7358757E+02  0.7546771E-02  0.1348301E+00
         21   -1    0    0  503  502  0.00000000000E+00  0.00000000000E+00  0.77869805473E+03  0.77869805473E+03  0.00000000000E+00 0. -1.
         21   -1    0    0  501  503 -0.00000000000E+00 -0.00000000000E+00 -0.32512160172E+02  0.32512160172E+02  0.00000000000E+00 0. -1.
         24    1    1    2    0    0 -0.44941805974E+02  0.15348031776E+00  0.74795831813E+03  0.75361041068E+03  0.80419002446E+02 0. -1.
          1    1    1    2  501    0  0.22062358841E+02 -0.15970152041E+02 -0.93084720590E+01  0.28782652518E+02  0.00000000000E+00 0. -1.
         -2    1    1    2    0  502  0.22879447132E+02  0.15816671724E+02  0.75360484935E+01  0.28817151705E+02  0.00000000000E+00 0.  1.
<mgrwt>
<rscale>  2 0.73587573E+02</rscale>
<asrwt>0</asrwt>
<pdfrwt beam="1">  1       21 0.11979969E+00 0.73587573E+02</pdfrwt>
<pdfrwt beam="2">  1       21 0.50018714E-02 0.73587573E+02</pdfrwt>
<totfact> 0.15015252E+05</totfact>
</mgrwt>
</event>
<event>
 5    1  0.1745726E+000  0.7060635E+02  0.7546771E-02  0.1358043E+00
         21   -1    0    0  501  502  0.00000000000E+00  0.00000000000E+00  0.53366064681E+03  0.53366064681E+03  0.00000000000E+00 0. -1.
         21   -1    0    0  502  503 -0.00000000000E+00 -0.00000000000E+00 -0.12703799614E+02  0.12703799614E+02  0.00000000000E+00 0.  1.
         24    1    1    2    0    0  0.12429103049E+02 -0.11350706712E+02  0.22313042515E+03  0.23777662570E+03  0.80419002446E+02 0.  0.
          1    1    1    2  501    0 -0.29038558832E+02 -0.11131387529E+02  0.25836282035E+03  0.26022777067E+03  0.00000000000E+00 0. -1.
         -2    1    1    2    0  503  0.16609455784E+02  0.22482094241E+02  0.39463601690E+02  0.48360050054E+02  0.00000000000E+00 0.  1.
<mgrwt>
<rscale>  2 0.70606347E+02</rscale>
<asrwt>0</asrwt>
<pdfrwt beam="1">  1       21 0.82101621E-01 0.70606347E+02</pdfrwt>
<pdfrwt beam="2">  1       21 0.19544311E-02 0.70606347E+02</pdfrwt>
<totfact> 0.16345944E+06</totfact>
</mgrwt>
</event>
<event>
 5    1  0.1745726E+000  0.6548376E+02  0.7546771E-02  0.1376161E+00
         21   -1    0    0  503  502  0.00000000000E+00  0.00000000000E+00  0.16343720974E+03  0.16343720974E+03  0.00000000000E+00 0. -1.
         21   -1    0    0  501  503 -0.00000000000E+00 -0.00000000000E+00 -0.27223343530E+02  0.27223343530E+02  0.00000000000E+00 0.  1.
         24    1    1    2    0    0  0.14572338473E+02 -0.35225111640E+02  0.75011853735E+02  0.11639224929E+03  0.80419002446E+02 0.  1.
          1    1    1    2  501    0 -0.15105516464E+02  0.13559003024E+02  0.27027710252E+02  0.33801188028E+02  0.00000000000E+00 0. -1.
         -2    1    1    2    0  502  0.53317799127E+00  0.21666108616E+02  0.34174302221E+02  0.40467115954E+02  0.00000000000E+00 0.  1.
<mgrwt>
<rscale>  2 0.65483763E+02</rscale>
<asrwt>0</asrwt>
<pdfrwt beam="1">  1       21 0.25144186E-01 0.65483763E+02</pdfrwt>
<pdfrwt beam="2">  1       21 0.41882068E-02 0.65483763E+02</pdfrwt>
<totfact> 0.51259214E+06</totfact>
</mgrwt>
</event>
<event>
 5    1  0.1745726E+000  0.6589487E+02  0.7546771E-02  0.1374637E+00
         21   -1    0    0  501  502  0.00000000000E+00  0.00000000000E+00  0.68194349196E+02  0.68194349196E+02  0.00000000000E+00 0. -1.
         21   -1    0    0  502  503 -0.00000000000E+00 -0.00000000000E+00 -0.64083571696E+02  0.64083571696E+02  0.00000000000E+00 0.  1.
         24    1    1    2    0    0 -0.62541554630E+01 -0.10199989329E+02 -0.95574393447E+00  0.81309800416E+02  0.80419002446E+02 0.  0.
          1    1    1    2  501    0  0.15080659778E+02 -0.16506518717E+02  0.46556129935E+01  0.22837823710E+02  0.00000000000E+00 0. -1.
         -2    1    1    2    0  503 -0.88265043146E+01  0.26706508046E+02  0.41090844079E+00  0.28130296766E+02  0.00000000000E+00 0.  1.
<mgrwt>
<rscale>  2 0.65894866E+02</rscale>
<asrwt>0</asrwt>
<pdfrwt beam="1">  1       21 0.10491438E-01 0.65894866E+02</pdfrwt>
<pdfrwt beam="2">  1       21 0.98590110E-02 0.65894866E+02</pdfrwt>
<totfact> 0.58185923E+06</totfact>
</mgrwt>
</event>
<event>
 5    1  0.1745726E+000  0.1030086E+03  0.7546771E-02  0.1274094E+00
         21   -1    0    0  501  502  0.00000000000E+00  0.00000000000E+00  0.11906495110E+03  0.11906495110E+03  0.00000000000E+00 0. -1.
         21   -1    0    0  502  503 -0.00000000000E+00 -0.00000000000E+00 -0.15501823744E+04  0.15501823744E+04  0.00000000000E+00 0.  1.
         24    1    1    2    0    0  0.44712620345E+02  0.23012522884E+02 -0.78911220615E+03  0.79479184978E+03  0.80419002446E+02 0.  0.
          1    1    1    2  501    0 -0.94890305586E+01  0.38844660107E+02  0.11105700263E+03  0.11803646536E+03  0.00000000000E+00 0. -1.
         -2    1    1    2    0  503 -0.35223589787E+02 -0.61857182991E+02 -0.75306221975E+03  0.75641901033E+03  0.00000000000E+00 0.  1.
<mgrwt>
<rscale>  2 0.10300856E+03</rscale>
<asrwt>0</asrwt>
<pdfrwt beam="1">  1       21 0.18317685E-01 0.10300856E+03</pdfrwt>
<pdfrwt beam="2">  1       21 0.23848959E+00 0.10300856E+03</pdfrwt>
<totfact> 0.24042436E+03</totfact>
</mgrwt>
</event>
<event>
 5    1  0.1745726E+000  0.1259749E+03  0.7546771E-02  0.1233554E+00
         21   -1    0    0  501  502  0.00000000000E+00  0.00000000000E+00  0.24314564130E+03  0.24314564130E+03  0.00000000000E+00 0. -1.
         21   -1    0    0  502  503 -0.00000000000E+00 -0.00000000000E+00 -0.13589286104E+03  0.13589286104E+03  0.00000000000E+00 0.  1.
         24    1    1    2    0    0 -0.14302464627E+02 -0.74403571061E+02  0.18468582508E+01  0.11050374980E+03  0.80419002446E+02 0.  1.
          1    1    1    2  501    0 -0.50908768416E+02  0.14552709951E+02  0.15727132562E+03  0.16594503286E+03  0.00000000000E+00 0. -1.
         -2    1    1    2    0  503  0.65211233044E+02  0.59850861110E+02 -0.51865403615E+02  0.10258971967E+03  0.00000000000E+00 0.  1.
<mgrwt>
<rscale>  2 0.12597485E+03</rscale>
<asrwt>0</asrwt>
<pdfrwt beam="1">  1       21 0.37407022E-01 0.12597485E+03</pdfrwt>
<pdfrwt beam="2">  1       21 0.20906594E-01 0.12597485E+03</pdfrwt>
<totfact> 0.14959593E+05</totfact>
</mgrwt>
</event>
<event>
 5    1  0.1745726E+000  0.8093377E+02  0.7546771E-02  0.1326422E+00
         21   -1    0    0  503  502  0.00000000000E+00  0.00000000000E+00  0.13971174633E+02  0.13971174633E+02  0.00000000000E+00 0.  1.
         21   -1    0    0  501  503 -0.00000000000E+00 -0.00000000000E+00 -0.14931139920E+04  0.14931139920E+04  0.00000000000E+00 0.  1.
         24    1    1    2    0    0  0.54179931006E+02 -0.21762411365E+02 -0.12529418049E+04  0.12568768635E+04  0.80419002446E+02 0.  1.
          1    1    1    2  501    0 -0.23857987696E+02 -0.20323929912E+01 -0.20465558816E+03  0.20605155656E+03  0.00000000000E+00 0. -1.
         -2    1    1    2    0  502 -0.30321943311E+02  0.23794804356E+02 -0.21545424258E+02  0.44156746562E+02  0.00000000000E+00 0.  1.
<mgrwt>
<rscale>  2 0.80933770E+02</rscale>
<asrwt>0</asrwt>
<pdfrwt beam="1">  1       21 0.21494124E-02 0.80933770E+02</pdfrwt>
<pdfrwt beam="2">  1       21 0.22970974E+00 0.80933770E+02</pdfrwt>
<totfact> 0.10538244E+05</totfact>
</mgrwt>
</event>
<event>
 5    1  0.1745726E+000  0.7478100E+02  0.7546771E-02  0.1344551E+00
         21   -1    0    0  503  502  0.00000000000E+00  0.00000000000E+00  0.46556681071E+03  0.46556681071E+03  0.00000000000E+00 0. -1.
         21   -1    0    0  501  503 -0.00000000000E+00 -0.00000000000E+00 -0.37481000864E+02  0.37481000864E+02  0.00000000000E+00 0. -1.
         24    1    1    2    0    0  0.13845824837E+02 -0.29273249384E+02  0.34452833583E+03  0.35526837762E+03  0.80419002446E+02 0. -1.
          1    1    1    2  501    0  0.19485878506E+02  0.20747373782E+02 -0.22499249974E+02  0.36281803006E+02  0.00000000000E+00 0. -1.
         -2    1    1    2    0  502 -0.33331703343E+02  0.85258756019E+01  0.10605672399E+03  0.11149763094E+03  0.00000000000E+00 0.  1.
<mgrwt>
<rscale>  2 0.74781002E+02</rscale>
<asrwt>0</asrwt>
<pdfrwt beam="1">  1       21 0.71625659E-01 0.74781002E+02</pdfrwt>
<pdfrwt beam="2">  1       21 0.57663082E-02 0.74781002E+02</pdfrwt>
<totfact> 0.37943420E+05</totfact>
</mgrwt>
</event>
<event>
 5    1  0.1745726E+000  0.1131016E+03  0.7546771E-02  0.1254932E+00
         21   -1    0    0  503  502  0.00000000000E+00  0.00000000000E+00  0.22719912737E+02  0.22719912737E+02  0.00000000000E+00 0.  1.
         21   -1    0    0  501  503 -0.00000000000E+00 -0.00000000000E+00 -0.94079380558E+03  0.94079380558E+03  0.00000000000E+00 0.  1.
         24    1    1    2    0    0  0.52258725878E+02 -0.78558044575E+02 -0.54998234761E+03  0.56378199637E+03  0.80419002446E+02 0.  1.
          1    1    1    2  501    0  0.69233018572E+00  0.31145977976E+02 -0.29896690289E+03  0.30058569541E+03  0.00000000000E+00 0. -1.
         -2    1    1    2    0  502 -0.52951056064E+02  0.47412066599E+02 -0.69124642350E+02  0.99146026534E+02  0.00000000000E+00 0.  1.
<mgrwt>
<rscale>  2 0.11310156E+03</rscale>
<asrwt>0</asrwt>
<pdfrwt beam="1">  1       21 0.34953713E-02 0.11310156E+03</pdfrwt>
<pdfrwt beam="2">  1       21 0.14473751E+00 0.11310156E+03</pdfrwt>
<totfact> 0.16668539E+05</totfact>
</mgrwt>
</event>
<event>
 5    1  0.1745726E+000  0.1232638E+03  0.7546771E-02  0.1237808E+00
         21   -1    0    0  501  502  0.00000000000E+00  0.00000000000E+00  0.83928515043E+03  0.83928515043E+03  0.00000000000E+00 0. -1.
         21   -1    0    0  502  503 -0.00000000000E+00 -0.00000000000E+00 -0.33877073887E+02  0.33877073887E+02  0.00000000000E+00 0.  1.
         24    1    1    2    0    0  0.40163080998E+02  0.34219884386E+02  0.39877531916E+03  0.41021097583E+03  0.80419002446E+02 0.  0.
          1    1    1    2  501    0 -0.62194494508E+02  0.39315574571E+02  0.37116677115E+03  0.37838953679E+03  0.00000000000E+00 0. -1.
         -2    1    1    2    0  503  0.22031413510E+02 -0.73535458957E+02  0.35465986232E+02  0.84561711694E+02  0.00000000000E+00 0.  1.
<mgrwt>
<rscale>  2 0.12326375E+03</rscale>
<asrwt>0</asrwt>
<pdfrwt beam="1">  1       21 0.12912078E+00 0.12326375E+03</pdfrwt>
<pdfrwt beam="2">  1       21 0.52118582E-02 0.12326375E+03</pdfrwt>
<totfact> 0.11372238E+05</totfact>
</mgrwt>
</event>
<event>
 5    1  0.1745726E+000  0.7395821E+02  0.7546771E-02  0.1347128E+00
         21   -1    0    0  503  502  0.00000000000E+00  0.00000000000E+00  0.93482710375E+03  0.93482710375E+03  0.00000000000E+00 0.  1.
         21   -1    0    0  501  503 -0.00000000000E+00 -0.00000000000E+00 -0.10021830334E+02  0.10021830334E+02  0.00000000000E+00 0.  1.
         24    1    1    2    0    0 -0.35467132630E+02  0.18868433978E+02  0.23793473070E+03  0.25435032401E+03  0.80419002446E+02 0.  1.
          1    1    1    2  501    0  0.22239492996E+02  0.11398222982E+02  0.11542839450E+03  0.11810261976E+03  0.00000000000E+00 0. -1.
         -2    1    1    2    0  502  0.13227639634E+02 -0.30266656960E+02  0.57144214822E+03  0.57239599032E+03  0.00000000000E+00 0.  1.
<mgrwt>
<rscale>  2 0.73958211E+02</rscale>
<asrwt>0</asrwt>
<pdfrwt beam="1">  1       21 0.14381949E+00 0.73958211E+02</pdfrwt>
<pdfrwt beam="2">  1       21 0.15418208E-02 0.73958211E+02</pdfrwt>
<totfact> 0.64152037E+05</totfact>
</mgrwt>
</event>
<event>
 5    1  0.1745726E+000  0.7359062E+02  0.7546771E-02  0.1348292E+00
         21   -1    0    0  503  502  0.00000000000E+00  0.00000000000E+00  0.10277638403E+03  0.10277638403E+03  0.00000000000E+00 0.  1.
         21   -1    0    0  501  503 -0.00000000000E+00 -0.00000000000E+00 -0.19598527794E+03  0.19598527794E+03  0.00000000000E+00 0.  1.
         24    1    1    2    0    0 -0.11502907019E+02 -0.21638493616E+02 -0.83416266739E+02  0.11843154473E+03  0.80419002446E+02 0.  1.
          1    1    1    2  501    0 -0.16165637584E+02  0.30109788728E+02 -0.89355947307E+02  0.95668242039E+02  0.00000000000E+00 0. -1.
         -2    1    1    2    0  502  0.27668544604E+02 -0.84712951125E+01  0.79563320141E+02  0.84661875205E+02  0.00000000000E+00 0.  1.
<mgrwt>
<rscale>  2 0.73590617E+02</rscale>
<asrwt>0</asrwt>
<pdfrwt beam="1">  1       21 0.15811752E-01 0.73590617E+02</pdfrwt>
<pdfrwt beam="2">  1       21 0.30151581E-01 0.73590617E+02</pdfrwt>
<totfact> 0.38226649E+05</totfact>
</mgrwt>
</event>
<event>
 5    1  0.1745726E+000  0.6477266E+02  0.7546771E-02  0.1378829E+00
         21   -1    0    0  501  502  0.00000000000E+00  0.00000000000E+00  0.11836957900E+03  0.11836957900E+03  0.00000000000E+00 0. -1.
         21   -1    0    0  502  503 -0.00000000000E+00 -0.00000000000E+00 -0.54526569724E+02  0.54526569724E+02  0.00000000000E+00 0. -1.
         24    1    1    2    0    0  0.47093388816E+01  0.14421318373E+02 -0.86639887206E+01  0.82294792978E+02  0.80419002446E+02 0.  0.
          1    1    1    2  501    0  0.19513263661E+02 -0.12992903918E+02  0.57438825500E+02  0.62038711187E+02  0.00000000000E+00 0. -1.
         -2    1    1    2    0  503 -0.24222602543E+02 -0.14284144548E+01  0.15068172496E+02  0.28562644558E+02  0.00000000000E+00 0.  1.
<mgrwt>
<rscale>  2 0.64772660E+02</rscale>
<asrwt>0</asrwt>
<pdfrwt beam="1">  1       21 0.18210704E-01 0.64772660E+02</pdfrwt>
<pdfrwt beam="2">  1       21 0.83887031E-02 0.64772660E+02</pdfrwt>
<totfact> 0.29038874E+06</totfact>
</mgrwt>
</event>
<event>
 5    1  0.1745726E+000  0.7469658E+02  0.7546771E-02  0.1344813E+00
         21   -1    0    0  503  502  0.00000000000E+00  0.00000000000E+00  0.61126913207E+01  0.61126913207E+01  0.00000000000E+00 0. -1.
         21   -1    0    0  501  503 -0.00000000000E+00 -0.00000000000E+00 -0.13831905471E+04  0.13831905471E+04  0.00000000000E+00 0. -1.
         24    1    1    2    0    0  0.11523667622E+02  0.29056549145E+02 -0.42292995604E+03  0.43164110281E+03  0.80419002446E+02 0. -1.
          1    1    1    2  501    0  0.10349419920E+02 -0.38072759530E+02 -0.84766327670E+03  0.84858097797E+03  0.00000000000E+00 0. -1.
         -2    1    1    2    0  502 -0.21873087542E+02  0.90162103849E+01 -0.10648462307E+03  0.10908115767E+03  0.00000000000E+00 0.  1.
<mgrwt>
<rscale>  2 0.74696578E+02</rscale>
<asrwt>0</asrwt>
<pdfrwt beam="1">  1       21 0.94041381E-03 0.74696578E+02</pdfrwt>
<pdfrwt beam="2">  1       21 0.21279860E+00 0.74696578E+02</pdfrwt>
<totfact> 0.48847624E+05</totfact>
</mgrwt>
</event>
<event>
 5    1  0.1745726E+000  0.7108121E+02  0.7546771E-02  0.1356454E+00
         21   -1    0    0  501  502  0.00000000000E+00  0.00000000000E+00  0.47284648999E+01  0.47284648999E+01  0.00000000000E+00 0.  1.
         21   -1    0    0  502  503 -0.00000000000E+00 -0.00000000000E+00 -0.11844520563E+04  0.11844520563E+04  0.00000000000E+00 0. -1.
         24    1    1    2    0    0  0.10549875621E+02  0.12905342836E+02 -0.67783212059E+03  0.68278946053E+03  0.80419002446E+02 0. -1.
          1    1    1    2  501    0  0.24022761017E+02 -0.63148822088E+01 -0.10311521914E+03  0.10606469348E+03  0.00000000000E+00 0. -1.
         -2    1    1    2    0  503 -0.34572636638E+02 -0.65904606270E+01 -0.39877625162E+03  0.40032636715E+03  0.00000000000E+00 0.  1.
<mgrwt>
<rscale>  2 0.71081212E+02</rscale>
<asrwt>0</asrwt>
<pdfrwt beam="1">  1       21 0.72745588E-03 0.71081212E+02</pdfrwt>
<pdfrwt beam="2">  1       21 0.18222346E+00 0.71081212E+02</pdfrwt>
<totfact> 0.11204814E+06</totfact>
</mgrwt>
</event>
<event>
 5    1  0.1745726E+000  0.1080289E+03  0.7546771E-02  0.1264264E+00
         21   -1    0    0  501  502  0.00000000000E+00  0.00000000000E+00  0.13612260328E+04  0.13612260328E+04  0.00000000000E+00 0.  1.
         21   -1    0    0  502  503 -0.00000000000E+00 -0.00000000000E+00 -0.10406038716E+02  0.10406038716E+02  0.00000000000E+00 0. -1.
         24    1    1    2    0    0 -0.11851271810E+02 -0.67910612097E+02  0.40313590531E+03  0.41681899907E+03  0.80419002446E+02 0. -1.
          1    1    1    2  501    0 -0.35628715094E+02  0.13955903020E+02  0.49311035421E+03  0.49459275570E+03  0.00000000000E+00 0. -1.
         -2    1    1    2    0  503  0.47479986904E+02  0.53954709077E+02  0.45457373459E+03  0.46022031677E+03  0.00000000000E+00 0.  1.
<mgrwt>
<rscale>  2 0.10802894E+03</rscale>
<asrwt>0</asrwt>
<pdfrwt beam="1">  1       21 0.20941925E+00 0.10802894E+03</pdfrwt>
<pdfrwt beam="2">  1       21 0.16009301E-02 0.10802894E+03</pdfrwt>
<totfact> 0.21668068E+05</totfact>
</mgrwt>
</event>
<event>
 5    1  0.1745726E+000  0.7429587E+02  0.7546771E-02  0.1346065E+00
         21   -1    0    0  503  502  0.00000000000E+00  0.00000000000E+00  0.15046378678E+02  0.15046378678E+02  0.00000000000E+00 0.  1.
         21   -1    0    0  501  503 -0.00000000000E+00 -0.00000000000E+00 -0.20698424325E+04  0.20698424325E+04  0.00000000000E+00 0. -1.
         24    1    1    2    0    0  0.17977311206E+02  0.66083953132E+01 -0.53049853800E+03  0.53690107970E+03  0.80419002446E+02 0.  0.
          1    1    1    2  501    0  0.49668583009E-01  0.27417224137E+02 -0.15043903783E+04  0.15046401952E+04  0.00000000000E+00 0. -1.
         -2    1    1    2    0  502 -0.18026979789E+02 -0.34025619450E+02 -0.19907137540E+02  0.43347536312E+02  0.00000000000E+00 0.  1.
<mgrwt>
<rscale>  2 0.74295871E+02</rscale>
<asrwt>0</asrwt>
<pdfrwt beam="1">  1       21 0.23148295E-02 0.74295871E+02</pdfrwt>
<pdfrwt beam="2">  1       21 0.31843702E+00 0.74295871E+02</pdfrwt>
<totfact> 0.30879007E+04</totfact>
</mgrwt>
</event>
<event>
 5    1  0.1745726E+000  0.8582648E+02  0.7546771E-02  0.1313285E+00
         21   -1    0    0  501  502  0.00000000000E+00  0.00000000000E+00  0.49350053612E+02  0.49350053612E+02  0.00000000000E+00 0. -1.
         21   -1    0    0  502  503 -0.00000000000E+00 -0.00000000000E+00 -0.30302449281E+03  0.30302449281E+03  0.00000000000E+00 0. -1.
         24    1    1    2    0    0  0.36011934921E+02 -0.32827021857E+02 -0.18248852474E+03  0.20528943089E+03  0.80419002446E+02 0. -1.
          1    1    1    2  501    0 -0.26564613842E+02  0.50795262917E+02  0.14417495211E+02  0.59107542764E+02  0.00000000000E+00 0. -1.
         -2    1    1    2    0  503 -0.94473210788E+01 -0.17968241061E+02 -0.85603409666E+02  0.87977572760E+02  0.00000000000E+00 0.  1.
<mgrwt>
<rscale>  2 0.85826481E+02</rscale>
<asrwt>0</asrwt>
<pdfrwt beam="1">  1       21 0.75923161E-02 0.85826481E+02</pdfrwt>
<pdfrwt beam="2">  1       21 0.46619152E-01 0.85826481E+02</pdfrwt>
<totfact> 0.58369186E+05</totfact>
</mgrwt>
</event>
<event>
 5    1  0.1745726E+000  0.7667199E+02  0.7546771E-02  0.1338770E+00
         21   -1    0    0  503  502  0.00000000000E+00  0.00000000000E+00  0.29580664040E+03  0.29580664040E+03  0.00000000000E+00 0. -1.
         21   -1    0    0  501  503 -0.00000000000E+00 -0.00000000000E+00 -0.21655987091E+02  0.21655987091E+02  0.00000000000E+00 0.  1.
         24    1    1    2    0    0  0.14687424372E+02  0.11754201317E+02  0.17498736018E+03  0.19349851126E+03  0.80419002446E+02 0. -1.
          1    1    1    2  501    0 -0.74012456579E+01  0.28705098611E+02  0.23402676444E+02  0.37768325199E+02  0.00000000000E+00 0. -1.
         -2    1    1    2    0  502 -0.72861787138E+01 -0.40459299928E+02  0.75760616684E+02  0.86195791030E+02  0.00000000000E+00 0.  1.
<mgrwt>
<rscale>  2 0.76671989E+02</rscale>
<asrwt>0</asrwt>
<pdfrwt beam="1">  1       21 0.45508711E-01 0.76671989E+02</pdfrwt>
<pdfrwt beam="2">  1       21 0.33316905E-02 0.76671989E+02</pdfrwt>
<totfact> 0.23998575E+06</totfact>
</mgrwt>
</event>
<event>
 5    1  0.1745726E+000  0.6809779E+02  0.7546771E-02  0.1366684E+00
         21   -1    0    0  501  502  0.00000000000E+00  0.00000000000E+00  0.11695322292E+02  0.11695322292E+02  0.00000000000E+00 0.  1.
         21   -1    0    0  502  503 -0.00000000000E+00 -0.00000000000E+00 -0.44784008189E+03  0.44784008189E+03  0.00000000000E+00 0. -1.
         24    1    1    2    0    0  0.25970146116E+02 -0.11551445964E+02 -0.20817116563E+03  0.22496740775E+03  0.80419002446E+02 0.  0.
          1    1    1    2  501    0 -0.25133853134E+02 -0.11637522990E+02 -0.77176287151E+02  0.81995864610E+02  0.00000000000E+00 0. -1.
         -2    1    1    2    0  503 -0.83629298128E+00  0.23188968953E+02 -0.15079730681E+03  0.15257213182E+03  0.00000000000E+00 0.  1.
<mgrwt>
<rscale>  2 0.68097790E+02</rscale>
<asrwt>0</asrwt>
<pdfrwt beam="1">  1       21 0.17992802E-02 0.68097790E+02</pdfrwt>
<pdfrwt beam="2">  1       21 0.68898479E-01 0.68097790E+02</pdfrwt>
<totfact> 0.27202732E+06</totfact>
</mgrwt>
</event>
<event>
 5    1  0.1745726E+000  0.1150593E+03  0.7546771E-02  0.1251478E+00
         21   -1    0    0  503  502  0.00000000000E+00  0.00000000000E+00  0.38426203364E+03  0.38426203364E+03  0.00000000000E+00 0.  1.
         21   -1    0    0  501  503 -0.00000000000E+00 -0.00000000000E+00 -0.10293831624E+03  0.10293831624E+03  0.00000000000E+00 0. -1.
         24    1    1    2    0    0 -0.12362679904E+02  0.46112545163E+02  0.72417438769E+02  0.11828230666E+03  0.80419002446E+02 0.  1.
          1    1    1    2  501    0  0.67864669759E+02 -0.60259388158E+01 -0.60397159839E+02  0.91048021707E+02  0.00000000000E+00 0. -1.
         -2    1    1    2    0  502 -0.55501989855E+02 -0.40086606348E+02  0.26930343847E+03  0.27787002152E+03  0.00000000000E+00 0.  1.
<mgrwt>
<rscale>  2 0.11505930E+03</rscale>
<asrwt>0</asrwt>
<pdfrwt beam="1">  1       21 0.59117235E-01 0.11505930E+03</pdfrwt>
<pdfrwt beam="2">  1       21 0.15836664E-01 0.11505930E+03</pdfrwt>
<totfact> 0.98066206E+04</totfact>
</mgrwt>
</event>
<event>
 5    1  0.1745726E+000  0.1091207E+03  0.7546771E-02  0.1262207E+00
         21   -1    0    0  503  502  0.00000000000E+00  0.00000000000E+00  0.41221473851E+03  0.41221473851E+03  0.00000000000E+00 0.  1.
         21   -1    0    0  501  503 -0.00000000000E+00 -0.00000000000E+00 -0.17283836174E+03  0.17283836174E+03  0.00000000000E+00 0. -1.
         24    1    1    2    0    0  0.53674284341E+02 -0.58655624919E+02 -0.88803504037E+02  0.14378695844E+03  0.80419002446E+02 0. -1.
          1    1    1    2  501    0 -0.69960808117E+02  0.40806677418E+02 -0.26917352257E+02  0.85347779390E+02  0.00000000000E+00 0. -1.
         -2    1    1    2    0  502  0.16286523776E+02  0.17848947501E+02  0.35509723306E+03  0.35591836242E+03  0.00000000000E+00 0.  1.
<mgrwt>
<rscale>  2 0.10912074E+03</rscale>
<asrwt>0</asrwt>
<pdfrwt beam="1">  1       21 0.63417652E-01 0.10912074E+03</pdfrwt>
<pdfrwt beam="2">  1       21 0.26590517E-01 0.10912074E+03</pdfrwt>
<totfact> 0.32555320E+04</totfact>
</mgrwt>
</event>
<event>
 5    1  0.1745726E+000  0.1145833E+03  0.7546771E-02  0.1252310E+00
         21   -1    0    0  501  502  0.00000000000E+00  0.00000000000E+00  0.90263246208E+03  0.90263246208E+03  0.00000000000E+00 0. -1.
         21   -1    0    0  502  503 -0.00000000000E+00 -0.00000000000E+00 -0.23266500872E+02  0.23266500872E+02  0.00000000000E+00 0.  1.
         24    1    1    2    0    0 -0.43076274780E+02 -0.77098201052E+02  0.69869864538E+03  0.70883475583E+03  0.80419002446E+02 0. -1.
          1    1    1    2  501    0  0.25394845682E+02 -0.48796043154E+01  0.89635393633E+02  0.93291009842E+02  0.00000000000E+00 0. -1.
         -2    1    1    2    0  503  0.17681429098E+02  0.81977805367E+02  0.91031922193E+02  0.12377319728E+03  0.00000000000E+00 0.  1.
<mgrwt>
<rscale>  2 0.11458327E+03</rscale>
<asrwt>0</asrwt>
<pdfrwt beam="1">  1       21 0.13886651E+00 0.11458327E+03</pdfrwt>
<pdfrwt beam="2">  1       21 0.35794624E-02 0.11458327E+03</pdfrwt>
<totfact> 0.17793434E+05</totfact>
</mgrwt>
</event>
<event>
 5    1  0.1745726E+000  0.7040415E+02  0.7546771E-02  0.1358724E+00
         21   -1    0    0  503  502  0.00000000000E+00  0.00000000000E+00  0.48114795418E+01  0.48114795418E+01  0.00000000000E+00 0. -1.
         21   -1    0    0  501  503 -0.00000000000E+00 -0.00000000000E+00 -0.11344764524E+04  0.11344764524E+04  0.00000000000E+00 0.  1.
         24    1    1    2    0    0  0.14566405568E-01 -0.46944994182E+02 -0.79022332855E+03  0.79569086813E+03  0.80419002446E+02 0.  0.
          1    1    1    2  501    0 -0.41652974874E+01  0.26789442265E+02 -0.26435428068E+03  0.26574086933E+03  0.00000000000E+00 0. -1.
         -2    1    1    2    0  502  0.41507310819E+01  0.20155551917E+02 -0.75087363618E+02  0.77856194466E+02  0.00000000000E+00 0.  1.
<mgrwt>
<rscale>  2 0.70404147E+02</rscale>
<asrwt>0</asrwt>
<pdfrwt beam="1">  1       21 0.74022776E-03 0.70404147E+02</pdfrwt>
<pdfrwt beam="2">  1       21 0.17453481E+00 0.70404147E+02</pdfrwt>
<totfact> 0.12241165E+06</totfact>
</mgrwt>
</event>
<event>
 5    1  0.1745726E+000  0.1065918E+03  0.7546771E-02  0.1267015E+00
         21   -1    0    0  501  502  0.00000000000E+00  0.00000000000E+00  0.66772340162E+02  0.66772340162E+02  0.00000000000E+00 0.  1.
         21   -1    0    0  502  503 -0.00000000000E+00 -0.00000000000E+00 -0.21574655271E+03  0.21574655271E+03  0.00000000000E+00 0. -1.
         24    1    1    2    0    0  0.51618426624E+02  0.63091315840E+00 -0.64465416691E+02  0.11527300604E+03  0.80419002446E+02 0.  0.
          1    1    1    2  501    0 -0.56938974695E+02 -0.45223282933E+02 -0.13382744878E+01  0.72725395407E+02  0.00000000000E+00 0. -1.
         -2    1    1    2    0  503  0.53205480707E+01  0.44592369774E+02 -0.83170521372E+02  0.94520491425E+02  0.00000000000E+00 0.  1.
<mgrwt>
<rscale>  2 0.10659182E+03</rscale>
<asrwt>0</asrwt>
<pdfrwt beam="1">  1       21 0.10272668E-01 0.10659182E+03</pdfrwt>
<pdfrwt beam="2">  1       21 0.33191777E-01 0.10659182E+03</pdfrwt>
<totfact> 0.67972109E+05</totfact>
</mgrwt>
</event>
<event>
 5    1  0.1745726E+000  0.7154452E+02  0.7546771E-02  0.1354918E+00
         21   -1    0    0  503  502  0.00000000000E+00  0.00000000000E+00  0.39406561240E+02  0.39406561240E+02  0.00000000000E+00 0.  1.
         21   -1    0    0  501  503 -0.00000000000E+00 -0.00000000000E+00 -0.41981161197E+03  0.41981161197E+03  0.00000000000E+00 0. -1.
         24    1    1    2    0    0 -0.19830308344E+01  0.40465996559E+02 -0.30162253295E+03  0.31477737788E+03  0.80419002446E+02 0.  0.
          1    1    1    2  501    0 -0.15752021568E+02 -0.13391983414E+02 -0.10234133335E+03  0.10440890726E+03  0.00000000000E+00 0. -1.
         -2    1    1    2    0  502  0.17735052403E+02 -0.27074013145E+02  0.23558815568E+02  0.40031888071E+02  0.00000000000E+00 0.  1.
<mgrwt>
<rscale>  2 0.71544516E+02</rscale>
<asrwt>0</asrwt>
<pdfrwt beam="1">  1       21 0.60625480E-02 0.71544516E+02</pdfrwt>
<pdfrwt beam="2">  1       21 0.64586400E-01 0.71544516E+02</pdfrwt>
<totfact> 0.43517555E+05</totfact>
</mgrwt>
</event>
<event>
 5    1  0.1745726E+000  0.6591785E+02  0.7546771E-02  0.1374552E+00
         21   -1    0    0  503  502  0.00000000000E+00  0.00000000000E+00  0.14339891333E+03  0.14339891333E+03  0.00000000000E+00 0.  1.
         21   -1    0    0  501  503 -0.00000000000E+00 -0.00000000000E+00 -0.45088106384E+02  0.45088106384E+02  0.00000000000E+00 0. -1.
         24    1    1    2    0    0 -0.12949021921E+02  0.33580709675E+02  0.16245210211E+02  0.89590535438E+02  0.80419002446E+02 0. -1.
          1    1    1    2  501    0  0.18795186294E+02 -0.14396915173E+02  0.13066320804E+02  0.27041799749E+02  0.00000000000E+00 0. -1.
         -2    1    1    2    0  502 -0.58461643726E+01 -0.19183794502E+02  0.68999275932E+02  0.71854684527E+02  0.00000000000E+00 0.  1.
<mgrwt>
<rscale>  2 0.65917855E+02</rscale>
<asrwt>0</asrwt>
<pdfrwt beam="1">  1       21 0.22061371E-01 0.65917855E+02</pdfrwt>
<pdfrwt beam="2">  1       21 0.69366318E-02 0.65917855E+02</pdfrwt>
<totfact> 0.28292836E+06</totfact>
</mgrwt>
</event>
<event>
 5    1  0.1745726E+000  0.6621683E+02  0.7546771E-02  0.1373452E+00
         21   -1    0    0  503  502  0.00000000000E+00  0.00000000000E+00  0.53940480514E+02  0.53940480514E+02  0.00000000000E+00 0.  1.
         21   -1    0    0  501  503 -0.00000000000E+00 -0.00000000000E+00 -0.17886130489E+03  0.17886130489E+03  0.00000000000E+00 0.  1.
         24    1    1    2    0    0 -0.66934247169E+01 -0.41670568727E+00 -0.91900798306E+02  0.12230269115E+03  0.80419002446E+02 0.  1.
          1    1    1    2  501    0 -0.20067536491E+02 -0.10718090465E+02 -0.64090016776E+02  0.68008188731E+02  0.00000000000E+00 0. -1.
         -2    1    1    2    0  502  0.26760961208E+02  0.11134796152E+02  0.31069990705E+02  0.42490905527E+02  0.00000000000E+00 0.  1.
<mgrwt>
<rscale>  2 0.66216828E+02</rscale>
<asrwt>0</asrwt>
<pdfrwt beam="1">  1       21 0.82985353E-02 0.66216828E+02</pdfrwt>
<pdfrwt beam="2">  1       21 0.27517124E-01 0.66216828E+02</pdfrwt>
<totfact> 0.13891367E+06</totfact>
</mgrwt>
</event>
<event>
 5    1  0.1745726E+000  0.8315319E+02  0.7546771E-02  0.1320334E+00
         21   -1    0    0  503  502  0.00000000000E+00  0.00000000000E+00  0.72797915036E+02  0.72797915036E+02  0.00000000000E+00 0.  1.
         21   -1    0    0  501  503 -0.00000000000E+00 -0.00000000000E+00 -0.10016970606E+03  0.10016970606E+03  0.00000000000E+00 0. -1.
         24    1    1    2    0    0 -0.86303460258E+01 -0.21568318715E+02 -0.33367501076E+02  0.90112603598E+02  0.80419002446E+02 0. -1.
          1    1    1    2  501    0 -0.35397589623E+02  0.13226655107E+02  0.40046615236E+01  0.37999619344E+02  0.00000000000E+00 0. -1.
         -2    1    1    2    0  502  0.44027935648E+02  0.83416636079E+01  0.19910485294E+01  0.44855398153E+02  0.00000000000E+00 0.  1.
<mgrwt>
<rscale>  2 0.83153186E+02</rscale>
<asrwt>0</asrwt>
<pdfrwt beam="1">  1       21 0.11199679E-01 0.83153186E+02</pdfrwt>
<pdfrwt beam="2">  1       21 0.15410724E-01 0.83153186E+02</pdfrwt>
<totfact> 0.24159917E+06</totfact>
</mgrwt>
</event>
<event>
 5    1  0.1745726E+000  0.1048060E+03  0.7546771E-02  0.1270502E+00
         21   -1    0    0  501  502  0.00000000000E+00  0.00000000000E+00  0.28173550563E+03  0.28173550563E+03  0.00000000000E+00 0. -1.
         21   -1    0    0  502  503 -0.00000000000E+00 -0.00000000000E+00 -0.39118730286E+02  0.39118730286E+02  0.00000000000E+00 0. -1.
         24    1    1    2    0    0  0.61323638323E+02 -0.24507026214E+02  0.11144498988E+03  0.15247420987E+03  0.80419002446E+02 0. -1.
          1    1    1    2  501    0 -0.78543805182E+02  0.38208042845E+01  0.96236440429E+02  0.12427863994E+03  0.00000000000E+00 0. -1.
         -2    1    1    2    0  503  0.17220166859E+02  0.20686221930E+02  0.34935345033E+02  0.44101386112E+02  0.00000000000E+00 0.  1.
<mgrwt>
<rscale>  2 0.10480598E+03</rscale>
<asrwt>0</asrwt>
<pdfrwt beam="1">  1       21 0.43343923E-01 0.10480598E+03</pdfrwt>
<pdfrwt beam="2">  1       21 0.60182664E-02 0.10480598E+03</pdfrwt>
<totfact> 0.10034800E+06</totfact>
</mgrwt>
</event>
<event>
 5    1  0.1745726E+000  0.1078809E+03  0.7546771E-02  0.1264545E+00
         21   -1    0    0  503  502  0.00000000000E+00  0.00000000000E+00  0.10604545035E+03  0.10604545035E+03  0.00000000000E+00 0.  1.
         21   -1    0    0  501  503 -0.00000000000E+00 -0.00000000000E+00 -0.15336305014E+03  0.15336305014E+03  0.00000000000E+00 0. -1.
         24    1    1    2    0    0 -0.29963761089E+00  0.39092746039E+02 -0.11383443972E+02  0.90139510352E+02  0.80419002446E+02 0. -1.
          1    1    1    2  501    0 -0.59843688706E+02 -0.16269440119E+02 -0.72395471036E+02  0.95326103383E+02  0.00000000000E+00 0. -1.
         -2    1    1    2    0  502  0.60143326316E+02 -0.22823305920E+02  0.36461315224E+02  0.73942886753E+02  0.00000000000E+00 0.  1.
<mgrwt>
<rscale>  2 0.10788095E+03</rscale>
<asrwt>0</asrwt>
<pdfrwt beam="1">  1       21 0.16314685E-01 0.10788095E+03</pdfrwt>
<pdfrwt beam="2">  1       21 0.23594315E-01 0.10788095E+03</pdfrwt>
<totfact> 0.57314093E+05</totfact>
</mgrwt>
</event>
<event>
 5    1  0.1745726E+000  0.1281991E+03  0.7546771E-02  0.1230153E+00
         21   -1    0    0  501  502  0.00000000000E+00  0.00000000000E+00  0.11068548299E+03  0.11068548299E+03  0.00000000000E+00 0.  1.
         21   -1    0    0  502  503 -0.00000000000E+00 -0.00000000000E+00 -0.34211596458E+03  0.34211596458E+03  0.00000000000E+00 0.  1.
         24    1    1    2    0    0 -0.20954678142E+01 -0.11417798070E+03 -0.55261847534E+02  0.15020682411E+03  0.80419002446E+02 0.  1.
          1    1    1    2  501    0 -0.93069986923E+01  0.22600218926E+02  0.51460459479E+02  0.56969895646E+02  0.00000000000E+00 0. -1.
         -2    1    1    2    0  503  0.11402466507E+02  0.91577761773E+02 -0.22762909353E+03  0.24562472782E+03  0.00000000000E+00 0.  1.
<mgrwt>
<rscale>  2 0.12819914E+03</rscale>
<asrwt>0</asrwt>
<pdfrwt beam="1">  1       21 0.17028536E-01 0.12819914E+03</pdfrwt>
<pdfrwt beam="2">  1       21 0.52633225E-01 0.12819914E+03</pdfrwt>
<totfact> 0.10905159E+05</totfact>
</mgrwt>
</event>
<event>
 5    1  0.1745726E+000  0.6666229E+02  0.7546771E-02  0.1371826E+00
         21   -1    0    0  501  502  0.00000000000E+00  0.00000000000E+00  0.10529948313E+03  0.10529948313E+03  0.00000000000E+00 0.  1.
         21   -1    0    0  502  503 -0.00000000000E+00 -0.00000000000E+00 -0.15486990487E+03  0.15486990487E+03  0.00000000000E+00 0.  1.
         24    1    1    2    0    0  0.85337519478E+01  0.15470290552E+02  0.34379168047E+02  0.89226105833E+02  0.80419002446E+02 0.  1.
          1    1    1    2  501    0 -0.17512357753E+02  0.12562393842E+02  0.38978509081E+02  0.44540100845E+02  0.00000000000E+00 0. -1.
         -2    1    1    2    0  503  0.89786058051E+01 -0.28032684394E+02 -0.12292809887E+03  0.12640318133E+03  0.00000000000E+00 0.  1.
<mgrwt>
<rscale>  2 0.66662290E+02</rscale>
<asrwt>0</asrwt>
<pdfrwt beam="1">  1       21 0.16199921E-01 0.66662290E+02</pdfrwt>
<pdfrwt beam="2">  1       21 0.23826139E-01 0.66662290E+02</pdfrwt>
<totfact> 0.56846105E+05</totfact>
</mgrwt>
</event>
<event>
 5    1  0.1745726E+000  0.9304737E+02  0.7546771E-02  0.1295635E+00
         21   -1    0    0  501  502  0.00000000000E+00  0.00000000000E+00  0.25578315606E+02  0.25578315606E+02  0.00000000000E+00 0. -1.
         21   -1    0    0  502  503 -0.00000000000E+00 -0.00000000000E+00 -0.71847989996E+03  0.71847989996E+03  0.00000000000E+00 0. -1.
         24    1    1    2    0    0  0.67850681680E+02 -0.97692472721E+01 -0.53677406259E+03  0.54707656084E+03  0.80419002446E+02 0. -1.
          1    1    1    2  501    0 -0.40275197955E+02 -0.15370613822E+02 -0.75183660377E+01  0.43759263790E+02  0.00000000000E+00 0. -1.
         -2    1    1    2    0  503 -0.27575483725E+02  0.25139861094E+02 -0.14860915572E+03  0.15322239093E+03  0.00000000000E+00 0.  1.
<mgrwt>
<rscale>  2 0.93047369E+02</rscale>
<asrwt>0</asrwt>
<pdfrwt beam="1">  1       21 0.39351258E-02 0.93047369E+02</pdfrwt>
<pdfrwt beam="2">  1       21 0.11053536E+00 0.93047369E+02</pdfrwt>
<totfact> 0.26775819E+05</totfact>
</mgrwt>
</event>
<event>
 5    1  0.1745726E+000  0.1289971E+03  0.7546771E-02  0.1228951E+00
         21   -1    0    0  501  502  0.00000000000E+00  0.00000000000E+00  0.37023762668E+03  0.37023762668E+03  0.00000000000E+00 0.  1.
         21   -1    0    0  502  503 -0.00000000000E+00 -0.00000000000E+00 -0.48206843879E+02  0.48206843879E+02  0.00000000000E+00 0.  1.
         24    1    1    2    0    0  0.56492576737E+02  0.99374549625E+02  0.16103347857E+03  0.21322689679E+03  0.80419002446E+02 0.  1.
          1    1    1    2  501    0 -0.40523590439E+02 -0.40748055121E+02  0.11650402439E+03  0.12990670913E+03  0.00000000000E+00 0. -1.
         -2    1    1    2    0  503 -0.15968986299E+02 -0.58626494504E+02  0.44493279835E+02  0.75310864633E+02  0.00000000000E+00 0.  1.
<mgrwt>
<rscale>  2 0.12899711E+03</rscale>
<asrwt>0</asrwt>
<pdfrwt beam="1">  1       21 0.56959633E-01 0.12899711E+03</pdfrwt>
<pdfrwt beam="2">  1       21 0.74164378E-02 0.12899711E+03</pdfrwt>
<totfact> 0.40084976E+05</totfact>
</mgrwt>
</event>
<event>
 5    1  0.1745726E+000  0.1031055E+03  0.7546771E-02  0.1273898E+00
         21   -1    0    0  503  502  0.00000000000E+00  0.00000000000E+00  0.42412229967E+03  0.42412229967E+03  0.00000000000E+00 0. -1.
         21   -1    0    0  501  503 -0.00000000000E+00 -0.00000000000E+00 -0.59752433307E+02  0.59752433307E+02  0.00000000000E+00 0. -1.
         24    1    1    2    0    0  0.82608117485E+02  0.19675731094E+02  0.26144335391E+03  0.28641068194E+03  0.80419002446E+02 0. -1.
          1    1    1    2  501    0 -0.43115908184E+02  0.38505153320E+01 -0.32705633836E+02  0.54253723296E+02  0.00000000000E+00 0. -1.
         -2    1    1    2    0  502 -0.39492209301E+02 -0.23526246426E+02  0.13563214629E+03  0.14321032774E+03  0.00000000000E+00 0.  1.
<mgrwt>
<rscale>  2 0.10310554E+03</rscale>
<asrwt>0</asrwt>
<pdfrwt beam="1">  1       21 0.65249583E-01 0.10310554E+03</pdfrwt>
<pdfrwt beam="2">  1       21 0.91926823E-02 0.10310554E+03</pdfrwt>
<totfact> 0.20866648E+05</totfact>
</mgrwt>
</event>
<event>
 5    1  0.1745726E+000  0.2111774E+03  0.7546771E-02  0.1140637E+00
         21   -1    0    0  503  502  0.00000000000E+00  0.00000000000E+00  0.23480613075E+03  0.23480613075E+03  0.00000000000E+00 0.  1.
         21   -1    0    0  501  503 -0.00000000000E+00 -0.00000000000E+00 -0.29829484897E+03  0.29829484897E+03  0.00000000000E+00 0. -1.
         24    1    1    2    0    0  0.14891637319E+03  0.12570519146E+03 -0.16707360905E+03  0.26899570287E+03  0.80419002446E+02 0. -1.
          1    1    1    2  501    0  0.65509216595E+01 -0.26069679096E+02 -0.26877908656E+02  0.38012691518E+02  0.00000000000E+00 0. -1.
         -2    1    1    2    0  502 -0.15546729485E+03 -0.99635512365E+02  0.13046279949E+03  0.22609258534E+03  0.00000000000E+00 0.  1.
<mgrwt>
<rscale>  2 0.21117740E+03</rscale>
<asrwt>0</asrwt>
<pdfrwt beam="1">  1       21 0.36124020E-01 0.21117740E+03</pdfrwt>
<pdfrwt beam="2">  1       21 0.45891515E-01 0.21117740E+03</pdfrwt>
<totfact> 0.33304436E+04</totfact>
</mgrwt>
</event>
<event>
 5    1  0.1745726E+000  0.1657558E+03  0.7546771E-02  0.1182348E+00
         21   -1    0    0  503  502  0.00000000000E+00  0.00000000000E+00  0.21575752744E+03  0.21575752744E+03  0.00000000000E+00 0.  1.
         21   -1    0    0  501  503 -0.00000000000E+00 -0.00000000000E+00 -0.13243138172E+03  0.13243138172E+03  0.00000000000E+00 0. -1.
         24    1    1    2    0    0  0.40105289878E+02  0.15044086368E+03  0.44271377755E+02  0.18074307340E+03  0.80419002446E+02 0. -1.
          1    1    1    2  501    0 -0.29855946708E+02 -0.86272038793E+02 -0.64860522170E+00  0.91294375073E+02  0.00000000000E+00 0. -1.
         -2    1    1    2    0  502 -0.10249343169E+02 -0.64168824886E+02  0.39703373179E+02  0.76151460685E+02  0.00000000000E+00 0.  1.
<mgrwt>
<rscale>  2 0.16575578E+03</rscale>
<asrwt>0</asrwt>
<pdfrwt beam="1">  1       21 0.33193466E-01 0.16575578E+03</pdfrwt>
<pdfrwt beam="2">  1       21 0.20374059E-01 0.16575578E+03</pdfrwt>
<totfact> 0.19640857E+05</totfact>
</mgrwt>
</event>
<event>
 5    1  0.1745726E+000  0.6447859E+02  0.7546771E-02  0.1379944E+00
         21   -1    0    0  503  502  0.00000000000E+00  0.00000000000E+00  0.61471533224E+01  0.61471533224E+01  0.00000000000E+00 0. -1.
         21   -1    0    0  501  503 -0.00000000000E+00 -0.00000000000E+00 -0.11934508434E+04  0.11934508434E+04  0.00000000000E+00 0. -1.
         24    1    1    2    0    0 -0.13078493161E+02  0.14344135651E+02 -0.46291418930E+03  0.47024840651E+03  0.80419002446E+02 0.  0.
          1    1    1    2  501    0  0.16520431196E+02  0.11517487151E+02 -0.65352188544E+03  0.65383211294E+03  0.00000000000E+00 0. -1.
         -2    1    1    2    0  502 -0.34419380353E+01 -0.25861622802E+02 -0.70867615347E+02  0.75517477291E+02  0.00000000000E+00 0.  1.
<mgrwt>
<rscale>  2 0.64478592E+02</rscale>
<asrwt>0</asrwt>
<pdfrwt beam="1">  1       21 0.94571668E-03 0.64478592E+02</pdfrwt>
<pdfrwt beam="2">  1       21 0.18360767E+00 0.64478592E+02</pdfrwt>
<totfact> 0.73334002E+05</totfact>
</mgrwt>
</event>
<event>
 5    1  0.1745726E+000  0.9062096E+02  0.7546771E-02  0.1301355E+00
         21   -1    0    0  503  502  0.00000000000E+00  0.00000000000E+00  0.14223405495E+03  0.14223405495E+03  0.00000000000E+00 0.  1.
         21   -1    0    0  501  503 -0.00000000000E+00 -0.00000000000E+00 -0.24058748052E+03  0.24058748052E+03  0.00000000000E+00 0. -1.
         24    1    1    2    0    0 -0.17259827713E+02  0.50521891353E+02  0.93086945954E+02  0.13409980843E+03  0.80419002446E+02 0.  1.
          1    1    1    2  501    0 -0.25218883351E+02 -0.15015680112E+02 -0.19111651750E+03  0.19335714620E+03  0.00000000000E+00 0. -1.
         -2    1    1    2    0  502  0.42478711064E+02 -0.35506211242E+02 -0.32385401781E+00  0.55364580842E+02  0.00000000000E+00 0.  1.
<mgrwt>
<rscale>  2 0.90620963E+02</rscale>
<asrwt>0</asrwt>
<pdfrwt beam="1">  1       21 0.21882162E-01 0.90620963E+02</pdfrwt>
<pdfrwt beam="2">  1       21 0.37013458E-01 0.90620963E+02</pdfrwt>
<totfact> 0.14221922E+05</totfact>
</mgrwt>
</event>
<event>
 5    1  0.1745726E+000  0.6994025E+02  0.7546771E-02  0.1360296E+00
         21   -1    0    0  503  502  0.00000000000E+00  0.00000000000E+00  0.13921771166E+03  0.13921771166E+03  0.00000000000E+00 0. -1.
         21   -1    0    0  501  503 -0.00000000000E+00 -0.00000000000E+00 -0.14121545048E+03  0.14121545048E+03  0.00000000000E+00 0. -1.
         24    1    1    2    0    0  0.18680022258E+02  0.19841858958E+02  0.57511895151E+02  0.10255474946E+03  0.80419002446E+02 0. -1.
          1    1    1    2  501    0  0.80692975038E+01 -0.26250982822E+02 -0.11377349642E+03  0.11704117288E+03  0.00000000000E+00 0. -1.
         -2    1    1    2    0  502 -0.26749319762E+02  0.64091238646E+01  0.54263862456E+02  0.60837239789E+02  0.00000000000E+00 0.  1.
<mgrwt>
<rscale>  2 0.69940254E+02</rscale>
<asrwt>0</asrwt>
<pdfrwt beam="1">  1       21 0.21418110E-01 0.69940254E+02</pdfrwt>
<pdfrwt beam="2">  1       21 0.21725454E-01 0.69940254E+02</pdfrwt>
<totfact> 0.40717246E+05</totfact>
</mgrwt>
</event>
<event>
 5    1  0.1745726E+000  0.6884771E+02  0.7546771E-02  0.1364056E+00
         21   -1    0    0  503  502  0.00000000000E+00  0.00000000000E+00  0.19533306460E+03  0.19533306460E+03  0.00000000000E+00 0.  1.
         21   -1    0    0  501  503 -0.00000000000E+00 -0.00000000000E+00 -0.64330601359E+02  0.64330601359E+02  0.00000000000E+00 0. -1.
         24    1    1    2    0    0  0.70012233230E+01  0.31623985968E+02  0.19279366890E+02  0.88814433279E+02  0.80419002446E+02 0.  0.
          1    1    1    2  501    0  0.14018108160E+02 -0.25510732891E+02 -0.21279538030E+02  0.36057226569E+02  0.00000000000E+00 0. -1.
         -2    1    1    2    0  502 -0.21019331483E+02 -0.61132530765E+01  0.13300263439E+03  0.13479200612E+03  0.00000000000E+00 0.  1.
<mgrwt>
<rscale>  2 0.68847715E+02</rscale>
<asrwt>0</asrwt>
<pdfrwt beam="1">  1       21 0.30051241E-01 0.68847715E+02</pdfrwt>
<pdfrwt beam="2">  1       21 0.98970157E-02 0.68847715E+02</pdfrwt>
<totfact> 0.87215626E+05</totfact>
</mgrwt>
</event>
<event>
 5    1  0.1745726E+000  0.7033019E+02  0.7546771E-02  0.1358974E+00
         21   -1    0    0  503  502  0.00000000000E+00  0.00000000000E+00  0.90694245267E+01  0.90694245267E+01  0.00000000000E+00 0.  1.
         21   -1    0    0  501  503 -0.00000000000E+00 -0.00000000000E+00 -0.63048332240E+03  0.63048332240E+03  0.00000000000E+00 0. -1.
         24    1    1    2    0    0  0.23768765862E+02  0.24469579302E+02 -0.44497682630E+03  0.45347029278E+03  0.80419002446E+02 0.  0.
          1    1    1    2  501    0  0.25577590939E+01 -0.26757459174E+02 -0.12910253062E+03  0.13187102473E+03  0.00000000000E+00 0. -1.
         -2    1    1    2    0  502 -0.26326524956E+02  0.22878798721E+01 -0.47334540958E+02  0.54211429407E+02  0.00000000000E+00 0.  1.
<mgrwt>
<rscale>  2 0.70330189E+02</rscale>
<asrwt>0</asrwt>
<pdfrwt beam="1">  1       21 0.13952957E-02 0.70330189E+02</pdfrwt>
<pdfrwt beam="2">  1       21 0.96997461E-01 0.70330189E+02</pdfrwt>
<totfact> 0.19160004E+06</totfact>
</mgrwt>
</event>
<event>
 5    1  0.1745726E+000  0.7570547E+02  0.7546771E-02  0.1341700E+00
         21   -1    0    0  503  502  0.00000000000E+00  0.00000000000E+00  0.78308185601E+02  0.78308185601E+02  0.00000000000E+00 0.  1.
         21   -1    0    0  501  503 -0.00000000000E+00 -0.00000000000E+00 -0.79870144160E+02  0.79870144160E+02  0.00000000000E+00 0. -1.
         24    1    1    2    0    0  0.20787673675E+02 -0.28409881983E+02  0.19716928020E+02  0.89973451507E+02  0.80419002446E+02 0.  1.
          1    1    1    2  501    0  0.16163325641E+02  0.20024608497E+02 -0.23268007340E+01  0.25838963657E+02  0.00000000000E+00 0. -1.
         -2    1    1    2    0  502 -0.36950999315E+02  0.83852734862E+01 -0.18952085845E+02  0.42365914598E+02  0.00000000000E+00 0.  1.
<mgrwt>
<rscale>  2 0.75705474E+02</rscale>
<asrwt>0</asrwt>
<pdfrwt beam="1">  1       21 0.12047413E-01 0.75705474E+02</pdfrwt>
<pdfrwt beam="2">  1       21 0.12287715E-01 0.75705474E+02</pdfrwt>
<totfact> 0.31583802E+06</totfact>
</mgrwt>
</event>
<event>
 5    1  0.1745726E+000  0.6359041E+02  0.7546771E-02  0.1383354E+00
         21   -1    0    0  501  502  0.00000000000E+00  0.00000000000E+00  0.13663408966E+03  0.13663408966E+03  0.00000000000E+00 0.  1.
         21   -1    0    0  502  503 -0.00000000000E+00 -0.00000000000E+00 -0.32906593527E+02  0.32906593527E+02  0.00000000000E+00 0.  1.
         24    1    1    2    0    0 -0.92442698232E+01 -0.26330048669E+02  0.87599641925E+02  0.12214598318E+03  0.80419002446E+02 0.  0.
          1    1    1    2  501    0 -0.98368398640E+01  0.19410350235E+02  0.16147941101E+02  0.27097621973E+02  0.00000000000E+00 0. -1.
         -2    1    1    2    0  503  0.19081109687E+02  0.69196984338E+01 -0.20086891158E-01  0.20297078036E+02  0.00000000000E+00 0.  1.
<mgrwt>
<rscale>  2 0.63590405E+02</rscale>
<asrwt>0</asrwt>
<pdfrwt beam="1">  1       21 0.21020629E-01 0.63590405E+02</pdfrwt>
<pdfrwt beam="2">  1       21 0.50625529E-02 0.63590405E+02</pdfrwt>
<totfact> 0.52051562E+06</totfact>
</mgrwt>
</event>
<event>
 5    1  0.1745726E+000  0.8222361E+02  0.7546771E-02  0.1322857E+00
         21   -1    0    0  501  502  0.00000000000E+00  0.00000000000E+00  0.89750950462E+01  0.89750950462E+01  0.00000000000E+00 0.  1.
         21   -1    0    0  502  503 -0.00000000000E+00 -0.00000000000E+00 -0.12967376987E+04  0.12967376987E+04  0.00000000000E+00 0. -1.
         24    1    1    2    0    0  0.37244864329E+02  0.47308611830E+02 -0.32384321458E+03  0.33906773402E+03  0.80419002446E+02 0.  1.
          1    1    1    2  501    0 -0.96671283676E+01 -0.29777720723E+02 -0.24626887950E+03  0.24825093561E+03  0.00000000000E+00 0. -1.
         -2    1    1    2    0  503 -0.27577735961E+02 -0.17530891108E+02 -0.71765050958E+03  0.71839412412E+03  0.00000000000E+00 0.  1.
<mgrwt>
<rscale>  2 0.82223613E+02</rscale>
<asrwt>0</asrwt>
<pdfrwt beam="1">  1       21 0.13807832E-02 0.82223613E+02</pdfrwt>
<pdfrwt beam="2">  1       21 0.19949820E+00 0.82223613E+02</pdfrwt>
<totfact> 0.32048752E+05</totfact>
</mgrwt>
</event>
<event>
 5    1  0.1745726E+000  0.1418788E+03  0.7546771E-02  0.1210823E+00
         21   -1    0    0  501  502  0.00000000000E+00  0.00000000000E+00  0.98362934937E+02  0.98362934937E+02  0.00000000000E+00 0. -1.
         21   -1    0    0  502  503 -0.00000000000E+00 -0.00000000000E+00 -0.43335530644E+03  0.43335530644E+03  0.00000000000E+00 0. -1.
         24    1    1    2    0    0  0.64539193287E+02 -0.11082093505E+03  0.19896520656E+02  0.15267506215E+03  0.80419002446E+02 0. -1.
          1    1    1    2  501    0 -0.65837490053E+02  0.89933542021E+02 -0.28257189247E+03  0.30375893648E+03  0.00000000000E+00 0. -1.
         -2    1    1    2    0  503  0.12982967659E+01  0.20887393025E+02 -0.72316999688E+02  0.75284242746E+02  0.00000000000E+00 0.  1.
<mgrwt>
<rscale>  2 0.14187878E+03</rscale>
<asrwt>0</asrwt>
<pdfrwt beam="1">  1       21 0.15132759E-01 0.14187878E+03</pdfrwt>
<pdfrwt beam="2">  1       21 0.66670047E-01 0.14187878E+03</pdfrwt>
<totfact> 0.81341966E+04</totfact>
</mgrwt>
</event>
<event>
 5    1  0.1745726E+000  0.1043019E+03  0.7546771E-02  0.1271501E+00
         21   -1    0    0  503  502  0.00000000000E+00  0.00000000000E+00  0.74436399385E+02  0.74436399385E+02  0.00000000000E+00 0. -1.
         21   -1    0    0  501  503 -0.00000000000E+00 -0.00000000000E+00 -0.25542288626E+03  0.25542288626E+03  0.00000000000E+00 0. -1.
         24    1    1    2    0    0 -0.85678317268E+02  0.35809171793E+01 -0.14466415910E+03  0.18640958103E+03  0.80419002446E+02 0. -1.
          1    1    1    2  501    0  0.66859949087E+02  0.10312293021E+02 -0.73266823175E+02  0.99722733403E+02  0.00000000000E+00 0. -1.
         -2    1    1    2    0  502  0.18818368181E+02 -0.13893210201E+02  0.36944495402E+02  0.43726971210E+02  0.00000000000E+00 0.  1.
<mgrwt>
<rscale>  2 0.10430189E+03</rscale>
<asrwt>0</asrwt>
<pdfrwt beam="1">  1       21 0.11451754E-01 0.10430189E+03</pdfrwt>
<pdfrwt beam="2">  1       21 0.39295829E-01 0.10430189E+03</pdfrwt>
<totfact> 0.40364985E+05</totfact>
</mgrwt>
</event>
<event>
 5    1  0.1745726E+000  0.8052524E+02  0.7546771E-02  0.1327567E+00
         21   -1    0    0  503  502  0.00000000000E+00  0.00000000000E+00  0.16167330550E+02  0.16167330550E+02  0.00000000000E+00 0. -1.
         21   -1    0    0  501  503 -0.00000000000E+00 -0.00000000000E+00 -0.47732346496E+03  0.47732346496E+03  0.00000000000E+00 0.  1.
         24    1    1    2    0    0 -0.38034985438E+02 -0.12772658877E+02 -0.25905361175E+03  0.27420027470E+03  0.80419002446E+02 0. -1.
          1    1    1    2  501    0  0.34361149465E+02  0.34765454668E+02 -0.18454871891E+03  0.19091242778E+03  0.00000000000E+00 0. -1.
         -2    1    1    2    0  502  0.36738359728E+01 -0.21992795791E+02 -0.17553803749E+02  0.28378093021E+02  0.00000000000E+00 0.  1.
<mgrwt>
<rscale>  2 0.80525244E+02</rscale>
<asrwt>0</asrwt>
<pdfrwt beam="1">  1       21 0.24872817E-02 0.80525244E+02</pdfrwt>
<pdfrwt beam="2">  1       21 0.73434376E-01 0.80525244E+02</pdfrwt>
<totfact> 0.14243111E+06</totfact>
</mgrwt>
</event>
<event>
 5    1  0.1745726E+000  0.9873809E+02  0.7546771E-02  0.1282972E+00
         21   -1    0    0  501  502  0.00000000000E+00  0.00000000000E+00  0.62159700392E+02  0.62159700392E+02  0.00000000000E+00 0.  1.
         21   -1    0    0  502  503 -0.00000000000E+00 -0.00000000000E+00 -0.18719106056E+03  0.18719106056E+03  0.00000000000E+00 0. -1.
         24    1    1    2    0    0  0.17829578178E+02 -0.50903974772E+02 -0.57714555824E+02  0.11272663578E+03  0.80419002446E+02 0.  1.
          1    1    1    2  501    0 -0.51913723684E+02  0.37400937978E+02 -0.48158839760E+01  0.64164301655E+02  0.00000000000E+00 0. -1.
         -2    1    1    2    0  503  0.34084145506E+02  0.13503036793E+02 -0.62500920372E+02  0.72459823522E+02  0.00000000000E+00 0.  1.
<mgrwt>
<rscale>  2 0.98738089E+02</rscale>
<asrwt>0</asrwt>
<pdfrwt beam="1">  1       21 0.95630309E-02 0.98738089E+02</pdfrwt>
<pdfrwt beam="2">  1       21 0.28798625E-01 0.98738089E+02</pdfrwt>
<totfact> 0.10106909E+06</totfact>
</mgrwt>
</event>
<event>
 5    1  0.1745726E+000  0.6870149E+02  0.7546771E-02  0.1364565E+00
         21   -1    0    0  501  502  0.00000000000E+00  0.00000000000E+00  0.14582176205E+03  0.14582176205E+03  0.00000000000E+00 0.  1.
         21   -1    0    0  502  503 -0.00000000000E+00 -0.00000000000E+00 -0.33692235713E+02  0.33692235713E+02  0.00000000000E+00 0. -1.
         24    1    1    2    0    0  0.25485073412E+02 -0.27439191042E+02  0.56208121624E+02  0.10501888908E+03  0.80419002446E+02 0.  0.
          1    1    1    2  501    0 -0.94029121946E+00  0.23870806326E+02  0.32871802750E+02  0.40635636556E+02  0.00000000000E+00 0. -1.
         -2    1    1    2    0  503 -0.24544782193E+02  0.35683847160E+01  0.23049601960E+02  0.33859472130E+02  0.00000000000E+00 0.  1.
<mgrwt>
<rscale>  2 0.68701490E+02</rscale>
<asrwt>0</asrwt>
<pdfrwt beam="1">  1       21 0.22434117E-01 0.68701490E+02</pdfrwt>
<pdfrwt beam="2">  1       21 0.51834210E-02 0.68701490E+02</pdfrwt>
<totfact> 0.44709893E+06</totfact>
</mgrwt>
</event>
<event>
 5    1  0.1745726E+000  0.8289875E+02  0.7546771E-02  0.1321021E+00
         21   -1    0    0  501  502  0.00000000000E+00  0.00000000000E+00  0.34076947612E+02  0.34076947612E+02  0.00000000000E+00 0.  1.
         21   -1    0    0  502  503 -0.00000000000E+00 -0.00000000000E+00 -0.60981156929E+03  0.60981156929E+03  0.00000000000E+00 0.  1.
         24    1    1    2    0    0 -0.16829055098E+02  0.56213706000E+02 -0.32719304021E+03  0.34200248443E+03  0.80419002446E+02 0.  1.
          1    1    1    2  501    0 -0.78727237268E+01 -0.26294407997E+02  0.17812500624E+02  0.32720954284E+02  0.00000000000E+00 0. -1.
         -2    1    1    2    0  503  0.24701778825E+02 -0.29919298003E+02 -0.26635408209E+03  0.26916507819E+03  0.00000000000E+00 0.  1.
<mgrwt>
<rscale>  2 0.82898746E+02</rscale>
<asrwt>0</asrwt>
<pdfrwt beam="1">  1       21 0.52426072E-02 0.82898746E+02</pdfrwt>
<pdfrwt beam="2">  1       21 0.93817167E-01 0.82898746E+02</pdfrwt>
<totfact> 0.24443268E+05</totfact>
</mgrwt>
</event>
<event>
 5    1  0.1745726E+000  0.7701958E+02  0.7546771E-02  0.1337729E+00
         21   -1    0    0  503  502  0.00000000000E+00  0.00000000000E+00  0.24810832884E+03  0.24810832884E+03  0.00000000000E+00 0.  1.
         21   -1    0    0  501  503 -0.00000000000E+00 -0.00000000000E+00 -0.24384757207E+03  0.24384757207E+03  0.00000000000E+00 0. -1.
         24    1    1    2    0    0 -0.21902487405E+02 -0.37567917379E+02 -0.21996659601E+02  0.94032634541E+02  0.80419002446E+02 0.  0.
          1    1    1    2  501    0  0.19271548020E+01  0.42090508367E+02 -0.18293805451E+03  0.18772761280E+03  0.00000000000E+00 0. -1.
         -2    1    1    2    0  502  0.19975332603E+02 -0.45225909884E+01  0.20919547088E+03  0.21019565357E+03  0.00000000000E+00 0.  1.
<mgrwt>
<rscale>  2 0.77019581E+02</rscale>
<asrwt>0</asrwt>
<pdfrwt beam="1">  1       21 0.38170512E-01 0.77019581E+02</pdfrwt>
<pdfrwt beam="2">  1       21 0.37515011E-01 0.77019581E+02</pdfrwt>
<totfact> 0.48574391E+04</totfact>
</mgrwt>
</event>
<event>
 5    1  0.1745726E+000  0.8956558E+02  0.7546771E-02  0.1303907E+00
         21   -1    0    0  501  502  0.00000000000E+00  0.00000000000E+00  0.47526712068E+02  0.47526712068E+02  0.00000000000E+00 0. -1.
         21   -1    0    0  502  503 -0.00000000000E+00 -0.00000000000E+00 -0.20651513422E+03  0.20651513422E+03  0.00000000000E+00 0. -1.
         24    1    1    2    0    0 -0.37614484615E+02  0.59922285590E+02 -0.60790660302E+02  0.12315944989E+03  0.80419002446E+02 0. -1.
          1    1    1    2  501    0  0.20304217242E+02 -0.19970177920E+02 -0.62653668604E+01  0.29160316628E+02  0.00000000000E+00 0. -1.
         -2    1    1    2    0  503  0.17310267373E+02 -0.39952107670E+02 -0.91932394986E+02  0.10172207976E+03  0.00000000000E+00 0.  1.
<mgrwt>
<rscale>  2 0.89565577E+02</rscale>
<asrwt>0</asrwt>
<pdfrwt beam="1">  1       21 0.73118020E-02 0.89565577E+02</pdfrwt>
<pdfrwt beam="2">  1       21 0.31771559E-01 0.89565577E+02</pdfrwt>
<totfact> 0.13243273E+06</totfact>
</mgrwt>
</event>
<event>
 5    1  0.1745726E+000  0.7553344E+02  0.7546771E-02  0.1342227E+00
         21   -1    0    0  501  502  0.00000000000E+00  0.00000000000E+00  0.47052154567E+03  0.47052154567E+03  0.00000000000E+00 0. -1.
         21   -1    0    0  502  503 -0.00000000000E+00 -0.00000000000E+00 -0.52472213423E+02  0.52472213423E+02  0.00000000000E+00 0.  1.
         24    1    1    2    0    0  0.17668218604E+02  0.13947235329E+02  0.16799973040E+02  0.85183016913E+02  0.80419002446E+02 0. -1.
          1    1    1    2  501    0 -0.14525564569E+02  0.24768655559E+02  0.39777766732E+03  0.39881267651E+03  0.00000000000E+00 0. -1.
         -2    1    1    2    0  503 -0.31426540342E+01 -0.38715890889E+02  0.34716918883E+01  0.38998065673E+02  0.00000000000E+00 0.  1.
<mgrwt>
<rscale>  2 0.75533442E+02</rscale>
<asrwt>0</asrwt>
<pdfrwt beam="1">  1       21 0.72387927E-01 0.75533442E+02</pdfrwt>
<pdfrwt beam="2">  1       21 0.80726485E-02 0.75533442E+02</pdfrwt>
<totfact> 0.21044008E+05</totfact>
</mgrwt>
</event>
<event>
 5    1  0.1745726E+000  0.8450769E+02  0.7546771E-02  0.1316725E+00
         21   -1    0    0  501  502  0.00000000000E+00  0.00000000000E+00  0.21997707974E+02  0.21997707974E+02  0.00000000000E+00 0.  1.
         21   -1    0    0  502  503 -0.00000000000E+00 -0.00000000000E+00 -0.40502769440E+03  0.40502769440E+03  0.00000000000E+00 0. -1.
         24    1    1    2    0    0  0.33172865500E+02  0.13703145497E+02 -0.11670404091E+03  0.14620281913E+03  0.80419002446E+02 0.  1.
          1    1    1    2  501    0 -0.55628511636E+02 -0.17193937117E+02 -0.12771746450E+03  0.14036350494E+03  0.00000000000E+00 0. -1.
         -2    1    1    2    0  503  0.22455646137E+02  0.34907916200E+01 -0.13860848101E+03  0.14045907831E+03  0.00000000000E+00 0.  1.
<mgrwt>
<rscale>  2 0.84507692E+02</rscale>
<asrwt>0</asrwt>
<pdfrwt beam="1">  1       21 0.33842626E-02 0.84507692E+02</pdfrwt>
<pdfrwt beam="2">  1       21 0.62311955E-01 0.84507692E+02</pdfrwt>
<totfact> 0.12303769E+06</totfact>
</mgrwt>
</event>
<event>
 5    1  0.1745726E+000  0.8132353E+02  0.7546771E-02  0.1325337E+00
         21   -1    0    0  501  502  0.00000000000E+00  0.00000000000E+00  0.24917665269E+02  0.24917665269E+02  0.00000000000E+00 0. -1.
         21   -1    0    0  502  503 -0.00000000000E+00 -0.00000000000E+00 -0.47837663349E+03  0.47837663349E+03  0.00000000000E+00 0. -1.
         24    1    1    2    0    0  0.19482519697E+02  0.29917802177E+02 -0.31843046346E+03  0.33036316301E+03  0.80419002446E+02 0. -1.
          1    1    1    2  501    0 -0.36942918902E+02  0.33431304438E+01 -0.48123406546E+01  0.37404737678E+02  0.00000000000E+00 0. -1.
         -2    1    1    2    0  503  0.17460399205E+02 -0.33260932621E+02 -0.13021616410E+03  0.13552639807E+03  0.00000000000E+00 0.  1.
<mgrwt>
<rscale>  2 0.81323530E+02</rscale>
<asrwt>0</asrwt>
<pdfrwt beam="1">  1       21 0.38334872E-02 0.81323530E+02</pdfrwt>
<pdfrwt beam="2">  1       21 0.73596400E-01 0.81323530E+02</pdfrwt>
<totfact> 0.70254996E+05</totfact>
</mgrwt>
</event>
<event>
 5    1  0.1745726E+000  0.8976977E+02  0.7546771E-02  0.1303410E+00
         21   -1    0    0  501  502  0.00000000000E+00  0.00000000000E+00  0.17108768857E+03  0.17108768857E+03  0.00000000000E+00 0. -1.
         21   -1    0    0  502  503 -0.00000000000E+00 -0.00000000000E+00 -0.52154548913E+02  0.52154548913E+02  0.00000000000E+00 0.  1.
         24    1    1    2    0    0  0.81472841297E+01  0.55249321384E+02  0.97790825663E+02  0.13838037177E+03  0.80419002446E+02 0. -1.
          1    1    1    2  501    0  0.22321042769E+02 -0.50127354335E+01  0.15586500041E+01  0.22930020860E+02  0.00000000000E+00 0. -1.
         -2    1    1    2    0  503 -0.30468326898E+02 -0.50236585950E+02  0.19583663988E+02  0.61931844855E+02  0.00000000000E+00 0.  1.
<mgrwt>
<rscale>  2 0.89769766E+02</rscale>
<asrwt>0</asrwt>
<pdfrwt beam="1">  1       21 0.26321183E-01 0.89769766E+02</pdfrwt>
<pdfrwt beam="2">  1       21 0.80237768E-02 0.89769766E+02</pdfrwt>
<totfact> 0.16169563E+06</totfact>
</mgrwt>
</event>
<event>
 5    1  0.1745726E+000  0.9031116E+02  0.7546771E-02  0.1302100E+00
         21   -1    0    0  503  502  0.00000000000E+00  0.00000000000E+00  0.33660995442E+03  0.33660995442E+03  0.00000000000E+00 0.  1.
         21   -1    0    0  501  503 -0.00000000000E+00 -0.00000000000E+00 -0.10133282750E+03  0.10133282750E+03  0.00000000000E+00 0. -1.
         24    1    1    2    0    0 -0.82587716240E+01  0.29002363354E+02  0.21503397907E+01  0.85913819054E+02  0.80419002446E+02 0.  0.
          1    1    1    2  501    0 -0.18600093489E+02  0.26906458360E+02 -0.51342185496E+02  0.60876440359E+02  0.00000000000E+00 0. -1.
         -2    1    1    2    0  502  0.26858865113E+02 -0.55908821714E+02  0.28446897262E+03  0.29115252251E+03  0.00000000000E+00 0.  1.
<mgrwt>
<rscale>  2 0.90311156E+02</rscale>
<asrwt>0</asrwt>
<pdfrwt beam="1">  1       21 0.51786146E-01 0.90311156E+02</pdfrwt>
<pdfrwt beam="2">  1       21 0.15589666E-01 0.90311156E+02</pdfrwt>
<totfact> 0.13438429E+05</totfact>
</mgrwt>
</event>
<event>
 5    1  0.1745726E+000  0.9000681E+02  0.7546771E-02  0.1302835E+00
         21   -1    0    0  501  502  0.00000000000E+00  0.00000000000E+00  0.16171839437E+03  0.16171839437E+03  0.00000000000E+00 0.  1.
         21   -1    0    0  502  503 -0.00000000000E+00 -0.00000000000E+00 -0.65864351486E+02  0.65864351486E+02  0.00000000000E+00 0. -1.
         24    1    1    2    0    0 -0.25621989598E+02 -0.45366434340E+02  0.72553742254E+02  0.12019093637E+03  0.80419002446E+02 0.  0.
          1    1    1    2  501    0  0.14664794588E+02 -0.16087671643E+02  0.37512431024E+02  0.43371094758E+02  0.00000000000E+00 0. -1.
         -2    1    1    2    0  503  0.10957195011E+02  0.61454105983E+02 -0.14212130390E+02  0.64020714733E+02  0.00000000000E+00 0.  1.
<mgrwt>
<rscale>  2 0.90006812E+02</rscale>
<asrwt>0</asrwt>
<pdfrwt beam="1">  1       21 0.24879753E-01 0.90006812E+02</pdfrwt>
<pdfrwt beam="2">  1       21 0.10132977E-01 0.90006812E+02</pdfrwt>
<totfact> 0.12027625E+06</totfact>
</mgrwt>
</event>
<event>
 5    1  0.1745726E+000  0.8298143E+02  0.7546771E-02  0.1320797E+00
         21   -1    0    0  503  502  0.00000000000E+00  0.00000000000E+00  0.16391858749E+03  0.16391858749E+03  0.00000000000E+00 0.  1.
         21   -1    0    0  501  503 -0.00000000000E+00 -0.00000000000E+00 -0.27886007674E+03  0.27886007674E+03  0.00000000000E+00 0. -1.
         24    1    1    2    0    0 -0.36754952193E+02  0.60981358590E+00 -0.13194902732E+03  0.15883658316E+03  0.80419002446E+02 0. -1.
          1    1    1    2  501    0  0.52691394054E+02  0.15455815278E+02 -0.12689748492E+03  0.13826871270E+03  0.00000000000E+00 0. -1.
         -2    1    1    2    0  502 -0.15936441861E+02 -0.16065628864E+02  0.14390502299E+03  0.14567336837E+03  0.00000000000E+00 0.  1.
<mgrwt>
<rscale>  2 0.82981430E+02</rscale>
<asrwt>0</asrwt>
<pdfrwt beam="1">  1       21 0.25218244E-01 0.82981430E+02</pdfrwt>
<pdfrwt beam="2">  1       21 0.42901550E-01 0.82981430E+02</pdfrwt>
<totfact> 0.81944335E+04</totfact>
</mgrwt>
</event>
<event>
 5    1  0.1745726E+000  0.7339028E+02  0.7546771E-02  0.1348930E+00
         21   -1    0    0  503  502  0.00000000000E+00  0.00000000000E+00  0.11452320200E+03  0.11452320200E+03  0.00000000000E+00 0.  1.
         21   -1    0    0  501  503 -0.00000000000E+00 -0.00000000000E+00 -0.49618346778E+02  0.49618346778E+02  0.00000000000E+00 0. -1.
         24    1    1    2    0    0  0.28347954018E+02  0.16652110463E+02  0.26239796435E+02  0.90755948297E+02  0.80419002446E+02 0.  0.
          1    1    1    2  501    0 -0.16761024345E+02  0.17262780704E+02  0.57812239526E+01  0.24745870062E+02  0.00000000000E+00 0. -1.
         -2    1    1    2    0  502 -0.11586929672E+02 -0.33914891167E+02  0.32883834837E+02  0.48639730424E+02  0.00000000000E+00 0.  1.
<mgrwt>
<rscale>  2 0.73390283E+02</rscale>
<asrwt>0</asrwt>
<pdfrwt beam="1">  1       21 0.17618954E-01 0.73390283E+02</pdfrwt>
<pdfrwt beam="2">  1       21 0.76335918E-02 0.73390283E+02</pdfrwt>
<totfact> 0.36452659E+06</totfact>
</mgrwt>
</event>
<event>
 5    1  0.1745726E+000  0.1078735E+03  0.7546771E-02  0.1264559E+00
         21   -1    0    0  501  502  0.00000000000E+00  0.00000000000E+00  0.92152927552E+02  0.92152927552E+02  0.00000000000E+00 0.  1.
         21   -1    0    0  502  503 -0.00000000000E+00 -0.00000000000E+00 -0.16822526251E+03  0.16822526251E+03  0.00000000000E+00 0.  1.
         24    1    1    2    0    0 -0.61046283483E+02 -0.19171972140E+02 -0.26863516292E+02  0.10622183252E+03  0.80419002446E+02 0.  1.
          1    1    1    2  501    0 -0.10872664262E+02  0.37264637142E+02  0.27414097943E+02  0.47522634349E+02  0.00000000000E+00 0. -1.
         -2    1    1    2    0  503  0.71918947745E+02 -0.18092665002E+02 -0.76622916612E+02  0.10663372319E+03  0.00000000000E+00 0.  1.
<mgrwt>
<rscale>  2 0.10787352E+03</rscale>
<asrwt>0</asrwt>
<pdfrwt beam="1">  1       21 0.14177374E-01 0.10787352E+03</pdfrwt>
<pdfrwt beam="2">  1       21 0.25880809E-01 0.10787352E+03</pdfrwt>
<totfact> 0.61993519E+05</totfact>
</mgrwt>
</event>
<event>
 5    1  0.1745726E+000  0.8351564E+02  0.7546771E-02  0.1319361E+00
         21   -1    0    0  503  502  0.00000000000E+00  0.00000000000E+00  0.50825326828E+02  0.50825326828E+02  0.00000000000E+00 0.  1.
         21   -1    0    0  501  503 -0.00000000000E+00 -0.00000000000E+00 -0.37727978156E+03  0.37727978156E+03  0.00000000000E+00 0. -1.
         24    1    1    2    0    0 -0.33297155148E+02 -0.34886473902E+02 -0.48720642137E+01  0.93897388496E+02  0.80419002446E+02 0.  1.
          1    1    1    2  501    0 -0.21683055872E+01  0.37626786617E+02 -0.26288703831E+03  0.26557498288E+03  0.00000000000E+00 0. -1.
         -2    1    1    2    0  502  0.35465460735E+02 -0.27403127149E+01 -0.58695352209E+02  0.68632737013E+02  0.00000000000E+00 0.  1.
<mgrwt>
<rscale>  2 0.83515643E+02</rscale>
<asrwt>0</asrwt>
<pdfrwt beam="1">  1       21 0.78192809E-02 0.83515643E+02</pdfrwt>
<pdfrwt beam="2">  1       21 0.58043045E-01 0.83515643E+02</pdfrwt>
<totfact> 0.35423278E+05</totfact>
</mgrwt>
</event>
<event>
 5    1  0.1745726E+000  0.6739859E+02  0.7546771E-02  0.1369170E+00
         21   -1    0    0  501  502  0.00000000000E+00  0.00000000000E+00  0.87468106442E+02  0.87468106442E+02  0.00000000000E+00 0.  1.
         21   -1    0    0  502  503 -0.00000000000E+00 -0.00000000000E+00 -0.20329396520E+03  0.20329396520E+03  0.00000000000E+00 0.  1.
         24    1    1    2    0    0  0.26274405224E+02  0.12491464713E+02  0.61574373325E+02  0.10538026601E+03  0.80419002446E+02 0.  1.
          1    1    1    2  501    0 -0.64463199509E+01 -0.25010634813E+02 -0.55090830860E+02  0.60844774135E+02  0.00000000000E+00 0. -1.
         -2    1    1    2    0  503 -0.19828085274E+02  0.12519170101E+02 -0.12230940122E+03  0.12453703149E+03  0.00000000000E+00 0.  1.
<mgrwt>
<rscale>  2 0.67398586E+02</rscale>
<asrwt>0</asrwt>
<pdfrwt beam="1">  1       21 0.13456632E-01 0.67398586E+02</pdfrwt>
<pdfrwt beam="2">  1       21 0.31275994E-01 0.67398586E+02</pdfrwt>
<totfact> 0.47414142E+05</totfact>
</mgrwt>
</event>
<event>
 5    1  0.1745726E+000  0.7219132E+02  0.7546771E-02  0.1352796E+00
         21   -1    0    0  501  502  0.00000000000E+00  0.00000000000E+00  0.23086269773E+03  0.23086269773E+03  0.00000000000E+00 0. -1.
         21   -1    0    0  502  503 -0.00000000000E+00 -0.00000000000E+00 -0.18323015892E+03  0.18323015892E+03  0.00000000000E+00 0. -1.
         24    1    1    2    0    0  0.22213281314E+02 -0.48443157159E+01 -0.13682117588E+03  0.16032513024E+03  0.80419002446E+02 0. -1.
          1    1    1    2  501    0  0.14919458871E+02  0.16159041168E+02  0.20747426333E+03  0.20863670532E+03  0.00000000000E+00 0. -1.
         -2    1    1    2    0  503 -0.37132740185E+02 -0.11314725452E+02 -0.23020548634E+02  0.45131021095E+02  0.00000000000E+00 0.  1.
<mgrwt>
<rscale>  2 0.72191318E+02</rscale>
<asrwt>0</asrwt>
<pdfrwt beam="1">  1       21 0.35517338E-01 0.72191318E+02</pdfrwt>
<pdfrwt beam="2">  1       21 0.28189255E-01 0.72191318E+02</pdfrwt>
<totfact> 0.96998681E+04</totfact>
</mgrwt>
</event>
<event>
 5    1  0.1745726E+000  0.8166148E+02  0.7546771E-02  0.1324401E+00
         21   -1    0    0  503  502  0.00000000000E+00  0.00000000000E+00  0.35616520281E+03  0.35616520281E+03  0.00000000000E+00 0.  1.
         21   -1    0    0  501  503 -0.00000000000E+00 -0.00000000000E+00 -0.32629774984E+02  0.32629774984E+02  0.00000000000E+00 0.  1.
         24    1    1    2    0    0 -0.45947000363E+02  0.22491530070E+02  0.11497972562E+03  0.14934707571E+03  0.80419002446E+02 0.  1.
          1    1    1    2  501    0  0.19191526393E+02  0.13282220085E+02 -0.27232927159E+01  0.23497837749E+02  0.00000000000E+00 0. -1.
         -2    1    1    2    0  502  0.26755473970E+02 -0.35773750155E+02  0.21127899493E+03  0.21595006433E+03  0.00000000000E+00 0.  1.
<mgrwt>
<rscale>  2 0.81661476E+02</rscale>
<asrwt>0</asrwt>
<pdfrwt beam="1">  1       21 0.54794644E-01 0.81661476E+02</pdfrwt>
<pdfrwt beam="2">  1       21 0.50199656E-02 0.81661476E+02</pdfrwt>
<totfact> 0.84055763E+05</totfact>
</mgrwt>
</event>
<event>
 5    1  0.1745726E+000  0.6618384E+02  0.7546771E-02  0.1373573E+00
         21   -1    0    0  501  502  0.00000000000E+00  0.00000000000E+00  0.13532749846E+02  0.13532749846E+02  0.00000000000E+00 0.  1.
         21   -1    0    0  502  503 -0.00000000000E+00 -0.00000000000E+00 -0.44196895662E+03  0.44196895662E+03  0.00000000000E+00 0. -1.
         24    1    1    2    0    0  0.15413677478E+02  0.10990447555E+02 -0.33517756399E+03  0.34520948241E+03  0.80419002446E+02 0. -1.
          1    1    1    2  501    0  0.23289846466E+01 -0.26247211630E+02 -0.19141787610E+02  0.32569131409E+02  0.00000000000E+00 0. -1.
         -2    1    1    2    0  503 -0.17742662124E+02  0.15256764075E+02 -0.74116855175E+02  0.77723092645E+02  0.00000000000E+00 0.  1.
<mgrwt>
<rscale>  2 0.66183842E+02</rscale>
<asrwt>0</asrwt>
<pdfrwt beam="1">  1       21 0.20819615E-02 0.66183842E+02</pdfrwt>
<pdfrwt beam="2">  1       21 0.67995225E-01 0.66183842E+02</pdfrwt>
<totfact> 0.22168267E+06</totfact>
</mgrwt>
</event>
<event>
 5    1  0.1745726E+000  0.1248112E+03  0.7546771E-02  0.1235365E+00
         21   -1    0    0  503  502  0.00000000000E+00  0.00000000000E+00  0.10821373995E+03  0.10821373995E+03  0.00000000000E+00 0.  1.
         21   -1    0    0  501  503 -0.00000000000E+00 -0.00000000000E+00 -0.29369112155E+03  0.29369112155E+03  0.00000000000E+00 0. -1.
         24    1    1    2    0    0  0.76768781808E+02 -0.51166275538E+01 -0.93678650502E+02  0.14547347268E+03  0.80419002446E+02 0.  1.
          1    1    1    2  501    0  0.22530443594E+02  0.28481109155E+02 -0.13926207840E+03  0.14391914726E+03  0.00000000000E+00 0. -1.
         -2    1    1    2    0  502 -0.99299225402E+02 -0.23364481601E+02  0.47463347296E+02  0.11251224157E+03  0.00000000000E+00 0.  1.
<mgrwt>
<rscale>  2 0.12481118E+03</rscale>
<asrwt>0</asrwt>
<pdfrwt beam="1">  1       21 0.16648268E-01 0.12481118E+03</pdfrwt>
<pdfrwt beam="2">  1       21 0.45183249E-01 0.12481118E+03</pdfrwt>
<totfact> 0.15565993E+05</totfact>
</mgrwt>
</event>
<event>
 5    1  0.1745726E+000  0.9638500E+02  0.7546771E-02  0.1288087E+00
         21   -1    0    0  501  502  0.00000000000E+00  0.00000000000E+00  0.86722243163E+03  0.86722243163E+03  0.00000000000E+00 0.  1.
         21   -1    0    0  502  503 -0.00000000000E+00 -0.00000000000E+00 -0.11801078339E+02  0.11801078339E+02  0.00000000000E+00 0. -1.
         24    1    1    2    0    0 -0.29854728705E+02 -0.14708736999E+02  0.46329865724E+03  0.47140270844E+03  0.80419002446E+02 0.  1.
          1    1    1    2  501    0  0.60632131582E+02  0.33900158355E+02  0.31247535684E+03  0.32010361565E+03  0.00000000000E+00 0. -1.
         -2    1    1    2    0  503 -0.30777402877E+02 -0.19191421357E+02  0.79647339211E+02  0.87517185883E+02  0.00000000000E+00 0.  1.
<mgrwt>
<rscale>  2 0.96385001E+02</rscale>
<asrwt>0</asrwt>
<pdfrwt beam="1">  1       21 0.13341879E+00 0.96385001E+02</pdfrwt>
<pdfrwt beam="2">  1       21 0.18155512E-02 0.96385001E+02</pdfrwt>
<totfact> 0.59456809E+05</totfact>
</mgrwt>
</event>
<event>
 5    1  0.1745726E+000  0.8511427E+02  0.7546771E-02  0.1315134E+00
         21   -1    0    0  503  502  0.00000000000E+00  0.00000000000E+00  0.10431391467E+03  0.10431391467E+03  0.00000000000E+00 0. -1.
         21   -1    0    0  501  503 -0.00000000000E+00 -0.00000000000E+00 -0.71967172358E+02  0.71967172358E+02  0.00000000000E+00 0.  1.
         24    1    1    2    0    0  0.55987430461E+02 -0.13805417334E+02  0.34140302508E+01  0.99015420387E+02  0.80419002446E+02 0.  1.
          1    1    1    2  501    0 -0.49474521244E+02 -0.65442791468E+01  0.16591945673E+02  0.52591334867E+02  0.00000000000E+00 0. -1.
         -2    1    1    2    0  502 -0.65129092168E+01  0.20349696481E+02  0.12340766383E+02  0.24674331769E+02  0.00000000000E+00 0.  1.
<mgrwt>
<rscale>  2 0.85114267E+02</rscale>
<asrwt>0</asrwt>
<pdfrwt beam="1">  1       21 0.16048294E-01 0.85114267E+02</pdfrwt>
<pdfrwt beam="2">  1       21 0.11071873E-01 0.85114267E+02</pdfrwt>
<totfact> 0.22949263E+06</totfact>
</mgrwt>
</event>
<event>
 5    1  0.1745726E+000  0.6828032E+02  0.7546771E-02  0.1366040E+00
         21   -1    0    0  503  502  0.00000000000E+00  0.00000000000E+00  0.42297802913E+03  0.42297802913E+03  0.00000000000E+00 0.  1.
         21   -1    0    0  501  503 -0.00000000000E+00 -0.00000000000E+00 -0.61803006171E+02  0.61803006171E+02  0.00000000000E+00 0. -1.
         24    1    1    2    0    0  0.86308809103E+01  0.18701466747E+02 -0.17726672937E+02  0.84886323112E+02  0.80419002446E+02 0. -1.
          1    1    1    2  501    0  0.74847091382E+01 -0.31868232497E+02  0.16070721587E+02  0.36467426639E+02  0.00000000000E+00 0. -1.
         -2    1    1    2    0  502 -0.16115590049E+02  0.13166765750E+02  0.36283097430E+03  0.36342728554E+03  0.00000000000E+00 0.  1.
<mgrwt>
<rscale>  2 0.68280316E+02</rscale>
<asrwt>0</asrwt>
<pdfrwt beam="1">  1       21 0.65073541E-01 0.68280316E+02</pdfrwt>
<pdfrwt beam="2">  1       21 0.95081551E-02 0.68280316E+02</pdfrwt>
<totfact> 0.20023168E+05</totfact>
</mgrwt>
</event>
<event>
 5    1  0.1745726E+000  0.6841691E+02  0.7546771E-02  0.1365561E+00
         21   -1    0    0  503  502  0.00000000000E+00  0.00000000000E+00  0.34657900940E+03  0.34657900940E+03  0.00000000000E+00 0.  1.
         21   -1    0    0  501  503 -0.00000000000E+00 -0.00000000000E+00 -0.56922391540E+02  0.56922391540E+02  0.00000000000E+00 0. -1.
         24    1    1    2    0    0  0.38373890347E+01  0.24329021291E+01  0.23507801439E+02  0.83907551807E+02  0.80419002446E+02 0.  0.
          1    1    1    2  501    0 -0.29563856935E+02 -0.64201832954E+01 -0.17368246295E+02  0.34884041764E+02  0.00000000000E+00 0. -1.
         -2    1    1    2    0  502  0.25726467901E+02  0.39872811663E+01  0.28351706271E+03  0.28470980737E+03  0.00000000000E+00 0.  1.
<mgrwt>
<rscale>  2 0.68416910E+02</rscale>
<asrwt>0</asrwt>
<pdfrwt beam="1">  1       21 0.53319846E-01 0.68416910E+02</pdfrwt>
<pdfrwt beam="2">  1       21 0.87572912E-02 0.68416910E+02</pdfrwt>
<totfact> 0.34854209E+05</totfact>
</mgrwt>
</event>
<event>
 5    1  0.1745726E+000  0.6356761E+02  0.7546771E-02  0.1383442E+00
         21   -1    0    0  501  502  0.00000000000E+00  0.00000000000E+00  0.49393165200E+02  0.49393165200E+02  0.00000000000E+00 0. -1.
         21   -1    0    0  502  503 -0.00000000000E+00 -0.00000000000E+00 -0.11694153239E+03  0.11694153239E+03  0.00000000000E+00 0.  1.
         24    1    1    2    0    0  0.89639834082E+01 -0.83421716939E+01 -0.28590567847E+01  0.81396160764E+02  0.80419002446E+02 0.  0.
          1    1    1    2  501    0 -0.13479165198E+02 -0.16063427348E+02 -0.69509062798E+01  0.22091552474E+02  0.00000000000E+00 0. -1.
         -2    1    1    2    0  503  0.45151817902E+01  0.24405599042E+02 -0.57738404125E+02  0.62846984351E+02  0.00000000000E+00 0.  1.
<mgrwt>
<rscale>  2 0.63567613E+02</rscale>
<asrwt>0</asrwt>
<pdfrwt beam="1">  1       21 0.75989486E-02 0.63567613E+02</pdfrwt>
<pdfrwt beam="2">  1       21 0.17991005E-01 0.63567613E+02</pdfrwt>
<totfact> 0.35037536E+06</totfact>
</mgrwt>
</event>
<event>
 5    1  0.1745726E+000  0.7204380E+02  0.7546771E-02  0.1353278E+00
         21   -1    0    0  503  502  0.00000000000E+00  0.00000000000E+00  0.14910481009E+03  0.14910481009E+03  0.00000000000E+00 0.  1.
         21   -1    0    0  501  503 -0.00000000000E+00 -0.00000000000E+00 -0.10104312117E+03  0.10104312117E+03  0.00000000000E+00 0.  1.
         24    1    1    2    0    0  0.83900842247E+01  0.18754711904E+02 -0.11671645201E+02  0.83818709057E+02  0.80419002446E+02 0.  1.
          1    1    1    2  501    0 -0.32306524923E+02 -0.18373936092E+02 -0.45306549302E+02  0.58600311345E+02  0.00000000000E+00 0. -1.
         -2    1    1    2    0  502  0.23916440698E+02 -0.38077581118E+00  0.10503988342E+03  0.10772891086E+03  0.00000000000E+00 0.  1.
<mgrwt>
<rscale>  2 0.72043796E+02</rscale>
<asrwt>0</asrwt>
<pdfrwt beam="1">  1       21 0.22939202E-01 0.72043796E+02</pdfrwt>
<pdfrwt beam="2">  1       21 0.15545096E-01 0.72043796E+02</pdfrwt>
<totfact> 0.65682109E+05</totfact>
</mgrwt>
</event>
<event>
 5    1  0.1745726E+000  0.9989058E+02  0.7546771E-02  0.1280526E+00
         21   -1    0    0  503  502  0.00000000000E+00  0.00000000000E+00  0.20009739152E+02  0.20009739152E+02  0.00000000000E+00 0. -1.
         21   -1    0    0  501  503 -0.00000000000E+00 -0.00000000000E+00 -0.58502003511E+03  0.58502003511E+03  0.00000000000E+00 0.  1.
         24    1    1    2    0    0  0.22431139386E+02 -0.14607042269E+02 -0.15104136341E+03  0.17319708748E+03  0.80419002446E+02 0. -1.
          1    1    1    2  501    0  0.45407713814E+02 -0.97766481893E+00 -0.24351719491E+03  0.24771645186E+03  0.00000000000E+00 0. -1.
         -2    1    1    2    0  502 -0.67838853200E+02  0.15584707088E+02 -0.17045173763E+03  0.18411623492E+03  0.00000000000E+00 0.  1.
<mgrwt>
<rscale>  2 0.99890577E+02</rscale>
<asrwt>0</asrwt>
<pdfrwt beam="1">  1       21 0.30784216E-02 0.99890577E+02</pdfrwt>
<pdfrwt beam="2">  1       21 0.90003077E-01 0.99890577E+02</pdfrwt>
<totfact> 0.64382616E+05</totfact>
</mgrwt>
</event>
<event>
 5    1  0.1745726E+000  0.8999323E+02  0.7546771E-02  0.1302868E+00
         21   -1    0    0  501  502  0.00000000000E+00  0.00000000000E+00  0.88552421510E+03  0.88552421510E+03  0.00000000000E+00 0. -1.
         21   -1    0    0  502  503 -0.00000000000E+00 -0.00000000000E+00 -0.14151710135E+02  0.14151710135E+02  0.00000000000E+00 0.  1.
         24    1    1    2    0    0 -0.61902069913E+01 -0.30328306541E+02  0.27051461044E+03  0.28390754702E+03  0.80419002446E+02 0.  1.
          1    1    1    2  501    0 -0.41293730683E+02  0.13889013809E+02  0.51068395844E+03  0.51253895686E+03  0.00000000000E+00 0. -1.
         -2    1    1    2    0  503  0.47483937674E+02  0.16439292732E+02  0.90173936093E+02  0.10322942135E+03  0.00000000000E+00 0.  1.
<mgrwt>
<rscale>  2 0.89993234E+02</rscale>
<asrwt>0</asrwt>
<pdfrwt beam="1">  1       21 0.13623445E+00 0.89993234E+02</pdfrwt>
<pdfrwt beam="2">  1       21 0.21771869E-02 0.89993234E+02</pdfrwt>
<totfact> 0.42276328E+05</totfact>
</mgrwt>
</event>
<event>
 5    1  0.1745726E+000  0.8577468E+02  0.7546771E-02  0.1313419E+00
         21   -1    0    0  501  502  0.00000000000E+00  0.00000000000E+00  0.21575190467E+02  0.21575190467E+02  0.00000000000E+00 0.  1.
         21   -1    0    0  502  503 -0.00000000000E+00 -0.00000000000E+00 -0.34654726134E+03  0.34654726134E+03  0.00000000000E+00 0.  1.
         24    1    1    2    0    0 -0.27929761534E+02 -0.94531149415E+01 -0.13899164606E+03  0.16326459074E+03  0.80419002446E+02 0.  1.
          1    1    1    2  501    0  0.21949864594E+02 -0.34852103404E+02 -0.88908555973E+02  0.97985697898E+02  0.00000000000E+00 0. -1.
         -2    1    1    2    0  503  0.59798969401E+01  0.44305218346E+02 -0.97071868840E+02  0.10687216317E+03  0.00000000000E+00 0.  1.
<mgrwt>
<rscale>  2 0.85774683E+02</rscale>
<asrwt>0</asrwt>
<pdfrwt beam="1">  1       21 0.33192602E-02 0.85774683E+02</pdfrwt>
<pdfrwt beam="2">  1       21 0.53314962E-01 0.85774683E+02</pdfrwt>
<totfact> 0.17582748E+06</totfact>
</mgrwt>
</event>
<event>
 5    1  0.1745726E+000  0.7022250E+02  0.7546771E-02  0.1359338E+00
         21   -1    0    0  501  502  0.00000000000E+00  0.00000000000E+00  0.32045156452E+02  0.32045156452E+02  0.00000000000E+00 0. -1.
         21   -1    0    0  502  503 -0.00000000000E+00 -0.00000000000E+00 -0.24800627773E+03  0.24800627773E+03  0.00000000000E+00 0. -1.
         24    1    1    2    0    0 -0.86985043779E+01 -0.16186181040E+02 -0.17466852494E+03  0.19316823237E+03  0.80419002446E+02 0. -1.
          1    1    1    2  501    0 -0.79088022492E+01  0.33228938529E+02  0.52997410939E+01  0.34565861257E+02  0.00000000000E+00 0. -1.
         -2    1    1    2    0  503  0.16607306627E+02 -0.17042757488E+02 -0.46592337432E+02  0.52317340563E+02  0.00000000000E+00 0.  1.
<mgrwt>
<rscale>  2 0.70222495E+02</rscale>
<asrwt>0</asrwt>
<pdfrwt beam="1">  1       21 0.49300241E-02 0.70222495E+02</pdfrwt>
<pdfrwt beam="2">  1       21 0.38154811E-01 0.70222495E+02</pdfrwt>
<totfact> 0.17822559E+06</totfact>
</mgrwt>
</event>
<event>
 5    1  0.1745726E+000  0.8158469E+02  0.7546771E-02  0.1324614E+00
         21   -1    0    0  501  502  0.00000000000E+00  0.00000000000E+00  0.86669240145E+02  0.86669240145E+02  0.00000000000E+00 0.  1.
         21   -1    0    0  502  503 -0.00000000000E+00 -0.00000000000E+00 -0.86710729830E+02  0.86710729830E+02  0.00000000000E+00 0.  1.
         24    1    1    2    0    0 -0.39923553129E+02 -0.12063087768E+02  0.28378513472E+02  0.94931365534E+02  0.80419002446E+02 0.  0.
          1    1    1    2  501    0  0.34079201187E+02 -0.20316889243E+02 -0.10775564516E+02  0.41113023882E+02  0.00000000000E+00 0. -1.
         -2    1    1    2    0  503  0.58443519416E+01  0.32379977010E+02 -0.17644438641E+02  0.37335580560E+02  0.00000000000E+00 0.  1.
<mgrwt>
<rscale>  2 0.81584693E+02</rscale>
<asrwt>0</asrwt>
<pdfrwt beam="1">  1       21 0.13333729E-01 0.81584693E+02</pdfrwt>
<pdfrwt beam="2">  1       21 0.13340112E-01 0.81584693E+02</pdfrwt>
<totfact> 0.22969046E+06</totfact>
</mgrwt>
</event>
<event>
 5    1  0.1745726E+000  0.1044468E+03  0.7546771E-02  0.1271213E+00
         21   -1    0    0  503  502  0.00000000000E+00  0.00000000000E+00  0.48673116439E+02  0.48673116439E+02  0.00000000000E+00 0.  1.
         21   -1    0    0  501  503 -0.00000000000E+00 -0.00000000000E+00 -0.73486696872E+03  0.73486696872E+03  0.00000000000E+00 0. -1.
         24    1    1    2    0    0  0.74425431933E+02  0.47854287145E+02 -0.25781088359E+03  0.28418804579E+03  0.80419002446E+02 0. -1.
          1    1    1    2  501    0 -0.47008988954E+02 -0.37062837531E+02 -0.45543537316E+03  0.45935267290E+03  0.00000000000E+00 0. -1.
         -2    1    1    2    0  502 -0.27416442979E+02 -0.10791449614E+02  0.27052404475E+02  0.39999366473E+02  0.00000000000E+00 0.  1.
<mgrwt>
<rscale>  2 0.10444684E+03</rscale>
<asrwt>0</asrwt>
<pdfrwt beam="1">  1       21 0.74881724E-02 0.10444684E+03</pdfrwt>
<pdfrwt beam="2">  1       21 0.11305645E+00 0.10444684E+03</pdfrwt>
<totfact> 0.85887939E+04</totfact>
</mgrwt>
</event>
<event>
 5    1  0.1745726E+000  0.6799180E+02  0.7546771E-02  0.1367058E+00
         21   -1    0    0  503  502  0.00000000000E+00  0.00000000000E+00  0.48182415332E+02  0.48182415332E+02  0.00000000000E+00 0.  1.
         21   -1    0    0  501  503 -0.00000000000E+00 -0.00000000000E+00 -0.14785238138E+03  0.14785238138E+03  0.00000000000E+00 0.  1.
         24    1    1    2    0    0  0.94669997821E+01 -0.41393816201E+02 -0.93910298449E+02  0.13072655512E+03  0.80419002446E+02 0.  1.
          1    1    1    2  501    0 -0.12266314285E+02  0.19968639974E+02 -0.26487317683E+02  0.35366467828E+02  0.00000000000E+00 0. -1.
         -2    1    1    2    0  502  0.27993145027E+01  0.21425176227E+02  0.20727650085E+02  0.29941773763E+02  0.00000000000E+00 0.  1.
<mgrwt>
<rscale>  2 0.67991804E+02</rscale>
<asrwt>0</asrwt>
<pdfrwt beam="1">  1       21 0.74126792E-02 0.67991804E+02</pdfrwt>
<pdfrwt beam="2">  1       21 0.22746520E-01 0.67991804E+02</pdfrwt>
<totfact> 0.23965555E+06</totfact>
</mgrwt>
</event>
<event>
 5    1  0.1745726E+000  0.8410765E+02  0.7546771E-02  0.1317783E+00
         21   -1    0    0  501  502  0.00000000000E+00  0.00000000000E+00  0.13706137840E+03  0.13706137840E+03  0.00000000000E+00 0. -1.
         21   -1    0    0  502  503 -0.00000000000E+00 -0.00000000000E+00 -0.11542483713E+03  0.11542483713E+03  0.00000000000E+00 0. -1.
         24    1    1    2    0    0  0.15442245949E+02  0.34935950851E+02 -0.59359493414E+02  0.10700350010E+03  0.80419002446E+02 0. -1.
          1    1    1    2  501    0  0.21879370775E+02  0.70719078973E+01  0.86044791441E+02  0.89064161597E+02  0.00000000000E+00 0. -1.
         -2    1    1    2    0  503 -0.37321616724E+02 -0.42007858748E+02 -0.50487567549E+01  0.56418553830E+02  0.00000000000E+00 0.  1.
<mgrwt>
<rscale>  2 0.84107645E+02</rscale>
<asrwt>0</asrwt>
<pdfrwt beam="1">  1       21 0.21086366E-01 0.84107645E+02</pdfrwt>
<pdfrwt beam="2">  1       21 0.17757667E-01 0.84107645E+02</pdfrwt>
<totfact> 0.60513866E+05</totfact>
</mgrwt>
</event>
<event>
 5    1  0.1745726E+000  0.2090739E+03  0.7546771E-02  0.1142301E+00
         21   -1    0    0  501  502  0.00000000000E+00  0.00000000000E+00  0.93000198058E+02  0.93000198058E+02  0.00000000000E+00 0. -1.
         21   -1    0    0  502  503 -0.00000000000E+00 -0.00000000000E+00 -0.13545434410E+04  0.13545434410E+04  0.00000000000E+00 0.  1.
         24    1    1    2    0    0  0.45859276658E+02 -0.11936584294E+03 -0.27726584282E+03  0.31574489903E+03  0.80419002446E+02 0.  1.
          1    1    1    2  501    0 -0.13976477297E+03  0.98241048769E+02 -0.30942548641E+02  0.17361721327E+03  0.00000000000E+00 0. -1.
         -2    1    1    2    0  503  0.93905496314E+02  0.21124794170E+02 -0.95333485150E+03  0.95818152678E+03  0.00000000000E+00 0.  1.
<mgrwt>
<rscale>  2 0.20907391E+03</rscale>
<asrwt>0</asrwt>
<pdfrwt beam="1">  1       21 0.14307723E-01 0.20907391E+03</pdfrwt>
<pdfrwt beam="2">  1       21 0.20839129E+00 0.20907391E+03</pdfrwt>
<totfact> 0.50005236E+03</totfact>
</mgrwt>
</event>
<event>
 5    1  0.1745726E+000  0.9304336E+02  0.7546771E-02  0.1295645E+00
         21   -1    0    0  501  502  0.00000000000E+00  0.00000000000E+00  0.25312758403E+03  0.25312758403E+03  0.00000000000E+00 0.  1.
         21   -1    0    0  502  503 -0.00000000000E+00 -0.00000000000E+00 -0.47222858002E+02  0.47222858002E+02  0.00000000000E+00 0. -1.
         24    1    1    2    0    0  0.52701814653E+02  0.32168756525E+02  0.10991000313E+03  0.14953171873E+03  0.80419002446E+02 0.  0.
          1    1    1    2  501    0 -0.33956945551E+02  0.12556552726E+02  0.95704299966E+02  0.10232328278E+03  0.00000000000E+00 0. -1.
         -2    1    1    2    0  503 -0.18744869103E+02 -0.44725309251E+02  0.29042292893E+00  0.48495440515E+02  0.00000000000E+00 0.  1.
<mgrwt>
<rscale>  2 0.93043364E+02</rscale>
<asrwt>0</asrwt>
<pdfrwt beam="1">  1       21 0.38942704E-01 0.93043364E+02</pdfrwt>
<pdfrwt beam="2">  1       21 0.72650552E-02 0.93043364E+02</pdfrwt>
<totfact> 0.90154109E+05</totfact>
</mgrwt>
</event>
<event>
 5    1  0.1745726E+000  0.8952359E+02  0.7546771E-02  0.1304010E+00
         21   -1    0    0  501  502  0.00000000000E+00  0.00000000000E+00  0.15215769563E+03  0.15215769563E+03  0.00000000000E+00 0.  1.
         21   -1    0    0  502  503 -0.00000000000E+00 -0.00000000000E+00 -0.12731538586E+03  0.12731538586E+03  0.00000000000E+00 0.  1.
         24    1    1    2    0    0  0.46594255545E+02  0.27611215799E+02 -0.93834887792E+02  0.13492815128E+03  0.80419002446E+02 0.  1.
          1    1    1    2  501    0 -0.42409580229E+02  0.10548615788E+02  0.70459138993E+02  0.82911615940E+02  0.00000000000E+00 0. -1.
         -2    1    1    2    0  503 -0.41846753164E+01 -0.38159831587E+02  0.48218058577E+02  0.61633314264E+02  0.00000000000E+00 0.  1.
<mgrwt>
<rscale>  2 0.89523586E+02</rscale>
<asrwt>0</asrwt>
<pdfrwt beam="1">  1       21 0.23408876E-01 0.89523586E+02</pdfrwt>
<pdfrwt beam="2">  1       21 0.19586982E-01 0.89523586E+02</pdfrwt>
<totfact> 0.41758251E+05</totfact>
</mgrwt>
</event>
<event>
 5    1  0.1745726E+000  0.8315303E+02  0.7546771E-02  0.1320334E+00
         21   -1    0    0  501  502  0.00000000000E+00  0.00000000000E+00  0.90121471386E+03  0.90121471386E+03  0.00000000000E+00 0. -1.
         21   -1    0    0  502  503 -0.00000000000E+00 -0.00000000000E+00 -0.73040336668E+02  0.73040336668E+02  0.00000000000E+00 0.  1.
         24    1    1    2    0    0  0.45512032678E+01  0.75579094673E+01 -0.45242958273E+02  0.92692915988E+02  0.80419002446E+02 0.  1.
          1    1    1    2  501    0 -0.15330078091E+02 -0.44424168247E+02  0.76677157916E+03  0.76821037003E+03  0.00000000000E+00 0. -1.
         -2    1    1    2    0  503  0.10778874824E+02  0.36866258780E+02  0.10664575631E+03  0.11335176451E+03  0.00000000000E+00 0.  1.
<mgrwt>
<rscale>  2 0.83153033E+02</rscale>
<asrwt>0</asrwt>
<pdfrwt beam="1">  1       21 0.13864841E+00 0.83153033E+02</pdfrwt>
<pdfrwt beam="2">  1       21 0.11236975E-01 0.83153033E+02</pdfrwt>
<totfact> 0.26430877E+04</totfact>
</mgrwt>
</event>
<event>
 5    1  0.1745726E+000  0.9020110E+02  0.7546771E-02  0.1302365E+00
         21   -1    0    0  501  502  0.00000000000E+00  0.00000000000E+00  0.12660644600E+04  0.12660644600E+04  0.00000000000E+00 0.  1.
         21   -1    0    0  502  503 -0.00000000000E+00 -0.00000000000E+00 -0.76909003112E+01  0.76909003112E+01  0.00000000000E+00 0. -1.
         24    1    1    2    0    0 -0.70547390234E+02  0.47814879731E+01  0.47356824655E+03  0.48552435262E+03  0.80419002446E+02 0. -1.
          1    1    1    2  501    0  0.46463863836E+02 -0.12343049858E+02  0.53284586454E+03  0.53501023998E+03  0.00000000000E+00 0. -1.
         -2    1    1    2    0  503  0.24083526398E+02  0.75615618847E+01  0.25195944864E+03  0.25322076775E+03  0.00000000000E+00 0.  1.
<mgrwt>
<rscale>  2 0.90201102E+02</rscale>
<asrwt>0</asrwt>
<pdfrwt beam="1">  1       21 0.19477898E+00 0.90201102E+02</pdfrwt>
<pdfrwt beam="2">  1       21 0.11832164E-02 0.90201102E+02</pdfrwt>
<totfact> 0.43500184E+05</totfact>
</mgrwt>
</event>
<event>
 5    1  0.1745726E+000  0.7220435E+02  0.7546771E-02  0.1352754E+00
         21   -1    0    0  503  502  0.00000000000E+00  0.00000000000E+00  0.26072614599E+04  0.26072614599E+04  0.00000000000E+00 0. -1.
         21   -1    0    0  501  503 -0.00000000000E+00 -0.00000000000E+00 -0.32779056830E+01  0.32779056830E+01  0.00000000000E+00 0.  1.
         24    1    1    2    0    0  0.20398065799E+02  0.18217790049E+02  0.21803646163E+04  0.21820185711E+04  0.80419002446E+02 0. -1.
          1    1    1    2  501    0  0.17749289177E+02 -0.10248452917E+02  0.75679926570E+02  0.78406117996E+02  0.00000000000E+00 0. -1.
         -2    1    1    2    0  502 -0.38147354977E+02 -0.79693371317E+01  0.34793901137E+03  0.35011467644E+03  0.00000000000E+00 0.  1.
<mgrwt>
<rscale>  2 0.72204353E+02</rscale>
<asrwt>0</asrwt>
<pdfrwt beam="1">  1       21 0.40111549E+00 0.72204353E+02</pdfrwt>
<pdfrwt beam="2">  1       21 0.50429527E-03 0.72204353E+02</pdfrwt>
<totfact> 0.11431685E+05</totfact>
</mgrwt>
</event>
<event>
 5    1  0.1745726E+000  0.6827096E+02  0.7546771E-02  0.1366073E+00
         21   -1    0    0  501  502  0.00000000000E+00  0.00000000000E+00  0.58311108281E+02  0.58311108281E+02  0.00000000000E+00 0. -1.
         21   -1    0    0  502  503 -0.00000000000E+00 -0.00000000000E+00 -0.16868812103E+03  0.16868812103E+03  0.00000000000E+00 0. -1.
         24    1    1    2    0    0 -0.13804538533E+02 -0.20305784469E+02 -0.10626773559E+03  0.13550991753E+03  0.80419002446E+02 0. -1.
          1    1    1    2  501    0  0.16638840452E+02 -0.11691307353E+02  0.35244246598E+02  0.40690227297E+02  0.00000000000E+00 0. -1.
         -2    1    1    2    0  503 -0.28343019192E+01  0.31997091823E+02 -0.39353523763E+02  0.50799084490E+02  0.00000000000E+00 0.  1.
<mgrwt>
<rscale>  2 0.68270963E+02</rscale>
<asrwt>0</asrwt>
<pdfrwt beam="1">  1       21 0.89709397E-02 0.68270963E+02</pdfrwt>
<pdfrwt beam="2">  1       21 0.25952019E-01 0.68270963E+02</pdfrwt>
<totfact> 0.13588910E+06</totfact>
</mgrwt>
</event>
<event>
 5    1  0.1745726E+000  0.6787268E+02  0.7546771E-02  0.1367480E+00
         21   -1    0    0  501  502  0.00000000000E+00  0.00000000000E+00  0.46057158437E+02  0.46057158437E+02  0.00000000000E+00 0. -1.
         21   -1    0    0  502  503 -0.00000000000E+00 -0.00000000000E+00 -0.22031298339E+03  0.22031298339E+03  0.00000000000E+00 0. -1.
         24    1    1    2    0    0  0.75977903723E+01  0.32567831997E+02 -0.14473250814E+03  0.16891745015E+03  0.80419002446E+02 0. -1.
          1    1    1    2  501    0  0.12622319691E+02 -0.23098675748E+02  0.26373424911E+02  0.37261633314E+02  0.00000000000E+00 0. -1.
         -2    1    1    2    0  503 -0.20220110063E+02 -0.94691562485E+01 -0.55896741723E+02  0.60191058358E+02  0.00000000000E+00 0.  1.
<mgrwt>
<rscale>  2 0.67872677E+02</rscale>
<asrwt>0</asrwt>
<pdfrwt beam="1">  1       21 0.70857168E-02 0.67872677E+02</pdfrwt>
<pdfrwt beam="2">  1       21 0.33894305E-01 0.67872677E+02</pdfrwt>
<totfact> 0.12228697E+06</totfact>
</mgrwt>
</event>
<event>
 5    1  0.1745726E+000  0.1310642E+03  0.7546771E-02  0.1225885E+00
         21   -1    0    0  503  502  0.00000000000E+00  0.00000000000E+00  0.11164795523E+03  0.11164795523E+03  0.00000000000E+00 0.  1.
         21   -1    0    0  501  503 -0.00000000000E+00 -0.00000000000E+00 -0.36699464949E+03  0.36699464949E+03  0.00000000000E+00 0.  1.
         24    1    1    2    0    0  0.83076985881E+02  0.55022228807E+02 -0.23546821185E+03  0.26803306884E+03  0.80419002446E+02 0.  1.
          1    1    1    2  501    0  0.12963523232E+02 -0.33129628237E+02 -0.85258151190E+02  0.92382777324E+02  0.00000000000E+00 0. -1.
         -2    1    1    2    0  502 -0.96040509113E+02 -0.21892600569E+02  0.65379668777E+02  0.11822675856E+03  0.00000000000E+00 0.  1.
<mgrwt>
<rscale>  2 0.13106419E+03</rscale>
<asrwt>0</asrwt>
<pdfrwt beam="1">  1       21 0.17176609E-01 0.13106419E+03</pdfrwt>
<pdfrwt beam="2">  1       21 0.56460715E-01 0.13106419E+03</pdfrwt>
<totfact> 0.92585824E+04</totfact>
</mgrwt>
</event>
<event>
 5    1  0.1745726E+000  0.6731014E+02  0.7546771E-02  0.1369486E+00
         21   -1    0    0  501  502  0.00000000000E+00  0.00000000000E+00  0.67265561062E+02  0.67265561062E+02  0.00000000000E+00 0.  1.
         21   -1    0    0  502  503 -0.00000000000E+00 -0.00000000000E+00 -0.69469128331E+02  0.69469128331E+02  0.00000000000E+00 0. -1.
         24    1    1    2    0    0  0.15637019411E+02  0.53291861232E+01  0.96616280805E+00  0.82103995187E+02  0.80419002446E+02 0.  1.
          1    1    1    2  501    0 -0.23763989389E+02  0.16697629438E+02  0.55802614512E+01  0.29574944436E+02  0.00000000000E+00 0. -1.
         -2    1    1    2    0  503  0.81269699776E+01 -0.22026815561E+02 -0.87499915275E+01  0.25055749769E+02  0.00000000000E+00 0.  1.
<mgrwt>
<rscale>  2 0.67310143E+02</rscale>
<asrwt>0</asrwt>
<pdfrwt beam="1">  1       21 0.10348548E-01 0.67310143E+02</pdfrwt>
<pdfrwt beam="2">  1       21 0.10687558E-01 0.67310143E+02</pdfrwt>
<totfact> 0.51943278E+06</totfact>
</mgrwt>
</event>
<event>
 5    1  0.1745726E+000  0.1417480E+03  0.7546771E-02  0.1210996E+00
         21   -1    0    0  503  502  0.00000000000E+00  0.00000000000E+00  0.73295927926E+03  0.73295927926E+03  0.00000000000E+00 0.  1.
         21   -1    0    0  501  503 -0.00000000000E+00 -0.00000000000E+00 -0.60921834170E+02  0.60921834170E+02  0.00000000000E+00 0. -1.
         24    1    1    2    0    0  0.10824281585E+03 -0.14051657559E+02  0.39639517769E+03  0.41893950531E+03  0.80419002446E+02 0.  1.
          1    1    1    2  501    0  0.16585976122E+02  0.16041220282E+02 -0.33993305240E+02  0.41084792237E+02  0.00000000000E+00 0. -1.
         -2    1    1    2    0  502 -0.12482879197E+03 -0.19895627226E+01  0.30963557264E+03  0.33385681588E+03  0.00000000000E+00 0.  1.
<mgrwt>
<rscale>  2 0.14174798E+03</rscale>
<asrwt>0</asrwt>
<pdfrwt beam="1">  1       21 0.11276296E+00 0.14174798E+03</pdfrwt>
<pdfrwt beam="2">  1       21 0.93725904E-02 0.14174798E+03</pdfrwt>
<totfact> 0.57428565E+04</totfact>
</mgrwt>
</event>
<event>
 5    1  0.1745726E+000  0.9587294E+02  0.7546771E-02  0.1289222E+00
         21   -1    0    0  503  502  0.00000000000E+00  0.00000000000E+00  0.16913377773E+03  0.16913377773E+03  0.00000000000E+00 0.  1.
         21   -1    0    0  501  503 -0.00000000000E+00 -0.00000000000E+00 -0.24561589468E+03  0.24561589468E+03  0.00000000000E+00 0.  1.
         24    1    1    2    0    0 -0.21989948680E+02 -0.50740604515E+02 -0.13972689279E+03  0.17043763467E+03  0.80419002446E+02 0.  1.
          1    1    1    2  501    0  0.45456707175E+02  0.53855746475E+02 -0.75663673312E+02  0.10340089513E+03  0.00000000000E+00 0. -1.
         -2    1    1    2    0  502 -0.23466758496E+02 -0.31151419595E+01  0.13890844915E+03  0.14091114260E+03  0.00000000000E+00 0.  1.
<mgrwt>
<rscale>  2 0.95872942E+02</rscale>
<asrwt>0</asrwt>
<pdfrwt beam="1">  1       21 0.26020581E-01 0.95872942E+02</pdfrwt>
<pdfrwt beam="2">  1       21 0.37787061E-01 0.95872942E+02</pdfrwt>
<totfact> 0.98633392E+04</totfact>
</mgrwt>
</event>
<event>
 5    1  0.1745726E+000  0.8243533E+02  0.7546771E-02  0.1322279E+00
         21   -1    0    0  501  502  0.00000000000E+00  0.00000000000E+00  0.15313431197E+04  0.15313431197E+04  0.00000000000E+00 0. -1.
         21   -1    0    0  502  503 -0.00000000000E+00 -0.00000000000E+00 -0.78643936033E+01  0.78643936033E+01  0.00000000000E+00 0. -1.
         24    1    1    2    0    0 -0.37531157610E+02 -0.46643998527E+02  0.44035445431E+03  0.45162319667E+03  0.80419002446E+02 0. -1.
          1    1    1    2  501    0  0.28755915937E+02  0.16360230683E+02  0.95724104561E+03  0.95781260132E+03  0.00000000000E+00 0. -1.
         -2    1    1    2    0  503  0.87752416729E+01  0.30283767844E+02  0.12588322621E+03  0.12977171534E+03  0.00000000000E+00 0.  1.
<mgrwt>
<rscale>  2 0.82435334E+02</rscale>
<asrwt>0</asrwt>
<pdfrwt beam="1">  1       21 0.23559101E+00 0.82435334E+02</pdfrwt>
<pdfrwt beam="2">  1       21 0.12099079E-02 0.82435334E+02</pdfrwt>
<totfact> 0.24197478E+05</totfact>
</mgrwt>
</event>
<event>
 5    1  0.1745726E+000  0.7112580E+02  0.7546771E-02  0.1356306E+00
         21   -1    0    0  503  502  0.00000000000E+00  0.00000000000E+00  0.38588650522E+01  0.38588650522E+01  0.00000000000E+00 0.  1.
         21   -1    0    0  501  503 -0.00000000000E+00 -0.00000000000E+00 -0.15885778245E+04  0.15885778245E+04  0.00000000000E+00 0. -1.
         24    1    1    2    0    0 -0.34436907518E+02 -0.12265712132E+02 -0.67203887573E+03  0.67781989845E+03  0.80419002446E+02 0.  0.
          1    1    1    2  501    0  0.13838086361E+02  0.25792806939E+02 -0.68121467264E+03  0.68184323106E+03  0.00000000000E+00 0. -1.
         -2    1    1    2    0  502  0.20598821156E+02 -0.13527094807E+02 -0.23146541112E+03  0.23277356008E+03  0.00000000000E+00 0.  1.
<mgrwt>
<rscale>  2 0.71125802E+02</rscale>
<asrwt>0</asrwt>
<pdfrwt beam="1">  1       21 0.59367185E-03 0.71125802E+02</pdfrwt>
<pdfrwt beam="2">  1       21 0.24439647E+00 0.71125802E+02</pdfrwt>
<totfact> 0.65744278E+05</totfact>
</mgrwt>
</event>
<event>
 5    1  0.1912838E+000  0.1032460E+03  0.7546771E-02  0.1273614E+00
         21   -1    0    0  503  502  0.00000000000E+00  0.00000000000E+00  0.18168830825E+03  0.18168830825E+03  0.00000000000E+00 0.  1.
         21   -1    0    0  501  503 -0.00000000000E+00 -0.00000000000E+00 -0.46380518343E+03  0.46380518343E+03  0.00000000000E+00 0. -1.
         24    1    1    2    0    0 -0.27807596970E+02  0.30847281298E+02 -0.32234806881E+02  0.96078696607E+02  0.80419002446E+02 0. -1.
          1    1    1    2  501    0 -0.40741669859E+02 -0.23517614579E+02 -0.39022669348E+03  0.39305194842E+03  0.00000000000E+00 0. -1.
         -2    1    1    2    0  502  0.68549266829E+02 -0.73296667187E+01  0.14034462517E+03  0.15636284665E+03  0.00000000000E+00 0.  1.
<mgrwt>
<rscale>  2 0.10324600E+03</rscale>
<asrwt>0</asrwt>
<pdfrwt beam="1">  1       21 0.27952048E-01 0.10324600E+03</pdfrwt>
<pdfrwt beam="2">  1       21 0.71354643E-01 0.10324600E+03</pdfrwt>
<totfact> 0.23083661E+04</totfact>
</mgrwt>
</event>
<event>
 5    1  0.1745726E+000  0.1391297E+03  0.7546771E-02  0.1214505E+00
         21   -1    0    0  503  502  0.00000000000E+00  0.00000000000E+00  0.10342985638E+03  0.10342985638E+03  0.00000000000E+00 0.  1.
         21   -1    0    0  501  503 -0.00000000000E+00 -0.00000000000E+00 -0.29027084333E+03  0.29027084333E+03  0.00000000000E+00 0.  1.
         24    1    1    2    0    0  0.11637553152E+03 -0.99871545467E+01 -0.40962822021E+02  0.14760818519E+03  0.80419002446E+02 0.  1.
          1    1    1    2  501    0 -0.18253247818E+02 -0.26144213951E+02 -0.13755090601E+03  0.14119827450E+03  0.00000000000E+00 0. -1.
         -2    1    1    2    0  502 -0.98122283699E+02  0.36131368497E+02 -0.83272589230E+01  0.10489424002E+03  0.00000000000E+00 0.  1.
<mgrwt>
<rscale>  2 0.13912972E+03</rscale>
<asrwt>0</asrwt>
<pdfrwt beam="1">  1       21 0.15912286E-01 0.13912972E+03</pdfrwt>
<pdfrwt beam="2">  1       21 0.44657053E-01 0.13912972E+03</pdfrwt>
<totfact> 0.17229891E+05</totfact>
</mgrwt>
</event>
<event>
 5    1  0.1745726E+000  0.9926863E+02  0.7546771E-02  0.1281841E+00
         21   -1    0    0  501  502  0.00000000000E+00  0.00000000000E+00  0.25702026266E+03  0.25702026266E+03  0.00000000000E+00 0.  1.
         21   -1    0    0  502  503 -0.00000000000E+00 -0.00000000000E+00 -0.44499695399E+02  0.44499695399E+02  0.00000000000E+00 0.  1.
         24    1    1    2    0    0  0.26659419038E+02 -0.48234154542E+02  0.93524005481E+02  0.13509705342E+03  0.80419002446E+02 0.  1.
          1    1    1    2  501    0 -0.33592433749E+01 -0.24470176574E+02  0.73520148175E+02  0.77558276446E+02  0.00000000000E+00 0. -1.
         -2    1    1    2    0  503 -0.23300175663E+02  0.72704331115E+02  0.45476413604E+02  0.88864628189E+02  0.00000000000E+00 0.  1.
<mgrwt>
<rscale>  2 0.99268633E+02</rscale>
<asrwt>0</asrwt>
<pdfrwt beam="1">  1       21 0.39541578E-01 0.99268633E+02</pdfrwt>
<pdfrwt beam="2">  1       21 0.68461071E-02 0.99268633E+02</pdfrwt>
<totfact> 0.96839047E+05</totfact>
</mgrwt>
</event>
<event>
 5    1  0.1745726E+000  0.7513476E+02  0.7546771E-02  0.1343454E+00
         21   -1    0    0  501  502  0.00000000000E+00  0.00000000000E+00  0.80973734067E+02  0.80973734067E+02  0.00000000000E+00 0.  1.
         21   -1    0    0  502  503 -0.00000000000E+00 -0.00000000000E+00 -0.98910384386E+02  0.98910384386E+02  0.00000000000E+00 0. -1.
         24    1    1    2    0    0 -0.12863016823E+02  0.11788717432E+01 -0.57984522435E+02  0.99981336942E+02  0.80419002446E+02 0. -1.
          1    1    1    2  501    0 -0.14392095905E+02  0.26385827405E+02  0.21335889603E+02  0.36858709927E+02  0.00000000000E+00 0. -1.
         -2    1    1    2    0  503  0.27255112728E+02 -0.27564699148E+02  0.18711982514E+02  0.43044071584E+02  0.00000000000E+00 0.  1.
<mgrwt>
<rscale>  2 0.75134761E+02</rscale>
<asrwt>0</asrwt>
<pdfrwt beam="1">  1       21 0.12457498E-01 0.75134761E+02</pdfrwt>
<pdfrwt beam="2">  1       21 0.15216982E-01 0.75134761E+02</pdfrwt>
<totfact> 0.20424302E+06</totfact>
</mgrwt>
</event>
<event>
 5    1  0.1745726E+000  0.6926147E+02  0.7546771E-02  0.1362623E+00
         21   -1    0    0  501  502  0.00000000000E+00  0.00000000000E+00  0.70954650502E+02  0.70954650502E+02  0.00000000000E+00 0.  1.
         21   -1    0    0  502  503 -0.00000000000E+00 -0.00000000000E+00 -0.88214102279E+02  0.88214102279E+02  0.00000000000E+00 0. -1.
         24    1    1    2    0    0 -0.23276157771E+02  0.32404747314E+02  0.16139834018E+02  0.91211607625E+02  0.80419002446E+02 0.  0.
          1    1    1    2  501    0  0.25351127430E+02 -0.11662841780E+02  0.78747312107E+00  0.27916333109E+02  0.00000000000E+00 0. -1.
         -2    1    1    2    0  503 -0.20749696590E+01 -0.20741905534E+02 -0.34186758915E+02  0.40040812047E+02  0.00000000000E+00 0.  1.
<mgrwt>
<rscale>  2 0.69261472E+02</rscale>
<asrwt>0</asrwt>
<pdfrwt beam="1">  1       21 0.10916100E-01 0.69261472E+02</pdfrwt>
<pdfrwt beam="2">  1       21 0.13571400E-01 0.69261472E+02</pdfrwt>
<totfact> 0.31316072E+06</totfact>
</mgrwt>
</event>
<event>
 5    1  0.1745726E+000  0.1010203E+03  0.7546771E-02  0.1278165E+00
         21   -1    0    0  503  502  0.00000000000E+00  0.00000000000E+00  0.47730671789E+02  0.47730671789E+02  0.00000000000E+00 0. -1.
         21   -1    0    0  501  503 -0.00000000000E+00 -0.00000000000E+00 -0.28045187388E+03  0.28045187388E+03  0.00000000000E+00 0. -1.
         24    1    1    2    0    0 -0.58760872264E+02  0.49132277728E+02 -0.11259912748E+03  0.15815372360E+03  0.80419002446E+02 0. -1.
          1    1    1    2  501    0  0.28405279785E+02 -0.53245784340E+02 -0.12519258050E+03  0.13897897568E+03  0.00000000000E+00 0. -1.
         -2    1    1    2    0  502  0.30355592479E+02  0.41135066121E+01  0.50705058798E+01  0.31049846397E+02  0.00000000000E+00 0.  1.
<mgrwt>
<rscale>  2 0.10102026E+03</rscale>
<asrwt>0</asrwt>
<pdfrwt beam="1">  1       21 0.73431804E-02 0.10102026E+03</pdfrwt>
<pdfrwt beam="2">  1       21 0.43146441E-01 0.10102026E+03</pdfrwt>
<totfact> 0.72243595E+05</totfact>
</mgrwt>
</event>
<event>
 5    1  0.1745726E+000  0.6479034E+02  0.7546771E-02  0.1378762E+00
         21   -1    0    0  503  502  0.00000000000E+00  0.00000000000E+00  0.20094088824E+03  0.20094088824E+03  0.00000000000E+00 0.  1.
         21   -1    0    0  501  503 -0.00000000000E+00 -0.00000000000E+00 -0.34834509799E+03  0.34834509799E+03  0.00000000000E+00 0. -1.
         24    1    1    2    0    0 -0.13796732506E+02  0.11982074647E+01 -0.12037899271E+03  0.14543075111E+03  0.80419002446E+02 0.  0.
          1    1    1    2  501    0  0.11080872598E+02 -0.23252120353E+02 -0.21401016097E+03  0.21555462379E+03  0.00000000000E+00 0. -1.
         -2    1    1    2    0  502  0.27158599083E+01  0.22053912888E+02  0.18698494393E+03  0.18830061132E+03  0.00000000000E+00 0.  1.
<mgrwt>
<rscale>  2 0.64790337E+02</rscale>
<asrwt>0</asrwt>
<pdfrwt beam="1">  1       21 0.30913983E-01 0.64790337E+02</pdfrwt>
<pdfrwt beam="2">  1       21 0.53591553E-01 0.64790337E+02</pdfrwt>
<totfact> 0.36215374E+04</totfact>
</mgrwt>
</event>
<event>
 5    1  0.1745726E+000  0.6368940E+02  0.7546771E-02  0.1382970E+00
         21   -1    0    0  503  502  0.00000000000E+00  0.00000000000E+00  0.30709273255E+03  0.30709273255E+03  0.00000000000E+00 0.  1.
         21   -1    0    0  501  503 -0.00000000000E+00 -0.00000000000E+00 -0.45419844019E+02  0.45419844019E+02  0.00000000000E+00 0.  1.
         24    1    1    2    0    0  0.10373661581E+02 -0.77353244295E+01  0.20027958978E+02  0.83879575546E+02  0.80419002446E+02 0.  1.
          1    1    1    2  501    0 -0.18563700894E+02 -0.13639106246E+02 -0.27225062475E+01  0.23195867097E+02  0.00000000000E+00 0. -1.
         -2    1    1    2    0  502  0.81900393136E+01  0.21374430676E+02  0.24436743580E+03  0.24543713393E+03  0.00000000000E+00 0.  1.
<mgrwt>
<rscale>  2 0.63689396E+02</rscale>
<asrwt>0</asrwt>
<pdfrwt beam="1">  1       21 0.47245034E-01 0.63689396E+02</pdfrwt>
<pdfrwt beam="2">  1       21 0.69876685E-02 0.63689396E+02</pdfrwt>
<totfact> 0.65183166E+05</totfact>
</mgrwt>
</event>
<event>
 5    1  0.1745726E+000  0.8435039E+02  0.7546771E-02  0.1317140E+00
         21   -1    0    0  501  502  0.00000000000E+00  0.00000000000E+00  0.42554444883E+02  0.42554444883E+02  0.00000000000E+00 0. -1.
         21   -1    0    0  502  503 -0.00000000000E+00 -0.00000000000E+00 -0.36697702973E+03  0.36697702973E+03  0.00000000000E+00 0.  1.
         24    1    1    2    0    0  0.10293545933E+02  0.13331612781E+02 -0.12926975444E+03  0.15317171525E+03  0.80419002446E+02 0. -1.
          1    1    1    2  501    0 -0.34810546174E+02  0.23708870575E+02  0.12560060311E+02  0.43950424160E+02  0.00000000000E+00 0. -1.
         -2    1    1    2    0  503  0.24517000241E+02 -0.37040483356E+02 -0.20771289072E+03  0.21240933520E+03  0.00000000000E+00 0.  1.
<mgrwt>
<rscale>  2 0.84350387E+02</rscale>
<asrwt>0</asrwt>
<pdfrwt beam="1">  1       21 0.65468380E-02 0.84350387E+02</pdfrwt>
<pdfrwt beam="2">  1       21 0.56458002E-01 0.84350387E+02</pdfrwt>
<totfact> 0.50689041E+05</totfact>
</mgrwt>
</event>
<event>
 5    1  0.1745726E+000  0.7927994E+02  0.7546771E-02  0.1331107E+00
         21   -1    0    0  501  502  0.00000000000E+00  0.00000000000E+00  0.50227403202E+02  0.50227403202E+02  0.00000000000E+00 0. -1.
         21   -1    0    0  502  503 -0.00000000000E+00 -0.00000000000E+00 -0.12872377619E+03  0.12872377619E+03  0.00000000000E+00 0. -1.
         24    1    1    2    0    0 -0.13944468132E+02 -0.37437935963E+02 -0.58937360988E+02  0.10740984925E+03  0.80419002446E+02 0. -1.
          1    1    1    2  501    0 -0.12351196926E+02  0.40452724376E+02 -0.10680059139E+02  0.43623831081E+02  0.00000000000E+00 0. -1.
         -2    1    1    2    0  503  0.26295665058E+02 -0.30147884129E+01 -0.88789528590E+01  0.27917499062E+02  0.00000000000E+00 0.  1.
<mgrwt>
<rscale>  2 0.79279937E+02</rscale>
<asrwt>0</asrwt>
<pdfrwt beam="1">  1       21 0.77272929E-02 0.79279937E+02</pdfrwt>
<pdfrwt beam="2">  1       21 0.19803658E-01 0.79279937E+02</pdfrwt>
<totfact> 0.29029808E+06</totfact>
</mgrwt>
</event>
<event>
 5    1  0.2674501E+000  0.9438857E+02  0.7546771E-02  0.1292559E+00
         21   -1    0    0  503  502  0.00000000000E+00  0.00000000000E+00  0.30435028471E+03  0.30435028471E+03  0.00000000000E+00 0.  1.
         21   -1    0    0  501  503 -0.00000000000E+00 -0.00000000000E+00 -0.12561733535E+03  0.12561733535E+03  0.00000000000E+00 0. -1.
         24    1    1    2    0    0 -0.66697096568E+01 -0.30763380934E+02  0.16927110213E+03  0.19002839947E+03  0.80419002446E+02 0.  0.
          1    1    1    2  501    0 -0.45210359049E+02  0.86981390814E+01 -0.10372798300E+03  0.11348624871E+03  0.00000000000E+00 0. -1.
         -2    1    1    2    0  502  0.51880068706E+02  0.22065241853E+02  0.11318983023E+03  0.12645297187E+03  0.00000000000E+00 0.  1.
<mgrwt>
<rscale>  2 0.94388573E+02</rscale>
<asrwt>0</asrwt>
<pdfrwt beam="1">  1       21 0.46823121E-01 0.94388573E+02</pdfrwt>
<pdfrwt beam="2">  1       21 0.19325744E-01 0.94388573E+02</pdfrwt>
<totfact> 0.11168746E+05</totfact>
</mgrwt>
</event>
<event>
 5    1  0.1745726E+000  0.6980907E+02  0.7546771E-02  0.1360744E+00
         21   -1    0    0  503  502  0.00000000000E+00  0.00000000000E+00  0.11422038569E+02  0.11422038569E+02  0.00000000000E+00 0. -1.
         21   -1    0    0  501  503 -0.00000000000E+00 -0.00000000000E+00 -0.47663018882E+03  0.47663018882E+03  0.00000000000E+00 0. -1.
         24    1    1    2    0    0  0.80816985352E+01  0.38923784830E+01 -0.22048299158E+03  0.23486257683E+03  0.80419002446E+02 0. -1.
          1    1    1    2  501    0 -0.16972680600E+01  0.27051530231E+02 -0.16864998238E+03  0.17081417554E+03  0.00000000000E+00 0. -1.
         -2    1    1    2    0  502 -0.63844304752E+01 -0.30943908714E+02 -0.76075176283E+02  0.82375475025E+02  0.00000000000E+00 0.  1.
<mgrwt>
<rscale>  2 0.69809066E+02</rscale>
<asrwt>0</asrwt>
<pdfrwt beam="1">  1       21 0.17572362E-02 0.69809066E+02</pdfrwt>
<pdfrwt beam="2">  1       21 0.73327740E-01 0.69809066E+02</pdfrwt>
<totfact> 0.24738306E+06</totfact>
</mgrwt>
</event>
<event>
 5    1  0.1745726E+000  0.6374384E+02  0.7546771E-02  0.1382760E+00
         21   -1    0    0  503  502  0.00000000000E+00  0.00000000000E+00  0.77633881291E+01  0.77633881291E+01  0.00000000000E+00 0.  1.
         21   -1    0    0  501  503 -0.00000000000E+00 -0.00000000000E+00 -0.17266305250E+04  0.17266305250E+04  0.00000000000E+00 0. -1.
         24    1    1    2    0    0 -0.51566893376E+01  0.40185754035E+01 -0.10517524987E+04  0.10548427726E+04  0.80419002446E+02 0.  0.
          1    1    1    2  501    0 -0.31444944120E+01 -0.24501393727E+02 -0.65269459372E+03  0.65316187796E+03  0.00000000000E+00 0. -1.
         -2    1    1    2    0  502  0.83011837496E+01  0.20482818323E+02 -0.14420044444E+02  0.26389262587E+02  0.00000000000E+00 0.  1.
<mgrwt>
<rscale>  2 0.63743840E+02</rscale>
<asrwt>0</asrwt>
<pdfrwt beam="1">  1       21 0.11943665E-02 0.63743840E+02</pdfrwt>
<pdfrwt beam="2">  1       21 0.26563566E+00 0.63743840E+02</pdfrwt>
<totfact> 0.17259524E+05</totfact>
</mgrwt>
</event>
<event>
 5    1  0.1745726E+000  0.1298967E+03  0.7546771E-02  0.1227609E+00
         21   -1    0    0  503  502  0.00000000000E+00  0.00000000000E+00  0.16200988731E+03  0.16200988731E+03  0.00000000000E+00 0. -1.
         21   -1    0    0  501  503 -0.00000000000E+00 -0.00000000000E+00 -0.19368083833E+03  0.19368083833E+03  0.00000000000E+00 0.  1.
         24    1    1    2    0    0 -0.25399537329E+02 -0.83723443090E+02  0.55333873916E+02  0.13108701300E+03  0.80419002446E+02 0. -1.
          1    1    1    2  501    0 -0.28158472124E+02 -0.12519378613E+02 -0.10814668280E+03  0.11245149796E+03  0.00000000000E+00 0. -1.
         -2    1    1    2    0  502  0.53558009453E+02  0.96242821703E+02  0.21141857852E+02  0.11215221469E+03  0.00000000000E+00 0.  1.
<mgrwt>
<rscale>  2 0.12989674E+03</rscale>
<asrwt>0</asrwt>
<pdfrwt beam="1">  1       21 0.24924598E-01 0.12989674E+03</pdfrwt>
<pdfrwt beam="2">  1       21 0.29797052E-01 0.12989674E+03</pdfrwt>
<totfact> 0.16764195E+05</totfact>
</mgrwt>
</event>
<event>
 5    1  0.1745726E+000  0.8006809E+02  0.7546771E-02  0.1328858E+00
         21   -1    0    0  501  502  0.00000000000E+00  0.00000000000E+00  0.74308554107E+02  0.74308554107E+02  0.00000000000E+00 0. -1.
         21   -1    0    0  502  503 -0.00000000000E+00 -0.00000000000E+00 -0.46631668693E+03  0.46631668693E+03  0.00000000000E+00 0.  1.
         24    1    1    2    0    0 -0.15963557457E+02 -0.14852676603E+01 -0.13022814453E+03  0.15389485621E+03  0.80419002446E+02 0.  0.
          1    1    1    2  501    0 -0.19050096304E+02  0.28243051446E+02  0.56195745786E+02  0.65715583910E+02  0.00000000000E+00 0. -1.
         -2    1    1    2    0  503  0.35013653761E+02 -0.26757783786E+02 -0.31797573408E+03  0.32101480091E+03  0.00000000000E+00 0.  1.
<mgrwt>
<rscale>  2 0.80068094E+02</rscale>
<asrwt>0</asrwt>
<pdfrwt beam="1">  1       21 0.11432085E-01 0.80068094E+02</pdfrwt>
<pdfrwt beam="2">  1       21 0.71741030E-01 0.80068094E+02</pdfrwt>
<totfact> 0.11765158E+05</totfact>
</mgrwt>
</event>
<event>
 5    1  0.1745726E+000  0.6933445E+02  0.7546771E-02  0.1362371E+00
         21   -1    0    0  503  502  0.00000000000E+00  0.00000000000E+00  0.22907656549E+02  0.22907656549E+02  0.00000000000E+00 0.  1.
         21   -1    0    0  501  503 -0.00000000000E+00 -0.00000000000E+00 -0.86639939332E+03  0.86639939332E+03  0.00000000000E+00 0. -1.
         24    1    1    2    0    0 -0.30057316179E+02 -0.15081575988E+01 -0.54267710221E+03  0.54942822098E+03  0.80419002446E+02 0.  1.
          1    1    1    2  501    0  0.55020949389E+01  0.20838215249E+02 -0.30722277594E+03  0.30797782115E+03  0.00000000000E+00 0. -1.
         -2    1    1    2    0  502  0.24555221241E+02 -0.19330057650E+02  0.64081413752E+01  0.31901007740E+02  0.00000000000E+00 0.  1.
<mgrwt>
<rscale>  2 0.69334452E+02</rscale>
<asrwt>0</asrwt>
<pdfrwt beam="1">  1       21 0.35242548E-02 0.69334452E+02</pdfrwt>
<pdfrwt beam="2">  1       21 0.13329222E+00 0.69334452E+02</pdfrwt>
<totfact> 0.20650487E+05</totfact>
</mgrwt>
</event>
<event>
 5    1  0.1745726E+000  0.1158048E+03  0.7546771E-02  0.1250183E+00
         21   -1    0    0  503  502  0.00000000000E+00  0.00000000000E+00  0.90373149660E+02  0.90373149660E+02  0.00000000000E+00 0. -1.
         21   -1    0    0  501  503 -0.00000000000E+00 -0.00000000000E+00 -0.17990018119E+03  0.17990018119E+03  0.00000000000E+00 0.  1.
         24    1    1    2    0    0  0.43781012751E+02  0.75417230977E+02 -0.31972110422E+02  0.12285750936E+03  0.80419002446E+02 0.  1.
          1    1    1    2  501    0 -0.60581438721E+02 -0.36827747705E+02 -0.73767249164E+02  0.10231324825E+03  0.00000000000E+00 0. -1.
         -2    1    1    2    0  502  0.16800425970E+02 -0.38589483272E+02  0.16212328058E+02  0.45102573242E+02  0.00000000000E+00 0.  1.
<mgrwt>
<rscale>  2 0.11580476E+03</rscale>
<asrwt>0</asrwt>
<pdfrwt beam="1">  1       21 0.13903562E-01 0.11580476E+03</pdfrwt>
<pdfrwt beam="2">  1       21 0.27676951E-01 0.11580476E+03</pdfrwt>
<totfact> 0.56512655E+05</totfact>
</mgrwt>
</event>
<event>
 5    1  0.1745726E+000  0.6986034E+02  0.7546771E-02  0.1360569E+00
         21   -1    0    0  503  502  0.00000000000E+00  0.00000000000E+00  0.18747475792E+02  0.18747475792E+02  0.00000000000E+00 0. -1.
         21   -1    0    0  501  503 -0.00000000000E+00 -0.00000000000E+00 -0.45485533843E+03  0.45485533843E+03  0.00000000000E+00 0. -1.
         24    1    1    2    0    0 -0.13812260820E+02  0.92142744086E+01 -0.13849385655E+03  0.16100759503E+03  0.80419002446E+02 0.  0.
          1    1    1    2  501    0 -0.16423610357E+02  0.12281104204E+02 -0.25610297627E+03  0.25692274121E+03  0.00000000000E+00 0. -1.
         -2    1    1    2    0  502  0.30235871177E+02 -0.21495378613E+02 -0.41511029816E+02  0.55672477976E+02  0.00000000000E+00 0.  1.
<mgrwt>
<rscale>  2 0.69860343E+02</rscale>
<asrwt>0</asrwt>
<pdfrwt beam="1">  1       21 0.28842273E-02 0.69860343E+02</pdfrwt>
<pdfrwt beam="2">  1       21 0.69977739E-01 0.69860343E+02</pdfrwt>
<totfact> 0.12401640E+06</totfact>
</mgrwt>
</event>
<event>
 5    1  0.1745726E+000  0.9164698E+02  0.7546771E-02  0.1298912E+00
         21   -1    0    0  503  502  0.00000000000E+00  0.00000000000E+00  0.11137124365E+02  0.11137124365E+02  0.00000000000E+00 0. -1.
         21   -1    0    0  501  503 -0.00000000000E+00 -0.00000000000E+00 -0.81256715963E+03  0.81256715963E+03  0.00000000000E+00 0.  1.
         24    1    1    2    0    0 -0.46617481975E+02 -0.10285330133E+02 -0.31110343315E+03  0.32485618312E+03  0.80419002446E+02 0. -1.
          1    1    1    2  501    0  0.30363989591E+02 -0.32215747385E+02 -0.29420208106E+03  0.29751418579E+03  0.00000000000E+00 0. -1.
         -2    1    1    2    0  502  0.16253492385E+02  0.42501077518E+02 -0.19612452106E+03  0.20133391509E+03  0.00000000000E+00 0.  1.
<mgrwt>
<rscale>  2 0.91646976E+02</rscale>
<asrwt>0</asrwt>
<pdfrwt beam="1">  1       21 0.17134039E-02 0.91646976E+02</pdfrwt>
<pdfrwt beam="2">  1       21 0.12501032E+00 0.91646976E+02</pdfrwt>
<totfact> 0.76538602E+05</totfact>
</mgrwt>
</event>
<event>
 5    1  0.1745726E+000  0.9119996E+02  0.7546771E-02  0.1299972E+00
         21   -1    0    0  501  502  0.00000000000E+00  0.00000000000E+00  0.15203139086E+03  0.15203139086E+03  0.00000000000E+00 0.  1.
         21   -1    0    0  502  503 -0.00000000000E+00 -0.00000000000E+00 -0.62227359444E+02  0.62227359444E+02  0.00000000000E+00 0. -1.
         24    1    1    2    0    0  0.18577258609E+02  0.24275696697E+02  0.23768984883E+02  0.89255837816E+02  0.80419002446E+02 0. -1.
          1    1    1    2  501    0 -0.21530921768E+01  0.34893937566E+02  0.50914766471E+02  0.61761931070E+02  0.00000000000E+00 0. -1.
         -2    1    1    2    0  503 -0.16424166432E+02 -0.59169634264E+02  0.15120280066E+02  0.63240981421E+02  0.00000000000E+00 0.  1.
<mgrwt>
<rscale>  2 0.91199958E+02</rscale>
<asrwt>0</asrwt>
<pdfrwt beam="1">  1       21 0.23389445E-01 0.91199958E+02</pdfrwt>
<pdfrwt beam="2">  1       21 0.95734399E-02 0.91199958E+02</pdfrwt>
<totfact> 0.14896144E+06</totfact>
</mgrwt>
</event>
<event>
 5    1  0.1745726E+000  0.9199978E+02  0.7546771E-02  0.1298080E+00
         21   -1    0    0  501  502  0.00000000000E+00  0.00000000000E+00  0.15843625757E+03  0.15843625757E+03  0.00000000000E+00 0.  1.
         21   -1    0    0  502  503 -0.00000000000E+00 -0.00000000000E+00 -0.59278670032E+02  0.59278670032E+02  0.00000000000E+00 0.  1.
         24    1    1    2    0    0 -0.60573932046E+02  0.40264784107E+02  0.88440539551E+02  0.13992640592E+03  0.80419002446E+02 0.  1.
          1    1    1    2  501    0  0.15909430181E+02 -0.22370923544E+02  0.11257694719E+02  0.29669915391E+02  0.00000000000E+00 0. -1.
         -2    1    1    2    0  503  0.44664501865E+02 -0.17893860562E+02 -0.54064673269E+00  0.48118606293E+02  0.00000000000E+00 0.  1.
<mgrwt>
<rscale>  2 0.91999778E+02</rscale>
<asrwt>0</asrwt>
<pdfrwt beam="1">  1       21 0.24374809E-01 0.91999778E+02</pdfrwt>
<pdfrwt beam="2">  1       21 0.91197955E-02 0.91999778E+02</pdfrwt>
<totfact> 0.15002811E+06</totfact>
</mgrwt>
</event>
<event>
 5    1  0.1745726E+000  0.1307464E+03  0.7546771E-02  0.1226352E+00
         21   -1    0    0  501  502  0.00000000000E+00  0.00000000000E+00  0.11720531275E+03  0.11720531275E+03  0.00000000000E+00 0. -1.
         21   -1    0    0  502  503 -0.00000000000E+00 -0.00000000000E+00 -0.20270496775E+03  0.20270496775E+03  0.00000000000E+00 0.  1.
         24    1    1    2    0    0 -0.61678155884E+01 -0.22061835481E+02 -0.91511090951E+02  0.12396072868E+03  0.80419002446E+02 0.  0.
          1    1    1    2  501    0  0.62428875377E+02  0.77075539501E+02  0.44075273565E+02  0.10853862451E+03  0.00000000000E+00 0. -1.
         -2    1    1    2    0  503 -0.56261059788E+02 -0.55013704021E+02 -0.38063837615E+02  0.87410927306E+02  0.00000000000E+00 0.  1.
<mgrwt>
<rscale>  2 0.13074643E+03</rscale>
<asrwt>0</asrwt>
<pdfrwt beam="1">  1       21 0.18031587E-01 0.13074643E+03</pdfrwt>
<pdfrwt beam="2">  1       21 0.31185380E-01 0.13074643E+03</pdfrwt>
<totfact> 0.28026174E+05</totfact>
</mgrwt>
</event>
<event>
 5    1  0.1745726E+000  0.7286595E+02  0.7546771E-02  0.1350610E+00
         21   -1    0    0  501  502  0.00000000000E+00  0.00000000000E+00  0.77775699949E+02  0.77775699949E+02  0.00000000000E+00 0.  1.
         21   -1    0    0  502  503 -0.00000000000E+00 -0.00000000000E+00 -0.95164762143E+02  0.95164762143E+02  0.00000000000E+00 0. -1.
         24    1    1    2    0    0  0.46557302298E+02  0.11227831599E+02  0.17258058421E+02  0.95177219619E+02  0.80419002446E+02 0.  1.
          1    1    1    2  501    0 -0.29714210823E+02  0.32902968716E+01  0.68619597136E+01  0.30673227242E+02  0.00000000000E+00 0. -1.
         -2    1    1    2    0  503 -0.16843091475E+02 -0.14518128470E+02 -0.41509080328E+02  0.47090015230E+02  0.00000000000E+00 0.  1.
<mgrwt>
<rscale>  2 0.72865946E+02</rscale>
<asrwt>0</asrwt>
<pdfrwt beam="1">  1       21 0.11965492E-01 0.72865946E+02</pdfrwt>
<pdfrwt beam="2">  1       21 0.14640733E-01 0.72865946E+02</pdfrwt>
<totfact> 0.23428997E+06</totfact>
</mgrwt>
</event>
<event>
 5    1  0.1745726E+000  0.7790024E+02  0.7546771E-02  0.1335118E+00
         21   -1    0    0  503  502  0.00000000000E+00  0.00000000000E+00  0.85407288243E+03  0.85407288243E+03  0.00000000000E+00 0.  1.
         21   -1    0    0  501  503 -0.00000000000E+00 -0.00000000000E+00 -0.18904780417E+02  0.18904780417E+02  0.00000000000E+00 0. -1.
         24    1    1    2    0    0  0.58172483005E+01 -0.28954284288E+02  0.32115164424E+03  0.33238198734E+03  0.80419002446E+02 0.  1.
          1    1    1    2  501    0  0.53562019430E+01 -0.19593880228E+02 -0.35641702869E+01  0.20623102373E+02  0.00000000000E+00 0. -1.
         -2    1    1    2    0  502 -0.11173450244E+02  0.48548164516E+02  0.51758062806E+03  0.51997257313E+03  0.00000000000E+00 0.  1.
<mgrwt>
<rscale>  2 0.77900244E+02</rscale>
<asrwt>0</asrwt>
<pdfrwt beam="1">  1       21 0.13139580E+00 0.77900244E+02</pdfrwt>
<pdfrwt beam="2">  1       21 0.29084284E-02 0.77900244E+02</pdfrwt>
<totfact> 0.29090732E+05</totfact>
</mgrwt>
</event>
<event>
 5    1  0.1745726E+000  0.6975173E+02  0.7546771E-02  0.1360939E+00
         21   -1    0    0  503  502  0.00000000000E+00  0.00000000000E+00  0.39171140081E+02  0.39171140081E+02  0.00000000000E+00 0.  1.
         21   -1    0    0  501  503 -0.00000000000E+00 -0.00000000000E+00 -0.24284725924E+03  0.24284725924E+03  0.00000000000E+00 0. -1.
         24    1    1    2    0    0  0.15038565836E+02 -0.43891159225E+02 -0.86453405647E+02  0.12686212840E+03  0.80419002446E+02 0.  1.
          1    1    1    2  501    0 -0.91351848963E+01  0.19043592841E+02 -0.12629846667E+03  0.12805238269E+03  0.00000000000E+00 0. -1.
         -2    1    1    2    0  502 -0.59033809392E+01  0.24847566384E+02  0.90757531522E+01  0.27103888226E+02  0.00000000000E+00 0.  1.
<mgrwt>
<rscale>  2 0.69751727E+02</rscale>
<asrwt>0</asrwt>
<pdfrwt beam="1">  1       21 0.60263293E-02 0.69751727E+02</pdfrwt>
<pdfrwt beam="2">  1       21 0.37361117E-01 0.69751727E+02</pdfrwt>
<totfact> 0.13301298E+06</totfact>
</mgrwt>
</event>
<event>
 5    1  0.1745726E+000  0.9062813E+02  0.7546771E-02  0.1301338E+00
         21   -1    0    0  501  502  0.00000000000E+00  0.00000000000E+00  0.44221542619E+02  0.44221542619E+02  0.00000000000E+00 0. -1.
         21   -1    0    0  502  503 -0.00000000000E+00 -0.00000000000E+00 -0.28793999348E+03  0.28793999348E+03  0.00000000000E+00 0.  1.
         24    1    1    2    0    0  0.69810863917E+02  0.19398441520E+02 -0.74338699347E+02  0.13131380137E+03  0.80419002446E+02 0. -1.
          1    1    1    2  501    0 -0.47877612630E+02 -0.89133021583E+01 -0.25583910602E+02  0.55011355448E+02  0.00000000000E+00 0. -1.
         -2    1    1    2    0  503 -0.21933251287E+02 -0.10485139362E+02 -0.14379584091E+03  0.14583637928E+03  0.00000000000E+00 0.  1.
<mgrwt>
<rscale>  2 0.90628134E+02</rscale>
<asrwt>0</asrwt>
<pdfrwt beam="1">  1       21 0.68033143E-02 0.90628134E+02</pdfrwt>
<pdfrwt beam="2">  1       21 0.44298460E-01 0.90628134E+02</pdfrwt>
<totfact> 0.77956387E+05</totfact>
</mgrwt>
</event>
<event>
 5    1  0.2337672E+000  0.8464619E+02  0.7546771E-02  0.1316360E+00
         21   -1    0    0  503  502  0.00000000000E+00  0.00000000000E+00  0.63564695586E+03  0.63564695586E+03  0.00000000000E+00 0.  1.
         21   -1    0    0  501  503 -0.00000000000E+00 -0.00000000000E+00 -0.66335675915E+02  0.66335675915E+02  0.00000000000E+00 0. -1.
         24    1    1    2    0    0  0.35505673471E+01 -0.27745134659E+02  0.51663456368E+03  0.52360375034E+03  0.80419002446E+02 0.  1.
          1    1    1    2  501    0 -0.10954211749E+02  0.54910010499E+02 -0.48055085851E+02  0.73786145611E+02  0.00000000000E+00 0. -1.
         -2    1    1    2    0  502  0.74036444015E+01 -0.27164875839E+02  0.10073180211E+03  0.10459273582E+03  0.00000000000E+00 0.  1.
<mgrwt>
<rscale>  2 0.84646194E+02</rscale>
<asrwt>0</asrwt>
<pdfrwt beam="1">  1       21 0.97791835E-01 0.84646194E+02</pdfrwt>
<pdfrwt beam="2">  1       21 0.10205489E-01 0.84646194E+02</pdfrwt>
<totfact> 0.71760732E+04</totfact>
</mgrwt>
</event>
<event>
 5    1  0.1745726E+000  0.9742299E+02  0.7546771E-02  0.1285810E+00
         21   -1    0    0  503  502  0.00000000000E+00  0.00000000000E+00  0.52047085320E+03  0.52047085320E+03  0.00000000000E+00 0.  1.
         21   -1    0    0  501  503 -0.00000000000E+00 -0.00000000000E+00 -0.40246047098E+02  0.40246047098E+02  0.00000000000E+00 0. -1.
         24    1    1    2    0    0  0.23527979907E+01  0.71060189853E+01  0.20920047349E+02  0.83431981276E+02  0.80419002446E+02 0. -1.
          1    1    1    2  501    0  0.47866240013E+02  0.25469132727E+02  0.10723946133E+03  0.12016719902E+03  0.00000000000E+00 0. -1.
         -2    1    1    2    0  502 -0.50219038004E+02 -0.32575151712E+02  0.35206529743E+03  0.35711772000E+03  0.00000000000E+00 0.  1.
<mgrwt>
<rscale>  2 0.97422988E+02</rscale>
<asrwt>0</asrwt>
<pdfrwt beam="1">  1       21 0.80072434E-01 0.97422988E+02</pdfrwt>
<pdfrwt beam="2">  1       21 0.61916999E-02 0.97422988E+02</pdfrwt>
<totfact> 0.26281579E+05</totfact>
</mgrwt>
</event>
<event>
 5    1  0.1745726E+000  0.7601060E+02  0.7546771E-02  0.1340770E+00
         21   -1    0    0  503  502  0.00000000000E+00  0.00000000000E+00  0.22692878633E+03  0.22692878633E+03  0.00000000000E+00 0.  1.
         21   -1    0    0  501  503 -0.00000000000E+00 -0.00000000000E+00 -0.25801137352E+02  0.25801137352E+02  0.00000000000E+00 0. -1.
         24    1    1    2    0    0 -0.28532075323E+02  0.42373732796E+02  0.13937397369E+03  0.16882515526E+03  0.80419002446E+02 0.  1.
          1    1    1    2  501    0  0.73175817939E+01 -0.32564015892E+02  0.34518854654E+02  0.48015762630E+02  0.00000000000E+00 0. -1.
         -2    1    1    2    0  502  0.21214493529E+02 -0.98097169044E+01  0.27234820638E+02  0.35889005791E+02  0.00000000000E+00 0.  1.
<mgrwt>
<rscale>  2 0.76010604E+02</rscale>
<asrwt>0</asrwt>
<pdfrwt beam="1">  1       21 0.34912120E-01 0.76010604E+02</pdfrwt>
<pdfrwt beam="2">  1       21 0.39694059E-02 0.76010604E+02</pdfrwt>
<totfact> 0.30371745E+06</totfact>
</mgrwt>
</event>
<event>
 5    1  0.1745726E+000  0.9390520E+02  0.7546771E-02  0.1293661E+00
         21   -1    0    0  501  502  0.00000000000E+00  0.00000000000E+00  0.89008745487E+02  0.89008745487E+02  0.00000000000E+00 0. -1.
         21   -1    0    0  502  503 -0.00000000000E+00 -0.00000000000E+00 -0.12661952940E+03  0.12661952940E+03  0.00000000000E+00 0.  1.
         24    1    1    2    0    0  0.17975210299E+02  0.20410170849E+01 -0.37936335283E+02  0.90739492092E+02  0.80419002446E+02 0.  1.
          1    1    1    2  501    0 -0.55680366341E+02 -0.25215780879E+02  0.33384873764E+02  0.69646885052E+02  0.00000000000E+00 0. -1.
         -2    1    1    2    0  503  0.37705156042E+02  0.23174763794E+02 -0.33059322393E+02  0.55241897742E+02  0.00000000000E+00 0.  1.
<mgrwt>
<rscale>  2 0.93905204E+02</rscale>
<asrwt>0</asrwt>
<pdfrwt beam="1">  1       21 0.13693653E-01 0.93905204E+02</pdfrwt>
<pdfrwt beam="2">  1       21 0.19479928E-01 0.93905204E+02</pdfrwt>
<totfact> 0.11160605E+06</totfact>
</mgrwt>
</event>
<event>
 5    1  0.1745726E+000  0.7374881E+02  0.7546771E-02  0.1347790E+00
         21   -1    0    0  501  502  0.00000000000E+00  0.00000000000E+00  0.35488593754E+02  0.35488593754E+02  0.00000000000E+00 0.  1.
         21   -1    0    0  502  503 -0.00000000000E+00 -0.00000000000E+00 -0.26365360708E+03  0.26365360708E+03  0.00000000000E+00 0.  1.
         24    1    1    2    0    0  0.21870467667E+02 -0.42575093245E+02 -0.60506923835E+02  0.11144173234E+03  0.80419002446E+02 0.  1.
          1    1    1    2  501    0  0.20510789359E+01  0.22753835098E+02 -0.67522386483E+01  0.23823028003E+02  0.00000000000E+00 0. -1.
         -2    1    1    2    0  503 -0.23921546603E+02  0.19821258147E+02 -0.16090585084E+03  0.16387744049E+03  0.00000000000E+00 0.  1.
<mgrwt>
<rscale>  2 0.73748810E+02</rscale>
<asrwt>0</asrwt>
<pdfrwt beam="1">  1       21 0.54597836E-02 0.73748810E+02</pdfrwt>
<pdfrwt beam="2">  1       21 0.40562094E-01 0.73748810E+02</pdfrwt>
<totfact> 0.13374347E+06</totfact>
</mgrwt>
</event>
<event>
 5    1  0.1745726E+000  0.6860660E+02  0.7546771E-02  0.1364897E+00
         21   -1    0    0  503  502  0.00000000000E+00  0.00000000000E+00  0.18218953789E+03  0.18218953789E+03  0.00000000000E+00 0. -1.
         21   -1    0    0  501  503 -0.00000000000E+00 -0.00000000000E+00 -0.38382617294E+02  0.38382617294E+02  0.00000000000E+00 0. -1.
         24    1    1    2    0    0 -0.21783864917E+02  0.37603597807E+02  0.13934592988E+03  0.16665254713E+03  0.80419002446E+02 0. -1.
          1    1    1    2  501    0  0.16683408071E+02 -0.14377904587E+02 -0.11921330213E+02  0.25043529289E+02  0.00000000000E+00 0. -1.
         -2    1    1    2    0  502  0.51004568460E+01 -0.23225693220E+02  0.16382320937E+02  0.28876078765E+02  0.00000000000E+00 0.  1.
<mgrwt>
<rscale>  2 0.68606598E+02</rscale>
<asrwt>0</asrwt>
<pdfrwt beam="1">  1       21 0.28029159E-01 0.68606598E+02</pdfrwt>
<pdfrwt beam="2">  1       21 0.59050182E-02 0.68606598E+02</pdfrwt>
<totfact> 0.23815020E+06</totfact>
</mgrwt>
</event>
<event>
 5    1  0.1745726E+000  0.7384613E+02  0.7546771E-02  0.1347482E+00
         21   -1    0    0  501  502  0.00000000000E+00  0.00000000000E+00  0.29628673500E+03  0.29628673500E+03  0.00000000000E+00 0. -1.
         21   -1    0    0  502  503 -0.00000000000E+00 -0.00000000000E+00 -0.24732775752E+02  0.24732775752E+02  0.00000000000E+00 0.  1.
         24    1    1    2    0    0 -0.13927087760E+02 -0.93562898282E+01  0.22753205662E+03  0.24190815753E+03  0.80419002446E+02 0. -1.
          1    1    1    2  501    0 -0.13863983202E+02 -0.20503048697E+02  0.19571056735E+02  0.31553308826E+02  0.00000000000E+00 0. -1.
         -2    1    1    2    0  503  0.27791070962E+02  0.29859338525E+02  0.24450845889E+02  0.47558044399E+02  0.00000000000E+00 0.  1.
<mgrwt>
<rscale>  2 0.73846135E+02</rscale>
<asrwt>0</asrwt>
<pdfrwt beam="1">  1       21 0.45582572E-01 0.73846135E+02</pdfrwt>
<pdfrwt beam="2">  1       21 0.38050426E-02 0.73846135E+02</pdfrwt>
<totfact> 0.19231653E+06</totfact>
</mgrwt>
</event>
<event>
 5    1  0.1745726E+000  0.8194293E+02  0.7546771E-02  0.1323626E+00
         21   -1    0    0  501  502  0.00000000000E+00  0.00000000000E+00  0.31114945357E+03  0.31114945357E+03  0.00000000000E+00 0.  1.
         21   -1    0    0  502  503 -0.00000000000E+00 -0.00000000000E+00 -0.61136457227E+02  0.61136457227E+02  0.00000000000E+00 0.  1.
         24    1    1    2    0    0  0.17012566497E+02 -0.58622392553E+02  0.26337278215E+03  0.28206107612E+03  0.80419002446E+02 0.  1.
          1    1    1    2  501    0 -0.13900310202E+02  0.21063212256E+02  0.25649995387E+02  0.35983326661E+02  0.00000000000E+00 0. -1.
         -2    1    1    2    0  503 -0.31122562949E+01  0.37559180297E+02 -0.39009781193E+02  0.54241508023E+02  0.00000000000E+00 0.  1.
<mgrwt>
<rscale>  2 0.81942928E+02</rscale>
<asrwt>0</asrwt>
<pdfrwt beam="1">  1       21 0.47869146E-01 0.81942928E+02</pdfrwt>
<pdfrwt beam="2">  1       21 0.94056090E-02 0.81942928E+02</pdfrwt>
<totfact> 0.38362177E+05</totfact>
</mgrwt>
</event>
<event>
 5    1  0.1745726E+000  0.7278053E+02  0.7546771E-02  0.1350885E+00
         21   -1    0    0  503  502  0.00000000000E+00  0.00000000000E+00  0.58384251362E+02  0.58384251362E+02  0.00000000000E+00 0. -1.
         21   -1    0    0  501  503 -0.00000000000E+00 -0.00000000000E+00 -0.10121122037E+03  0.10121122037E+03  0.00000000000E+00 0. -1.
         24    1    1    2    0    0 -0.23626816695E+02  0.10805994180E+01 -0.10464264601E+01  0.83831408940E+02  0.80419002446E+02 0.  0.
          1    1    1    2  501    0  0.27097980647E+02  0.24132016208E+02 -0.32381559949E+02  0.48633529444E+02  0.00000000000E+00 0. -1.
         -2    1    1    2    0  502 -0.34711639524E+01 -0.25212615626E+02 -0.93989825981E+01  0.27130533348E+02  0.00000000000E+00 0.  1.
<mgrwt>
<rscale>  2 0.72780528E+02</rscale>
<asrwt>0</asrwt>
<pdfrwt beam="1">  1       21 0.89821926E-02 0.72780528E+02</pdfrwt>
<pdfrwt beam="2">  1       21 0.15570957E-01 0.72780528E+02</pdfrwt>
<totfact> 0.34455967E+06</totfact>
</mgrwt>
</event>
<event>
 5    1  0.1745726E+000  0.6732707E+02  0.7546771E-02  0.1369426E+00
         21   -1    0    0  503  502  0.00000000000E+00  0.00000000000E+00  0.48817630009E+03  0.48817630009E+03  0.00000000000E+00 0.  1.
         21   -1    0    0  501  503 -0.00000000000E+00 -0.00000000000E+00 -0.26639644997E+02  0.26639644997E+02  0.00000000000E+00 0.  1.
         24    1    1    2    0    0  0.34373543967E+01  0.90583220224E+01  0.78842680822E+02  0.11303651125E+03  0.80419002446E+02 0.  1.
          1    1    1    2  501    0  0.19839056398E+02 -0.19790344642E+02  0.12473947186E+02  0.30673200977E+02  0.00000000000E+00 0. -1.
         -2    1    1    2    0  502 -0.23276410794E+02  0.10732022620E+02  0.37022002709E+03  0.37110623286E+03  0.00000000000E+00 0.  1.
<mgrwt>
<rscale>  2 0.67327070E+02</rscale>
<asrwt>0</asrwt>
<pdfrwt beam="1">  1       21 0.75104040E-01 0.67327070E+02</pdfrwt>
<pdfrwt beam="2">  1       21 0.40984073E-02 0.67327070E+02</pdfrwt>
<totfact> 0.60181624E+05</totfact>
</mgrwt>
</event>
<event>
 5    1  0.1745726E+000  0.1020510E+03  0.7546771E-02  0.1276041E+00
         21   -1    0    0  501  502  0.00000000000E+00  0.00000000000E+00  0.19864534669E+03  0.19864534669E+03  0.00000000000E+00 0. -1.
         21   -1    0    0  502  503 -0.00000000000E+00 -0.00000000000E+00 -0.14008996264E+03  0.14008996264E+03  0.00000000000E+00 0.  1.
         24    1    1    2    0    0  0.28792986911E+02  0.80366204310E+02 -0.47874435336E+02  0.12667651875E+03  0.80419002446E+02 0.  0.
          1    1    1    2  501    0 -0.12994070574E+01 -0.24706621470E+02  0.13952970469E+03  0.14170618933E+03  0.00000000000E+00 0. -1.
         -2    1    1    2    0  503 -0.27493579853E+02 -0.55659582841E+02 -0.33099885311E+02  0.70352601251E+02  0.00000000000E+00 0.  1.
<mgrwt>
<rscale>  2 0.10205103E+03</rscale>
<asrwt>0</asrwt>
<pdfrwt beam="1">  1       21 0.30560823E-01 0.10205103E+03</pdfrwt>
<pdfrwt beam="2">  1       21 0.21552302E-01 0.10205103E+03</pdfrwt>
<totfact> 0.21123304E+05</totfact>
</mgrwt>
</event>
<event>
 5    1  0.1745726E+000  0.8526408E+02  0.7546771E-02  0.1314743E+00
         21   -1    0    0  503  502  0.00000000000E+00  0.00000000000E+00  0.51281714426E+02  0.51281714426E+02  0.00000000000E+00 0.  1.
         21   -1    0    0  501  503 -0.00000000000E+00 -0.00000000000E+00 -0.36370628790E+03  0.36370628790E+03  0.00000000000E+00 0.  1.
         24    1    1    2    0    0 -0.13521586377E+02  0.58070583625E+02 -0.32284987183E+03  0.33801520924E+03  0.80419002446E+02 0.  1.
          1    1    1    2  501    0  0.19253181437E+02 -0.94275118956E+01 -0.10306483379E+02  0.23786268636E+02  0.00000000000E+00 0. -1.
         -2    1    1    2    0  502 -0.57315950599E+01 -0.48643071730E+02  0.20731781737E+02  0.53186524452E+02  0.00000000000E+00 0.  1.
<mgrwt>
<rscale>  2 0.85264076E+02</rscale>
<asrwt>0</asrwt>
<pdfrwt beam="1">  1       21 0.78894945E-02 0.85264076E+02</pdfrwt>
<pdfrwt beam="2">  1       21 0.55954814E-01 0.85264076E+02</pdfrwt>
<totfact> 0.37642294E+05</totfact>
</mgrwt>
</event>
<event>
 5    1  0.1745726E+000  0.1463486E+03  0.7546771E-02  0.1205033E+00
         21   -1    0    0  503  502  0.00000000000E+00  0.00000000000E+00  0.21654418692E+03  0.21654418692E+03  0.00000000000E+00 0. -1.
         21   -1    0    0  501  503 -0.00000000000E+00 -0.00000000000E+00 -0.11210399853E+03  0.11210399853E+03  0.00000000000E+00 0. -1.
         24    1    1    2    0    0  0.11083053731E+03  0.77593037005E+02  0.73741263228E+01  0.15756167391E+03  0.80419002446E+02 0. -1.
          1    1    1    2  501    0 -0.37514682456E+02 -0.25084321322E+02  0.11047921003E+02  0.46461071172E+02  0.00000000000E+00 0. -1.
         -2    1    1    2    0  502 -0.73315854855E+02 -0.52508715684E+02  0.86018141055E+02  0.12462544037E+03  0.00000000000E+00 0.  1.
<mgrwt>
<rscale>  2 0.14634858E+03</rscale>
<asrwt>0</asrwt>
<pdfrwt beam="1">  1       21 0.33314490E-01 0.14634858E+03</pdfrwt>
<pdfrwt beam="2">  1       21 0.17246769E-01 0.14634858E+03</pdfrwt>
<totfact> 0.26650101E+05</totfact>
</mgrwt>
</event>
<event>
 5    1  0.1745726E+000  0.9140020E+02  0.7546771E-02  0.1299496E+00
         21   -1    0    0  501  502  0.00000000000E+00  0.00000000000E+00  0.22704316582E+02  0.22704316582E+02  0.00000000000E+00 0.  1.
         21   -1    0    0  502  503 -0.00000000000E+00 -0.00000000000E+00 -0.11540203576E+04  0.11540203576E+04  0.00000000000E+00 0.  1.
         24    1    1    2    0    0  0.38838764566E+02  0.55232573422E+02 -0.18451650306E+03  0.21230318569E+03  0.80419002446E+02 0.  1.
          1    1    1    2  501    0 -0.43849143814E+02 -0.32668933126E+02 -0.77685836175E+02  0.95000503931E+02  0.00000000000E+00 0. -1.
         -2    1    1    2    0  503  0.50103792488E+01 -0.22563640295E+02 -0.86911370175E+03  0.86942098453E+03  0.00000000000E+00 0.  1.
<mgrwt>
<rscale>  2 0.91400197E+02</rscale>
<asrwt>0</asrwt>
<pdfrwt beam="1">  1       21 0.34929712E-02 0.91400197E+02</pdfrwt>
<pdfrwt beam="2">  1       21 0.17754163E+00 0.91400197E+02</pdfrwt>
<totfact> 0.99029241E+04</totfact>
</mgrwt>
</event>
<event>
 5    1  0.1745726E+000  0.6671213E+02  0.7546771E-02  0.1371644E+00
         21   -1    0    0  503  502  0.00000000000E+00  0.00000000000E+00  0.39135013583E+03  0.39135013583E+03  0.00000000000E+00 0.  1.
         21   -1    0    0  501  503 -0.00000000000E+00 -0.00000000000E+00 -0.54603534686E+02  0.54603534686E+02  0.00000000000E+00 0. -1.
         24    1    1    2    0    0  0.28419525339E+01 -0.15918113928E+02  0.45965838366E+02  0.94029449091E+02  0.80419002446E+02 0.  1.
          1    1    1    2  501    0  0.21790050865E+02 -0.49610873095E+00 -0.25907112795E+02  0.33856032460E+02  0.00000000000E+00 0. -1.
         -2    1    1    2    0  502 -0.24632003399E+02  0.16414222659E+02  0.31668787558E+03  0.31806818897E+03  0.00000000000E+00 0.  1.
<mgrwt>
<rscale>  2 0.66712131E+02</rscale>
<asrwt>0</asrwt>
<pdfrwt beam="1">  1       21 0.60207711E-01 0.66712131E+02</pdfrwt>
<pdfrwt beam="2">  1       21 0.84005441E-02 0.66712131E+02</pdfrwt>
<totfact> 0.29121959E+05</totfact>
</mgrwt>
</event>
<event>
 5    1  0.1745726E+000  0.8368714E+02  0.7546771E-02  0.1318902E+00
         21   -1    0    0  503  502  0.00000000000E+00  0.00000000000E+00  0.21185299853E+03  0.21185299853E+03  0.00000000000E+00 0. -1.
         21   -1    0    0  501  503 -0.00000000000E+00 -0.00000000000E+00 -0.48971537084E+02  0.48971537084E+02  0.00000000000E+00 0. -1.
         24    1    1    2    0    0 -0.35335684127E+02  0.51261665289E+02  0.11241119217E+03  0.15159109796E+03  0.80419002446E+02 0. -1.
          1    1    1    2  501    0  0.27034002792E+02 -0.20832567234E+02 -0.14445388614E+02  0.37060793525E+02  0.00000000000E+00 0. -1.
         -2    1    1    2    0  502  0.83016813355E+01 -0.30429098055E+02  0.64915657885E+02  0.72172644126E+02  0.00000000000E+00 0.  1.
<mgrwt>
<rscale>  2 0.83687139E+02</rscale>
<asrwt>0</asrwt>
<pdfrwt beam="1">  1       21 0.32592768E-01 0.83687139E+02</pdfrwt>
<pdfrwt beam="2">  1       21 0.75340828E-02 0.83687139E+02</pdfrwt>
<totfact> 0.11961321E+06</totfact>
</mgrwt>
</event>
<event>
 5    1  0.1745726E+000  0.9276733E+02  0.7546771E-02  0.1296285E+00
         21   -1    0    0  501  502  0.00000000000E+00  0.00000000000E+00  0.70097234979E+03  0.70097234979E+03  0.00000000000E+00 0.  1.
         21   -1    0    0  502  503 -0.00000000000E+00 -0.00000000000E+00 -0.16768147992E+02  0.16768147992E+02  0.00000000000E+00 0. -1.
         24    1    1    2    0    0 -0.27618182875E+01 -0.14470271959E+02  0.16660514982E+03  0.18558423508E+03  0.80419002446E+02 0. -1.
          1    1    1    2  501    0  0.50555517471E+02 -0.76184113346E+01  0.40068513687E+03  0.40393375626E+03  0.00000000000E+00 0. -1.
         -2    1    1    2    0  503 -0.47793699183E+02  0.22088683293E+02  0.11691391512E+03  0.12822250644E+03  0.00000000000E+00 0.  1.
<mgrwt>
<rscale>  2 0.92767331E+02</rscale>
<asrwt>0</asrwt>
<pdfrwt beam="1">  1       21 0.10784188E+00 0.92767331E+02</pdfrwt>
<pdfrwt beam="2">  1       21 0.25797156E-02 0.92767331E+02</pdfrwt>
<totfact> 0.56514234E+05</totfact>
</mgrwt>
</event>
<event>
 5    1  0.1745726E+000  0.8514050E+02  0.7546771E-02  0.1315066E+00
         21   -1    0    0  501  502  0.00000000000E+00  0.00000000000E+00  0.36414219386E+03  0.36414219386E+03  0.00000000000E+00 0.  1.
         21   -1    0    0  502  503 -0.00000000000E+00 -0.00000000000E+00 -0.26602521157E+02  0.26602521157E+02  0.00000000000E+00 0.  1.
         24    1    1    2    0    0 -0.40071806643E+02  0.51788486540E+02  0.21257435327E+03  0.23652244851E+03  0.80419002446E+02 0.  1.
          1    1    1    2  501    0  0.17884367417E+02 -0.13832798833E+02  0.10228085288E+03  0.10475003479E+03  0.00000000000E+00 0. -1.
         -2    1    1    2    0  503  0.22187439226E+02 -0.37955687707E+02  0.22684466548E+02  0.49472231719E+02  0.00000000000E+00 0.  1.
<mgrwt>
<rscale>  2 0.85140496E+02</rscale>
<asrwt>0</asrwt>
<pdfrwt beam="1">  1       21 0.56021872E-01 0.85140496E+02</pdfrwt>
<pdfrwt beam="2">  1       21 0.40926958E-02 0.85140496E+02</pdfrwt>
<totfact> 0.11260948E+06</totfact>
</mgrwt>
</event>
<event>
 5    1  0.1745726E+000  0.8800123E+02  0.7546771E-02  0.1307765E+00
         21   -1    0    0  503  502  0.00000000000E+00  0.00000000000E+00  0.24835554667E+03  0.24835554667E+03  0.00000000000E+00 0. -1.
         21   -1    0    0  501  503 -0.00000000000E+00 -0.00000000000E+00 -0.35031065229E+02  0.35031065229E+02  0.00000000000E+00 0. -1.
         24    1    1    2    0    0 -0.31923165345E+02 -0.32727817137E+02  0.11202589020E+03  0.14528322177E+03  0.80419002446E+02 0. -1.
          1    1    1    2  501    0  0.54365903639E+02  0.23641455226E+02  0.38216325341E+02  0.70534086840E+02  0.00000000000E+00 0. -1.
         -2    1    1    2    0  502 -0.22442738295E+02  0.90863619112E+01  0.63082265905E+02  0.67569303287E+02  0.00000000000E+00 0.  1.
<mgrwt>
<rscale>  2 0.88001232E+02</rscale>
<asrwt>0</asrwt>
<pdfrwt beam="1">  1       21 0.38208545E-01 0.88001232E+02</pdfrwt>
<pdfrwt beam="2">  1       21 0.53893948E-02 0.88001232E+02</pdfrwt>
<totfact> 0.15458349E+06</totfact>
</mgrwt>
</event>
<event>
 5    1  0.1745726E+000  0.1037102E+03  0.7546771E-02  0.1272682E+00
         21   -1    0    0  501  502  0.00000000000E+00  0.00000000000E+00  0.11122315105E+02  0.11122315105E+02  0.00000000000E+00 0.  1.
         21   -1    0    0  502  503 -0.00000000000E+00 -0.00000000000E+00 -0.24025382670E+04  0.24025382670E+04  0.00000000000E+00 0. -1.
         24    1    1    2    0    0 -0.29870475312E+02  0.76836299729E+02 -0.21710283206E+04  0.21740807821E+04  0.80419002446E+02 0. -1.
          1    1    1    2  501    0  0.15054689525E+01 -0.58410463203E+02 -0.11662340830E+03  0.13044181849E+03  0.00000000000E+00 0. -1.
         -2    1    1    2    0  503  0.28365006359E+02 -0.18425836526E+02 -0.10376422307E+03  0.10913798160E+03  0.00000000000E+00 0.  1.
<mgrwt>
<rscale>  2 0.10371025E+03</rscale>
<asrwt>0</asrwt>
<pdfrwt beam="1">  1       21 0.17111233E-02 0.10371025E+03</pdfrwt>
<pdfrwt beam="2">  1       21 0.36962172E+00 0.10371025E+03</pdfrwt>
<totfact> 0.24180809E+04</totfact>
</mgrwt>
</event>
<event>
 5    1  0.1745726E+000  0.8196790E+02  0.7546771E-02  0.1323558E+00
         21   -1    0    0  501  502  0.00000000000E+00  0.00000000000E+00  0.26840466368E+03  0.26840466368E+03  0.00000000000E+00 0.  1.
         21   -1    0    0  502  503 -0.00000000000E+00 -0.00000000000E+00 -0.34860186099E+02  0.34860186099E+02  0.00000000000E+00 0.  1.
         24    1    1    2    0    0  0.55585744332E+02 -0.25749970507E+02  0.98061208455E+02  0.14084052156E+03  0.80419002446E+02 0.  0.
          1    1    1    2  501    0 -0.38302513678E+02  0.10309473479E+02  0.13338015217E+03  0.13915327085E+03  0.00000000000E+00 0. -1.
         -2    1    1    2    0  503 -0.17283230654E+02  0.15440497028E+02  0.21031169634E+01  0.23271057373E+02  0.00000000000E+00 0.  1.
<mgrwt>
<rscale>  2 0.81967901E+02</rscale>
<asrwt>0</asrwt>
<pdfrwt beam="1">  1       21 0.41293024E-01 0.81967901E+02</pdfrwt>
<pdfrwt beam="2">  1       21 0.53631057E-02 0.81967901E+02</pdfrwt>
<totfact> 0.13342458E+06</totfact>
</mgrwt>
</event>
<event>
 5    1  0.1745726E+000  0.1293824E+03  0.7546771E-02  0.1228375E+00
         21   -1    0    0  501  502  0.00000000000E+00  0.00000000000E+00  0.42499478848E+03  0.42499478848E+03  0.00000000000E+00 0.  1.
         21   -1    0    0  502  503 -0.00000000000E+00 -0.00000000000E+00 -0.76009871972E+02  0.76009871972E+02  0.00000000000E+00 0.  1.
         24    1    1    2    0    0 -0.20307689445E+02 -0.11510678087E+03  0.23395775609E+03  0.27361546163E+03  0.80419002446E+02 0.  1.
          1    1    1    2  501    0  0.10481585532E+02  0.61835358248E+02  0.15022287214E+03  0.16278939302E+03  0.00000000000E+00 0. -1.
         -2    1    1    2    0  503  0.98261039127E+01  0.53271422625E+02 -0.35195711722E+02  0.64599805806E+02  0.00000000000E+00 0.  1.
<mgrwt>
<rscale>  2 0.12938243E+03</rscale>
<asrwt>0</asrwt>
<pdfrwt beam="1">  1       21 0.65383812E-01 0.12938243E+03</pdfrwt>
<pdfrwt beam="2">  1       21 0.11693827E-01 0.12938243E+03</pdfrwt>
<totfact> 0.13519130E+05</totfact>
</mgrwt>
</event>
<event>
 5    1  0.1745726E+000  0.7536665E+02  0.7546771E-02  0.1342739E+00
         21   -1    0    0  501  502  0.00000000000E+00  0.00000000000E+00  0.70531130803E+02  0.70531130803E+02  0.00000000000E+00 0.  1.
         21   -1    0    0  502  503 -0.00000000000E+00 -0.00000000000E+00 -0.81326582837E+02  0.81326582837E+02  0.00000000000E+00 0.  1.
         24    1    1    2    0    0  0.21224674877E+02  0.23132419431E+02 -0.12256338671E+02  0.87195352195E+02  0.80419002446E+02 0.  1.
          1    1    1    2  501    0  0.16512371605E+02 -0.20851361647E+02  0.33581657521E+01  0.26808860024E+02  0.00000000000E+00 0. -1.
         -2    1    1    2    0  503 -0.37737046482E+02 -0.22810577843E+01 -0.18972791154E+01  0.37853501421E+02  0.00000000000E+00 0.  1.
<mgrwt>
<rscale>  2 0.75366647E+02</rscale>
<asrwt>0</asrwt>
<pdfrwt beam="1">  1       21 0.10850943E-01 0.75366647E+02</pdfrwt>
<pdfrwt beam="2">  1       21 0.12511782E-01 0.75366647E+02</pdfrwt>
<totfact> 0.36698271E+06</totfact>
</mgrwt>
</event>
<event>
 5    1  0.1745726E+000  0.6901606E+02  0.7546771E-02  0.1363471E+00
         21   -1    0    0  503  502  0.00000000000E+00  0.00000000000E+00  0.37899127130E+03  0.37899127130E+03  0.00000000000E+00 0. -1.
         21   -1    0    0  501  503 -0.00000000000E+00 -0.00000000000E+00 -0.14924623618E+02  0.14924623618E+02  0.00000000000E+00 0.  1.
         24    1    1    2    0    0  0.22777419687E+02 -0.96031502521E+01  0.19787070934E+03  0.21501410399E+03  0.80419002446E+02 0.  1.
          1    1    1    2  501    0 -0.16229989636E+02  0.29107103475E+02  0.45136003475E+02  0.56106103465E+02  0.00000000000E+00 0. -1.
         -2    1    1    2    0  502 -0.65474300519E+01 -0.19503953223E+02  0.12105993486E+03  0.12279568747E+03  0.00000000000E+00 0.  1.
<mgrwt>
<rscale>  2 0.69016063E+02</rscale>
<asrwt>0</asrwt>
<pdfrwt beam="1">  1       21 0.58306342E-01 0.69016063E+02</pdfrwt>
<pdfrwt beam="2">  1       21 0.22960962E-02 0.69016063E+02</pdfrwt>
<totfact> 0.26244207E+06</totfact>
</mgrwt>
</event>
<event>
 5    1  0.1745726E+000  0.7191925E+02  0.7546771E-02  0.1353686E+00
         21   -1    0    0  503  502  0.00000000000E+00  0.00000000000E+00  0.10465222938E+02  0.10465222938E+02  0.00000000000E+00 0. -1.
         21   -1    0    0  501  503 -0.00000000000E+00 -0.00000000000E+00 -0.50671537021E+03  0.50671537021E+03  0.00000000000E+00 0.  1.
         24    1    1    2    0    0 -0.12476881587E+02  0.60469788931E+01 -0.25657160443E+03  0.26923677810E+03  0.80419002446E+02 0. -1.
          1    1    1    2  501    0  0.37061515740E+02 -0.67166583584E+00 -0.16592743062E+03  0.17001740886E+03  0.00000000000E+00 0. -1.
         -2    1    1    2    0  502 -0.24584634153E+02 -0.53753130573E+01 -0.73751112224E+02  0.77926406187E+02  0.00000000000E+00 0.  1.
<mgrwt>
<rscale>  2 0.71919250E+02</rscale>
<asrwt>0</asrwt>
<pdfrwt beam="1">  1       21 0.16100348E-02 0.71919250E+02</pdfrwt>
<pdfrwt beam="2">  1       21 0.77956187E-01 0.71919250E+02</pdfrwt>
<totfact> 0.24907306E+06</totfact>
</mgrwt>
</event>
<event>
 5    1  0.1745726E+000  0.6784508E+02  0.7546771E-02  0.1367578E+00
         21   -1    0    0  501  502  0.00000000000E+00  0.00000000000E+00  0.52361914295E+02  0.52361914295E+02  0.00000000000E+00 0. -1.
         21   -1    0    0  502  503 -0.00000000000E+00 -0.00000000000E+00 -0.99060392859E+02  0.99060392859E+02  0.00000000000E+00 0.  1.
         24    1    1    2    0    0  0.14717171354E+02  0.23680023363E+01 -0.51776820697E+02  0.96800091341E+02  0.80419002446E+02 0.  0.
          1    1    1    2  501    0  0.87652177539E+01 -0.21752222503E+02  0.58218876200E+01  0.24163662834E+02  0.00000000000E+00 0. -1.
         -2    1    1    2    0  503 -0.23482389108E+02  0.19384220166E+02 -0.74354548746E+00  0.30458552979E+02  0.00000000000E+00 0.  1.
<mgrwt>
<rscale>  2 0.67845085E+02</rscale>
<asrwt>0</asrwt>
<pdfrwt beam="1">  1       21 0.80556792E-02 0.67845085E+02</pdfrwt>
<pdfrwt beam="2">  1       21 0.15240060E-01 0.67845085E+02</pdfrwt>
<totfact> 0.42871907E+06</totfact>
</mgrwt>
</event>
<event>
 5    1  0.1745726E+000  0.6669700E+02  0.7546771E-02  0.1371699E+00
         21   -1    0    0  503  502  0.00000000000E+00  0.00000000000E+00  0.55805520943E+02  0.55805520943E+02  0.00000000000E+00 0.  1.
         21   -1    0    0  501  503 -0.00000000000E+00 -0.00000000000E+00 -0.20041571094E+03  0.20041571094E+03  0.00000000000E+00 0.  1.
         24    1    1    2    0    0 -0.39956864496E+01 -0.45179782099E+01 -0.10628907546E+03  0.13342024267E+03  0.80419002446E+02 0.  1.
          1    1    1    2  501    0  0.18833697180E+02 -0.17822729830E+02 -0.73859288942E+02  0.78278684270E+02  0.00000000000E+00 0. -1.
         -2    1    1    2    0  502 -0.14838010731E+02  0.22340708039E+02  0.35538174400E+02  0.44522304948E+02  0.00000000000E+00 0.  1.
<mgrwt>
<rscale>  2 0.66697003E+02</rscale>
<asrwt>0</asrwt>
<pdfrwt beam="1">  1       21 0.85854648E-02 0.66697003E+02</pdfrwt>
<pdfrwt beam="2">  1       21 0.30833186E-01 0.66697003E+02</pdfrwt>
<totfact> 0.10582723E+06</totfact>
</mgrwt>
</event>
<event>
 5    1  0.1745726E+000  0.7739392E+02  0.7546771E-02  0.1336614E+00
         21   -1    0    0  501  502  0.00000000000E+00  0.00000000000E+00  0.72906347501E+02  0.72906347501E+02  0.00000000000E+00 0. -1.
         21   -1    0    0  502  503 -0.00000000000E+00 -0.00000000000E+00 -0.15836097919E+03  0.15836097919E+03  0.00000000000E+00 0. -1.
         24    1    1    2    0    0  0.24696522234E+02 -0.23540769856E+02 -0.11302696500E+03  0.14285096019E+03  0.80419002446E+02 0. -1.
          1    1    1    2  501    0 -0.35511700587E+02 -0.59612707925E+01  0.40717515271E+02  0.54355622321E+02  0.00000000000E+00 0. -1.
         -2    1    1    2    0  503  0.10815178354E+02  0.29502040649E+02 -0.13145181960E+02  0.34060744179E+02  0.00000000000E+00 0.  1.
<mgrwt>
<rscale>  2 0.77393922E+02</rscale>
<asrwt>0</asrwt>
<pdfrwt beam="1">  1       21 0.11216361E-01 0.77393922E+02</pdfrwt>
<pdfrwt beam="2">  1       21 0.24363227E-01 0.77393922E+02</pdfrwt>
<totfact> 0.10444791E+06</totfact>
</mgrwt>
</event>
<event>
 5    1  0.1745726E+000  0.1147571E+03  0.7546771E-02  0.1252006E+00
         21   -1    0    0  503  502  0.00000000000E+00  0.00000000000E+00  0.19540446730E+03  0.19540446730E+03  0.00000000000E+00 0.  1.
         21   -1    0    0  501  503 -0.00000000000E+00 -0.00000000000E+00 -0.92231620641E+02  0.92231620641E+02  0.00000000000E+00 0. -1.
         24    1    1    2    0    0 -0.82670643619E+02 -0.56747047466E+02 -0.15760998548E+02  0.12950014572E+03  0.80419002446E+02 0.  0.
          1    1    1    2  501    0  0.24947624839E+02  0.10736129012E+02  0.51172687556E+02  0.57933517094E+02  0.00000000000E+00 0. -1.
         -2    1    1    2    0  502  0.57723018780E+02  0.46010918455E+02  0.67761157649E+02  0.10020242512E+03  0.00000000000E+00 0.  1.
<mgrwt>
<rscale>  2 0.11475708E+03</rscale>
<asrwt>0</asrwt>
<pdfrwt beam="1">  1       21 0.30062226E-01 0.11475708E+03</pdfrwt>
<pdfrwt beam="2">  1       21 0.14189480E-01 0.11475708E+03</pdfrwt>
<totfact> 0.46519059E+05</totfact>
</mgrwt>
</event>
<event>
 5    1  0.1745726E+000  0.1034965E+03  0.7546771E-02  0.1273110E+00
         21   -1    0    0  503  502  0.00000000000E+00  0.00000000000E+00  0.48527683084E+03  0.48527683084E+03  0.00000000000E+00 0.  1.
         21   -1    0    0  501  503 -0.00000000000E+00 -0.00000000000E+00 -0.98607304388E+02  0.98607304388E+02  0.00000000000E+00 0. -1.
         24    1    1    2    0    0  0.62494906221E+02  0.53825465778E+02  0.28022371645E+03  0.30297746003E+03  0.80419002446E+02 0.  1.
          1    1    1    2  501    0 -0.41069633838E+02 -0.88975197486E+01 -0.78683934413E+02  0.89202254546E+02  0.00000000000E+00 0. -1.
         -2    1    1    2    0  502 -0.21425272382E+02 -0.44927946029E+02  0.18512974442E+03  0.19170442065E+03  0.00000000000E+00 0.  1.
<mgrwt>
<rscale>  2 0.10349652E+03</rscale>
<asrwt>0</asrwt>
<pdfrwt beam="1">  1       21 0.74657972E-01 0.10349652E+03</pdfrwt>
<pdfrwt beam="2">  1       21 0.15170355E-01 0.10349652E+03</pdfrwt>
<totfact> 0.64536987E+04</totfact>
</mgrwt>
</event>
<event>
 5    1  0.1745726E+000  0.1991220E+03  0.7546771E-02  0.1150482E+00
         21   -1    0    0  503  502  0.00000000000E+00  0.00000000000E+00  0.43977890852E+03  0.43977890852E+03  0.00000000000E+00 0.  1.
         21   -1    0    0  501  503 -0.00000000000E+00 -0.00000000000E+00 -0.11982411878E+03  0.11982411878E+03  0.00000000000E+00 0.  1.
         24    1    1    2    0    0 -0.41692307539E+02 -0.17114990768E+03  0.12893495970E+03  0.23264131016E+03  0.80419002446E+02 0.  1.
          1    1    1    2  501    0  0.31851800646E+02 -0.12922114678E+01 -0.31806263922E+02  0.45031604896E+02  0.00000000000E+00 0. -1.
         -2    1    1    2    0  502  0.98405068930E+01  0.17244211915E+03  0.22282609397E+03  0.28193011224E+03  0.00000000000E+00 0.  1.
<mgrwt>
<rscale>  2 0.19912202E+03</rscale>
<asrwt>0</asrwt>
<pdfrwt beam="1">  1       21 0.67658293E-01 0.19912202E+03</pdfrwt>
<pdfrwt beam="2">  1       21 0.18434480E-01 0.19912202E+03</pdfrwt>
<totfact> 0.53472627E+04</totfact>
</mgrwt>
</event>
<event>
 5    1  0.1745726E+000  0.9137859E+02  0.7546771E-02  0.1299547E+00
         21   -1    0    0  501  502  0.00000000000E+00  0.00000000000E+00  0.16678998405E+02  0.16678998405E+02  0.00000000000E+00 0.  1.
         21   -1    0    0  502  503 -0.00000000000E+00 -0.00000000000E+00 -0.73995749726E+03  0.73995749726E+03  0.00000000000E+00 0. -1.
         24    1    1    2    0    0  0.12086428429E+02 -0.21177111049E+02 -0.49168033648E+03  0.49880990469E+03  0.80419002446E+02 0.  0.
          1    1    1    2  501    0 -0.33441151902E+01  0.59409565497E+02 -0.71630870093E+02  0.93121754329E+02  0.00000000000E+00 0. -1.
         -2    1    1    2    0  503 -0.87423132393E+01 -0.38232454448E+02 -0.15996729229E+03  0.16470483665E+03  0.00000000000E+00 0.  1.
<mgrwt>
<rscale>  2 0.91378586E+02</rscale>
<asrwt>0</asrwt>
<pdfrwt beam="1">  1       21 0.25659997E-02 0.91378586E+02</pdfrwt>
<pdfrwt beam="2">  1       21 0.11383962E+00 0.91378586E+02</pdfrwt>
<totfact> 0.50169002E+05</totfact>
</mgrwt>
</event>
<event>
 5    1  0.1745726E+000  0.8273728E+02  0.7546771E-02  0.1321458E+00
         21   -1    0    0  501  502  0.00000000000E+00  0.00000000000E+00  0.27843818615E+04  0.27843818615E+04  0.00000000000E+00 0. -1.
         21   -1    0    0  502  503 -0.00000000000E+00 -0.00000000000E+00 -0.26630830717E+01  0.26630830717E+01  0.00000000000E+00 0.  1.
         24    1    1    2    0    0 -0.49507887755E+02  0.36563663996E+02  0.13577828970E+04  0.13615540914E+04  0.80419002446E+02 0.  0.
          1    1    1    2  501    0  0.19196415528E+02 -0.25546990167E+02  0.89691029031E+03  0.89747937021E+03  0.00000000000E+00 0. -1.
         -2    1    1    2    0  503  0.30311472227E+02 -0.11016673829E+02  0.52702559110E+03  0.52801148294E+03  0.00000000000E+00 0.  1.
<mgrwt>
<rscale>  2 0.82737278E+02</rscale>
<asrwt>0</asrwt>
<pdfrwt beam="1">  1       21 0.42836411E+00 0.82737278E+02</pdfrwt>
<pdfrwt beam="2">  1       21 0.40970732E-03 0.82737278E+02</pdfrwt>
<totfact> 0.10421664E+05</totfact>
</mgrwt>
</event>
<event>
 5    1  0.1745726E+000  0.1048115E+03  0.7546771E-02  0.1270492E+00
         21   -1    0    0  501  502  0.00000000000E+00  0.00000000000E+00  0.22986302845E+03  0.22986302845E+03  0.00000000000E+00 0.  1.
         21   -1    0    0  502  503 -0.00000000000E+00 -0.00000000000E+00 -0.50020513994E+02  0.50020513994E+02  0.00000000000E+00 0. -1.
         24    1    1    2    0    0  0.36399514331E+02 -0.65110450263E+02  0.77675963819E+02  0.13440634913E+03  0.80419002446E+02 0.  0.
          1    1    1    2  501    0  0.19496454807E+02  0.12402337529E+02  0.41834049704E+02  0.47791395051E+02  0.00000000000E+00 0. -1.
         -2    1    1    2    0  503 -0.55895969138E+02  0.52708112733E+02  0.60332500937E+02  0.97685798268E+02  0.00000000000E+00 0.  1.
<mgrwt>
<rscale>  2 0.10481146E+03</rscale>
<asrwt>0</asrwt>
<pdfrwt beam="1">  1       21 0.35363542E-01 0.10481146E+03</pdfrwt>
<pdfrwt beam="2">  1       21 0.76954638E-02 0.10481146E+03</pdfrwt>
<totfact> 0.98917087E+05</totfact>
</mgrwt>
</event>
<event>
 5    1  0.1745726E+000  0.1014294E+03  0.7546771E-02  0.1277318E+00
         21   -1    0    0  501  502  0.00000000000E+00  0.00000000000E+00  0.25969072603E+03  0.25969072603E+03  0.00000000000E+00 0. -1.
         21   -1    0    0  502  503 -0.00000000000E+00 -0.00000000000E+00 -0.72432891617E+02  0.72432891617E+02  0.00000000000E+00 0. -1.
         24    1    1    2    0    0 -0.29521304657E+02 -0.20089439041E+02  0.64959433951E+02  0.10937109766E+03  0.80419002446E+02 0. -1.
          1    1    1    2  501    0  0.68264124882E+02  0.30475091815E+02  0.15428942683E+03  0.17144663659E+03  0.00000000000E+00 0. -1.
         -2    1    1    2    0  503 -0.38742820226E+02 -0.10385652774E+02 -0.31991026371E+02  0.51305883394E+02  0.00000000000E+00 0.  1.
<mgrwt>
<rscale>  2 0.10142942E+03</rscale>
<asrwt>0</asrwt>
<pdfrwt beam="1">  1       21 0.39952419E-01 0.10142942E+03</pdfrwt>
<pdfrwt beam="2">  1       21 0.11143522E-01 0.10142942E+03</pdfrwt>
<totfact> 0.40984997E+05</totfact>
</mgrwt>
</event>
<event>
 5    1  0.1745726E+000  0.8691009E+02  0.7546771E-02  0.1310512E+00
         21   -1    0    0  503  502  0.00000000000E+00  0.00000000000E+00  0.24409360943E+03  0.24409360943E+03  0.00000000000E+00 0.  1.
         21   -1    0    0  501  503 -0.00000000000E+00 -0.00000000000E+00 -0.43248999935E+02  0.43248999935E+02  0.00000000000E+00 0. -1.
         24    1    1    2    0    0 -0.34162554174E+02 -0.46134164257E+01  0.13813223093E+03  0.16351175155E+03  0.80419002446E+02 0.  0.
          1    1    1    2  501    0  0.58475809941E+02  0.14222838612E+02  0.48972370942E+01  0.60379569538E+02  0.00000000000E+00 0. -1.
         -2    1    1    2    0  502 -0.24313255767E+02 -0.96094221865E+01  0.57815141473E+02  0.63451288279E+02  0.00000000000E+00 0.  1.
<mgrwt>
<rscale>  2 0.86910086E+02</rscale>
<asrwt>0</asrwt>
<pdfrwt beam="1">  1       21 0.37552862E-01 0.86910086E+02</pdfrwt>
<pdfrwt beam="2">  1       21 0.66536924E-02 0.86910086E+02</pdfrwt>
<totfact> 0.11223613E+06</totfact>
</mgrwt>
</event>
<event>
 5    1  0.1745726E+000  0.9068769E+02  0.7546771E-02  0.1301195E+00
         21   -1    0    0  503  502  0.00000000000E+00  0.00000000000E+00  0.45927996600E+02  0.45927996600E+02  0.00000000000E+00 0. -1.
         21   -1    0    0  501  503 -0.00000000000E+00 -0.00000000000E+00 -0.30967188892E+03  0.30967188892E+03  0.00000000000E+00 0. -1.
         24    1    1    2    0    0  0.32275011793E+02  0.63190856537E+02 -0.49722554150E+02  0.11821298187E+03  0.80419002446E+02 0. -1.
          1    1    1    2  501    0 -0.21853422075E+02 -0.19753236340E+02 -0.17681277153E+03  0.17924987748E+03  0.00000000000E+00 0. -1.
         -2    1    1    2    0  502 -0.10421589718E+02 -0.43437620197E+02 -0.37208566646E+02  0.58137026175E+02  0.00000000000E+00 0.  1.
<mgrwt>
<rscale>  2 0.90687692E+02</rscale>
<asrwt>0</asrwt>
<pdfrwt beam="1">  1       21 0.70658457E-02 0.90687692E+02</pdfrwt>
<pdfrwt beam="2">  1       21 0.47641829E-01 0.90687692E+02</pdfrwt>
<totfact> 0.63131487E+05</totfact>
</mgrwt>
</event>
<event>
 5    1  0.1745726E+000  0.1163863E+03  0.7546771E-02  0.1249180E+00
         21   -1    0    0  503  502  0.00000000000E+00  0.00000000000E+00  0.58853144636E+01  0.58853144636E+01  0.00000000000E+00 0. -1.
         21   -1    0    0  501  503 -0.00000000000E+00 -0.00000000000E+00 -0.26003527014E+04  0.26003527014E+04  0.00000000000E+00 0.  1.
         24    1    1    2    0    0 -0.21489280867E+02  0.83091569362E+02 -0.17487647256E+04  0.17527154018E+04  0.80419002446E+02 0.  1.
          1    1    1    2  501    0 -0.22279565795E+02 -0.63330113650E+02 -0.51168086664E+03  0.51606626671E+03  0.00000000000E+00 0. -1.
         -2    1    1    2    0  502  0.43768846662E+02 -0.19761455712E+02 -0.33402179469E+03  0.33745634739E+03  0.00000000000E+00 0.  1.
<mgrwt>
<rscale>  2 0.11638634E+03</rscale>
<asrwt>0</asrwt>
<pdfrwt beam="1">  1       21 0.90543055E-03 0.11638634E+03</pdfrwt>
<pdfrwt beam="2">  1       21 0.40005534E+00 0.11638634E+03</pdfrwt>
<totfact> 0.42558679E+04</totfact>
</mgrwt>
</event>
<event>
 5    1  0.1745726E+000  0.8055682E+02  0.7546771E-02  0.1327479E+00
         21   -1    0    0  503  502  0.00000000000E+00  0.00000000000E+00  0.18760643155E+03  0.18760643155E+03  0.00000000000E+00 0.  1.
         21   -1    0    0  501  503 -0.00000000000E+00 -0.00000000000E+00 -0.17441142513E+03  0.17441142513E+03  0.00000000000E+00 0.  1.
         24    1    1    2    0    0  0.41585791646E+02 -0.63950241999E+01 -0.10095389132E+03  0.13575411054E+03  0.80419002446E+02 0.  1.
          1    1    1    2  501    0 -0.33687106410E+02 -0.22426098697E+02 -0.47198202009E+02  0.62172512527E+02  0.00000000000E+00 0. -1.
         -2    1    1    2    0  502 -0.78986852367E+01  0.28821122897E+02  0.16134709975E+03  0.16409123362E+03  0.00000000000E+00 0.  1.
<mgrwt>
<rscale>  2 0.80556820E+02</rscale>
<asrwt>0</asrwt>
<pdfrwt beam="1">  1       21 0.28862528E-01 0.80556820E+02</pdfrwt>
<pdfrwt beam="2">  1       21 0.26832527E-01 0.80556820E+02</pdfrwt>
<totfact> 0.15768297E+05</totfact>
</mgrwt>
</event>
<event>
 5    1  0.1745726E+000  0.7346029E+02  0.7546771E-02  0.1348706E+00
         21   -1    0    0  501  502  0.00000000000E+00  0.00000000000E+00  0.49881065843E+03  0.49881065843E+03  0.00000000000E+00 0. -1.
         21   -1    0    0  502  503 -0.00000000000E+00 -0.00000000000E+00 -0.37011322466E+02  0.37011322466E+02  0.00000000000E+00 0.  1.
         24    1    1    2    0    0  0.41654682814E+02  0.16366248875E+02  0.14721766541E+03  0.17361803958E+03  0.80419002446E+02 0.  1.
          1    1    1    2  501    0 -0.12561064083E+02 -0.21923863699E+02  0.32850477812E+03  0.32947507550E+03  0.00000000000E+00 0. -1.
         -2    1    1    2    0  503 -0.29093618731E+02  0.55576148250E+01 -0.13923107567E+02  0.32728865818E+02  0.00000000000E+00 0.  1.
<mgrwt>
<rscale>  2 0.73460287E+02</rscale>
<asrwt>0</asrwt>
<pdfrwt beam="1">  1       21 0.76740097E-01 0.73460287E+02</pdfrwt>
<pdfrwt beam="2">  1       21 0.56940500E-02 0.73460287E+02</pdfrwt>
<totfact> 0.33378531E+05</totfact>
</mgrwt>
</event>
<event>
 5    1  0.1745726E+000  0.7855154E+02  0.7546771E-02  0.1333213E+00
         21   -1    0    0  501  502  0.00000000000E+00  0.00000000000E+00  0.10729189826E+04  0.10729189826E+04  0.00000000000E+00 0.  1.
         21   -1    0    0  502  503 -0.00000000000E+00 -0.00000000000E+00 -0.66497450917E+01  0.66497450917E+01  0.00000000000E+00 0. -1.
         24    1    1    2    0    0  0.22161498746E+02 -0.44761996363E+02  0.44500741078E+03  0.45496547116E+03  0.80419002446E+02 0. -1.
          1    1    1    2  501    0 -0.27455876311E+02  0.13257616975E+02  0.38258804353E+03  0.38380099089E+03  0.00000000000E+00 0. -1.
         -2    1    1    2    0  503  0.52943775653E+01  0.31504379388E+02  0.23867378324E+03  0.24080226568E+03  0.00000000000E+00 0.  1.
<mgrwt>
<rscale>  2 0.78551538E+02</rscale>
<asrwt>0</asrwt>
<pdfrwt beam="1">  1       21 0.16506432E+00 0.78551538E+02</pdfrwt>
<pdfrwt beam="2">  1       21 0.10230386E-02 0.78551538E+02</pdfrwt>
<totfact> 0.85789517E+05</totfact>
</mgrwt>
</event>
<event>
 5    1  0.1745726E+000  0.1101277E+03  0.7546771E-02  0.1260334E+00
         21   -1    0    0  503  502  0.00000000000E+00  0.00000000000E+00  0.11256824014E+04  0.11256824014E+04  0.00000000000E+00 0.  1.
         21   -1    0    0  501  503 -0.00000000000E+00 -0.00000000000E+00 -0.17974127851E+02  0.17974127851E+02  0.00000000000E+00 0.  1.
         24    1    1    2    0    0 -0.48232281627E+02 -0.41968070167E+02  0.32803945226E+03  0.34375102924E+03  0.80419002446E+02 0.  1.
          1    1    1    2  501    0  0.26852901328E+02 -0.31273461666E+02  0.44004261932E+02  0.60294964818E+02  0.00000000000E+00 0. -1.
         -2    1    1    2    0  502  0.21379380300E+02  0.73241531833E+02  0.73566455935E+03  0.73961053519E+03  0.00000000000E+00 0.  1.
<mgrwt>
<rscale>  2 0.11012766E+03</rscale>
<asrwt>0</asrwt>
<pdfrwt beam="1">  1       21 0.17318185E+00 0.11012766E+03</pdfrwt>
<pdfrwt beam="2">  1       21 0.27652513E-02 0.11012766E+03</pdfrwt>
<totfact> 0.15305072E+05</totfact>
</mgrwt>
</event>
<event>
 5    1  0.1745726E+000  0.1001278E+03  0.7546771E-02  0.1280027E+00
         21   -1    0    0  503  502  0.00000000000E+00  0.00000000000E+00  0.66933729177E+03  0.66933729177E+03  0.00000000000E+00 0.  1.
         21   -1    0    0  501  503 -0.00000000000E+00 -0.00000000000E+00 -0.14985150727E+02  0.14985150727E+02  0.00000000000E+00 0. -1.
         24    1    1    2    0    0  0.31576179099E+02  0.53894813375E+02  0.32585396479E+03  0.34139380240E+03  0.80419002446E+02 0.  0.
          1    1    1    2  501    0  0.16839722819E+02 -0.46493699226E+02  0.16330228908E+03  0.17062496286E+03  0.00000000000E+00 0. -1.
         -2    1    1    2    0  502 -0.48415901918E+02 -0.74011141489E+01  0.16519588717E+03  0.17230367723E+03  0.00000000000E+00 0.  1.
<mgrwt>
<rscale>  2 0.10012780E+03</rscale>
<asrwt>0</asrwt>
<pdfrwt beam="1">  1       21 0.10297495E+00 0.10012780E+03</pdfrwt>
<pdfrwt beam="2">  1       21 0.23054083E-02 0.10012780E+03</pdfrwt>
<totfact> 0.75481576E+05</totfact>
</mgrwt>
</event>
<event>
 5    1  0.1745726E+000  0.9368473E+02  0.7546771E-02  0.1294166E+00
         21   -1    0    0  501  502  0.00000000000E+00  0.00000000000E+00  0.33620679201E+02  0.33620679201E+02  0.00000000000E+00 0.  1.
         21   -1    0    0  502  503 -0.00000000000E+00 -0.00000000000E+00 -0.55772548970E+03  0.55772548970E+03  0.00000000000E+00 0.  1.
         24    1    1    2    0    0 -0.34174028338E+02 -0.67705754427E+02 -0.76282157400E+02  0.13430605678E+03  0.80419002446E+02 0.  1.
          1    1    1    2  501    0  0.95437339843E+01  0.32433323923E+02 -0.81994456457E+02  0.88691004329E+02  0.00000000000E+00 0. -1.
         -2    1    1    2    0  503  0.24630294354E+02  0.35272430504E+02 -0.36582819664E+03  0.36834910779E+03  0.00000000000E+00 0.  1.
<mgrwt>
<rscale>  2 0.93684735E+02</rscale>
<asrwt>0</asrwt>
<pdfrwt beam="1">  1       21 0.51724122E-02 0.93684735E+02</pdfrwt>
<pdfrwt beam="2">  1       21 0.85803921E-01 0.93684735E+02</pdfrwt>
<totfact> 0.30492000E+05</totfact>
</mgrwt>
</event>
<event>
 5    1  0.1745726E+000  0.7248850E+02  0.7546771E-02  0.1351830E+00
         21   -1    0    0  503  502  0.00000000000E+00  0.00000000000E+00  0.47875122625E+02  0.47875122625E+02  0.00000000000E+00 0. -1.
         21   -1    0    0  501  503 -0.00000000000E+00 -0.00000000000E+00 -0.13208357697E+03  0.13208357697E+03  0.00000000000E+00 0.  1.
         24    1    1    2    0    0  0.35998880721E+02 -0.33339825678E+02 -0.37022828926E+02  0.10121941121E+03  0.80419002446E+02 0.  0.
          1    1    1    2  501    0 -0.17732305741E+02  0.25101574349E+02 -0.49811535630E+02  0.58529588957E+02  0.00000000000E+00 0. -1.
         -2    1    1    2    0  502 -0.18266574981E+02  0.82382513291E+01  0.26259102135E+01  0.20209699427E+02  0.00000000000E+00 0.  1.
<mgrwt>
<rscale>  2 0.72488499E+02</rscale>
<asrwt>0</asrwt>
<pdfrwt beam="1">  1       21 0.73654036E-02 0.72488499E+02</pdfrwt>
<pdfrwt beam="2">  1       21 0.20320550E-01 0.72488499E+02</pdfrwt>
<totfact> 0.29889704E+06</totfact>
</mgrwt>
</event>
<event>
 5    1  0.1745726E+000  0.6575879E+02  0.7546771E-02  0.1375140E+00
         21   -1    0    0  501  502  0.00000000000E+00  0.00000000000E+00  0.16013439325E+03  0.16013439325E+03  0.00000000000E+00 0.  1.
         21   -1    0    0  502  503 -0.00000000000E+00 -0.00000000000E+00 -0.47944197680E+02  0.47944197680E+02  0.00000000000E+00 0.  1.
         24    1    1    2    0    0 -0.15240326072E+02 -0.36598318091E+02  0.44677177401E+01  0.89771269803E+02  0.80419002446E+02 0.  1.
          1    1    1    2  501    0  0.10765253329E+01  0.20035626832E+02  0.82818443414E+02  0.85214316983E+02  0.00000000000E+00 0. -1.
         -2    1    1    2    0  503  0.14163800739E+02  0.16562691259E+02  0.24904034417E+02  0.33093004145E+02  0.00000000000E+00 0.  1.
<mgrwt>
<rscale>  2 0.65758790E+02</rscale>
<asrwt>0</asrwt>
<pdfrwt beam="1">  1       21 0.24636060E-01 0.65758790E+02</pdfrwt>
<pdfrwt beam="2">  1       21 0.73760305E-02 0.65758790E+02</pdfrwt>
<totfact> 0.20822679E+06</totfact>
</mgrwt>
</event>
<event>
 5    1  0.1745726E+000  0.6925521E+02  0.7546771E-02  0.1362644E+00
         21   -1    0    0  501  502  0.00000000000E+00  0.00000000000E+00  0.21990710333E+02  0.21990710333E+02  0.00000000000E+00 0. -1.
         21   -1    0    0  502  503 -0.00000000000E+00 -0.00000000000E+00 -0.65810821940E+03  0.65810821940E+03  0.00000000000E+00 0.  1.
         24    1    1    2    0    0 -0.84935913502E+00  0.91358838144E+01 -0.38959944706E+03  0.39791849779E+03  0.80419002446E+02 0.  0.
          1    1    1    2  501    0  0.22263684077E+02 -0.23038534512E+02  0.22392270001E+01  0.32116348465E+02  0.00000000000E+00 0. -1.
         -2    1    1    2    0  503 -0.21414324942E+02  0.13902650698E+02 -0.24875728901E+03  0.25006408348E+03  0.00000000000E+00 0.  1.
<mgrwt>
<rscale>  2 0.69255206E+02</rscale>
<asrwt>0</asrwt>
<pdfrwt beam="1">  1       21 0.33831865E-02 0.69255206E+02</pdfrwt>
<pdfrwt beam="2">  1       21 0.10124741E+00 0.69255206E+02</pdfrwt>
<totfact> 0.42297506E+05</totfact>
</mgrwt>
</event>
<event>
 5    1  0.1745726E+000  0.1280739E+03  0.7546771E-02  0.1230342E+00
         21   -1    0    0  501  502  0.00000000000E+00  0.00000000000E+00  0.62605921722E+02  0.62605921722E+02  0.00000000000E+00 0.  1.
         21   -1    0    0  502  503 -0.00000000000E+00 -0.00000000000E+00 -0.29436434543E+03  0.29436434543E+03  0.00000000000E+00 0.  1.
         24    1    1    2    0    0  0.66763646939E+02 -0.25307394907E+02 -0.11293803354E+03  0.15594891524E+03  0.80419002446E+02 0.  1.
          1    1    1    2  501    0 -0.97162692293E+01 -0.51792755837E+02 -0.61452427844E+01  0.53053364208E+02  0.00000000000E+00 0. -1.
         -2    1    1    2    0  503 -0.57047377709E+02  0.77100150744E+02 -0.11267514738E+03  0.14796798771E+03  0.00000000000E+00 0.  1.
<mgrwt>
<rscale>  2 0.12807391E+03</rscale>
<asrwt>0</asrwt>
<pdfrwt beam="1">  1       21 0.96316803E-02 0.12807391E+03</pdfrwt>
<pdfrwt beam="2">  1       21 0.45286822E-01 0.12807391E+03</pdfrwt>
<totfact> 0.40985048E+05</totfact>
</mgrwt>
</event>
<event>
 5    1  0.1745726E+000  0.7122335E+02  0.7546771E-02  0.1355982E+00
         21   -1    0    0  501  502  0.00000000000E+00  0.00000000000E+00  0.68628413104E+03  0.68628413104E+03  0.00000000000E+00 0.  1.
         21   -1    0    0  502  503 -0.00000000000E+00 -0.00000000000E+00 -0.96239667354E+01  0.96239667354E+01  0.00000000000E+00 0. -1.
         24    1    1    2    0    0 -0.57013443737E+01 -0.22614093543E+02  0.32531697935E+03  0.33592001363E+03  0.80419002446E+02 0. -1.
          1    1    1    2  501    0  0.25174198963E+02 -0.42545718871E+01  0.28158027734E+03  0.28273537851E+03  0.00000000000E+00 0. -1.
         -2    1    1    2    0  503 -0.19472854589E+02  0.26868665430E+02  0.69762907623E+02  0.77252705635E+02  0.00000000000E+00 0.  1.
<mgrwt>
<rscale>  2 0.71223350E+02</rscale>
<asrwt>0</asrwt>
<pdfrwt beam="1">  1       21 0.10558214E+00 0.71223350E+02</pdfrwt>
<pdfrwt beam="2">  1       21 0.14806108E-02 0.71223350E+02</pdfrwt>
<totfact> 0.14365268E+06</totfact>
</mgrwt>
</event>
<event>
 5    1  0.1745726E+000  0.7750144E+02  0.7546771E-02  0.1336295E+00
         21   -1    0    0  503  502  0.00000000000E+00  0.00000000000E+00  0.11635146327E+04  0.11635146327E+04  0.00000000000E+00 0.  1.
         21   -1    0    0  501  503 -0.00000000000E+00 -0.00000000000E+00 -0.18248275859E+02  0.18248275859E+02  0.00000000000E+00 0.  1.
         24    1    1    2    0    0  0.14984252872E+02  0.19410047368E+02  0.25574352300E+03  0.26920854979E+03  0.80419002446E+02 0.  1.
          1    1    1    2  501    0  0.21785297936E+02  0.98779859415E+01  0.22374231375E+01  0.24024568148E+02  0.00000000000E+00 0. -1.
         -2    1    1    2    0  502 -0.36769550808E+02 -0.29288033309E+02  0.88728541074E+03  0.88852979065E+03  0.00000000000E+00 0.  1.
<mgrwt>
<rscale>  2 0.77501440E+02</rscale>
<asrwt>0</asrwt>
<pdfrwt beam="1">  1       21 0.17900219E+00 0.77501440E+02</pdfrwt>
<pdfrwt beam="2">  1       21 0.28074280E-02 0.77501440E+02</pdfrwt>
<totfact> 0.13979479E+05</totfact>
</mgrwt>
</event>
<event>
 5    1  0.1745726E+000  0.1201613E+03  0.7546771E-02  0.1242831E+00
         21   -1    0    0  501  502  0.00000000000E+00  0.00000000000E+00  0.15384196303E+03  0.15384196303E+03  0.00000000000E+00 0. -1.
         21   -1    0    0  502  503 -0.00000000000E+00 -0.00000000000E+00 -0.33569147636E+03  0.33569147636E+03  0.00000000000E+00 0.  1.
         24    1    1    2    0    0 -0.75955865185E+02  0.20865018992E+02 -0.60326156766E+02  0.12771493107E+03  0.80419002446E+02 0. -1.
          1    1    1    2  501    0  0.79033029007E+02  0.24144335836E+02  0.10342805330E+03  0.13238780472E+03  0.00000000000E+00 0. -1.
         -2    1    1    2    0  503 -0.30771638220E+01 -0.45009354827E+02 -0.22495140986E+03  0.22943070361E+03  0.00000000000E+00 0.  1.
<mgrwt>
<rscale>  2 0.12016128E+03</rscale>
<asrwt>0</asrwt>
<pdfrwt beam="1">  1       21 0.23667995E-01 0.12016128E+03</pdfrwt>
<pdfrwt beam="2">  1       21 0.51644842E-01 0.12016128E+03</pdfrwt>
<totfact> 0.61960174E+04</totfact>
</mgrwt>
</event>
<event>
 5    1  0.1745726E+000  0.8487024E+02  0.7546771E-02  0.1315772E+00
         21   -1    0    0  501  502  0.00000000000E+00  0.00000000000E+00  0.34766321215E+02  0.34766321215E+02  0.00000000000E+00 0.  1.
         21   -1    0    0  502  503 -0.00000000000E+00 -0.00000000000E+00 -0.21109165259E+03  0.21109165259E+03  0.00000000000E+00 0.  1.
         24    1    1    2    0    0  0.45088025267E+02  0.35547405876E+02 -0.95755813146E+02  0.13759701956E+03  0.80419002446E+02 0.  1.
          1    1    1    2  501    0 -0.18636025675E+02 -0.39977948004E+02 -0.39501025209E+02  0.59210377234E+02  0.00000000000E+00 0. -1.
         -2    1    1    2    0  503 -0.26451999592E+02  0.44305421281E+01 -0.41068493023E+02  0.49050577011E+02  0.00000000000E+00 0.  1.
<mgrwt>
<rscale>  2 0.84870244E+02</rscale>
<asrwt>0</asrwt>
<pdfrwt beam="1">  1       21 0.53486648E-02 0.84870244E+02</pdfrwt>
<pdfrwt beam="2">  1       21 0.32475639E-01 0.84870244E+02</pdfrwt>
<totfact> 0.21444368E+06</totfact>
</mgrwt>
</event>
<event>
 5    1  0.1745726E+000  0.7272049E+02  0.7546771E-02  0.1351079E+00
         21   -1    0    0  503  502  0.00000000000E+00  0.00000000000E+00  0.49806384773E+02  0.49806384773E+02  0.00000000000E+00 0.  1.
         21   -1    0    0  501  503 -0.00000000000E+00 -0.00000000000E+00 -0.24233342580E+03  0.24233342580E+03  0.00000000000E+00 0. -1.
         24    1    1    2    0    0  0.18872012236E+02  0.17904664289E+02 -0.14979698445E+03  0.17199733241E+03  0.80419002446E+02 0.  1.
          1    1    1    2  501    0  0.19359387146E+02 -0.10335697017E+02 -0.69485690238E+02  0.72868879855E+02  0.00000000000E+00 0. -1.
         -2    1    1    2    0  502 -0.38231399382E+02 -0.75689672719E+01  0.26755633665E+02  0.47273598310E+02  0.00000000000E+00 0.  1.
<mgrwt>
<rscale>  2 0.72720490E+02</rscale>
<asrwt>0</asrwt>
<pdfrwt beam="1">  1       21 0.76625206E-02 0.72720490E+02</pdfrwt>
<pdfrwt beam="2">  1       21 0.37282066E-01 0.72720490E+02</pdfrwt>
<totfact> 0.89308331E+05</totfact>
</mgrwt>
</event>
<event>
 5    1  0.1745726E+000  0.1549825E+03  0.7546771E-02  0.1194481E+00
         21   -1    0    0  503  502  0.00000000000E+00  0.00000000000E+00  0.47471836364E+02  0.47471836364E+02  0.00000000000E+00 0. -1.
         21   -1    0    0  501  503 -0.00000000000E+00 -0.00000000000E+00 -0.12728426101E+04  0.12728426101E+04  0.00000000000E+00 0. -1.
         24    1    1    2    0    0  0.11545963137E+03 -0.75829972172E+02 -0.31134332871E+03  0.34997570693E+03  0.80419002446E+02 0. -1.
          1    1    1    2  501    0 -0.10836221242E+03  0.43072228124E+02 -0.92706845624E+03  0.93437332393E+03  0.00000000000E+00 0. -1.
         -2    1    1    2    0  502 -0.70974189527E+01  0.32757744048E+02  0.13041011163E+02  0.35965415653E+02  0.00000000000E+00 0.  1.
<mgrwt>
<rscale>  2 0.15498247E+03</rscale>
<asrwt>0</asrwt>
<pdfrwt beam="1">  1       21 0.73033594E-02 0.15498247E+03</pdfrwt>
<pdfrwt beam="2">  1       21 0.19582194E+00 0.15498247E+03</pdfrwt>
<totfact> 0.20696045E+04</totfact>
</mgrwt>
</event>
<event>
 5    1  0.1745726E+000  0.7022916E+02  0.7546771E-02  0.1359316E+00
         21   -1    0    0  503  502  0.00000000000E+00  0.00000000000E+00  0.11296505140E+03  0.11296505140E+03  0.00000000000E+00 0. -1.
         21   -1    0    0  501  503 -0.00000000000E+00 -0.00000000000E+00 -0.18154378317E+03  0.18154378317E+03  0.00000000000E+00 0. -1.
         24    1    1    2    0    0  0.81197312555E+01 -0.19235626593E+02  0.13309693741E+02  0.84144537957E+02  0.80419002446E+02 0. -1.
          1    1    1    2  501    0 -0.29670284878E+02  0.20045889510E+02 -0.14202940855E+03  0.14647360303E+03  0.00000000000E+00 0. -1.
         -2    1    1    2    0  502  0.21550553622E+02 -0.81026291733E+00  0.60140983033E+02  0.63890693592E+02  0.00000000000E+00 0.  1.
<mgrwt>
<rscale>  2 0.70229160E+02</rscale>
<asrwt>0</asrwt>
<pdfrwt beam="1">  1       21 0.17379239E-01 0.70229160E+02</pdfrwt>
<pdfrwt beam="2">  1       21 0.27929813E-01 0.70229160E+02</pdfrwt>
<totfact> 0.37307529E+05</totfact>
</mgrwt>
</event>
<event>
 5    1  0.1745726E+000  0.1607467E+03  0.7546771E-02  0.1187856E+00
         21   -1    0    0  503  502  0.00000000000E+00  0.00000000000E+00  0.78010118957E+02  0.78010118957E+02  0.00000000000E+00 0.  1.
         21   -1    0    0  501  503 -0.00000000000E+00 -0.00000000000E+00 -0.38120122116E+03  0.38120122116E+03  0.00000000000E+00 0. -1.
         24    1    1    2    0    0 -0.77498358761E+02  0.11279697669E+03 -0.23177262952E+03  0.28091799749E+03  0.80419002446E+02 0. -1.
          1    1    1    2  501    0  0.18484062522E+02  0.13810693754E+02 -0.15680155488E+02  0.27897367356E+02  0.00000000000E+00 0. -1.
         -2    1    1    2    0  502  0.59014296239E+02 -0.12660767044E+03 -0.55738317195E+02  0.15039597528E+03  0.00000000000E+00 0.  1.
<mgrwt>
<rscale>  2 0.16074669E+03</rscale>
<asrwt>0</asrwt>
<pdfrwt beam="1">  1       21 0.12001557E-01 0.16074669E+03</pdfrwt>
<pdfrwt beam="2">  1       21 0.58646343E-01 0.16074669E+03</pdfrwt>
<totfact> 0.16135390E+05</totfact>
</mgrwt>
</event>
<event>
 5    1  0.1745726E+000  0.8102612E+02  0.7546771E-02  0.1326164E+00
         21   -1    0    0  501  502  0.00000000000E+00  0.00000000000E+00  0.48890651025E+03  0.48890651025E+03  0.00000000000E+00 0. -1.
         21   -1    0    0  502  503 -0.00000000000E+00 -0.00000000000E+00 -0.61987304931E+02  0.61987304931E+02  0.00000000000E+00 0.  1.
         24    1    1    2    0    0 -0.31019198318E+02 -0.46397197257E+02  0.27633090795E+03  0.29315674514E+03  0.80419002446E+02 0.  0.
          1    1    1    2  501    0  0.32641817295E+02  0.21216460153E+02  0.19919893288E+03  0.20296758676E+03  0.00000000000E+00 0. -1.
         -2    1    1    2    0  503 -0.16226189771E+01  0.25180737104E+02 -0.48610635511E+02  0.54769483275E+02  0.00000000000E+00 0.  1.
<mgrwt>
<rscale>  2 0.81026122E+02</rscale>
<asrwt>0</asrwt>
<pdfrwt beam="1">  1       21 0.75216384E-01 0.81026122E+02</pdfrwt>
<pdfrwt beam="2">  1       21 0.95365088E-02 0.81026122E+02</pdfrwt>
<totfact> 0.14529481E+05</totfact>
</mgrwt>
</event>
<event>
 5    1  0.1745726E+000  0.1467402E+03  0.7546771E-02  0.1204537E+00
         21   -1    0    0  501  502  0.00000000000E+00  0.00000000000E+00  0.22114565070E+02  0.22114565070E+02  0.00000000000E+00 0.  1.
         21   -1    0    0  502  503 -0.00000000000E+00 -0.00000000000E+00 -0.25826669708E+04  0.25826669708E+04  0.00000000000E+00 0.  1.
         24    1    1    2    0    0  0.90817471120E+02 -0.26089938967E+02 -0.18340459443E+03  0.22143387092E+03  0.80419002446E+02 0.  1.
          1    1    1    2  501    0 -0.70008729270E+02 -0.52879989066E+02 -0.10317565493E+04  0.10354801266E+04  0.00000000000E+00 0. -1.
         -2    1    1    2    0  503 -0.20808741850E+02  0.78969928033E+02 -0.13453912620E+04  0.13478675384E+04  0.00000000000E+00 0.  1.
<mgrwt>
<rscale>  2 0.14674022E+03</rscale>
<asrwt>0</asrwt>
<pdfrwt beam="1">  1       21 0.34022425E-02 0.14674022E+03</pdfrwt>
<pdfrwt beam="2">  1       21 0.39733317E+00 0.14674022E+03</pdfrwt>
<totfact> 0.49882167E+03</totfact>
</mgrwt>
</event>
<event>
 5    1  0.1745726E+000  0.9788611E+02  0.7546771E-02  0.1284805E+00
         21   -1    0    0  501  502  0.00000000000E+00  0.00000000000E+00  0.12854482310E+04  0.12854482310E+04  0.00000000000E+00 0.  1.
         21   -1    0    0  502  503 -0.00000000000E+00 -0.00000000000E+00 -0.18073468244E+02  0.18073468244E+02  0.00000000000E+00 0. -1.
         24    1    1    2    0    0  0.27374494984E+02 -0.51158473883E+02  0.47314130801E+03  0.48342162315E+03  0.80419002446E+02 0.  1.
          1    1    1    2  501    0 -0.84155667688E+01  0.69630335086E+02  0.79022151628E+03  0.79332795874E+03  0.00000000000E+00 0. -1.
         -2    1    1    2    0  503 -0.18958928215E+02 -0.18471861203E+02  0.40119384200E+01  0.26772117310E+02  0.00000000000E+00 0.  1.
<mgrwt>
<rscale>  2 0.97886106E+02</rscale>
<asrwt>0</asrwt>
<pdfrwt beam="1">  1       21 0.19776119E+00 0.97886106E+02</pdfrwt>
<pdfrwt beam="2">  1       21 0.27805346E-02 0.97886106E+02</pdfrwt>
<totfact> 0.10599637E+05</totfact>
</mgrwt>
</event>
<event>
 5    1  0.1745726E+000  0.8768447E+02  0.7546771E-02  0.1308558E+00
         21   -1    0    0  503  502  0.00000000000E+00  0.00000000000E+00  0.13792135293E+04  0.13792135293E+04  0.00000000000E+00 0. -1.
         21   -1    0    0  501  503 -0.00000000000E+00 -0.00000000000E+00 -0.20503739326E+02  0.20503739326E+02  0.00000000000E+00 0. -1.
         24    1    1    2    0    0  0.49975249733E+02 -0.17023849119E+02  0.11809983672E+04  0.11849099950E+04  0.80419002446E+02 0. -1.
          1    1    1    2  501    0  0.74588637887E+01  0.20313993146E+02 -0.58708972226E+01  0.22422319255E+02  0.00000000000E+00 0. -1.
         -2    1    1    2    0  502 -0.57434113521E+02 -0.32901440273E+01  0.18358232001E+03  0.19238495436E+03  0.00000000000E+00 0.  1.
<mgrwt>
<rscale>  2 0.87684470E+02</rscale>
<asrwt>0</asrwt>
<pdfrwt beam="1">  1       21 0.21218662E+00 0.87684470E+02</pdfrwt>
<pdfrwt beam="2">  1       21 0.31544225E-02 0.87684470E+02</pdfrwt>
<totfact> 0.71246087E+04</totfact>
</mgrwt>
</event>
<event>
 5    1  0.1745726E+000  0.1670422E+03  0.7546771E-02  0.1180968E+00
         21   -1    0    0  503  502  0.00000000000E+00  0.00000000000E+00  0.14096005634E+02  0.14096005634E+02  0.00000000000E+00 0.  1.
         21   -1    0    0  501  503 -0.00000000000E+00 -0.00000000000E+00 -0.22689076031E+04  0.22689076031E+04  0.00000000000E+00 0.  1.
         24    1    1    2    0    0 -0.13342834221E+03 -0.60202920606E+01 -0.83982833554E+03  0.85417692287E+03  0.80419002446E+02 0.  1.
          1    1    1    2  501    0  0.13455325023E+01  0.41414137048E+02 -0.67799099493E+03  0.67925601242E+03  0.00000000000E+00 0. -1.
         -2    1    1    2    0  502  0.13208280971E+03 -0.35393844988E+02 -0.73699226703E+03  0.74957067349E+03  0.00000000000E+00 0.  1.
<mgrwt>
<rscale>  2 0.16704224E+03</rscale>
<asrwt>0</asrwt>
<pdfrwt beam="1">  1       21 0.21686178E-02 0.16704224E+03</pdfrwt>
<pdfrwt beam="2">  1       21 0.34906246E+00 0.16704224E+03</pdfrwt>
<totfact> 0.19694537E+04</totfact>
</mgrwt>
</event>
<event>
 5    1  0.1745726E+000  0.9408691E+02  0.7546771E-02  0.1293246E+00
         21   -1    0    0  501  502  0.00000000000E+00  0.00000000000E+00  0.77404888997E+03  0.77404888997E+03  0.00000000000E+00 0. -1.
         21   -1    0    0  502  503 -0.00000000000E+00 -0.00000000000E+00 -0.45428865976E+02  0.45428865976E+02  0.00000000000E+00 0.  1.
         24    1    1    2    0    0  0.75083961972E+01 -0.48355647323E+02  0.27967957092E+03  0.29509748048E+03  0.80419002446E+02 0.  0.
          1    1    1    2  501    0  0.34354460402E+02  0.37358418611E+02  0.47242021723E+03  0.47513865559E+03  0.00000000000E+00 0. -1.
         -2    1    1    2    0  503 -0.41862856600E+02  0.10997228712E+02 -0.23479764162E+02  0.49241619867E+02  0.00000000000E+00 0.  1.
<mgrwt>
<rscale>  2 0.94086908E+02</rscale>
<asrwt>0</asrwt>
<pdfrwt beam="1">  1       21 0.11908443E+00 0.94086908E+02</pdfrwt>
<pdfrwt beam="2">  1       21 0.69890569E-02 0.94086908E+02</pdfrwt>
<totfact> 0.85869294E+04</totfact>
</mgrwt>
</event>
<event>
 5    1  0.1745726E+000  0.8089750E+02  0.7546771E-02  0.1326524E+00
         21   -1    0    0  501  502  0.00000000000E+00  0.00000000000E+00  0.11169385113E+03  0.11169385113E+03  0.00000000000E+00 0. -1.
         21   -1    0    0  502  503 -0.00000000000E+00 -0.00000000000E+00 -0.60283093359E+02  0.60283093359E+02  0.00000000000E+00 0.  1.
         24    1    1    2    0    0  0.43277285984E+02 -0.29475928474E+02  0.34395337117E+02  0.10194120370E+03  0.80419002446E+02 0.  1.
          1    1    1    2  501    0 -0.22306552324E+02  0.37289828695E+02  0.28407759673E+01  0.43545190421E+02  0.00000000000E+00 0. -1.
         -2    1    1    2    0  503 -0.20970733660E+02 -0.78139002209E+01  0.14174644687E+02  0.26490550370E+02  0.00000000000E+00 0.  1.
<mgrwt>
<rscale>  2 0.80897505E+02</rscale>
<asrwt>0</asrwt>
<pdfrwt beam="1">  1       21 0.17183669E-01 0.80897505E+02</pdfrwt>
<pdfrwt beam="2">  1       21 0.92743221E-02 0.80897505E+02</pdfrwt>
<totfact> 0.27510571E+06</totfact>
</mgrwt>
</event>
<event>
 5    1  0.1745726E+000  0.9469513E+02  0.7546771E-02  0.1291864E+00
         21   -1    0    0  501  502  0.00000000000E+00  0.00000000000E+00  0.34658219290E+03  0.34658219290E+03  0.00000000000E+00 0. -1.
         21   -1    0    0  502  503 -0.00000000000E+00 -0.00000000000E+00 -0.56601699240E+02  0.56601699240E+02  0.00000000000E+00 0.  1.
         24    1    1    2    0    0 -0.19760561831E+01  0.57495262767E+01  0.24531411831E+03  0.25823089367E+03  0.80419002446E+02 0. -1.
          1    1    1    2  501    0 -0.44042082531E+02  0.27541186888E+02  0.66256002326E+02  0.84190734960E+02  0.00000000000E+00 0. -1.
         -2    1    1    2    0  503  0.46018138714E+02 -0.33290713164E+02 -0.21589626975E+02  0.60762263508E+02  0.00000000000E+00 0.  1.
<mgrwt>
<rscale>  2 0.94695130E+02</rscale>
<asrwt>0</asrwt>
<pdfrwt beam="1">  1       21 0.53320336E-01 0.94695130E+02</pdfrwt>
<pdfrwt beam="2">  1       21 0.87079539E-02 0.94695130E+02</pdfrwt>
<totfact> 0.35085602E+05</totfact>
</mgrwt>
</event>
<event>
 5    1  0.1745726E+000  0.8945078E+02  0.7546771E-02  0.1304187E+00
         21   -1    0    0  503  502  0.00000000000E+00  0.00000000000E+00  0.42399913425E+03  0.42399913425E+03  0.00000000000E+00 0.  1.
         21   -1    0    0  501  503 -0.00000000000E+00 -0.00000000000E+00 -0.21776874867E+02  0.21776874867E+02  0.00000000000E+00 0. -1.
         24    1    1    2    0    0 -0.45471490750E+01 -0.68826745217E+02  0.21597508546E+03  0.24056236388E+03  0.80419002446E+02 0.  1.
          1    1    1    2  501    0  0.14354382901E+02  0.42560290092E+02  0.55024243020E+02  0.71028824579E+02  0.00000000000E+00 0. -1.
         -2    1    1    2    0  502 -0.98072338261E+01  0.26266455126E+02  0.13122293090E+03  0.13418482066E+03  0.00000000000E+00 0.  1.
<mgrwt>
<rscale>  2 0.89450781E+02</rscale>
<asrwt>0</asrwt>
<pdfrwt beam="1">  1       21 0.65230630E-01 0.89450781E+02</pdfrwt>
<pdfrwt beam="2">  1       21 0.33502887E-02 0.89450781E+02</pdfrwt>
<totfact> 0.11364636E+06</totfact>
</mgrwt>
</event>
<event>
 5    1  0.1745726E+000  0.9894020E+02  0.7546771E-02  0.1282540E+00
         21   -1    0    0  501  502  0.00000000000E+00  0.00000000000E+00  0.18840338590E+02  0.18840338590E+02  0.00000000000E+00 0. -1.
         21   -1    0    0  502  503 -0.00000000000E+00 -0.00000000000E+00 -0.82599960948E+03  0.82599960948E+03  0.00000000000E+00 0.  1.
         24    1    1    2    0    0  0.36733367784E+02 -0.53605339777E+02 -0.60321521839E+03  0.61201200022E+03  0.80419002446E+02 0.  1.
          1    1    1    2  501    0 -0.14931947574E+02 -0.15799514178E+02 -0.69384383604E+01  0.22819501167E+02  0.00000000000E+00 0. -1.
         -2    1    1    2    0  503 -0.21801420210E+02  0.69404853955E+02 -0.19700561414E+03  0.21000844669E+03  0.00000000000E+00 0.  1.
<mgrwt>
<rscale>  2 0.98940204E+02</rscale>
<asrwt>0</asrwt>
<pdfrwt beam="1">  1       21 0.28985136E-02 0.98940204E+02</pdfrwt>
<pdfrwt beam="2">  1       21 0.12707686E+00 0.98940204E+02</pdfrwt>
<totfact> 0.31520420E+05</totfact>
</mgrwt>
</event>
<event>
 5    1  0.1745726E+000  0.1383033E+03  0.7546771E-02  0.1215630E+00
         21   -1    0    0  503  502  0.00000000000E+00  0.00000000000E+00  0.52891472793E+03  0.52891472793E+03  0.00000000000E+00 0. -1.
         21   -1    0    0  501  503 -0.00000000000E+00 -0.00000000000E+00 -0.51309926787E+02  0.51309926787E+02  0.00000000000E+00 0. -1.
         24    1    1    2    0    0  0.12530102001E+03  0.70263440096E+01  0.10349047422E+03  0.18145856093E+03  0.80419002446E+02 0. -1.
          1    1    1    2  501    0 -0.10639630214E+03 -0.14186442222E+02  0.23705441601E+03  0.26022341248E+03  0.00000000000E+00 0. -1.
         -2    1    1    2    0  502 -0.18904717872E+02  0.71600982123E+01  0.13705991092E+03  0.13854268131E+03  0.00000000000E+00 0.  1.
<mgrwt>
<rscale>  2 0.13830330E+03</rscale>
<asrwt>0</asrwt>
<pdfrwt beam="1">  1       21 0.81371493E-01 0.13830330E+03</pdfrwt>
<pdfrwt beam="2">  1       21 0.78938352E-02 0.13830330E+03</pdfrwt>
<totfact> 0.16548930E+05</totfact>
</mgrwt>
</event>
<event>
 5    1  0.1745726E+000  0.7716479E+02  0.7546771E-02  0.1337295E+00
         21   -1    0    0  503  502  0.00000000000E+00  0.00000000000E+00  0.29568511183E+03  0.29568511183E+03  0.00000000000E+00 0. -1.
         21   -1    0    0  501  503 -0.00000000000E+00 -0.00000000000E+00 -0.26114037138E+02  0.26114037138E+02  0.00000000000E+00 0.  1.
         24    1    1    2    0    0  0.18885470881E+02  0.59739579244E+01  0.17035741420E+03  0.18942337161E+03  0.80419002446E+02 0. -1.
          1    1    1    2  501    0  0.26183777737E+02 -0.25641062040E+01  0.35179273227E+01  0.26543184998E+02  0.00000000000E+00 0. -1.
         -2    1    1    2    0  502 -0.45069248617E+02 -0.34098517204E+01  0.95695733175E+02  0.10583259237E+03  0.00000000000E+00 0.  1.
<mgrwt>
<rscale>  2 0.77164787E+02</rscale>
<asrwt>0</asrwt>
<pdfrwt beam="1">  1       21 0.45490015E-01 0.77164787E+02</pdfrwt>
<pdfrwt beam="2">  1       21 0.40175444E-02 0.77164787E+02</pdfrwt>
<totfact> 0.17698146E+06</totfact>
</mgrwt>
</event>
<event>
 5    1  0.1745726E+000  0.7856009E+02  0.7546771E-02  0.1333188E+00
         21   -1    0    0  501  502  0.00000000000E+00  0.00000000000E+00  0.99951616424E+02  0.99951616424E+02  0.00000000000E+00 0.  1.
         21   -1    0    0  502  503 -0.00000000000E+00 -0.00000000000E+00 -0.75097625257E+02  0.75097625257E+02  0.00000000000E+00 0. -1.
         24    1    1    2    0    0  0.11176374712E+01  0.24670887882E+02  0.96608322965E+01  0.84678506467E+02  0.80419002446E+02 0.  0.
          1    1    1    2  501    0 -0.29370339296E+02  0.73655564770E+01  0.32376280655E+02  0.44329355980E+02  0.00000000000E+00 0. -1.
         -2    1    1    2    0  503  0.28252701825E+02 -0.32036444359E+02 -0.17183121784E+02  0.46041379235E+02  0.00000000000E+00 0.  1.
<mgrwt>
<rscale>  2 0.78560089E+02</rscale>
<asrwt>0</asrwt>
<pdfrwt beam="1">  1       21 0.15377172E-01 0.78560089E+02</pdfrwt>
<pdfrwt beam="2">  1       21 0.11553481E-01 0.78560089E+02</pdfrwt>
<totfact> 0.22912869E+06</totfact>
</mgrwt>
</event>
<event>
 5    1  0.1745726E+000  0.9983063E+02  0.7546771E-02  0.1280653E+00
         21   -1    0    0  503  502  0.00000000000E+00  0.00000000000E+00  0.30463279778E+02  0.30463279778E+02  0.00000000000E+00 0.  1.
         21   -1    0    0  501  503 -0.00000000000E+00 -0.00000000000E+00 -0.55026281777E+03  0.55026281777E+03  0.00000000000E+00 0.  1.
         24    1    1    2    0    0 -0.63564293461E+02 -0.22553243807E+02 -0.24722358509E+03  0.26858105888E+03  0.80419002446E+02 0.  1.
          1    1    1    2  501    0  0.48470704053E+02 -0.17787035330E+02 -0.26300229089E+03  0.26802237368E+03  0.00000000000E+00 0. -1.
         -2    1    1    2    0  502  0.15093589408E+02  0.40340279137E+02 -0.95736620168E+01  0.44122664998E+02  0.00000000000E+00 0.  1.
<mgrwt>
<rscale>  2 0.99830630E+02</rscale>
<asrwt>0</asrwt>
<pdfrwt beam="1">  1       21 0.46866588E-02 0.99830630E+02</pdfrwt>
<pdfrwt beam="2">  1       21 0.84655811E-01 0.99830630E+02</pdfrwt>
<totfact> 0.36991219E+05</totfact>
</mgrwt>
</event>
<event>
 5    1  0.1745726E+000  0.6697276E+02  0.7546771E-02  0.1370701E+00
         21   -1    0    0  503  502  0.00000000000E+00  0.00000000000E+00  0.54051340651E+03  0.54051340651E+03  0.00000000000E+00 0.  1.
         21   -1    0    0  501  503 -0.00000000000E+00 -0.00000000000E+00 -0.25090167144E+02  0.25090167144E+02  0.00000000000E+00 0. -1.
         24    1    1    2    0    0  0.84709757980E+01 -0.14092269160E+01  0.10903421508E+03  0.13575499757E+03  0.80419002446E+02 0.  0.
          1    1    1    2  501    0 -0.27880306512E+02 -0.11066437772E+02  0.83437236944E+01  0.31135112996E+02  0.00000000000E+00 0. -1.
         -2    1    1    2    0  502  0.19409330714E+02  0.12475664688E+02  0.39804530059E+03  0.39871346309E+03  0.00000000000E+00 0.  1.
<mgrwt>
<rscale>  2 0.66972756E+02</rscale>
<asrwt>0</asrwt>
<pdfrwt beam="1">  1       21 0.83155900E-01 0.66972756E+02</pdfrwt>
<pdfrwt beam="2">  1       21 0.38600261E-02 0.66972756E+02</pdfrwt>
<totfact> 0.53135096E+05</totfact>
</mgrwt>
</event>
<event>
 5    1  0.1745726E+000  0.1340379E+03  0.7546771E-02  0.1221584E+00
         21   -1    0    0  503  502  0.00000000000E+00  0.00000000000E+00  0.58186794845E+03  0.58186794845E+03  0.00000000000E+00 0.  1.
         21   -1    0    0  501  503 -0.00000000000E+00 -0.00000000000E+00 -0.29551999583E+03  0.29551999583E+03  0.00000000000E+00 0. -1.
         24    1    1    2    0    0 -0.92354008080E+01 -0.58445224425E+02  0.30296361890E+02  0.10433706141E+03  0.80419002446E+02 0.  1.
          1    1    1    2  501    0  0.79527946678E+02  0.45500798222E+01 -0.24841125265E+03  0.26087074955E+03  0.00000000000E+00 0. -1.
         -2    1    1    2    0  502 -0.70292545870E+02  0.53895144603E+02  0.50446284337E+03  0.51218013331E+03  0.00000000000E+00 0.  1.
<mgrwt>
<rscale>  2 0.13403788E+03</rscale>
<asrwt>0</asrwt>
<pdfrwt beam="1">  1       21 0.89518145E-01 0.13403788E+03</pdfrwt>
<pdfrwt beam="2">  1       21 0.45464615E-01 0.13403788E+03</pdfrwt>
<totfact> 0.51953070E+03</totfact>
</mgrwt>
</event>
<event>
 5    1  0.1745726E+000  0.1027874E+03  0.7546771E-02  0.1274541E+00
         21   -1    0    0  501  502  0.00000000000E+00  0.00000000000E+00  0.20437911790E+04  0.20437911790E+04  0.00000000000E+00 0. -1.
         21   -1    0    0  502  503 -0.00000000000E+00 -0.00000000000E+00 -0.11159269381E+02  0.11159269381E+02  0.00000000000E+00 0. -1.
         24    1    1    2    0    0  0.27748112659E+01  0.85113350573E+02  0.67922458989E+03  0.68924976713E+03  0.80419002446E+02 0. -1.
          1    1    1    2  501    0  0.98161789895E+01 -0.53935910348E+02  0.13082601949E+04  0.13094083310E+04  0.00000000000E+00 0. -1.
         -2    1    1    2    0  503 -0.12590990255E+02 -0.31177440225E+02  0.45147124868E+02  0.56292350266E+02  0.00000000000E+00 0.  1.
<mgrwt>
<rscale>  2 0.10278738E+03</rscale>
<asrwt>0</asrwt>
<pdfrwt beam="1">  1       21 0.31442911E+00 0.10278738E+03</pdfrwt>
<pdfrwt beam="2">  1       21 0.17168123E-02 0.10278738E+03</pdfrwt>
<totfact> 0.49476416E+04</totfact>
</mgrwt>
</event>
<event>
 5    1  0.1745726E+000  0.9608243E+02  0.7546771E-02  0.1288757E+00
         21   -1    0    0  503  502  0.00000000000E+00  0.00000000000E+00  0.21010405984E+03  0.21010405984E+03  0.00000000000E+00 0. -1.
         21   -1    0    0  501  503 -0.00000000000E+00 -0.00000000000E+00 -0.57745896304E+02  0.57745896304E+02  0.00000000000E+00 0.  1.
         24    1    1    2    0    0 -0.36974309606E+02  0.34849362488E+02  0.10346752847E+02  0.95686200079E+02  0.80419002446E+02 0.  1.
          1    1    1    2  501    0  0.57934885292E+02 -0.45371013771E+02  0.10177691875E+03  0.12559267899E+03  0.00000000000E+00 0. -1.
         -2    1    1    2    0  502 -0.20960575686E+02  0.10521651283E+02  0.40234491936E+02  0.46571077078E+02  0.00000000000E+00 0.  1.
<mgrwt>
<rscale>  2 0.96082429E+02</rscale>
<asrwt>0</asrwt>
<pdfrwt beam="1">  1       21 0.32323701E-01 0.96082429E+02</pdfrwt>
<pdfrwt beam="2">  1       21 0.88839842E-02 0.96082429E+02</pdfrwt>
<totfact> 0.91945638E+05</totfact>
</mgrwt>
</event>
<event>
 5    1  0.1745726E+000  0.6725826E+02  0.7546771E-02  0.1369673E+00
         21   -1    0    0  503  502  0.00000000000E+00  0.00000000000E+00  0.68378065239E+02  0.68378065239E+02  0.00000000000E+00 0.  1.
         21   -1    0    0  501  503 -0.00000000000E+00 -0.00000000000E+00 -0.73363412994E+02  0.73363412994E+02  0.00000000000E+00 0.  1.
         24    1    1    2    0    0 -0.30886296211E+02  0.74246685216E+00  0.17483251522E+02  0.87905600441E+02  0.80419002446E+02 0.  0.
          1    1    1    2  501    0  0.15193074607E+02 -0.18976813058E+02 -0.15338065444E+02  0.28743785440E+02  0.00000000000E+00 0. -1.
         -2    1    1    2    0  502  0.15693221604E+02  0.18234346206E+02 -0.71305338329E+01  0.25092092352E+02  0.00000000000E+00 0.  1.
<mgrwt>
<rscale>  2 0.67258259E+02</rscale>
<asrwt>0</asrwt>
<pdfrwt beam="1">  1       21 0.10519702E-01 0.67258259E+02</pdfrwt>
<pdfrwt beam="2">  1       21 0.11286679E-01 0.67258259E+02</pdfrwt>
<totfact> 0.45948884E+06</totfact>
</mgrwt>
</event>
<event>
 5    1  0.1745726E+000  0.7714338E+02  0.7546771E-02  0.1337359E+00
         21   -1    0    0  501  502  0.00000000000E+00  0.00000000000E+00  0.14148097957E+02  0.14148097957E+02  0.00000000000E+00 0. -1.
         21   -1    0    0  502  503 -0.00000000000E+00 -0.00000000000E+00 -0.11919069764E+04  0.11919069764E+04  0.00000000000E+00 0. -1.
         24    1    1    2    0    0  0.24986037044E+02  0.16588980816E+02 -0.99214770889E+03  0.99585329670E+03  0.80419002446E+02 0. -1.
          1    1    1    2  501    0  0.17563636599E+00  0.22211580011E+02 -0.37171859744E+01  0.22521159079E+02  0.00000000000E+00 0. -1.
         -2    1    1    2    0  503 -0.25161673410E+02 -0.38800560827E+02 -0.18189398362E+03  0.18768061862E+03  0.00000000000E+00 0.  1.
<mgrwt>
<rscale>  2 0.77143378E+02</rscale>
<asrwt>0</asrwt>
<pdfrwt beam="1">  1       21 0.21766298E-02 0.77143378E+02</pdfrwt>
<pdfrwt beam="2">  1       21 0.18337036E+00 0.77143378E+02</pdfrwt>
<totfact> 0.19718495E+05</totfact>
</mgrwt>
</event>
<event>
 5    1  0.1745726E+000  0.1018318E+03  0.7546771E-02  0.1276490E+00
         21   -1    0    0  503  502  0.00000000000E+00  0.00000000000E+00  0.63308466817E+02  0.63308466817E+02  0.00000000000E+00 0. -1.
         21   -1    0    0  501  503 -0.00000000000E+00 -0.00000000000E+00 -0.20742712417E+03  0.20742712417E+03  0.00000000000E+00 0.  1.
         24    1    1    2    0    0 -0.71610103590E+02  0.35869492305E+02 -0.81932329982E+02  0.13998124898E+03  0.80419002446E+02 0.  0.
          1    1    1    2  501    0  0.28436383853E+02 -0.37377904476E+02 -0.72460225070E+02  0.86349405828E+02  0.00000000000E+00 0. -1.
         -2    1    1    2    0  502  0.43173719737E+02  0.15084121714E+01  0.10273897701E+02  0.44404936180E+02  0.00000000000E+00 0.  1.
<mgrwt>
<rscale>  2 0.10183177E+03</rscale>
<asrwt>0</asrwt>
<pdfrwt beam="1">  1       21 0.97397641E-02 0.10183177E+03</pdfrwt>
<pdfrwt beam="2">  1       21 0.31911865E-01 0.10183177E+03</pdfrwt>
<totfact> 0.80445347E+05</totfact>
</mgrwt>
</event>
<event>
 5    1  0.1745726E+000  0.6941196E+02  0.7546771E-02  0.1362104E+00
         21   -1    0    0  503  502  0.00000000000E+00  0.00000000000E+00  0.35622563482E+03  0.35622563482E+03  0.00000000000E+00 0. -1.
         21   -1    0    0  501  503 -0.00000000000E+00 -0.00000000000E+00 -0.13819258750E+02  0.13819258750E+02  0.00000000000E+00 0. -1.
         24    1    1    2    0    0 -0.12078194381E+02 -0.43588627777E+02  0.21611744302E+03  0.23498897076E+03  0.80419002446E+02 0. -1.
          1    1    1    2  501    0  0.11044675557E+02  0.19222223554E+02  0.44630341042E+02  0.49833182499E+02  0.00000000000E+00 0. -1.
         -2    1    1    2    0  502  0.10335188245E+01  0.24366404223E+02  0.81658592011E+02  0.85222740305E+02  0.00000000000E+00 0.  1.
<mgrwt>
<rscale>  2 0.69411959E+02</rscale>
<asrwt>0</asrwt>
<pdfrwt beam="1">  1       21 0.54803937E-01 0.69411959E+02</pdfrwt>
<pdfrwt beam="2">  1       21 0.21260401E-02 0.69411959E+02</pdfrwt>
<totfact> 0.33727208E+06</totfact>
</mgrwt>
</event>
<event>
 5    1  0.1745726E+000  0.9090116E+02  0.7546771E-02  0.1300684E+00
         21   -1    0    0  501  502  0.00000000000E+00  0.00000000000E+00  0.97612036834E+02  0.97612036834E+02  0.00000000000E+00 0.  1.
         21   -1    0    0  502  503 -0.00000000000E+00 -0.00000000000E+00 -0.10831520359E+03  0.10831520359E+03  0.00000000000E+00 0. -1.
         24    1    1    2    0    0  0.20129555011E+02 -0.42986391372E+02  0.28832060656E+02  0.97731942087E+02  0.80419002446E+02 0.  1.
          1    1    1    2  501    0 -0.35518668042E+02  0.57291963116E+02 -0.47743452750E+01  0.67577653037E+02  0.00000000000E+00 0. -1.
         -2    1    1    2    0  503  0.15389113031E+02 -0.14305571744E+02 -0.34760882132E+02  0.40617645296E+02  0.00000000000E+00 0.  1.
<mgrwt>
<rscale>  2 0.90901163E+02</rscale>
<asrwt>0</asrwt>
<pdfrwt beam="1">  1       21 0.15017237E-01 0.90901163E+02</pdfrwt>
<pdfrwt beam="2">  1       21 0.16663877E-01 0.90901163E+02</pdfrwt>
<totfact> 0.12562740E+06</totfact>
</mgrwt>
</event>
<event>
 5    1  0.1745726E+000  0.1015268E+03  0.7546771E-02  0.1277118E+00
         21   -1    0    0  501  502  0.00000000000E+00  0.00000000000E+00  0.31179412242E+03  0.31179412242E+03  0.00000000000E+00 0. -1.
         21   -1    0    0  502  503 -0.00000000000E+00 -0.00000000000E+00 -0.37101699620E+02  0.37101699620E+02  0.00000000000E+00 0. -1.
         24    1    1    2    0    0  0.40063497701E+01 -0.30366838811E+02  0.87242048610E+02  0.12254218350E+03  0.80419002446E+02 0.  0.
          1    1    1    2  501    0 -0.39831382280E+02 -0.27878237782E+02  0.12351527053E+03  0.13273943351E+03  0.00000000000E+00 0. -1.
         -2    1    1    2    0  503  0.35825032510E+02  0.58245076593E+02  0.63935103668E+02  0.93614205026E+02  0.00000000000E+00 0.  1.
<mgrwt>
<rscale>  2 0.10152684E+03</rscale>
<asrwt>0</asrwt>
<pdfrwt beam="1">  1       21 0.47968325E-01 0.10152684E+03</pdfrwt>
<pdfrwt beam="2">  1       21 0.57079540E-02 0.10152684E+03</pdfrwt>
<totfact> 0.89328697E+05</totfact>
</mgrwt>
</event>
<event>
 5    1  0.1745726E+000  0.1071650E+03  0.7546771E-02  0.1265912E+00
         21   -1    0    0  503  502  0.00000000000E+00  0.00000000000E+00  0.25619482243E+03  0.25619482243E+03  0.00000000000E+00 0. -1.
         21   -1    0    0  501  503 -0.00000000000E+00 -0.00000000000E+00 -0.48080583763E+02  0.48080583763E+02  0.00000000000E+00 0.  1.
         24    1    1    2    0    0 -0.37544118401E+02 -0.68238017385E+02  0.12666326905E+03  0.16904670219E+03  0.80419002446E+02 0. -1.
          1    1    1    2  501    0 -0.18259496873E+02  0.28591185941E+02  0.80602583666E+01  0.34868795570E+02  0.00000000000E+00 0. -1.
         -2    1    1    2    0  502  0.55803615274E+02  0.39646831444E+02  0.73390711255E+02  0.10035990843E+03  0.00000000000E+00 0.  1.
<mgrwt>
<rscale>  2 0.10716497E+03</rscale>
<asrwt>0</asrwt>
<pdfrwt beam="1">  1       21 0.39414587E-01 0.10716497E+03</pdfrwt>
<pdfrwt beam="2">  1       21 0.73970131E-02 0.10716497E+03</pdfrwt>
<totfact> 0.85503563E+05</totfact>
</mgrwt>
</event>
<event>
 5    1  0.1745726E+000  0.1229792E+03  0.7546771E-02  0.1238262E+00
         21   -1    0    0  501  502  0.00000000000E+00  0.00000000000E+00  0.28836428982E+02  0.28836428982E+02  0.00000000000E+00 0.  1.
         21   -1    0    0  502  503 -0.00000000000E+00 -0.00000000000E+00 -0.83313334151E+03  0.83313334151E+03  0.00000000000E+00 0.  1.
         24    1    1    2    0    0 -0.34109191093E+02  0.93522763355E+02 -0.64404205145E+03  0.65663332552E+03  0.80419002446E+02 0.  1.
          1    1    1    2  501    0  0.52774755763E+02 -0.74836896172E+02 -0.82635078013E+02  0.12334622812E+03  0.00000000000E+00 0. -1.
         -2    1    1    2    0  503 -0.18665564670E+02 -0.18685867183E+02 -0.77619783058E+02  0.81990216848E+02  0.00000000000E+00 0.  1.
<mgrwt>
<rscale>  2 0.12297920E+03</rscale>
<asrwt>0</asrwt>
<pdfrwt beam="1">  1       21 0.44363738E-02 0.12297920E+03</pdfrwt>
<pdfrwt beam="2">  1       21 0.12817436E+00 0.12297920E+03</pdfrwt>
<totfact> 0.15169323E+05</totfact>
</mgrwt>
</event>
<event>
 5    1  0.1745726E+000  0.6461100E+02  0.7546771E-02  0.1379441E+00
         21   -1    0    0  503  502  0.00000000000E+00  0.00000000000E+00  0.14344791862E+04  0.14344791862E+04  0.00000000000E+00 0. -1.
         21   -1    0    0  501  503 -0.00000000000E+00 -0.00000000000E+00 -0.44264355231E+02  0.44264355231E+02  0.00000000000E+00 0. -1.
         24    1    1    2    0    0  0.19409195221E+02  0.15731147449E+02  0.79416578468E+03  0.79861799089E+03  0.80419002446E+02 0. -1.
          1    1    1    2  501    0 -0.23983977633E+02  0.43851932867E+01 -0.38321175926E+02  0.45419969481E+02  0.00000000000E+00 0. -1.
         -2    1    1    2    0  502  0.45747824121E+01 -0.20116340736E+02  0.63437022224E+03  0.63470558109E+03  0.00000000000E+00 0.  1.
<mgrwt>
<rscale>  2 0.64611004E+02</rscale>
<asrwt>0</asrwt>
<pdfrwt beam="1">  1       21 0.22068907E+00 0.64611004E+02</pdfrwt>
<pdfrwt beam="2">  1       21 0.68099019E-02 0.64611004E+02</pdfrwt>
<totfact> 0.18501675E+04</totfact>
</mgrwt>
</event>
<event>
 5    1  0.1745726E+000  0.7181288E+02  0.7546771E-02  0.1354035E+00
         21   -1    0    0  503  502  0.00000000000E+00  0.00000000000E+00  0.17241673925E+03  0.17241673925E+03  0.00000000000E+00 0. -1.
         21   -1    0    0  501  503 -0.00000000000E+00 -0.00000000000E+00 -0.68045935597E+02  0.68045935597E+02  0.00000000000E+00 0.  1.
         24    1    1    2    0    0  0.16464981559E+02  0.46110629367E+02  0.77643804358E+02  0.12203713397E+03  0.80419002446E+02 0. -1.
          1    1    1    2  501    0 -0.10798785357E+02 -0.19729281523E+02 -0.40310975958E+02  0.46160947752E+02  0.00000000000E+00 0. -1.
         -2    1    1    2    0  502 -0.56661962019E+01 -0.26381347844E+02  0.67037975255E+02  0.72264593127E+02  0.00000000000E+00 0.  1.
<mgrwt>
<rscale>  2 0.71812879E+02</rscale>
<asrwt>0</asrwt>
<pdfrwt beam="1">  1       21 0.26525652E-01 0.71812879E+02</pdfrwt>
<pdfrwt beam="2">  1       21 0.10468606E-01 0.71812879E+02</pdfrwt>
<totfact> 0.10025323E+06</totfact>
</mgrwt>
</event>
<event>
 5    1  0.1745726E+000  0.9242309E+02  0.7546771E-02  0.1297088E+00
         21   -1    0    0  503  502  0.00000000000E+00  0.00000000000E+00  0.16388741341E+02  0.16388741341E+02  0.00000000000E+00 0.  1.
         21   -1    0    0  501  503 -0.00000000000E+00 -0.00000000000E+00 -0.18874229199E+04  0.18874229199E+04  0.00000000000E+00 0. -1.
         24    1    1    2    0    0 -0.47780906219E+02 -0.22746097985E+02 -0.28964211197E+03  0.30522150802E+03  0.80419002446E+02 0. -1.
          1    1    1    2  501    0  0.13031979793E+02 -0.25783679130E+02 -0.14845533724E+04  0.14848344508E+04  0.00000000000E+00 0. -1.
         -2    1    1    2    0  502  0.34748926425E+02  0.48529777115E+02 -0.96838694145E+02  0.11375570244E+03  0.00000000000E+00 0.  1.
<mgrwt>
<rscale>  2 0.92423089E+02</rscale>
<asrwt>0</asrwt>
<pdfrwt beam="1">  1       21 0.25213467E-02 0.92423089E+02</pdfrwt>
<pdfrwt beam="2">  1       21 0.29037254E+00 0.92423089E+02</pdfrwt>
<totfact> 0.36867286E+04</totfact>
</mgrwt>
</event>
<event>
 5    1  0.1745726E+000  0.7381973E+02  0.7546771E-02  0.1347565E+00
         21   -1    0    0  503  502  0.00000000000E+00  0.00000000000E+00  0.31163676027E+02  0.31163676027E+02  0.00000000000E+00 0.  1.
         21   -1    0    0  501  503 -0.00000000000E+00 -0.00000000000E+00 -0.22849986070E+03  0.22849986070E+03  0.00000000000E+00 0. -1.
         24    1    1    2    0    0 -0.13370202067E+02 -0.28022476927E+02 -0.80089302743E+02  0.11766704672E+03  0.80419002446E+02 0.  1.
          1    1    1    2  501    0 -0.13705674336E+02  0.31292369500E+02 -0.10788049338E+03  0.11316032322E+03  0.00000000000E+00 0. -1.
         -2    1    1    2    0  502  0.27075876403E+02 -0.32698925728E+01 -0.93663885457E+01  0.28836166784E+02  0.00000000000E+00 0.  1.
<mgrwt>
<rscale>  2 0.73819733E+02</rscale>
<asrwt>0</asrwt>
<pdfrwt beam="1">  1       21 0.47944118E-02 0.73819733E+02</pdfrwt>
<pdfrwt beam="2">  1       21 0.35153824E-01 0.73819733E+02</pdfrwt>
<totfact> 0.21933398E+06</totfact>
</mgrwt>
</event>
<event>
 5    1  0.1745726E+000  0.7995680E+02  0.7546771E-02  0.1329174E+00
         21   -1    0    0  503  502  0.00000000000E+00  0.00000000000E+00  0.23579189569E+04  0.23579189569E+04  0.00000000000E+00 0. -1.
         21   -1    0    0  501  503 -0.00000000000E+00 -0.00000000000E+00 -0.27295564481E+01  0.27295564481E+01  0.00000000000E+00 0. -1.
         24    1    1    2    0    0  0.52935844258E+01  0.83473456193E+01  0.11291184103E+04  0.11320217757E+04  0.80419002446E+02 0.  0.
          1    1    1    2  501    0 -0.41603586488E+02  0.12633689338E+00  0.70110931893E+03  0.70234261686E+03  0.00000000000E+00 0. -1.
         -2    1    1    2    0  502  0.36310002062E+02 -0.84736825127E+01  0.52496167119E+03  0.52628412076E+03  0.00000000000E+00 0.  1.
<mgrwt>
<rscale>  2 0.79956798E+02</rscale>
<asrwt>0</asrwt>
<pdfrwt beam="1">  1       21 0.36275513E+00 0.79956798E+02</pdfrwt>
<pdfrwt beam="2">  1       21 0.41993365E-03 0.79956798E+02</pdfrwt>
<totfact> 0.24753368E+05</totfact>
</mgrwt>
</event>
<event>
 5    1  0.1745726E+000  0.1299618E+03  0.7546771E-02  0.1227512E+00
         21   -1    0    0  503  502  0.00000000000E+00  0.00000000000E+00  0.94606594026E+02  0.94606594026E+02  0.00000000000E+00 0. -1.
         21   -1    0    0  501  503 -0.00000000000E+00 -0.00000000000E+00 -0.22638443538E+03  0.22638443538E+03  0.00000000000E+00 0. -1.
         24    1    1    2    0    0 -0.91734753330E+02  0.31805978233E+02 -0.30776738417E+02  0.12977406830E+03  0.80419002446E+02 0. -1.
          1    1    1    2  501    0  0.11075676138E+03 -0.24226388642E+02 -0.11870454428E+03  0.16414855141E+03  0.00000000000E+00 0. -1.
         -2    1    1    2    0  502 -0.19022008045E+02 -0.75795895910E+01  0.17703441344E+02  0.27068409703E+02  0.00000000000E+00 0.  1.
<mgrwt>
<rscale>  2 0.12996185E+03</rscale>
<asrwt>0</asrwt>
<pdfrwt beam="1">  1       21 0.14554861E-01 0.12996185E+03</pdfrwt>
<pdfrwt beam="2">  1       21 0.34828374E-01 0.12996185E+03</pdfrwt>
<totfact> 0.33329910E+05</totfact>
</mgrwt>
</event>
<event>
 5    1  0.1745726E+000  0.1082602E+03  0.7546771E-02  0.1263826E+00
         21   -1    0    0  503  502  0.00000000000E+00  0.00000000000E+00  0.99807725950E+02  0.99807725950E+02  0.00000000000E+00 0.  1.
         21   -1    0    0  501  503 -0.00000000000E+00 -0.00000000000E+00 -0.17765524887E+03  0.17765524887E+03  0.00000000000E+00 0.  1.
         24    1    1    2    0    0  0.40916042265E+02 -0.33767192866E+02 -0.61361132521E+01  0.96536074443E+02  0.80419002446E+02 0.  1.
          1    1    1    2  501    0  0.33089724424E+02 -0.95350791212E+01 -0.87238281733E+02  0.93788940691E+02  0.00000000000E+00 0. -1.
         -2    1    1    2    0  502 -0.74005766689E+02  0.43302271987E+02  0.15526872064E+02  0.87137959688E+02  0.00000000000E+00 0.  1.
<mgrwt>
<rscale>  2 0.10826023E+03</rscale>
<asrwt>0</asrwt>
<pdfrwt beam="1">  1       21 0.15355035E-01 0.10826023E+03</pdfrwt>
<pdfrwt beam="2">  1       21 0.27331577E-01 0.10826023E+03</pdfrwt>
<totfact> 0.48462440E+05</totfact>
</mgrwt>
</event>
<event>
 5    1  0.1745726E+000  0.2651470E+03  0.7546771E-02  0.1104090E+00
         21   -1    0    0  501  502  0.00000000000E+00  0.00000000000E+00  0.70469483637E+02  0.70469483637E+02  0.00000000000E+00 0.  1.
         21   -1    0    0  502  503 -0.00000000000E+00 -0.00000000000E+00 -0.12795892520E+04  0.12795892520E+04  0.00000000000E+00 0. -1.
         24    1    1    2    0    0  0.17226606974E+03  0.15355417106E+03 -0.86986606522E+03  0.90354228988E+03  0.80419002446E+02 0. -1.
          1    1    1    2  501    0  0.29072727278E+02  0.51763256875E+01 -0.14918404069E+02  0.33084386030E+02  0.00000000000E+00 0. -1.
         -2    1    1    2    0  503 -0.20133879701E+03 -0.15873049675E+03 -0.32433529907E+03  0.41343205972E+03  0.00000000000E+00 0.  1.
<mgrwt>
<rscale>  2 0.26514702E+03</rscale>
<asrwt>0</asrwt>
<pdfrwt beam="1">  1       21 0.10841460E-01 0.26514702E+03</pdfrwt>
<pdfrwt beam="2">  1       21 0.19685987E+00 0.26514702E+03</pdfrwt>
<totfact> 0.93804945E+03</totfact>
</mgrwt>
</event>
<event>
 5    1  0.1745726E+000  0.6950274E+02  0.7546771E-02  0.1361792E+00
         21   -1    0    0  501  502  0.00000000000E+00  0.00000000000E+00  0.13861383031E+02  0.13861383031E+02  0.00000000000E+00 0.  1.
         21   -1    0    0  502  503 -0.00000000000E+00 -0.00000000000E+00 -0.48397487272E+03  0.48397487272E+03  0.00000000000E+00 0. -1.
         24    1    1    2    0    0  0.52602889450E+01  0.53488384269E+01 -0.39246155950E+03  0.40068637655E+03  0.80419002446E+02 0. -1.
          1    1    1    2  501    0 -0.20891069260E+02 -0.25352487302E+02 -0.40406689762E+02  0.52075771379E+02  0.00000000000E+00 0. -1.
         -2    1    1    2    0  503  0.15630780315E+02  0.20003648875E+02 -0.37245240420E+02  0.45074107817E+02  0.00000000000E+00 0.  1.
<mgrwt>
<rscale>  2 0.69502742E+02</rscale>
<asrwt>0</asrwt>
<pdfrwt beam="1">  1       21 0.21325208E-02 0.69502742E+02</pdfrwt>
<pdfrwt beam="2">  1       21 0.74457660E-01 0.69502742E+02</pdfrwt>
<totfact> 0.17600857E+06</totfact>
</mgrwt>
</event>
<event>
 5    1  0.1745726E+000  0.6911376E+02  0.7546771E-02  0.1363133E+00
         21   -1    0    0  501  502  0.00000000000E+00  0.00000000000E+00  0.19973684048E+04  0.19973684048E+04  0.00000000000E+00 0. -1.
         21   -1    0    0  502  503 -0.00000000000E+00 -0.00000000000E+00 -0.44854256426E+01  0.44854256426E+01  0.00000000000E+00 0. -1.
         24    1    1    2    0    0 -0.15662361906E+02  0.20414444633E+02  0.78221017781E+03  0.78675411493E+03  0.80419002446E+02 0. -1.
          1    1    1    2  501    0 -0.27657587451E+01 -0.31938310565E+02  0.11533392593E+04  0.11537847079E+04  0.00000000000E+00 0. -1.
         -2    1    1    2    0  503  0.18428120651E+02  0.11523865931E+02  0.57333541983E+02  0.61315007568E+02  0.00000000000E+00 0.  1.
<mgrwt>
<rscale>  2 0.69113764E+02</rscale>
<asrwt>0</asrwt>
<pdfrwt beam="1">  1       21 0.30728674E+00 0.69113764E+02</pdfrwt>
<pdfrwt beam="2">  1       21 0.69006708E-03 0.69113764E+02</pdfrwt>
<totfact> 0.23888081E+05</totfact>
</mgrwt>
</event>
<event>
 5    1  0.1745726E+000  0.8719000E+02  0.7546771E-02  0.1309803E+00
         21   -1    0    0  501  502  0.00000000000E+00  0.00000000000E+00  0.42913904521E+02  0.42913904521E+02  0.00000000000E+00 0. -1.
         21   -1    0    0  502  503 -0.00000000000E+00 -0.00000000000E+00 -0.35823547748E+03  0.35823547748E+03  0.00000000000E+00 0. -1.
         24    1    1    2    0    0 -0.53838146848E+02  0.36998913002E+02 -0.31877555317E+02  0.10840138425E+03  0.80419002446E+02 0. -1.
          1    1    1    2  501    0  0.40629644733E+02 -0.11779622695E+02 -0.13075972715E+03  0.13743228800E+03  0.00000000000E+00 0. -1.
         -2    1    1    2    0  503  0.13208502115E+02 -0.25219290307E+02 -0.15268429049E+03  0.15531570975E+03  0.00000000000E+00 0.  1.
<mgrwt>
<rscale>  2 0.87189998E+02</rscale>
<asrwt>0</asrwt>
<pdfrwt beam="1">  1       21 0.66021394E-02 0.87189998E+02</pdfrwt>
<pdfrwt beam="2">  1       21 0.55113148E-01 0.87189998E+02</pdfrwt>
<totfact> 0.52535767E+05</totfact>
</mgrwt>
</event>
<event>
 5    1  0.1745726E+000  0.1077672E+03  0.7546771E-02  0.1264761E+00
         21   -1    0    0  501  502  0.00000000000E+00  0.00000000000E+00  0.47465667600E+03  0.47465667600E+03  0.00000000000E+00 0. -1.
         21   -1    0    0  502  503 -0.00000000000E+00 -0.00000000000E+00 -0.26774015114E+02  0.26774015114E+02  0.00000000000E+00 0.  1.
         24    1    1    2    0    0  0.38500289380E+02  0.45813657460E+02  0.23202204725E+03  0.25275009369E+03  0.80419002446E+02 0. -1.
          1    1    1    2  501    0  0.25538883327E+02 -0.44420033195E+02  0.14174142718E+03  0.15071830045E+03  0.00000000000E+00 0. -1.
         -2    1    1    2    0  503 -0.64039172707E+02 -0.13936242642E+01  0.74119186456E+02  0.97962296984E+02  0.00000000000E+00 0.  1.
<mgrwt>
<rscale>  2 0.10776717E+03</rscale>
<asrwt>0</asrwt>
<pdfrwt beam="1">  1       21 0.73024098E-01 0.10776717E+03</pdfrwt>
<pdfrwt beam="2">  1       21 0.41190796E-02 0.10776717E+03</pdfrwt>
<totfact> 0.63506510E+05</totfact>
</mgrwt>
</event>
<event>
 5    1  0.1745726E+000  0.8152543E+02  0.7546771E-02  0.1324777E+00
         21   -1    0    0  501  502  0.00000000000E+00  0.00000000000E+00  0.18324387517E+02  0.18324387517E+02  0.00000000000E+00 0.  1.
         21   -1    0    0  502  503 -0.00000000000E+00 -0.00000000000E+00 -0.63647361742E+03  0.63647361742E+03  0.00000000000E+00 0.  1.
         24    1    1    2    0    0  0.21760769133E+02 -0.77315520366E+01 -0.11201776063E+03  0.13981595982E+03  0.80419002446E+02 0.  1.
          1    1    1    2  501    0 -0.17419423250E+02  0.41671205579E+02 -0.13667129316E+03  0.14394084915E+03  0.00000000000E+00 0. -1.
         -2    1    1    2    0  503 -0.43413458837E+01 -0.33939653543E+02 -0.36946017612E+03  0.37104119597E+03  0.00000000000E+00 0.  1.
<mgrwt>
<rscale>  2 0.81525428E+02</rscale>
<asrwt>0</asrwt>
<pdfrwt beam="1">  1       21 0.28191367E-02 0.81525428E+02</pdfrwt>
<pdfrwt beam="2">  1       21 0.97919012E-01 0.81525428E+02</pdfrwt>
<totfact> 0.61327650E+05</totfact>
</mgrwt>
</event>
<event>
 5    1  0.2507900E+000  0.8329543E+02  0.7546771E-02  0.1319951E+00
         21   -1    0    0  501  502  0.00000000000E+00  0.00000000000E+00  0.11276550390E+03  0.11276550390E+03  0.00000000000E+00 0. -1.
         21   -1    0    0  502  503 -0.00000000000E+00 -0.00000000000E+00 -0.58577783538E+03  0.58577783538E+03  0.00000000000E+00 0.  1.
         24    1    1    2    0    0 -0.15569792604E+02 -0.14132711735E+02  0.18940618853E+02  0.85253240288E+02  0.80419002446E+02 0.  0.
          1    1    1    2  501    0 -0.25733444032E+02  0.29728085295E+02  0.53310711638E+02  0.66241989496E+02  0.00000000000E+00 0. -1.
         -2    1    1    2    0  503  0.41303236636E+02 -0.15595373560E+02 -0.54526366198E+03  0.54704810950E+03  0.00000000000E+00 0.  1.
<mgrwt>
<rscale>  2 0.83295431E+02</rscale>
<asrwt>0</asrwt>
<pdfrwt beam="1">  1       21 0.17348539E-01 0.83295431E+02</pdfrwt>
<pdfrwt beam="2">  1       21 0.90119667E-01 0.83295431E+02</pdfrwt>
<totfact> 0.33901454E+04</totfact>
</mgrwt>
</event>
<event>
 5    1  0.1745726E+000  0.7995662E+02  0.7546771E-02  0.1329175E+00
         21   -1    0    0  501  502  0.00000000000E+00  0.00000000000E+00  0.54916429071E+02  0.54916429071E+02  0.00000000000E+00 0.  1.
         21   -1    0    0  502  503 -0.00000000000E+00 -0.00000000000E+00 -0.18624363137E+03  0.18624363137E+03  0.00000000000E+00 0. -1.
         24    1    1    2    0    0  0.55716230052E+02 -0.29645183760E+01 -0.14735075702E+03  0.17689699887E+03  0.80419002446E+02 0. -1.
          1    1    1    2  501    0 -0.25220321874E+02 -0.12154342111E+02  0.97925313162E+01  0.29659506691E+02  0.00000000000E+00 0. -1.
         -2    1    1    2    0  503 -0.30495908178E+02  0.15118860487E+02  0.62310233994E+01  0.34603554884E+02  0.00000000000E+00 0.  1.
<mgrwt>
<rscale>  2 0.79956621E+02</rscale>
<asrwt>0</asrwt>
<pdfrwt beam="1">  1       21 0.84486814E-02 0.79956621E+02</pdfrwt>
<pdfrwt beam="2">  1       21 0.28652866E-01 0.79956621E+02</pdfrwt>
<totfact> 0.12567982E+06</totfact>
</mgrwt>
</event>
<event>
 5    1  0.1745726E+000  0.9923048E+02  0.7546771E-02  0.1281923E+00
         21   -1    0    0  501  502  0.00000000000E+00  0.00000000000E+00  0.22417369980E+03  0.22417369980E+03  0.00000000000E+00 0. -1.
         21   -1    0    0  502  503 -0.00000000000E+00 -0.00000000000E+00 -0.89391112791E+02  0.89391112791E+02  0.00000000000E+00 0. -1.
         24    1    1    2    0    0 -0.82423364545E+02 -0.90717569963E+01 -0.30805711620E+02  0.11954963664E+03  0.80419002446E+02 0. -1.
          1    1    1    2  501    0  0.52461801928E+02  0.47412603091E+01  0.15193237158E+03  0.16080474416E+03  0.00000000000E+00 0. -1.
         -2    1    1    2    0  503  0.29961562617E+02  0.43304966872E+01  0.13655927046E+02  0.33210431787E+02  0.00000000000E+00 0.  1.
<mgrwt>
<rscale>  2 0.99230476E+02</rscale>
<asrwt>0</asrwt>
<pdfrwt beam="1">  1       21 0.34488261E-01 0.99230476E+02</pdfrwt>
<pdfrwt beam="2">  1       21 0.13752479E-01 0.99230476E+02</pdfrwt>
<totfact> 0.37764804E+05</totfact>
</mgrwt>
</event>
<event>
 5    1  0.1745726E+000  0.8381658E+02  0.7546771E-02  0.1318557E+00
         21   -1    0    0  501  502  0.00000000000E+00  0.00000000000E+00  0.10716473644E+03  0.10716473644E+03  0.00000000000E+00 0. -1.
         21   -1    0    0  502  503 -0.00000000000E+00 -0.00000000000E+00 -0.80169864321E+02  0.80169864321E+02  0.00000000000E+00 0. -1.
         24    1    1    2    0    0  0.56403409191E+01 -0.52470874188E+01  0.12511155710E+02  0.81750170297E+02  0.80419002446E+02 0.  1.
          1    1    1    2  501    0  0.32244952779E+02 -0.22984768215E+02  0.36139230740E+02  0.53610451855E+02  0.00000000000E+00 0. -1.
         -2    1    1    2    0  503 -0.37885293698E+02  0.28231855634E+02 -0.21655514334E+02  0.51973978607E+02  0.00000000000E+00 0.  1.
<mgrwt>
<rscale>  2 0.83816575E+02</rscale>
<asrwt>0</asrwt>
<pdfrwt beam="1">  1       21 0.16486883E-01 0.83816575E+02</pdfrwt>
<pdfrwt beam="2">  1       21 0.12333825E-01 0.83816575E+02</pdfrwt>
<totfact> 0.18094154E+06</totfact>
</mgrwt>
</event>
<event>
 5    1  0.1745726E+000  0.6890782E+02  0.7546771E-02  0.1363847E+00
         21   -1    0    0  501  502  0.00000000000E+00  0.00000000000E+00  0.31461959731E+03  0.31461959731E+03  0.00000000000E+00 0. -1.
         21   -1    0    0  502  503 -0.00000000000E+00 -0.00000000000E+00 -0.91008279293E+02  0.91008279293E+02  0.00000000000E+00 0.  1.
         24    1    1    2    0    0  0.18143733354E+02 -0.41872077618E+01  0.10024546889E+03  0.12985799073E+03  0.80419002446E+02 0.  0.
          1    1    1    2  501    0  0.72026425576E+00 -0.22542039337E+02  0.19537760104E+03  0.19667503478E+03  0.00000000000E+00 0. -1.
         -2    1    1    2    0  503 -0.18863997610E+02  0.26729247098E+02 -0.72011751911E+02  0.79094851094E+02  0.00000000000E+00 0.  1.
<mgrwt>
<rscale>  2 0.68907823E+02</rscale>
<asrwt>0</asrwt>
<pdfrwt beam="1">  1       21 0.48403014E-01 0.68907823E+02</pdfrwt>
<pdfrwt beam="2">  1       21 0.14001274E-01 0.68907823E+02</pdfrwt>
<totfact> 0.18818372E+05</totfact>
</mgrwt>
</event>
<event>
 5    1  0.1745726E+000  0.6980384E+02  0.7546771E-02  0.1360761E+00
         21   -1    0    0  501  502  0.00000000000E+00  0.00000000000E+00  0.44821209154E+03  0.44821209154E+03  0.00000000000E+00 0.  1.
         21   -1    0    0  502  503 -0.00000000000E+00 -0.00000000000E+00 -0.62812809971E+02  0.62812809971E+02  0.00000000000E+00 0.  1.
         24    1    1    2    0    0  0.30680935161E+01  0.33634404974E+02  0.28171969121E+03  0.29491335467E+03  0.80419002446E+02 0.  1.
          1    1    1    2  501    0  0.18263622424E+02 -0.11185329983E+02  0.15483703040E+03  0.15631115601E+03  0.00000000000E+00 0. -1.
         -2    1    1    2    0  503 -0.21331715940E+02 -0.22449074991E+02 -0.51157440033E+02  0.59800390832E+02  0.00000000000E+00 0.  1.
<mgrwt>
<rscale>  2 0.69803841E+02</rscale>
<asrwt>0</asrwt>
<pdfrwt beam="1">  1       21 0.68955705E-01 0.69803841E+02</pdfrwt>
<pdfrwt beam="2">  1       21 0.96635095E-02 0.69803841E+02</pdfrwt>
<totfact> 0.17211310E+05</totfact>
</mgrwt>
</event>
<event>
 5    1  0.1745726E+000  0.9040267E+02  0.7546771E-02  0.1301879E+00
         21   -1    0    0  503  502  0.00000000000E+00  0.00000000000E+00  0.32446281136E+03  0.32446281136E+03  0.00000000000E+00 0. -1.
         21   -1    0    0  501  503 -0.00000000000E+00 -0.00000000000E+00 -0.57198670192E+02  0.57198670192E+02  0.00000000000E+00 0. -1.
         24    1    1    2    0    0 -0.14701585207E+02 -0.55331287304E+02 -0.23515289799E+01  0.98744283912E+02  0.80419002446E+02 0. -1.
          1    1    1    2  501    0 -0.20540740699E+02  0.37108639768E+02  0.98169541491E+02  0.10694032004E+03  0.00000000000E+00 0. -1.
         -2    1    1    2    0  502  0.35242325906E+02  0.18222647536E+02  0.17144612865E+03  0.17597687760E+03  0.00000000000E+00 0.  1.
<mgrwt>
<rscale>  2 0.90402671E+02</rscale>
<asrwt>0</asrwt>
<pdfrwt beam="1">  1       21 0.49917354E-01 0.90402671E+02</pdfrwt>
<pdfrwt beam="2">  1       21 0.87997957E-02 0.90402671E+02</pdfrwt>
<totfact> 0.39477491E+05</totfact>
</mgrwt>
</event>
<event>
 5    1  0.1745726E+000  0.8265476E+02  0.7546771E-02  0.1321682E+00
         21   -1    0    0  503  502  0.00000000000E+00  0.00000000000E+00  0.12444446487E+03  0.12444446487E+03  0.00000000000E+00 0.  1.
         21   -1    0    0  501  503 -0.00000000000E+00 -0.00000000000E+00 -0.16504890430E+03  0.16504890430E+03  0.00000000000E+00 0. -1.
         24    1    1    2    0    0 -0.24854902129E+02 -0.20077475467E+02 -0.13209929475E+03  0.15791868416E+03  0.80419002446E+02 0. -1.
          1    1    1    2  501    0  0.50482769576E+02  0.11790107152E+02  0.20685831365E+02  0.55815949960E+02  0.00000000000E+00 0. -1.
         -2    1    1    2    0  502 -0.25627867446E+02  0.82873683148E+01  0.70809023950E+02  0.75758735048E+02  0.00000000000E+00 0.  1.
<mgrwt>
<rscale>  2 0.82654756E+02</rscale>
<asrwt>0</asrwt>
<pdfrwt beam="1">  1       21 0.19145302E-01 0.82654756E+02</pdfrwt>
<pdfrwt beam="2">  1       21 0.25392139E-01 0.82654756E+02</pdfrwt>
<totfact> 0.37423468E+05</totfact>
</mgrwt>
</event>
<event>
 5    1  0.1745726E+000  0.7408883E+02  0.7546771E-02  0.1346716E+00
         21   -1    0    0  501  502  0.00000000000E+00  0.00000000000E+00  0.79357201092E+03  0.79357201092E+03  0.00000000000E+00 0. -1.
         21   -1    0    0  502  503 -0.00000000000E+00 -0.00000000000E+00 -0.12518285219E+02  0.12518285219E+02  0.00000000000E+00 0. -1.
         24    1    1    2    0    0 -0.24372098259E+01 -0.59081472257E+01  0.14690397442E+03  0.16759725490E+03  0.80419002446E+02 0. -1.
          1    1    1    2  501    0  0.17083978065E+02 -0.26734581743E+02  0.43496056544E+03  0.43611614698E+03  0.00000000000E+00 0. -1.
         -2    1    1    2    0  503 -0.14646768240E+02  0.32642728969E+02  0.19918918584E+03  0.20237689426E+03  0.00000000000E+00 0.  1.
<mgrwt>
<rscale>  2 0.74088834E+02</rscale>
<asrwt>0</asrwt>
<pdfrwt beam="1">  1       21 0.12208796E+00 0.74088834E+02</pdfrwt>
<pdfrwt beam="2">  1       21 0.19258906E-02 0.74088834E+02</pdfrwt>
<totfact> 0.67351348E+05</totfact>
</mgrwt>
</event>
<event>
 5    1  0.1745726E+000  0.8973978E+02  0.7546771E-02  0.1303483E+00
         21   -1    0    0  501  502  0.00000000000E+00  0.00000000000E+00  0.88361282153E+02  0.88361282153E+02  0.00000000000E+00 0. -1.
         21   -1    0    0  502  503 -0.00000000000E+00 -0.00000000000E+00 -0.11389120070E+03  0.11389120070E+03  0.00000000000E+00 0.  1.
         24    1    1    2    0    0 -0.99717749535E+01 -0.53861340953E+02  0.19343274649E+02  0.99206141813E+02  0.80419002446E+02 0. -1.
          1    1    1    2  501    0  0.31173638502E+02  0.52341127906E+02 -0.93292698113E+01  0.61631361198E+02  0.00000000000E+00 0. -1.
         -2    1    1    2    0  503 -0.21201863548E+02  0.15202130473E+01 -0.35543923381E+02  0.41414979838E+02  0.00000000000E+00 0.  1.
<mgrwt>
<rscale>  2 0.89739778E+02</rscale>
<asrwt>0</asrwt>
<pdfrwt beam="1">  1       21 0.13594043E-01 0.89739778E+02</pdfrwt>
<pdfrwt beam="2">  1       21 0.17521723E-01 0.89739778E+02</pdfrwt>
<totfact> 0.13692487E+06</totfact>
</mgrwt>
</event>
<event>
 5    1  0.1745726E+000  0.9510406E+02  0.7546771E-02  0.1290942E+00
         21   -1    0    0  501  502  0.00000000000E+00  0.00000000000E+00  0.59969466709E+02  0.59969466709E+02  0.00000000000E+00 0. -1.
         21   -1    0    0  502  503 -0.00000000000E+00 -0.00000000000E+00 -0.15308154257E+03  0.15308154257E+03  0.00000000000E+00 0.  1.
         24    1    1    2    0    0  0.12757119107E+02  0.10242654495E+01 -0.30707545838E+02  0.87028515634E+02  0.80419002446E+02 0.  0.
          1    1    1    2  501    0  0.47989619268E+02 -0.18402581406E+01 -0.20484788224E+02  0.52211269435E+02  0.00000000000E+00 0. -1.
         -2    1    1    2    0  503 -0.60746738374E+02  0.81599269109E+00 -0.41919741801E+02  0.73811224213E+02  0.00000000000E+00 0.  1.
<mgrwt>
<rscale>  2 0.95104059E+02</rscale>
<asrwt>0</asrwt>
<pdfrwt beam="1">  1       21 0.92260718E-02 0.95104059E+02</pdfrwt>
<pdfrwt beam="2">  1       21 0.23551007E-01 0.95104059E+02</pdfrwt>
<totfact> 0.15694176E+06</totfact>
</mgrwt>
</event>
<event>
 5    1  0.1745726E+000  0.9817029E+02  0.7546771E-02  0.1284191E+00
         21   -1    0    0  503  502  0.00000000000E+00  0.00000000000E+00  0.27007747385E+03  0.27007747385E+03  0.00000000000E+00 0. -1.
         21   -1    0    0  501  503 -0.00000000000E+00 -0.00000000000E+00 -0.48033847227E+02  0.48033847227E+02  0.00000000000E+00 0.  1.
         24    1    1    2    0    0 -0.94798738223E+01  0.42587152110E+02  0.36530987997E+02  0.98515291051E+02  0.80419002446E+02 0.  1.
          1    1    1    2  501    0 -0.42936278434E+02 -0.14103136870E+02  0.33376865774E+02  0.56182182623E+02  0.00000000000E+00 0. -1.
         -2    1    1    2    0  502  0.52416152257E+02 -0.28484015240E+02  0.15213577285E+03  0.16341384740E+03  0.00000000000E+00 0.  1.
<mgrwt>
<rscale>  2 0.98170291E+02</rscale>
<asrwt>0</asrwt>
<pdfrwt beam="1">  1       21 0.41550380E-01 0.98170291E+02</pdfrwt>
<pdfrwt beam="2">  1       21 0.73898228E-02 0.98170291E+02</pdfrwt>
<totfact> 0.77051230E+05</totfact>
</mgrwt>
</event>
<event>
 5    1  0.1745726E+000  0.8128370E+02  0.7546771E-02  0.1325447E+00
         21   -1    0    0  503  502  0.00000000000E+00  0.00000000000E+00  0.56311855550E+03  0.56311855550E+03  0.00000000000E+00 0.  1.
         21   -1    0    0  501  503 -0.00000000000E+00 -0.00000000000E+00 -0.26243524967E+02  0.26243524967E+02  0.00000000000E+00 0. -1.
         24    1    1    2    0    0 -0.21053953366E+02 -0.13268703236E+02  0.34475507060E+03  0.35488392764E+03  0.80419002446E+02 0.  0.
          1    1    1    2  501    0  0.45498321224E+02  0.24284909861E+02  0.12764783700E+02  0.53129970676E+02  0.00000000000E+00 0. -1.
         -2    1    1    2    0  502 -0.24444367858E+02 -0.11016206626E+02  0.17935517623E+03  0.18134818215E+03  0.00000000000E+00 0.  1.
<mgrwt>
<rscale>  2 0.81283697E+02</rscale>
<asrwt>0</asrwt>
<pdfrwt beam="1">  1       21 0.86633615E-01 0.81283697E+02</pdfrwt>
<pdfrwt beam="2">  1       21 0.40374658E-02 0.81283697E+02</pdfrwt>
<totfact> 0.45062753E+05</totfact>
</mgrwt>
</event>
<event>
 5    1  0.1745726E+000  0.8170998E+02  0.7546771E-02  0.1324268E+00
         21   -1    0    0  503  502  0.00000000000E+00  0.00000000000E+00  0.27100730001E+03  0.27100730001E+03  0.00000000000E+00 0. -1.
         21   -1    0    0  501  503 -0.00000000000E+00 -0.00000000000E+00 -0.36493763966E+02  0.36493763966E+02  0.00000000000E+00 0.  1.
         24    1    1    2    0    0 -0.56364158996E+02 -0.24035525438E+02  0.19854809441E+03  0.22280751031E+03  0.80419002446E+02 0. -1.
          1    1    1    2  501    0  0.24179568957E+02  0.42878314630E+01 -0.88393741003E+01  0.26099264129E+02  0.00000000000E+00 0. -1.
         -2    1    1    2    0  502  0.32184590039E+02  0.19747693975E+02  0.44804815738E+02  0.58594289539E+02  0.00000000000E+00 0.  1.
<mgrwt>
<rscale>  2 0.81709977E+02</rscale>
<asrwt>0</asrwt>
<pdfrwt beam="1">  1       21 0.41693430E-01 0.81709977E+02</pdfrwt>
<pdfrwt beam="2">  1       21 0.56144254E-02 0.81709977E+02</pdfrwt>
<totfact> 0.12126081E+06</totfact>
</mgrwt>
</event>
<event>
 5    1  0.1917304E+000  0.8159059E+02  0.7546771E-02  0.1324597E+00
         21   -1    0    0  501  502  0.00000000000E+00  0.00000000000E+00  0.52090172585E+02  0.52090172585E+02  0.00000000000E+00 0. -1.
         21   -1    0    0  502  503 -0.00000000000E+00 -0.00000000000E+00 -0.94885247316E+03  0.94885247316E+03  0.00000000000E+00 0.  1.
         24    1    1    2    0    0 -0.23029253536E+02  0.35822354416E+01 -0.57948168659E+02  0.10182526766E+03  0.80419002446E+02 0.  1.
          1    1    1    2  501    0  0.44054450041E+02 -0.23980987903E+02  0.88618166463E+01  0.50935391855E+02  0.00000000000E+00 0. -1.
         -2    1    1    2    0  503 -0.21025196505E+02  0.20398752461E+02 -0.84767594856E+03  0.84818198623E+03  0.00000000000E+00 0.  1.
<mgrwt>
<rscale>  2 0.81590589E+02</rscale>
<asrwt>0</asrwt>
<pdfrwt beam="1">  1       21 0.80138731E-02 0.81590589E+02</pdfrwt>
<pdfrwt beam="2">  1       21 0.14597730E+00 0.81590589E+02</pdfrwt>
<totfact> 0.41656864E+04</totfact>
</mgrwt>
</event>
<event>
 5    1  0.1745726E+000  0.8774236E+02  0.7546771E-02  0.1308413E+00
         21   -1    0    0  503  502  0.00000000000E+00  0.00000000000E+00  0.63676922808E+03  0.63676922808E+03  0.00000000000E+00 0. -1.
         21   -1    0    0  501  503 -0.00000000000E+00 -0.00000000000E+00 -0.24781431277E+02  0.24781431277E+02  0.00000000000E+00 0. -1.
         24    1    1    2    0    0  0.37149034763E+02 -0.55593645266E+02  0.38863459259E+03  0.40246088840E+03  0.80419002446E+02 0. -1.
          1    1    1    2  501    0 -0.85089592781E+01  0.33954489613E+02  0.22337063210E+01  0.35075621118E+02  0.00000000000E+00 0. -1.
         -2    1    1    2    0  502 -0.28640075485E+02  0.21639155653E+02  0.22111949789E+03  0.22401414984E+03  0.00000000000E+00 0.  1.
<mgrwt>
<rscale>  2 0.87742358E+02</rscale>
<asrwt>0</asrwt>
<pdfrwt beam="1">  1       21 0.97964484E-01 0.87742358E+02</pdfrwt>
<pdfrwt beam="2">  1       21 0.38125284E-02 0.87742358E+02</pdfrwt>
<totfact> 0.37440874E+05</totfact>
</mgrwt>
</event>
<event>
 5    1  0.1745726E+000  0.6577158E+02  0.7546771E-02  0.1375092E+00
         21   -1    0    0  503  502  0.00000000000E+00  0.00000000000E+00  0.21974900532E+03  0.21974900532E+03  0.00000000000E+00 0. -1.
         21   -1    0    0  501  503 -0.00000000000E+00 -0.00000000000E+00 -0.35567738448E+02  0.35567738448E+02  0.00000000000E+00 0. -1.
         24    1    1    2    0    0 -0.19564261762E+02 -0.18186807754E+02  0.17065103649E+03  0.19053218238E+03  0.80419002446E+02 0. -1.
          1    1    1    2  501    0  0.19113066326E+02 -0.79230471889E+01 -0.15414440290E+02  0.25800948638E+02  0.00000000000E+00 0. -1.
         -2    1    1    2    0  502  0.45119543585E+00  0.26109854943E+02  0.28944670673E+02  0.38983612747E+02  0.00000000000E+00 0.  1.
<mgrwt>
<rscale>  2 0.65771584E+02</rscale>
<asrwt>0</asrwt>
<pdfrwt beam="1">  1       21 0.33807538E-01 0.65771584E+02</pdfrwt>
<pdfrwt beam="2">  1       21 0.54719599E-02 0.65771584E+02</pdfrwt>
<totfact> 0.18894998E+06</totfact>
</mgrwt>
</event>
<event>
 5    1  0.1745726E+000  0.8661613E+02  0.7546771E-02  0.1311259E+00
         21   -1    0    0  501  502  0.00000000000E+00  0.00000000000E+00  0.71673386583E+02  0.71673386583E+02  0.00000000000E+00 0.  1.
         21   -1    0    0  502  503 -0.00000000000E+00 -0.00000000000E+00 -0.14098120466E+03  0.14098120466E+03  0.00000000000E+00 0.  1.
         24    1    1    2    0    0  0.53361277300E+02  0.26659891286E+02 -0.11635061312E+02  0.10080062661E+03  0.80419002446E+02 0.  1.
          1    1    1    2  501    0 -0.19870093364E+02 -0.33474744329E+02  0.61937817525E+01  0.39417534811E+02  0.00000000000E+00 0. -1.
         -2    1    1    2    0  503 -0.33491183936E+02  0.68148530426E+01 -0.63866538519E+02  0.72436429826E+02  0.00000000000E+00 0.  1.
<mgrwt>
<rscale>  2 0.86616125E+02</rscale>
<asrwt>0</asrwt>
<pdfrwt beam="1">  1       21 0.11026675E-01 0.86616125E+02</pdfrwt>
<pdfrwt beam="2">  1       21 0.21689416E-01 0.86616125E+02</pdfrwt>
<totfact> 0.13381878E+06</totfact>
</mgrwt>
</event>
<event>
 5    1  0.1745726E+000  0.8594177E+02  0.7546771E-02  0.1312988E+00
         21   -1    0    0  503  502  0.00000000000E+00  0.00000000000E+00  0.18076085115E+02  0.18076085115E+02  0.00000000000E+00 0.  1.
         21   -1    0    0  501  503 -0.00000000000E+00 -0.00000000000E+00 -0.45884624963E+03  0.45884624963E+03  0.00000000000E+00 0. -1.
         24    1    1    2    0    0  0.16171136882E+02 -0.47444336811E+01 -0.25168617533E+03  0.26475868659E+03  0.80419002446E+02 0.  0.
          1    1    1    2  501    0 -0.45276690705E+02 -0.21866715342E+02 -0.14259696669E+03  0.15120194070E+03  0.00000000000E+00 0. -1.
         -2    1    1    2    0  502  0.29105553823E+02  0.26611149023E+02 -0.46487022492E+02  0.60961707456E+02  0.00000000000E+00 0.  1.
<mgrwt>
<rscale>  2 0.85941765E+02</rscale>
<asrwt>0</asrwt>
<pdfrwt beam="1">  1       21 0.27809365E-02 0.85941765E+02</pdfrwt>
<pdfrwt beam="2">  1       21 0.70591723E-01 0.85941765E+02</pdfrwt>
<totfact> 0.12976645E+06</totfact>
</mgrwt>
</event>
<event>
 5    1  0.1745726E+000  0.7336887E+02  0.7546771E-02  0.1348998E+00
         21   -1    0    0  501  502  0.00000000000E+00  0.00000000000E+00  0.81242201860E+03  0.81242201860E+03  0.00000000000E+00 0. -1.
         21   -1    0    0  502  503 -0.00000000000E+00 -0.00000000000E+00 -0.21617325110E+02  0.21617325110E+02  0.00000000000E+00 0. -1.
         24    1    1    2    0    0 -0.29280074031E+01 -0.23743030503E+02  0.26744973815E+03  0.28030141476E+03  0.80419002446E+02 0.  0.
          1    1    1    2  501    0  0.24231785902E+02  0.31868845227E+02  0.52878581435E+03  0.53029919876E+03  0.00000000000E+00 0. -1.
         -2    1    1    2    0  503 -0.21303778499E+02 -0.81258147237E+01 -0.54308590145E+01  0.23438730190E+02  0.00000000000E+00 0.  1.
<mgrwt>
<rscale>  2 0.73368872E+02</rscale>
<asrwt>0</asrwt>
<pdfrwt beam="1">  1       21 0.12498798E+00 0.73368872E+02</pdfrwt>
<pdfrwt beam="2">  1       21 0.33257430E-02 0.73368872E+02</pdfrwt>
<totfact> 0.26473782E+05</totfact>
</mgrwt>
</event>
<event>
 5    1  0.1745726E+000  0.6644162E+02  0.7546771E-02  0.1372629E+00
         21   -1    0    0  501  502  0.00000000000E+00  0.00000000000E+00  0.93255787441E+02  0.93255787441E+02  0.00000000000E+00 0.  1.
         21   -1    0    0  502  503 -0.00000000000E+00 -0.00000000000E+00 -0.20188735338E+03  0.20188735338E+03  0.00000000000E+00 0.  1.
         24    1    1    2    0    0 -0.30165851288E+02 -0.90402365612E-01 -0.49526616569E+02  0.99146802569E+02  0.80419002446E+02 0. -1.
          1    1    1    2  501    0  0.17950233872E+02 -0.17832727551E+02  0.65135166087E+02  0.69877084435E+02  0.00000000000E+00 0. -1.
         -2    1    1    2    0  503  0.12215617416E+02  0.17923129917E+02 -0.12424011546E+03  0.12611925382E+03  0.00000000000E+00 0.  1.
<mgrwt>
<rscale>  2 0.66441621E+02</rscale>
<asrwt>0</asrwt>
<pdfrwt beam="1">  1       21 0.14347044E-01 0.66441621E+02</pdfrwt>
<pdfrwt beam="2">  1       21 0.31059592E-01 0.66441621E+02</pdfrwt>
<totfact> 0.42920287E+05</totfact>
</mgrwt>
</event>
<event>
 5    1  0.1745726E+000  0.8211729E+02  0.7546771E-02  0.1323148E+00
         21   -1    0    0  503  502  0.00000000000E+00  0.00000000000E+00  0.25146587998E+03  0.25146587998E+03  0.00000000000E+00 0. -1.
         21   -1    0    0  501  503 -0.00000000000E+00 -0.00000000000E+00 -0.27028118017E+02  0.27028118017E+02  0.00000000000E+00 0.  1.
         24    1    1    2    0    0  0.42172573066E+02  0.12396459619E+02  0.13446430911E+03  0.16272696307E+03  0.80419002446E+02 0. -1.
          1    1    1    2  501    0 -0.17884081117E+02  0.23323435752E+02  0.41303024540E+02  0.50692828377E+02  0.00000000000E+00 0. -1.
         -2    1    1    2    0  502 -0.24288491949E+02 -0.35719895371E+02  0.48670428314E+02  0.65074206555E+02  0.00000000000E+00 0.  1.
<mgrwt>
<rscale>  2 0.82117287E+02</rscale>
<asrwt>0</asrwt>
<pdfrwt beam="1">  1       21 0.38687057E-01 0.82117287E+02</pdfrwt>
<pdfrwt beam="2">  1       21 0.41581722E-02 0.82117287E+02</pdfrwt>
<totfact> 0.23124266E+06</totfact>
</mgrwt>
</event>
<event>
 5    1  0.1745726E+000  0.8077578E+02  0.7546771E-02  0.1326864E+00
         21   -1    0    0  503  502  0.00000000000E+00  0.00000000000E+00  0.80592111240E+02  0.80592111240E+02  0.00000000000E+00 0.  1.
         21   -1    0    0  501  503 -0.00000000000E+00 -0.00000000000E+00 -0.13535949744E+03  0.13535949744E+03  0.00000000000E+00 0.  1.
         24    1    1    2    0    0 -0.49493445554E+02  0.28784675892E+02  0.13625917816E+02  0.99654605060E+02  0.80419002446E+02 0.  1.
          1    1    1    2  501    0  0.21005583540E+02 -0.27110362518E+02 -0.78785616199E+02  0.85926594344E+02  0.00000000000E+00 0. -1.
         -2    1    1    2    0  502  0.28487862014E+02 -0.16743133741E+01  0.10392312180E+02  0.30370409280E+02  0.00000000000E+00 0.  1.
<mgrwt>
<rscale>  2 0.80775775E+02</rscale>
<asrwt>0</asrwt>
<pdfrwt beam="1">  1       21 0.12398786E-01 0.80775775E+02</pdfrwt>
<pdfrwt beam="2">  1       21 0.20824538E-01 0.80775775E+02</pdfrwt>
<totfact> 0.11724624E+06</totfact>
</mgrwt>
</event>
<event>
 5    1  0.1745726E+000  0.8187982E+02  0.7546771E-02  0.1323800E+00
         21   -1    0    0  501  502  0.00000000000E+00  0.00000000000E+00  0.26690782546E+02  0.26690782546E+02  0.00000000000E+00 0. -1.
         21   -1    0    0  502  503 -0.00000000000E+00 -0.00000000000E+00 -0.31510375014E+03  0.31510375014E+03  0.00000000000E+00 0. -1.
         24    1    1    2    0    0  0.59353332658E+02 -0.67361790563E+01 -0.16993573857E+03  0.19726521590E+03  0.80419002446E+02 0. -1.
          1    1    1    2  501    0 -0.25220614939E+02 -0.79221951543E+01 -0.74687659895E+01  0.27470403334E+02  0.00000000000E+00 0. -1.
         -2    1    1    2    0  503 -0.34132717719E+02  0.14658374211E+02 -0.11100846303E+03  0.11705891345E+03  0.00000000000E+00 0.  1.
<mgrwt>
<rscale>  2 0.81879816E+02</rscale>
<asrwt>0</asrwt>
<pdfrwt beam="1">  1       21 0.41062743E-02 0.81879816E+02</pdfrwt>
<pdfrwt beam="2">  1       21 0.48477499E-01 0.81879816E+02</pdfrwt>
<totfact> 0.15049772E+06</totfact>
</mgrwt>
</event>
<event>
 5    1  0.1745726E+000  0.1148620E+03  0.7546771E-02  0.1251822E+00
         21   -1    0    0  501  502  0.00000000000E+00  0.00000000000E+00  0.61880558778E+02  0.61880558778E+02  0.00000000000E+00 0. -1.
         21   -1    0    0  502  503 -0.00000000000E+00 -0.00000000000E+00 -0.60621820868E+03  0.60621820868E+03  0.00000000000E+00 0.  1.
         24    1    1    2    0    0 -0.57257702563E+02 -0.78695590611E+02 -0.35562870770E+03  0.37737307029E+03  0.80419002446E+02 0.  1.
          1    1    1    2  501    0  0.41772762283E+02  0.27555877947E+02  0.34777384136E+02  0.60940598335E+02  0.00000000000E+00 0. -1.
         -2    1    1    2    0  503  0.15484940281E+02  0.51139712664E+02 -0.22348632634E+03  0.22978509884E+03  0.00000000000E+00 0.  1.
<mgrwt>
<rscale>  2 0.11486199E+03</rscale>
<asrwt>0</asrwt>
<pdfrwt beam="1">  1       21 0.95200863E-02 0.11486199E+03</pdfrwt>
<pdfrwt beam="2">  1       21 0.93264336E-01 0.11486199E+03</pdfrwt>
<totfact> 0.88623139E+04</totfact>
</mgrwt>
</event>
<event>
 5    1  0.1745726E+000  0.1133805E+03  0.7546771E-02  0.1254435E+00
         21   -1    0    0  501  502  0.00000000000E+00  0.00000000000E+00  0.15805661319E+03  0.15805661319E+03  0.00000000000E+00 0. -1.
         21   -1    0    0  502  503 -0.00000000000E+00 -0.00000000000E+00 -0.14170661797E+03  0.14170661797E+03  0.00000000000E+00 0. -1.
         24    1    1    2    0    0  0.26699497003E+02 -0.92748094885E+02 -0.47741915520E+02  0.13439337296E+03  0.80419002446E+02 0. -1.
          1    1    1    2  501    0 -0.26811104584E+02  0.38670790326E+02  0.92870604301E+02  0.10411154833E+03  0.00000000000E+00 0. -1.
         -2    1    1    2    0  503  0.11160758014E+00  0.54077304559E+02 -0.28778693555E+02  0.61258309863E+02  0.00000000000E+00 0.  1.
<mgrwt>
<rscale>  2 0.11338049E+03</rscale>
<asrwt>0</asrwt>
<pdfrwt beam="1">  1       21 0.24316402E-01 0.11338049E+03</pdfrwt>
<pdfrwt beam="2">  1       21 0.21801018E-01 0.11338049E+03</pdfrwt>
<totfact> 0.31837457E+05</totfact>
</mgrwt>
</event>
<event>
 5    1  0.1745726E+000  0.8059416E+02  0.7546771E-02  0.1327374E+00
         21   -1    0    0  501  502  0.00000000000E+00  0.00000000000E+00  0.98740187327E+03  0.98740187327E+03  0.00000000000E+00 0. -1.
         21   -1    0    0  502  503 -0.00000000000E+00 -0.00000000000E+00 -0.21265934355E+02  0.21265934355E+02  0.00000000000E+00 0.  1.
         24    1    1    2    0    0 -0.24917470020E+02 -0.39243910335E+01  0.39234763517E+03  0.40129809859E+03  0.80419002446E+02 0.  1.
          1    1    1    2  501    0 -0.67747354320E+01 -0.29839230281E+02  0.55741300289E+03  0.55825221226E+03  0.00000000000E+00 0. -1.
         -2    1    1    2    0  503  0.31692205452E+02  0.33763621315E+02  0.16375300854E+02  0.49117496768E+02  0.00000000000E+00 0.  1.
<mgrwt>
<rscale>  2 0.80594157E+02</rscale>
<asrwt>0</asrwt>
<pdfrwt beam="1">  1       21 0.15190795E+00 0.80594157E+02</pdfrwt>
<pdfrwt beam="2">  1       21 0.32716830E-02 0.80594157E+02</pdfrwt>
<totfact> 0.16716799E+05</totfact>
</mgrwt>
</event>
<event>
 5    1  0.1745726E+000  0.8454692E+02  0.7546771E-02  0.1316622E+00
         21   -1    0    0  503  502  0.00000000000E+00  0.00000000000E+00  0.58017834551E+03  0.58017834551E+03  0.00000000000E+00 0.  1.
         21   -1    0    0  501  503 -0.00000000000E+00 -0.00000000000E+00 -0.17109755315E+02  0.17109755315E+02  0.00000000000E+00 0.  1.
         24    1    1    2    0    0  0.36190493109E+01 -0.41868343767E+02  0.45029067246E+03  0.45934187854E+03  0.80419002446E+02 0.  1.
          1    1    1    2  501    0 -0.29534165275E+02  0.49666925351E+00  0.31888705433E+02  0.43467265074E+02  0.00000000000E+00 0. -1.
         -2    1    1    2    0  502  0.25915115964E+02  0.41371674514E+02  0.80889212303E+02  0.94478957205E+02  0.00000000000E+00 0.  1.
<mgrwt>
<rscale>  2 0.84546919E+02</rscale>
<asrwt>0</asrwt>
<pdfrwt beam="1">  1       21 0.89258192E-01 0.84546919E+02</pdfrwt>
<pdfrwt beam="2">  1       21 0.26322705E-02 0.84546919E+02</pdfrwt>
<totfact> 0.84559538E+05</totfact>
</mgrwt>
</event>
<event>
 5    1  0.1745726E+000  0.7131859E+02  0.7546771E-02  0.1355666E+00
         21   -1    0    0  501  502  0.00000000000E+00  0.00000000000E+00  0.17204674479E+03  0.17204674479E+03  0.00000000000E+00 0.  1.
         21   -1    0    0  502  503 -0.00000000000E+00 -0.00000000000E+00 -0.11136495516E+03  0.11136495516E+03  0.00000000000E+00 0. -1.
         24    1    1    2    0    0  0.65513496902E+00 -0.18175270985E+01  0.14917755579E+03  0.16948419310E+03  0.80419002446E+02 0.  1.
          1    1    1    2  501    0 -0.17872760415E+02  0.26582897445E+02 -0.16855558068E+02  0.36196627456E+02  0.00000000000E+00 0. -1.
         -2    1    1    2    0  503  0.17217625446E+02 -0.24765370347E+02 -0.71640208094E+02  0.77730879386E+02  0.00000000000E+00 0.  1.
<mgrwt>
<rscale>  2 0.71318590E+02</rscale>
<asrwt>0</asrwt>
<pdfrwt beam="1">  1       21 0.26468730E-01 0.71318590E+02</pdfrwt>
<pdfrwt beam="2">  1       21 0.17133070E-01 0.71318590E+02</pdfrwt>
<totfact> 0.42330537E+05</totfact>
</mgrwt>
</event>
<event>
 5    1  0.1745726E+000  0.7332269E+02  0.7546771E-02  0.1349145E+00
         21   -1    0    0  503  502  0.00000000000E+00  0.00000000000E+00  0.72424022555E+02  0.72424022555E+02  0.00000000000E+00 0. -1.
         21   -1    0    0  501  503 -0.00000000000E+00 -0.00000000000E+00 -0.31698105760E+03  0.31698105760E+03  0.00000000000E+00 0. -1.
         24    1    1    2    0    0 -0.24217735073E+02  0.55500675881E+01  0.22917015652E+02  0.87233637452E+02  0.80419002446E+02 0. -1.
          1    1    1    2  501    0  0.58571654662E+01  0.25630381744E+02 -0.26456706321E+03  0.26587018222E+03  0.00000000000E+00 0. -1.
         -2    1    1    2    0  502  0.18360569607E+02 -0.31180449333E+02 -0.29069874883E+01  0.36301260489E+02  0.00000000000E+00 0.  1.
<mgrwt>
<rscale>  2 0.73322687E+02</rscale>
<asrwt>0</asrwt>
<pdfrwt beam="1">  1       21 0.11142157E-01 0.73322687E+02</pdfrwt>
<pdfrwt beam="2">  1       21 0.48766317E-01 0.73322687E+02</pdfrwt>
<totfact> 0.27602675E+05</totfact>
</mgrwt>
</event>
<event>
 5    1  0.1745726E+000  0.7461610E+02  0.7546771E-02  0.1345064E+00
         21   -1    0    0  501  502  0.00000000000E+00  0.00000000000E+00  0.53758172313E+03  0.53758172313E+03  0.00000000000E+00 0. -1.
         21   -1    0    0  502  503 -0.00000000000E+00 -0.00000000000E+00 -0.34611115971E+02  0.34611115971E+02  0.00000000000E+00 0. -1.
         24    1    1    2    0    0  0.26142023533E+02 -0.45582869865E+02  0.14053120427E+03  0.17022760865E+03  0.80419002446E+02 0. -1.
          1    1    1    2  501    0 -0.11715896335E+02  0.28463269048E+02  0.37502278151E+03  0.37628381119E+03  0.00000000000E+00 0. -1.
         -2    1    1    2    0  503 -0.14426127198E+02  0.17119600817E+02 -0.12583378615E+02  0.25681419264E+02  0.00000000000E+00 0.  1.
<mgrwt>
<rscale>  2 0.74616105E+02</rscale>
<asrwt>0</asrwt>
<pdfrwt beam="1">  1       21 0.82704874E-01 0.74616105E+02</pdfrwt>
<pdfrwt beam="2">  1       21 0.53247875E-02 0.74616105E+02</pdfrwt>
<totfact> 0.31660444E+05</totfact>
</mgrwt>
</event>
<event>
 5    1  0.1745726E+000  0.8955238E+02  0.7546771E-02  0.1303939E+00
         21   -1    0    0  501  502  0.00000000000E+00  0.00000000000E+00  0.37255522127E+03  0.37255522127E+03  0.00000000000E+00 0. -1.
         21   -1    0    0  502  503 -0.00000000000E+00 -0.00000000000E+00 -0.25808602734E+02  0.25808602734E+02  0.00000000000E+00 0.  1.
         24    1    1    2    0    0  0.29239530425E+02 -0.31192762279E+02  0.13002822236E+03  0.15875293107E+03  0.80419002446E+02 0. -1.
          1    1    1    2  501    0 -0.54406205541E+02  0.31482955209E+02  0.19936538096E+03  0.20904010810E+03  0.00000000000E+00 0. -1.
         -2    1    1    2    0  503  0.25166675116E+02 -0.29019292915E+00  0.17353015217E+02  0.30570784836E+02  0.00000000000E+00 0.  1.
<mgrwt>
<rscale>  2 0.89552376E+02</rscale>
<asrwt>0</asrwt>
<pdfrwt beam="1">  1       21 0.57316184E-01 0.89552376E+02</pdfrwt>
<pdfrwt beam="2">  1       21 0.39705545E-02 0.89552376E+02</pdfrwt>
<totfact> 0.11299518E+06</totfact>
</mgrwt>
</event>
<event>
 5    1  0.1745726E+000  0.1033112E+03  0.7546771E-02  0.1273483E+00
         21   -1    0    0  503  502  0.00000000000E+00  0.00000000000E+00  0.32150061028E+02  0.32150061028E+02  0.00000000000E+00 0.  1.
         21   -1    0    0  501  503 -0.00000000000E+00 -0.00000000000E+00 -0.41528688515E+03  0.41528688515E+03  0.00000000000E+00 0.  1.
         24    1    1    2    0    0  0.15499363109E+02  0.78538115757E+00 -0.24901747125E+03  0.26214073324E+03  0.80419002446E+02 0.  1.
          1    1    1    2  501    0 -0.42238316189E+02  0.51131730939E+02 -0.91463421942E+02  0.11297825816E+03  0.00000000000E+00 0. -1.
         -2    1    1    2    0  502  0.26738953079E+02 -0.51917112097E+02 -0.42655930932E+02  0.72317954782E+02  0.00000000000E+00 0.  1.
<mgrwt>
<rscale>  2 0.10331122E+03</rscale>
<asrwt>0</asrwt>
<pdfrwt beam="1">  1       21 0.49461633E-02 0.10331122E+03</pdfrwt>
<pdfrwt beam="2">  1       21 0.63890289E-01 0.10331122E+03</pdfrwt>
<totfact> 0.62513225E+05</totfact>
</mgrwt>
</event>
<event>
 5    1  0.1745726E+000  0.1128956E+03  0.7546771E-02  0.1255300E+00
         21   -1    0    0  501  502  0.00000000000E+00  0.00000000000E+00  0.32778179687E+03  0.32778179687E+03  0.00000000000E+00 0.  1.
         21   -1    0    0  502  503 -0.00000000000E+00 -0.00000000000E+00 -0.79042389602E+02  0.79042389602E+02  0.00000000000E+00 0.  1.
         24    1    1    2    0    0  0.71774810886E+02  0.23212416634E+02  0.22688136959E+03  0.25225544907E+03  0.80419002446E+02 0.  1.
          1    1    1    2  501    0  0.44208380026E+01  0.24982821989E+02  0.53344343246E+02  0.59070332313E+02  0.00000000000E+00 0. -1.
         -2    1    1    2    0  503 -0.76195648888E+02 -0.48195238623E+02 -0.31486305572E+02  0.95498405086E+02  0.00000000000E+00 0.  1.
<mgrwt>
<rscale>  2 0.11289561E+03</rscale>
<asrwt>0</asrwt>
<pdfrwt beam="1">  1       21 0.50427968E-01 0.11289561E+03</pdfrwt>
<pdfrwt beam="2">  1       21 0.12160368E-01 0.11289561E+03</pdfrwt>
<totfact> 0.21908779E+05</totfact>
</mgrwt>
</event>
<event>
 5    1  0.1745726E+000  0.2064313E+03  0.7546771E-02  0.1144424E+00
         21   -1    0    0  503  502  0.00000000000E+00  0.00000000000E+00  0.56829270478E+03  0.56829270478E+03  0.00000000000E+00 0. -1.
         21   -1    0    0  501  503 -0.00000000000E+00 -0.00000000000E+00 -0.79087032685E+02  0.79087032685E+02  0.00000000000E+00 0. -1.
         24    1    1    2    0    0 -0.15114130338E+03 -0.12355261938E+03  0.26763944984E+03  0.34089152880E+03  0.80419002446E+02 0. -1.
          1    1    1    2  501    0  0.28629171509E+02  0.53311026148E+02  0.27473216497E+02  0.66456546667E+02  0.00000000000E+00 0. -1.
         -2    1    1    2    0  502  0.12251213187E+03  0.70241593236E+02  0.19409300576E+03  0.24003166200E+03  0.00000000000E+00 0.  1.
<mgrwt>
<rscale>  2 0.20643133E+03</rscale>
<asrwt>0</asrwt>
<pdfrwt beam="1">  1       21 0.87429644E-01 0.20643133E+03</pdfrwt>
<pdfrwt beam="2">  1       21 0.12167236E-01 0.20643133E+03</pdfrwt>
<totfact> 0.63882297E+04</totfact>
</mgrwt>
</event>
<event>
 5    1  0.1745726E+000  0.9023485E+02  0.7546771E-02  0.1302284E+00
         21   -1    0    0  503  502  0.00000000000E+00  0.00000000000E+00  0.14631983912E+03  0.14631983912E+03  0.00000000000E+00 0.  1.
         21   -1    0    0  501  503 -0.00000000000E+00 -0.00000000000E+00 -0.10673818142E+03  0.10673818142E+03  0.00000000000E+00 0. -1.
         24    1    1    2    0    0 -0.59436511592E+02 -0.25844589902E+01  0.45518713733E+02  0.10990244580E+03  0.80419002446E+02 0.  1.
          1    1    1    2  501    0  0.86200788762E+01 -0.22260981910E+02 -0.60206864527E+02  0.64766685971E+02  0.00000000000E+00 0. -1.
         -2    1    1    2    0  502  0.50816432716E+02  0.24845440900E+02  0.54269808497E+02  0.78388888765E+02  0.00000000000E+00 0.  1.
<mgrwt>
<rscale>  2 0.90234852E+02</rscale>
<asrwt>0</asrwt>
<pdfrwt beam="1">  1       21 0.22510745E-01 0.90234852E+02</pdfrwt>
<pdfrwt beam="2">  1       21 0.16421259E-01 0.90234852E+02</pdfrwt>
<totfact> 0.61802738E+05</totfact>
</mgrwt>
</event>
<event>
 5    1  0.1745726E+000  0.9600636E+02  0.7546771E-02  0.1288925E+00
         21   -1    0    0  501  502  0.00000000000E+00  0.00000000000E+00  0.24371868431E+02  0.24371868431E+02  0.00000000000E+00 0. -1.
         21   -1    0    0  502  503 -0.00000000000E+00 -0.00000000000E+00 -0.79626817101E+03  0.79626817101E+03  0.00000000000E+00 0.  1.
         24    1    1    2    0    0 -0.38066195774E+01 -0.18600020172E+02 -0.11199828946E+03  0.13918075981E+03  0.80419002446E+02 0. -1.
          1    1    1    2  501    0  0.22619035047E+01  0.63958377745E+02 -0.93845994619E+02  0.11359076106E+03  0.00000000000E+00 0. -1.
         -2    1    1    2    0  503  0.15447160727E+01 -0.45358357573E+02 -0.56605201849E+03  0.56786851858E+03  0.00000000000E+00 0.  1.
<mgrwt>
<rscale>  2 0.96006357E+02</rscale>
<asrwt>0</asrwt>
<pdfrwt beam="1">  1       21 0.37495188E-02 0.96006357E+02</pdfrwt>
<pdfrwt beam="2">  1       21 0.12250278E+00 0.96006357E+02</pdfrwt>
<totfact> 0.22648315E+05</totfact>
</mgrwt>
</event>
<event>
 5    1  0.1745726E+000  0.7990443E+02  0.7546771E-02  0.1329323E+00
         21   -1    0    0  503  502  0.00000000000E+00  0.00000000000E+00  0.15832341760E+03  0.15832341760E+03  0.00000000000E+00 0. -1.
         21   -1    0    0  501  503 -0.00000000000E+00 -0.00000000000E+00 -0.56567839041E+02  0.56567839041E+02  0.00000000000E+00 0. -1.
         24    1    1    2    0    0  0.56100265428E+01  0.59156389401E+02  0.81612234706E+02  0.12906867789E+03  0.80419002446E+02 0. -1.
          1    1    1    2  501    0  0.26140199885E+00 -0.33394441298E+02 -0.19131219393E+02  0.38487148454E+02  0.00000000000E+00 0. -1.
         -2    1    1    2    0  502 -0.58714285417E+01 -0.25761948102E+02  0.39274563246E+02  0.47335430296E+02  0.00000000000E+00 0.  1.
<mgrwt>
<rscale>  2 0.79904429E+02</rscale>
<asrwt>0</asrwt>
<pdfrwt beam="1">  1       21 0.24357449E-01 0.79904429E+02</pdfrwt>
<pdfrwt beam="2">  1       21 0.87027446E-02 0.79904429E+02</pdfrwt>
<totfact> 0.16201790E+06</totfact>
</mgrwt>
</event>
<event>
 5    1  0.1745726E+000  0.9973869E+02  0.7546771E-02  0.1280846E+00
         21   -1    0    0  501  502  0.00000000000E+00  0.00000000000E+00  0.16927308035E+04  0.16927308035E+04  0.00000000000E+00 0. -1.
         21   -1    0    0  502  503 -0.00000000000E+00 -0.00000000000E+00 -0.16095737794E+02  0.16095737794E+02  0.00000000000E+00 0.  1.
         24    1    1    2    0    0  0.44585560381E+02 -0.36625424444E+02  0.81611444628E+03  0.82209445886E+03  0.80419002446E+02 0. -1.
          1    1    1    2  501    0 -0.50177681526E+02  0.58991521908E+02  0.86019594404E+03  0.86367520604E+03  0.00000000000E+00 0. -1.
         -2    1    1    2    0  503  0.55921211455E+01 -0.22366097465E+02  0.32467538058E+00  0.23056876389E+02  0.00000000000E+00 0.  1.
<mgrwt>
<rscale>  2 0.99738685E+02</rscale>
<asrwt>0</asrwt>
<pdfrwt beam="1">  1       21 0.26041998E+00 0.99738685E+02</pdfrwt>
<pdfrwt beam="2">  1       21 0.24762687E-02 0.99738685E+02</pdfrwt>
<totfact> 0.54966828E+04</totfact>
</mgrwt>
</event>
<event>
 5    1  0.1745726E+000  0.8019084E+02  0.7546771E-02  0.1328511E+00
         21   -1    0    0  501  502  0.00000000000E+00  0.00000000000E+00  0.17801694176E+03  0.17801694176E+03  0.00000000000E+00 0. -1.
         21   -1    0    0  502  503 -0.00000000000E+00 -0.00000000000E+00 -0.11865230471E+03  0.11865230471E+03  0.00000000000E+00 0. -1.
         24    1    1    2    0    0  0.32371611680E+02  0.44665400148E+02 -0.86446874978E+00  0.97523753382E+02  0.80419002446E+02 0. -1.
          1    1    1    2  501    0 -0.10961242637E+02 -0.39285208312E+02  0.12459413497E+03  0.13109986614E+03  0.00000000000E+00 0. -1.
         -2    1    1    2    0  503 -0.21410369043E+02 -0.53801918351E+01 -0.64365029174E+02  0.68045626952E+02  0.00000000000E+00 0.  1.
<mgrwt>
<rscale>  2 0.80190837E+02</rscale>
<asrwt>0</asrwt>
<pdfrwt beam="1">  1       21 0.27387222E-01 0.80190837E+02</pdfrwt>
<pdfrwt beam="2">  1       21 0.18254201E-01 0.80190837E+02</pdfrwt>
<totfact> 0.35412690E+05</totfact>
</mgrwt>
</event>
<event>
 5    1  0.1745726E+000  0.1467929E+03  0.7546771E-02  0.1204470E+00
         21   -1    0    0  501  502  0.00000000000E+00  0.00000000000E+00  0.87390700573E+03  0.87390700573E+03  0.00000000000E+00 0.  1.
         21   -1    0    0  502  503 -0.00000000000E+00 -0.00000000000E+00 -0.28113301345E+02  0.28113301345E+02  0.00000000000E+00 0.  1.
         24    1    1    2    0    0  0.70440733356E+02  0.35083186614E+02  0.40591613236E+03  0.42122185290E+03  0.80419002446E+02 0.  1.
          1    1    1    2  501    0  0.36032810824E+02  0.37658200337E+02  0.21825147961E+03  0.22438852881E+03  0.00000000000E+00 0. -1.
         -2    1    1    2    0  503 -0.10647354418E+03 -0.72741386951E+02  0.22162609242E+03  0.25640992537E+03  0.00000000000E+00 0.  1.
<mgrwt>
<rscale>  2 0.14679291E+03</rscale>
<asrwt>0</asrwt>
<pdfrwt beam="1">  1       21 0.13444721E+00 0.14679291E+03</pdfrwt>
<pdfrwt beam="2">  1       21 0.43251240E-02 0.14679291E+03</pdfrwt>
<totfact> 0.13907065E+05</totfact>
</mgrwt>
</event>
<event>
 5    1  0.1745726E+000  0.1986372E+03  0.7546771E-02  0.1150894E+00
         21   -1    0    0  503  502  0.00000000000E+00  0.00000000000E+00  0.39581387502E+03  0.39581387502E+03  0.00000000000E+00 0.  1.
         21   -1    0    0  501  503 -0.00000000000E+00 -0.00000000000E+00 -0.16511198276E+03  0.16511198276E+03  0.00000000000E+00 0.  1.
         24    1    1    2    0    0 -0.65105791045E+02 -0.83080620410E+02 -0.49040061741E+02  0.14146836086E+03  0.80419002446E+02 0.  1.
          1    1    1    2  501    0  0.72567233035E+02 -0.76140209083E+02  0.93715093792E+01  0.10559905273E+03  0.00000000000E+00 0. -1.
         -2    1    1    2    0  502 -0.74614419902E+01  0.15922082949E+03  0.27037044463E+03  0.31385844419E+03  0.00000000000E+00 0.  1.
<mgrwt>
<rscale>  2 0.19863724E+03</rscale>
<asrwt>0</asrwt>
<pdfrwt beam="1">  1       21 0.60894442E-01 0.19863724E+03</pdfrwt>
<pdfrwt beam="2">  1       21 0.25401844E-01 0.19863724E+03</pdfrwt>
<totfact> 0.36762040E+04</totfact>
</mgrwt>
</event>
<event>
 5    1  0.1745726E+000  0.8023664E+02  0.7546771E-02  0.1328381E+00
         21   -1    0    0  501  502  0.00000000000E+00  0.00000000000E+00  0.65947484104E+02  0.65947484104E+02  0.00000000000E+00 0.  1.
         21   -1    0    0  502  503 -0.00000000000E+00 -0.00000000000E+00 -0.16784763934E+03  0.16784763934E+03  0.00000000000E+00 0. -1.
         24    1    1    2    0    0 -0.35798460487E+02  0.20189943139E+02  0.20556135397E+02  0.92622536318E+02  0.80419002446E+02 0.  1.
          1    1    1    2  501    0  0.13281135588E+02 -0.38760892357E+02 -0.68108346079E+02  0.79482967637E+02  0.00000000000E+00 0. -1.
         -2    1    1    2    0  503  0.22517324899E+02  0.18570949218E+02 -0.54347944556E+02  0.61689619491E+02  0.00000000000E+00 0.  1.
<mgrwt>
<rscale>  2 0.80236640E+02</rscale>
<asrwt>0</asrwt>
<pdfrwt beam="1">  1       21 0.10145767E-01 0.80236640E+02</pdfrwt>
<pdfrwt beam="2">  1       21 0.25822714E-01 0.80236640E+02</pdfrwt>
<totfact> 0.11161091E+06</totfact>
</mgrwt>
</event>
<event>
 5    1  0.2445988E+000  0.1913678E+03  0.7546771E-02  0.1157233E+00
         21   -1    0    0  501  502  0.00000000000E+00  0.00000000000E+00  0.48258117968E+03  0.48258117968E+03  0.00000000000E+00 0. -1.
         21   -1    0    0  502  503 -0.00000000000E+00 -0.00000000000E+00 -0.71660825367E+03  0.71660825367E+03  0.00000000000E+00 0.  1.
         24    1    1    2    0    0  0.57644106588E+01 -0.13066975711E+02 -0.63484575784E+01  0.81923703239E+02  0.80419002446E+02 0. -1.
          1    1    1    2  501    0 -0.12754615336E+03  0.90815565521E+02  0.42283828588E+03  0.45089655597E+03  0.00000000000E+00 0. -1.
         -2    1    1    2    0  503  0.12178174270E+03 -0.77748589811E+02 -0.65051690229E+03  0.66636917414E+03  0.00000000000E+00 0.  1.
<mgrwt>
<rscale>  2 0.19136781E+03</rscale>
<asrwt>0</asrwt>
<pdfrwt beam="1">  1       21 0.74243259E-01 0.19136781E+03</pdfrwt>
<pdfrwt beam="2">  1       21 0.11024742E+00 0.19136781E+03</pdfrwt>
<totfact> 0.10578022E+03</totfact>
</mgrwt>
</event>
<event>
 5    1  0.1745726E+000  0.7011734E+02  0.7546771E-02  0.1359694E+00
         21   -1    0    0  501  502  0.00000000000E+00  0.00000000000E+00  0.45058413522E+02  0.45058413522E+02  0.00000000000E+00 0.  1.
         21   -1    0    0  502  503 -0.00000000000E+00 -0.00000000000E+00 -0.16029783385E+03  0.16029783385E+03  0.00000000000E+00 0.  1.
         24    1    1    2    0    0  0.27516070074E+02  0.16169891611E+02 -0.11081698906E+02  0.87227401154E+02  0.80419002446E+02 0.  1.
          1    1    1    2  501    0  0.41285514279E+01 -0.21264854342E+02 -0.27261330125E+02  0.34819808834E+02  0.00000000000E+00 0. -1.
         -2    1    1    2    0  503 -0.31644621502E+02  0.50949627308E+01 -0.76896391301E+02  0.83309037387E+02  0.00000000000E+00 0.  1.
<mgrwt>
<rscale>  2 0.70117344E+02</rscale>
<asrwt>0</asrwt>
<pdfrwt beam="1">  1       21 0.69320637E-02 0.70117344E+02</pdfrwt>
<pdfrwt beam="2">  1       21 0.24661205E-01 0.70117344E+02</pdfrwt>
<totfact> 0.23150602E+06</totfact>
</mgrwt>
</event>
<event>
 5    1  0.1745726E+000  0.7595425E+02  0.7546771E-02  0.1340941E+00
         21   -1    0    0  501  502  0.00000000000E+00  0.00000000000E+00  0.26045217150E+02  0.26045217150E+02  0.00000000000E+00 0.  1.
         21   -1    0    0  502  503 -0.00000000000E+00 -0.00000000000E+00 -0.33157692781E+03  0.33157692781E+03  0.00000000000E+00 0. -1.
         24    1    1    2    0    0  0.20798853497E+02 -0.11177986726E+02 -0.20882709859E+03  0.22501891644E+03  0.80419002446E+02 0. -1.
          1    1    1    2  501    0  0.88693891362E+01 -0.21919784271E+02  0.26158444211E+01  0.23790452879E+02  0.00000000000E+00 0. -1.
         -2    1    1    2    0  503 -0.29668242633E+02  0.33097770998E+02 -0.99320456492E+02  0.10881277565E+03  0.00000000000E+00 0.  1.
<mgrwt>
<rscale>  2 0.75954248E+02</rscale>
<asrwt>0</asrwt>
<pdfrwt beam="1">  1       21 0.40069568E-02 0.75954248E+02</pdfrwt>
<pdfrwt beam="2">  1       21 0.51011831E-01 0.75954248E+02</pdfrwt>
<totfact> 0.14094202E+06</totfact>
</mgrwt>
</event>
<event>
 5    1  0.1745726E+000  0.9234846E+02  0.7546771E-02  0.1297262E+00
         21   -1    0    0  503  502  0.00000000000E+00  0.00000000000E+00  0.14480945074E+02  0.14480945074E+02  0.00000000000E+00 0. -1.
         21   -1    0    0  501  503 -0.00000000000E+00 -0.00000000000E+00 -0.68846587844E+03  0.68846587844E+03  0.00000000000E+00 0. -1.
         24    1    1    2    0    0  0.23457968457E+02 -0.14011944917E+02 -0.24243911334E+03  0.25688625988E+03  0.80419002446E+02 0. -1.
          1    1    1    2  501    0 -0.38736938522E+02 -0.32650985348E+02 -0.32269840967E+03  0.32665103835E+03  0.00000000000E+00 0. -1.
         -2    1    1    2    0  502  0.15278970065E+02  0.46662930265E+02 -0.10884741035E+03  0.11940952528E+03  0.00000000000E+00 0.  1.
<mgrwt>
<rscale>  2 0.92348456E+02</rscale>
<asrwt>0</asrwt>
<pdfrwt beam="1">  1       21 0.22278379E-02 0.92348456E+02</pdfrwt>
<pdfrwt beam="2">  1       21 0.10591782E+00 0.92348456E+02</pdfrwt>
<totfact> 0.74679300E+05</totfact>
</mgrwt>
</event>
<event>
 5    1  0.1745726E+000  0.9216857E+02  0.7546771E-02  0.1297684E+00
         21   -1    0    0  501  502  0.00000000000E+00  0.00000000000E+00  0.60810187759E+03  0.60810187759E+03  0.00000000000E+00 0. -1.
         21   -1    0    0  502  503 -0.00000000000E+00 -0.00000000000E+00 -0.38764948177E+02  0.38764948177E+02  0.00000000000E+00 0.  1.
         24    1    1    2    0    0 -0.20412551122E+02  0.58123988337E+02  0.24103916071E+03  0.26146159032E+03  0.80419002446E+02 0. -1.
          1    1    1    2  501    0  0.39608642576E+02 -0.44001363042E+02  0.34890961755E+03  0.35389671620E+03  0.00000000000E+00 0. -1.
         -2    1    1    2    0  503 -0.19196091454E+02 -0.14122625295E+02 -0.20611848847E+02  0.31508519248E+02  0.00000000000E+00 0.  1.
<mgrwt>
<rscale>  2 0.92168572E+02</rscale>
<asrwt>0</asrwt>
<pdfrwt beam="1">  1       21 0.93554128E-01 0.92168572E+02</pdfrwt>
<pdfrwt beam="2">  1       21 0.59638386E-02 0.92168572E+02</pdfrwt>
<totfact> 0.19767884E+05</totfact>
</mgrwt>
</event>
<event>
 5    1  0.1745726E+000  0.7067085E+02  0.7546771E-02  0.1357827E+00
         21   -1    0    0  501  502  0.00000000000E+00  0.00000000000E+00  0.52708261249E+03  0.52708261249E+03  0.00000000000E+00 0. -1.
         21   -1    0    0  502  503 -0.00000000000E+00 -0.00000000000E+00 -0.15717443157E+02  0.15717443157E+02  0.00000000000E+00 0. -1.
         24    1    1    2    0    0  0.43835844250E+02  0.19041063211E+02  0.29520581259E+03  0.30967374941E+03  0.80419002446E+02 0.  0.
          1    1    1    2  501    0 -0.18394975905E+02 -0.80807586186E+01  0.20010067627E+03  0.20110682346E+03  0.00000000000E+00 0. -1.
         -2    1    1    2    0  503 -0.25440868345E+02 -0.10960304592E+02  0.16058680467E+02  0.32019482776E+02  0.00000000000E+00 0.  1.
<mgrwt>
<rscale>  2 0.70670854E+02</rscale>
<asrwt>0</asrwt>
<pdfrwt beam="1">  1       21 0.81089619E-01 0.70670854E+02</pdfrwt>
<pdfrwt beam="2">  1       21 0.24180686E-02 0.70670854E+02</pdfrwt>
<totfact> 0.11963313E+06</totfact>
</mgrwt>
</event>
<event>
 5    1  0.1745726E+000  0.6629401E+02  0.7546771E-02  0.1373169E+00
         21   -1    0    0  503  502  0.00000000000E+00  0.00000000000E+00  0.93994718949E+03  0.93994718949E+03  0.00000000000E+00 0.  1.
         21   -1    0    0  501  503 -0.00000000000E+00 -0.00000000000E+00 -0.20915181466E+02  0.20915181466E+02  0.00000000000E+00 0. -1.
         24    1    1    2    0    0 -0.11199771497E+02  0.10090150370E+02  0.29551310803E+03  0.30663081872E+03  0.80419002446E+02 0.  0.
          1    1    1    2  501    0 -0.10332767806E+01 -0.28579653544E+02 -0.16724985171E+01  0.28647190245E+02  0.00000000000E+00 0. -1.
         -2    1    1    2    0  502  0.12233048278E+02  0.18489503175E+02  0.62519139851E+03  0.62558436199E+03  0.00000000000E+00 0.  1.
<mgrwt>
<rscale>  2 0.66294012E+02</rscale>
<asrwt>0</asrwt>
<pdfrwt beam="1">  1       21 0.14460723E+00 0.66294012E+02</pdfrwt>
<pdfrwt beam="2">  1       21 0.32177210E-02 0.66294012E+02</pdfrwt>
<totfact> 0.19609564E+05</totfact>
</mgrwt>
</event>
<event>
 5    1  0.1745726E+000  0.8582880E+02  0.7546771E-02  0.1313279E+00
         21   -1    0    0  501  502  0.00000000000E+00  0.00000000000E+00  0.15036770285E+02  0.15036770285E+02  0.00000000000E+00 0. -1.
         21   -1    0    0  502  503 -0.00000000000E+00 -0.00000000000E+00 -0.98669748131E+03  0.98669748131E+03  0.00000000000E+00 0.  1.
         24    1    1    2    0    0 -0.54772792345E+02  0.38026860373E+02 -0.20709592959E+03  0.23195266952E+03  0.80419002446E+02 0. -1.
          1    1    1    2  501    0  0.33469675277E+02 -0.18245633739E+02 -0.15848357880E+03  0.16300357991E+03  0.00000000000E+00 0. -1.
         -2    1    1    2    0  503  0.21303117068E+02 -0.19781226634E+02 -0.60608120264E+03  0.60677800217E+03  0.00000000000E+00 0.  1.
<mgrwt>
<rscale>  2 0.85828803E+02</rscale>
<asrwt>0</asrwt>
<pdfrwt beam="1">  1       21 0.23133495E-02 0.85828803E+02</pdfrwt>
<pdfrwt beam="2">  1       21 0.15179960E+00 0.85828803E+02</pdfrwt>
<totfact> 0.29245522E+05</totfact>
</mgrwt>
</event>
<event>
 5    1  0.1745726E+000  0.6927062E+02  0.7546771E-02  0.1362591E+00
         21   -1    0    0  501  502  0.00000000000E+00  0.00000000000E+00  0.11066433426E+04  0.11066433426E+04  0.00000000000E+00 0. -1.
         21   -1    0    0  502  503 -0.00000000000E+00 -0.00000000000E+00 -0.28494849333E+02  0.28494849333E+02  0.00000000000E+00 0.  1.
         24    1    1    2    0    0 -0.15327385591E+02 -0.41702525059E+01  0.13166315125E+03  0.15509584490E+03  0.80419002446E+02 0.  0.
          1    1    1    2  501    0  0.27215132649E+02  0.22098407193E+02  0.95591312230E+03  0.95655574873E+03  0.00000000000E+00 0. -1.
         -2    1    1    2    0  503 -0.11887747058E+02 -0.17928154687E+02 -0.94277802513E+01  0.23486598329E+02  0.00000000000E+00 0.  1.
<mgrwt>
<rscale>  2 0.69270621E+02</rscale>
<asrwt>0</asrwt>
<pdfrwt beam="1">  1       21 0.17025279E+00 0.69270621E+02</pdfrwt>
<pdfrwt beam="2">  1       21 0.43838238E-02 0.69270621E+02</pdfrwt>
<totfact> 0.77922440E+04</totfact>
</mgrwt>
</event>
<event>
 5    1  0.1745726E+000  0.9384577E+02  0.7546771E-02  0.1293797E+00
         21   -1    0    0  503  502  0.00000000000E+00  0.00000000000E+00  0.13610934988E+02  0.13610934988E+02  0.00000000000E+00 0. -1.
         21   -1    0    0  501  503 -0.00000000000E+00 -0.00000000000E+00 -0.11465895255E+04  0.11465895255E+04  0.00000000000E+00 0.  1.
         24    1    1    2    0    0 -0.42808039367E+02  0.15969144806E+02 -0.20205106652E+03  0.22221474131E+03  0.80419002446E+02 0. -1.
          1    1    1    2  501    0  0.62407430388E+02 -0.31765783188E+02 -0.85766756826E+03  0.86052159182E+03  0.00000000000E+00 0. -1.
         -2    1    1    2    0  502 -0.19599391021E+02  0.15796638383E+02 -0.73259955748E+02  0.77464127367E+02  0.00000000000E+00 0.  1.
<mgrwt>
<rscale>  2 0.93845766E+02</rscale>
<asrwt>0</asrwt>
<pdfrwt beam="1">  1       21 0.20939906E-02 0.93845766E+02</pdfrwt>
<pdfrwt beam="2">  1       21 0.17639834E+00 0.93845766E+02</pdfrwt>
<totfact> 0.23045817E+05</totfact>
</mgrwt>
</event>
<event>
 5    1  0.1745726E+000  0.7559920E+02  0.7546771E-02  0.1342025E+00
         21   -1    0    0  501  502  0.00000000000E+00  0.00000000000E+00  0.26920952481E+03  0.26920952481E+03  0.00000000000E+00 0.  1.
         21   -1    0    0  502  503 -0.00000000000E+00 -0.00000000000E+00 -0.21504186530E+02  0.21504186530E+02  0.00000000000E+00 0. -1.
         24    1    1    2    0    0 -0.22043739616E+02  0.16270453379E+02  0.12473840478E+03  0.15092229686E+03  0.80419002446E+02 0.  0.
          1    1    1    2  501    0 -0.20467623714E+02 -0.11460454642E+02  0.49457372103E+02  0.54738444410E+02  0.00000000000E+00 0. -1.
         -2    1    1    2    0  503  0.42511363330E+02 -0.48099987376E+01  0.73509561401E+02  0.85052970068E+02  0.00000000000E+00 0.  1.
<mgrwt>
<rscale>  2 0.75599202E+02</rscale>
<asrwt>0</asrwt>
<pdfrwt beam="1">  1       21 0.41416848E-01 0.75599202E+02</pdfrwt>
<pdfrwt beam="2">  1       21 0.33083366E-02 0.75599202E+02</pdfrwt>
<totfact> 0.29263684E+06</totfact>
</mgrwt>
</event>
<event>
 5    1  0.1745726E+000  0.1003322E+03  0.7546771E-02  0.1279599E+00
         21   -1    0    0  501  502  0.00000000000E+00  0.00000000000E+00  0.12174129913E+03  0.12174129913E+03  0.00000000000E+00 0. -1.
         21   -1    0    0  502  503 -0.00000000000E+00 -0.00000000000E+00 -0.89284885029E+02  0.89284885029E+02  0.00000000000E+00 0.  1.
         24    1    1    2    0    0 -0.78596325587E+02 -0.27140311208E+02  0.35929176559E+02  0.12112844658E+03  0.80419002446E+02 0. -1.
          1    1    1    2  501    0  0.38186765715E+02  0.22473812003E+02  0.12745304985E+02  0.46105792487E+02  0.00000000000E+00 0. -1.
         -2    1    1    2    0  503  0.40409559872E+02  0.46664992048E+01 -0.16218067438E+02  0.43791945096E+02  0.00000000000E+00 0.  1.
<mgrwt>
<rscale>  2 0.10033219E+03</rscale>
<asrwt>0</asrwt>
<pdfrwt beam="1">  1       21 0.18729431E-01 0.10033219E+03</pdfrwt>
<pdfrwt beam="2">  1       21 0.13736136E-01 0.10033219E+03</pdfrwt>
<totfact> 0.11941219E+06</totfact>
</mgrwt>
</event>
<event>
 5    1  0.1745726E+000  0.7410734E+02  0.7546771E-02  0.1346658E+00
         21   -1    0    0  501  502  0.00000000000E+00  0.00000000000E+00  0.21882302282E+02  0.21882302282E+02  0.00000000000E+00 0. -1.
         21   -1    0    0  502  503 -0.00000000000E+00 -0.00000000000E+00 -0.26114714796E+03  0.26114714796E+03  0.00000000000E+00 0.  1.
         24    1    1    2    0    0  0.14510890526E+02 -0.18054340202E+01 -0.14142193767E+03  0.16334382738E+03  0.80419002446E+02 0.  1.
          1    1    1    2  501    0  0.12646508547E+02 -0.25189171940E+02 -0.26351564712E+02  0.38585405585E+02  0.00000000000E+00 0. -1.
         -2    1    1    2    0  503 -0.27157399072E+02  0.26994605960E+02 -0.71491343297E+02  0.81100217273E+02  0.00000000000E+00 0.  1.
<mgrwt>
<rscale>  2 0.74107335E+02</rscale>
<asrwt>0</asrwt>
<pdfrwt beam="1">  1       21 0.33665081E-02 0.74107335E+02</pdfrwt>
<pdfrwt beam="2">  1       21 0.40176484E-01 0.74107335E+02</pdfrwt>
<totfact> 0.30171248E+06</totfact>
</mgrwt>
</event>
<event>
 5    1  0.1745726E+000  0.1027933E+03  0.7546771E-02  0.1274529E+00
         21   -1    0    0  503  502  0.00000000000E+00  0.00000000000E+00  0.77995901470E+02  0.77995901470E+02  0.00000000000E+00 0.  1.
         21   -1    0    0  501  503 -0.00000000000E+00 -0.00000000000E+00 -0.25151516550E+03  0.25151516550E+03  0.00000000000E+00 0. -1.
         24    1    1    2    0    0  0.48746834522E+02  0.13399123527E+02 -0.23466844564E+02  0.97845281620E+02  0.80419002446E+02 0.  1.
          1    1    1    2  501    0  0.25162309842E+02  0.17331609573E+02 -0.14849662895E+03  0.15160730634E+03  0.00000000000E+00 0. -1.
         -2    1    1    2    0  502 -0.73909144364E+02 -0.30730733101E+02 -0.15557905198E+01  0.80058479012E+02  0.00000000000E+00 0.  1.
<mgrwt>
<rscale>  2 0.10279327E+03</rscale>
<asrwt>0</asrwt>
<pdfrwt beam="1">  1       21 0.11999369E-01 0.10279327E+03</pdfrwt>
<pdfrwt beam="2">  1       21 0.38694641E-01 0.10279327E+03</pdfrwt>
<totfact> 0.38340346E+05</totfact>
</mgrwt>
</event>
<event>
 5    1  0.1745726E+000  0.6996309E+02  0.7546771E-02  0.1360219E+00
         21   -1    0    0  501  502  0.00000000000E+00  0.00000000000E+00  0.92123858129E+03  0.92123858129E+03  0.00000000000E+00 0.  1.
         21   -1    0    0  502  503 -0.00000000000E+00 -0.00000000000E+00 -0.92515611695E+01  0.92515611695E+01  0.00000000000E+00 0.  1.
         24    1    1    2    0    0  0.33279569010E+01  0.19909308986E+02  0.73307242207E+03  0.73774646583E+03  0.80419002446E+02 0.  1.
          1    1    1    2  501    0 -0.17180931485E+02  0.12843319195E+02  0.13274065824E+03  0.13446269967E+03  0.00000000000E+00 0. -1.
         -2    1    1    2    0  503  0.13852974584E+02 -0.32752628182E+02  0.46173939814E+02  0.58280976961E+02  0.00000000000E+00 0.  1.
<mgrwt>
<rscale>  2 0.69963088E+02</rscale>
<asrwt>0</asrwt>
<pdfrwt beam="1">  1       21 0.14172894E+00 0.69963088E+02</pdfrwt>
<pdfrwt beam="2">  1       21 0.14233178E-02 0.69963088E+02</pdfrwt>
<totfact> 0.75486688E+05</totfact>
</mgrwt>
</event>
<event>
 5    1  0.1745726E+000  0.1064091E+03  0.7546771E-02  0.1267368E+00
         21   -1    0    0  501  502  0.00000000000E+00  0.00000000000E+00  0.26227865015E+03  0.26227865015E+03  0.00000000000E+00 0. -1.
         21   -1    0    0  502  503 -0.00000000000E+00 -0.00000000000E+00 -0.13956741357E+03  0.13956741357E+03  0.00000000000E+00 0.  1.
         24    1    1    2    0    0  0.54666096133E+02 -0.49690812633E+02  0.13489001545E+03  0.17355140780E+03  0.80419002446E+02 0.  0.
          1    1    1    2  501    0 -0.48584961617E+02 -0.47697801147E+01  0.95623202739E+02  0.10736408245E+03  0.00000000000E+00 0. -1.
         -2    1    1    2    0  503 -0.60811345163E+01  0.54460592747E+02 -0.10780198161E+03  0.12093057347E+03  0.00000000000E+00 0.  1.
<mgrwt>
<rscale>  2 0.10640910E+03</rscale>
<asrwt>0</asrwt>
<pdfrwt beam="1">  1       21 0.40350561E-01 0.10640910E+03</pdfrwt>
<pdfrwt beam="2">  1       21 0.21471910E-01 0.10640910E+03</pdfrwt>
<totfact> 0.12339189E+05</totfact>
</mgrwt>
</event>
<event>
 5    1  0.1745726E+000  0.7371495E+02  0.7546771E-02  0.1347897E+00
         21   -1    0    0  503  502  0.00000000000E+00  0.00000000000E+00  0.37154993098E+03  0.37154993098E+03  0.00000000000E+00 0. -1.
         21   -1    0    0  501  503 -0.00000000000E+00 -0.00000000000E+00 -0.21794509699E+02  0.21794509699E+02  0.00000000000E+00 0. -1.
         24    1    1    2    0    0 -0.62275222601E+01  0.11924524714E+02  0.89933265349E+02  0.12139268715E+03  0.80419002446E+02 0. -1.
          1    1    1    2  501    0  0.29349746927E+01 -0.38752852849E+02  0.68726620866E+02  0.78954075867E+02  0.00000000000E+00 0. -1.
         -2    1    1    2    0  502  0.32925475674E+01  0.26828328136E+02  0.19109553506E+03  0.19299767766E+03  0.00000000000E+00 0.  1.
<mgrwt>
<rscale>  2 0.73714949E+02</rscale>
<asrwt>0</asrwt>
<pdfrwt beam="1">  1       21 0.57161523E-01 0.73714949E+02</pdfrwt>
<pdfrwt beam="2">  1       21 0.33530018E-02 0.73714949E+02</pdfrwt>
<totfact> 0.14904768E+06</totfact>
</mgrwt>
</event>
<event>
 5    1  0.1745726E+000  0.7851875E+02  0.7546771E-02  0.1333308E+00
         21   -1    0    0  501  502  0.00000000000E+00  0.00000000000E+00  0.54211635466E+02  0.54211635466E+02  0.00000000000E+00 0.  1.
         21   -1    0    0  502  503 -0.00000000000E+00 -0.00000000000E+00 -0.20515565378E+03  0.20515565378E+03  0.00000000000E+00 0.  1.
         24    1    1    2    0    0 -0.28398003494E+02 -0.25285318270E+01 -0.63800117241E+02  0.10653877693E+03  0.80419002446E+02 0.  1.
          1    1    1    2  501    0 -0.16867690738E+02  0.17238736141E+02  0.22697124373E+02  0.33118763102E+02  0.00000000000E+00 0. -1.
         -2    1    1    2    0  503  0.45265694232E+02 -0.14710204314E+02 -0.10984102545E+03  0.11970974921E+03  0.00000000000E+00 0.  1.
<mgrwt>
<rscale>  2 0.78518747E+02</rscale>
<asrwt>0</asrwt>
<pdfrwt beam="1">  1       21 0.83402514E-02 0.78518747E+02</pdfrwt>
<pdfrwt beam="2">  1       21 0.31562409E-01 0.78518747E+02</pdfrwt>
<totfact> 0.10683487E+06</totfact>
</mgrwt>
</event>
<event>
 5    1  0.1745726E+000  0.7817420E+02  0.7546771E-02  0.1334314E+00
         21   -1    0    0  501  502  0.00000000000E+00  0.00000000000E+00  0.55726529129E+03  0.55726529129E+03  0.00000000000E+00 0.  1.
         21   -1    0    0  502  503 -0.00000000000E+00 -0.00000000000E+00 -0.10221580222E+03  0.10221580222E+03  0.00000000000E+00 0.  1.
         24    1    1    2    0    0  0.20391333190E+02 -0.31159988194E+02  0.15590941623E+03  0.17933687115E+03  0.80419002446E+02 0.  1.
          1    1    1    2  501    0 -0.49046994989E+01  0.46009483869E+02  0.38697262724E+03  0.38972906348E+03  0.00000000000E+00 0. -1.
         -2    1    1    2    0  503 -0.15486633691E+02 -0.14849495675E+02 -0.87832554392E+02  0.90415158884E+02  0.00000000000E+00 0.  1.
<mgrwt>
<rscale>  2 0.78174198E+02</rscale>
<asrwt>0</asrwt>
<pdfrwt beam="1">  1       21 0.85733119E-01 0.78174198E+02</pdfrwt>
<pdfrwt beam="2">  1       21 0.15725508E-01 0.78174198E+02</pdfrwt>
<totfact> 0.45436380E+04</totfact>
</mgrwt>
</event>
<event>
 5    1  0.1745726E+000  0.1017840E+03  0.7546771E-02  0.1276589E+00
         21   -1    0    0  501  502  0.00000000000E+00  0.00000000000E+00  0.43390004707E+02  0.43390004707E+02  0.00000000000E+00 0. -1.
         21   -1    0    0  502  503 -0.00000000000E+00 -0.00000000000E+00 -0.35767790508E+03  0.35767790508E+03  0.00000000000E+00 0.  1.
         24    1    1    2    0    0 -0.20069349672E+02  0.61077184399E+02 -0.25029754564E+03  0.27064603925E+03  0.80419002446E+02 0.  0.
          1    1    1    2  501    0  0.50000574144E+02 -0.39217052444E+02 -0.91059121744E+01  0.64194643497E+02  0.00000000000E+00 0. -1.
         -2    1    1    2    0  503 -0.29931224473E+02 -0.21860131955E+02 -0.54884442560E+02  0.66227227049E+02  0.00000000000E+00 0.  1.
<mgrwt>
<rscale>  2 0.10178395E+03</rscale>
<asrwt>0</asrwt>
<pdfrwt beam="1">  1       21 0.66753855E-02 0.10178395E+03</pdfrwt>
<pdfrwt beam="2">  1       21 0.55027369E-01 0.10178395E+03</pdfrwt>
<totfact> 0.51704902E+05</totfact>
</mgrwt>
</event>
<event>
 5    1  0.1745726E+000  0.6437350E+02  0.7546771E-02  0.1380344E+00
         21   -1    0    0  501  502  0.00000000000E+00  0.00000000000E+00  0.12998052011E+03  0.12998052011E+03  0.00000000000E+00 0.  1.
         21   -1    0    0  502  503 -0.00000000000E+00 -0.00000000000E+00 -0.56873195017E+02  0.56873195017E+02  0.00000000000E+00 0.  1.
         24    1    1    2    0    0  0.24854721821E+01  0.32658566521E+01 -0.11043212491E+02  0.81277376238E+02  0.80419002446E+02 0.  0.
          1    1    1    2  501    0 -0.16203388937E+01  0.22442253947E+02  0.74955068435E+02  0.78259456581E+02  0.00000000000E+00 0. -1.
         -2    1    1    2    0  503 -0.86513328842E+00 -0.25708110599E+02  0.91954691531E+01  0.27316882310E+02  0.00000000000E+00 0.  1.
<mgrwt>
<rscale>  2 0.64373496E+02</rscale>
<asrwt>0</asrwt>
<pdfrwt beam="1">  1       21 0.19997003E-01 0.64373496E+02</pdfrwt>
<pdfrwt beam="2">  1       21 0.87497223E-02 0.64373496E+02</pdfrwt>
<totfact> 0.22824899E+06</totfact>
</mgrwt>
</event>
<event>
 5    1  0.1745726E+000  0.7329549E+02  0.7546771E-02  0.1349232E+00
         21   -1    0    0  501  502  0.00000000000E+00  0.00000000000E+00  0.35250342448E+02  0.35250342448E+02  0.00000000000E+00 0.  1.
         21   -1    0    0  502  503 -0.00000000000E+00 -0.00000000000E+00 -0.40446579674E+03  0.40446579674E+03  0.00000000000E+00 0.  1.
         24    1    1    2    0    0 -0.25907271790E+02 -0.33918407008E+01 -0.41041768210E+02  0.93991137918E+02  0.80419002446E+02 0.  1.
          1    1    1    2  501    0 -0.14802518732E+02  0.13558738703E+02 -0.61723251660E+01  0.21001227440E+02  0.00000000000E+00 0. -1.
         -2    1    1    2    0  503  0.40709790522E+02 -0.10166898002E+02 -0.32200136092E+03  0.32472377383E+03  0.00000000000E+00 0.  1.
<mgrwt>
<rscale>  2 0.73295486E+02</rscale>
<asrwt>0</asrwt>
<pdfrwt beam="1">  1       21 0.54231296E-02 0.73295486E+02</pdfrwt>
<pdfrwt beam="2">  1       21 0.62225507E-01 0.73295486E+02</pdfrwt>
<totfact> 0.56675415E+05</totfact>
</mgrwt>
</event>
<event>
 5    1  0.1745726E+000  0.8613446E+02  0.7546771E-02  0.1312492E+00
         21   -1    0    0  501  502  0.00000000000E+00  0.00000000000E+00  0.72599684801E+03  0.72599684801E+03  0.00000000000E+00 0. -1.
         21   -1    0    0  502  503 -0.00000000000E+00 -0.00000000000E+00 -0.11340764201E+02  0.11340764201E+02  0.00000000000E+00 0. -1.
         24    1    1    2    0    0  0.25241502795E+02 -0.57270474673E+02  0.32339775672E+03  0.33907280300E+03  0.80419002446E+02 0. -1.
          1    1    1    2  501    0  0.16014363485E+01  0.36214259054E+02  0.26541624291E+03  0.26788023286E+03  0.00000000000E+00 0. -1.
         -2    1    1    2    0  503 -0.26842939144E+02  0.21056215619E+02  0.12584208419E+03  0.13038457635E+03  0.00000000000E+00 0.  1.
<mgrwt>
<rscale>  2 0.86134457E+02</rscale>
<asrwt>0</asrwt>
<pdfrwt beam="1">  1       21 0.11169179E+00 0.86134457E+02</pdfrwt>
<pdfrwt beam="2">  1       21 0.17447335E-02 0.86134457E+02</pdfrwt>
<totfact> 0.97402520E+05</totfact>
</mgrwt>
</event>
<event>
 5    1  0.1745726E+000  0.1483978E+03  0.7546771E-02  0.1202456E+00
         21   -1    0    0  501  502  0.00000000000E+00  0.00000000000E+00  0.27550259789E+02  0.27550259789E+02  0.00000000000E+00 0.  1.
         21   -1    0    0  502  503 -0.00000000000E+00 -0.00000000000E+00 -0.80190412794E+03  0.80190412794E+03  0.00000000000E+00 0.  1.
         24    1    1    2    0    0  0.10543642886E+03 -0.51404681169E+02 -0.34941336181E+03  0.37724818773E+03  0.80419002446E+02 0.  1.
          1    1    1    2  501    0  0.20165279636E+02  0.64596586448E+01 -0.53598067779E+02  0.57629146812E+02  0.00000000000E+00 0. -1.
         -2    1    1    2    0  503 -0.12560170850E+03  0.44945022524E+02 -0.37134243856E+03  0.39457705319E+03  0.00000000000E+00 0.  1.
<mgrwt>
<rscale>  2 0.14839780E+03</rscale>
<asrwt>0</asrwt>
<pdfrwt beam="1">  1       21 0.42385015E-02 0.14839780E+03</pdfrwt>
<pdfrwt beam="2">  1       21 0.12336987E+00 0.14839780E+03</pdfrwt>
<totfact> 0.17816006E+05</totfact>
</mgrwt>
</event>
<event>
 5    1  0.1745726E+000  0.1264769E+03  0.7546771E-02  0.1232779E+00
         21   -1    0    0  501  502  0.00000000000E+00  0.00000000000E+00  0.24781936192E+03  0.24781936192E+03  0.00000000000E+00 0. -1.
         21   -1    0    0  502  503 -0.00000000000E+00 -0.00000000000E+00 -0.28975526969E+03  0.28975526969E+03  0.00000000000E+00 0. -1.
         24    1    1    2    0    0  0.11919049518E+02 -0.70467814796E+02 -0.15697055543E+03  0.19030172855E+03  0.80419002446E+02 0. -1.
          1    1    1    2  501    0  0.35018893093E+02  0.88428194180E+02  0.21515917306E+03  0.23524314688E+03  0.00000000000E+00 0. -1.
         -2    1    1    2    0  503 -0.46937942611E+02 -0.17960379383E+02 -0.10012452540E+03  0.11202975618E+03  0.00000000000E+00 0.  1.
<mgrwt>
<rscale>  2 0.12647685E+03</rscale>
<asrwt>0</asrwt>
<pdfrwt beam="1">  1       21 0.38126056E-01 0.12647685E+03</pdfrwt>
<pdfrwt beam="2">  1       21 0.44577734E-01 0.12647685E+03</pdfrwt>
<totfact> 0.33283365E+04</totfact>
</mgrwt>
</event>
<event>
 5    1  0.1745726E+000  0.1008762E+03  0.7546771E-02  0.1278464E+00
         21   -1    0    0  503  502  0.00000000000E+00  0.00000000000E+00  0.27657557036E+03  0.27657557036E+03  0.00000000000E+00 0.  1.
         21   -1    0    0  501  503 -0.00000000000E+00 -0.00000000000E+00 -0.67249977894E+02  0.67249977894E+02  0.00000000000E+00 0. -1.
         24    1    1    2    0    0 -0.60773637102E+02  0.45828385968E+02  0.10279588598E+03  0.15108900044E+03  0.80419002446E+02 0. -1.
          1    1    1    2  501    0  0.25992972350E+02 -0.49641010896E+02 -0.21495664361E+02  0.60016065854E+02  0.00000000000E+00 0. -1.
         -2    1    1    2    0  502  0.34780664752E+02  0.38126249277E+01  0.12802537085E+03  0.13272048195E+03  0.00000000000E+00 0.  1.
<mgrwt>
<rscale>  2 0.10087621E+03</rscale>
<asrwt>0</asrwt>
<pdfrwt beam="1">  1       21 0.42550087E-01 0.10087621E+03</pdfrwt>
<pdfrwt beam="2">  1       21 0.10346151E-01 0.10087621E+03</pdfrwt>
<totfact> 0.41154162E+05</totfact>
</mgrwt>
</event>
<event>
 5    1  0.1745726E+000  0.8145822E+02  0.7546771E-02  0.1324963E+00
         21   -1    0    0  501  502  0.00000000000E+00  0.00000000000E+00  0.58749171433E+03  0.58749171433E+03  0.00000000000E+00 0. -1.
         21   -1    0    0  502  503 -0.00000000000E+00 -0.00000000000E+00 -0.15072555525E+02  0.15072555525E+02  0.00000000000E+00 0.  1.
         24    1    1    2    0    0 -0.32861306441E+01  0.34096037213E+01  0.43098996089E+03  0.43845408699E+03  0.80419002446E+02 0.  0.
          1    1    1    2  501    0 -0.13290488121E+02 -0.40020327741E+02  0.84329649550E+02  0.94285489341E+02  0.00000000000E+00 0. -1.
         -2    1    1    2    0  503  0.16576618765E+02  0.36610724020E+02  0.57099548363E+02  0.69824693527E+02  0.00000000000E+00 0.  1.
<mgrwt>
<rscale>  2 0.81458219E+02</rscale>
<asrwt>0</asrwt>
<pdfrwt beam="1">  1       21 0.90383323E-01 0.81458219E+02</pdfrwt>
<pdfrwt beam="2">  1       21 0.23188552E-02 0.81458219E+02</pdfrwt>
<totfact> 0.10077123E+06</totfact>
</mgrwt>
</event>
<event>
 5    1  0.1745726E+000  0.7721176E+02  0.7546771E-02  0.1337156E+00
         21   -1    0    0  503  502  0.00000000000E+00  0.00000000000E+00  0.43159707685E+01  0.43159707685E+01  0.00000000000E+00 0. -1.
         21   -1    0    0  501  503 -0.00000000000E+00 -0.00000000000E+00 -0.15698099734E+04  0.15698099734E+04  0.00000000000E+00 0.  1.
         24    1    1    2    0    0  0.32515644730E+02  0.41118762775E+02 -0.83150736354E+03  0.83703030493E+03  0.80419002446E+02 0. -1.
          1    1    1    2  501    0 -0.28861156917E+02 -0.15911432052E+02 -0.58654122836E+03  0.58746638425E+03  0.00000000000E+00 0. -1.
         -2    1    1    2    0  502 -0.36544878137E+01 -0.25207330723E+02 -0.14744541073E+03  0.14962925499E+03  0.00000000000E+00 0.  1.
<mgrwt>
<rscale>  2 0.77211760E+02</rscale>
<asrwt>0</asrwt>
<pdfrwt beam="1">  1       21 0.66399600E-03 0.77211760E+02</pdfrwt>
<pdfrwt beam="2">  1       21 0.24150905E+00 0.77211760E+02</pdfrwt>
<totfact> 0.57167591E+05</totfact>
</mgrwt>
</event>
<event>
 5    1  0.1745726E+000  0.6935126E+02  0.7546771E-02  0.1362313E+00
         21   -1    0    0  501  502  0.00000000000E+00  0.00000000000E+00  0.54175366900E+03  0.54175366900E+03  0.00000000000E+00 0. -1.
         21   -1    0    0  502  503 -0.00000000000E+00 -0.00000000000E+00 -0.13308577503E+02  0.13308577503E+02  0.00000000000E+00 0. -1.
         24    1    1    2    0    0  0.24980974977E+02 -0.13472834688E+02  0.19446728829E+03  0.21234478697E+03  0.80419002446E+02 0. -1.
          1    1    1    2  501    0  0.25384908193E+01  0.23869440783E+02  0.28178083596E+03  0.28280140320E+03  0.00000000000E+00 0. -1.
         -2    1    1    2    0  503 -0.27519465796E+02 -0.10396606095E+02  0.52196967245E+02  0.59916056325E+02  0.00000000000E+00 0.  1.
<mgrwt>
<rscale>  2 0.69351256E+02</rscale>
<asrwt>0</asrwt>
<pdfrwt beam="1">  1       21 0.83346701E-01 0.69351256E+02</pdfrwt>
<pdfrwt beam="2">  1       21 0.20474739E-02 0.69351256E+02</pdfrwt>
<totfact> 0.14677420E+06</totfact>
</mgrwt>
</event>
<event>
 5    1  0.1745726E+000  0.7860833E+02  0.7546771E-02  0.1333048E+00
         21   -1    0    0  501  502  0.00000000000E+00  0.00000000000E+00  0.74847322694E+02  0.74847322694E+02  0.00000000000E+00 0. -1.
         21   -1    0    0  502  503 -0.00000000000E+00 -0.00000000000E+00 -0.15777286060E+03  0.15777286060E+03  0.00000000000E+00 0.  1.
         24    1    1    2    0    0 -0.27388112653E+02 -0.20274824845E+02 -0.57469220355E+02  0.10455192241E+03  0.80419002446E+02 0.  0.
          1    1    1    2  501    0  0.15556521297E+02 -0.21454959408E+02  0.40934579084E+02  0.48764335358E+02  0.00000000000E+00 0. -1.
         -2    1    1    2    0  503  0.11831591356E+02  0.41729784253E+02 -0.66390896632E+02  0.79303925524E+02  0.00000000000E+00 0.  1.
<mgrwt>
<rscale>  2 0.78608335E+02</rscale>
<asrwt>0</asrwt>
<pdfrwt beam="1">  1       21 0.11514973E-01 0.78608335E+02</pdfrwt>
<pdfrwt beam="2">  1       21 0.24272748E-01 0.78608335E+02</pdfrwt>
<totfact> 0.10050667E+06</totfact>
</mgrwt>
</event>
<event>
 5    1  0.1745726E+000  0.1343040E+03  0.7546771E-02  0.1221206E+00
         21   -1    0    0  501  502  0.00000000000E+00  0.00000000000E+00  0.11049923499E+03  0.11049923499E+03  0.00000000000E+00 0. -1.
         21   -1    0    0  502  503 -0.00000000000E+00 -0.00000000000E+00 -0.62134104182E+03  0.62134104182E+03  0.00000000000E+00 0. -1.
         24    1    1    2    0    0 -0.35942333581E+02 -0.84404164657E+02 -0.38193599325E+03  0.40094667133E+03  0.80419002446E+02 0. -1.
          1    1    1    2  501    0 -0.26321947080E+02 -0.14265182357E+02  0.83416630569E+02  0.88626601995E+02  0.00000000000E+00 0. -1.
         -2    1    1    2    0  503  0.62264280660E+02  0.98669347014E+02 -0.21232244414E+03  0.24226700348E+03  0.00000000000E+00 0.  1.
<mgrwt>
<rscale>  2 0.13430396E+03</rscale>
<asrwt>0</asrwt>
<pdfrwt beam="1">  1       21 0.16999882E-01 0.13430396E+03</pdfrwt>
<pdfrwt beam="2">  1       21 0.95590929E-01 0.13430396E+03</pdfrwt>
<totfact> 0.29505019E+04</totfact>
</mgrwt>
</event>
<event>
 5    1  0.1745726E+000  0.8932140E+02  0.7546771E-02  0.1304503E+00
         21   -1    0    0  503  502  0.00000000000E+00  0.00000000000E+00  0.53725724913E+01  0.53725724913E+01  0.00000000000E+00 0.  1.
         21   -1    0    0  501  503 -0.00000000000E+00 -0.00000000000E+00 -0.17367226270E+04  0.17367226270E+04  0.00000000000E+00 0.  1.
         24    1    1    2    0    0  0.18716178960E+01  0.65635112497E+02 -0.70383155541E+03  0.71144750002E+03  0.80419002446E+02 0.  1.
          1    1    1    2  501    0  0.16586366302E+02 -0.22939934602E+02 -0.58656659788E+03  0.58724928428E+03  0.00000000000E+00 0. -1.
         -2    1    1    2    0  502 -0.18457984198E+02 -0.42695177894E+02 -0.44095190126E+03  0.44339841522E+03  0.00000000000E+00 0.  1.
<mgrwt>
<rscale>  2 0.89321399E+02</rscale>
<asrwt>0</asrwt>
<pdfrwt beam="1">  1       21 0.82654936E-03 0.89321399E+02</pdfrwt>
<pdfrwt beam="2">  1       21 0.26718818E+00 0.89321399E+02</pdfrwt>
<totfact> 0.29010826E+05</totfact>
</mgrwt>
</event>
<event>
 5    1  0.1745726E+000  0.1169330E+03  0.7546771E-02  0.1248244E+00
         21   -1    0    0  501  502  0.00000000000E+00  0.00000000000E+00  0.70316604511E+01  0.70316604511E+01  0.00000000000E+00 0. -1.
         21   -1    0    0  502  503 -0.00000000000E+00 -0.00000000000E+00 -0.21518314279E+04  0.21518314279E+04  0.00000000000E+00 0. -1.
         24    1    1    2    0    0 -0.74865073376E+02  0.52782008442E+01 -0.13007445294E+04  0.13053873698E+04  0.80419002446E+02 0. -1.
          1    1    1    2  501    0  0.66414726625E+02 -0.46958113982E+02 -0.46710117026E+03  0.47413023911E+03  0.00000000000E+00 0. -1.
         -2    1    1    2    0  503  0.84503467514E+01  0.41679913138E+02 -0.37695406775E+03  0.37934547936E+03  0.00000000000E+00 0.  1.
<mgrwt>
<rscale>  2 0.11693297E+03</rscale>
<asrwt>0</asrwt>
<pdfrwt beam="1">  1       21 0.10817954E-02 0.11693297E+03</pdfrwt>
<pdfrwt beam="2">  1       21 0.33105054E+00 0.11693297E+03</pdfrwt>
<totfact> 0.81307750E+04</totfact>
</mgrwt>
</event>
<event>
 5    1  0.1745726E+000  0.7136247E+02  0.7546771E-02  0.1355520E+00
         21   -1    0    0  503  502  0.00000000000E+00  0.00000000000E+00  0.42520756876E+03  0.42520756876E+03  0.00000000000E+00 0. -1.
         21   -1    0    0  501  503 -0.00000000000E+00 -0.00000000000E+00 -0.20550000250E+02  0.20550000250E+02  0.00000000000E+00 0. -1.
         24    1    1    2    0    0 -0.17929635987E+02  0.26977735511E+01  0.19609396617E+03  0.21271767522E+03  0.80419002446E+02 0. -1.
          1    1    1    2  501    0  0.34339495309E+02  0.13808625152E+02  0.18174574309E+02  0.41233411428E+02  0.00000000000E+00 0. -1.
         -2    1    1    2    0  502 -0.16409859322E+02 -0.16506398704E+02  0.19038902803E+03  0.19180648236E+03  0.00000000000E+00 0.  1.
<mgrwt>
<rscale>  2 0.71362467E+02</rscale>
<asrwt>0</asrwt>
<pdfrwt beam="1">  1       21 0.65416542E-01 0.71362467E+02</pdfrwt>
<pdfrwt beam="2">  1       21 0.31615388E-02 0.71362467E+02</pdfrwt>
<totfact> 0.12348567E+06</totfact>
</mgrwt>
</event>
<event>
 5    1  0.1745726E+000  0.9793874E+02  0.7546771E-02  0.1284691E+00
         21   -1    0    0  503  502  0.00000000000E+00  0.00000000000E+00  0.19712943065E+03  0.19712943065E+03  0.00000000000E+00 0. -1.
         21   -1    0    0  501  503 -0.00000000000E+00 -0.00000000000E+00 -0.59866375345E+02  0.59866375345E+02  0.00000000000E+00 0. -1.
         24    1    1    2    0    0 -0.51259259072E+02  0.56531662783E+02  0.45183635106E+02  0.11971682160E+03  0.80419002446E+02 0. -1.
          1    1    1    2  501    0  0.31087885098E+02 -0.56901324593E+02  0.28959317646E+02  0.71013093291E+02  0.00000000000E+00 0. -1.
         -2    1    1    2    0  502  0.20171373974E+02  0.36966180949E+00  0.63120102552E+02  0.66265891105E+02  0.00000000000E+00 0.  1.
<mgrwt>
<rscale>  2 0.97938740E+02</rscale>
<asrwt>0</asrwt>
<pdfrwt beam="1">  1       21 0.30327604E-01 0.97938740E+02</pdfrwt>
<pdfrwt beam="2">  1       21 0.92102117E-02 0.97938740E+02</pdfrwt>
<totfact> 0.97693782E+05</totfact>
</mgrwt>
</event>
<event>
 5    1  0.1745726E+000  0.1137668E+03  0.7546771E-02  0.1253749E+00
         21   -1    0    0  503  502  0.00000000000E+00  0.00000000000E+00  0.17225915130E+03  0.17225915130E+03  0.00000000000E+00 0.  1.
         21   -1    0    0  501  503 -0.00000000000E+00 -0.00000000000E+00 -0.89245068393E+02  0.89245068393E+02  0.00000000000E+00 0. -1.
         24    1    1    2    0    0  0.44958704994E+02 -0.24106775203E+02  0.44135130713E+02  0.10496450582E+03  0.80419002446E+02 0.  1.
          1    1    1    2  501    0  0.22427011865E+02  0.54081417781E+02 -0.20314470311E+02  0.61971350755E+02  0.00000000000E+00 0. -1.
         -2    1    1    2    0  502 -0.67385716858E+02 -0.29974642578E+02  0.59193422504E+02  0.94568363113E+02  0.00000000000E+00 0.  1.
<mgrwt>
<rscale>  2 0.11376676E+03</rscale>
<asrwt>0</asrwt>
<pdfrwt beam="1">  1       21 0.26501408E-01 0.11376676E+03</pdfrwt>
<pdfrwt beam="2">  1       21 0.13730011E-01 0.11376676E+03</pdfrwt>
<totfact> 0.62767127E+05</totfact>
</mgrwt>
</event>
<event>
 5    1  0.1745726E+000  0.1737767E+03  0.7546771E-02  0.1173966E+00
         21   -1    0    0  501  502  0.00000000000E+00  0.00000000000E+00  0.11307866128E+03  0.11307866128E+03  0.00000000000E+00 0. -1.
         21   -1    0    0  502  503 -0.00000000000E+00 -0.00000000000E+00 -0.33753793833E+03  0.33753793833E+03  0.00000000000E+00 0. -1.
         24    1    1    2    0    0  0.29576650110E+02 -0.12010024559E+03 -0.18739867774E+03  0.23850435551E+03  0.80419002446E+02 0. -1.
          1    1    1    2  501    0  0.64482568301E+02  0.36030796666E+02  0.15452340570E+02  0.75465189009E+02  0.00000000000E+00 0. -1.
         -2    1    1    2    0  503 -0.94059218411E+02  0.84069448927E+02 -0.52512939888E+02  0.13664705510E+03  0.00000000000E+00 0.  1.
<mgrwt>
<rscale>  2 0.17377670E+03</rscale>
<asrwt>0</asrwt>
<pdfrwt beam="1">  1       21 0.17396717E-01 0.17377670E+03</pdfrwt>
<pdfrwt beam="2">  1       21 0.51928913E-01 0.17377670E+03</pdfrwt>
<totfact> 0.10601043E+05</totfact>
</mgrwt>
</event>
<event>
 5    1  0.1745726E+000  0.6662110E+02  0.7546771E-02  0.1371975E+00
         21   -1    0    0  503  502  0.00000000000E+00  0.00000000000E+00  0.26801567095E+02  0.26801567095E+02  0.00000000000E+00 0. -1.
         21   -1    0    0  501  503 -0.00000000000E+00 -0.00000000000E+00 -0.36719386283E+03  0.36719386283E+03  0.00000000000E+00 0. -1.
         24    1    1    2    0    0 -0.49173320084E+01  0.13098203303E+02 -0.10457023876E+03  0.13265705361E+03  0.80419002446E+02 0. -1.
          1    1    1    2  501    0  0.24487682921E+02  0.49616156127E+01 -0.23325011801E+03  0.23458448754E+03  0.00000000000E+00 0. -1.
         -2    1    1    2    0  502 -0.19570350913E+02 -0.18059818915E+02 -0.25719389594E+01  0.26753888766E+02  0.00000000000E+00 0.  1.
<mgrwt>
<rscale>  2 0.66621104E+02</rscale>
<asrwt>0</asrwt>
<pdfrwt beam="1">  1       21 0.41233183E-02 0.66621104E+02</pdfrwt>
<pdfrwt beam="2">  1       21 0.56491359E-01 0.66621104E+02</pdfrwt>
<totfact> 0.10867966E+06</totfact>
</mgrwt>
</event>
<event>
 5    1  0.1745726E+000  0.1473524E+03  0.7546771E-02  0.1203765E+00
         21   -1    0    0  501  502  0.00000000000E+00  0.00000000000E+00  0.10159829465E+02  0.10159829465E+02  0.00000000000E+00 0.  1.
         21   -1    0    0  502  503 -0.00000000000E+00 -0.00000000000E+00 -0.26424536469E+04  0.26424536469E+04  0.00000000000E+00 0. -1.
         24    1    1    2    0    0 -0.45491843522E+02  0.68944450604E+02 -0.57458313215E+03  0.58603398946E+03  0.80419002446E+02 0.  0.
          1    1    1    2  501    0 -0.38425709893E+02 -0.85634970965E+02 -0.71330582042E+03  0.71945470801E+03  0.00000000000E+00 0. -1.
         -2    1    1    2    0  503  0.83917553415E+02  0.16690520361E+02 -0.13444048649E+04  0.13471247789E+04  0.00000000000E+00 0.  1.
<mgrwt>
<rscale>  2 0.14735238E+03</rscale>
<asrwt>0</asrwt>
<pdfrwt beam="1">  1       21 0.15630497E-02 0.14735238E+03</pdfrwt>
<pdfrwt beam="2">  1       21 0.40653158E+00 0.14735238E+03</pdfrwt>
<totfact> 0.15513233E+04</totfact>
</mgrwt>
</event>
<event>
 5    1  0.1745726E+000  0.7900509E+02  0.7546771E-02  0.1331899E+00
         21   -1    0    0  503  502  0.00000000000E+00  0.00000000000E+00  0.21490550419E+02  0.21490550419E+02  0.00000000000E+00 0. -1.
         21   -1    0    0  501  503 -0.00000000000E+00 -0.00000000000E+00 -0.37034522337E+03  0.37034522337E+03  0.00000000000E+00 0. -1.
         24    1    1    2    0    0  0.12638416822E+02 -0.55650888230E+02 -0.12269065080E+03  0.15740699695E+03  0.80419002446E+02 0. -1.
          1    1    1    2  501    0 -0.13156645479E+02  0.21236528220E+02 -0.12775246861E+03  0.13017211947E+03  0.00000000000E+00 0. -1.
         -2    1    1    2    0  502  0.51822865673E+00  0.34414360011E+02 -0.98411553532E+02  0.10425665736E+03  0.00000000000E+00 0.  1.
<mgrwt>
<rscale>  2 0.79005090E+02</rscale>
<asrwt>0</asrwt>
<pdfrwt beam="1">  1       21 0.33062383E-02 0.79005090E+02</pdfrwt>
<pdfrwt beam="2">  1       21 0.56976191E-01 0.79005090E+02</pdfrwt>
<totfact> 0.15386086E+06</totfact>
</mgrwt>
</event>
<event>
 5    1  0.1745726E+000  0.7950276E+02  0.7546771E-02  0.1330468E+00
         21   -1    0    0  501  502  0.00000000000E+00  0.00000000000E+00  0.22709254258E+04  0.22709254258E+04  0.00000000000E+00 0.  1.
         21   -1    0    0  502  503 -0.00000000000E+00 -0.00000000000E+00 -0.40984855585E+02  0.40984855585E+02  0.00000000000E+00 0.  1.
         24    1    1    2    0    0  0.40011809005E+02  0.14107897498E+01  0.16121641876E+04  0.16146651414E+04  0.80419002446E+02 0.  1.
          1    1    1    2  501    0 -0.25745042713E+02  0.27045023999E+02  0.65051300655E+03  0.65158377223E+03  0.00000000000E+00 0. -1.
         -2    1    1    2    0  503 -0.14266766292E+02 -0.28455813749E+02 -0.32736623934E+02  0.45661367731E+02  0.00000000000E+00 0.  1.
<mgrwt>
<rscale>  2 0.79502757E+02</rscale>
<asrwt>0</asrwt>
<pdfrwt beam="1">  1       21 0.34937304E+00 0.79502757E+02</pdfrwt>
<pdfrwt beam="2">  1       21 0.63053642E-02 0.79502757E+02</pdfrwt>
<totfact> 0.39864010E+03</totfact>
</mgrwt>
</event>
<event>
 5    1  0.1745726E+000  0.6856983E+02  0.7546771E-02  0.1365025E+00
         21   -1    0    0  503  502  0.00000000000E+00  0.00000000000E+00  0.53311042211E+02  0.53311042211E+02  0.00000000000E+00 0.  1.
         21   -1    0    0  501  503 -0.00000000000E+00 -0.00000000000E+00 -0.33783647006E+03  0.33783647006E+03  0.00000000000E+00 0. -1.
         24    1    1    2    0    0 -0.21322283606E+02  0.23029275913E+02 -0.18836398060E+03  0.20720326365E+03  0.80419002446E+02 0. -1.
          1    1    1    2  501    0 -0.47437107142E+01 -0.24259078801E+02 -0.13494987177E+03  0.13719502027E+03  0.00000000000E+00 0. -1.
         -2    1    1    2    0  502  0.26065994320E+02  0.12298028884E+01  0.38788424517E+02  0.46749228352E+02  0.00000000000E+00 0.  1.
<mgrwt>
<rscale>  2 0.68569832E+02</rscale>
<asrwt>0</asrwt>
<pdfrwt beam="1">  1       21 0.82016989E-02 0.68569832E+02</pdfrwt>
<pdfrwt beam="2">  1       21 0.51974841E-01 0.68569832E+02</pdfrwt>
<totfact> 0.41048145E+05</totfact>
</mgrwt>
</event>
<event>
 5    1  0.1745726E+000  0.6592654E+02  0.7546771E-02  0.1374520E+00
         21   -1    0    0  503  502  0.00000000000E+00  0.00000000000E+00  0.84885896878E+03  0.84885896878E+03  0.00000000000E+00 0.  1.
         21   -1    0    0  501  503 -0.00000000000E+00 -0.00000000000E+00 -0.93393472403E+01  0.93393472403E+01  0.00000000000E+00 0.  1.
         24    1    1    2    0    0  0.18713367714E+02  0.30465082889E+02  0.25142112758E+03  0.26637963653E+03  0.80419002446E+02 0.  1.
          1    1    1    2  501    0  0.17567570484E+01 -0.21374429615E+02  0.69432101862E+02  0.72668901228E+02  0.00000000000E+00 0. -1.
         -2    1    1    2    0  502 -0.20470124762E+02 -0.90906532745E+01  0.51866639209E+03  0.51914977827E+03  0.00000000000E+00 0.  1.
<mgrwt>
<rscale>  2 0.65926540E+02</rscale>
<asrwt>0</asrwt>
<pdfrwt beam="1">  1       21 0.13059363E+00 0.65926540E+02</pdfrwt>
<pdfrwt beam="2">  1       21 0.14368233E-02 0.65926540E+02</pdfrwt>
<totfact> 0.90881384E+05</totfact>
</mgrwt>
</event>
<event>
 5    1  0.1745726E+000  0.7881820E+02  0.7546771E-02  0.1332439E+00
         21   -1    0    0  501  502  0.00000000000E+00  0.00000000000E+00  0.53576397042E+03  0.53576397042E+03  0.00000000000E+00 0.  1.
         21   -1    0    0  502  503 -0.00000000000E+00 -0.00000000000E+00 -0.13375684280E+02  0.13375684280E+02  0.00000000000E+00 0. -1.
         24    1    1    2    0    0 -0.42925349691E+00  0.49933989760E+02  0.33050308027E+03  0.34379221867E+03  0.80419002446E+02 0.  0.
          1    1    1    2  501    0 -0.17247657311E+02 -0.37756501081E+02  0.16878198678E+03  0.17381137511E+03  0.00000000000E+00 0. -1.
         -2    1    1    2    0  503  0.17676910808E+02 -0.12177488679E+02  0.23103219088E+02  0.31536060922E+02  0.00000000000E+00 0.  1.
<mgrwt>
<rscale>  2 0.78818201E+02</rscale>
<asrwt>0</asrwt>
<pdfrwt beam="1">  1       21 0.82425210E-01 0.78818201E+02</pdfrwt>
<pdfrwt beam="2">  1       21 0.20577980E-02 0.78818201E+02</pdfrwt>
<totfact> 0.14977509E+06</totfact>
</mgrwt>
</event>
<event>
 5    1  0.1745726E+000  0.6722429E+02  0.7546771E-02  0.1369795E+00
         21   -1    0    0  503  502  0.00000000000E+00  0.00000000000E+00  0.99344760761E+01  0.99344760761E+01  0.00000000000E+00 0. -1.
         21   -1    0    0  501  503 -0.00000000000E+00 -0.00000000000E+00 -0.49734383417E+03  0.49734383417E+03  0.00000000000E+00 0.  1.
         24    1    1    2    0    0  0.20520070386E+02  0.28069759493E+02 -0.31924576994E+03  0.33104993923E+03  0.80419002446E+02 0.  0.
          1    1    1    2  501    0  0.41615608041E+01 -0.20645262916E+02 -0.11763990610E+03  0.11951022122E+03  0.00000000000E+00 0. -1.
         -2    1    1    2    0  502 -0.24681631190E+02 -0.74244965764E+01 -0.50523682056E+02  0.56718149795E+02  0.00000000000E+00 0.  1.
<mgrwt>
<rscale>  2 0.67224292E+02</rscale>
<asrwt>0</asrwt>
<pdfrwt beam="1">  1       21 0.15283810E-02 0.67224292E+02</pdfrwt>
<pdfrwt beam="2">  1       21 0.76514434E-01 0.67224292E+02</pdfrwt>
<totfact> 0.28065578E+06</totfact>
</mgrwt>
</event>
<event>
 5    1  0.1745726E+000  0.7393128E+02  0.7546771E-02  0.1347213E+00
         21   -1    0    0  501  502  0.00000000000E+00  0.00000000000E+00  0.14420610940E+03  0.14420610940E+03  0.00000000000E+00 0.  1.
         21   -1    0    0  502  503 -0.00000000000E+00 -0.00000000000E+00 -0.11147968290E+03  0.11147968290E+03  0.00000000000E+00 0.  1.
         24    1    1    2    0    0 -0.15834810732E+01  0.15615317153E+02  0.68565990338E+02  0.10684033193E+03  0.80419002446E+02 0.  1.
          1    1    1    2  501    0 -0.21082489800E+02  0.16392656030E+02  0.48761300714E+02  0.55595458405E+02  0.00000000000E+00 0. -1.
         -2    1    1    2    0  503  0.22665970874E+02 -0.32007973184E+02 -0.84600864551E+02  0.93250001961E+02  0.00000000000E+00 0.  1.
<mgrwt>
<rscale>  2 0.73931284E+02</rscale>
<asrwt>0</asrwt>
<pdfrwt beam="1">  1       21 0.22185555E-01 0.73931284E+02</pdfrwt>
<pdfrwt beam="2">  1       21 0.17150720E-01 0.73931284E+02</pdfrwt>
<totfact> 0.58620271E+05</totfact>
</mgrwt>
</event>
<event>
 5    1  0.1745726E+000  0.1158398E+03  0.7546771E-02  0.1250122E+00
         21   -1    0    0  503  502  0.00000000000E+00  0.00000000000E+00  0.27636836481E+03  0.27636836481E+03  0.00000000000E+00 0. -1.
         21   -1    0    0  501  503 -0.00000000000E+00 -0.00000000000E+00 -0.57453088520E+02  0.57453088520E+02  0.00000000000E+00 0. -1.
         24    1    1    2    0    0  0.88306212565E+02  0.10625337909E+02  0.16617550119E+03  0.20492046783E+03  0.80419002446E+02 0. -1.
          1    1    1    2  501    0 -0.30698444945E+02 -0.37282245696E+02  0.32350162692E+01  0.48402744720E+02  0.00000000000E+00 0. -1.
         -2    1    1    2    0  502 -0.57607767620E+02  0.26656907788E+02  0.49504758833E+02  0.80498240788E+02  0.00000000000E+00 0.  1.
<mgrwt>
<rscale>  2 0.11583979E+03</rscale>
<asrwt>0</asrwt>
<pdfrwt beam="1">  1       21 0.42518209E-01 0.11583979E+03</pdfrwt>
<pdfrwt beam="2">  1       21 0.88389369E-02 0.11583979E+03</pdfrwt>
<totfact> 0.54113740E+05</totfact>
</mgrwt>
</event>
<event>
 5    1  0.1745726E+000  0.9511898E+02  0.7546771E-02  0.1290908E+00
         21   -1    0    0  501  502  0.00000000000E+00  0.00000000000E+00  0.95019500603E+02  0.95019500603E+02  0.00000000000E+00 0. -1.
         21   -1    0    0  502  503 -0.00000000000E+00 -0.00000000000E+00 -0.96307462917E+02  0.96307462917E+02  0.00000000000E+00 0.  1.
         24    1    1    2    0    0  0.25268521535E+02  0.50276829423E+01 -0.10558001200E+02  0.85102662238E+02  0.80419002446E+02 0.  0.
          1    1    1    2  501    0 -0.16840596451E+02  0.48637147000E+02  0.33268721155E+01  0.51577571048E+02  0.00000000000E+00 0. -1.
         -2    1    1    2    0  503 -0.84279250837E+01 -0.53664829942E+02  0.59431667710E+01  0.54646730233E+02  0.00000000000E+00 0.  1.
<mgrwt>
<rscale>  2 0.95118977E+02</rscale>
<asrwt>0</asrwt>
<pdfrwt beam="1">  1       21 0.14618385E-01 0.95118977E+02</pdfrwt>
<pdfrwt beam="2">  1       21 0.14816533E-01 0.95118977E+02</pdfrwt>
<totfact> 0.16292808E+06</totfact>
</mgrwt>
</event>
<event>
 5    1  0.1745726E+000  0.1952054E+03  0.7546771E-02  0.1153848E+00
         21   -1    0    0  501  502  0.00000000000E+00  0.00000000000E+00  0.74425935725E+02  0.74425935725E+02  0.00000000000E+00 0. -1.
         21   -1    0    0  502  503 -0.00000000000E+00 -0.00000000000E+00 -0.53457698107E+03  0.53457698107E+03  0.00000000000E+00 0.  1.
         24    1    1    2    0    0  0.14212776416E+03 -0.35769368194E+02 -0.14415276696E+03  0.22074189729E+03  0.80419002446E+02 0.  1.
          1    1    1    2  501    0 -0.16564858228E+03 -0.15956053206E+02 -0.25840618838E+03  0.30735615601E+03  0.00000000000E+00 0. -1.
         -2    1    1    2    0  503  0.23520818122E+02  0.51725421401E+02 -0.57592090009E+02  0.80904863487E+02  0.00000000000E+00 0.  1.
<mgrwt>
<rscale>  2 0.19520541E+03</rscale>
<asrwt>0</asrwt>
<pdfrwt beam="1">  1       21 0.11450144E-01 0.19520541E+03</pdfrwt>
<pdfrwt beam="2">  1       21 0.82242615E-01 0.19520541E+03</pdfrwt>
<totfact> 0.82341421E+04</totfact>
</mgrwt>
</event>
<event>
 5    1  0.1745726E+000  0.9688500E+02  0.7546771E-02  0.1286986E+00
         21   -1    0    0  503  502  0.00000000000E+00  0.00000000000E+00  0.51520797183E+02  0.51520797183E+02  0.00000000000E+00 0.  1.
         21   -1    0    0  501  503 -0.00000000000E+00 -0.00000000000E+00 -0.18522915440E+03  0.18522915440E+03  0.00000000000E+00 0.  1.
         24    1    1    2    0    0 -0.78079026804E+02  0.12873538510E+02 -0.91363274448E+02  0.14517756815E+03  0.80419002446E+02 0.  1.
          1    1    1    2  501    0  0.27565377229E+02  0.36328349900E+01 -0.17980359996E+02  0.33111038302E+02  0.00000000000E+00 0. -1.
         -2    1    1    2    0  502  0.50513649576E+02 -0.16506373500E+02 -0.24364722778E+02  0.58461345140E+02  0.00000000000E+00 0.  1.
<mgrwt>
<rscale>  2 0.96884998E+02</rscale>
<asrwt>0</asrwt>
<pdfrwt beam="1">  1       21 0.79262766E-02 0.96884998E+02</pdfrwt>
<pdfrwt beam="2">  1       21 0.28496793E-01 0.96884998E+02</pdfrwt>
<totfact> 0.14238369E+06</totfact>
</mgrwt>
</event>
<event>
 5    1  0.1745726E+000  0.8680012E+02  0.7546771E-02  0.1310791E+00
         21   -1    0    0  503  502  0.00000000000E+00  0.00000000000E+00  0.49419069840E+02  0.49419069840E+02  0.00000000000E+00 0.  1.
         21   -1    0    0  501  503 -0.00000000000E+00 -0.00000000000E+00 -0.78832746518E+03  0.78832746518E+03  0.00000000000E+00 0. -1.
         24    1    1    2    0    0 -0.42935988189E+01  0.26838253213E+02 -0.64187627461E+02  0.10642365479E+03  0.80419002446E+02 0.  0.
          1    1    1    2  501    0 -0.22467043971E+01 -0.57407447135E+02 -0.69282162547E+03  0.69519958817E+03  0.00000000000E+00 0. -1.
         -2    1    1    2    0  502  0.65403032160E+01  0.30569193921E+02  0.18100857596E+02  0.36123292055E+02  0.00000000000E+00 0.  1.
<mgrwt>
<rscale>  2 0.86800118E+02</rscale>
<asrwt>0</asrwt>
<pdfrwt beam="1">  1       21 0.76029343E-02 0.86800118E+02</pdfrwt>
<pdfrwt beam="2">  1       21 0.12128114E+00 0.86800118E+02</pdfrwt>
<totfact> 0.71581045E+04</totfact>
</mgrwt>
</event>
<event>
 5    1  0.1745726E+000  0.9718798E+02  0.7546771E-02  0.1286323E+00
         21   -1    0    0  501  502  0.00000000000E+00  0.00000000000E+00  0.67008084114E+02  0.67008084114E+02  0.00000000000E+00 0.  1.
         21   -1    0    0  502  503 -0.00000000000E+00 -0.00000000000E+00 -0.34848678049E+03  0.34848678049E+03  0.00000000000E+00 0.  1.
         24    1    1    2    0    0  0.12167387031E+02 -0.79446107155E+02 -0.22361700059E+03  0.25086153184E+03  0.80419002446E+02 0.  1.
          1    1    1    2  501    0 -0.37864156563E+01  0.47546931678E+02  0.39441414036E+02  0.61892429235E+02  0.00000000000E+00 0. -1.
         -2    1    1    2    0  503 -0.83809713742E+01  0.31899175477E+02 -0.97303109819E+02  0.10274090353E+03  0.00000000000E+00 0.  1.
<mgrwt>
<rscale>  2 0.97187984E+02</rscale>
<asrwt>0</asrwt>
<pdfrwt beam="1">  1       21 0.10308936E-01 0.97187984E+02</pdfrwt>
<pdfrwt beam="2">  1       21 0.53613350E-01 0.97187984E+02</pdfrwt>
<totfact> 0.25895345E+05</totfact>
</mgrwt>
</event>
<event>
 5    1  0.1745726E+000  0.6883708E+02  0.7546771E-02  0.1364093E+00
         21   -1    0    0  501  502  0.00000000000E+00  0.00000000000E+00  0.83254697594E+02  0.83254697594E+02  0.00000000000E+00 0.  1.
         21   -1    0    0  502  503 -0.00000000000E+00 -0.00000000000E+00 -0.22788333393E+03  0.22788333393E+03  0.00000000000E+00 0.  1.
         24    1    1    2    0    0  0.40036690351E+02  0.14901520882E+02 -0.21096943163E+01  0.91085995978E+02  0.80419002446E+02 0.  1.
          1    1    1    2  501    0 -0.24289692430E+02  0.89735650666E+00  0.34185235791E+02  0.41945497412E+02  0.00000000000E+00 0. -1.
         -2    1    1    2    0  503 -0.15746997921E+02 -0.15798877388E+02 -0.17670417781E+03  0.17810653813E+03  0.00000000000E+00 0.  1.
<mgrwt>
<rscale>  2 0.68837078E+02</rscale>
<asrwt>0</asrwt>
<pdfrwt beam="1">  1       21 0.12808415E-01 0.68837078E+02</pdfrwt>
<pdfrwt beam="2">  1       21 0.35058974E-01 0.68837078E+02</pdfrwt>
<totfact> 0.41547172E+05</totfact>
</mgrwt>
</event>
<event>
 5    1  0.1745726E+000  0.6440896E+02  0.7546771E-02  0.1380209E+00
         21   -1    0    0  501  502  0.00000000000E+00  0.00000000000E+00  0.43111557315E+02  0.43111557315E+02  0.00000000000E+00 0. -1.
         21   -1    0    0  502  503 -0.00000000000E+00 -0.00000000000E+00 -0.11820530265E+03  0.11820530265E+03  0.00000000000E+00 0. -1.
         24    1    1    2    0    0  0.12780641643E+02 -0.91175580218E+01 -0.72871673331E+02  0.10965387085E+03  0.80419002446E+02 0. -1.
          1    1    1    2  501    0 -0.24797469553E+02 -0.79202097674E+01  0.95402100414E+01  0.27724715086E+02  0.00000000000E+00 0. -1.
         -2    1    1    2    0  503  0.12016827910E+02  0.17037767789E+02 -0.11762282044E+02  0.23938274022E+02  0.00000000000E+00 0.  1.
<mgrwt>
<rscale>  2 0.64408964E+02</rscale>
<asrwt>0</asrwt>
<pdfrwt beam="1">  1       21 0.66325474E-02 0.64408964E+02</pdfrwt>
<pdfrwt beam="2">  1       21 0.18185431E-01 0.64408964E+02</pdfrwt>
<totfact> 0.43229383E+06</totfact>
</mgrwt>
</event>
<event>
 5    1  0.1745726E+000  0.1129008E+03  0.7546771E-02  0.1255290E+00
         21   -1    0    0  503  502  0.00000000000E+00  0.00000000000E+00  0.31425412493E+03  0.31425412493E+03  0.00000000000E+00 0.  1.
         21   -1    0    0  501  503 -0.00000000000E+00 -0.00000000000E+00 -0.21876844887E+03  0.21876844887E+03  0.00000000000E+00 0. -1.
         24    1    1    2    0    0 -0.35705607567E+02 -0.62330159941E+02  0.71769315075E+02  0.12952987991E+03  0.80419002446E+02 0. -1.
          1    1    1    2  501    0  0.63141527641E+02  0.64737238706E+02 -0.17813319699E+03  0.19977286717E+03  0.00000000000E+00 0. -1.
         -2    1    1    2    0  502 -0.27435920074E+02 -0.24070787649E+01  0.20184955798E+03  0.20371982671E+03  0.00000000000E+00 0.  1.
<mgrwt>
<rscale>  2 0.11290079E+03</rscale>
<asrwt>0</asrwt>
<pdfrwt beam="1">  1       21 0.48346789E-01 0.11290079E+03</pdfrwt>
<pdfrwt beam="2">  1       21 0.33656684E-01 0.11290079E+03</pdfrwt>
<totfact> 0.36381091E+04</totfact>
</mgrwt>
</event>
<event>
 5    1  0.1745726E+000  0.7673835E+02  0.7546771E-02  0.1338571E+00
         21   -1    0    0  503  502  0.00000000000E+00  0.00000000000E+00  0.11187816805E+04  0.11187816805E+04  0.00000000000E+00 0.  1.
         21   -1    0    0  501  503 -0.00000000000E+00 -0.00000000000E+00 -0.10058949816E+02  0.10058949816E+02  0.00000000000E+00 0. -1.
         24    1    1    2    0    0  0.29036192885E+02 -0.72478411012E+01  0.90257461552E+03  0.90664424348E+03  0.80419002446E+02 0.  0.
          1    1    1    2  501    0 -0.31507049791E+02  0.30757292014E+02  0.61543630728E+02  0.75672476382E+02  0.00000000000E+00 0. -1.
         -2    1    1    2    0  502  0.24708569067E+01 -0.23509450913E+02  0.14460448443E+03  0.14652391045E+03  0.00000000000E+00 0.  1.
<mgrwt>
<rscale>  2 0.76738353E+02</rscale>
<asrwt>0</asrwt>
<pdfrwt beam="1">  1       21 0.17212016E+00 0.76738353E+02</pdfrwt>
<pdfrwt beam="2">  1       21 0.15475316E-02 0.76738353E+02</pdfrwt>
<totfact> 0.40176346E+05</totfact>
</mgrwt>
</event>
<event>
 5    1  0.1745726E+000  0.6245844E+02  0.7546771E-02  0.1387795E+00
         21   -1    0    0  501  502  0.00000000000E+00  0.00000000000E+00  0.80245431131E+03  0.80245431131E+03  0.00000000000E+00 0. -1.
         21   -1    0    0  502  503 -0.00000000000E+00 -0.00000000000E+00 -0.16559586913E+02  0.16559586913E+02  0.00000000000E+00 0.  1.
         24    1    1    2    0    0  0.56234896451E+01  0.17384532339E+01  0.30130396859E+03  0.31190694654E+03  0.80419002446E+02 0.  1.
          1    1    1    2  501    0 -0.11826246842E+01 -0.22763311393E+02  0.48507744587E+03  0.48561270107E+03  0.00000000000E+00 0. -1.
         -2    1    1    2    0  503 -0.44408649609E+01  0.21024858159E+02 -0.48669006881E+00  0.21494250613E+02  0.00000000000E+00 0.  1.
<mgrwt>
<rscale>  2 0.62458437E+02</rscale>
<asrwt>0</asrwt>
<pdfrwt beam="1">  1       21 0.12345448E+00 0.62458437E+02</pdfrwt>
<pdfrwt beam="2">  1       21 0.25476294E-02 0.62458437E+02</pdfrwt>
<totfact> 0.42020349E+05</totfact>
</mgrwt>
</event>
<event>
 5    1  0.1745726E+000  0.1029840E+03  0.7546771E-02  0.1274143E+00
         21   -1    0    0  501  502  0.00000000000E+00  0.00000000000E+00  0.25136588667E+02  0.25136588667E+02  0.00000000000E+00 0.  1.
         21   -1    0    0  502  503 -0.00000000000E+00 -0.00000000000E+00 -0.43885062791E+03  0.43885062791E+03  0.00000000000E+00 0. -1.
         24    1    1    2    0    0 -0.51177683837E+02  0.50809661089E+01 -0.16198569018E+03  0.18802008222E+03  0.80419002446E+02 0.  0.
          1    1    1    2  501    0  0.21345218543E+02 -0.51263680094E+02 -0.97125336221E+02  0.11187901585E+03  0.00000000000E+00 0. -1.
         -2    1    1    2    0  503  0.29832465294E+02  0.46182713985E+02 -0.15460301284E+03  0.16408811851E+03  0.00000000000E+00 0.  1.
<mgrwt>
<rscale>  2 0.10298398E+03</rscale>
<asrwt>0</asrwt>
<pdfrwt beam="1">  1       21 0.38671673E-02 0.10298398E+03</pdfrwt>
<pdfrwt beam="2">  1       21 0.67515484E-01 0.10298398E+03</pdfrwt>
<totfact> 0.83550596E+05</totfact>
</mgrwt>
</event>
<event>
 5    1  0.1745726E+000  0.1179265E+03  0.7546771E-02  0.1246557E+00
         21   -1    0    0  503  502  0.00000000000E+00  0.00000000000E+00  0.45750203073E+03  0.45750203073E+03  0.00000000000E+00 0.  1.
         21   -1    0    0  501  503 -0.00000000000E+00 -0.00000000000E+00 -0.36017752575E+02  0.36017752575E+02  0.00000000000E+00 0. -1.
         24    1    1    2    0    0 -0.58529276992E+02 -0.62465758596E+01  0.90306472210E+02  0.13448855287E+03  0.80419002446E+02 0. -1.
          1    1    1    2  501    0  0.32748014960E+02  0.64584801679E+02  0.14212032777E+03  0.15950491108E+03  0.00000000000E+00 0. -1.
         -2    1    1    2    0  502  0.25781262031E+02 -0.58338225820E+02  0.18905747818E+03  0.19952631936E+03  0.00000000000E+00 0.  1.
<mgrwt>
<rscale>  2 0.11792647E+03</rscale>
<asrwt>0</asrwt>
<pdfrwt beam="1">  1       21 0.70384924E-01 0.11792647E+03</pdfrwt>
<pdfrwt beam="2">  1       21 0.55411930E-02 0.11792647E+03</pdfrwt>
<totfact> 0.41891909E+05</totfact>
</mgrwt>
</event>
<event>
 5    1  0.1745726E+000  0.1253784E+03  0.7546771E-02  0.1234479E+00
         21   -1    0    0  501  502  0.00000000000E+00  0.00000000000E+00  0.55113399337E+03  0.55113399337E+03  0.00000000000E+00 0.  1.
         21   -1    0    0  502  503 -0.00000000000E+00 -0.00000000000E+00 -0.56616984989E+02  0.56616984989E+02  0.00000000000E+00 0.  1.
         24    1    1    2    0    0  0.58292528093E+02 -0.96077445972E+02  0.45089065657E+03  0.47159144881E+03  0.80419002446E+02 0.  1.
          1    1    1    2  501    0 -0.15265808851E+02  0.19921434296E+02  0.41697378694E+02  0.48668057843E+02  0.00000000000E+00 0. -1.
         -2    1    1    2    0  503 -0.43026719243E+02  0.76156011677E+02  0.19289731138E+01  0.87491471702E+02  0.00000000000E+00 0.  1.
<mgrwt>
<rscale>  2 0.12537843E+03</rscale>
<asrwt>0</asrwt>
<pdfrwt beam="1">  1       21 0.84789842E-01 0.12537843E+03</pdfrwt>
<pdfrwt beam="2">  1       21 0.87103058E-02 0.12537843E+03</pdfrwt>
<totfact> 0.12782923E+05</totfact>
</mgrwt>
</event>
<event>
 5    1  0.1745726E+000  0.8016565E+02  0.7546771E-02  0.1328582E+00
         21   -1    0    0  503  502  0.00000000000E+00  0.00000000000E+00  0.22329526438E+02  0.22329526438E+02  0.00000000000E+00 0.  1.
         21   -1    0    0  501  503 -0.00000000000E+00 -0.00000000000E+00 -0.69664011080E+03  0.69664011080E+03  0.00000000000E+00 0. -1.
         24    1    1    2    0    0 -0.20217456463E+02  0.33812141496E+02 -0.83041968600E+02  0.12212776491E+03  0.80419002446E+02 0.  1.
          1    1    1    2  501    0  0.14589288732E+02  0.15420286629E+02 -0.34414202417E+03  0.34479612148E+03  0.00000000000E+00 0. -1.
         -2    1    1    2    0  502  0.56281677306E+01 -0.49232428125E+02 -0.24712659158E+03  0.25204575084E+03  0.00000000000E+00 0.  1.
<mgrwt>
<rscale>  2 0.80165652E+02</rscale>
<asrwt>0</asrwt>
<pdfrwt beam="1">  1       21 0.34353124E-02 0.80165652E+02</pdfrwt>
<pdfrwt beam="2">  1       21 0.10717538E+00 0.80165652E+02</pdfrwt>
<totfact> 0.36091048E+05</totfact>
</mgrwt>
</event>
<event>
 5    1  0.1745726E+000  0.9817613E+02  0.7546771E-02  0.1284179E+00
         21   -1    0    0  501  502  0.00000000000E+00  0.00000000000E+00  0.44938952612E+03  0.44938952612E+03  0.00000000000E+00 0.  1.
         21   -1    0    0  502  503 -0.00000000000E+00 -0.00000000000E+00 -0.51132553228E+02  0.51132553228E+02  0.00000000000E+00 0.  1.
         24    1    1    2    0    0 -0.72503628254E+02  0.61739533332E+01  0.37351741642E+03  0.38894391644E+03  0.80419002446E+02 0.  1.
          1    1    1    2  501    0  0.67677334197E+01 -0.19661525966E+02  0.37867312801E+02  0.43200824040E+02  0.00000000000E+00 0. -1.
         -2    1    1    2    0  503  0.65735894834E+02  0.13487572633E+02 -0.13127756327E+02  0.68377338873E+02  0.00000000000E+00 0.  1.
<mgrwt>
<rscale>  2 0.98176133E+02</rscale>
<asrwt>0</asrwt>
<pdfrwt beam="1">  1       21 0.69136847E-01 0.98176133E+02</pdfrwt>
<pdfrwt beam="2">  1       21 0.78665470E-02 0.98176133E+02</pdfrwt>
<totfact> 0.24121349E+05</totfact>
</mgrwt>
</event>
<event>
 5    1  0.1745726E+000  0.8473908E+02  0.7546771E-02  0.1316116E+00
         21   -1    0    0  503  502  0.00000000000E+00  0.00000000000E+00  0.37821069777E+02  0.37821069777E+02  0.00000000000E+00 0.  1.
         21   -1    0    0  501  503 -0.00000000000E+00 -0.00000000000E+00 -0.22161499467E+03  0.22161499467E+03  0.00000000000E+00 0.  1.
         24    1    1    2    0    0 -0.48659101676E+02  0.40644793326E+02 -0.60217549504E+02  0.11879847063E+03  0.80419002446E+02 0.  1.
          1    1    1    2  501    0  0.17391628726E+02 -0.28785655732E+02 -0.58804906814E+02  0.67742894765E+02  0.00000000000E+00 0. -1.
         -2    1    1    2    0  502  0.31267472950E+02 -0.11859137594E+02 -0.64771468574E+02  0.72894699056E+02  0.00000000000E+00 0.  1.
<mgrwt>
<rscale>  2 0.84739078E+02</rscale>
<asrwt>0</asrwt>
<pdfrwt beam="1">  1       21 0.58186262E-02 0.84739078E+02</pdfrwt>
<pdfrwt beam="2">  1       21 0.34094614E-01 0.84739078E+02</pdfrwt>
<totfact> 0.16959784E+06</totfact>
</mgrwt>
</event>
<event>
 5    1  0.1745726E+000  0.1382403E+03  0.7546771E-02  0.1215717E+00
         21   -1    0    0  503  502  0.00000000000E+00  0.00000000000E+00  0.62055324637E+02  0.62055324637E+02  0.00000000000E+00 0. -1.
         21   -1    0    0  501  503 -0.00000000000E+00 -0.00000000000E+00 -0.31247654748E+03  0.31247654748E+03  0.00000000000E+00 0.  1.
         24    1    1    2    0    0 -0.75862901226E+02  0.60010373688E+01 -0.92155597573E+02  0.14405229033E+03  0.80419002446E+02 0. -1.
          1    1    1    2  501    0 -0.28251564473E+02  0.42398317973E+02 -0.64807642217E+02  0.82436634767E+02  0.00000000000E+00 0. -1.
         -2    1    1    2    0  502  0.10411446570E+03 -0.48399355341E+02 -0.93457983055E+02  0.14804294702E+03  0.00000000000E+00 0.  1.
<mgrwt>
<rscale>  2 0.13824033E+03</rscale>
<asrwt>0</asrwt>
<pdfrwt beam="1">  1       21 0.95469732E-02 0.13824033E+03</pdfrwt>
<pdfrwt beam="2">  1       21 0.48073314E-01 0.13824033E+03</pdfrwt>
<totfact> 0.36787802E+05</totfact>
</mgrwt>
</event>
<event>
 5    1  0.1745726E+000  0.9477722E+02  0.7546771E-02  0.1291679E+00
         21   -1    0    0  503  502  0.00000000000E+00  0.00000000000E+00  0.43448816568E+03  0.43448816568E+03  0.00000000000E+00 0.  1.
         21   -1    0    0  501  503 -0.00000000000E+00 -0.00000000000E+00 -0.28356416482E+03  0.28356416482E+03  0.00000000000E+00 0. -1.
         24    1    1    2    0    0 -0.83919631424E+01  0.19711930479E+02 -0.13600378962E+03  0.15944664309E+03  0.80419002446E+02 0.  0.
          1    1    1    2  501    0  0.39084629661E+02 -0.49829621086E+02 -0.12728374773E+03  0.14216804088E+03  0.00000000000E+00 0. -1.
         -2    1    1    2    0  502 -0.30692666518E+02  0.30117690607E+02  0.41421153820E+03  0.41643764652E+03  0.00000000000E+00 0.  1.
<mgrwt>
<rscale>  2 0.94777217E+02</rscale>
<asrwt>0</asrwt>
<pdfrwt beam="1">  1       21 0.66844334E-01 0.94777217E+02</pdfrwt>
<pdfrwt beam="2">  1       21 0.43625256E-01 0.94777217E+02</pdfrwt>
<totfact> 0.11249965E+04</totfact>
</mgrwt>
</event>
<event>
 5    1  0.1745726E+000  0.7373680E+02  0.7546771E-02  0.1347828E+00
         21   -1    0    0  503  502  0.00000000000E+00  0.00000000000E+00  0.35954586120E+02  0.35954586120E+02  0.00000000000E+00 0. -1.
         21   -1    0    0  501  503 -0.00000000000E+00 -0.00000000000E+00 -0.17203978855E+03  0.17203978855E+03  0.00000000000E+00 0.  1.
         24    1    1    2    0    0 -0.59816532541E+01  0.17543884990E+02 -0.84298600482E+02  0.11797049662E+03  0.80419002446E+02 0.  0.
          1    1    1    2  501    0 -0.43030064650E+01  0.22856088034E+02 -0.40716131897E+02  0.46890510996E+02  0.00000000000E+00 0. -1.
         -2    1    1    2    0  502  0.10284659719E+02 -0.40399973024E+02 -0.11070470051E+02  0.43133367050E+02  0.00000000000E+00 0.  1.
<mgrwt>
<rscale>  2 0.73736800E+02</rscale>
<asrwt>0</asrwt>
<pdfrwt beam="1">  1       21 0.55314749E-02 0.73736800E+02</pdfrwt>
<pdfrwt beam="2">  1       21 0.26467659E-01 0.73736800E+02</pdfrwt>
<totfact> 0.29687589E+06</totfact>
</mgrwt>
</event>
<event>
 5    1  0.1745726E+000  0.1031773E+03  0.7546771E-02  0.1273753E+00
         21   -1    0    0  503  502  0.00000000000E+00  0.00000000000E+00  0.95983014734E+01  0.95983014734E+01  0.00000000000E+00 0.  1.
         21   -1    0    0  501  503 -0.00000000000E+00 -0.00000000000E+00 -0.14621748257E+04  0.14621748257E+04  0.00000000000E+00 0. -1.
         24    1    1    2    0    0  0.73964910365E+02 -0.46498917979E+02 -0.59387513150E+03  0.60563012236E+03  0.80419002446E+02 0.  1.
          1    1    1    2  501    0 -0.19875025115E+02  0.15996202781E+02 -0.58201067777E+03  0.58256958741E+03  0.00000000000E+00 0. -1.
         -2    1    1    2    0  502 -0.54089885250E+02  0.30502715199E+02 -0.27669071496E+03  0.28357341741E+03  0.00000000000E+00 0.  1.
<mgrwt>
<rscale>  2 0.10317728E+03</rscale>
<asrwt>0</asrwt>
<pdfrwt beam="1">  1       21 0.14766615E-02 0.10317728E+03</pdfrwt>
<pdfrwt beam="2">  1       21 0.22495001E+00 0.10317728E+03</pdfrwt>
<totfact> 0.19979481E+05</totfact>
</mgrwt>
</event>
<event>
 5    1  0.1745726E+000  0.6656842E+02  0.7546771E-02  0.1372167E+00
         21   -1    0    0  503  502  0.00000000000E+00  0.00000000000E+00  0.55277463880E+02  0.55277463880E+02  0.00000000000E+00 0. -1.
         21   -1    0    0  501  503 -0.00000000000E+00 -0.00000000000E+00 -0.10834809969E+03  0.10834809969E+03  0.00000000000E+00 0.  1.
         24    1    1    2    0    0  0.26421508834E+01 -0.32290230587E+01  0.83396983687E+01  0.80957853692E+02  0.80419002446E+02 0. -1.
          1    1    1    2  501    0 -0.20066889325E+02  0.20066848159E+02 -0.45683758668E+02  0.53780705166E+02  0.00000000000E+00 0. -1.
         -2    1    1    2    0  502  0.17424738441E+02 -0.16837825100E+02 -0.15726575508E+02  0.28887004709E+02  0.00000000000E+00 0.  1.
<mgrwt>
<rscale>  2 0.66568422E+02</rscale>
<asrwt>0</asrwt>
<pdfrwt beam="1">  1       21 0.85042253E-02 0.66568422E+02</pdfrwt>
<pdfrwt beam="2">  1       21 0.16668938E-01 0.66568422E+02</pdfrwt>
<totfact> 0.33299682E+06</totfact>
</mgrwt>
</event>
<event>
 5    1  0.1745726E+000  0.6776105E+02  0.7546771E-02  0.1367877E+00
         21   -1    0    0  503  502  0.00000000000E+00  0.00000000000E+00  0.56574029030E+03  0.56574029030E+03  0.00000000000E+00 0.  1.
         21   -1    0    0  501  503 -0.00000000000E+00 -0.00000000000E+00 -0.24179333770E+02  0.24179333770E+02  0.00000000000E+00 0. -1.
         24    1    1    2    0    0 -0.17635208519E+02  0.23953191934E+01  0.16145476004E+03  0.18125008587E+03  0.80419002446E+02 0. -1.
          1    1    1    2  501    0  0.17474498516E+02 -0.25027645671E+02  0.27641401755E+01  0.30649333062E+02  0.00000000000E+00 0. -1.
         -2    1    1    2    0  502  0.16071000296E+00  0.22632326478E+02  0.37734205631E+03  0.37802020514E+03  0.00000000000E+00 0.  1.
<mgrwt>
<rscale>  2 0.67761047E+02</rscale>
<asrwt>0</asrwt>
<pdfrwt beam="1">  1       21 0.87036957E-01 0.67761047E+02</pdfrwt>
<pdfrwt beam="2">  1       21 0.37198979E-02 0.67761047E+02</pdfrwt>
<totfact> 0.51017019E+05</totfact>
</mgrwt>
</event>
<event>
 5    1  0.1745726E+000  0.7774772E+02  0.7546771E-02  0.1335567E+00
         21   -1    0    0  501  502  0.00000000000E+00  0.00000000000E+00  0.25980766203E+03  0.25980766203E+03  0.00000000000E+00 0.  1.
         21   -1    0    0  502  503 -0.00000000000E+00 -0.00000000000E+00 -0.43684272922E+02  0.43684272922E+02  0.00000000000E+00 0.  1.
         24    1    1    2    0    0 -0.35189585800E+02  0.28578530274E+02  0.73972941236E+02  0.11829730061E+03  0.80419002446E+02 0.  1.
          1    1    1    2  501    0  0.30918254737E+02  0.32289384383E+01  0.14914335449E+03  0.15234862884E+03  0.00000000000E+00 0. -1.
         -2    1    1    2    0  503  0.42713310629E+01 -0.31807468713E+02 -0.69929066195E+01  0.32846005510E+02  0.00000000000E+00 0.  1.
<mgrwt>
<rscale>  2 0.77747723E+02</rscale>
<asrwt>0</asrwt>
<pdfrwt beam="1">  1       21 0.39970409E-01 0.77747723E+02</pdfrwt>
<pdfrwt beam="2">  1       21 0.67206575E-02 0.77747723E+02</pdfrwt>
<totfact> 0.97389284E+05</totfact>
</mgrwt>
</event>
<event>
 5    1  0.1745726E+000  0.1061608E+03  0.7546771E-02  0.1267849E+00
         21   -1    0    0  503  502  0.00000000000E+00  0.00000000000E+00  0.16730025326E+04  0.16730025326E+04  0.00000000000E+00 0.  1.
         21   -1    0    0  501  503 -0.00000000000E+00 -0.00000000000E+00 -0.29615390127E+02  0.29615390127E+02  0.00000000000E+00 0. -1.
         24    1    1    2    0    0 -0.13455971305E+02  0.34603597970E+02  0.91644217073E+02  0.12745332728E+03  0.80419002446E+02 0. -1.
          1    1    1    2  501    0  0.33743209265E+02  0.36557096024E+02  0.46479614821E+02  0.68083625308E+02  0.00000000000E+00 0. -1.
         -2    1    1    2    0  502 -0.20287237960E+02 -0.71160693994E+02  0.15052633106E+04  0.15070809702E+04  0.00000000000E+00 0.  1.
<mgrwt>
<rscale>  2 0.10616079E+03</rscale>
<asrwt>0</asrwt>
<pdfrwt beam="1">  1       21 0.25738493E+00 0.10616079E+03</pdfrwt>
<pdfrwt beam="2">  1       21 0.45562152E-02 0.10616079E+03</pdfrwt>
<totfact> 0.20846229E+04</totfact>
</mgrwt>
</event>
<event>
 5    1  0.1745726E+000  0.1575055E+03  0.7546771E-02  0.1191542E+00
         21   -1    0    0  501  502  0.00000000000E+00  0.00000000000E+00  0.50568239799E+03  0.50568239799E+03  0.00000000000E+00 0.  1.
         21   -1    0    0  502  503 -0.00000000000E+00 -0.00000000000E+00 -0.62398936289E+02  0.62398936289E+02  0.00000000000E+00 0.  1.
         24    1    1    2    0    0  0.13405467251E+03  0.59621508834E+02  0.34434226428E+03  0.38283702859E+03  0.80419002446E+02 0.  1.
          1    1    1    2  501    0 -0.29187511186E+02 -0.20961958439E+02  0.53819457936E+02  0.64713588707E+02  0.00000000000E+00 0. -1.
         -2    1    1    2    0  503 -0.10486716133E+03 -0.38659550395E+02  0.45121739483E+02  0.12053071698E+03  0.00000000000E+00 0.  1.
<mgrwt>
<rscale>  2 0.15750547E+03</rscale>
<asrwt>0</asrwt>
<pdfrwt beam="1">  1       21 0.77797289E-01 0.15750547E+03</pdfrwt>
<pdfrwt beam="2">  1       21 0.95998367E-02 0.15750547E+03</pdfrwt>
<totfact> 0.12941667E+05</totfact>
</mgrwt>
</event>
<event>
 5    1  0.1745726E+000  0.6420294E+02  0.7546771E-02  0.1380995E+00
         21   -1    0    0  501  502  0.00000000000E+00  0.00000000000E+00  0.51819083290E+02  0.51819083290E+02  0.00000000000E+00 0. -1.
         21   -1    0    0  502  503 -0.00000000000E+00 -0.00000000000E+00 -0.15688985722E+03  0.15688985722E+03  0.00000000000E+00 0.  1.
         24    1    1    2    0    0 -0.87456008867E+01 -0.42559686573E+01 -0.48803718494E+02  0.94570702109E+02  0.80419002446E+02 0.  1.
          1    1    1    2  501    0  0.28382818564E+01 -0.21138573909E+02  0.22598963200E+02  0.31074238342E+02  0.00000000000E+00 0. -1.
         -2    1    1    2    0  503  0.59073190303E+01  0.25394542566E+02 -0.78866018635E+02  0.83064000058E+02  0.00000000000E+00 0.  1.
<mgrwt>
<rscale>  2 0.64202938E+02</rscale>
<asrwt>0</asrwt>
<pdfrwt beam="1">  1       21 0.79721669E-02 0.64202938E+02</pdfrwt>
<pdfrwt beam="2">  1       21 0.24136900E-01 0.64202938E+02</pdfrwt>
<totfact> 0.18944170E+06</totfact>
</mgrwt>
</event>
<event>
 5    1  0.1745726E+000  0.7348250E+02  0.7546771E-02  0.1348636E+00
         21   -1    0    0  503  502  0.00000000000E+00  0.00000000000E+00  0.14717285386E+03  0.14717285386E+03  0.00000000000E+00 0. -1.
         21   -1    0    0  501  503 -0.00000000000E+00 -0.00000000000E+00 -0.38574012176E+02  0.38574012176E+02  0.00000000000E+00 0.  1.
         24    1    1    2    0    0  0.25992336251E+02  0.21057080599E+02  0.78361388925E+02  0.11716110880E+03  0.80419002446E+02 0.  0.
          1    1    1    2  501    0  0.13335965263E+02 -0.15005067426E+02  0.28402295662E+01  0.20274785373E+02  0.00000000000E+00 0. -1.
         -2    1    1    2    0  502 -0.39328301513E+02 -0.60520131734E+01  0.27397223190E+02  0.48310971859E+02  0.00000000000E+00 0.  1.
<mgrwt>
<rscale>  2 0.73482496E+02</rscale>
<asrwt>0</asrwt>
<pdfrwt beam="1">  1       21 0.22641977E-01 0.73482496E+02</pdfrwt>
<pdfrwt beam="2">  1       21 0.59344635E-02 0.73482496E+02</pdfrwt>
<totfact> 0.35270842E+06</totfact>
</mgrwt>
</event>
<event>
 5    1  0.1745726E+000  0.8318808E+02  0.7546771E-02  0.1320240E+00
         21   -1    0    0  503  502  0.00000000000E+00  0.00000000000E+00  0.84356501068E+02  0.84356501068E+02  0.00000000000E+00 0. -1.
         21   -1    0    0  501  503 -0.00000000000E+00 -0.00000000000E+00 -0.23691654772E+03  0.23691654772E+03  0.00000000000E+00 0.  1.
         24    1    1    2    0    0  0.22193758803E+02 -0.45800374128E+02 -0.20491926053E+03  0.22594104649E+03  0.80419002446E+02 0.  1.
          1    1    1    2  501    0 -0.20918461799E+02 -0.40768040431E+01 -0.21688895803E+01  0.21422102074E+02  0.00000000000E+00 0. -1.
         -2    1    1    2    0  502 -0.12752970038E+01  0.49877178171E+02  0.54528103455E+02  0.73909900224E+02  0.00000000000E+00 0.  1.
<mgrwt>
<rscale>  2 0.83188078E+02</rscale>
<asrwt>0</asrwt>
<pdfrwt beam="1">  1       21 0.12977923E-01 0.83188078E+02</pdfrwt>
<pdfrwt beam="2">  1       21 0.36448699E-01 0.83188078E+02</pdfrwt>
<totfact> 0.37632754E+05</totfact>
</mgrwt>
</event>
<event>
 5    1  0.1745726E+000  0.1651634E+03  0.7546771E-02  0.1182988E+00
         21   -1    0    0  501  502  0.00000000000E+00  0.00000000000E+00  0.13205167277E+04  0.13205167277E+04  0.00000000000E+00 0. -1.
         21   -1    0    0  502  503 -0.00000000000E+00 -0.00000000000E+00 -0.14392434957E+03  0.14392434957E+03  0.00000000000E+00 0.  1.
         24    1    1    2    0    0  0.51848604643E+02  0.41868294744E+02  0.81753696298E+02  0.13263526952E+03  0.80419002446E+02 0.  1.
          1    1    1    2  501    0 -0.41723448824E+02 -0.13032912755E+03  0.11921086825E+04  0.11999373478E+04  0.00000000000E+00 0. -1.
         -2    1    1    2    0  503 -0.10125155819E+02  0.88460832807E+02 -0.97270000641E+02  0.13186846001E+03  0.00000000000E+00 0.  1.
<mgrwt>
<rscale>  2 0.16516341E+03</rscale>
<asrwt>0</asrwt>
<pdfrwt beam="1">  1       21 0.20315641E+00 0.16516341E+03</pdfrwt>
<pdfrwt beam="2">  1       21 0.22142208E-01 0.16516341E+03</pdfrwt>
<totfact> 0.25183151E+03</totfact>
</mgrwt>
</event>
<event>
 5    1  0.1745726E+000  0.7572182E+02  0.7546771E-02  0.1341650E+00
         21   -1    0    0  501  502  0.00000000000E+00  0.00000000000E+00  0.34762741085E+02  0.34762741085E+02  0.00000000000E+00 0. -1.
         21   -1    0    0  502  503 -0.00000000000E+00 -0.00000000000E+00 -0.27604077150E+03  0.27604077150E+03  0.00000000000E+00 0.  1.
         24    1    1    2    0    0  0.40582420138E+02 -0.34470938309E+02 -0.12553289052E+03  0.15830635164E+03  0.80419002446E+02 0. -1.
          1    1    1    2  501    0 -0.25151457526E+02  0.12340874179E+02  0.52733635317E+01  0.28507917393E+02  0.00000000000E+00 0. -1.
         -2    1    1    2    0  503 -0.15430962612E+02  0.22130064131E+02 -0.12101850342E+03  0.12398924355E+03  0.00000000000E+00 0.  1.
<mgrwt>
<rscale>  2 0.75721819E+02</rscale>
<asrwt>0</asrwt>
<pdfrwt beam="1">  1       21 0.53481141E-02 0.75721819E+02</pdfrwt>
<pdfrwt beam="2">  1       21 0.42467811E-01 0.75721819E+02</pdfrwt>
<totfact> 0.12651415E+06</totfact>
</mgrwt>
</event>
<event>
 5    1  0.1745726E+000  0.7816068E+02  0.7546771E-02  0.1334354E+00
         21   -1    0    0  503  502  0.00000000000E+00  0.00000000000E+00  0.84059610956E+01  0.84059610956E+01  0.00000000000E+00 0. -1.
         21   -1    0    0  501  503 -0.00000000000E+00 -0.00000000000E+00 -0.75290506913E+03  0.75290506913E+03  0.00000000000E+00 0. -1.
         24    1    1    2    0    0  0.91511580223E+00  0.24899453572E+02 -0.36009795657E+03  0.36980883508E+03  0.80419002446E+02 0.  0.
          1    1    1    2  501    0 -0.31857990344E+02 -0.26070944887E+02 -0.26362611834E+03  0.26682083124E+03  0.00000000000E+00 0. -1.
         -2    1    1    2    0  502  0.30942874541E+02  0.11714913152E+01 -0.12077503313E+03  0.12468136390E+03  0.00000000000E+00 0.  1.
<mgrwt>
<rscale>  2 0.78160675E+02</rscale>
<asrwt>0</asrwt>
<pdfrwt beam="1">  1       21 0.12932248E-02 0.78160675E+02</pdfrwt>
<pdfrwt beam="2">  1       21 0.11583155E+00 0.78160675E+02</pdfrwt>
<totfact> 0.14328888E+06</totfact>
</mgrwt>
</event>
<event>
 5    1  0.1745726E+000  0.6726752E+02  0.7546771E-02  0.1369639E+00
         21   -1    0    0  503  502  0.00000000000E+00  0.00000000000E+00  0.14625533506E+03  0.14625533506E+03  0.00000000000E+00 0. -1.
         21   -1    0    0  501  503 -0.00000000000E+00 -0.00000000000E+00 -0.42648252089E+02  0.42648252089E+02  0.00000000000E+00 0.  1.
         24    1    1    2    0    0 -0.18726071625E+02  0.15308751923E+01  0.19852564781E+02  0.84937327602E+02  0.80419002446E+02 0.  0.
          1    1    1    2  501    0  0.14802977794E-01 -0.23268640000E+02  0.10951223252E+02  0.25716903338E+02  0.00000000000E+00 0. -1.
         -2    1    1    2    0  502  0.18711268647E+02  0.21737764808E+02  0.72803294934E+02  0.78249356205E+02  0.00000000000E+00 0.  1.
<mgrwt>
<rscale>  2 0.67267518E+02</rscale>
<asrwt>0</asrwt>
<pdfrwt beam="1">  1       21 0.22500821E-01 0.67267518E+02</pdfrwt>
<pdfrwt beam="2">  1       21 0.65612696E-02 0.67267518E+02</pdfrwt>
<totfact> 0.29993671E+06</totfact>
</mgrwt>
</event>
<event>
 5    1  0.1745726E+000  0.6952453E+02  0.7546771E-02  0.1361717E+00
         21   -1    0    0  503  502  0.00000000000E+00  0.00000000000E+00  0.11061590809E+03  0.11061590809E+03  0.00000000000E+00 0.  1.
         21   -1    0    0  501  503 -0.00000000000E+00 -0.00000000000E+00 -0.52837092963E+02  0.52837092963E+02  0.00000000000E+00 0. -1.
         24    1    1    2    0    0 -0.69541587937E+01  0.20511963591E+02  0.42451339561E+02  0.93479586861E+02  0.80419002446E+02 0.  0.
          1    1    1    2  501    0 -0.12122725779E+02 -0.31498059285E+02 -0.11145604585E+02  0.35543110733E+02  0.00000000000E+00 0. -1.
         -2    1    1    2    0  502  0.19076884572E+02  0.10986095695E+02  0.26473080152E+02  0.34430303460E+02  0.00000000000E+00 0.  1.
<mgrwt>
<rscale>  2 0.69524531E+02</rscale>
<asrwt>0</asrwt>
<pdfrwt beam="1">  1       21 0.17017832E-01 0.69524531E+02</pdfrwt>
<pdfrwt beam="2">  1       21 0.81287836E-02 0.69524531E+02</pdfrwt>
<totfact> 0.34746979E+06</totfact>
</mgrwt>
</event>
<event>
 5    1  0.1745726E+000  0.7131956E+02  0.7546771E-02  0.1355662E+00
         21   -1    0    0  503  502  0.00000000000E+00  0.00000000000E+00  0.10496220601E+03  0.10496220601E+03  0.00000000000E+00 0. -1.
         21   -1    0    0  501  503 -0.00000000000E+00 -0.00000000000E+00 -0.97281405020E+02  0.97281405020E+02  0.00000000000E+00 0.  1.
         24    1    1    2    0    0 -0.10019212461E+02  0.13549647134E+02 -0.56389608579E+02  0.99654309821E+02  0.80419002446E+02 0.  1.
          1    1    1    2  501    0  0.34436471291E+02 -0.63513495027E+01  0.15120297284E+01  0.35049913400E+02  0.00000000000E+00 0. -1.
         -2    1    1    2    0  502 -0.24417258829E+02 -0.71982976315E+01  0.62558379841E+02  0.67539387811E+02  0.00000000000E+00 0.  1.
<mgrwt>
<rscale>  2 0.71319565E+02</rscale>
<asrwt>0</asrwt>
<pdfrwt beam="1">  1       21 0.16148032E-01 0.71319565E+02</pdfrwt>
<pdfrwt beam="2">  1       21 0.14966370E-01 0.71319565E+02</pdfrwt>
<totfact> 0.13269379E+06</totfact>
</mgrwt>
</event>
<event>
 5    1  0.1745726E+000  0.1100994E+03  0.7546771E-02  0.1260386E+00
         21   -1    0    0  503  502  0.00000000000E+00  0.00000000000E+00  0.75066823606E+02  0.75066823606E+02  0.00000000000E+00 0.  1.
         21   -1    0    0  501  503 -0.00000000000E+00 -0.00000000000E+00 -0.45066588958E+03  0.45066588958E+03  0.00000000000E+00 0. -1.
         24    1    1    2    0    0  0.22816286089E+02  0.73640174915E+01 -0.14113559694E+03  0.16419891700E+03  0.80419002446E+02 0.  0.
          1    1    1    2  501    0 -0.50638742489E+02 -0.58924367980E+02 -0.27792820530E+03  0.28858352462E+03  0.00000000000E+00 0. -1.
         -2    1    1    2    0  502  0.27822456400E+02  0.51560350489E+02  0.43464736268E+02  0.72950271565E+02  0.00000000000E+00 0.  1.
<mgrwt>
<rscale>  2 0.11009944E+03</rscale>
<asrwt>0</asrwt>
<pdfrwt beam="1">  1       21 0.11548743E-01 0.11009944E+03</pdfrwt>
<pdfrwt beam="2">  1       21 0.69333211E-01 0.11009944E+03</pdfrwt>
<totfact> 0.12267600E+05</totfact>
</mgrwt>
</event>
<event>
 5    1  0.1745726E+000  0.7720238E+02  0.7546771E-02  0.1337183E+00
         21   -1    0    0  503  502  0.00000000000E+00  0.00000000000E+00  0.26225746896E+02  0.26225746896E+02  0.00000000000E+00 0. -1.
         21   -1    0    0  501  503 -0.00000000000E+00 -0.00000000000E+00 -0.27107125164E+03  0.27107125164E+03  0.00000000000E+00 0. -1.
         24    1    1    2    0    0  0.37223343478E+02 -0.96342536500E+01 -0.96886586302E+02  0.13165341888E+03  0.80419002446E+02 0. -1.
          1    1    1    2  501    0 -0.33704853753E+02  0.29682604006E+02 -0.13301379445E+03  0.14039139454E+03  0.00000000000E+00 0. -1.
         -2    1    1    2    0  502 -0.35184897250E+01 -0.20048350356E+02 -0.14945123986E+02  0.25252185111E+02  0.00000000000E+00 0.  1.
<mgrwt>
<rscale>  2 0.77202384E+02</rscale>
<asrwt>0</asrwt>
<pdfrwt beam="1">  1       21 0.40347303E-02 0.77202384E+02</pdfrwt>
<pdfrwt beam="2">  1       21 0.41703269E-01 0.77202384E+02</pdfrwt>
<totfact> 0.20898447E+06</totfact>
</mgrwt>
</event>
<event>
 5    1  0.1745726E+000  0.6413010E+02  0.7546771E-02  0.1381274E+00
         21   -1    0    0  501  502  0.00000000000E+00  0.00000000000E+00  0.20699884460E+02  0.20699884460E+02  0.00000000000E+00 0. -1.
         21   -1    0    0  502  503 -0.00000000000E+00 -0.00000000000E+00 -0.21620588083E+03  0.21620588083E+03  0.00000000000E+00 0. -1.
         24    1    1    2    0    0  0.85046962837E+01 -0.63690220083E+01 -0.12678841997E+03  0.15051715415E+03  0.80419002446E+02 0.  0.
          1    1    1    2  501    0 -0.26169137068E+02 -0.42791854537E+01 -0.19172800427E+02  0.32722032933E+02  0.00000000000E+00 0. -1.
         -2    1    1    2    0  503  0.17664440784E+02  0.10648207462E+02 -0.49544775965E+02  0.53666578201E+02  0.00000000000E+00 0.  1.
<mgrwt>
<rscale>  2 0.64130104E+02</rscale>
<asrwt>0</asrwt>
<pdfrwt beam="1">  1       21 0.31845975E-02 0.64130104E+02</pdfrwt>
<pdfrwt beam="2">  1       21 0.33262444E-01 0.64130104E+02</pdfrwt>
<totfact> 0.47163938E+06</totfact>
</mgrwt>
</event>
<event>
 5    1  0.1745726E+000  0.6384635E+02  0.7546771E-02  0.1382364E+00
         21   -1    0    0  501  502  0.00000000000E+00  0.00000000000E+00  0.36264955102E+02  0.36264955102E+02  0.00000000000E+00 0.  1.
         21   -1    0    0  502  503 -0.00000000000E+00 -0.00000000000E+00 -0.12384010324E+03  0.12384010324E+03  0.00000000000E+00 0. -1.
         24    1    1    2    0    0  0.26199595868E+02 -0.11372002816E+02 -0.36625981688E+02  0.92867754149E+02  0.80419002446E+02 0. -1.
          1    1    1    2  501    0 -0.17977333097E+02 -0.92025179373E+01 -0.15604162300E+02  0.25521769585E+02  0.00000000000E+00 0. -1.
         -2    1    1    2    0  503 -0.82222627713E+01  0.20574520753E+02 -0.35345004150E+02  0.41715534608E+02  0.00000000000E+00 0.  1.
<mgrwt>
<rscale>  2 0.63846346E+02</rscale>
<asrwt>0</asrwt>
<pdfrwt beam="1">  1       21 0.55792239E-02 0.63846346E+02</pdfrwt>
<pdfrwt beam="2">  1       21 0.19052323E-01 0.63846346E+02</pdfrwt>
<totfact> 0.52986221E+06</totfact>
</mgrwt>
</event>
<event>
 5    1  0.1745726E+000  0.9541252E+02  0.7546771E-02  0.1290250E+00
         21   -1    0    0  503  502  0.00000000000E+00  0.00000000000E+00  0.31386572042E+02  0.31386572042E+02  0.00000000000E+00 0.  1.
         21   -1    0    0  501  503 -0.00000000000E+00 -0.00000000000E+00 -0.11918021860E+04  0.11918021860E+04  0.00000000000E+00 0. -1.
         24    1    1    2    0    0  0.10778096286E+02 -0.61199646227E+02 -0.23272827083E+03  0.25395123164E+03  0.80419002446E+02 0.  0.
          1    1    1    2  501    0 -0.26170299461E+02  0.84139564659E-01 -0.90003266532E+03  0.90041306649E+03  0.00000000000E+00 0. -1.
         -2    1    1    2    0  502  0.15392203175E+02  0.61115506663E+02 -0.27654677763E+02  0.68824459863E+02  0.00000000000E+00 0.  1.
<mgrwt>
<rscale>  2 0.95412522E+02</rscale>
<asrwt>0</asrwt>
<pdfrwt beam="1">  1       21 0.48287032E-02 0.95412522E+02</pdfrwt>
<pdfrwt beam="2">  1       21 0.18335419E+00 0.95412522E+02</pdfrwt>
<totfact> 0.52968800E+04</totfact>
</mgrwt>
</event>
<event>
 5    1  0.1745726E+000  0.9471384E+02  0.7546771E-02  0.1291822E+00
         21   -1    0    0  501  502  0.00000000000E+00  0.00000000000E+00  0.24989651800E+03  0.24989651800E+03  0.00000000000E+00 0. -1.
         21   -1    0    0  502  503 -0.00000000000E+00 -0.00000000000E+00 -0.11337607300E+03  0.11337607300E+03  0.00000000000E+00 0.  1.
         24    1    1    2    0    0  0.14095116608E+02  0.46865423421E+02  0.12374550456E+03  0.15548378075E+03  0.80419002446E+02 0.  1.
          1    1    1    2  501    0  0.84460403460E+01  0.21607926151E+02  0.95374598710E+02  0.98155754540E+02  0.00000000000E+00 0. -1.
         -2    1    1    2    0  503 -0.22541156954E+02 -0.68473349572E+02 -0.82599658261E+02  0.10963305571E+03  0.00000000000E+00 0.  1.
<mgrwt>
<rscale>  2 0.94713840E+02</rscale>
<asrwt>0</asrwt>
<pdfrwt beam="1">  1       21 0.38445618E-01 0.94713840E+02</pdfrwt>
<pdfrwt beam="2">  1       21 0.17442473E-01 0.94713840E+02</pdfrwt>
<totfact> 0.19950883E+05</totfact>
</mgrwt>
</event>
<event>
 5    1  0.1745726E+000  0.7456696E+02  0.7546771E-02  0.1345217E+00
         21   -1    0    0  503  502  0.00000000000E+00  0.00000000000E+00  0.78051631096E+03  0.78051631096E+03  0.00000000000E+00 0.  1.
         21   -1    0    0  501  503 -0.00000000000E+00 -0.00000000000E+00 -0.13891010666E+02  0.13891010666E+02  0.00000000000E+00 0.  1.
         24    1    1    2    0    0  0.21816371114E+01 -0.20483337598E+02  0.21173730904E+03  0.22742961692E+03  0.80419002446E+02 0.  1.
          1    1    1    2  501    0 -0.22635259136E+02  0.34543114311E+02  0.68708440769E+02  0.80165026885E+02  0.00000000000E+00 0. -1.
         -2    1    1    2    0  502  0.20453622024E+02 -0.14059776713E+02  0.48617955049E+03  0.48681267782E+03  0.00000000000E+00 0.  1.
<mgrwt>
<rscale>  2 0.74566958E+02</rscale>
<asrwt>0</asrwt>
<pdfrwt beam="1">  1       21 0.12007940E+00 0.74566958E+02</pdfrwt>
<pdfrwt beam="2">  1       21 0.21370792E-02 0.74566958E+02</pdfrwt>
<totfact> 0.59382412E+05</totfact>
</mgrwt>
</event>
<event>
 5    1  0.1745726E+000  0.1157649E+03  0.7546771E-02  0.1250252E+00
         21   -1    0    0  501  502  0.00000000000E+00  0.00000000000E+00  0.77930588136E+02  0.77930588136E+02  0.00000000000E+00 0. -1.
         21   -1    0    0  502  503 -0.00000000000E+00 -0.00000000000E+00 -0.18578763109E+03  0.18578763109E+03  0.00000000000E+00 0.  1.
         24    1    1    2    0    0 -0.29036004280E+02 -0.21381192153E+02 -0.23803313820E+02  0.91291065421E+02  0.80419002446E+02 0.  0.
          1    1    1    2  501    0  0.69385978520E+02 -0.32058842344E+02 -0.18333249299E+02  0.78602108225E+02  0.00000000000E+00 0. -1.
         -2    1    1    2    0  503 -0.40349974239E+02  0.53440034496E+02 -0.65720479830E+02  0.93825045575E+02  0.00000000000E+00 0.  1.
<mgrwt>
<rscale>  2 0.11576487E+03</rscale>
<asrwt>0</asrwt>
<pdfrwt beam="1">  1       21 0.11989321E-01 0.11576487E+03</pdfrwt>
<pdfrwt beam="2">  1       21 0.28582712E-01 0.11576487E+03</pdfrwt>
<totfact> 0.69139714E+05</totfact>
</mgrwt>
</event>
<event>
 5    1  0.1745726E+000  0.1115566E+03  0.7546771E-02  0.1257714E+00
         21   -1    0    0  503  502  0.00000000000E+00  0.00000000000E+00  0.83132802910E+02  0.83132802910E+02  0.00000000000E+00 0. -1.
         21   -1    0    0  501  503 -0.00000000000E+00 -0.00000000000E+00 -0.16203345976E+03  0.16203345976E+03  0.00000000000E+00 0.  1.
         24    1    1    2    0    0  0.36749188305E+02 -0.57596087593E+02 -0.65694291945E+02  0.12430111864E+03  0.80419002446E+02 0.  0.
          1    1    1    2  501    0 -0.87048635463E+01  0.80753222905E+02 -0.20507653973E+02  0.83770051513E+02  0.00000000000E+00 0. -1.
         -2    1    1    2    0  502 -0.28044324758E+02 -0.23157135313E+02  0.73012890637E+01  0.37095092519E+02  0.00000000000E+00 0.  1.
<mgrwt>
<rscale>  2 0.11155657E+03</rscale>
<asrwt>0</asrwt>
<pdfrwt beam="1">  1       21 0.12789662E-01 0.11155657E+03</pdfrwt>
<pdfrwt beam="2">  1       21 0.24928224E-01 0.11155657E+03</pdfrwt>
<totfact> 0.79931892E+05</totfact>
</mgrwt>
</event>
<event>
 5    1  0.1745726E+000  0.7711782E+02  0.7546771E-02  0.1337435E+00
         21   -1    0    0  501  502  0.00000000000E+00  0.00000000000E+00  0.52604292574E+02  0.52604292574E+02  0.00000000000E+00 0.  1.
         21   -1    0    0  502  503 -0.00000000000E+00 -0.00000000000E+00 -0.20829384227E+03  0.20829384227E+03  0.00000000000E+00 0. -1.
         24    1    1    2    0    0 -0.28106709933E+02  0.23642461534E+02 -0.59084813609E+01  0.88606316011E+02  0.80419002446E+02 0.  1.
          1    1    1    2  501    0 -0.10606431709E+02 -0.24929520467E+02 -0.12845056630E+02  0.29982876182E+02  0.00000000000E+00 0. -1.
         -2    1    1    2    0  503  0.38713141642E+02  0.12870589334E+01 -0.13693601170E+03  0.14230894265E+03  0.00000000000E+00 0.  1.
<mgrwt>
<rscale>  2 0.77117824E+02</rscale>
<asrwt>0</asrwt>
<pdfrwt beam="1">  1       21 0.80929682E-02 0.77117824E+02</pdfrwt>
<pdfrwt beam="2">  1       21 0.32045206E-01 0.77117824E+02</pdfrwt>
<totfact> 0.10918826E+06</totfact>
</mgrwt>
</event>
<event>
 5    1  0.1745726E+000  0.7310226E+02  0.7546771E-02  0.1349851E+00
         21   -1    0    0  503  502  0.00000000000E+00  0.00000000000E+00  0.16489681431E+03  0.16489681431E+03  0.00000000000E+00 0.  1.
         21   -1    0    0  501  503 -0.00000000000E+00 -0.00000000000E+00 -0.35268309102E+02  0.35268309102E+02  0.00000000000E+00 0.  1.
         24    1    1    2    0    0  0.16671373243E+01  0.21216946240E+02  0.48510823011E+02  0.96298774957E+02  0.80419002446E+02 0.  0.
          1    1    1    2  501    0  0.51989045673E+01 -0.41386038851E+02  0.41253774036E+02  0.58666060825E+02  0.00000000000E+00 0. -1.
         -2    1    1    2    0  502 -0.68660418916E+01  0.20169092611E+02  0.39863908161E+02  0.45200287630E+02  0.00000000000E+00 0.  1.
<mgrwt>
<rscale>  2 0.73102257E+02</rscale>
<asrwt>0</asrwt>
<pdfrwt beam="1">  1       21 0.25368740E-01 0.73102257E+02</pdfrwt>
<pdfrwt beam="2">  1       21 0.54258938E-02 0.73102257E+02</pdfrwt>
<totfact> 0.33161201E+06</totfact>
</mgrwt>
</event>
<event>
 5    1  0.1745726E+000  0.8215333E+02  0.7546771E-02  0.1323049E+00
         21   -1    0    0  503  502  0.00000000000E+00  0.00000000000E+00  0.60749117809E+01  0.60749117809E+01  0.00000000000E+00 0. -1.
         21   -1    0    0  501  503 -0.00000000000E+00 -0.00000000000E+00 -0.12877826825E+04  0.12877826825E+04  0.00000000000E+00 0.  1.
         24    1    1    2    0    0  0.41847526886E+02  0.87109574150E+01 -0.93882127985E+03  0.94322834337E+03  0.80419002446E+02 0.  0.
          1    1    1    2  501    0 -0.22025691813E+02 -0.34362658784E+02 -0.18498525394E+03  0.18943459978E+03  0.00000000000E+00 0. -1.
         -2    1    1    2    0  502 -0.19821835073E+02  0.25651701369E+02 -0.15790123690E+03  0.16119465110E+03  0.00000000000E+00 0.  1.
<mgrwt>
<rscale>  2 0.82153329E+02</rscale>
<asrwt>0</asrwt>
<pdfrwt beam="1">  1       21 0.93460304E-03 0.82153329E+02</pdfrwt>
<pdfrwt beam="2">  1       21 0.19812015E+00 0.82153329E+02</pdfrwt>
<totfact> 0.60208552E+05</totfact>
</mgrwt>
</event>
<event>
 5    1  0.1745726E+000  0.1634074E+03  0.7546771E-02  0.1184903E+00
         21   -1    0    0  501  502  0.00000000000E+00  0.00000000000E+00  0.20328292341E+02  0.20328292341E+02  0.00000000000E+00 0. -1.
         21   -1    0    0  502  503 -0.00000000000E+00 -0.00000000000E+00 -0.18020262058E+04  0.18020262058E+04  0.00000000000E+00 0.  1.
         24    1    1    2    0    0  0.14424504187E+03 -0.19135445402E+02 -0.13274677127E+04  0.13378380102E+04  0.80419002446E+02 0.  1.
          1    1    1    2  501    0 -0.10575312193E+03  0.44211106795E+02 -0.24764861843E+03  0.27288859077E+03  0.00000000000E+00 0. -1.
         -2    1    1    2    0  503 -0.38491919945E+02 -0.25075661392E+02 -0.20658158230E+03  0.21162789712E+03  0.00000000000E+00 0.  1.
<mgrwt>
<rscale>  2 0.16340738E+03</rscale>
<asrwt>0</asrwt>
<pdfrwt beam="1">  1       21 0.31274284E-02 0.16340738E+03</pdfrwt>
<pdfrwt beam="2">  1       21 0.27723491E+00 0.16340738E+03</pdfrwt>
<totfact> 0.28042254E+04</totfact>
</mgrwt>
</event>
<event>
 5    1  0.1745726E+000  0.7571212E+02  0.7546771E-02  0.1341680E+00
         21   -1    0    0  501  502  0.00000000000E+00  0.00000000000E+00  0.79221278735E+03  0.79221278735E+03  0.00000000000E+00 0. -1.
         21   -1    0    0  502  503 -0.00000000000E+00 -0.00000000000E+00 -0.40594768114E+02  0.40594768114E+02  0.00000000000E+00 0.  1.
         24    1    1    2    0    0 -0.99463190521E+01 -0.45644469694E+01  0.29350106105E+03  0.30451576681E+03  0.80419002446E+02 0.  1.
          1    1    1    2  501    0  0.36295488913E+02 -0.13049074015E+02  0.48512210300E+03  0.48665295197E+03  0.00000000000E+00 0. -1.
         -2    1    1    2    0  503 -0.26349169861E+02  0.17613520984E+02 -0.27005144817E+02  0.41638836684E+02  0.00000000000E+00 0.  1.
<mgrwt>
<rscale>  2 0.75712119E+02</rscale>
<asrwt>0</asrwt>
<pdfrwt beam="1">  1       21 0.12187888E+00 0.75712119E+02</pdfrwt>
<pdfrwt beam="2">  1       21 0.62453495E-02 0.75712119E+02</pdfrwt>
<totfact> 0.99417653E+04</totfact>
</mgrwt>
</event>
<event>
 5    1  0.1745726E+000  0.6874969E+02  0.7546771E-02  0.1364397E+00
         21   -1    0    0  503  502  0.00000000000E+00  0.00000000000E+00  0.26473470562E+02  0.26473470562E+02  0.00000000000E+00 0. -1.
         21   -1    0    0  501  503 -0.00000000000E+00 -0.00000000000E+00 -0.32233904003E+03  0.32233904003E+03  0.00000000000E+00 0.  1.
         24    1    1    2    0    0 -0.18185625431E+02 -0.27183649309E+02 -0.66616852958E+02  0.10942892129E+03  0.80419002446E+02 0. -1.
          1    1    1    2  501    0  0.20381235317E+02 -0.28419224378E+01 -0.18329378553E+03  0.18444533903E+03  0.00000000000E+00 0. -1.
         -2    1    1    2    0  502 -0.21956098861E+01  0.30025571747E+02 -0.45954930976E+02  0.54938250268E+02  0.00000000000E+00 0.  1.
<mgrwt>
<rscale>  2 0.68749693E+02</rscale>
<asrwt>0</asrwt>
<pdfrwt beam="1">  1       21 0.40728417E-02 0.68749693E+02</pdfrwt>
<pdfrwt beam="2">  1       21 0.49590621E-01 0.68749693E+02</pdfrwt>
<totfact> 0.14481761E+06</totfact>
</mgrwt>
</event>
<event>
 5    1  0.1745726E+000  0.7455523E+02  0.7546771E-02  0.1345254E+00
         21   -1    0    0  503  502  0.00000000000E+00  0.00000000000E+00  0.55841823700E+02  0.55841823700E+02  0.00000000000E+00 0.  1.
         21   -1    0    0  501  503 -0.00000000000E+00 -0.00000000000E+00 -0.12270128877E+03  0.12270128877E+03  0.00000000000E+00 0. -1.
         24    1    1    2    0    0  0.32083543903E+01 -0.26204965408E+02  0.99131586810E+00  0.84647459569E+02  0.80419002446E+02 0.  1.
          1    1    1    2  501    0  0.27027534471E+02  0.19949250975E+02 -0.40764881738E+02  0.52822682791E+02  0.00000000000E+00 0. -1.
         -2    1    1    2    0  502 -0.30235888862E+02  0.62557144328E+01 -0.27085899202E+02  0.41072970113E+02  0.00000000000E+00 0.  1.
<mgrwt>
<rscale>  2 0.74555234E+02</rscale>
<asrwt>0</asrwt>
<pdfrwt beam="1">  1       21 0.85910500E-02 0.74555234E+02</pdfrwt>
<pdfrwt beam="2">  1       21 0.18877121E-01 0.74555234E+02</pdfrwt>
<totfact> 0.26356808E+06</totfact>
</mgrwt>
</event>
<event>
 5    1  0.1745726E+000  0.7058709E+02  0.7546771E-02  0.1358108E+00
         21   -1    0    0  503  502  0.00000000000E+00  0.00000000000E+00  0.33236609590E+03  0.33236609590E+03  0.00000000000E+00 0. -1.
         21   -1    0    0  501  503 -0.00000000000E+00 -0.00000000000E+00 -0.17101854853E+02  0.17101854853E+02  0.00000000000E+00 0.  1.
         24    1    1    2    0    0 -0.40505702564E+01 -0.13923050373E+02  0.23730617706E+03  0.25098146560E+03  0.80419002446E+02 0. -1.
          1    1    1    2  501    0 -0.69325013582E+01  0.35006152713E+02  0.54075514388E+02  0.64789285836E+02  0.00000000000E+00 0. -1.
         -2    1    1    2    0  502  0.10983071615E+02 -0.21083102339E+02  0.23882549604E+02  0.33697199319E+02  0.00000000000E+00 0.  1.
<mgrwt>
<rscale>  2 0.70587085E+02</rscale>
<asrwt>0</asrwt>
<pdfrwt beam="1">  1       21 0.51133241E-01 0.70587085E+02</pdfrwt>
<pdfrwt beam="2">  1       21 0.26310548E-02 0.70587085E+02</pdfrwt>
<totfact> 0.27661836E+06</totfact>
</mgrwt>
</event>
<event>
 5    1  0.1745726E+000  0.7873686E+02  0.7546771E-02  0.1332675E+00
         21   -1    0    0  503  502  0.00000000000E+00  0.00000000000E+00  0.20593541962E+03  0.20593541962E+03  0.00000000000E+00 0.  1.
         21   -1    0    0  501  503 -0.00000000000E+00 -0.00000000000E+00 -0.53376121707E+02  0.53376121707E+02  0.00000000000E+00 0.  1.
         24    1    1    2    0    0  0.20781978895E+02  0.46909873027E+02  0.16988997779E+03  0.19483902931E+03  0.80419002446E+02 0.  1.
          1    1    1    2  501    0  0.83507576588E+01 -0.22750592978E+02 -0.75208094454E+01  0.25374932690E+02  0.00000000000E+00 0. -1.
         -2    1    1    2    0  502 -0.29132736554E+02 -0.24159280049E+02 -0.98098704294E+01  0.39097579330E+02  0.00000000000E+00 0.  1.
<mgrwt>
<rscale>  2 0.78736860E+02</rscale>
<asrwt>0</asrwt>
<pdfrwt beam="1">  1       21 0.31682372E-01 0.78736860E+02</pdfrwt>
<pdfrwt beam="2">  1       21 0.82117111E-02 0.78736860E+02</pdfrwt>
<totfact> 0.10891539E+06</totfact>
</mgrwt>
</event>
<event>
 5    1  0.1745726E+000  0.1444892E+03  0.7546771E-02  0.1207413E+00
         21   -1    0    0  503  502  0.00000000000E+00  0.00000000000E+00  0.12160689035E+02  0.12160689035E+02  0.00000000000E+00 0. -1.
         21   -1    0    0  501  503 -0.00000000000E+00 -0.00000000000E+00 -0.26891398501E+04  0.26891398501E+04  0.00000000000E+00 0. -1.
         24    1    1    2    0    0 -0.45023388363E+02  0.98706533238E+02 -0.17946746506E+04  0.17997484276E+04  0.80419002446E+02 0. -1.
          1    1    1    2  501    0  0.80954649376E+02 -0.78227967205E+02 -0.81366548745E+03  0.82141633510E+03  0.00000000000E+00 0. -1.
         -2    1    1    2    0  502 -0.35931261013E+02 -0.20478566033E+02 -0.68639023088E+02  0.80135776500E+02  0.00000000000E+00 0.  1.
<mgrwt>
<rscale>  2 0.14448924E+03</rscale>
<asrwt>0</asrwt>
<pdfrwt beam="1">  1       21 0.18708718E-02 0.14448924E+03</pdfrwt>
<pdfrwt beam="2">  1       21 0.41371458E+00 0.14448924E+03</pdfrwt>
<totfact> 0.10529395E+04</totfact>
</mgrwt>
</event>
<event>
 5    1  0.1745726E+000  0.1049677E+03  0.7546771E-02  0.1270183E+00
         21   -1    0    0  501  502  0.00000000000E+00  0.00000000000E+00  0.48122606610E+03  0.48122606610E+03  0.00000000000E+00 0.  1.
         21   -1    0    0  502  503 -0.00000000000E+00 -0.00000000000E+00 -0.45086092284E+02  0.45086092284E+02  0.00000000000E+00 0.  1.
         24    1    1    2    0    0 -0.19100568724E+02 -0.65451643995E+02  0.29722361736E+03  0.31536937723E+03  0.80419002446E+02 0.  1.
          1    1    1    2  501    0 -0.26130251214E+02  0.15007388654E+01  0.12941935556E+03  0.13203943290E+03  0.00000000000E+00 0. -1.
         -2    1    1    2    0  503  0.45230819939E+02  0.63950905130E+02  0.94970008952E+01  0.78903348251E+02  0.00000000000E+00 0.  1.
<mgrwt>
<rscale>  2 0.10496766E+03</rscale>
<asrwt>0</asrwt>
<pdfrwt beam="1">  1       21 0.74034776E-01 0.10496766E+03</pdfrwt>
<pdfrwt beam="2">  1       21 0.69363222E-02 0.10496766E+03</pdfrwt>
<totfact> 0.25718167E+05</totfact>
</mgrwt>
</event>
<event>
 5    1  0.1745726E+000  0.8100110E+02  0.7546771E-02  0.1326234E+00
         21   -1    0    0  503  502  0.00000000000E+00  0.00000000000E+00  0.12815249046E+03  0.12815249046E+03  0.00000000000E+00 0.  1.
         21   -1    0    0  501  503 -0.00000000000E+00 -0.00000000000E+00 -0.32912105655E+03  0.32912105655E+03  0.00000000000E+00 0.  1.
         24    1    1    2    0    0 -0.45255415836E+02  0.65151268660E+01 -0.23573787040E+03  0.25323913409E+03  0.80419002446E+02 0.  1.
          1    1    1    2  501    0  0.21720504715E+02  0.23072541362E+02 -0.78482861143E+02  0.84638537223E+02  0.00000000000E+00 0. -1.
         -2    1    1    2    0  502  0.23534911120E+02 -0.29587668228E+02  0.11325216545E+03  0.11939587569E+03  0.00000000000E+00 0.  1.
<mgrwt>
<rscale>  2 0.81001095E+02</rscale>
<asrwt>0</asrwt>
<pdfrwt beam="1">  1       21 0.19715768E-01 0.81001095E+02</pdfrwt>
<pdfrwt beam="2">  1       21 0.50634008E-01 0.81001095E+02</pdfrwt>
<totfact> 0.92513050E+04</totfact>
</mgrwt>
</event>
<event>
 5    1  0.1745726E+000  0.7451154E+02  0.7546771E-02  0.1345390E+00
         21   -1    0    0  503  502  0.00000000000E+00  0.00000000000E+00  0.23716710765E+03  0.23716710765E+03  0.00000000000E+00 0.  1.
         21   -1    0    0  501  503 -0.00000000000E+00 -0.00000000000E+00 -0.26456122682E+02  0.26456122682E+02  0.00000000000E+00 0.  1.
         24    1    1    2    0    0 -0.56863796928E+01 -0.22054921637E+02  0.12687778833E+03  0.15193401070E+03  0.80419002446E+02 0.  1.
          1    1    1    2  501    0  0.12336635070E+02 -0.19654098987E+02  0.73888573779E+01  0.24353056999E+02  0.00000000000E+00 0. -1.
         -2    1    1    2    0  502 -0.66502553771E+01  0.41709020624E+02  0.76444339258E+02  0.87336162628E+02  0.00000000000E+00 0.  1.
<mgrwt>
<rscale>  2 0.74511536E+02</rscale>
<asrwt>0</asrwt>
<pdfrwt beam="1">  1       21 0.36487246E-01 0.74511536E+02</pdfrwt>
<pdfrwt beam="2">  1       21 0.40701729E-02 0.74511536E+02</pdfrwt>
<totfact> 0.26730158E+06</totfact>
</mgrwt>
</event>
<event>
 5    1  0.1745726E+000  0.7951509E+02  0.7546771E-02  0.1330433E+00
         21   -1    0    0  503  502  0.00000000000E+00  0.00000000000E+00  0.19155332535E+03  0.19155332535E+03  0.00000000000E+00 0. -1.
         21   -1    0    0  501  503 -0.00000000000E+00 -0.00000000000E+00 -0.70202743869E+02  0.70202743869E+02  0.00000000000E+00 0. -1.
         24    1    1    2    0    0  0.21465851707E+02 -0.45811694894E+02  0.44691706763E+02  0.10499551793E+03  0.80419002446E+02 0.  0.
          1    1    1    2  501    0  0.99780183488E+01  0.23308792375E+02 -0.32347109329E+02  0.41099831315E+02  0.00000000000E+00 0. -1.
         -2    1    1    2    0  502 -0.31443870055E+02  0.22502902519E+02  0.10900598405E+03  0.11566071997E+03  0.00000000000E+00 0.  1.
<mgrwt>
<rscale>  2 0.79515094E+02</rscale>
<asrwt>0</asrwt>
<pdfrwt beam="1">  1       21 0.29469742E-01 0.79515094E+02</pdfrwt>
<pdfrwt beam="2">  1       21 0.10800422E-01 0.79515094E+02</pdfrwt>
<totfact> 0.78066084E+05</totfact>
</mgrwt>
</event>
<event>
 5    1  0.1745726E+000  0.1058530E+03  0.7546771E-02  0.1268448E+00
         21   -1    0    0  501  502  0.00000000000E+00  0.00000000000E+00  0.54908965560E+03  0.54908965560E+03  0.00000000000E+00 0. -1.
         21   -1    0    0  502  503 -0.00000000000E+00 -0.00000000000E+00 -0.40858914784E+02  0.40858914784E+02  0.00000000000E+00 0.  1.
         24    1    1    2    0    0 -0.53568126436E+02 -0.15469883091E+02  0.16608123712E+03  0.19276684032E+03  0.80419002446E+02 0.  1.
          1    1    1    2  501    0 -0.28259502529E+02 -0.67566346968E+01  0.30194619023E+03  0.30334098534E+03  0.00000000000E+00 0. -1.
         -2    1    1    2    0  503  0.81827628965E+02  0.22226517788E+02  0.40203313477E+02  0.93840744719E+02  0.00000000000E+00 0.  1.
<mgrwt>
<rscale>  2 0.10585300E+03</rscale>
<asrwt>0</asrwt>
<pdfrwt beam="1">  1       21 0.84475326E-01 0.10585300E+03</pdfrwt>
<pdfrwt beam="2">  1       21 0.62859873E-02 0.10585300E+03</pdfrwt>
<totfact> 0.22683391E+05</totfact>
</mgrwt>
</event>
<event>
 5    1  0.1745726E+000  0.9885169E+02  0.7546771E-02  0.1282729E+00
         21   -1    0    0  501  502  0.00000000000E+00  0.00000000000E+00  0.22151370046E+03  0.22151370046E+03  0.00000000000E+00 0. -1.
         21   -1    0    0  502  503 -0.00000000000E+00 -0.00000000000E+00 -0.10100331926E+03  0.10100331926E+03  0.00000000000E+00 0. -1.
         24    1    1    2    0    0  0.54446309701E+02 -0.26525078611E+02 -0.10222062739E+02  0.10119133835E+03  0.80419002446E+02 0. -1.
          1    1    1    2  501    0 -0.49158548465E+02 -0.17881204301E+02  0.15969642703E+03  0.16804537828E+03  0.00000000000E+00 0. -1.
         -2    1    1    2    0  503 -0.52877612362E+01  0.44406282912E+02 -0.28963983098E+02  0.53280303094E+02  0.00000000000E+00 0.  1.
<mgrwt>
<rscale>  2 0.98851685E+02</rscale>
<asrwt>0</asrwt>
<pdfrwt beam="1">  1       21 0.34079031E-01 0.98851685E+02</pdfrwt>
<pdfrwt beam="2">  1       21 0.15538972E-01 0.98851685E+02</pdfrwt>
<totfact> 0.31077356E+05</totfact>
</mgrwt>
</event>
<event>
 5    1  0.1745726E+000  0.8062844E+02  0.7546771E-02  0.1327277E+00
         21   -1    0    0  501  502  0.00000000000E+00  0.00000000000E+00  0.39836665363E+03  0.39836665363E+03  0.00000000000E+00 0. -1.
         21   -1    0    0  502  503 -0.00000000000E+00 -0.00000000000E+00 -0.42045543231E+02  0.42045543231E+02  0.00000000000E+00 0.  1.
         24    1    1    2    0    0 -0.64694309942E+01 -0.47579270112E+00  0.21051359097E+03  0.22544460041E+03  0.80419002446E+02 0. -1.
          1    1    1    2  501    0  0.29343319222E+02 -0.30334005977E+02  0.16622644156E+03  0.17150047281E+03  0.00000000000E+00 0. -1.
         -2    1    1    2    0  503 -0.22873888228E+02  0.30809798678E+02 -0.20418922125E+02  0.43467123645E+02  0.00000000000E+00 0.  1.
<mgrwt>
<rscale>  2 0.80628445E+02</rscale>
<asrwt>0</asrwt>
<pdfrwt beam="1">  1       21 0.61287175E-01 0.80628445E+02</pdfrwt>
<pdfrwt beam="2">  1       21 0.64685454E-02 0.80628445E+02</pdfrwt>
<totfact> 0.43582009E+05</totfact>
</mgrwt>
</event>
<event>
 5    1  0.1745726E+000  0.7676982E+02  0.7546771E-02  0.1338476E+00
         21   -1    0    0  503  502  0.00000000000E+00  0.00000000000E+00  0.23481237625E+03  0.23481237625E+03  0.00000000000E+00 0.  1.
         21   -1    0    0  501  503 -0.00000000000E+00 -0.00000000000E+00 -0.76196656571E+02  0.76196656571E+02  0.00000000000E+00 0. -1.
         24    1    1    2    0    0 -0.20580937720E+01 -0.22748031219E+02  0.18878391990E+03  0.20646620314E+03  0.80419002446E+02 0.  1.
          1    1    1    2  501    0  0.30166579906E+02  0.28214528964E+02 -0.53511511313E+02  0.67598550509E+02  0.00000000000E+00 0. -1.
         -2    1    1    2    0  502 -0.28108486134E+02 -0.54664977450E+01  0.23343311093E+02  0.36944279166E+02  0.00000000000E+00 0.  1.
<mgrwt>
<rscale>  2 0.76769824E+02</rscale>
<asrwt>0</asrwt>
<pdfrwt beam="1">  1       21 0.36124981E-01 0.76769824E+02</pdfrwt>
<pdfrwt beam="2">  1       21 0.11722563E-01 0.76769824E+02</pdfrwt>
<totfact> 0.45777559E+05</totfact>
</mgrwt>
</event>
<event>
 5    1  0.1745726E+000  0.1216083E+03  0.7546771E-02  0.1240467E+00
         21   -1    0    0  503  502  0.00000000000E+00  0.00000000000E+00  0.42276128456E+02  0.42276128456E+02  0.00000000000E+00 0.  1.
         21   -1    0    0  501  503 -0.00000000000E+00 -0.00000000000E+00 -0.55092023092E+03  0.55092023092E+03  0.00000000000E+00 0. -1.
         24    1    1    2    0    0 -0.76325480280E+01  0.57009403766E+02 -0.13868759260E+03  0.17032261213E+03  0.80419002446E+02 0.  0.
          1    1    1    2  501    0  0.42263814417E+02 -0.88158856449E+02 -0.36280746403E+03  0.37574921149E+03  0.00000000000E+00 0. -1.
         -2    1    1    2    0  502 -0.34631266389E+02  0.31149452682E+02 -0.71490458372E+01  0.47124535759E+02  0.00000000000E+00 0.  1.
<mgrwt>
<rscale>  2 0.12160829E+03</rscale>
<asrwt>0</asrwt>
<pdfrwt beam="1">  1       21 0.65040194E-02 0.12160829E+03</pdfrwt>
<pdfrwt beam="2">  1       21 0.84756963E-01 0.12160829E+03</pdfrwt>
<totfact> 0.21147979E+05</totfact>
</mgrwt>
</event>
<event>
 5    1  0.1745726E+000  0.7545158E+02  0.7546771E-02  0.1342478E+00
         21   -1    0    0  503  502  0.00000000000E+00  0.00000000000E+00  0.62596210344E+01  0.62596210344E+01  0.00000000000E+00 0. -1.
         21   -1    0    0  501  503 -0.00000000000E+00 -0.00000000000E+00 -0.14889082847E+04  0.14889082847E+04  0.00000000000E+00 0.  1.
         24    1    1    2    0    0  0.44539568418E+00 -0.27497202194E+02 -0.38337745293E+03  0.39268534716E+03  0.80419002446E+02 0. -1.
          1    1    1    2  501    0  0.12561927872E+02 -0.16097037832E+02 -0.74787632796E+03  0.74815500973E+03  0.00000000000E+00 0. -1.
         -2    1    1    2    0  502 -0.13007323556E+02  0.43594240026E+02 -0.35139488282E+03  0.35432754889E+03  0.00000000000E+00 0.  1.
<mgrwt>
<rscale>  2 0.75451581E+02</rscale>
<asrwt>0</asrwt>
<pdfrwt beam="1">  1       21 0.96301693E-03 0.75451581E+02</pdfrwt>
<pdfrwt beam="2">  1       21 0.22906322E+00 0.75451581E+02</pdfrwt>
<totfact> 0.37877800E+05</totfact>
</mgrwt>
</event>
<event>
 5    1  0.1745726E+000  0.1580739E+03  0.7546771E-02  0.1190889E+00
         21   -1    0    0  501  502  0.00000000000E+00  0.00000000000E+00  0.64345735184E+02  0.64345735184E+02  0.00000000000E+00 0. -1.
         21   -1    0    0  502  503 -0.00000000000E+00 -0.00000000000E+00 -0.42058015792E+03  0.42058015792E+03  0.00000000000E+00 0. -1.
         24    1    1    2    0    0 -0.14306972785E+02 -0.12843829189E+03 -0.12419593580E+03  0.19645083537E+03  0.80419002446E+02 0. -1.
          1    1    1    2  501    0  0.43577163435E+02  0.12740115316E+03 -0.15104059460E+03  0.20234446920E+03  0.00000000000E+00 0. -1.
         -2    1    1    2    0  503 -0.29270190650E+02  0.10371387359E+01 -0.80997892343E+02  0.86130588535E+02  0.00000000000E+00 0.  1.
<mgrwt>
<rscale>  2 0.15807385E+03</rscale>
<asrwt>0</asrwt>
<pdfrwt beam="1">  1       21 0.98993442E-02 0.15807385E+03</pdfrwt>
<pdfrwt beam="2">  1       21 0.64704638E-01 0.15807385E+03</pdfrwt>
<totfact> 0.18384157E+05</totfact>
</mgrwt>
</event>
<event>
 5    1  0.1745726E+000  0.7952841E+02  0.7546771E-02  0.1330395E+00
         21   -1    0    0  501  502  0.00000000000E+00  0.00000000000E+00  0.12597941448E+02  0.12597941448E+02  0.00000000000E+00 0. -1.
         21   -1    0    0  502  503 -0.00000000000E+00 -0.00000000000E+00 -0.68203218449E+03  0.68203218449E+03  0.00000000000E+00 0.  1.
         24    1    1    2    0    0  0.27238935484E+02  0.18215817764E+02 -0.28935248695E+03  0.30210238874E+03  0.80419002446E+02 0.  0.
          1    1    1    2  501    0 -0.59630999134E+01  0.24114900625E+02 -0.28662126345E+02  0.37928939866E+02  0.00000000000E+00 0. -1.
         -2    1    1    2    0  503 -0.21275835570E+02 -0.42330718389E+02 -0.35141962975E+03  0.35459879734E+03  0.00000000000E+00 0.  1.
<mgrwt>
<rscale>  2 0.79528405E+02</rscale>
<asrwt>0</asrwt>
<pdfrwt beam="1">  1       21 0.19381449E-02 0.79528405E+02</pdfrwt>
<pdfrwt beam="2">  1       21 0.10492803E+00 0.79528405E+02</pdfrwt>
<totfact> 0.95342238E+05</totfact>
</mgrwt>
</event>
<event>
 5    1  0.1745726E+000  0.1184503E+03  0.7546771E-02  0.1245676E+00
         21   -1    0    0  501  502  0.00000000000E+00  0.00000000000E+00  0.63163140385E+02  0.63163140385E+02  0.00000000000E+00 0. -1.
         21   -1    0    0  502  503 -0.00000000000E+00 -0.00000000000E+00 -0.31506862924E+03  0.31506862924E+03  0.00000000000E+00 0.  1.
         24    1    1    2    0    0 -0.78392095526E+02  0.27120774899E+02 -0.22201915405E+03  0.25028099767E+03  0.80419002446E+02 0.  1.
          1    1    1    2  501    0  0.64834516849E+02 -0.58410747717E+02 -0.84548276979E+01  0.87674478243E+02  0.00000000000E+00 0. -1.
         -2    1    1    2    0  503  0.13557578678E+02  0.31289972818E+02 -0.21431507102E+02  0.40276293712E+02  0.00000000000E+00 0.  1.
<mgrwt>
<rscale>  2 0.11845030E+03</rscale>
<asrwt>0</asrwt>
<pdfrwt beam="1">  1       21 0.97174061E-02 0.11845030E+03</pdfrwt>
<pdfrwt beam="2">  1       21 0.48472097E-01 0.11845030E+03</pdfrwt>
<totfact> 0.35175412E+05</totfact>
</mgrwt>
</event>
<event>
 5    1  0.1745726E+000  0.8746708E+02  0.7546771E-02  0.1309104E+00
         21   -1    0    0  501  502  0.00000000000E+00  0.00000000000E+00  0.31131058970E+02  0.31131058970E+02  0.00000000000E+00 0.  1.
         21   -1    0    0  502  503 -0.00000000000E+00 -0.00000000000E+00 -0.25721863797E+03  0.25721863797E+03  0.00000000000E+00 0.  1.
         24    1    1    2    0    0 -0.46333417019E+02 -0.46929024648E+02 -0.10972317467E+03  0.15118038861E+03  0.80419002446E+02 0.  1.
          1    1    1    2  501    0  0.90525171590E+01  0.27378713629E+02 -0.33324982211E+02  0.44069223572E+02  0.00000000000E+00 0. -1.
         -2    1    1    2    0  503  0.37280899860E+02  0.19550311018E+02 -0.83039422122E+02  0.93100084756E+02  0.00000000000E+00 0.  1.
<mgrwt>
<rscale>  2 0.87467081E+02</rscale>
<asrwt>0</asrwt>
<pdfrwt beam="1">  1       21 0.47893938E-02 0.87467081E+02</pdfrwt>
<pdfrwt beam="2">  1       21 0.39572097E-01 0.87467081E+02</pdfrwt>
<totfact> 0.17554997E+06</totfact>
</mgrwt>
</event>
<event>
 5    1  0.1745726E+000  0.1618441E+03  0.7546771E-02  0.1186630E+00
         21   -1    0    0  503  502  0.00000000000E+00  0.00000000000E+00  0.10771191070E+03  0.10771191070E+03  0.00000000000E+00 0. -1.
         21   -1    0    0  501  503 -0.00000000000E+00 -0.00000000000E+00 -0.24411589618E+03  0.24411589618E+03  0.00000000000E+00 0. -1.
         24    1    1    2    0    0  0.13643476737E+03 -0.59916815644E+02 -0.82188113597E+02  0.18821947964E+03  0.80419002446E+02 0. -1.
          1    1    1    2  501    0 -0.12305091785E+03  0.38186820480E+02 -0.44858803533E+02  0.13642607484E+03  0.00000000000E+00 0. -1.
         -2    1    1    2    0  502 -0.13383849518E+02  0.21729995164E+02 -0.93570683532E+01  0.27182252407E+02  0.00000000000E+00 0.  1.
<mgrwt>
<rscale>  2 0.16184410E+03</rscale>
<asrwt>0</asrwt>
<pdfrwt beam="1">  1       21 0.16571064E-01 0.16184410E+03</pdfrwt>
<pdfrwt beam="2">  1       21 0.37556291E-01 0.16184410E+03</pdfrwt>
<totfact> 0.22550219E+05</totfact>
</mgrwt>
</event>
<event>
 5    1  0.1745726E+000  0.8363165E+02  0.7546771E-02  0.1319050E+00
         21   -1    0    0  503  502  0.00000000000E+00  0.00000000000E+00  0.18286596720E+02  0.18286596720E+02  0.00000000000E+00 0. -1.
         21   -1    0    0  501  503 -0.00000000000E+00 -0.00000000000E+00 -0.54730892879E+03  0.54730892879E+03  0.00000000000E+00 0.  1.
         24    1    1    2    0    0  0.22474445377E+02  0.33922415448E+02 -0.33005541749E+03  0.34213977485E+03  0.80419002446E+02 0.  1.
          1    1    1    2  501    0 -0.94250817238E+01 -0.53105040695E+02 -0.19170157912E+03  0.19914435204E+03  0.00000000000E+00 0. -1.
         -2    1    1    2    0  502 -0.13049363654E+02  0.19182625247E+02 -0.72653354483E+01  0.24311398609E+02  0.00000000000E+00 0.  1.
<mgrwt>
<rscale>  2 0.83631647E+02</rscale>
<asrwt>0</asrwt>
<pdfrwt beam="1">  1       21 0.28133231E-02 0.83631647E+02</pdfrwt>
<pdfrwt beam="2">  1       21 0.84201357E-01 0.83631647E+02</pdfrwt>
<totfact> 0.86522932E+05</totfact>
</mgrwt>
</event>
<event>
 5    1  0.1745726E+000  0.9580321E+02  0.7546771E-02  0.1289377E+00
         21   -1    0    0  501  502  0.00000000000E+00  0.00000000000E+00  0.15123698896E+04  0.15123698896E+04  0.00000000000E+00 0.  1.
         21   -1    0    0  502  503 -0.00000000000E+00 -0.00000000000E+00 -0.79229544079E+01  0.79229544079E+01  0.00000000000E+00 0.  1.
         24    1    1    2    0    0 -0.72733982188E+02  0.61102937071E+01  0.98179277754E+03  0.98778127226E+03  0.80419002446E+02 0.  1.
          1    1    1    2  501    0  0.35594330253E+02 -0.22815584973E+02  0.41926298861E+03  0.42138932222E+03  0.00000000000E+00 0. -1.
         -2    1    1    2    0  503  0.37139651934E+02  0.16705291266E+02  0.10339116900E+03  0.11112224948E+03  0.00000000000E+00 0.  1.
<mgrwt>
<rscale>  2 0.95803212E+02</rscale>
<asrwt>0</asrwt>
<pdfrwt beam="1">  1       21 0.23267206E+00 0.95803212E+02</pdfrwt>
<pdfrwt beam="2">  1       21 0.12189173E-02 0.95803212E+02</pdfrwt>
<totfact> 0.24552041E+05</totfact>
</mgrwt>
</event>
<event>
 5    1  0.1745726E+000  0.7317306E+02  0.7546771E-02  0.1349624E+00
         21   -1    0    0  503  502  0.00000000000E+00  0.00000000000E+00  0.31940833235E+02  0.31940833235E+02  0.00000000000E+00 0.  1.
         21   -1    0    0  501  503 -0.00000000000E+00 -0.00000000000E+00 -0.25584002391E+03  0.25584002391E+03  0.00000000000E+00 0. -1.
         24    1    1    2    0    0  0.12197306585E+02  0.15597238844E+02 -0.18098755532E+03  0.19903708017E+03  0.80419002446E+02 0. -1.
          1    1    1    2  501    0  0.20143532399E+02 -0.22767414489E+02 -0.46360725082E+02  0.55438559597E+02  0.00000000000E+00 0. -1.
         -2    1    1    2    0  502 -0.32340838984E+02  0.71701756450E+01  0.34490897229E+01  0.33305217382E+02  0.00000000000E+00 0.  1.
<mgrwt>
<rscale>  2 0.73173055E+02</rscale>
<asrwt>0</asrwt>
<pdfrwt beam="1">  1       21 0.49139743E-02 0.73173055E+02</pdfrwt>
<pdfrwt beam="2">  1       21 0.39360004E-01 0.73173055E+02</pdfrwt>
<totfact> 0.16891431E+06</totfact>
</mgrwt>
</event>
<event>
 5    1  0.1745726E+000  0.8873719E+02  0.7546771E-02  0.1305939E+00
         21   -1    0    0  501  502  0.00000000000E+00  0.00000000000E+00  0.25944313115E+02  0.25944313115E+02  0.00000000000E+00 0.  1.
         21   -1    0    0  502  503 -0.00000000000E+00 -0.00000000000E+00 -0.54388869458E+03  0.54388869458E+03  0.00000000000E+00 0. -1.
         24    1    1    2    0    0  0.28850281146E+02  0.22521856291E+02 -0.24589814498E+03  0.26129042538E+03  0.80419002446E+02 0.  1.
          1    1    1    2  501    0 -0.35365963839E+02 -0.49795872035E+02 -0.36124657332E+02  0.70960349050E+02  0.00000000000E+00 0. -1.
         -2    1    1    2    0  503  0.65156826931E+01  0.27274015743E+02 -0.23592157915E+03  0.23758223327E+03  0.00000000000E+00 0.  1.
<mgrwt>
<rscale>  2 0.88737189E+02</rscale>
<asrwt>0</asrwt>
<pdfrwt beam="1">  1       21 0.39914327E-02 0.88737189E+02</pdfrwt>
<pdfrwt beam="2">  1       21 0.83675186E-01 0.88737189E+02</pdfrwt>
<totfact> 0.49592264E+05</totfact>
</mgrwt>
</event>
<event>
 5    1  0.1745726E+000  0.6902645E+02  0.7546771E-02  0.1363435E+00
         21   -1    0    0  501  502  0.00000000000E+00  0.00000000000E+00  0.12203089554E+03  0.12203089554E+03  0.00000000000E+00 0. -1.
         21   -1    0    0  502  503 -0.00000000000E+00 -0.00000000000E+00 -0.51882519815E+02  0.51882519815E+02  0.00000000000E+00 0.  1.
         24    1    1    2    0    0 -0.11741868629E+02 -0.10440347469E+02  0.69398487892E+02  0.10737894771E+03  0.80419002446E+02 0. -1.
          1    1    1    2  501    0 -0.10154703864E+02 -0.17731042659E+02  0.17699426769E+02  0.27032898333E+02  0.00000000000E+00 0. -1.
         -2    1    1    2    0  503  0.21896572493E+02  0.28171390127E+02 -0.16949538934E+02  0.39501569320E+02  0.00000000000E+00 0.  1.
<mgrwt>
<rscale>  2 0.69026448E+02</rscale>
<asrwt>0</asrwt>
<pdfrwt beam="1">  1       21 0.18773984E-01 0.69026448E+02</pdfrwt>
<pdfrwt beam="2">  1       21 0.79819262E-02 0.69026448E+02</pdfrwt>
<totfact> 0.30024856E+06</totfact>
</mgrwt>
</event>
<event>
 5    1  0.1745726E+000  0.8830494E+02  0.7546771E-02  0.1307009E+00
         21   -1    0    0  501  502  0.00000000000E+00  0.00000000000E+00  0.53582244802E+03  0.53582244802E+03  0.00000000000E+00 0. -1.
         21   -1    0    0  502  503 -0.00000000000E+00 -0.00000000000E+00 -0.26323731221E+02  0.26323731221E+02  0.00000000000E+00 0. -1.
         24    1    1    2    0    0 -0.40021263389E+02 -0.15496589970E+02  0.24527456817E+03  0.26166519748E+03  0.80419002446E+02 0. -1.
          1    1    1    2  501    0  0.61928034238E+02  0.88116841011E+01  0.26976012993E+03  0.27691741530E+03  0.00000000000E+00 0. -1.
         -2    1    1    2    0  503 -0.21906770849E+02  0.66849058685E+01 -0.55359812962E+01  0.23563566462E+02  0.00000000000E+00 0.  1.
<mgrwt>
<rscale>  2 0.88304941E+02</rscale>
<asrwt>0</asrwt>
<pdfrwt beam="1">  1       21 0.82434215E-01 0.88304941E+02</pdfrwt>
<pdfrwt beam="2">  1       21 0.40498052E-02 0.88304941E+02</pdfrwt>
<totfact> 0.50058603E+05</totfact>
</mgrwt>
</event>
<event>
 5    1  0.1745726E+000  0.1082545E+03  0.7546771E-02  0.1263837E+00
         21   -1    0    0  503  502  0.00000000000E+00  0.00000000000E+00  0.41375885758E+03  0.41375885758E+03  0.00000000000E+00 0.  1.
         21   -1    0    0  501  503 -0.00000000000E+00 -0.00000000000E+00 -0.29747926984E+02  0.29747926984E+02  0.00000000000E+00 0. -1.
         24    1    1    2    0    0 -0.44208586627E+02 -0.63209908451E+02  0.18544925860E+03  0.21635280245E+03  0.80419002446E+02 0.  0.
          1    1    1    2  501    0  0.31434790958E+02 -0.82378799902E+01  0.32671375484E+02  0.46080663248E+02  0.00000000000E+00 0. -1.
         -2    1    1    2    0  502  0.12773795669E+02  0.71447788441E+02  0.16589029651E+03  0.18107331887E+03  0.00000000000E+00 0.  1.
<mgrwt>
<rscale>  2 0.10825453E+03</rscale>
<asrwt>0</asrwt>
<pdfrwt beam="1">  1       21 0.63655205E-01 0.10825453E+03</pdfrwt>
<pdfrwt beam="2">  1       21 0.45766045E-02 0.10825453E+03</pdfrwt>
<totfact> 0.71715560E+05</totfact>
</mgrwt>
</event>
<event>
 5    1  0.1745726E+000  0.1614404E+03  0.7546771E-02  0.1187080E+00
         21   -1    0    0  503  502  0.00000000000E+00  0.00000000000E+00  0.25958579937E+03  0.25958579937E+03  0.00000000000E+00 0. -1.
         21   -1    0    0  501  503 -0.00000000000E+00 -0.00000000000E+00 -0.12971472905E+03  0.12971472905E+03  0.00000000000E+00 0. -1.
         24    1    1    2    0    0  0.12248699908E+03 -0.30614497671E+02  0.11815869041E+03  0.19070659266E+03  0.80419002446E+02 0. -1.
          1    1    1    2  501    0 -0.14504741594E+03  0.15147758239E+02 -0.29829268799E+02  0.14885561034E+03  0.00000000000E+00 0. -1.
         -2    1    1    2    0  502  0.22560416867E+02  0.15466739432E+02  0.41541648711E+02  0.49738325420E+02  0.00000000000E+00 0.  1.
<mgrwt>
<rscale>  2 0.16144039E+03</rscale>
<asrwt>0</asrwt>
<pdfrwt beam="1">  1       21 0.39936277E-01 0.16144039E+03</pdfrwt>
<pdfrwt beam="2">  1       21 0.19956112E-01 0.16144039E+03</pdfrwt>
<totfact> 0.14157882E+05</totfact>
</mgrwt>
</event>
<event>
 5    1  0.1745726E+000  0.1352893E+03  0.7546771E-02  0.1219812E+00
         21   -1    0    0  501  502  0.00000000000E+00  0.00000000000E+00  0.56890500942E+03  0.56890500942E+03  0.00000000000E+00 0. -1.
         21   -1    0    0  502  503 -0.00000000000E+00 -0.00000000000E+00 -0.83035415710E+02  0.83035415710E+02  0.00000000000E+00 0. -1.
         24    1    1    2    0    0  0.37910815553E+02  0.10079327100E+03 -0.28822510466E+01  0.13443227567E+03  0.80419002446E+02 0. -1.
          1    1    1    2  501    0  0.20266959713E+02 -0.64495298719E+02  0.39832634662E+03  0.40402261276E+03  0.00000000000E+00 0. -1.
         -2    1    1    2    0  503 -0.58177775266E+02 -0.36297972285E+02  0.90425498138E+02  0.11348553670E+03  0.00000000000E+00 0.  1.
<mgrwt>
<rscale>  2 0.13528931E+03</rscale>
<asrwt>0</asrwt>
<pdfrwt beam="1">  1       21 0.87523845E-01 0.13528931E+03</pdfrwt>
<pdfrwt beam="2">  1       21 0.12774680E-01 0.13528931E+03</pdfrwt>
<totfact> 0.60435494E+04</totfact>
</mgrwt>
</event>
<event>
 5    1  0.1745726E+000  0.7131874E+02  0.7546771E-02  0.1355665E+00
         21   -1    0    0  501  502  0.00000000000E+00  0.00000000000E+00  0.85237383094E+03  0.85237383094E+03  0.00000000000E+00 0. -1.
         21   -1    0    0  502  503 -0.00000000000E+00 -0.00000000000E+00 -0.64882098237E+01  0.64882098237E+01  0.00000000000E+00 0.  1.
         24    1    1    2    0    0  0.18111464085E+02 -0.95085229636E+01  0.36643902582E+03  0.37571693166E+03  0.80419002446E+02 0.  1.
          1    1    1    2  501    0 -0.24533264515E+02 -0.18623969997E+02  0.24324945055E+03  0.24519181985E+03  0.00000000000E+00 0. -1.
         -2    1    1    2    0  503  0.64218004299E+01  0.28132492960E+02  0.23619714475E+03  0.23795328926E+03  0.00000000000E+00 0.  1.
<mgrwt>
<rscale>  2 0.71318744E+02</rscale>
<asrwt>0</asrwt>
<pdfrwt beam="1">  1       21 0.13113435E+00 0.71318744E+02</pdfrwt>
<pdfrwt beam="2">  1       21 0.99818680E-03 0.71318744E+02</pdfrwt>
<totfact> 0.15904505E+06</totfact>
</mgrwt>
</event>
<event>
 5    1  0.1745726E+000  0.1024919E+03  0.7546771E-02  0.1275141E+00
         21   -1    0    0  501  502  0.00000000000E+00  0.00000000000E+00  0.28414976728E+03  0.28414976728E+03  0.00000000000E+00 0. -1.
         21   -1    0    0  502  503 -0.00000000000E+00 -0.00000000000E+00 -0.13627651546E+03  0.13627651546E+03  0.00000000000E+00 0. -1.
         24    1    1    2    0    0  0.62814850930E+02  0.31835866102E+02  0.13061786221E+03  0.16878231469E+03  0.80419002446E+02 0. -1.
          1    1    1    2  501    0 -0.12624625540E+02 -0.44557794926E+02  0.12434755296E+03  0.13269171860E+03  0.00000000000E+00 0. -1.
         -2    1    1    2    0  503 -0.50190225390E+02  0.12721928825E+02 -0.10709216335E+03  0.11895224945E+03  0.00000000000E+00 0.  1.
<mgrwt>
<rscale>  2 0.10249188E+03</rscale>
<asrwt>0</asrwt>
<pdfrwt beam="1">  1       21 0.43715349E-01 0.10249188E+03</pdfrwt>
<pdfrwt beam="2">  1       21 0.20965618E-01 0.10249188E+03</pdfrwt>
<totfact> 0.11004674E+05</totfact>
</mgrwt>
</event>
<event>
 5    1  0.1745726E+000  0.1037782E+03  0.7546771E-02  0.1272546E+00
         21   -1    0    0  501  502  0.00000000000E+00  0.00000000000E+00  0.27011416556E+02  0.27011416556E+02  0.00000000000E+00 0. -1.
         21   -1    0    0  502  503 -0.00000000000E+00 -0.00000000000E+00 -0.48278603757E+03  0.48278603757E+03  0.00000000000E+00 0. -1.
         24    1    1    2    0    0  0.56754322982E+02  0.34011438163E+02 -0.29339125553E+03  0.31132535374E+03  0.80419002446E+02 0. -1.
          1    1    1    2  501    0 -0.60761777379E+02 -0.55055521159E+02 -0.84688804449E+02  0.11787831692E+03  0.00000000000E+00 0. -1.
         -2    1    1    2    0  503  0.40074543968E+01  0.21044082996E+02 -0.77694561034E+02  0.80593783470E+02  0.00000000000E+00 0.  1.
<mgrwt>
<rscale>  2 0.10377817E+03</rscale>
<asrwt>0</asrwt>
<pdfrwt beam="1">  1       21 0.41556029E-02 0.10377817E+03</pdfrwt>
<pdfrwt beam="2">  1       21 0.74274769E-01 0.10377817E+03</pdfrwt>
<totfact> 0.60311241E+05</totfact>
</mgrwt>
</event>
<event>
 5    1  0.1745726E+000  0.7711188E+02  0.7546771E-02  0.1337453E+00
         21   -1    0    0  503  502  0.00000000000E+00  0.00000000000E+00  0.20655749788E+03  0.20655749788E+03  0.00000000000E+00 0. -1.
         21   -1    0    0  501  503 -0.00000000000E+00 -0.00000000000E+00 -0.71958161431E+02  0.71958161431E+02  0.00000000000E+00 0. -1.
         24    1    1    2    0    0 -0.53872389813E+02 -0.14796076489E+02  0.14184319196E+03  0.17235969750E+03  0.80419002446E+02 0. -1.
          1    1    1    2  501    0  0.29280695885E+02  0.11642560986E+02 -0.48609550268E+02  0.57929239207E+02  0.00000000000E+00 0. -1.
         -2    1    1    2    0  502  0.24591693927E+02  0.31535155027E+01  0.41365694760E+02  0.48226722605E+02  0.00000000000E+00 0.  1.
<mgrwt>
<rscale>  2 0.77111879E+02</rscale>
<asrwt>0</asrwt>
<pdfrwt beam="1">  1       21 0.31778076E-01 0.77111879E+02</pdfrwt>
<pdfrwt beam="2">  1       21 0.11070486E-01 0.77111879E+02</pdfrwt>
<totfact> 0.64752924E+05</totfact>
</mgrwt>
</event>
<event>
 5    1  0.1745726E+000  0.1365258E+03  0.7546771E-02  0.1218082E+00
         21   -1    0    0  503  502  0.00000000000E+00  0.00000000000E+00  0.35042963700E+03  0.35042963700E+03  0.00000000000E+00 0. -1.
         21   -1    0    0  501  503 -0.00000000000E+00 -0.00000000000E+00 -0.10162041415E+03  0.10162041415E+03  0.00000000000E+00 0.  1.
         24    1    1    2    0    0 -0.35302139171E+02  0.11677129309E+03  0.23507655811E+03  0.27678507916E+03  0.80419002446E+02 0.  0.
          1    1    1    2  501    0  0.18724094989E+02 -0.15464987215E+02 -0.49192189662E+02  0.54860086460E+02  0.00000000000E+00 0. -1.
         -2    1    1    2    0  502  0.16578044182E+02 -0.10130630588E+03  0.62924854407E+02  0.12040488554E+03  0.00000000000E+00 0.  1.
<mgrwt>
<rscale>  2 0.13652582E+03</rscale>
<asrwt>0</asrwt>
<pdfrwt beam="1">  1       21 0.53912251E-01 0.13652582E+03</pdfrwt>
<pdfrwt beam="2">  1       21 0.15633910E-01 0.13652582E+03</pdfrwt>
<totfact> 0.12076434E+05</totfact>
</mgrwt>
</event>
<event>
 5    1  0.1745726E+000  0.7665827E+02  0.7546771E-02  0.1338811E+00
         21   -1    0    0  503  502  0.00000000000E+00  0.00000000000E+00  0.84385884005E+01  0.84385884005E+01  0.00000000000E+00 0. -1.
         21   -1    0    0  501  503 -0.00000000000E+00 -0.00000000000E+00 -0.74675970961E+03  0.74675970961E+03  0.00000000000E+00 0. -1.
         24    1    1    2    0    0 -0.44734677377E+02 -0.21530827764E+02 -0.37431113219E+03  0.38605803650E+03  0.80419002446E+02 0. -1.
          1    1    1    2  501    0  0.31832247094E+02 -0.20810907411E+01 -0.24842170657E+03  0.25046150840E+03  0.00000000000E+00 0. -1.
         -2    1    1    2    0  502  0.12902430283E+02  0.23611918505E+02 -0.11558828244E+03  0.11867875312E+03  0.00000000000E+00 0.  1.
<mgrwt>
<rscale>  2 0.76658269E+02</rscale>
<asrwt>0</asrwt>
<pdfrwt beam="1">  1       21 0.12982445E-02 0.76658269E+02</pdfrwt>
<pdfrwt beam="2">  1       21 0.11488610E+00 0.76658269E+02</pdfrwt>
<totfact> 0.14515507E+06</totfact>
</mgrwt>
</event>
<event>
 5    1  0.1745726E+000  0.7894331E+02  0.7546771E-02  0.1332077E+00
         21   -1    0    0  501  502  0.00000000000E+00  0.00000000000E+00  0.23139044098E+02  0.23139044098E+02  0.00000000000E+00 0.  1.
         21   -1    0    0  502  503 -0.00000000000E+00 -0.00000000000E+00 -0.42172063980E+03  0.42172063980E+03  0.00000000000E+00 0. -1.
         24    1    1    2    0    0  0.22663370326E+02 -0.15020215654E+02 -0.84228022528E+02  0.11958599820E+03  0.80419002446E+02 0. -1.
          1    1    1    2  501    0 -0.11368729699E+01 -0.26342374932E+02 -0.47056980315E+02  0.53940454147E+02  0.00000000000E+00 0. -1.
         -2    1    1    2    0  503 -0.21526497356E+02  0.41362590585E+02 -0.26729659285E+03  0.27133323154E+03  0.00000000000E+00 0.  1.
<mgrwt>
<rscale>  2 0.78943306E+02</rscale>
<asrwt>0</asrwt>
<pdfrwt beam="1">  1       21 0.35598529E-02 0.78943306E+02</pdfrwt>
<pdfrwt beam="2">  1       21 0.64880100E-01 0.78943306E+02</pdfrwt>
<totfact> 0.10386879E+06</totfact>
</mgrwt>
</event>
<event>
 5    1  0.1745726E+000  0.8090393E+02  0.7546771E-02  0.1326506E+00
         21   -1    0    0  503  502  0.00000000000E+00  0.00000000000E+00  0.53328654251E+01  0.53328654251E+01  0.00000000000E+00 0.  1.
         21   -1    0    0  501  503 -0.00000000000E+00 -0.00000000000E+00 -0.18417462625E+04  0.18417462625E+04  0.00000000000E+00 0.  1.
         24    1    1    2    0    0  0.22942563311E+02  0.92360447713E+00 -0.41517631999E+03  0.42351600547E+03  0.80419002446E+02 0.  1.
          1    1    1    2  501    0  0.14801245647E+02  0.27294343380E+02 -0.76855484762E+03  0.76918178076E+03  0.00000000000E+00 0. -1.
         -2    1    1    2    0  502 -0.37743808959E+02 -0.28217947858E+02 -0.65268222946E+03  0.65438134168E+03  0.00000000000E+00 0.  1.
<mgrwt>
<rscale>  2 0.80903933E+02</rscale>
<asrwt>0</asrwt>
<pdfrwt beam="1">  1       21 0.82044058E-03 0.80903933E+02</pdfrwt>
<pdfrwt beam="2">  1       21 0.28334567E+00 0.80903933E+02</pdfrwt>
<totfact> 0.24187167E+05</totfact>
</mgrwt>
</event>
<event>
 5    1  0.1745726E+000  0.9512140E+02  0.7546771E-02  0.1290903E+00
         21   -1    0    0  503  502  0.00000000000E+00  0.00000000000E+00  0.56146596411E+02  0.56146596411E+02  0.00000000000E+00 0.  1.
         21   -1    0    0  501  503 -0.00000000000E+00 -0.00000000000E+00 -0.55211376919E+03  0.55211376919E+03  0.00000000000E+00 0.  1.
         24    1    1    2    0    0 -0.57996398997E+02 -0.21343924238E+02 -0.42372480786E+03  0.43569378484E+03  0.80419002446E+02 0.  1.
          1    1    1    2  501    0  0.24989797288E+02  0.42723445968E+02 -0.10838710141E+03  0.11915345801E+03  0.00000000000E+00 0. -1.
         -2    1    1    2    0  502  0.33006601708E+02 -0.21379521730E+02  0.36144736491E+02  0.53413122749E+02  0.00000000000E+00 0.  1.
<mgrwt>
<rscale>  2 0.95121398E+02</rscale>
<asrwt>0</asrwt>
<pdfrwt beam="1">  1       21 0.86379374E-02 0.95121398E+02</pdfrwt>
<pdfrwt beam="2">  1       21 0.84940585E-01 0.95121398E+02</pdfrwt>
<totfact> 0.13085980E+05</totfact>
</mgrwt>
</event>
<event>
 5    1  0.1745726E+000  0.1074969E+03  0.7546771E-02  0.1265277E+00
         21   -1    0    0  501  502  0.00000000000E+00  0.00000000000E+00  0.19951895251E+03  0.19951895251E+03  0.00000000000E+00 0. -1.
         21   -1    0    0  502  503 -0.00000000000E+00 -0.00000000000E+00 -0.90199762062E+02  0.90199762062E+02  0.00000000000E+00 0. -1.
         24    1    1    2    0    0 -0.38851828665E+02  0.33344929792E+01  0.77401674975E+01  0.89709027312E+02  0.80419002446E+02 0. -1.
          1    1    1    2  501    0  0.81759324908E+02 -0.93496271725E+01  0.12583544532E+03  0.15035478721E+03  0.00000000000E+00 0. -1.
         -2    1    1    2    0  503 -0.42907496242E+02  0.60151341933E+01 -0.24256422368E+02  0.49654900053E+02  0.00000000000E+00 0.  1.
<mgrwt>
<rscale>  2 0.10749687E+03</rscale>
<asrwt>0</asrwt>
<pdfrwt beam="1">  1       21 0.30695223E-01 0.10749687E+03</pdfrwt>
<pdfrwt beam="2">  1       21 0.13876887E-01 0.10749687E+03</pdfrwt>
<totfact> 0.46531715E+05</totfact>
</mgrwt>
</event>
<event>
 5    1  0.3516817E+000  0.8746663E+02  0.7546771E-02  0.1309105E+00
         21   -1    0    0  503  502  0.00000000000E+00  0.00000000000E+00  0.14164876802E+03  0.14164876802E+03  0.00000000000E+00 0.  1.
         21   -1    0    0  501  503 -0.00000000000E+00 -0.00000000000E+00 -0.62744212491E+03  0.62744212491E+03  0.00000000000E+00 0. -1.
         24    1    1    2    0    0  0.64725087114E+02 -0.22376662207E+02  0.79995568176E+02  0.13250116526E+03  0.80419002446E+02 0.  1.
          1    1    1    2  501    0 -0.29258782528E+02  0.15738374087E+02 -0.59140611565E+03  0.59233855725E+03  0.00000000000E+00 0. -1.
         -2    1    1    2    0  502 -0.35466304587E+02  0.66382881195E+01  0.25617190587E+02  0.44251170422E+02  0.00000000000E+00 0.  1.
<mgrwt>
<rscale>  2 0.87466626E+02</rscale>
<asrwt>0</asrwt>
<pdfrwt beam="1">  1       21 0.21792118E-01 0.87466626E+02</pdfrwt>
<pdfrwt beam="2">  1       21 0.96529558E-01 0.87466626E+02</pdfrwt>
<totfact> 0.19052560E+04</totfact>
</mgrwt>
</event>
<event>
 5    1  0.1745726E+000  0.6397210E+02  0.7546771E-02  0.1381880E+00
         21   -1    0    0  503  502  0.00000000000E+00  0.00000000000E+00  0.76579967637E+02  0.76579967637E+02  0.00000000000E+00 0.  1.
         21   -1    0    0  501  503 -0.00000000000E+00 -0.00000000000E+00 -0.10766355182E+03  0.10766355182E+03  0.00000000000E+00 0.  1.
         24    1    1    2    0    0  0.80138233532E+01  0.35006364115E+00 -0.71912235304E+02  0.10818007880E+03  0.80419002446E+02 0.  1.
          1    1    1    2  501    0  0.15935136790E+02 -0.12517374394E+02 -0.68064318436E+01  0.21376172732E+02  0.00000000000E+00 0. -1.
         -2    1    1    2    0  502 -0.23948960144E+02  0.12167310752E+02  0.47635082968E+02  0.54687267917E+02  0.00000000000E+00 0.  1.
<mgrwt>
<rscale>  2 0.63972101E+02</rscale>
<asrwt>0</asrwt>
<pdfrwt beam="1">  1       21 0.11781534E-01 0.63972101E+02</pdfrwt>
<pdfrwt beam="2">  1       21 0.16563623E-01 0.63972101E+02</pdfrwt>
<totfact> 0.19200248E+06</totfact>
</mgrwt>
</event>
<event>
 5    1  0.1745726E+000  0.7017047E+02  0.7546771E-02  0.1359514E+00
         21   -1    0    0  501  502  0.00000000000E+00  0.00000000000E+00  0.39077653355E+02  0.39077653355E+02  0.00000000000E+00 0.  1.
         21   -1    0    0  502  503 -0.00000000000E+00 -0.00000000000E+00 -0.24781442843E+03  0.24781442843E+03  0.00000000000E+00 0.  1.
         24    1    1    2    0    0  0.27247505237E+02  0.33310019663E+02 -0.48442057201E+02  0.10327551894E+03  0.80419002446E+02 0.  1.
          1    1    1    2  501    0 -0.21550808832E+02 -0.76839906298E+01 -0.17866626513E+01  0.22949362447E+02  0.00000000000E+00 0. -1.
         -2    1    1    2    0  503 -0.56966964050E+01 -0.25626029033E+02 -0.15850805523E+03  0.16066720040E+03  0.00000000000E+00 0.  1.
<mgrwt>
<rscale>  2 0.70170471E+02</rscale>
<asrwt>0</asrwt>
<pdfrwt beam="1">  1       21 0.60119467E-02 0.70170471E+02</pdfrwt>
<pdfrwt beam="2">  1       21 0.38125296E-01 0.70170471E+02</pdfrwt>
<totfact> 0.12840710E+06</totfact>
</mgrwt>
</event>
<event>
 5    1  0.1745726E+000  0.8169786E+02  0.7546771E-02  0.1324301E+00
         21   -1    0    0  501  502  0.00000000000E+00  0.00000000000E+00  0.28240307038E+03  0.28240307038E+03  0.00000000000E+00 0. -1.
         21   -1    0    0  502  503 -0.00000000000E+00 -0.00000000000E+00 -0.64229790572E+02  0.64229790572E+02  0.00000000000E+00 0.  1.
         24    1    1    2    0    0 -0.37151931121E+02 -0.10644271152E+02  0.22799138359E+02  0.92090081761E+02  0.80419002446E+02 0. -1.
          1    1    1    2  501    0  0.45223436679E+02  0.29272638143E+02  0.21775859612E+03  0.22432309902E+03  0.00000000000E+00 0. -1.
         -2    1    1    2    0  503 -0.80715055579E+01 -0.18628366992E+02 -0.22384454672E+02  0.30219680172E+02  0.00000000000E+00 0.  1.
<mgrwt>
<rscale>  2 0.81697859E+02</rscale>
<asrwt>0</asrwt>
<pdfrwt beam="1">  1       21 0.43446625E-01 0.81697859E+02</pdfrwt>
<pdfrwt beam="2">  1       21 0.98815064E-02 0.81697859E+02</pdfrwt>
<totfact> 0.42809393E+05</totfact>
</mgrwt>
</event>
<event>
 5    1  0.1745726E+000  0.6941613E+02  0.7546771E-02  0.1362090E+00
         21   -1    0    0  503  502  0.00000000000E+00  0.00000000000E+00  0.85242495153E+02  0.85242495153E+02  0.00000000000E+00 0.  1.
         21   -1    0    0  501  503 -0.00000000000E+00 -0.00000000000E+00 -0.72558055205E+03  0.72558055205E+03  0.00000000000E+00 0. -1.
         24    1    1    2    0    0 -0.69107386036E+01  0.43636427896E+02  0.54244296684E+01  0.91915921032E+02  0.80419002446E+02 0. -1.
          1    1    1    2  501    0 -0.40778167491E+01 -0.25848697393E+02 -0.67907379475E+03  0.67957781193E+03  0.00000000000E+00 0. -1.
         -2    1    1    2    0  502  0.10988555353E+02 -0.17787730503E+02  0.33311308190E+02  0.39329314239E+02  0.00000000000E+00 0.  1.
<mgrwt>
<rscale>  2 0.69416133E+02</rscale>
<asrwt>0</asrwt>
<pdfrwt beam="1">  1       21 0.13114230E-01 0.69416133E+02</pdfrwt>
<pdfrwt beam="2">  1       21 0.11162777E+00 0.69416133E+02</pdfrwt>
<totfact> 0.34580964E+04</totfact>
</mgrwt>
</event>
<event>
 5    1  0.1745726E+000  0.7313169E+02  0.7546771E-02  0.1349756E+00
         21   -1    0    0  503  502  0.00000000000E+00  0.00000000000E+00  0.43128021003E+02  0.43128021003E+02  0.00000000000E+00 0. -1.
         21   -1    0    0  501  503 -0.00000000000E+00 -0.00000000000E+00 -0.19946711285E+03  0.19946711285E+03  0.00000000000E+00 0.  1.
         24    1    1    2    0    0  0.16057750092E+02 -0.36816011898E+02 -0.10620440510E+03  0.13913972002E+03  0.80419002446E+02 0.  0.
          1    1    1    2  501    0 -0.22503887235E+02  0.39107905989E+01 -0.63405406877E+02  0.67394100966E+02  0.00000000000E+00 0. -1.
         -2    1    1    2    0  502  0.64461371425E+01  0.32905221300E+02  0.13270720131E+02  0.36061312866E+02  0.00000000000E+00 0.  1.
<mgrwt>
<rscale>  2 0.73131687E+02</rscale>
<asrwt>0</asrwt>
<pdfrwt beam="1">  1       21 0.66350802E-02 0.73131687E+02</pdfrwt>
<pdfrwt beam="2">  1       21 0.30687248E-01 0.73131687E+02</pdfrwt>
<totfact> 0.16562177E+06</totfact>
</mgrwt>
</event>
<event>
 5    1  0.1745726E+000  0.7322493E+02  0.7546771E-02  0.1349458E+00
         21   -1    0    0  501  502  0.00000000000E+00  0.00000000000E+00  0.81745449214E+02  0.81745449214E+02  0.00000000000E+00 0.  1.
         21   -1    0    0  502  503 -0.00000000000E+00 -0.00000000000E+00 -0.97918565019E+02  0.97918565019E+02  0.00000000000E+00 0.  1.
         24    1    1    2    0    0  0.63929635353E+01 -0.33109249365E+02 -0.39068521847E+02  0.95554475196E+02  0.80419002446E+02 0.  1.
          1    1    1    2  501    0  0.20602311139E+02  0.71836111724E+01  0.37943404603E+02  0.43769412226E+02  0.00000000000E+00 0. -1.
         -2    1    1    2    0  503 -0.26995274674E+02  0.25925638193E+02 -0.15047998561E+02  0.40340126811E+02  0.00000000000E+00 0.  1.
<mgrwt>
<rscale>  2 0.73224926E+02</rscale>
<asrwt>0</asrwt>
<pdfrwt beam="1">  1       21 0.12576223E-01 0.73224926E+02</pdfrwt>
<pdfrwt beam="2">  1       21 0.15064395E-01 0.73224926E+02</pdfrwt>
<totfact> 0.20424025E+06</totfact>
</mgrwt>
</event>
<event>
 5    1  0.1745726E+000  0.8479287E+02  0.7546771E-02  0.1315975E+00
         21   -1    0    0  501  502  0.00000000000E+00  0.00000000000E+00  0.14177293432E+03  0.14177293432E+03  0.00000000000E+00 0.  1.
         21   -1    0    0  502  503 -0.00000000000E+00 -0.00000000000E+00 -0.69601133909E+02  0.69601133909E+02  0.00000000000E+00 0.  1.
         24    1    1    2    0    0  0.42132850520E+02  0.37875591967E+02 -0.71047272969E+01  0.98627737803E+02  0.80419002446E+02 0.  1.
          1    1    1    2  501    0 -0.25301860413E+02  0.44270678219E+01  0.56007278438E+02  0.61616542486E+02  0.00000000000E+00 0. -1.
         -2    1    1    2    0  503 -0.16830990108E+02 -0.42302659788E+02  0.23269249267E+02  0.51129787939E+02  0.00000000000E+00 0.  1.
<mgrwt>
<rscale>  2 0.84792867E+02</rscale>
<asrwt>0</asrwt>
<pdfrwt beam="1">  1       21 0.21811221E-01 0.84792867E+02</pdfrwt>
<pdfrwt beam="2">  1       21 0.10707867E-01 0.84792867E+02</pdfrwt>
<totfact> 0.13928909E+06</totfact>
</mgrwt>
</event>
<event>
 5    1  0.1745726E+000  0.7147880E+02  0.7546771E-02  0.1355135E+00
         21   -1    0    0  501  502  0.00000000000E+00  0.00000000000E+00  0.25324155261E+03  0.25324155261E+03  0.00000000000E+00 0.  1.
         21   -1    0    0  502  503 -0.00000000000E+00 -0.00000000000E+00 -0.23043829531E+02  0.23043829531E+02  0.00000000000E+00 0. -1.
         24    1    1    2    0    0 -0.18646489869E+02  0.10157150048E+02  0.95349414264E+02  0.12652899287E+03  0.80419002446E+02 0. -1.
          1    1    1    2  501    0  0.26383087938E+02  0.17105786782E+02  0.10007068114E+03  0.10489431106E+03  0.00000000000E+00 0. -1.
         -2    1    1    2    0  503 -0.77365980691E+01 -0.27262936830E+02  0.34777627680E+02  0.44862078210E+02  0.00000000000E+00 0.  1.
<mgrwt>
<rscale>  2 0.71478797E+02</rscale>
<asrwt>0</asrwt>
<pdfrwt beam="1">  1       21 0.38960237E-01 0.71478797E+02</pdfrwt>
<pdfrwt beam="2">  1       21 0.35452047E-02 0.71478797E+02</pdfrwt>
<totfact> 0.29401097E+06</totfact>
</mgrwt>
</event>
<event>
 5    1  0.1745726E+000  0.7059671E+02  0.7546771E-02  0.1358076E+00
         21   -1    0    0  503  502  0.00000000000E+00  0.00000000000E+00  0.89171658073E+02  0.89171658073E+02  0.00000000000E+00 0.  1.
         21   -1    0    0  501  503 -0.00000000000E+00 -0.00000000000E+00 -0.58610747627E+02  0.58610747627E+02  0.00000000000E+00 0.  1.
         24    1    1    2    0    0 -0.37971127697E+02 -0.24800680287E+02  0.27672846441E+02  0.96384037402E+02  0.80419002446E+02 0.  1.
          1    1    1    2  501    0  0.22531725106E+02  0.38751780423E+01 -0.64709538450E+01  0.23760658341E+02  0.00000000000E+00 0. -1.
         -2    1    1    2    0  502  0.15439402591E+02  0.20925502244E+02  0.93590178498E+01  0.27637709957E+02  0.00000000000E+00 0.  1.
<mgrwt>
<rscale>  2 0.70596706E+02</rscale>
<asrwt>0</asrwt>
<pdfrwt beam="1">  1       21 0.13718717E-01 0.70596706E+02</pdfrwt>
<pdfrwt beam="2">  1       21 0.90170381E-02 0.70596706E+02</pdfrwt>
<totfact> 0.42736391E+06</totfact>
</mgrwt>
</event>
<event>
 5    1  0.1745726E+000  0.9552499E+02  0.7546771E-02  0.1289998E+00
         21   -1    0    0  501  502  0.00000000000E+00  0.00000000000E+00  0.21255018845E+02  0.21255018845E+02  0.00000000000E+00 0. -1.
         21   -1    0    0  502  503 -0.00000000000E+00 -0.00000000000E+00 -0.59415510259E+03  0.59415510259E+03  0.00000000000E+00 0.  1.
         24    1    1    2    0    0 -0.17467774185E+02  0.31249703288E+02 -0.15890367828E+03  0.18165699000E+03  0.80419002446E+02 0. -1.
          1    1    1    2  501    0  0.48375062759E+02 -0.47762037161E+02 -0.12199974312E+03  0.13966136263E+03  0.00000000000E+00 0. -1.
         -2    1    1    2    0  503 -0.30907288574E+02  0.16512333873E+02 -0.29199666235E+03  0.29409176881E+03  0.00000000000E+00 0.  1.
<mgrwt>
<rscale>  2 0.95524987E+02</rscale>
<asrwt>0</asrwt>
<pdfrwt beam="1">  1       21 0.32700030E-02 0.95524987E+02</pdfrwt>
<pdfrwt beam="2">  1       21 0.91408474E-01 0.95524987E+02</pdfrwt>
<totfact> 0.56338095E+05</totfact>
</mgrwt>
</event>
<event>
 5    1  0.1745726E+000  0.8931777E+02  0.7546771E-02  0.1304512E+00
         21   -1    0    0  503  502  0.00000000000E+00  0.00000000000E+00  0.21869706203E+02  0.21869706203E+02  0.00000000000E+00 0.  1.
         21   -1    0    0  501  503 -0.00000000000E+00 -0.00000000000E+00 -0.45545048988E+03  0.45545048988E+03  0.00000000000E+00 0. -1.
         24    1    1    2    0    0  0.10943534278E+01  0.23317794102E+02 -0.16909504698E+03  0.18869358230E+03  0.80419002446E+02 0.  0.
          1    1    1    2  501    0 -0.25865015471E+02  0.27874857814E+02 -0.19577266227E+03  0.19943154719E+03  0.00000000000E+00 0. -1.
         -2    1    1    2    0  502  0.24770662043E+02 -0.51192651916E+02 -0.68713074429E+02  0.89195066600E+02  0.00000000000E+00 0.  1.
<mgrwt>
<rscale>  2 0.89317774E+02</rscale>
<asrwt>0</asrwt>
<pdfrwt beam="1">  1       21 0.33645700E-02 0.89317774E+02</pdfrwt>
<pdfrwt beam="2">  1       21 0.70069311E-01 0.89317774E+02</pdfrwt>
<totfact> 0.96809474E+05</totfact>
</mgrwt>
</event>
<event>
 5    1  0.1745726E+000  0.6548925E+02  0.7546771E-02  0.1376141E+00
         21   -1    0    0  501  502  0.00000000000E+00  0.00000000000E+00  0.12062751819E+04  0.12062751819E+04  0.00000000000E+00 0.  1.
         21   -1    0    0  502  503 -0.00000000000E+00 -0.00000000000E+00 -0.19300998647E+02  0.19300998647E+02  0.00000000000E+00 0.  1.
         24    1    1    2    0    0  0.63487171148E+01  0.26464779907E+01  0.78886455225E+03  0.79298285467E+03  0.80419002446E+02 0.  1.
          1    1    1    2  501    0  0.50411360100E+01 -0.24826064556E+02  0.40573120471E+03  0.40652128727E+03  0.00000000000E+00 0. -1.
         -2    1    1    2    0  503 -0.11389853125E+02  0.22179586566E+02 -0.76215736543E+01  0.26072038651E+02  0.00000000000E+00 0.  1.
<mgrwt>
<rscale>  2 0.65489249E+02</rscale>
<asrwt>0</asrwt>
<pdfrwt beam="1">  1       21 0.18558074E+00 0.65489249E+02</pdfrwt>
<pdfrwt beam="2">  1       21 0.29693854E-02 0.65489249E+02</pdfrwt>
<totfact> 0.11719138E+05</totfact>
</mgrwt>
</event>
<event>
 5    1  0.1745726E+000  0.1891314E+03  0.7546771E-02  0.1159247E+00
         21   -1    0    0  503  502  0.00000000000E+00  0.00000000000E+00  0.32562952274E+03  0.32562952274E+03  0.00000000000E+00 0.  1.
         21   -1    0    0  501  503 -0.00000000000E+00 -0.00000000000E+00 -0.26804415126E+03  0.26804415126E+03  0.00000000000E+00 0.  1.
         24    1    1    2    0    0 -0.16613641893E+03  0.66295804575E+02 -0.11229588969E+03  0.22599563314E+03  0.80419002446E+02 0.  1.
          1    1    1    2  501    0  0.22492038100E+02  0.29373480893E+01 -0.73383484015E+02  0.76809215058E+02  0.00000000000E+00 0. -1.
         -2    1    1    2    0  502  0.14364438083E+03 -0.69233152665E+02  0.24326474519E+03  0.29086882580E+03  0.00000000000E+00 0.  1.
<mgrwt>
<rscale>  2 0.18913142E+03</rscale>
<asrwt>0</asrwt>
<pdfrwt beam="1">  1       21 0.50096849E-01 0.18913142E+03</pdfrwt>
<pdfrwt beam="2">  1       21 0.41237562E-01 0.18913142E+03</pdfrwt>
<totfact> 0.21536347E+04</totfact>
</mgrwt>
</event>
<event>
 5    1  0.1745726E+000  0.8177978E+02  0.7546771E-02  0.1324075E+00
         21   -1    0    0  503  502  0.00000000000E+00  0.00000000000E+00  0.78279228634E+03  0.78279228634E+03  0.00000000000E+00 0. -1.
         21   -1    0    0  501  503 -0.00000000000E+00 -0.00000000000E+00 -0.17613871358E+02  0.17613871358E+02  0.00000000000E+00 0.  1.
         24    1    1    2    0    0 -0.43846003757E+02 -0.38182776380E+02  0.35625895862E+03  0.36982165703E+03  0.80419002446E+02 0. -1.
          1    1    1    2  501    0  0.12712905894E+02  0.29315213389E+02  0.14932813703E+02  0.35270223099E+02  0.00000000000E+00 0. -1.
         -2    1    1    2    0  502  0.31133097863E+02  0.88675629908E+01  0.39398664266E+03  0.39531427757E+03  0.00000000000E+00 0.  1.
<mgrwt>
<rscale>  2 0.81779780E+02</rscale>
<asrwt>0</asrwt>
<pdfrwt beam="1">  1       21 0.12042956E+00 0.81779780E+02</pdfrwt>
<pdfrwt beam="2">  1       21 0.27098270E-02 0.81779780E+02</pdfrwt>
<totfact> 0.40238841E+05</totfact>
</mgrwt>
</event>
<event>
 5    1  0.1745726E+000  0.9467451E+02  0.7546771E-02  0.1291911E+00
         21   -1    0    0  503  502  0.00000000000E+00  0.00000000000E+00  0.57922263908E+03  0.57922263908E+03  0.00000000000E+00 0.  1.
         21   -1    0    0  501  503 -0.00000000000E+00 -0.00000000000E+00 -0.24618079130E+02  0.24618079130E+02  0.00000000000E+00 0. -1.
         24    1    1    2    0    0  0.54373956609E+01  0.13815135815E+02  0.20163676941E+03  0.21758912193E+03  0.80419002446E+02 0.  0.
          1    1    1    2  501    0 -0.55961862093E+02 -0.40218647953E+01  0.39570174915E+02  0.68656421026E+02  0.00000000000E+00 0. -1.
         -2    1    1    2    0  502  0.50524466432E+02 -0.97932710201E+01  0.31339761563E+03  0.31759517526E+03  0.00000000000E+00 0.  1.
<mgrwt>
<rscale>  2 0.94674513E+02</rscale>
<asrwt>0</asrwt>
<pdfrwt beam="1">  1       21 0.89111165E-01 0.94674513E+02</pdfrwt>
<pdfrwt beam="2">  1       21 0.37873972E-02 0.94674513E+02</pdfrwt>
<totfact> 0.46916246E+05</totfact>
</mgrwt>
</event>
<event>
 5    1  0.1745726E+000  0.9178284E+02  0.7546771E-02  0.1298591E+00
         21   -1    0    0  503  502  0.00000000000E+00  0.00000000000E+00  0.31616522626E+03  0.31616522626E+03  0.00000000000E+00 0.  1.
         21   -1    0    0  501  503 -0.00000000000E+00 -0.00000000000E+00 -0.26650528619E+02  0.26650528619E+02  0.00000000000E+00 0.  1.
         24    1    1    2    0    0  0.31038932037E+02  0.28234157086E+02  0.14536662823E+03  0.17134542739E+03  0.80419002446E+02 0.  1.
          1    1    1    2  501    0 -0.17593835179E+02  0.29080182152E+02  0.52011971113E+02  0.62132480792E+02  0.00000000000E+00 0. -1.
         -2    1    1    2    0  502 -0.13445096858E+02 -0.57314339237E+02  0.92136098294E+02  0.10933784670E+03  0.00000000000E+00 0.  1.
<mgrwt>
<rscale>  2 0.91782840E+02</rscale>
<asrwt>0</asrwt>
<pdfrwt beam="1">  1       21 0.48640801E-01 0.91782840E+02</pdfrwt>
<pdfrwt beam="2">  1       21 0.41000815E-02 0.91782840E+02</pdfrwt>
<totfact> 0.15035353E+06</totfact>
</mgrwt>
</event>
<event>
 5    1  0.1745726E+000  0.7057903E+02  0.7546771E-02  0.1358135E+00
         21   -1    0    0  501  502  0.00000000000E+00  0.00000000000E+00  0.19750132475E+02  0.19750132475E+02  0.00000000000E+00 0. -1.
         21   -1    0    0  502  503 -0.00000000000E+00 -0.00000000000E+00 -0.42809710379E+03  0.42809710379E+03  0.00000000000E+00 0.  1.
         24    1    1    2    0    0  0.12827000226E+02  0.60241325283E+01 -0.17066598455E+03  0.18919544483E+03  0.80419002446E+02 0.  0.
          1    1    1    2  501    0  0.13624520848E+02 -0.23944744856E+02 -0.10894100990E+02  0.29625323812E+02  0.00000000000E+00 0. -1.
         -2    1    1    2    0  503 -0.26451521074E+02  0.17920612327E+02 -0.22678688577E+03  0.22902646762E+03  0.00000000000E+00 0.  1.
<mgrwt>
<rscale>  2 0.70579034E+02</rscale>
<asrwt>0</asrwt>
<pdfrwt beam="1">  1       21 0.30384822E-02 0.70579034E+02</pdfrwt>
<pdfrwt beam="2">  1       21 0.65861087E-01 0.70579034E+02</pdfrwt>
<totfact> 0.12975834E+06</totfact>
</mgrwt>
</event>
<event>
 5    1  0.1745726E+000  0.7006262E+02  0.7546771E-02  0.1359880E+00
         21   -1    0    0  503  502  0.00000000000E+00  0.00000000000E+00  0.17218896820E+04  0.17218896820E+04  0.00000000000E+00 0. -1.
         21   -1    0    0  501  503 -0.00000000000E+00 -0.00000000000E+00 -0.48270258967E+02  0.48270258967E+02  0.00000000000E+00 0. -1.
         24    1    1    2    0    0 -0.16394264589E+01 -0.32293529708E+02  0.13236269742E+04  0.13264618888E+04  0.80419002446E+02 0. -1.
          1    1    1    2  501    0  0.21949614093E+02  0.13443894641E+02 -0.42792360410E+02  0.49937060100E+02  0.00000000000E+00 0. -1.
         -2    1    1    2    0  502 -0.20310187634E+02  0.18849635067E+02  0.39278480923E+03  0.39376099200E+03  0.00000000000E+00 0.  1.
<mgrwt>
<rscale>  2 0.70062619E+02</rscale>
<asrwt>0</asrwt>
<pdfrwt beam="1">  1       21 0.26490606E+00 0.70062619E+02</pdfrwt>
<pdfrwt beam="2">  1       21 0.74261950E-02 0.70062619E+02</pdfrwt>
<totfact> 0.89725515E+03</totfact>
</mgrwt>
</event>
<event>
 5    1  0.1745726E+000  0.7852334E+02  0.7546771E-02  0.1333295E+00
         21   -1    0    0  501  502  0.00000000000E+00  0.00000000000E+00  0.22957613876E+03  0.22957613876E+03  0.00000000000E+00 0. -1.
         21   -1    0    0  502  503 -0.00000000000E+00 -0.00000000000E+00 -0.66144955390E+03  0.66144955390E+03  0.00000000000E+00 0.  1.
         24    1    1    2    0    0  0.40964413486E+02  0.12548129207E+02 -0.23158595567E+03  0.24886705193E+03  0.80419002446E+02 0.  0.
          1    1    1    2  501    0 -0.27193097793E+01 -0.25426913720E+02  0.21922411700E+03  0.22071052549E+03  0.00000000000E+00 0. -1.
         -2    1    1    2    0  503 -0.38245103707E+02  0.12878784512E+02 -0.41951157646E+03  0.42144811524E+03  0.00000000000E+00 0.  1.
<mgrwt>
<rscale>  2 0.78523336E+02</rscale>
<asrwt>0</asrwt>
<pdfrwt beam="1">  1       21 0.35319406E-01 0.78523336E+02</pdfrwt>
<pdfrwt beam="2">  1       21 0.10176147E+00 0.78523336E+02</pdfrwt>
<totfact> 0.68614044E+03</totfact>
</mgrwt>
</event>
<event>
 5    1  0.1745726E+000  0.1011337E+03  0.7546771E-02  0.1277930E+00
         21   -1    0    0  501  502  0.00000000000E+00  0.00000000000E+00  0.29465066106E+03  0.29465066106E+03  0.00000000000E+00 0.  1.
         21   -1    0    0  502  503 -0.00000000000E+00 -0.00000000000E+00 -0.37098787158E+02  0.37098787158E+02  0.00000000000E+00 0. -1.
         24    1    1    2    0    0 -0.72308492067E+02 -0.63247682256E+01  0.14239592113E+03  0.17891991233E+03  0.80419002446E+02 0. -1.
          1    1    1    2  501    0  0.94602524920E+01 -0.22786858568E+02  0.57996620417E+02  0.63026544252E+02  0.00000000000E+00 0. -1.
         -2    1    1    2    0  503  0.62848239575E+02  0.29111626793E+02  0.57159332356E+02  0.89802991640E+02  0.00000000000E+00 0.  1.
<mgrwt>
<rscale>  2 0.10113369E+03</rscale>
<asrwt>0</asrwt>
<pdfrwt beam="1">  1       21 0.45330869E-01 0.10113369E+03</pdfrwt>
<pdfrwt beam="2">  1       21 0.57075059E-02 0.10113369E+03</pdfrwt>
<totfact> 0.10019461E+06</totfact>
</mgrwt>
</event>
<event>
 5    1  0.1745726E+000  0.1004476E+03  0.7546771E-02  0.1279358E+00
         21   -1    0    0  501  502  0.00000000000E+00  0.00000000000E+00  0.65959047412E+02  0.65959047412E+02  0.00000000000E+00 0. -1.
         21   -1    0    0  502  503 -0.00000000000E+00 -0.00000000000E+00 -0.16967061233E+03  0.16967061233E+03  0.00000000000E+00 0. -1.
         24    1    1    2    0    0  0.60238432999E+02  0.35970538541E+02 -0.63528673052E+02  0.12420006726E+03  0.80419002446E+02 0. -1.
          1    1    1    2  501    0 -0.38778315928E+02 -0.53767638342E+02 -0.49173049114E+01  0.66474781735E+02  0.00000000000E+00 0. -1.
         -2    1    1    2    0  503 -0.21460117071E+02  0.17797099801E+02 -0.35265586950E+02  0.44954810744E+02  0.00000000000E+00 0.  1.
<mgrwt>
<rscale>  2 0.10044756E+03</rscale>
<asrwt>0</asrwt>
<pdfrwt beam="1">  1       21 0.10147546E-01 0.10044756E+03</pdfrwt>
<pdfrwt beam="2">  1       21 0.26103171E-01 0.10044756E+03</pdfrwt>
<totfact> 0.10988019E+06</totfact>
</mgrwt>
</event>
<event>
 5    1  0.1745726E+000  0.8804686E+02  0.7546771E-02  0.1307652E+00
         21   -1    0    0  503  502  0.00000000000E+00  0.00000000000E+00  0.31213457484E+03  0.31213457484E+03  0.00000000000E+00 0.  1.
         21   -1    0    0  501  503 -0.00000000000E+00 -0.00000000000E+00 -0.32290853649E+02  0.32290853649E+02  0.00000000000E+00 0.  1.
         24    1    1    2    0    0 -0.98981672754E+01 -0.44981881345E+02  0.82714414394E+02  0.12421849165E+03  0.80419002446E+02 0.  1.
          1    1    1    2  501    0 -0.18942725328E+02 -0.99348096272E+01  0.11079225334E+02  0.24088929390E+02  0.00000000000E+00 0. -1.
         -2    1    1    2    0  502  0.28840892603E+02  0.54916690973E+02  0.18605008147E+03  0.19611800745E+03  0.00000000000E+00 0.  1.
<mgrwt>
<rscale>  2 0.88046858E+02</rscale>
<asrwt>0</asrwt>
<pdfrwt beam="1">  1       21 0.48020702E-01 0.88046858E+02</pdfrwt>
<pdfrwt beam="2">  1       21 0.49678239E-02 0.88046858E+02</pdfrwt>
<totfact> 0.11218545E+06</totfact>
</mgrwt>
</event>
<event>
 5    1  0.1745726E+000  0.7910419E+02  0.7546771E-02  0.1331613E+00
         21   -1    0    0  503  502  0.00000000000E+00  0.00000000000E+00  0.24196769172E+03  0.24196769172E+03  0.00000000000E+00 0. -1.
         21   -1    0    0  501  503 -0.00000000000E+00 -0.00000000000E+00 -0.27317911764E+02  0.27317911764E+02  0.00000000000E+00 0.  1.
         24    1    1    2    0    0  0.34598582929E+02  0.45790943892E+02  0.13092709467E+03  0.16402131739E+03  0.80419002446E+02 0.  1.
          1    1    1    2  501    0 -0.24491444449E+02 -0.19704093524E+02  0.24806046550E+02  0.40042753380E+02  0.00000000000E+00 0. -1.
         -2    1    1    2    0  502 -0.10107138480E+02 -0.26086850368E+02  0.58916638728E+02  0.65221532713E+02  0.00000000000E+00 0.  1.
<mgrwt>
<rscale>  2 0.79104189E+02</rscale>
<asrwt>0</asrwt>
<pdfrwt beam="1">  1       21 0.37225797E-01 0.79104189E+02</pdfrwt>
<pdfrwt beam="2">  1       21 0.42027558E-02 0.79104189E+02</pdfrwt>
<totfact> 0.24460347E+06</totfact>
</mgrwt>
</event>
<event>
 5    1  0.1745726E+000  0.1041321E+03  0.7546771E-02  0.1271839E+00
         21   -1    0    0  501  502  0.00000000000E+00  0.00000000000E+00  0.43496289574E+03  0.43496289574E+03  0.00000000000E+00 0. -1.
         21   -1    0    0  502  503 -0.00000000000E+00 -0.00000000000E+00 -0.37569112920E+02  0.37569112920E+02  0.00000000000E+00 0.  1.
         24    1    1    2    0    0  0.39640955005E+01 -0.78200866490E+02  0.25585945150E+03  0.27939642884E+03  0.80419002446E+02 0.  1.
          1    1    1    2  501    0  0.24516287081E+02  0.21662982179E+02  0.12284723235E+03  0.12712897241E+03  0.00000000000E+00 0. -1.
         -2    1    1    2    0  503 -0.28480382581E+02  0.56537884310E+02  0.18687098972E+02  0.66006607414E+02  0.00000000000E+00 0.  1.
<mgrwt>
<rscale>  2 0.10413212E+03</rscale>
<asrwt>0</asrwt>
<pdfrwt beam="1">  1       21 0.66917365E-01 0.10413212E+03</pdfrwt>
<pdfrwt beam="2">  1       21 0.57798638E-02 0.10413212E+03</pdfrwt>
<totfact> 0.43604079E+05</totfact>
</mgrwt>
</event>
<event>
 5    1  0.1745726E+000  0.7101989E+02  0.7546771E-02  0.1356659E+00
         21   -1    0    0  503  502  0.00000000000E+00  0.00000000000E+00  0.19252008727E+03  0.19252008727E+03  0.00000000000E+00 0.  1.
         21   -1    0    0  501  503 -0.00000000000E+00 -0.00000000000E+00 -0.41198298680E+02  0.41198298680E+02  0.00000000000E+00 0. -1.
         24    1    1    2    0    0 -0.32738316187E+02 -0.94961549647E+01  0.22466355723E+02  0.90188288595E+02  0.80419002446E+02 0.  0.
          1    1    1    2  501    0  0.95040740648E+01  0.25011336177E+02  0.27394934329E+02  0.38293299519E+02  0.00000000000E+00 0. -1.
         -2    1    1    2    0  502  0.23234242122E+02 -0.15515181212E+02  0.10146049854E+03  0.10523679784E+03  0.00000000000E+00 0.  1.
<mgrwt>
<rscale>  2 0.71019889E+02</rscale>
<asrwt>0</asrwt>
<pdfrwt beam="1">  1       21 0.29618475E-01 0.71019889E+02</pdfrwt>
<pdfrwt beam="2">  1       21 0.63381999E-02 0.71019889E+02</pdfrwt>
<totfact> 0.19102773E+06</totfact>
</mgrwt>
</event>
<event>
 5    1  0.1745726E+000  0.8144771E+02  0.7546771E-02  0.1324993E+00
         21   -1    0    0  503  502  0.00000000000E+00  0.00000000000E+00  0.37212473380E+02  0.37212473380E+02  0.00000000000E+00 0.  1.
         21   -1    0    0  501  503 -0.00000000000E+00 -0.00000000000E+00 -0.39444292202E+03  0.39444292202E+03  0.00000000000E+00 0. -1.
         24    1    1    2    0    0  0.37084491786E+02 -0.42131267960E+02 -0.11175791803E+03  0.14868541108E+03  0.80419002446E+02 0.  1.
          1    1    1    2  501    0 -0.21020594696E+02  0.14292361162E+01 -0.23757286448E+03  0.23850529146E+03  0.00000000000E+00 0. -1.
         -2    1    1    2    0  502 -0.16063897089E+02  0.40702031844E+02 -0.78996661225E+01  0.44464692856E+02  0.00000000000E+00 0.  1.
<mgrwt>
<rscale>  2 0.81447706E+02</rscale>
<asrwt>0</asrwt>
<pdfrwt beam="1">  1       21 0.57249957E-02 0.81447706E+02</pdfrwt>
<pdfrwt beam="2">  1       21 0.60683529E-01 0.81447706E+02</pdfrwt>
<totfact> 0.54605150E+05</totfact>
</mgrwt>
</event>
<event>
 5    1  0.1745726E+000  0.8250470E+02  0.7546771E-02  0.1322090E+00
         21   -1    0    0  503  502  0.00000000000E+00  0.00000000000E+00  0.13161045950E+03  0.13161045950E+03  0.00000000000E+00 0. -1.
         21   -1    0    0  501  503 -0.00000000000E+00 -0.00000000000E+00 -0.56487132805E+02  0.56487132805E+02  0.00000000000E+00 0.  1.
         24    1    1    2    0    0  0.13716462947E+02 -0.10998408618E+02  0.31043199149E+02  0.87977284089E+02  0.80419002446E+02 0.  0.
          1    1    1    2  501    0 -0.31787171252E+02  0.38410985247E+02  0.66000217743E+01  0.50293024677E+02  0.00000000000E+00 0. -1.
         -2    1    1    2    0  502  0.18070708305E+02 -0.27412576628E+02  0.37480105771E+02  0.49827283537E+02  0.00000000000E+00 0.  1.
<mgrwt>
<rscale>  2 0.82504704E+02</rscale>
<asrwt>0</asrwt>
<pdfrwt beam="1">  1       21 0.20247763E-01 0.82504704E+02</pdfrwt>
<pdfrwt beam="2">  1       21 0.86903281E-02 0.82504704E+02</pdfrwt>
<totfact> 0.22863419E+06</totfact>
</mgrwt>
</event>
<event>
 5    1  0.1745726E+000  0.1160993E+03  0.7546771E-02  0.1249674E+00
         21   -1    0    0  501  502  0.00000000000E+00  0.00000000000E+00  0.39033904864E+03  0.39033904864E+03  0.00000000000E+00 0. -1.
         21   -1    0    0  502  503 -0.00000000000E+00 -0.00000000000E+00 -0.29375505395E+03  0.29375505395E+03  0.00000000000E+00 0.  1.
         24    1    1    2    0    0 -0.32858960267E+02  0.58471462714E+02 -0.37552110200E+02  0.11124747258E+03  0.80419002446E+02 0. -1.
          1    1    1    2  501    0  0.72177006483E+02 -0.26795663176E+02  0.34630130497E+03  0.35475642581E+03  0.00000000000E+00 0. -1.
         -2    1    1    2    0  503 -0.39318046216E+02 -0.31675799538E+02 -0.21216520009E+03  0.21809020419E+03  0.00000000000E+00 0.  1.
<mgrwt>
<rscale>  2 0.11609929E+03</rscale>
<asrwt>0</asrwt>
<pdfrwt beam="1">  1       21 0.60052162E-01 0.11609929E+03</pdfrwt>
<pdfrwt beam="2">  1       21 0.45193085E-01 0.11609929E+03</pdfrwt>
<totfact> 0.12871584E+04</totfact>
</mgrwt>
</event>
<event>
 5    1  0.1745726E+000  0.7715545E+02  0.7546771E-02  0.1337323E+00
         21   -1    0    0  501  502  0.00000000000E+00  0.00000000000E+00  0.88260469587E+01  0.88260469587E+01  0.00000000000E+00 0. -1.
         21   -1    0    0  502  503 -0.00000000000E+00 -0.00000000000E+00 -0.82255945210E+03  0.82255945210E+03  0.00000000000E+00 0. -1.
         24    1    1    2    0    0  0.26126322550E+02 -0.33253884954E+02 -0.29240693811E+03  0.30619836545E+03  0.80419002446E+02 0. -1.
          1    1    1    2  501    0 -0.38437944544E+02  0.14636266017E+02 -0.32275111455E+03  0.32536130349E+03  0.00000000000E+00 0. -1.
         -2    1    1    2    0  503  0.12311621994E+02  0.18617618937E+02 -0.19857535248E+03  0.19982583012E+03  0.00000000000E+00 0.  1.
<mgrwt>
<rscale>  2 0.77155446E+02</rscale>
<asrwt>0</asrwt>
<pdfrwt beam="1">  1       21 0.13578532E-02 0.77155446E+02</pdfrwt>
<pdfrwt beam="2">  1       21 0.12654762E+00 0.77155446E+02</pdfrwt>
<totfact> 0.10732189E+06</totfact>
</mgrwt>
</event>
<event>
 5    1  0.1745726E+000  0.1253013E+03  0.7546771E-02  0.1234599E+00
         21   -1    0    0  501  502  0.00000000000E+00  0.00000000000E+00  0.15811893435E+02  0.15811893435E+02  0.00000000000E+00 0.  1.
         21   -1    0    0  502  503 -0.00000000000E+00 -0.00000000000E+00 -0.16861575876E+04  0.16861575876E+04  0.00000000000E+00 0.  1.
         24    1    1    2    0    0  0.10727999205E+03  0.11470009905E+01 -0.43194697835E+03  0.45227836601E+03  0.80419002446E+02 0.  1.
          1    1    1    2  501    0 -0.89821911209E+02 -0.18719579155E+02 -0.37945070236E+03  0.39038600627E+03  0.00000000000E+00 0. -1.
         -2    1    1    2    0  503 -0.17458080840E+02  0.17572578164E+02 -0.85894801343E+03  0.85930510872E+03  0.00000000000E+00 0.  1.
<mgrwt>
<rscale>  2 0.12530134E+03</rscale>
<asrwt>0</asrwt>
<pdfrwt beam="1">  1       21 0.24325994E-02 0.12530134E+03</pdfrwt>
<pdfrwt beam="2">  1       21 0.25940882E+00 0.12530134E+03</pdfrwt>
<totfact> 0.55596552E+04</totfact>
</mgrwt>
</event>
<event>
 5    1  0.1745726E+000  0.7460767E+02  0.7546771E-02  0.1345090E+00
         21   -1    0    0  503  502  0.00000000000E+00  0.00000000000E+00  0.44363495461E+03  0.44363495461E+03  0.00000000000E+00 0.  1.
         21   -1    0    0  501  503 -0.00000000000E+00 -0.00000000000E+00 -0.41896574011E+02  0.41896574011E+02  0.00000000000E+00 0.  1.
         24    1    1    2    0    0 -0.78616706868E+01 -0.47946186501E+01  0.22174746387E+02  0.83926929919E+02  0.80419002446E+02 0.  1.
          1    1    1    2  501    0  0.37976392397E+02  0.20600801927E+01  0.24466604021E+02  0.45222395140E+02  0.00000000000E+00 0. -1.
         -2    1    1    2    0  502 -0.30114721711E+02  0.27345384573E+01  0.35509703019E+03  0.35638220356E+03  0.00000000000E+00 0.  1.
<mgrwt>
<rscale>  2 0.74607668E+02</rscale>
<asrwt>0</asrwt>
<pdfrwt beam="1">  1       21 0.68251528E-01 0.74607668E+02</pdfrwt>
<pdfrwt beam="2">  1       21 0.64456271E-02 0.74607668E+02</pdfrwt>
<totfact> 0.34926407E+05</totfact>
</mgrwt>
</event>
<event>
 5    1  0.1745726E+000  0.1331117E+03  0.7546771E-02  0.1222910E+00
         21   -1    0    0  501  502  0.00000000000E+00  0.00000000000E+00  0.47050424934E+02  0.47050424934E+02  0.00000000000E+00 0.  1.
         21   -1    0    0  502  503 -0.00000000000E+00 -0.00000000000E+00 -0.14859875841E+04  0.14859875841E+04  0.00000000000E+00 0.  1.
         24    1    1    2    0    0  0.24686971263E+02 -0.86635916087E+02 -0.14248763965E+03  0.18677572624E+03  0.80419002446E+02 0.  1.
          1    1    1    2  501    0 -0.46454561831E+02  0.10637797114E+03 -0.11152179623E+03  0.16097021492E+03  0.00000000000E+00 0. -1.
         -2    1    1    2    0  503  0.21767590567E+02 -0.19742055050E+02 -0.11849277233E+04  0.11852920679E+04  0.00000000000E+00 0.  1.
<mgrwt>
<rscale>  2 0.13311166E+03</rscale>
<asrwt>0</asrwt>
<pdfrwt beam="1">  1       21 0.72385275E-02 0.13311166E+03</pdfrwt>
<pdfrwt beam="2">  1       21 0.22861346E+00 0.13311166E+03</pdfrwt>
<totfact> 0.13493104E+04</totfact>
</mgrwt>
</event>
<event>
 5    1  0.1745726E+000  0.7743456E+02  0.7546771E-02  0.1336494E+00
         21   -1    0    0  501  502  0.00000000000E+00  0.00000000000E+00  0.25810232164E+02  0.25810232164E+02  0.00000000000E+00 0.  1.
         21   -1    0    0  502  503 -0.00000000000E+00 -0.00000000000E+00 -0.28055013957E+03  0.28055013957E+03  0.00000000000E+00 0. -1.
         24    1    1    2    0    0 -0.48853117387E+01  0.82067945656E+01 -0.16305218039E+03  0.18205616505E+03  0.80419002446E+02 0. -1.
          1    1    1    2  501    0  0.28692568065E+02 -0.30069281868E+02 -0.20976645237E+02  0.46555824766E+02  0.00000000000E+00 0. -1.
         -2    1    1    2    0  503 -0.23807256326E+02  0.21862487302E+02 -0.70711081779E+02  0.77748381920E+02  0.00000000000E+00 0.  1.
<mgrwt>
<rscale>  2 0.77434557E+02</rscale>
<asrwt>0</asrwt>
<pdfrwt beam="1">  1       21 0.39708049E-02 0.77434557E+02</pdfrwt>
<pdfrwt beam="2">  1       21 0.43161560E-01 0.77434557E+02</pdfrwt>
<totfact> 0.20039984E+06</totfact>
</mgrwt>
</event>
<event>
 5    1  0.1745726E+000  0.8623133E+02  0.7546771E-02  0.1312244E+00
         21   -1    0    0  501  502  0.00000000000E+00  0.00000000000E+00  0.20502747181E+03  0.20502747181E+03  0.00000000000E+00 0. -1.
         21   -1    0    0  502  503 -0.00000000000E+00 -0.00000000000E+00 -0.19581414483E+03  0.19581414483E+03  0.00000000000E+00 0.  1.
         24    1    1    2    0    0  0.25752575103E+02  0.57839094747E+02 -0.27265737540E+01  0.10238752934E+03  0.80419002446E+02 0.  1.
          1    1    1    2  501    0  0.55582424408E+01 -0.21197948197E+02  0.15032611311E+03  0.15191506624E+03  0.00000000000E+00 0. -1.
         -2    1    1    2    0  503 -0.31310817544E+02 -0.36641146550E+02 -0.13838621239E+03  0.14653902106E+03  0.00000000000E+00 0.  1.
<mgrwt>
<rscale>  2 0.86231328E+02</rscale>
<asrwt>0</asrwt>
<pdfrwt beam="1">  1       21 0.31542688E-01 0.86231328E+02</pdfrwt>
<pdfrwt beam="2">  1       21 0.30125253E-01 0.86231328E+02</pdfrwt>
<totfact> 0.10664826E+05</totfact>
</mgrwt>
</event>
<event>
 5    1  0.1745726E+000  0.1228781E+03  0.7546771E-02  0.1238423E+00
         21   -1    0    0  501  502  0.00000000000E+00  0.00000000000E+00  0.50520120321E+02  0.50520120321E+02  0.00000000000E+00 0. -1.
         21   -1    0    0  502  503 -0.00000000000E+00 -0.00000000000E+00 -0.42741970484E+03  0.42741970484E+03  0.00000000000E+00 0. -1.
         24    1    1    2    0    0 -0.26683398684E+02  0.96057179040E+02 -0.11240708090E+03  0.17041582439E+03  0.80419002446E+02 0. -1.
          1    1    1    2  501    0  0.45629772350E+02 -0.82816468490E+02 -0.86863780415E+02  0.12839766324E+03  0.00000000000E+00 0. -1.
         -2    1    1    2    0  503 -0.18946373666E+02 -0.13240710550E+02 -0.17762872320E+03  0.17912633753E+03  0.00000000000E+00 0.  1.
<mgrwt>
<rscale>  2 0.12287810E+03</rscale>
<asrwt>0</asrwt>
<pdfrwt beam="1">  1       21 0.77723260E-02 0.12287810E+03</pdfrwt>
<pdfrwt beam="2">  1       21 0.65756879E-01 0.12287810E+03</pdfrwt>
<totfact> 0.27268368E+05</totfact>
</mgrwt>
</event>
<event>
 5    1  0.1745726E+000  0.6463916E+02  0.7546771E-02  0.1379334E+00
         21   -1    0    0  501  502  0.00000000000E+00  0.00000000000E+00  0.19369426150E+03  0.19369426150E+03  0.00000000000E+00 0.  1.
         21   -1    0    0  502  503 -0.00000000000E+00 -0.00000000000E+00 -0.32848854391E+02  0.32848854391E+02  0.00000000000E+00 0. -1.
         24    1    1    2    0    0 -0.22289583034E+01  0.17352212285E+01  0.29392938743E+02  0.85668781071E+02  0.80419002446E+02 0. -1.
          1    1    1    2  501    0 -0.14141827332E+02  0.18177990134E+02  0.81096748677E+02  0.84303696548E+02  0.00000000000E+00 0. -1.
         -2    1    1    2    0  503  0.16370785635E+02 -0.19913211362E+02  0.50355719690E+02  0.56570638273E+02  0.00000000000E+00 0.  1.
<mgrwt>
<rscale>  2 0.64639162E+02</rscale>
<asrwt>0</asrwt>
<pdfrwt beam="1">  1       21 0.29799117E-01 0.64639162E+02</pdfrwt>
<pdfrwt beam="2">  1       21 0.50536700E-02 0.64639162E+02</pdfrwt>
<totfact> 0.27375490E+06</totfact>
</mgrwt>
</event>
<event>
 5    1  0.1745726E+000  0.9101811E+02  0.7546771E-02  0.1300405E+00
         21   -1    0    0  501  502  0.00000000000E+00  0.00000000000E+00  0.10017580959E+03  0.10017580959E+03  0.00000000000E+00 0. -1.
         21   -1    0    0  502  503 -0.00000000000E+00 -0.00000000000E+00 -0.98315151153E+02  0.98315151153E+02  0.00000000000E+00 0. -1.
         24    1    1    2    0    0  0.32776814542E+02  0.80542241085E+01 -0.34925413446E+02  0.93947807618E+02  0.80419002446E+02 0.  0.
          1    1    1    2  501    0 -0.34011738453E+02  0.36707720061E+02  0.32251909753E+02  0.59535205949E+02  0.00000000000E+00 0. -1.
         -2    1    1    2    0  503  0.12349239108E+01 -0.44761944170E+02  0.45341621329E+01  0.45007947178E+02  0.00000000000E+00 0.  1.
<mgrwt>
<rscale>  2 0.91018110E+02</rscale>
<asrwt>0</asrwt>
<pdfrwt beam="1">  1       21 0.15411663E-01 0.91018110E+02</pdfrwt>
<pdfrwt beam="2">  1       21 0.15125408E-01 0.91018110E+02</pdfrwt>
<totfact> 0.14270573E+06</totfact>
</mgrwt>
</event>
<event>
 5    1  0.1745726E+000  0.8565104E+02  0.7546771E-02  0.1313739E+00
         21   -1    0    0  501  502  0.00000000000E+00  0.00000000000E+00  0.24423628012E+03  0.24423628012E+03  0.00000000000E+00 0. -1.
         21   -1    0    0  502  503 -0.00000000000E+00 -0.00000000000E+00 -0.51463328598E+02  0.51463328598E+02  0.00000000000E+00 0. -1.
         24    1    1    2    0    0 -0.40304229200E+02  0.12767066015E+02  0.85599734629E+01  0.91257426909E+02  0.80419002446E+02 0.  0.
          1    1    1    2  501    0 -0.10145378980E+02  0.18496175785E+02  0.94834424289E+02  0.97152484598E+02  0.00000000000E+00 0. -1.
         -2    1    1    2    0  503  0.50449608181E+02 -0.31263241800E+02  0.89378553769E+02  0.10728969721E+03  0.00000000000E+00 0.  1.
<mgrwt>
<rscale>  2 0.85651042E+02</rscale>
<asrwt>0</asrwt>
<pdfrwt beam="1">  1       21 0.37574812E-01 0.85651042E+02</pdfrwt>
<pdfrwt beam="2">  1       21 0.79174353E-02 0.85651042E+02</pdfrwt>
<totfact> 0.83446583E+05</totfact>
</mgrwt>
</event>
<event>
 5    1  0.1745726E+000  0.7940510E+02  0.7546771E-02  0.1330748E+00
         21   -1    0    0  501  502  0.00000000000E+00  0.00000000000E+00  0.19214355257E+03  0.19214355257E+03  0.00000000000E+00 0. -1.
         21   -1    0    0  502  503 -0.00000000000E+00 -0.00000000000E+00 -0.18124165305E+03  0.18124165305E+03  0.00000000000E+00 0.  1.
         24    1    1    2    0    0 -0.36411101223E+01 -0.46037770271E+02  0.13784851898E+03  0.16613899035E+03  0.80419002446E+02 0. -1.
          1    1    1    2  501    0 -0.18580223355E+02  0.38256755815E+02  0.27740642851E+02  0.50777429348E+02  0.00000000000E+00 0. -1.
         -2    1    1    2    0  503  0.22221333478E+02  0.77810144559E+01 -0.15468726231E+03  0.15646878592E+03  0.00000000000E+00 0.  1.
<mgrwt>
<rscale>  2 0.79405103E+02</rscale>
<asrwt>0</asrwt>
<pdfrwt beam="1">  1       21 0.29560546E-01 0.79405103E+02</pdfrwt>
<pdfrwt beam="2">  1       21 0.27883331E-01 0.79405103E+02</pdfrwt>
<totfact> 0.14024765E+05</totfact>
</mgrwt>
</event>
<event>
 5    1  0.1745726E+000  0.8950271E+02  0.7546771E-02  0.1304060E+00
         21   -1    0    0  503  502  0.00000000000E+00  0.00000000000E+00  0.20269596859E+03  0.20269596859E+03  0.00000000000E+00 0. -1.
         21   -1    0    0  501  503 -0.00000000000E+00 -0.00000000000E+00 -0.70941382494E+02  0.70941382494E+02  0.00000000000E+00 0.  1.
         24    1    1    2    0    0 -0.25346372625E+02  0.36255899605E+02  0.12565900786E+03  0.15560954685E+03  0.80419002446E+02 0. -1.
          1    1    1    2  501    0 -0.26408745804E+02 -0.53616938977E+01 -0.35664296359E+02  0.44700242183E+02  0.00000000000E+00 0. -1.
         -2    1    1    2    0  502  0.51755118428E+02 -0.30894205708E+02  0.41759874602E+02  0.73327562053E+02  0.00000000000E+00 0.  1.
<mgrwt>
<rscale>  2 0.89502707E+02</rscale>
<asrwt>0</asrwt>
<pdfrwt beam="1">  1       21 0.31183995E-01 0.89502707E+02</pdfrwt>
<pdfrwt beam="2">  1       21 0.10914059E-01 0.89502707E+02</pdfrwt>
<totfact> 0.68921941E+05</totfact>
</mgrwt>
</event>
<event>
 5    1  0.1745726E+000  0.1575150E+03  0.7546771E-02  0.1191531E+00
         21   -1    0    0  503  502  0.00000000000E+00  0.00000000000E+00  0.30944662788E+02  0.30944662788E+02  0.00000000000E+00 0.  1.
         21   -1    0    0  501  503 -0.00000000000E+00 -0.00000000000E+00 -0.11170471436E+04  0.11170471436E+04  0.00000000000E+00 0.  1.
         24    1    1    2    0    0 -0.12302162516E+03  0.70653708974E+02 -0.34010940960E+03  0.37718416364E+03  0.80419002446E+02 0.  1.
          1    1    1    2  501    0  0.44178091292E+02  0.27063573126E+01 -0.50391658408E+03  0.50585665147E+03  0.00000000000E+00 0. -1.
         -2    1    1    2    0  502  0.78843533863E+02 -0.73360066287E+02 -0.24207648709E+03  0.26495099124E+03  0.00000000000E+00 0.  1.
<mgrwt>
<rscale>  2 0.15751501E+03</rscale>
<asrwt>0</asrwt>
<pdfrwt beam="1">  1       21 0.47607173E-02 0.15751501E+03</pdfrwt>
<pdfrwt beam="2">  1       21 0.17185341E+00 0.15751501E+03</pdfrwt>
<totfact> 0.61819171E+04</totfact>
</mgrwt>
</event>
<event>
 5    1  0.1745726E+000  0.9498178E+02  0.7546771E-02  0.1291217E+00
         21   -1    0    0  501  502  0.00000000000E+00  0.00000000000E+00  0.15002237232E+03  0.15002237232E+03  0.00000000000E+00 0. -1.
         21   -1    0    0  502  503 -0.00000000000E+00 -0.00000000000E+00 -0.25870435219E+03  0.25870435219E+03  0.00000000000E+00 0. -1.
         24    1    1    2    0    0 -0.19239700976E+02 -0.38952338856E+02 -0.22046333647E+03  0.23866032238E+03  0.80419002446E+02 0. -1.
          1    1    1    2  501    0  0.32036364840E+02  0.63361216788E+02  0.12159953700E+03  0.14080987133E+03  0.00000000000E+00 0. -1.
         -2    1    1    2    0  503 -0.12796663864E+02 -0.24408877932E+02 -0.98181803919E+01  0.29256530795E+02  0.00000000000E+00 0.  1.
<mgrwt>
<rscale>  2 0.94981785E+02</rscale>
<asrwt>0</asrwt>
<pdfrwt beam="1">  1       21 0.23080365E-01 0.94981785E+02</pdfrwt>
<pdfrwt beam="2">  1       21 0.39800669E-01 0.94981785E+02</pdfrwt>
<totfact> 0.11145939E+05</totfact>
</mgrwt>
</event>
<event>
 5    1  0.1745726E+000  0.1375081E+03  0.7546771E-02  0.1216722E+00
         21   -1    0    0  501  502  0.00000000000E+00  0.00000000000E+00  0.95255577860E+02  0.95255577860E+02  0.00000000000E+00 0. -1.
         21   -1    0    0  502  503 -0.00000000000E+00 -0.00000000000E+00 -0.22600971052E+03  0.22600971052E+03  0.00000000000E+00 0.  1.
         24    1    1    2    0    0  0.68921474403E+02  0.72007088551E+02 -0.60924160121E+02  0.14182439732E+03  0.80419002446E+02 0.  1.
          1    1    1    2  501    0 -0.85326089401E+02 -0.13756599485E+02  0.79930017284E+00  0.86431617147E+02  0.00000000000E+00 0. -1.
         -2    1    1    2    0  503  0.16404614998E+02 -0.58250489065E+02 -0.70629272717E+02  0.93009273914E+02  0.00000000000E+00 0.  1.
<mgrwt>
<rscale>  2 0.13750808E+03</rscale>
<asrwt>0</asrwt>
<pdfrwt beam="1">  1       21 0.14654704E-01 0.13750808E+03</pdfrwt>
<pdfrwt beam="2">  1       21 0.34770724E-01 0.13750808E+03</pdfrwt>
<totfact> 0.32988742E+05</totfact>
</mgrwt>
</event>
<event>
 5    1  0.1745726E+000  0.7898525E+02  0.7546771E-02  0.1331956E+00
         21   -1    0    0  503  502  0.00000000000E+00  0.00000000000E+00  0.10011843893E+03  0.10011843893E+03  0.00000000000E+00 0.  1.
         21   -1    0    0  501  503 -0.00000000000E+00 -0.00000000000E+00 -0.64987503739E+03  0.64987503739E+03  0.00000000000E+00 0. -1.
         24    1    1    2    0    0 -0.16176499975E+02  0.15494208161E+02 -0.24210651997E+03  0.25609477270E+03  0.80419002446E+02 0.  1.
          1    1    1    2  501    0  0.44024073484E+02 -0.15407809423E+02 -0.39729729280E+03  0.40002582229E+03  0.00000000000E+00 0. -1.
         -2    1    1    2    0  502 -0.27847573508E+02 -0.86398737964E-01  0.89647214311E+02  0.93872881327E+02  0.00000000000E+00 0.  1.
<mgrwt>
<rscale>  2 0.78985252E+02</rscale>
<asrwt>0</asrwt>
<pdfrwt beam="1">  1       21 0.15402836E-01 0.78985252E+02</pdfrwt>
<pdfrwt beam="2">  1       21 0.99980778E-01 0.78985252E+02</pdfrwt>
<totfact> 0.33269543E+04</totfact>
</mgrwt>
</event>
<event>
 5    1  0.1745726E+000  0.1010449E+03  0.7546771E-02  0.1278114E+00
         21   -1    0    0  501  502  0.00000000000E+00  0.00000000000E+00  0.81179375206E+02  0.81179375206E+02  0.00000000000E+00 0. -1.
         21   -1    0    0  502  503 -0.00000000000E+00 -0.00000000000E+00 -0.82218776671E+03  0.82218776671E+03  0.00000000000E+00 0.  1.
         24    1    1    2    0    0 -0.19064879416E+02 -0.34203880959E+02 -0.19644880024E+03  0.21585347384E+03  0.80419002446E+02 0. -1.
          1    1    1    2  501    0  0.56887160314E+02 -0.62897335840E+01  0.58542552121E+02  0.81871485671E+02  0.00000000000E+00 0. -1.
         -2    1    1    2    0  503 -0.37822280898E+02  0.40493614543E+02 -0.60310214338E+03  0.60564218240E+03  0.00000000000E+00 0.  1.
<mgrwt>
<rscale>  2 0.10104487E+03</rscale>
<asrwt>0</asrwt>
<pdfrwt beam="1">  1       21 0.12489135E-01 0.10104487E+03</pdfrwt>
<pdfrwt beam="2">  1       21 0.12649042E+00 0.10104487E+03</pdfrwt>
<totfact> 0.27020857E+04</totfact>
</mgrwt>
</event>
<event>
 5    1  0.1745726E+000  0.8497378E+02  0.7546771E-02  0.1315501E+00
         21   -1    0    0  503  502  0.00000000000E+00  0.00000000000E+00  0.81357507979E+01  0.81357507979E+01  0.00000000000E+00 0. -1.
         21   -1    0    0  501  503 -0.00000000000E+00 -0.00000000000E+00 -0.92532359620E+03  0.92532359620E+03  0.00000000000E+00 0.  1.
         24    1    1    2    0    0 -0.15375508337E+02 -0.23925914531E+00 -0.50679322660E+03  0.51336444558E+03  0.80419002446E+02 0.  1.
          1    1    1    2  501    0  0.18183330427E+02  0.42234548197E+02 -0.25438574141E+03  0.25850821264E+03  0.00000000000E+00 0. -1.
         -2    1    1    2    0  502 -0.28078220897E+01 -0.41995289051E+02 -0.15600887738E+03  0.16158668877E+03  0.00000000000E+00 0.  1.
<mgrwt>
<rscale>  2 0.84973777E+02</rscale>
<asrwt>0</asrwt>
<pdfrwt beam="1">  1       21 0.12516542E-02 0.84973777E+02</pdfrwt>
<pdfrwt beam="2">  1       21 0.14235745E+00 0.84973777E+02</pdfrwt>
<totfact> 0.91294322E+05</totfact>
</mgrwt>
</event>
<event>
 5    1  0.1745726E+000  0.7339294E+02  0.7546771E-02  0.1348921E+00
         21   -1    0    0  503  502  0.00000000000E+00  0.00000000000E+00  0.63589695598E+02  0.63589695598E+02  0.00000000000E+00 0.  1.
         21   -1    0    0  501  503 -0.00000000000E+00 -0.00000000000E+00 -0.11999071810E+03  0.11999071810E+03  0.00000000000E+00 0. -1.
         24    1    1    2    0    0  0.20037826724E+02 -0.79129103251E+01 -0.25328695158E+02  0.87022338526E+02  0.80419002446E+02 0.  1.
          1    1    1    2  501    0  0.13556959304E+02 -0.16973306398E+02 -0.47032674162E+02  0.51806917631E+02  0.00000000000E+00 0. -1.
         -2    1    1    2    0  502 -0.33594786029E+02  0.24886216723E+02  0.15960346815E+02  0.44751157545E+02  0.00000000000E+00 0.  1.
<mgrwt>
<rscale>  2 0.73392944E+02</rscale>
<asrwt>0</asrwt>
<pdfrwt beam="1">  1       21 0.97830301E-02 0.73392944E+02</pdfrwt>
<pdfrwt beam="2">  1       21 0.18460110E-01 0.73392944E+02</pdfrwt>
<totfact> 0.21947414E+06</totfact>
</mgrwt>
</event>
<event>
 5    1  0.1745726E+000  0.8749457E+02  0.7546771E-02  0.1309035E+00
         21   -1    0    0  501  502  0.00000000000E+00  0.00000000000E+00  0.84487046749E+03  0.84487046749E+03  0.00000000000E+00 0. -1.
         21   -1    0    0  502  503 -0.00000000000E+00 -0.00000000000E+00 -0.11857420269E+02  0.11857420269E+02  0.00000000000E+00 0.  1.
         24    1    1    2    0    0 -0.66933027977E+01 -0.40920943691E+02  0.24935048930E+03  0.26525875368E+03  0.80419002446E+02 0.  1.
          1    1    1    2  501    0  0.32213467998E+02 -0.43849741385E+01  0.37570721985E+03  0.37711119125E+03  0.00000000000E+00 0. -1.
         -2    1    1    2    0  503 -0.25520165200E+02  0.45305917829E+02  0.20795533807E+03  0.21435794283E+03  0.00000000000E+00 0.  1.
<mgrwt>
<rscale>  2 0.87494566E+02</rscale>
<asrwt>0</asrwt>
<pdfrwt beam="1">  1       21 0.12998003E+00 0.87494566E+02</pdfrwt>
<pdfrwt beam="2">  1       21 0.18242192E-02 0.87494566E+02</pdfrwt>
<totfact> 0.63004486E+05</totfact>
</mgrwt>
</event>
<event>
 5    1  0.1745726E+000  0.8196461E+02  0.7546771E-02  0.1323567E+00
         21   -1    0    0  501  502  0.00000000000E+00  0.00000000000E+00  0.97513423707E+02  0.97513423707E+02  0.00000000000E+00 0.  1.
         21   -1    0    0  502  503 -0.00000000000E+00 -0.00000000000E+00 -0.13077582102E+03  0.13077582102E+03  0.00000000000E+00 0.  1.
         24    1    1    2    0    0  0.17580022037E+02 -0.59688776567E+02 -0.93516400833E+02  0.13814608356E+03  0.80419002446E+02 0.  1.
          1    1    1    2  501    0 -0.58886930805E+01  0.22989039032E+02  0.40290495330E+02  0.46759989690E+02  0.00000000000E+00 0. -1.
         -2    1    1    2    0  503 -0.11691328956E+02  0.36699737535E+02  0.19963508194E+02  0.43383171476E+02  0.00000000000E+00 0.  1.
<mgrwt>
<rscale>  2 0.81964614E+02</rscale>
<asrwt>0</asrwt>
<pdfrwt beam="1">  1       21 0.15002065E-01 0.81964614E+02</pdfrwt>
<pdfrwt beam="2">  1       21 0.20119357E-01 0.81964614E+02</pdfrwt>
<totfact> 0.89202274E+05</totfact>
</mgrwt>
</event>
<event>
 5    1  0.1745726E+000  0.8142437E+02  0.7546771E-02  0.1325057E+00
         21   -1    0    0  501  502  0.00000000000E+00  0.00000000000E+00  0.27383377876E+02  0.27383377876E+02  0.00000000000E+00 0.  1.
         21   -1    0    0  502  503 -0.00000000000E+00 -0.00000000000E+00 -0.49451231582E+03  0.49451231582E+03  0.00000000000E+00 0. -1.
         24    1    1    2    0    0  0.48915246176E+02 -0.10964127196E+02 -0.29037418832E+03  0.30544606494E+03  0.80419002446E+02 0.  0.
          1    1    1    2  501    0 -0.38059365796E+02  0.28440305845E+02 -0.10155642172E+02  0.48585011982E+02  0.00000000000E+00 0. -1.
         -2    1    1    2    0  503 -0.10855880380E+02 -0.17476178649E+02 -0.16659910745E+03  0.16786461677E+03  0.00000000000E+00 0.  1.
<mgrwt>
<rscale>  2 0.81424373E+02</rscale>
<asrwt>0</asrwt>
<pdfrwt beam="1">  1       21 0.42128271E-02 0.81424373E+02</pdfrwt>
<pdfrwt beam="2">  1       21 0.76078822E-01 0.81424373E+02</pdfrwt>
<totfact> 0.55982391E+05</totfact>
</mgrwt>
</event>
<event>
 5    1  0.1745726E+000  0.9577364E+02  0.7546771E-02  0.1289443E+00
         21   -1    0    0  501  502  0.00000000000E+00  0.00000000000E+00  0.18314013570E+03  0.18314013570E+03  0.00000000000E+00 0.  1.
         21   -1    0    0  502  503 -0.00000000000E+00 -0.00000000000E+00 -0.52891838228E+02  0.52891838228E+02  0.00000000000E+00 0. -1.
         24    1    1    2    0    0  0.56011092569E+02 -0.53616127968E+02  0.80416878502E+02  0.13764454937E+03  0.80419002446E+02 0. -1.
          1    1    1    2  501    0 -0.48381182953E+02  0.34987248785E+02  0.50568149377E+02  0.78243109428E+02  0.00000000000E+00 0. -1.
         -2    1    1    2    0  503 -0.76299096157E+01  0.18628879183E+02 -0.73673040736E+00  0.20144315130E+02  0.00000000000E+00 0.  1.
<mgrwt>
<rscale>  2 0.95773639E+02</rscale>
<asrwt>0</asrwt>
<pdfrwt beam="1">  1       21 0.28175405E-01 0.95773639E+02</pdfrwt>
<pdfrwt beam="2">  1       21 0.81372060E-02 0.95773639E+02</pdfrwt>
<totfact> 0.13905290E+06</totfact>
</mgrwt>
</event>
<event>
 5    1  0.1745726E+000  0.7277204E+02  0.7546771E-02  0.1350912E+00
         21   -1    0    0  503  502  0.00000000000E+00  0.00000000000E+00  0.27097453532E+03  0.27097453532E+03  0.00000000000E+00 0.  1.
         21   -1    0    0  501  503 -0.00000000000E+00 -0.00000000000E+00 -0.31537595380E+02  0.31537595380E+02  0.00000000000E+00 0. -1.
         24    1    1    2    0    0 -0.91438861712E+01  0.45121671018E+02  0.71757548802E+02  0.11720041644E+03  0.80419002446E+02 0.  1.
          1    1    1    2  501    0  0.15614371100E+02 -0.13620186904E+02  0.76565059547E+01  0.22089367568E+02  0.00000000000E+00 0. -1.
         -2    1    1    2    0  502 -0.64704849288E+01 -0.31501484115E+02  0.16002288518E+03  0.16322234669E+03  0.00000000000E+00 0.  1.
<mgrwt>
<rscale>  2 0.72772041E+02</rscale>
<asrwt>0</asrwt>
<pdfrwt beam="1">  1       21 0.41688388E-01 0.72772041E+02</pdfrwt>
<pdfrwt beam="2">  1       21 0.48519380E-02 0.72772041E+02</pdfrwt>
<totfact> 0.15400108E+06</totfact>
</mgrwt>
</event>
<event>
 5    1  0.1745726E+000  0.1071872E+03  0.7546771E-02  0.1265869E+00
         21   -1    0    0  501  502  0.00000000000E+00  0.00000000000E+00  0.14412930538E+03  0.14412930538E+03  0.00000000000E+00 0. -1.
         21   -1    0    0  502  503 -0.00000000000E+00 -0.00000000000E+00 -0.11181632223E+03  0.11181632223E+03  0.00000000000E+00 0.  1.
         24    1    1    2    0    0  0.22243434445E+02 -0.88086493200E+02  0.49931979932E+02  0.13120373179E+03  0.80419002446E+02 0.  0.
          1    1    1    2  501    0 -0.18651373858E+02  0.33527015665E+02  0.32717791288E+02  0.50422102227E+02  0.00000000000E+00 0. -1.
         -2    1    1    2    0  503 -0.35920605871E+01  0.54559477535E+02 -0.50336788070E+02  0.74319793604E+02  0.00000000000E+00 0.  1.
<mgrwt>
<rscale>  2 0.10718721E+03</rscale>
<asrwt>0</asrwt>
<pdfrwt beam="1">  1       21 0.22173739E-01 0.10718721E+03</pdfrwt>
<pdfrwt beam="2">  1       21 0.17202511E-01 0.10718721E+03</pdfrwt>
<totfact> 0.58459888E+05</totfact>
</mgrwt>
</event>
<event>
 5    1  0.1745726E+000  0.6812662E+02  0.7546771E-02  0.1366582E+00
         21   -1    0    0  503  502  0.00000000000E+00  0.00000000000E+00  0.10143719704E+03  0.10143719704E+03  0.00000000000E+00 0. -1.
         21   -1    0    0  501  503 -0.00000000000E+00 -0.00000000000E+00 -0.46765827462E+02  0.46765827462E+02  0.00000000000E+00 0. -1.
         24    1    1    2    0    0 -0.86445099031E+01 -0.11434003226E+02  0.41451052242E+02  0.91601690310E+02  0.80419002446E+02 0.  0.
          1    1    1    2  501    0  0.30395680924E+02  0.12320011329E+02  0.11535396365E+02  0.34767016945E+02  0.00000000000E+00 0. -1.
         -2    1    1    2    0  502 -0.21751171021E+02 -0.88600810300E+00  0.16849209753E+01  0.21834317251E+02  0.00000000000E+00 0.  1.
<mgrwt>
<rscale>  2 0.68126622E+02</rscale>
<asrwt>0</asrwt>
<pdfrwt beam="1">  1       21 0.15605723E-01 0.68126622E+02</pdfrwt>
<pdfrwt beam="2">  1       21 0.71947427E-02 0.68126622E+02</pdfrwt>
<totfact> 0.49769440E+06</totfact>
</mgrwt>
</event>
<event>
 5    1  0.1745726E+000  0.1214959E+03  0.7546771E-02  0.1240650E+00
         21   -1    0    0  501  502  0.00000000000E+00  0.00000000000E+00  0.17210478619E+02  0.17210478619E+02  0.00000000000E+00 0. -1.
         21   -1    0    0  502  503 -0.00000000000E+00 -0.00000000000E+00 -0.99644604589E+03  0.99644604589E+03  0.00000000000E+00 0. -1.
         24    1    1    2    0    0  0.21694754758E+02 -0.47055141888E+02 -0.27856063660E+03  0.29453029213E+03  0.80419002446E+02 0.  0.
          1    1    1    2  501    0  0.52695839816E+02  0.50320755351E+02 -0.19829625884E+03  0.21125916837E+03  0.00000000000E+00 0. -1.
         -2    1    1    2    0  503 -0.74390594574E+02 -0.32656134628E+01 -0.50237867183E+03  0.50786706401E+03  0.00000000000E+00 0.  1.
<mgrwt>
<rscale>  2 0.12149588E+03</rscale>
<asrwt>0</asrwt>
<pdfrwt beam="1">  1       21 0.26477654E-02 0.12149588E+03</pdfrwt>
<pdfrwt beam="2">  1       21 0.15329942E+00 0.12149588E+03</pdfrwt>
<totfact> 0.22567557E+05</totfact>
</mgrwt>
</event>
<event>
 5    1  0.1745726E+000  0.9075143E+02  0.7546771E-02  0.1301042E+00
         21   -1    0    0  503  502  0.00000000000E+00  0.00000000000E+00  0.93299960569E+02  0.93299960569E+02  0.00000000000E+00 0. -1.
         21   -1    0    0  501  503 -0.00000000000E+00 -0.00000000000E+00 -0.11037696904E+03  0.11037696904E+03  0.00000000000E+00 0. -1.
         24    1    1    2    0    0 -0.14391293184E+02  0.65413855138E+02  0.64132055190E+01  0.10485431285E+03  0.80419002446E+02 0. -1.
          1    1    1    2  501    0 -0.10537937486E+02 -0.39520842952E+02 -0.41801848730E+02  0.58483670467E+02  0.00000000000E+00 0. -1.
         -2    1    1    2    0  502  0.24929230670E+02 -0.25893012185E+02  0.18311634735E+02  0.40338946299E+02  0.00000000000E+00 0.  1.
<mgrwt>
<rscale>  2 0.90751435E+02</rscale>
<asrwt>0</asrwt>
<pdfrwt beam="1">  1       21 0.14353840E-01 0.90751435E+02</pdfrwt>
<pdfrwt beam="2">  1       21 0.16981072E-01 0.90751435E+02</pdfrwt>
<totfact> 0.13160767E+06</totfact>
</mgrwt>
</event>
<event>
 5    1  0.1745726E+000  0.8236361E+02  0.7546771E-02  0.1322475E+00
         21   -1    0    0  503  502  0.00000000000E+00  0.00000000000E+00  0.48378808659E+02  0.48378808659E+02  0.00000000000E+00 0. -1.
         21   -1    0    0  501  503 -0.00000000000E+00 -0.00000000000E+00 -0.17626565856E+03  0.17626565856E+03  0.00000000000E+00 0. -1.
         24    1    1    2    0    0  0.36647598167E+02  0.16062282475E+02 -0.47080966490E+02  0.10141438128E+03  0.80419002446E+02 0. -1.
          1    1    1    2  501    0  0.14919565415E+01 -0.33098590796E+02 -0.73771855012E+02  0.80870447252E+02  0.00000000000E+00 0. -1.
         -2    1    1    2    0  502 -0.38139554709E+02  0.17036308321E+02 -0.70340284025E+01  0.42359638692E+02  0.00000000000E+00 0.  1.
<mgrwt>
<rscale>  2 0.82363614E+02</rscale>
<asrwt>0</asrwt>
<pdfrwt beam="1">  1       21 0.74428936E-02 0.82363614E+02</pdfrwt>
<pdfrwt beam="2">  1       21 0.27117794E-01 0.82363614E+02</pdfrwt>
<totfact> 0.17319315E+06</totfact>
</mgrwt>
</event>
<event>
 5    1  0.1745726E+000  0.8919258E+02  0.7546771E-02  0.1304819E+00
         21   -1    0    0  501  502  0.00000000000E+00  0.00000000000E+00  0.36543770260E+02  0.36543770260E+02  0.00000000000E+00 0.  1.
         21   -1    0    0  502  503 -0.00000000000E+00 -0.00000000000E+00 -0.40190060486E+03  0.40190060486E+03  0.00000000000E+00 0.  1.
         24    1    1    2    0    0 -0.56133213129E+02 -0.32031226607E+02 -0.15034033060E+03  0.18233586607E+03  0.80419002446E+02 0.  1.
          1    1    1    2  501    0  0.37866805982E+01  0.21485222238E+02  0.10602725087E+02  0.24256370377E+02  0.00000000000E+00 0. -1.
         -2    1    1    2    0  503  0.52346532530E+02  0.10546004368E+02 -0.22561922908E+03  0.23185213868E+03  0.00000000000E+00 0.  1.
<mgrwt>
<rscale>  2 0.89192581E+02</rscale>
<asrwt>0</asrwt>
<pdfrwt beam="1">  1       21 0.56221186E-02 0.89192581E+02</pdfrwt>
<pdfrwt beam="2">  1       21 0.61830861E-01 0.89192581E+02</pdfrwt>
<totfact> 0.54114015E+05</totfact>
</mgrwt>
</event>
<event>
 5    1  0.1745726E+000  0.9585963E+02  0.7546771E-02  0.1289252E+00
         21   -1    0    0  503  502  0.00000000000E+00  0.00000000000E+00  0.86237769612E+01  0.86237769612E+01  0.00000000000E+00 0.  1.
         21   -1    0    0  501  503 -0.00000000000E+00 -0.00000000000E+00 -0.15202477329E+04  0.15202477329E+04  0.00000000000E+00 0. -1.
         24    1    1    2    0    0 -0.72997578401E+02  0.19105430434E+01 -0.88249850123E+03  0.88915865696E+03  0.80419002446E+02 0.  0.
          1    1    1    2  501    0  0.43007769358E+02 -0.20672952800E+02 -0.56030045067E+03  0.56232875991E+03  0.00000000000E+00 0. -1.
         -2    1    1    2    0  502  0.29989809043E+02  0.18762409757E+02 -0.68825004045E+02  0.77384092991E+02  0.00000000000E+00 0.  1.
<mgrwt>
<rscale>  2 0.95859631E+02</rscale>
<asrwt>0</asrwt>
<pdfrwt beam="1">  1       21 0.13267345E-02 0.95859631E+02</pdfrwt>
<pdfrwt beam="2">  1       21 0.23388434E+00 0.95859631E+02</pdfrwt>
<totfact> 0.21136950E+05</totfact>
</mgrwt>
</event>
<event>
 5    1  0.1745726E+000  0.7249896E+02  0.7546771E-02  0.1351796E+00
         21   -1    0    0  503  502  0.00000000000E+00  0.00000000000E+00  0.66126546015E+03  0.66126546015E+03  0.00000000000E+00 0.  1.
         21   -1    0    0  501  503 -0.00000000000E+00 -0.00000000000E+00 -0.13090071403E+02  0.13090071403E+02  0.00000000000E+00 0. -1.
         24    1    1    2    0    0 -0.24617823150E+01 -0.82314985361E+01  0.21178737459E+03  0.22670449032E+03  0.80419002446E+02 0.  0.
          1    1    1    2  501    0 -0.21999040807E+02  0.25873849247E+02  0.52165732373E+02  0.62246907596E+02  0.00000000000E+00 0. -1.
         -2    1    1    2    0  502  0.24460823122E+02 -0.17642350711E+02  0.38422228178E+03  0.38540413364E+03  0.00000000000E+00 0.  1.
<mgrwt>
<rscale>  2 0.72498962E+02</rscale>
<asrwt>0</asrwt>
<pdfrwt beam="1">  1       21 0.10173312E+00 0.72498962E+02</pdfrwt>
<pdfrwt beam="2">  1       21 0.20138576E-02 0.72498962E+02</pdfrwt>
<totfact> 0.96268007E+05</totfact>
</mgrwt>
</event>
<event>
 5    1  0.1745726E+000  0.6686152E+02  0.7546771E-02  0.1371103E+00
         21   -1    0    0  503  502  0.00000000000E+00  0.00000000000E+00  0.29459218457E+02  0.29459218457E+02  0.00000000000E+00 0. -1.
         21   -1    0    0  501  503 -0.00000000000E+00 -0.00000000000E+00 -0.25939629695E+03  0.25939629695E+03  0.00000000000E+00 0.  1.
         24    1    1    2    0    0 -0.42696028858E+00 -0.12346130852E+02 -0.98654171399E+02  0.12787677948E+03  0.80419002446E+02 0.  0.
          1    1    1    2  501    0 -0.24721311277E+02  0.11324599226E+02 -0.13300001506E+03  0.13575122020E+03  0.00000000000E+00 0. -1.
         -2    1    1    2    0  502  0.25148271566E+02  0.10215316260E+01  0.17171079740E+01  0.25227515720E+02  0.00000000000E+00 0.  1.
<mgrwt>
<rscale>  2 0.66861521E+02</rscale>
<asrwt>0</asrwt>
<pdfrwt beam="1">  1       21 0.45321874E-02 0.66861521E+02</pdfrwt>
<pdfrwt beam="2">  1       21 0.39907123E-01 0.66861521E+02</pdfrwt>
<totfact> 0.18709762E+06</totfact>
</mgrwt>
</event>
<event>
 5    1  0.1745726E+000  0.1122721E+03  0.7546771E-02  0.1256419E+00
         21   -1    0    0  503  502  0.00000000000E+00  0.00000000000E+00  0.10954456247E+03  0.10954456247E+03  0.00000000000E+00 0.  1.
         21   -1    0    0  501  503 -0.00000000000E+00 -0.00000000000E+00 -0.13644979942E+03  0.13644979942E+03  0.00000000000E+00 0. -1.
         24    1    1    2    0    0  0.47879390853E+01 -0.60490690252E+02  0.12116311565E+02  0.10146954680E+03  0.80419002446E+02 0.  1.
          1    1    1    2  501    0 -0.55962223549E+02  0.39450891963E+02 -0.54000995549E+02  0.87202355825E+02  0.00000000000E+00 0. -1.
         -2    1    1    2    0  502  0.51174284464E+02  0.21039798289E+02  0.14979447043E+02  0.57322459264E+02  0.00000000000E+00 0.  1.
<mgrwt>
<rscale>  2 0.11227211E+03</rscale>
<asrwt>0</asrwt>
<pdfrwt beam="1">  1       21 0.16853010E-01 0.11227211E+03</pdfrwt>
<pdfrwt beam="2">  1       21 0.20992277E-01 0.11227211E+03</pdfrwt>
<totfact> 0.67163107E+05</totfact>
</mgrwt>
</event>
<event>
 5    1  0.1745726E+000  0.1290520E+03  0.7546771E-02  0.1228869E+00
         21   -1    0    0  503  502  0.00000000000E+00  0.00000000000E+00  0.37735097672E+03  0.37735097672E+03  0.00000000000E+00 0. -1.
         21   -1    0    0  501  503 -0.00000000000E+00 -0.00000000000E+00 -0.11483200232E+03  0.11483200232E+03  0.00000000000E+00 0. -1.
         24    1    1    2    0    0  0.44285788188E+02 -0.82466707849E+02  0.15778292523E+03  0.20031139855E+03  0.80419002446E+02 0. -1.
          1    1    1    2  501    0 -0.72464569695E+02  0.77470166065E+02 -0.61884926087E+02  0.12281076731E+03  0.00000000000E+00 0. -1.
         -2    1    1    2    0  502  0.28178781507E+02  0.49965417842E+01  0.16662097525E+03  0.16906081318E+03  0.00000000000E+00 0.  1.
<mgrwt>
<rscale>  2 0.12905197E+03</rscale>
<asrwt>0</asrwt>
<pdfrwt beam="1">  1       21 0.58053996E-01 0.12905197E+03</pdfrwt>
<pdfrwt beam="2">  1       21 0.17666462E-01 0.12905197E+03</pdfrwt>
<totfact> 0.83015087E+04</totfact>
</mgrwt>
</event>
<event>
 5    1  0.1745726E+000  0.8819386E+02  0.7546771E-02  0.1307285E+00
         21   -1    0    0  503  502  0.00000000000E+00  0.00000000000E+00  0.63886129712E+03  0.63886129712E+03  0.00000000000E+00 0.  1.
         21   -1    0    0  501  503 -0.00000000000E+00 -0.00000000000E+00 -0.73018393127E+02  0.73018393127E+02  0.00000000000E+00 0. -1.
         24    1    1    2    0    0  0.38607926327E+02 -0.39776459322E+02  0.70875655200E+02  0.12067855297E+03  0.80419002446E+02 0.  1.
          1    1    1    2  501    0 -0.23411942142E+02 -0.10888606295E+02 -0.43260723617E+02  0.50380263892E+02  0.00000000000E+00 0. -1.
         -2    1    1    2    0  502 -0.15195984185E+02  0.50665065617E+02  0.53822797241E+03  0.54082087339E+03  0.00000000000E+00 0.  1.
<mgrwt>
<rscale>  2 0.88193860E+02</rscale>
<asrwt>0</asrwt>
<pdfrwt beam="1">  1       21 0.98286350E-01 0.88193860E+02</pdfrwt>
<pdfrwt beam="2">  1       21 0.11233599E-01 0.88193860E+02</pdfrwt>
<totfact> 0.59875011E+04</totfact>
</mgrwt>
</event>
<event>
 5    1  0.1745726E+000  0.6622480E+02  0.7546771E-02  0.1373423E+00
         21   -1    0    0  503  502  0.00000000000E+00  0.00000000000E+00  0.11474568278E+03  0.11474568278E+03  0.00000000000E+00 0. -1.
         21   -1    0    0  501  503 -0.00000000000E+00 -0.00000000000E+00 -0.51619043874E+02  0.51619043874E+02  0.00000000000E+00 0. -1.
         24    1    1    2    0    0 -0.35685403551E+02 -0.16322955991E+01  0.36223214099E+01  0.88070707856E+02  0.80419002446E+02 0. -1.
          1    1    1    2  501    0  0.17980158645E+02  0.14057583916E+02  0.11317680019E+02  0.25475314551E+02  0.00000000000E+00 0. -1.
         -2    1    1    2    0  502  0.17705244906E+02 -0.12425288317E+02  0.48186637479E+02  0.52818704248E+02  0.00000000000E+00 0.  1.
<mgrwt>
<rscale>  2 0.66224804E+02</rscale>
<asrwt>0</asrwt>
<pdfrwt beam="1">  1       21 0.17653182E-01 0.66224804E+02</pdfrwt>
<pdfrwt beam="2">  1       21 0.79413914E-02 0.66224804E+02</pdfrwt>
<totfact> 0.33740809E+06</totfact>
</mgrwt>
</event>
<event>
 5    1  0.1745726E+000  0.1179859E+03  0.7546771E-02  0.1246457E+00
         21   -1    0    0  503  502  0.00000000000E+00  0.00000000000E+00  0.88045855567E+03  0.88045855567E+03  0.00000000000E+00 0.  1.
         21   -1    0    0  501  503 -0.00000000000E+00 -0.00000000000E+00 -0.28343763080E+02  0.28343763080E+02  0.00000000000E+00 0. -1.
         24    1    1    2    0    0 -0.33972799974E+01  0.13542170439E+02  0.30933183493E+03  0.31991925848E+03  0.80419002446E+02 0.  0.
          1    1    1    2  501    0  0.78222662954E+02  0.46781341631E+00  0.56047662889E+02  0.96230683071E+02  0.00000000000E+00 0. -1.
         -2    1    1    2    0  502 -0.74825382957E+02 -0.14009983855E+02  0.48673529478E+03  0.49265237720E+03  0.00000000000E+00 0.  1.
<mgrwt>
<rscale>  2 0.11798586E+03</rscale>
<asrwt>0</asrwt>
<pdfrwt beam="1">  1       21 0.13545514E+00 0.11798586E+03</pdfrwt>
<pdfrwt beam="2">  1       21 0.43605796E-02 0.11798586E+03</pdfrwt>
<totfact> 0.13638546E+05</totfact>
</mgrwt>
</event>
<event>
 5    1  0.1745726E+000  0.9476019E+02  0.7546771E-02  0.1291717E+00
         21   -1    0    0  501  502  0.00000000000E+00  0.00000000000E+00  0.55016826372E+03  0.55016826372E+03  0.00000000000E+00 0.  1.
         21   -1    0    0  502  503 -0.00000000000E+00 -0.00000000000E+00 -0.22857557742E+02  0.22857557742E+02  0.00000000000E+00 0. -1.
         24    1    1    2    0    0 -0.38952532624E+02  0.43649248105E+02  0.16660073053E+03  0.19402467891E+03  0.80419002446E+02 0.  1.
          1    1    1    2  501    0  0.13935041521E+02 -0.59065504329E+02  0.33341950922E+03  0.33889745988E+03  0.00000000000E+00 0. -1.
         -2    1    1    2    0  503  0.25017491103E+02  0.15416256224E+02  0.27290466226E+02  0.40103682672E+02  0.00000000000E+00 0.  1.
<mgrwt>
<rscale>  2 0.94760188E+02</rscale>
<asrwt>0</asrwt>
<pdfrwt beam="1">  1       21 0.84641262E-01 0.94760188E+02</pdfrwt>
<pdfrwt beam="2">  1       21 0.35165477E-02 0.94760188E+02</pdfrwt>
<totfact> 0.59491566E+05</totfact>
</mgrwt>
</event>
<event>
 5    1  0.1745726E+000  0.2251110E+03  0.7546771E-02  0.1130129E+00
         21   -1    0    0  501  502  0.00000000000E+00  0.00000000000E+00  0.84740837183E+03  0.84740837183E+03  0.00000000000E+00 0. -1.
         21   -1    0    0  502  503 -0.00000000000E+00 -0.00000000000E+00 -0.60363815566E+02  0.60363815566E+02  0.00000000000E+00 0. -1.
         24    1    1    2    0    0 -0.13534070864E+03 -0.16819157260E+03  0.36242035931E+03  0.42944294768E+03  0.80419002446E+02 0. -1.
          1    1    1    2  501    0  0.62452149338E+02  0.11034869611E+03  0.25839018013E+03  0.28782388865E+03  0.00000000000E+00 0. -1.
         -2    1    1    2    0  503  0.72888559298E+02  0.57842876489E+02  0.16623401682E+03  0.19050535107E+03  0.00000000000E+00 0.  1.
<mgrwt>
<rscale>  2 0.22511100E+03</rscale>
<asrwt>0</asrwt>
<pdfrwt beam="1">  1       21 0.13037051E+00 0.22511100E+03</pdfrwt>
<pdfrwt beam="2">  1       21 0.92867414E-02 0.22511100E+03</pdfrwt>
<totfact> 0.38973693E+04</totfact>
</mgrwt>
</event>
<event>
 5    1  0.1745726E+000  0.7212417E+02  0.7546771E-02  0.1353015E+00
         21   -1    0    0  503  502  0.00000000000E+00  0.00000000000E+00  0.57215864628E+01  0.57215864628E+01  0.00000000000E+00 0. -1.
         21   -1    0    0  501  503 -0.00000000000E+00 -0.00000000000E+00 -0.10832893303E+04  0.10832893303E+04  0.00000000000E+00 0. -1.
         24    1    1    2    0    0  0.84321842269E+01 -0.34358206477E+02 -0.47574660682E+03  0.48379090312E+03  0.80419002446E+02 0. -1.
          1    1    1    2  501    0 -0.22713375350E+02  0.43049559110E+01 -0.40058883502E+03  0.40125533617E+03  0.00000000000E+00 0. -1.
         -2    1    1    2    0  502  0.14281191123E+02  0.30053250566E+02 -0.20123230202E+03  0.20396467749E+03  0.00000000000E+00 0.  1.
<mgrwt>
<rscale>  2 0.72124168E+02</rscale>
<asrwt>0</asrwt>
<pdfrwt beam="1">  1       21 0.88024427E-03 0.72124168E+02</pdfrwt>
<pdfrwt beam="2">  1       21 0.16665986E+00 0.72124168E+02</pdfrwt>
<totfact> 0.10574817E+06</totfact>
</mgrwt>
</event>
<event>
 5    1  0.1745726E+000  0.8004761E+02  0.7546771E-02  0.1328916E+00
         21   -1    0    0  501  502  0.00000000000E+00  0.00000000000E+00  0.15169693267E+03  0.15169693267E+03  0.00000000000E+00 0. -1.
         21   -1    0    0  502  503 -0.00000000000E+00 -0.00000000000E+00 -0.45875915412E+02  0.45875915412E+02  0.00000000000E+00 0.  1.
         24    1    1    2    0    0  0.12347355922E+02  0.52946107671E+02  0.56177063234E+02  0.11215536502E+03  0.80419002446E+02 0. -1.
          1    1    1    2  501    0 -0.18924474343E+02 -0.14036810150E+02  0.37211878939E+02  0.44044201690E+02  0.00000000000E+00 0. -1.
         -2    1    1    2    0  503  0.65771184211E+01 -0.38909297520E+02  0.12432075084E+02  0.41373281368E+02  0.00000000000E+00 0.  1.
<mgrwt>
<rscale>  2 0.80047610E+02</rscale>
<asrwt>0</asrwt>
<pdfrwt beam="1">  1       21 0.23337989E-01 0.80047610E+02</pdfrwt>
<pdfrwt beam="2">  1       21 0.70578332E-02 0.80047610E+02</pdfrwt>
<totfact> 0.25046243E+06</totfact>
</mgrwt>
</event>
<event>
 5    1  0.1745726E+000  0.9689460E+02  0.7546771E-02  0.1286965E+00
         21   -1    0    0  503  502  0.00000000000E+00  0.00000000000E+00  0.58834850747E+02  0.58834850747E+02  0.00000000000E+00 0. -1.
         21   -1    0    0  501  503 -0.00000000000E+00 -0.00000000000E+00 -0.25199911889E+03  0.25199911889E+03  0.00000000000E+00 0. -1.
         24    1    1    2    0    0  0.76133510138E+01  0.69970083124E+02 -0.37982172723E+02  0.11341797497E+03  0.80419002446E+02 0. -1.
          1    1    1    2  501    0 -0.28562921688E+02 -0.27928153866E+02 -0.14357758832E+03  0.14903135959E+03  0.00000000000E+00 0. -1.
         -2    1    1    2    0  502  0.20949570675E+02 -0.42041929258E+02 -0.11604507104E+02  0.48384635086E+02  0.00000000000E+00 0.  1.
<mgrwt>
<rscale>  2 0.96894602E+02</rscale>
<asrwt>0</asrwt>
<pdfrwt beam="1">  1       21 0.90515154E-02 0.96894602E+02</pdfrwt>
<pdfrwt beam="2">  1       21 0.38769096E-01 0.96894602E+02</pdfrwt>
<totfact> 0.62442903E+05</totfact>
</mgrwt>
</event>
<event>
 5    1  0.1745726E+000  0.8266905E+02  0.7546771E-02  0.1321643E+00
         21   -1    0    0  501  502  0.00000000000E+00  0.00000000000E+00  0.67154748090E+03  0.67154748090E+03  0.00000000000E+00 0.  1.
         21   -1    0    0  502  503 -0.00000000000E+00 -0.00000000000E+00 -0.24845549810E+02  0.24845549810E+02  0.00000000000E+00 0. -1.
         24    1    1    2    0    0 -0.14848320980E+02  0.16548863538E+02  0.80062978964E+02  0.11563578198E+03  0.80419002446E+02 0. -1.
          1    1    1    2  501    0 -0.12004933846E+02  0.27673485944E+02  0.47147307054E+03  0.47243708206E+03  0.00000000000E+00 0. -1.
         -2    1    1    2    0  503  0.26853254826E+02 -0.44222349482E+02  0.95165881592E+02  0.10832016667E+03  0.00000000000E+00 0.  1.
<mgrwt>
<rscale>  2 0.82669052E+02</rscale>
<asrwt>0</asrwt>
<pdfrwt beam="1">  1       21 0.10331498E+00 0.82669052E+02</pdfrwt>
<pdfrwt beam="2">  1       21 0.38223928E-02 0.82669052E+02</pdfrwt>
<totfact> 0.33001363E+05</totfact>
</mgrwt>
</event>
<event>
 5    1  0.1745726E+000  0.9074438E+02  0.7546771E-02  0.1301059E+00
         21   -1    0    0  503  502  0.00000000000E+00  0.00000000000E+00  0.13422347229E+02  0.13422347229E+02  0.00000000000E+00 0.  1.
         21   -1    0    0  501  503 -0.00000000000E+00 -0.00000000000E+00 -0.89883033075E+03  0.89883033075E+03  0.00000000000E+00 0. -1.
         24    1    1    2    0    0  0.82322070878E+01 -0.11979957980E+02 -0.41181714680E+03  0.41984743298E+03  0.80419002446E+02 0.  1.
          1    1    1    2  501    0  0.33983091397E+02 -0.26150636508E+02 -0.38328121143E+03  0.38567239119E+03  0.00000000000E+00 0. -1.
         -2    1    1    2    0  502 -0.42215298485E+02  0.38130594489E+02 -0.90309625288E+02  0.10673285381E+03  0.00000000000E+00 0.  1.
<mgrwt>
<rscale>  2 0.90744377E+02</rscale>
<asrwt>0</asrwt>
<pdfrwt beam="1">  1       21 0.20649767E-02 0.90744377E+02</pdfrwt>
<pdfrwt beam="2">  1       21 0.13828157E+00 0.90744377E+02</pdfrwt>
<totfact> 0.44332784E+05</totfact>
</mgrwt>
</event>
<event>
 5    1  0.1745726E+000  0.6931986E+02  0.7546771E-02  0.1362421E+00
         21   -1    0    0  503  502  0.00000000000E+00  0.00000000000E+00  0.43954081963E+03  0.43954081963E+03  0.00000000000E+00 0. -1.
         21   -1    0    0  501  503 -0.00000000000E+00 -0.00000000000E+00 -0.33832578544E+03  0.33832578544E+03  0.00000000000E+00 0. -1.
         24    1    1    2    0    0 -0.30714615066E+02  0.33183751020E+02  0.84152897621E+02  0.12487383650E+03  0.80419002446E+02 0. -1.
          1    1    1    2  501    0  0.12483534713E+02 -0.21074299607E+02 -0.31713511628E+03  0.31807962324E+03  0.00000000000E+00 0. -1.
         -2    1    1    2    0  502  0.18231080353E+02 -0.12109451414E+02  0.33419725284E+03  0.33491314532E+03  0.00000000000E+00 0.  1.
<mgrwt>
<rscale>  2 0.69319863E+02</rscale>
<asrwt>0</asrwt>
<pdfrwt beam="1">  1       21 0.67621665E-01 0.69319863E+02</pdfrwt>
<pdfrwt beam="2">  1       21 0.52050121E-01 0.69319863E+02</pdfrwt>
<totfact> 0.79691320E+03</totfact>
</mgrwt>
</event>
<event>
 5    1  0.1745726E+000  0.7642326E+02  0.7546771E-02  0.1339519E+00
         21   -1    0    0  503  502  0.00000000000E+00  0.00000000000E+00  0.18493578554E+02  0.18493578554E+02  0.00000000000E+00 0. -1.
         21   -1    0    0  501  503 -0.00000000000E+00 -0.00000000000E+00 -0.39223463473E+03  0.39223463473E+03  0.00000000000E+00 0.  1.
         24    1    1    2    0    0  0.10907048166E+02  0.16140261126E-02 -0.12012346858E+03  0.14496836676E+03  0.80419002446E+02 0. -1.
          1    1    1    2  501    0 -0.16219043989E+02 -0.33793647801E+02 -0.18864058119E+03  0.19232872092E+03  0.00000000000E+00 0. -1.
         -2    1    1    2    0  502  0.53119958227E+01  0.33792033775E+02 -0.64977006402E+02  0.73431125602E+02  0.00000000000E+00 0.  1.
<mgrwt>
<rscale>  2 0.76423259E+02</rscale>
<asrwt>0</asrwt>
<pdfrwt beam="1">  1       21 0.28451661E-02 0.76423259E+02</pdfrwt>
<pdfrwt beam="2">  1       21 0.60343787E-01 0.76423259E+02</pdfrwt>
<totfact> 0.17394386E+06</totfact>
</mgrwt>
</event>
<event>
 5    1  0.1745726E+000  0.6583521E+02  0.7546771E-02  0.1374857E+00
         21   -1    0    0  503  502  0.00000000000E+00  0.00000000000E+00  0.14345440866E+03  0.14345440866E+03  0.00000000000E+00 0. -1.
         21   -1    0    0  501  503 -0.00000000000E+00 -0.00000000000E+00 -0.30271871164E+02  0.30271871164E+02  0.00000000000E+00 0.  1.
         24    1    1    2    0    0 -0.79370750973E+00  0.24676377309E+02  0.75910616639E+02  0.11331015507E+03  0.80419002446E+02 0. -1.
          1    1    1    2  501    0  0.20288069029E+02 -0.17436981530E+02  0.20684084164E+02  0.33815461071E+02  0.00000000000E+00 0. -1.
         -2    1    1    2    0  502 -0.19494361519E+02 -0.72393957791E+01  0.16587836695E+02  0.26600663685E+02  0.00000000000E+00 0.  1.
<mgrwt>
<rscale>  2 0.65835208E+02</rscale>
<asrwt>0</asrwt>
<pdfrwt beam="1">  1       21 0.22069909E-01 0.65835208E+02</pdfrwt>
<pdfrwt beam="2">  1       21 0.46572110E-02 0.65835208E+02</pdfrwt>
<totfact> 0.54789170E+06</totfact>
</mgrwt>
</event>
<event>
 5    1  0.1745726E+000  0.7062245E+02  0.7546771E-02  0.1357989E+00
         21   -1    0    0  501  502  0.00000000000E+00  0.00000000000E+00  0.11435530432E+03  0.11435530432E+03  0.00000000000E+00 0.  1.
         21   -1    0    0  502  503 -0.00000000000E+00 -0.00000000000E+00 -0.44733707632E+02  0.44733707632E+02  0.00000000000E+00 0. -1.
         24    1    1    2    0    0 -0.25558237213E+01  0.22582494944E+01  0.38657948932E+02  0.89293252241E+02  0.80419002446E+02 0.  0.
          1    1    1    2  501    0  0.33120556576E+01  0.29149343666E+02  0.23284268317E+02  0.37454119932E+02  0.00000000000E+00 0. -1.
         -2    1    1    2    0  503 -0.75623193627E+00 -0.31407593161E+02  0.76793794364E+01  0.32341639776E+02  0.00000000000E+00 0.  1.
<mgrwt>
<rscale>  2 0.70622446E+02</rscale>
<asrwt>0</asrwt>
<pdfrwt beam="1">  1       21 0.17593124E-01 0.70622446E+02</pdfrwt>
<pdfrwt beam="2">  1       21 0.68821089E-02 0.70622446E+02</pdfrwt>
<totfact> 0.43414894E+06</totfact>
</mgrwt>
</event>
<event>
 5    1  0.1745726E+000  0.1151800E+03  0.7546771E-02  0.1251267E+00
         21   -1    0    0  503  502  0.00000000000E+00  0.00000000000E+00  0.22915322591E+03  0.22915322591E+03  0.00000000000E+00 0.  1.
         21   -1    0    0  501  503 -0.00000000000E+00 -0.00000000000E+00 -0.91729549325E+02  0.91729549325E+02  0.00000000000E+00 0. -1.
         24    1    1    2    0    0  0.46313504929E+02  0.81011296166E+02  0.70907801879E+02  0.14213691697E+03  0.80419002446E+02 0.  1.
          1    1    1    2  501    0 -0.31450199915E+02 -0.77118193609E+01 -0.38190677841E+02  0.50071100512E+02  0.00000000000E+00 0. -1.
         -2    1    1    2    0  502 -0.14863305014E+02 -0.73299476806E+02  0.10470655255E+03  0.12867475775E+03  0.00000000000E+00 0.  1.
<mgrwt>
<rscale>  2 0.11517997E+03</rscale>
<asrwt>0</asrwt>
<pdfrwt beam="1">  1       21 0.35254342E-01 0.11517997E+03</pdfrwt>
<pdfrwt beam="2">  1       21 0.14112238E-01 0.11517997E+03</pdfrwt>
<totfact> 0.34476768E+05</totfact>
</mgrwt>
</event>
<event>
 5    1  0.1745726E+000  0.6598809E+02  0.7546771E-02  0.1374293E+00
         21   -1    0    0  501  502  0.00000000000E+00  0.00000000000E+00  0.30559026627E+03  0.30559026627E+03  0.00000000000E+00 0. -1.
         21   -1    0    0  502  503 -0.00000000000E+00 -0.00000000000E+00 -0.16825577822E+02  0.16825577822E+02  0.00000000000E+00 0.  1.
         24    1    1    2    0    0  0.21448417015E+02 -0.33058650282E+01  0.22942527656E+03  0.24407813670E+03  0.80419002446E+02 0.  0.
          1    1    1    2  501    0 -0.15820912029E+02  0.23157898971E+02  0.45644103770E+02  0.53572135958E+02  0.00000000000E+00 0. -1.
         -2    1    1    2    0  503 -0.56275049860E+01 -0.19852033943E+02  0.13695308121E+02  0.24765571436E+02  0.00000000000E+00 0.  1.
<mgrwt>
<rscale>  2 0.65988091E+02</rscale>
<asrwt>0</asrwt>
<pdfrwt beam="1">  1       21 0.47013883E-01 0.65988091E+02</pdfrwt>
<pdfrwt beam="2">  1       21 0.25885507E-02 0.65988091E+02</pdfrwt>
<totfact> 0.33509427E+06</totfact>
</mgrwt>
</event>
<event>
 5    1  0.1745726E+000  0.1239346E+03  0.7546771E-02  0.1236744E+00
         21   -1    0    0  501  502  0.00000000000E+00  0.00000000000E+00  0.85985125070E+02  0.85985125070E+02  0.00000000000E+00 0. -1.
         21   -1    0    0  502  503 -0.00000000000E+00 -0.00000000000E+00 -0.22781479539E+03  0.22781479539E+03  0.00000000000E+00 0. -1.
         24    1    1    2    0    0  0.97551302754E+01  0.61819561429E+02 -0.79392781776E+02  0.12917914110E+03  0.80419002446E+02 0. -1.
          1    1    1    2  501    0 -0.70989617643E+02 -0.33866228197E+02  0.17029959996E+02  0.80476498202E+02  0.00000000000E+00 0. -1.
         -2    1    1    2    0  503  0.61234487367E+02 -0.27953333232E+02 -0.79466848540E+02  0.10414428116E+03  0.00000000000E+00 0.  1.
<mgrwt>
<rscale>  2 0.12393457E+03</rscale>
<asrwt>0</asrwt>
<pdfrwt beam="1">  1       21 0.13228481E-01 0.12393457E+03</pdfrwt>
<pdfrwt beam="2">  1       21 0.35048429E-01 0.12393457E+03</pdfrwt>
<totfact> 0.39097006E+05</totfact>
</mgrwt>
</event>
<event>
 5    1  0.1745726E+000  0.6591918E+02  0.7546771E-02  0.1374547E+00
         21   -1    0    0  501  502  0.00000000000E+00  0.00000000000E+00  0.61284534616E+02  0.61284534616E+02  0.00000000000E+00 0. -1.
         21   -1    0    0  502  503 -0.00000000000E+00 -0.00000000000E+00 -0.87910320221E+02  0.87910320221E+02  0.00000000000E+00 0. -1.
         24    1    1    2    0    0 -0.78036109328E+01  0.11100496163E+02 -0.25993041338E+02  0.85597730759E+02  0.80419002446E+02 0. -1.
          1    1    1    2  501    0 -0.14527263665E+02 -0.21259991373E+02  0.19143199517E+02  0.32085677654E+02  0.00000000000E+00 0. -1.
         -2    1    1    2    0  503  0.22330874598E+02  0.10159495210E+02 -0.19775943784E+02  0.31511446425E+02  0.00000000000E+00 0.  1.
<mgrwt>
<rscale>  2 0.65919180E+02</rscale>
<asrwt>0</asrwt>
<pdfrwt beam="1">  1       21 0.94283899E-02 0.65919180E+02</pdfrwt>
<pdfrwt beam="2">  1       21 0.13524665E-01 0.65919180E+02</pdfrwt>
<totfact> 0.40399599E+06</totfact>
</mgrwt>
</event>
<event>
 5    1  0.1745726E+000  0.6628002E+02  0.7546771E-02  0.1373220E+00
         21   -1    0    0  503  502  0.00000000000E+00  0.00000000000E+00  0.20155846324E+03  0.20155846324E+03  0.00000000000E+00 0. -1.
         21   -1    0    0  501  503 -0.00000000000E+00 -0.00000000000E+00 -0.82226485159E+02  0.82226485159E+02  0.00000000000E+00 0. -1.
         24    1    1    2    0    0  0.60355576008E+01 -0.13147172049E+02  0.48196390484E+02  0.94865083663E+02  0.80419002446E+02 0. -1.
          1    1    1    2  501    0  0.20999427796E+02  0.11062248328E+02 -0.54999940479E+02  0.59902777553E+02  0.00000000000E+00 0. -1.
         -2    1    1    2    0  502 -0.27034985397E+02  0.20849237207E+01  0.12613552808E+03  0.12901708719E+03  0.00000000000E+00 0.  1.
<mgrwt>
<rscale>  2 0.66280022E+02</rscale>
<asrwt>0</asrwt>
<pdfrwt beam="1">  1       21 0.31008994E-01 0.66280022E+02</pdfrwt>
<pdfrwt beam="2">  1       21 0.12650229E-01 0.66280022E+02</pdfrwt>
<totfact> 0.53690930E+05</totfact>
</mgrwt>
</event>
<event>
 5    1  0.1745726E+000  0.8940419E+02  0.7546771E-02  0.1304301E+00
         21   -1    0    0  503  502  0.00000000000E+00  0.00000000000E+00  0.28713595928E+02  0.28713595928E+02  0.00000000000E+00 0.  1.
         21   -1    0    0  501  503 -0.00000000000E+00 -0.00000000000E+00 -0.34106649907E+03  0.34106649907E+03  0.00000000000E+00 0.  1.
         24    1    1    2    0    0  0.26830086452E+02  0.50621543613E+02 -0.18649107785E+03  0.21101784827E+03  0.80419002446E+02 0.  1.
          1    1    1    2  501    0  0.14262149362E+02 -0.31838007043E+02 -0.10171775854E+03  0.10753404112E+03  0.00000000000E+00 0. -1.
         -2    1    1    2    0  502 -0.41092235814E+02 -0.18783536570E+02 -0.24144066745E+02  0.51228205603E+02  0.00000000000E+00 0.  1.
<mgrwt>
<rscale>  2 0.89404194E+02</rscale>
<asrwt>0</asrwt>
<pdfrwt beam="1">  1       21 0.44174762E-02 0.89404194E+02</pdfrwt>
<pdfrwt beam="2">  1       21 0.52471770E-01 0.89404194E+02</pdfrwt>
<totfact> 0.11376937E+06</totfact>
</mgrwt>
</event>
<event>
 5    1  0.1745726E+000  0.7797005E+02  0.7546771E-02  0.1334913E+00
         21   -1    0    0  503  502  0.00000000000E+00  0.00000000000E+00  0.29831715744E+02  0.29831715744E+02  0.00000000000E+00 0. -1.
         21   -1    0    0  501  503 -0.00000000000E+00 -0.00000000000E+00 -0.34748999207E+03  0.34748999207E+03  0.00000000000E+00 0.  1.
         24    1    1    2    0    0  0.41220529126E+02 -0.39705731788E+02 -0.67742669483E+02  0.11971617427E+03  0.80419002446E+02 0. -1.
          1    1    1    2  501    0 -0.23267111873E+02  0.22250373223E+02 -0.18935597804E+03  0.19207322568E+03  0.00000000000E+00 0. -1.
         -2    1    1    2    0  502 -0.17953417253E+02  0.17455358565E+02 -0.60559628801E+02  0.65532307865E+02  0.00000000000E+00 0.  1.
<mgrwt>
<rscale>  2 0.77970054E+02</rscale>
<asrwt>0</asrwt>
<pdfrwt beam="1">  1       21 0.45894947E-02 0.77970054E+02</pdfrwt>
<pdfrwt beam="2">  1       21 0.53459999E-01 0.77970054E+02</pdfrwt>
<totfact> 0.10250106E+06</totfact>
</mgrwt>
</event>
<event>
 5    1  0.1745726E+000  0.6756609E+02  0.7546771E-02  0.1368571E+00
         21   -1    0    0  503  502  0.00000000000E+00  0.00000000000E+00  0.15192277625E+03  0.15192277625E+03  0.00000000000E+00 0.  1.
         21   -1    0    0  501  503 -0.00000000000E+00 -0.00000000000E+00 -0.54334261427E+02  0.54334261427E+02  0.00000000000E+00 0. -1.
         24    1    1    2    0    0 -0.12097648215E+02 -0.58751784599E+01  0.33511087097E+02  0.88153727812E+02  0.80419002446E+02 0.  1.
          1    1    1    2  501    0 -0.10314976389E+02 -0.18064826552E+02 -0.19381844694E+02  0.28432245779E+02  0.00000000000E+00 0. -1.
         -2    1    1    2    0  502  0.22412624604E+02  0.23940005012E+02  0.83459272424E+02  0.89671064091E+02  0.00000000000E+00 0.  1.
<mgrwt>
<rscale>  2 0.67566086E+02</rscale>
<asrwt>0</asrwt>
<pdfrwt beam="1">  1       21 0.23372735E-01 0.67566086E+02</pdfrwt>
<pdfrwt beam="2">  1       21 0.83591172E-02 0.67566086E+02</pdfrwt>
<totfact> 0.18596132E+06</totfact>
</mgrwt>
</event>
<event>
 5    1  0.1745726E+000  0.4700385E+03  0.7546771E-02  0.1021909E+00
         21   -1    0    0  503  502  0.00000000000E+00  0.00000000000E+00  0.12381733774E+04  0.12381733774E+04  0.00000000000E+00 0. -1.
         21   -1    0    0  501  503 -0.00000000000E+00 -0.00000000000E+00 -0.17892716274E+03  0.17892716274E+03  0.00000000000E+00 0. -1.
         24    1    1    2    0    0  0.44830505424E+03  0.52480243222E+02  0.50202840548E+03  0.67987596917E+03  0.80419002446E+02 0. -1.
          1    1    1    2  501    0 -0.26902311550E+03  0.52137443869E+02  0.29216617286E+03  0.40056562795E+03  0.00000000000E+00 0. -1.
         -2    1    1    2    0  502 -0.17928193874E+03 -0.10461768709E+03  0.26505163633E+03  0.33665894305E+03  0.00000000000E+00 0.  1.
<mgrwt>
<rscale>  2 0.47003848E+03</rscale>
<asrwt>0</asrwt>
<pdfrwt beam="1">  1       21 0.19048821E+00 0.47003848E+03</pdfrwt>
<pdfrwt beam="2">  1       21 0.27527257E-01 0.47003848E+03</pdfrwt>
<totfact> 0.16327923E+03</totfact>
</mgrwt>
</event>
<event>
 5    1  0.1745726E+000  0.6439564E+02  0.7546771E-02  0.1380259E+00
         21   -1    0    0  501  502  0.00000000000E+00  0.00000000000E+00  0.18765333902E+03  0.18765333902E+03  0.00000000000E+00 0. -1.
         21   -1    0    0  502  503 -0.00000000000E+00 -0.00000000000E+00 -0.33764244868E+03  0.33764244868E+03  0.00000000000E+00 0.  1.
         24    1    1    2    0    0  0.30568897440E+02  0.25500870149E+01 -0.14726544449E+03  0.17057340804E+03  0.80419002446E+02 0. -1.
          1    1    1    2  501    0 -0.15592340003E+02  0.13603527551E+02  0.17470770452E+03  0.17592884655E+03  0.00000000000E+00 0. -1.
         -2    1    1    2    0  503 -0.14976557437E+02 -0.16153614566E+02 -0.17743136968E+03  0.17879353311E+03  0.00000000000E+00 0.  1.
<mgrwt>
<rscale>  2 0.64395644E+02</rscale>
<asrwt>0</asrwt>
<pdfrwt beam="1">  1       21 0.28869745E-01 0.64395644E+02</pdfrwt>
<pdfrwt beam="2">  1       21 0.51944991E-01 0.64395644E+02</pdfrwt>
<totfact> 0.43936187E+04</totfact>
</mgrwt>
</event>
<event>
 5    1  0.1745726E+000  0.6833439E+02  0.7546771E-02  0.1365850E+00
         21   -1    0    0  503  502  0.00000000000E+00  0.00000000000E+00  0.48027405413E+02  0.48027405413E+02  0.00000000000E+00 0. -1.
         21   -1    0    0  501  503 -0.00000000000E+00 -0.00000000000E+00 -0.15154154775E+03  0.15154154775E+03  0.00000000000E+00 0.  1.
         24    1    1    2    0    0  0.15279079749E+02 -0.15645862519E+01 -0.11452304330E+03  0.14077869729E+03  0.80419002446E+02 0.  1.
          1    1    1    2  501    0 -0.18976511703E+02 -0.23077819253E+02 -0.32937786279E+01  0.30058987267E+02  0.00000000000E+00 0. -1.
         -2    1    1    2    0  502  0.36974319533E+01  0.24642405505E+02  0.14302679596E+02  0.28731268607E+02  0.00000000000E+00 0.  1.
<mgrwt>
<rscale>  2 0.68334389E+02</rscale>
<asrwt>0</asrwt>
<pdfrwt beam="1">  1       21 0.73888319E-02 0.68334389E+02</pdfrwt>
<pdfrwt beam="2">  1       21 0.23314083E-01 0.68334389E+02</pdfrwt>
<totfact> 0.23034193E+06</totfact>
</mgrwt>
</event>
<event>
 5    1  0.1745726E+000  0.7444309E+02  0.7546771E-02  0.1345604E+00
         21   -1    0    0  501  502  0.00000000000E+00  0.00000000000E+00  0.31266048166E+03  0.31266048166E+03  0.00000000000E+00 0. -1.
         21   -1    0    0  502  503 -0.00000000000E+00 -0.00000000000E+00 -0.22751963147E+02  0.22751963147E+02  0.00000000000E+00 0. -1.
         24    1    1    2    0    0 -0.34675478493E+02 -0.25937718493E+02  0.11051634084E+03  0.14337444541E+03  0.80419002446E+02 0. -1.
          1    1    1    2  501    0  0.33352716970E+02  0.18271061331E+01  0.15153187823E+03  0.15516975275E+03  0.00000000000E+00 0. -1.
         -2    1    1    2    0  503  0.13227615231E+01  0.24110612360E+02  0.27860299441E+02  0.36868246655E+02  0.00000000000E+00 0.  1.
<mgrwt>
<rscale>  2 0.74443085E+02</rscale>
<asrwt>0</asrwt>
<pdfrwt beam="1">  1       21 0.48101609E-01 0.74443085E+02</pdfrwt>
<pdfrwt beam="2">  1       21 0.35003022E-02 0.74443085E+02</pdfrwt>
<totfact> 0.19784706E+06</totfact>
</mgrwt>
</event>
<event>
 5    1  0.1745726E+000  0.1187749E+03  0.7546771E-02  0.1245132E+00
         21   -1    0    0  501  502  0.00000000000E+00  0.00000000000E+00  0.15973171746E+02  0.15973171746E+02  0.00000000000E+00 0. -1.
         21   -1    0    0  502  503 -0.00000000000E+00 -0.00000000000E+00 -0.16025849073E+04  0.16025849073E+04  0.00000000000E+00 0. -1.
         24    1    1    2    0    0  0.33109379620E+02  0.78296691183E+00 -0.16236254324E+03  0.18418918388E+03  0.80419002446E+02 0. -1.
          1    1    1    2  501    0 -0.59319177671E+02 -0.60888326526E+02 -0.45287265927E+03  0.46078172562E+03  0.00000000000E+00 0. -1.
         -2    1    1    2    0  503  0.26209798051E+02  0.60105359614E+02 -0.97137653301E+03  0.97358716952E+03  0.00000000000E+00 0.  1.
<mgrwt>
<rscale>  2 0.11877489E+03</rscale>
<asrwt>0</asrwt>
<pdfrwt beam="1">  1       21 0.24574098E-02 0.11877489E+03</pdfrwt>
<pdfrwt beam="2">  1       21 0.24655165E+00 0.11877489E+03</pdfrwt>
<totfact> 0.65195130E+04</totfact>
</mgrwt>
</event>
<event>
 5    1  0.1745726E+000  0.8436478E+02  0.7546771E-02  0.1317102E+00
         21   -1    0    0  503  502  0.00000000000E+00  0.00000000000E+00  0.11408692715E+03  0.11408692715E+03  0.00000000000E+00 0.  1.
         21   -1    0    0  501  503 -0.00000000000E+00 -0.00000000000E+00 -0.11814934766E+03  0.11814934766E+03  0.00000000000E+00 0.  1.
         24    1    1    2    0    0  0.44123496675E+02 -0.17865290951E+02 -0.25021763463E+02  0.96743765591E+02  0.80419002446E+02 0.  1.
          1    1    1    2  501    0 -0.35408606726E+01  0.32082023992E+02 -0.45831546987E+02  0.56056441708E+02  0.00000000000E+00 0. -1.
         -2    1    1    2    0  502 -0.40582636003E+02 -0.14216733041E+02  0.66790889943E+02  0.79436067518E+02  0.00000000000E+00 0.  1.
<mgrwt>
<rscale>  2 0.84364776E+02</rscale>
<asrwt>0</asrwt>
<pdfrwt beam="1">  1       21 0.17551835E-01 0.84364776E+02</pdfrwt>
<pdfrwt beam="2">  1       21 0.18176823E-01 0.84364776E+02</pdfrwt>
<totfact> 0.81020972E+05</totfact>
</mgrwt>
</event>
<event>
 5    1  0.1745726E+000  0.7052260E+02  0.7546771E-02  0.1358325E+00
         21   -1    0    0  503  502  0.00000000000E+00  0.00000000000E+00  0.13641241450E+02  0.13641241450E+02  0.00000000000E+00 0.  1.
         21   -1    0    0  501  503 -0.00000000000E+00 -0.00000000000E+00 -0.48670622951E+03  0.48670622951E+03  0.00000000000E+00 0.  1.
         24    1    1    2    0    0 -0.11969249871E+02 -0.41915798007E+02 -0.25693380142E+03  0.27273135377E+03  0.80419002446E+02 0.  1.
          1    1    1    2  501    0  0.17579285096E+02  0.18609668355E+02 -0.19165207245E+03  0.19335425492E+03  0.00000000000E+00 0. -1.
         -2    1    1    2    0  502 -0.56100352257E+01  0.23306129652E+02 -0.24479114197E+02  0.34261862274E+02  0.00000000000E+00 0.  1.
<mgrwt>
<rscale>  2 0.70522605E+02</rscale>
<asrwt>0</asrwt>
<pdfrwt beam="1">  1       21 0.20986526E-02 0.70522605E+02</pdfrwt>
<pdfrwt beam="2">  1       21 0.74877878E-01 0.70522605E+02</pdfrwt>
<totfact> 0.17846663E+06</totfact>
</mgrwt>
</event>
<event>
 5    1  0.1745726E+000  0.9480678E+02  0.7546771E-02  0.1291612E+00
         21   -1    0    0  501  502  0.00000000000E+00  0.00000000000E+00  0.11730815645E+03  0.11730815645E+03  0.00000000000E+00 0. -1.
         21   -1    0    0  502  503 -0.00000000000E+00 -0.00000000000E+00 -0.13157586128E+03  0.13157586128E+03  0.00000000000E+00 0.  1.
         24    1    1    2    0    0  0.15334276699E+02  0.28835385071E+02 -0.34931035869E+02  0.93562880969E+02  0.80419002446E+02 0.  1.
          1    1    1    2  501    0  0.36654092060E+02 -0.34729885476E+02  0.68045096692E+02  0.84733833819E+02  0.00000000000E+00 0. -1.
         -2    1    1    2    0  503 -0.51988368759E+02  0.58945004052E+01 -0.47381765651E+02  0.70587302948E+02  0.00000000000E+00 0.  1.
<mgrwt>
<rscale>  2 0.94806782E+02</rscale>
<asrwt>0</asrwt>
<pdfrwt beam="1">  1       21 0.18047409E-01 0.94806782E+02</pdfrwt>
<pdfrwt beam="2">  1       21 0.20242440E-01 0.94806782E+02</pdfrwt>
<totfact> 0.63390932E+05</totfact>
</mgrwt>
</event>
<event>
 5    1  0.1745726E+000  0.1274787E+03  0.7546771E-02  0.1231246E+00
         21   -1    0    0  501  502  0.00000000000E+00  0.00000000000E+00  0.17427011917E+02  0.17427011917E+02  0.00000000000E+00 0. -1.
         21   -1    0    0  502  503 -0.00000000000E+00 -0.00000000000E+00 -0.16209344983E+04  0.16209344983E+04  0.00000000000E+00 0.  1.
         24    1    1    2    0    0 -0.43720211606E+02  0.88476135374E+02 -0.93951652939E+03  0.94810231957E+03  0.80419002446E+02 0.  1.
          1    1    1    2  501    0  0.65717674963E+02 -0.47304877889E+02 -0.12301294812E+03  0.14727100760E+03  0.00000000000E+00 0. -1.
         -2    1    1    2    0  503 -0.21997463357E+02 -0.41171257485E+02 -0.54097800887E+03  0.54298818304E+03  0.00000000000E+00 0.  1.
<mgrwt>
<rscale>  2 0.12747875E+03</rscale>
<asrwt>0</asrwt>
<pdfrwt beam="1">  1       21 0.26810786E-02 0.12747875E+03</pdfrwt>
<pdfrwt beam="2">  1       21 0.24937455E+00 0.12747875E+03</pdfrwt>
<totfact> 0.54021039E+04</totfact>
</mgrwt>
</event>
<event>
 5    1  0.1745726E+000  0.1042820E+03  0.7546771E-02  0.1271541E+00
         21   -1    0    0  501  502  0.00000000000E+00  0.00000000000E+00  0.12790544409E+03  0.12790544409E+03  0.00000000000E+00 0. -1.
         21   -1    0    0  502  503 -0.00000000000E+00 -0.00000000000E+00 -0.13473512184E+03  0.13473512184E+03  0.00000000000E+00 0.  1.
         24    1    1    2    0    0 -0.54133121253E+02  0.45518396667E+02  0.23748489020E+02  0.10969742903E+03  0.80419002446E+02 0. -1.
          1    1    1    2  501    0 -0.16036661140E+01 -0.45702877808E+02  0.41550774945E+02  0.61788281118E+02  0.00000000000E+00 0. -1.
         -2    1    1    2    0  503  0.55736787367E+02  0.18448114110E+00 -0.72128941712E+02  0.91154855777E+02  0.00000000000E+00 0.  1.
<mgrwt>
<rscale>  2 0.10428201E+03</rscale>
<asrwt>0</asrwt>
<pdfrwt beam="1">  1       21 0.19677761E-01 0.10428201E+03</pdfrwt>
<pdfrwt beam="2">  1       21 0.20728480E-01 0.10428201E+03</pdfrwt>
<totfact> 0.51823097E+05</totfact>
</mgrwt>
</event>
<event>
 5    1  0.1745726E+000  0.1098141E+03  0.7546771E-02  0.1260915E+00
         21   -1    0    0  501  502  0.00000000000E+00  0.00000000000E+00  0.16919832189E+02  0.16919832189E+02  0.00000000000E+00 0. -1.
         21   -1    0    0  502  503 -0.00000000000E+00 -0.00000000000E+00 -0.17912063580E+04  0.17912063580E+04  0.00000000000E+00 0.  1.
         24    1    1    2    0    0  0.50464230083E+02  0.60195224824E+02 -0.24953341099E+03  0.27368639492E+03  0.80419002446E+02 0. -1.
          1    1    1    2  501    0 -0.21640644858E+02 -0.72656183609E+02 -0.30493057999E+03  0.31421313967E+03  0.00000000000E+00 0. -1.
         -2    1    1    2    0  503 -0.28823585224E+02  0.12460958785E+02 -0.12198225348E+04  0.12202266556E+04  0.00000000000E+00 0.  1.
<mgrwt>
<rscale>  2 0.10981410E+03</rscale>
<asrwt>0</asrwt>
<pdfrwt beam="1">  1       21 0.26030510E-02 0.10981410E+03</pdfrwt>
<pdfrwt beam="2">  1       21 0.27557022E+00 0.10981410E+03</pdfrwt>
<totfact> 0.41151157E+04</totfact>
</mgrwt>
</event>
<event>
 5    1  0.1745726E+000  0.1462817E+03  0.7546771E-02  0.1205118E+00
         21   -1    0    0  501  502  0.00000000000E+00  0.00000000000E+00  0.99739361308E+03  0.99739361308E+03  0.00000000000E+00 0. -1.
         21   -1    0    0  502  503 -0.00000000000E+00 -0.00000000000E+00 -0.33500870109E+02  0.33500870109E+02  0.00000000000E+00 0.  1.
         24    1    1    2    0    0 -0.37684903049E+02  0.60987651474E+02  0.24531263109E+03  0.26792750601E+03  0.80419002446E+02 0. -1.
          1    1    1    2  501    0 -0.33800588496E+02 -0.98471669142E+02  0.64625474291E+03  0.65458715397E+03  0.00000000000E+00 0. -1.
         -2    1    1    2    0  503  0.71485491546E+02  0.37484017668E+02  0.72325368969E+02  0.10837982321E+03  0.00000000000E+00 0.  1.
<mgrwt>
<rscale>  2 0.14628167E+03</rscale>
<asrwt>0</asrwt>
<pdfrwt beam="1">  1       21 0.15344515E+00 0.14628167E+03</pdfrwt>
<pdfrwt beam="2">  1       21 0.51539808E-02 0.14628167E+03</pdfrwt>
<totfact> 0.73750695E+04</totfact>
</mgrwt>
</event>
<event>
 5    1  0.2641962E+000  0.9445802E+02  0.7546771E-02  0.1292401E+00
         21   -1    0    0  501  502  0.00000000000E+00  0.00000000000E+00  0.68998007649E+03  0.68998007649E+03  0.00000000000E+00 0. -1.
         21   -1    0    0  502  503 -0.00000000000E+00 -0.00000000000E+00 -0.19302912207E+03  0.19302912207E+03  0.00000000000E+00 0.  1.
         24    1    1    2    0    0 -0.40928109360E+02  0.11364794044E+02  0.16824648555E+03  0.19125471114E+03  0.80419002446E+02 0.  1.
          1    1    1    2  501    0  0.21249108923E+01  0.36381077808E+02  0.50433977803E+03  0.50565473375E+03  0.00000000000E+00 0. -1.
         -2    1    1    2    0  503  0.38803198467E+02 -0.47745871852E+02 -0.17563530916E+03  0.18609975366E+03  0.00000000000E+00 0.  1.
<mgrwt>
<rscale>  2 0.94458017E+02</rscale>
<asrwt>0</asrwt>
<pdfrwt beam="1">  1       21 0.10615078E+00 0.94458017E+02</pdfrwt>
<pdfrwt beam="2">  1       21 0.29696788E-01 0.94458017E+02</pdfrwt>
<totfact> 0.84782659E+03</totfact>
</mgrwt>
</event>
<event>
 5    1  0.1745726E+000  0.7118034E+02  0.7546771E-02  0.1356125E+00
         21   -1    0    0  503  502  0.00000000000E+00  0.00000000000E+00  0.36673472673E+03  0.36673472673E+03  0.00000000000E+00 0. -1.
         21   -1    0    0  501  503 -0.00000000000E+00 -0.00000000000E+00 -0.17240765073E+02  0.17240765073E+02  0.00000000000E+00 0. -1.
         24    1    1    2    0    0 -0.79576373116E+01  0.42103963778E+02  0.26521193553E+03  0.28042941083E+03  0.80419002446E+02 0. -1.
          1    1    1    2  501    0 -0.10533686958E+02 -0.18041453831E+02  0.97139988702E+01  0.23039409526E+02  0.00000000000E+00 0. -1.
         -2    1    1    2    0  502  0.18491324270E+02 -0.24062509947E+02  0.74568027259E+02  0.80506671447E+02  0.00000000000E+00 0.  1.
<mgrwt>
<rscale>  2 0.71180345E+02</rscale>
<asrwt>0</asrwt>
<pdfrwt beam="1">  1       21 0.56420721E-01 0.71180345E+02</pdfrwt>
<pdfrwt beam="2">  1       21 0.26524257E-02 0.71180345E+02</pdfrwt>
<totfact> 0.22329366E+06</totfact>
</mgrwt>
</event>
<event>
 5    1  0.1745726E+000  0.2721019E+03  0.7546771E-02  0.1100083E+00
         21   -1    0    0  503  502  0.00000000000E+00  0.00000000000E+00  0.36026068824E+03  0.36026068824E+03  0.00000000000E+00 0.  1.
         21   -1    0    0  501  503 -0.00000000000E+00 -0.00000000000E+00 -0.38410630192E+03  0.38410630192E+03  0.00000000000E+00 0. -1.
         24    1    1    2    0    0  0.13823299924E+03 -0.20941089616E+03 -0.14923084371E+03  0.30281734789E+03  0.80419002446E+02 0. -1.
          1    1    1    2  501    0 -0.16148782415E+03  0.16678482187E+03 -0.68202579296E+02  0.24196505115E+03  0.00000000000E+00 0. -1.
         -2    1    1    2    0  502  0.23254824910E+02  0.42626074292E+02  0.19358780933E+03  0.19958459112E+03  0.00000000000E+00 0.  1.
<mgrwt>
<rscale>  2 0.27210189E+03</rscale>
<asrwt>0</asrwt>
<pdfrwt beam="1">  1       21 0.55424721E-01 0.27210189E+03</pdfrwt>
<pdfrwt beam="2">  1       21 0.59093277E-01 0.27210189E+03</pdfrwt>
<totfact> 0.78205271E+03</totfact>
</mgrwt>
</event>
<event>
 5    1  0.1745726E+000  0.7682127E+02  0.7546771E-02  0.1338322E+00
         21   -1    0    0  501  502  0.00000000000E+00  0.00000000000E+00  0.18183501328E+02  0.18183501328E+02  0.00000000000E+00 0. -1.
         21   -1    0    0  502  503 -0.00000000000E+00 -0.00000000000E+00 -0.56647387456E+03  0.56647387456E+03  0.00000000000E+00 0. -1.
         24    1    1    2    0    0 -0.24761265673E+02  0.43369265396E+02 -0.38866636550E+03  0.40002846534E+03  0.80419002446E+02 0. -1.
          1    1    1    2  501    0 -0.11351554738E+01 -0.29651925832E+02 -0.87523383743E+01  0.30937496837E+02  0.00000000000E+00 0. -1.
         -2    1    1    2    0  503  0.25896421147E+02 -0.13717339563E+02 -0.15087166935E+03  0.15369141371E+03  0.00000000000E+00 0.  1.
<mgrwt>
<rscale>  2 0.76821268E+02</rscale>
<asrwt>0</asrwt>
<pdfrwt beam="1">  1       21 0.27974619E-02 0.76821268E+02</pdfrwt>
<pdfrwt beam="2">  1       21 0.87149822E-01 0.76821268E+02</pdfrwt>
<totfact> 0.80804256E+05</totfact>
</mgrwt>
</event>
<event>
 5    1  0.1745726E+000  0.6723838E+02  0.7546771E-02  0.1369744E+00
         21   -1    0    0  503  502  0.00000000000E+00  0.00000000000E+00  0.35871395813E+03  0.35871395813E+03  0.00000000000E+00 0.  1.
         21   -1    0    0  501  503 -0.00000000000E+00 -0.00000000000E+00 -0.30939085200E+02  0.30939085200E+02  0.00000000000E+00 0. -1.
         24    1    1    2    0    0 -0.22831011971E+02 -0.10391493349E+02  0.15468388425E+03  0.17613505683E+03  0.80419002446E+02 0. -1.
          1    1    1    2  501    0  0.82097439786E+01  0.26934542722E+02 -0.94082345992E+01  0.29688118265E+02  0.00000000000E+00 0. -1.
         -2    1    1    2    0  502  0.14621267993E+02 -0.16543049373E+02  0.18249922327E+03  0.18382986824E+03  0.00000000000E+00 0.  1.
<mgrwt>
<rscale>  2 0.67238376E+02</rscale>
<asrwt>0</asrwt>
<pdfrwt beam="1">  1       21 0.55186760E-01 0.67238376E+02</pdfrwt>
<pdfrwt beam="2">  1       21 0.47598595E-02 0.67238376E+02</pdfrwt>
<totfact> 0.90118868E+05</totfact>
</mgrwt>
</event>
<event>
 5    1  0.1745726E+000  0.8130376E+02  0.7546771E-02  0.1325392E+00
         21   -1    0    0  503  502  0.00000000000E+00  0.00000000000E+00  0.18303781375E+02  0.18303781375E+02  0.00000000000E+00 0.  1.
         21   -1    0    0  501  503 -0.00000000000E+00 -0.00000000000E+00 -0.60921901915E+03  0.60921901915E+03  0.00000000000E+00 0. -1.
         24    1    1    2    0    0 -0.11503079939E+02 -0.22148807982E+02 -0.48934895654E+03  0.49654053990E+03  0.80419002446E+02 0.  0.
          1    1    1    2  501    0 -0.17896674223E+02 -0.20113070102E+02 -0.56397686956E+02  0.62494204780E+02  0.00000000000E+00 0. -1.
         -2    1    1    2    0  502  0.29399754162E+02  0.42261878084E+02 -0.45168594274E+02  0.68488055839E+02  0.00000000000E+00 0.  1.
<mgrwt>
<rscale>  2 0.81303762E+02</rscale>
<asrwt>0</asrwt>
<pdfrwt beam="1">  1       21 0.28159669E-02 0.81303762E+02</pdfrwt>
<pdfrwt beam="2">  1       21 0.93725986E-01 0.81303762E+02</pdfrwt>
<totfact> 0.67888856E+05</totfact>
</mgrwt>
</event>
<event>
 5    1  0.1745726E+000  0.9946320E+02  0.7546771E-02  0.1281429E+00
         21   -1    0    0  503  502  0.00000000000E+00  0.00000000000E+00  0.29835468001E+02  0.29835468001E+02  0.00000000000E+00 0. -1.
         21   -1    0    0  501  503 -0.00000000000E+00 -0.00000000000E+00 -0.68437338632E+03  0.68437338632E+03  0.00000000000E+00 0.  1.
         24    1    1    2    0    0  0.12321392375E+02  0.28761151149E+02 -0.48242464374E+03  0.49008139463E+03  0.80419002446E+02 0.  1.
          1    1    1    2  501    0  0.48145005918E+02 -0.86807303464E+01 -0.14821393697E+03  0.15607904339E+03  0.00000000000E+00 0. -1.
         -2    1    1    2    0  502 -0.60466398293E+02 -0.20080420802E+02 -0.23899337610E+02  0.68048416296E+02  0.00000000000E+00 0.  1.
<mgrwt>
<rscale>  2 0.99463199E+02</rscale>
<asrwt>0</asrwt>
<pdfrwt beam="1">  1       21 0.45900719E-02 0.99463199E+02</pdfrwt>
<pdfrwt beam="2">  1       21 0.10528822E+00 0.99463199E+02</pdfrwt>
<totfact> 0.23228174E+05</totfact>
</mgrwt>
</event>
<event>
 5    1  0.1745726E+000  0.8568546E+02  0.7546771E-02  0.1313650E+00
         21   -1    0    0  501  502  0.00000000000E+00  0.00000000000E+00  0.59923863809E+03  0.59923863809E+03  0.00000000000E+00 0.  1.
         21   -1    0    0  502  503 -0.00000000000E+00 -0.00000000000E+00 -0.39918209032E+02  0.39918209032E+02  0.00000000000E+00 0. -1.
         24    1    1    2    0    0  0.42098414296E+02 -0.40655844374E+01  0.19882983592E+02  0.93012657493E+02  0.80419002446E+02 0. -1.
          1    1    1    2  501    0  0.77213504021E+01 -0.22683488434E+02  0.25614726083E+03  0.25726558093E+03  0.00000000000E+00 0. -1.
         -2    1    1    2    0  503 -0.49819764698E+02  0.26749072871E+02  0.28329018463E+03  0.28887860870E+03  0.00000000000E+00 0.  1.
<mgrwt>
<rscale>  2 0.85685460E+02</rscale>
<asrwt>0</asrwt>
<pdfrwt beam="1">  1       21 0.92190553E-01 0.85685460E+02</pdfrwt>
<pdfrwt beam="2">  1       21 0.61412634E-02 0.85685460E+02</pdfrwt>
<totfact> 0.19503268E+05</totfact>
</mgrwt>
</event>
<event>
 5    1  0.1745726E+000  0.8936206E+02  0.7546771E-02  0.1304404E+00
         21   -1    0    0  503  502  0.00000000000E+00  0.00000000000E+00  0.62636400514E+02  0.62636400514E+02  0.00000000000E+00 0.  1.
         21   -1    0    0  501  503 -0.00000000000E+00 -0.00000000000E+00 -0.23654453341E+03  0.23654453341E+03  0.00000000000E+00 0. -1.
         24    1    1    2    0    0  0.28597081484E+02  0.43433211452E+02 -0.14222852771E+02  0.96818089331E+02  0.80419002446E+02 0.  1.
          1    1    1    2  501    0  0.20953119912E+02 -0.15613546118E+02 -0.13970367884E+03  0.14212647163E+03  0.00000000000E+00 0. -1.
         -2    1    1    2    0  502 -0.49550201396E+02 -0.27819665333E+02 -0.19981601284E+02  0.60236372962E+02  0.00000000000E+00 0.  1.
<mgrwt>
<rscale>  2 0.89362059E+02</rscale>
<asrwt>0</asrwt>
<pdfrwt beam="1">  1       21 0.96363694E-02 0.89362059E+02</pdfrwt>
<pdfrwt beam="2">  1       21 0.36391466E-01 0.89362059E+02</pdfrwt>
<totfact> 0.63443284E+05</totfact>
</mgrwt>
</event>
<event>
 5    1  0.1745726E+000  0.8767812E+02  0.7546771E-02  0.1308574E+00
         21   -1    0    0  501  502  0.00000000000E+00  0.00000000000E+00  0.63505562691E+03  0.63505562691E+03  0.00000000000E+00 0. -1.
         21   -1    0    0  502  503 -0.00000000000E+00 -0.00000000000E+00 -0.17223613272E+02  0.17223613272E+02  0.00000000000E+00 0. -1.
         24    1    1    2    0    0 -0.13097602879E+02  0.39167682282E+02  0.14354327452E+03  0.16963944751E+03  0.80419002446E+02 0. -1.
          1    1    1    2  501    0  0.16652430928E+02 -0.60795202259E+02  0.40750547501E+03  0.41235187915E+03  0.00000000000E+00 0. -1.
         -2    1    1    2    0  503 -0.35548280491E+01  0.21627519977E+02  0.66783264106E+02  0.70287913524E+02  0.00000000000E+00 0.  1.
<mgrwt>
<rscale>  2 0.87678122E+02</rscale>
<asrwt>0</asrwt>
<pdfrwt beam="1">  1       21 0.97700847E-01 0.87678122E+02</pdfrwt>
<pdfrwt beam="2">  1       21 0.26497872E-02 0.87678122E+02</pdfrwt>
<totfact> 0.68129803E+05</totfact>
</mgrwt>
</event>
<event>
 5    1  0.1745726E+000  0.1178431E+03  0.7546771E-02  0.1246698E+00
         21   -1    0    0  501  502  0.00000000000E+00  0.00000000000E+00  0.47910506319E+02  0.47910506319E+02  0.00000000000E+00 0.  1.
         21   -1    0    0  502  503 -0.00000000000E+00 -0.00000000000E+00 -0.41479737461E+03  0.41479737461E+03  0.00000000000E+00 0. -1.
         24    1    1    2    0    0 -0.76076880540E+02 -0.34138568881E+02 -0.25608248168E+03  0.28106687285E+03  0.80419002446E+02 0.  0.
          1    1    1    2  501    0 -0.73290394459E+01  0.35674868521E+02  0.72033905475E+01  0.37125461594E+02  0.00000000000E+00 0. -1.
         -2    1    1    2    0  503  0.83405919986E+02 -0.15362996403E+01 -0.11800777717E+03  0.14451554649E+03  0.00000000000E+00 0.  1.
<mgrwt>
<rscale>  2 0.11784311E+03</rscale>
<asrwt>0</asrwt>
<pdfrwt beam="1">  1       21 0.73708468E-02 0.11784311E+03</pdfrwt>
<pdfrwt beam="2">  1       21 0.63814984E-01 0.11784311E+03</pdfrwt>
<totfact> 0.31884362E+05</totfact>
</mgrwt>
</event>
<event>
 5    1  0.1745726E+000  0.6836197E+02  0.7546771E-02  0.1365754E+00
         21   -1    0    0  501  502  0.00000000000E+00  0.00000000000E+00  0.55301992239E+03  0.55301992239E+03  0.00000000000E+00 0.  1.
         21   -1    0    0  502  503 -0.00000000000E+00 -0.00000000000E+00 -0.95506452989E+01  0.95506452989E+01  0.00000000000E+00 0.  1.
         24    1    1    2    0    0  0.23005144962E+02  0.12472258892E+02  0.23735902441E+03  0.25197483279E+03  0.80419002446E+02 0.  1.
          1    1    1    2  501    0 -0.13491864243E+02  0.16700622061E+02  0.14620989923E+03  0.14777779201E+03  0.00000000000E+00 0. -1.
         -2    1    1    2    0  503 -0.95132807189E+01 -0.29172880953E+02  0.15990035345E+03  0.16281794289E+03  0.00000000000E+00 0.  1.
<mgrwt>
<rscale>  2 0.68361969E+02</rscale>
<asrwt>0</asrwt>
<pdfrwt beam="1">  1       21 0.85079963E-01 0.68361969E+02</pdfrwt>
<pdfrwt beam="2">  1       21 0.14693305E-02 0.68361969E+02</pdfrwt>
<totfact> 0.23681072E+06</totfact>
</mgrwt>
</event>
<event>
 5    1  0.1745726E+000  0.9922031E+02  0.7546771E-02  0.1281944E+00
         21   -1    0    0  501  502  0.00000000000E+00  0.00000000000E+00  0.44542700270E+02  0.44542700270E+02  0.00000000000E+00 0.  1.
         21   -1    0    0  502  503 -0.00000000000E+00 -0.00000000000E+00 -0.40302833569E+03  0.40302833569E+03  0.00000000000E+00 0.  1.
         24    1    1    2    0    0 -0.64997781102E+02 -0.70698915955E+00 -0.29557832878E+03  0.31314369829E+03  0.80419002446E+02 0.  1.
          1    1    1    2  501    0 -0.32844331676E+01  0.22979898692E+02  0.15642027438E+02  0.27991717837E+02  0.00000000000E+00 0. -1.
         -2    1    1    2    0  503  0.68282214270E+02 -0.22272909532E+02 -0.78549334080E+02  0.10643561983E+03  0.00000000000E+00 0.  1.
<mgrwt>
<rscale>  2 0.99220311E+02</rscale>
<asrwt>0</asrwt>
<pdfrwt beam="1">  1       21 0.68527231E-02 0.99220311E+02</pdfrwt>
<pdfrwt beam="2">  1       21 0.62004360E-01 0.99220311E+02</pdfrwt>
<totfact> 0.38503425E+05</totfact>
</mgrwt>
</event>
<event>
 5    1  0.1745726E+000  0.6743100E+02  0.7546771E-02  0.1369054E+00
         21   -1    0    0  501  502  0.00000000000E+00  0.00000000000E+00  0.11813057694E+03  0.11813057694E+03  0.00000000000E+00 0. -1.
         21   -1    0    0  502  503 -0.00000000000E+00 -0.00000000000E+00 -0.48109251941E+02  0.48109251941E+02  0.00000000000E+00 0. -1.
         24    1    1    2    0    0  0.17280928042E+02  0.32447082572E+02  0.71713548046E+02  0.11384855102E+03  0.80419002446E+02 0. -1.
          1    1    1    2  501    0  0.44482610123E+01 -0.21785405167E+02  0.11277581359E+02  0.24931400796E+02  0.00000000000E+00 0. -1.
         -2    1    1    2    0  503 -0.21729189055E+02 -0.10661677405E+02 -0.12969804407E+02  0.27459877065E+02  0.00000000000E+00 0.  1.
<mgrwt>
<rscale>  2 0.67430996E+02</rscale>
<asrwt>0</asrwt>
<pdfrwt beam="1">  1       21 0.18173935E-01 0.67430996E+02</pdfrwt>
<pdfrwt beam="2">  1       21 0.74014234E-02 0.67430996E+02</pdfrwt>
<totfact> 0.36113343E+06</totfact>
</mgrwt>
</event>
<event>
 5    1  0.1745726E+000  0.7153725E+02  0.7546771E-02  0.1354942E+00
         21   -1    0    0  503  502  0.00000000000E+00  0.00000000000E+00  0.89007600068E+02  0.89007600068E+02  0.00000000000E+00 0.  1.
         21   -1    0    0  501  503 -0.00000000000E+00 -0.00000000000E+00 -0.44317275971E+03  0.44317275971E+03  0.00000000000E+00 0.  1.
         24    1    1    2    0    0 -0.41136540196E+01 -0.17223137786E+02 -0.52074099662E+02  0.97429392047E+02  0.80419002446E+02 0.  0.
          1    1    1    2  501    0 -0.25218156712E+02  0.18645829954E+02 -0.36446387512E+03  0.36581079627E+03  0.00000000000E+00 0. -1.
         -2    1    1    2    0  502  0.29331810732E+02 -0.14226921681E+01  0.62372815134E+02  0.68940171465E+02  0.00000000000E+00 0.  1.
<mgrwt>
<rscale>  2 0.71537253E+02</rscale>
<asrwt>0</asrwt>
<pdfrwt beam="1">  1       21 0.13693477E-01 0.71537253E+02</pdfrwt>
<pdfrwt beam="2">  1       21 0.68180423E-01 0.71537253E+02</pdfrwt>
<totfact> 0.96135588E+04</totfact>
</mgrwt>
</event>
<event>
 5    1  0.1745726E+000  0.7261975E+02  0.7546771E-02  0.1351404E+00
         21   -1    0    0  503  502  0.00000000000E+00  0.00000000000E+00  0.16475840909E+03  0.16475840909E+03  0.00000000000E+00 0.  1.
         21   -1    0    0  501  503 -0.00000000000E+00 -0.00000000000E+00 -0.37688639073E+02  0.37688639073E+02  0.00000000000E+00 0. -1.
         24    1    1    2    0    0  0.47643083717E+02 -0.13959483648E+01  0.97977780687E+02  0.13542035874E+03  0.80419002446E+02 0. -1.
          1    1    1    2  501    0 -0.21854877209E+02  0.10710043997E+02 -0.33305545124E+01  0.24564879271E+02  0.00000000000E+00 0. -1.
         -2    1    1    2    0  502 -0.25788206508E+02 -0.93140956318E+01  0.32422543843E+02  0.42461810155E+02  0.00000000000E+00 0.  1.
<mgrwt>
<rscale>  2 0.72619749E+02</rscale>
<asrwt>0</asrwt>
<pdfrwt beam="1">  1       21 0.25347447E-01 0.72619749E+02</pdfrwt>
<pdfrwt beam="2">  1       21 0.57982522E-02 0.72619749E+02</pdfrwt>
<totfact> 0.29727646E+06</totfact>
</mgrwt>
</event>
<event>
 5    1  0.1745726E+000  0.1704385E+03  0.7546771E-02  0.1177391E+00
         21   -1    0    0  503  502  0.00000000000E+00  0.00000000000E+00  0.78068451304E+03  0.78068451304E+03  0.00000000000E+00 0.  1.
         21   -1    0    0  501  503 -0.00000000000E+00 -0.00000000000E+00 -0.83173734430E+02  0.83173734430E+02  0.00000000000E+00 0. -1.
         24    1    1    2    0    0  0.13586603388E+01 -0.10005208746E+03  0.12607670049E+03  0.17993003230E+03  0.80419002446E+02 0.  1.
          1    1    1    2  501    0  0.89817585304E+02  0.77376369517E+02  0.14858520833E+02  0.11947835298E+03  0.00000000000E+00 0. -1.
         -2    1    1    2    0  502 -0.91176245642E+02  0.22675717946E+02  0.55657555729E+03  0.56444986219E+03  0.00000000000E+00 0.  1.
<mgrwt>
<rscale>  2 0.17043848E+03</rscale>
<asrwt>0</asrwt>
<pdfrwt beam="1">  1       21 0.12010530E+00 0.17043848E+03</pdfrwt>
<pdfrwt beam="2">  1       21 0.12795960E-01 0.17043848E+03</pdfrwt>
<totfact> 0.27933270E+04</totfact>
</mgrwt>
</event>
<event>
 5    1  0.1745726E+000  0.9622989E+02  0.7546771E-02  0.1288430E+00
         21   -1    0    0  501  502  0.00000000000E+00  0.00000000000E+00  0.11006469250E+02  0.11006469250E+02  0.00000000000E+00 0. -1.
         21   -1    0    0  502  503 -0.00000000000E+00 -0.00000000000E+00 -0.85494713115E+03  0.85494713115E+03  0.00000000000E+00 0.  1.
         24    1    1    2    0    0 -0.43756167186E+02 -0.26662768311E+01 -0.36955064870E+03  0.38073167600E+03  0.80419002446E+02 0.  1.
          1    1    1    2  501    0  0.38795613697E+02 -0.41276568378E+02 -0.23076650643E+03  0.23761741356E+03  0.00000000000E+00 0. -1.
         -2    1    1    2    0  503  0.49605534889E+01  0.43942845209E+02 -0.24362350676E+03  0.24760451083E+03  0.00000000000E+00 0.  1.
<mgrwt>
<rscale>  2 0.96229895E+02</rscale>
<asrwt>0</asrwt>
<pdfrwt beam="1">  1       21 0.16933025E-02 0.96229895E+02</pdfrwt>
<pdfrwt beam="2">  1       21 0.13153036E+00 0.96229895E+02</pdfrwt>
<totfact> 0.68827508E+05</totfact>
</mgrwt>
</event>
<event>
 5    1  0.1745726E+000  0.6421056E+02  0.7546771E-02  0.1380966E+00
         21   -1    0    0  503  502  0.00000000000E+00  0.00000000000E+00  0.31839162450E+01  0.31839162450E+01  0.00000000000E+00 0. -1.
         21   -1    0    0  501  503 -0.00000000000E+00 -0.00000000000E+00 -0.14750079791E+04  0.14750079791E+04  0.00000000000E+00 0. -1.
         24    1    1    2    0    0 -0.80512802210E-01 -0.51297163398E+01 -0.79676748815E+03  0.80083204644E+03  0.80419002446E+02 0. -1.
          1    1    1    2  501    0 -0.82104880771E+01 -0.19870228423E+02 -0.48623650234E+03  0.48671159253E+03  0.00000000000E+00 0. -1.
         -2    1    1    2    0  502  0.82910008793E+01  0.24999944763E+02 -0.18882007240E+03  0.19064825641E+03  0.00000000000E+00 0.  1.
<mgrwt>
<rscale>  2 0.64210555E+02</rscale>
<asrwt>0</asrwt>
<pdfrwt beam="1">  1       21 0.48983221E-03 0.64210555E+02</pdfrwt>
<pdfrwt beam="2">  1       21 0.22692479E+00 0.64210555E+02</pdfrwt>
<totfact> 0.11088858E+06</totfact>
</mgrwt>
</event>
<event>
 5    1  0.1745726E+000  0.1530779E+03  0.7546771E-02  0.1196741E+00
         21   -1    0    0  503  502  0.00000000000E+00  0.00000000000E+00  0.65022628821E+02  0.65022628821E+02  0.00000000000E+00 0.  1.
         21   -1    0    0  501  503 -0.00000000000E+00 -0.00000000000E+00 -0.37323254121E+03  0.37323254121E+03  0.00000000000E+00 0.  1.
         24    1    1    2    0    0 -0.12028452060E+03 -0.53618022002E+02 -0.14844348785E+03  0.21411665796E+03  0.80419002446E+02 0.  1.
          1    1    1    2  501    0  0.18001856453E+02 -0.19180554529E+02 -0.53660901552E+02  0.59761633706E+02  0.00000000000E+00 0. -1.
         -2    1    1    2    0  502  0.10228266415E+03  0.72798576532E+02 -0.10610552299E+03  0.16437687836E+03  0.00000000000E+00 0.  1.
<mgrwt>
<rscale>  2 0.15307795E+03</rscale>
<asrwt>0</asrwt>
<pdfrwt beam="1">  1       21 0.10003481E-01 0.15307795E+03</pdfrwt>
<pdfrwt beam="2">  1       21 0.57420391E-01 0.15307795E+03</pdfrwt>
<totfact> 0.23335427E+05</totfact>
</mgrwt>
</event>
<event>
 5    1  0.1745726E+000  0.7474039E+02  0.7546771E-02  0.1344677E+00
         21   -1    0    0  501  502  0.00000000000E+00  0.00000000000E+00  0.38163682254E+03  0.38163682254E+03  0.00000000000E+00 0. -1.
         21   -1    0    0  502  503 -0.00000000000E+00 -0.00000000000E+00 -0.26761555856E+02  0.26761555856E+02  0.00000000000E+00 0.  1.
         24    1    1    2    0    0 -0.10310527461E+02 -0.38081405365E+02  0.84612845555E+02  0.12321951955E+03  0.80419002446E+02 0.  1.
          1    1    1    2  501    0  0.28187476857E+02  0.20700573146E+02  0.25164006505E+03  0.25405859544E+03  0.00000000000E+00 0. -1.
         -2    1    1    2    0  503 -0.17876949396E+02  0.17380832219E+02  0.18622356081E+02  0.31120263405E+02  0.00000000000E+00 0.  1.
<mgrwt>
<rscale>  2 0.74740391E+02</rscale>
<asrwt>0</asrwt>
<pdfrwt beam="1">  1       21 0.58713353E-01 0.74740391E+02</pdfrwt>
<pdfrwt beam="2">  1       21 0.41171627E-02 0.74740391E+02</pdfrwt>
<totfact> 0.10088141E+06</totfact>
</mgrwt>
</event>
<event>
 5    1  0.1745726E+000  0.8412613E+02  0.7546771E-02  0.1317734E+00
         21   -1    0    0  503  502  0.00000000000E+00  0.00000000000E+00  0.94951227820E+02  0.94951227820E+02  0.00000000000E+00 0. -1.
         21   -1    0    0  501  503 -0.00000000000E+00 -0.00000000000E+00 -0.83747262437E+02  0.83747262437E+02  0.00000000000E+00 0.  1.
         24    1    1    2    0    0 -0.18434166726E+02 -0.29992079947E+02 -0.23533031675E+02  0.90886538588E+02  0.80419002446E+02 0.  0.
          1    1    1    2  501    0  0.41290950653E+01 -0.24131974537E+02  0.78724886077E+01  0.25717264590E+02  0.00000000000E+00 0. -1.
         -2    1    1    2    0  502  0.14305071660E+02  0.54124054484E+02  0.26864508451E+02  0.62094687078E+02  0.00000000000E+00 0.  1.
<mgrwt>
<rscale>  2 0.84126131E+02</rscale>
<asrwt>0</asrwt>
<pdfrwt beam="1">  1       21 0.14607881E-01 0.84126131E+02</pdfrwt>
<pdfrwt beam="2">  1       21 0.12884194E-01 0.84126131E+02</pdfrwt>
<totfact> 0.20805167E+06</totfact>
</mgrwt>
</event>
<event>
 5    1  0.1745726E+000  0.8289959E+02  0.7546771E-02  0.1321019E+00
         21   -1    0    0  501  502  0.00000000000E+00  0.00000000000E+00  0.12737707146E+03  0.12737707146E+03  0.00000000000E+00 0. -1.
         21   -1    0    0  502  503 -0.00000000000E+00 -0.00000000000E+00 -0.16606467570E+03  0.16606467570E+03  0.00000000000E+00 0.  1.
         24    1    1    2    0    0 -0.30006182797E+02 -0.33207578536E+02  0.29360358095E+02  0.96604145150E+02  0.80419002446E+02 0.  1.
          1    1    1    2  501    0 -0.44411031558E+01  0.38637737605E+02  0.55888137438E+02  0.68088780800E+02  0.00000000000E+00 0. -1.
         -2    1    1    2    0  503  0.34447285953E+02 -0.54301590694E+01 -0.12393609978E+03  0.12874882122E+03  0.00000000000E+00 0.  1.
<mgrwt>
<rscale>  2 0.82899594E+02</rscale>
<asrwt>0</asrwt>
<pdfrwt beam="1">  1       21 0.19596472E-01 0.82899594E+02</pdfrwt>
<pdfrwt beam="2">  1       21 0.25548412E-01 0.82899594E+02</pdfrwt>
<totfact> 0.35459543E+05</totfact>
</mgrwt>
</event>
<event>
 5    1  0.1745726E+000  0.6719244E+02  0.7546771E-02  0.1369909E+00
         21   -1    0    0  503  502  0.00000000000E+00  0.00000000000E+00  0.84923092454E+02  0.84923092454E+02  0.00000000000E+00 0. -1.
         21   -1    0    0  501  503 -0.00000000000E+00 -0.00000000000E+00 -0.66704334631E+02  0.66704334631E+02  0.00000000000E+00 0.  1.
         24    1    1    2    0    0 -0.66105283877E+01  0.79059216870E+01  0.95836426345E+01  0.81641073265E+02  0.80419002446E+02 0.  0.
          1    1    1    2  501    0 -0.53788644063E+01 -0.28757125428E+02 -0.17800947876E+02  0.34245849245E+02  0.00000000000E+00 0. -1.
         -2    1    1    2    0  502  0.11989392794E+02  0.20851203741E+02  0.26436063064E+02  0.35740504576E+02  0.00000000000E+00 0.  1.
<mgrwt>
<rscale>  2 0.67192436E+02</rscale>
<asrwt>0</asrwt>
<pdfrwt beam="1">  1       21 0.13065091E-01 0.67192436E+02</pdfrwt>
<pdfrwt beam="2">  1       21 0.10262205E-01 0.67192436E+02</pdfrwt>
<totfact> 0.37165406E+06</totfact>
</mgrwt>
</event>
<event>
 5    1  0.1745726E+000  0.8862516E+02  0.7546771E-02  0.1306216E+00
         21   -1    0    0  501  502  0.00000000000E+00  0.00000000000E+00  0.59832451498E+03  0.59832451498E+03  0.00000000000E+00 0. -1.
         21   -1    0    0  502  503 -0.00000000000E+00 -0.00000000000E+00 -0.28067445740E+02  0.28067445740E+02  0.00000000000E+00 0. -1.
         24    1    1    2    0    0  0.22402837708E+02 -0.41927542953E+02  0.89400435072E+02  0.12930374991E+03  0.80419002446E+02 0. -1.
          1    1    1    2  501    0 -0.41678482373E+02  0.48049816829E+02  0.46970632196E+03  0.47399357557E+03  0.00000000000E+00 0. -1.
         -2    1    1    2    0  503  0.19275644665E+02 -0.61222738757E+01  0.11150312210E+02  0.23094635244E+02  0.00000000000E+00 0.  1.
<mgrwt>
<rscale>  2 0.88625163E+02</rscale>
<asrwt>0</asrwt>
<pdfrwt beam="1">  1       21 0.92049915E-01 0.88625163E+02</pdfrwt>
<pdfrwt beam="2">  1       21 0.43180690E-02 0.88625163E+02</pdfrwt>
<totfact> 0.35155750E+05</totfact>
</mgrwt>
</event>
<event>
 5    1  0.1745726E+000  0.1660134E+03  0.7546771E-02  0.1182070E+00
         21   -1    0    0  501  502  0.00000000000E+00  0.00000000000E+00  0.15580989225E+03  0.15580989225E+03  0.00000000000E+00 0. -1.
         21   -1    0    0  502  503 -0.00000000000E+00 -0.00000000000E+00 -0.55367389756E+03  0.55367389756E+03  0.00000000000E+00 0.  1.
         24    1    1    2    0    0  0.13256882303E+03  0.58281593920E+02 -0.36541901330E+03  0.40121005504E+03  0.80419002446E+02 0.  1.
          1    1    1    2  501    0 -0.50882042049E+02 -0.67110501333E+02  0.11317584302E+03  0.14107293516E+03  0.00000000000E+00 0. -1.
         -2    1    1    2    0  503 -0.81686780985E+02  0.88289074129E+01 -0.14562083503E+03  0.16720079960E+03  0.00000000000E+00 0.  1.
<mgrwt>
<rscale>  2 0.16601343E+03</rscale>
<asrwt>0</asrwt>
<pdfrwt beam="1">  1       21 0.23970753E-01 0.16601343E+03</pdfrwt>
<pdfrwt beam="2">  1       21 0.85180600E-01 0.16601343E+03</pdfrwt>
<totfact> 0.19899190E+04</totfact>
</mgrwt>
</event>
<event>
 5    1  0.1745726E+000  0.1430626E+03  0.7546771E-02  0.1209266E+00
         21   -1    0    0  501  502  0.00000000000E+00  0.00000000000E+00  0.11426787167E+03  0.11426787167E+03  0.00000000000E+00 0.  1.
         21   -1    0    0  502  503 -0.00000000000E+00 -0.00000000000E+00 -0.20951027401E+03  0.20951027401E+03  0.00000000000E+00 0. -1.
         24    1    1    2    0    0 -0.11877537833E+03  0.16566532529E+02 -0.99594648658E+02  0.17540909467E+03  0.80419002446E+02 0.  0.
          1    1    1    2  501    0  0.55151817208E+02 -0.45823542305E+02  0.24038477995E+02  0.75626505903E+02  0.00000000000E+00 0. -1.
         -2    1    1    2    0  503  0.63623561125E+02  0.29257009777E+02 -0.19686231675E+02  0.72742545108E+02  0.00000000000E+00 0.  1.
<mgrwt>
<rscale>  2 0.14306259E+03</rscale>
<asrwt>0</asrwt>
<pdfrwt beam="1">  1       21 0.17579673E-01 0.14306259E+03</pdfrwt>
<pdfrwt beam="2">  1       21 0.32232350E-01 0.14306259E+03</pdfrwt>
<totfact> 0.27467071E+05</totfact>
</mgrwt>
</event>
<event>
 5    1  0.1745726E+000  0.7375388E+02  0.7546771E-02  0.1347774E+00
         21   -1    0    0  503  502  0.00000000000E+00  0.00000000000E+00  0.79364903988E+02  0.79364903988E+02  0.00000000000E+00 0.  1.
         21   -1    0    0  501  503 -0.00000000000E+00 -0.00000000000E+00 -0.35561290600E+03  0.35561290600E+03  0.00000000000E+00 0. -1.
         24    1    1    2    0    0 -0.19177654443E+02 -0.13566937063E+02 -0.11457767717E+03  0.14194049553E+03  0.80419002446E+02 0.  1.
          1    1    1    2  501    0 -0.17588914119E+02 -0.98287628015E+01 -0.21961315642E+03  0.22053551403E+03  0.00000000000E+00 0. -1.
         -2    1    1    2    0  502  0.36766568561E+02  0.23395699865E+02  0.57942831567E+02  0.72501800433E+02  0.00000000000E+00 0.  1.
<mgrwt>
<rscale>  2 0.73753878E+02</rscale>
<asrwt>0</asrwt>
<pdfrwt beam="1">  1       21 0.12209985E-01 0.73753878E+02</pdfrwt>
<pdfrwt beam="2">  1       21 0.54709678E-01 0.73753878E+02</pdfrwt>
<totfact> 0.18615908E+05</totfact>
</mgrwt>
</event>
<event>
 5    1  0.1745726E+000  0.7257057E+02  0.7546771E-02  0.1351564E+00
         21   -1    0    0  503  502  0.00000000000E+00  0.00000000000E+00  0.14257573235E+02  0.14257573235E+02  0.00000000000E+00 0.  1.
         21   -1    0    0  501  503 -0.00000000000E+00 -0.00000000000E+00 -0.37479169300E+03  0.37479169300E+03  0.00000000000E+00 0. -1.
         24    1    1    2    0    0 -0.47394542286E+02  0.69470217648E+01 -0.21090594663E+03  0.23074452979E+03  0.80419002446E+02 0.  1.
          1    1    1    2  501    0  0.23213585983E+02  0.61808634425E+01 -0.75833408765E+02  0.79547341452E+02  0.00000000000E+00 0. -1.
         -2    1    1    2    0  502  0.24180956303E+02 -0.13127885207E+02 -0.73794764368E+02  0.78757394992E+02  0.00000000000E+00 0.  1.
<mgrwt>
<rscale>  2 0.72570570E+02</rscale>
<asrwt>0</asrwt>
<pdfrwt beam="1">  1       21 0.21934727E-02 0.72570570E+02</pdfrwt>
<pdfrwt beam="2">  1       21 0.57660264E-01 0.72570570E+02</pdfrwt>
<totfact> 0.28968431E+06</totfact>
</mgrwt>
</event>
<event>
 5    1  0.1745726E+000  0.7433041E+02  0.7546771E-02  0.1345957E+00
         21   -1    0    0  501  502  0.00000000000E+00  0.00000000000E+00  0.19859551381E+02  0.19859551381E+02  0.00000000000E+00 0.  1.
         21   -1    0    0  502  503 -0.00000000000E+00 -0.00000000000E+00 -0.70379828595E+03  0.70379828595E+03  0.00000000000E+00 0. -1.
         24    1    1    2    0    0  0.27570754034E+02  0.17347953572E+02 -0.63417284657E+03  0.64008086462E+03  0.80419002446E+02 0. -1.
          1    1    1    2  501    0 -0.17338509841E+02  0.18061466025E+02 -0.48986077162E+01  0.25511503994E+02  0.00000000000E+00 0. -1.
         -2    1    1    2    0  503 -0.10232244193E+02 -0.35409419597E+02 -0.44867280282E+02  0.58065468717E+02  0.00000000000E+00 0.  1.
<mgrwt>
<rscale>  2 0.74330412E+02</rscale>
<asrwt>0</asrwt>
<pdfrwt beam="1">  1       21 0.30553157E-02 0.74330412E+02</pdfrwt>
<pdfrwt beam="2">  1       21 0.10827666E+00 0.74330412E+02</pdfrwt>
<totfact> 0.42675495E+05</totfact>
</mgrwt>
</event>
<event>
 5    1  0.1745726E+000  0.7294787E+02  0.7546771E-02  0.1350346E+00
         21   -1    0    0  503  502  0.00000000000E+00  0.00000000000E+00  0.26693941552E+02  0.26693941552E+02  0.00000000000E+00 0.  1.
         21   -1    0    0  501  503 -0.00000000000E+00 -0.00000000000E+00 -0.22037395638E+03  0.22037395638E+03  0.00000000000E+00 0.  1.
         24    1    1    2    0    0  0.27515815766E+02 -0.42269295042E+02 -0.14769470907E+03  0.17556980510E+03  0.80419002446E+02 0.  0.
          1    1    1    2  501    0 -0.16698843326E+02  0.18914519409E+02 -0.35844565649E+02  0.43834270833E+02  0.00000000000E+00 0. -1.
         -2    1    1    2    0  502 -0.10816972440E+02  0.23354775633E+02 -0.10140740105E+02  0.27663821998E+02  0.00000000000E+00 0.  1.
<mgrwt>
<rscale>  2 0.72947867E+02</rscale>
<asrwt>0</asrwt>
<pdfrwt beam="1">  1       21 0.41067603E-02 0.72947867E+02</pdfrwt>
<pdfrwt beam="2">  1       21 0.33903685E-01 0.72947867E+02</pdfrwt>
<totfact> 0.30323966E+06</totfact>
</mgrwt>
</event>
<event>
 5    1  0.1745726E+000  0.6733518E+02  0.7546771E-02  0.1369397E+00
         21   -1    0    0  503  502  0.00000000000E+00  0.00000000000E+00  0.23744144173E+02  0.23744144173E+02  0.00000000000E+00 0. -1.
         21   -1    0    0  501  503 -0.00000000000E+00 -0.00000000000E+00 -0.51020018806E+03  0.51020018806E+03  0.00000000000E+00 0.  1.
         24    1    1    2    0    0  0.97506263639E+01  0.15518251223E+02 -0.14095604907E+03  0.16331477140E+03  0.80419002446E+02 0. -1.
          1    1    1    2  501    0 -0.20686216627E+02  0.11054339970E+02 -0.34068824830E+03  0.34149465665E+03  0.00000000000E+00 0. -1.
         -2    1    1    2    0  502  0.10935590263E+02 -0.26572591193E+02 -0.48117465229E+01  0.29134904182E+02  0.00000000000E+00 0.  1.
<mgrwt>
<rscale>  2 0.67335180E+02</rscale>
<asrwt>0</asrwt>
<pdfrwt beam="1">  1       21 0.36529457E-02 0.67335180E+02</pdfrwt>
<pdfrwt beam="2">  1       21 0.78492328E-01 0.67335180E+02</pdfrwt>
<totfact> 0.65967574E+05</totfact>
</mgrwt>
</event>
<event>
 5    1  0.1745726E+000  0.7073286E+02  0.7546771E-02  0.1357619E+00
         21   -1    0    0  503  502  0.00000000000E+00  0.00000000000E+00  0.41119524750E+02  0.41119524750E+02  0.00000000000E+00 0. -1.
         21   -1    0    0  501  503 -0.00000000000E+00 -0.00000000000E+00 -0.21412668868E+03  0.21412668868E+03  0.00000000000E+00 0.  1.
         24    1    1    2    0    0  0.10138277899E+02  0.44632531441E+02 -0.14323431939E+03  0.17052311792E+03  0.80419002446E+02 0.  1.
          1    1    1    2  501    0 -0.14249613610E+02 -0.24127837430E+02 -0.48914740279E+02  0.56372474167E+02  0.00000000000E+00 0. -1.
         -2    1    1    2    0  502  0.41113357109E+01 -0.20504694011E+02  0.19141895738E+02  0.28350621338E+02  0.00000000000E+00 0.  1.
<mgrwt>
<rscale>  2 0.70732860E+02</rscale>
<asrwt>0</asrwt>
<pdfrwt beam="1">  1       21 0.63260806E-02 0.70732860E+02</pdfrwt>
<pdfrwt beam="2">  1       21 0.32942568E-01 0.70732860E+02</pdfrwt>
<totfact> 0.15646878E+06</totfact>
</mgrwt>
</event>
<event>
 5    1  0.1745726E+000  0.7750055E+02  0.7546771E-02  0.1336298E+00
         21   -1    0    0  501  502  0.00000000000E+00  0.00000000000E+00  0.44909623110E+02  0.44909623110E+02  0.00000000000E+00 0.  1.
         21   -1    0    0  502  503 -0.00000000000E+00 -0.00000000000E+00 -0.23199704056E+03  0.23199704056E+03  0.00000000000E+00 0. -1.
         24    1    1    2    0    0 -0.16197923190E+02  0.17947251000E+02 -0.18934039034E+02  0.86082462341E+02  0.80419002446E+02 0.  1.
          1    1    1    2  501    0  0.35354104173E+02 -0.31668219212E+02 -0.44891115951E+02  0.65329940159E+02  0.00000000000E+00 0. -1.
         -2    1    1    2    0  503 -0.19156180984E+02  0.13720968212E+02 -0.12326226246E+03  0.12549426117E+03  0.00000000000E+00 0.  1.
<mgrwt>
<rscale>  2 0.77500553E+02</rscale>
<asrwt>0</asrwt>
<pdfrwt beam="1">  1       21 0.69091730E-02 0.77500553E+02</pdfrwt>
<pdfrwt beam="2">  1       21 0.35691851E-01 0.77500553E+02</pdfrwt>
<totfact> 0.11596907E+06</totfact>
</mgrwt>
</event>
<event>
 5    1  0.1745726E+000  0.6930977E+02  0.7546771E-02  0.1362456E+00
         21   -1    0    0  503  502  0.00000000000E+00  0.00000000000E+00  0.91786617529E+01  0.91786617529E+01  0.00000000000E+00 0. -1.
         21   -1    0    0  501  503 -0.00000000000E+00 -0.00000000000E+00 -0.70299501539E+03  0.70299501539E+03  0.00000000000E+00 0.  1.
         24    1    1    2    0    0 -0.37364250384E+02 -0.16625533980E+02 -0.58534441439E+03  0.59225652804E+03  0.80419002446E+02 0.  1.
          1    1    1    2  501    0  0.11213091052E+02  0.19082234166E+02 -0.69344682811E+02  0.72791140298E+02  0.00000000000E+00 0. -1.
         -2    1    1    2    0  502  0.26151159332E+02 -0.24567001857E+01 -0.39127256435E+02  0.47126008810E+02  0.00000000000E+00 0.  1.
<mgrwt>
<rscale>  2 0.69309773E+02</rscale>
<asrwt>0</asrwt>
<pdfrwt beam="1">  1       21 0.14121018E-02 0.69309773E+02</pdfrwt>
<pdfrwt beam="2">  1       21 0.10815308E+00 0.69309773E+02</pdfrwt>
<totfact> 0.14623541E+06</totfact>
</mgrwt>
</event>
<event>
 5    1  0.1745726E+000  0.2293872E+03  0.7546771E-02  0.1127072E+00
         21   -1    0    0  503  502  0.00000000000E+00  0.00000000000E+00  0.28208010759E+03  0.28208010759E+03  0.00000000000E+00 0.  1.
         21   -1    0    0  501  503 -0.00000000000E+00 -0.00000000000E+00 -0.23457149860E+03  0.23457149860E+03  0.00000000000E+00 0. -1.
         24    1    1    2    0    0 -0.26564348131E+02  0.14657736147E+03 -0.67139323326E+02  0.18211395383E+03  0.80419002446E+02 0. -1.
          1    1    1    2  501    0 -0.50230161190E+02 -0.19321759311E+03  0.14757917509E+02  0.20018467351E+03  0.00000000000E+00 0. -1.
         -2    1    1    2    0  502  0.76794509320E+02  0.46640231639E+02  0.99890014810E+02  0.13435297886E+03  0.00000000000E+00 0.  1.
<mgrwt>
<rscale>  2 0.22938718E+03</rscale>
<asrwt>0</asrwt>
<pdfrwt beam="1">  1       21 0.43396940E-01 0.22938718E+03</pdfrwt>
<pdfrwt beam="2">  1       21 0.36087923E-01 0.22938718E+03</pdfrwt>
<totfact> 0.37108722E+04</totfact>
</mgrwt>
</event>
<event>
 5    1  0.1745726E+000  0.7943732E+02  0.7546771E-02  0.1330656E+00
         21   -1    0    0  501  502  0.00000000000E+00  0.00000000000E+00  0.14609674943E+03  0.14609674943E+03  0.00000000000E+00 0.  1.
         21   -1    0    0  502  503 -0.00000000000E+00 -0.00000000000E+00 -0.12793784929E+03  0.12793784929E+03  0.00000000000E+00 0. -1.
         24    1    1    2    0    0 -0.54983445475E+02  0.13367798729E+02 -0.42226960376E+02  0.10701499641E+03  0.80419002446E+02 0. -1.
          1    1    1    2  501    0  0.32259094490E+02  0.32042776163E+01  0.10742701004E+03  0.11221175989E+03  0.00000000000E+00 0. -1.
         -2    1    1    2    0  503  0.22724350985E+02 -0.16572076345E+02 -0.47041149524E+02  0.54807842419E+02  0.00000000000E+00 0.  1.
<mgrwt>
<rscale>  2 0.79437322E+02</rscale>
<asrwt>0</asrwt>
<pdfrwt beam="1">  1       21 0.22476423E-01 0.79437322E+02</pdfrwt>
<pdfrwt beam="2">  1       21 0.19682746E-01 0.79437322E+02</pdfrwt>
<totfact> 0.44634815E+05</totfact>
</mgrwt>
</event>
<event>
 5    1  0.1745726E+000  0.9612219E+02  0.7546771E-02  0.1288668E+00
         21   -1    0    0  501  502  0.00000000000E+00  0.00000000000E+00  0.23087503031E+02  0.23087503031E+02  0.00000000000E+00 0. -1.
         21   -1    0    0  502  503 -0.00000000000E+00 -0.00000000000E+00 -0.69716015834E+03  0.69716015834E+03  0.00000000000E+00 0.  1.
         24    1    1    2    0    0  0.97993877336E+01 -0.51446285849E+02 -0.22568494877E+03  0.24524204448E+03  0.80419002446E+02 0. -1.
          1    1    1    2  501    0  0.18788978714E+02 -0.14934034930E+02 -0.34638627732E+01  0.24249731251E+02  0.00000000000E+00 0. -1.
         -2    1    1    2    0  503 -0.28588366448E+02  0.66380320780E+02 -0.44492384377E+03  0.45075588564E+03  0.00000000000E+00 0.  1.
<mgrwt>
<rscale>  2 0.96122194E+02</rscale>
<asrwt>0</asrwt>
<pdfrwt beam="1">  1       21 0.35519234E-02 0.96122194E+02</pdfrwt>
<pdfrwt beam="2">  1       21 0.10725541E+00 0.96122194E+02</pdfrwt>
<totfact> 0.33988444E+05</totfact>
</mgrwt>
</event>
<event>
 5    1  0.1745726E+000  0.8583386E+02  0.7546771E-02  0.1313266E+00
         21   -1    0    0  503  502  0.00000000000E+00  0.00000000000E+00  0.10706167041E+03  0.10706167041E+03  0.00000000000E+00 0. -1.
         21   -1    0    0  501  503 -0.00000000000E+00 -0.00000000000E+00 -0.71826194852E+02  0.71826194852E+02  0.00000000000E+00 0.  1.
         24    1    1    2    0    0  0.30216557914E+02  0.25173011286E+02  0.33623164813E+02  0.95626638735E+02  0.80419002446E+02 0. -1.
          1    1    1    2  501    0  0.23782865265E+02 -0.38610499720E+01 -0.56727400172E+01  0.24753027419E+02  0.00000000000E+00 0. -1.
         -2    1    1    2    0  502 -0.53999423179E+02 -0.21311961314E+02  0.72850507655E+01  0.58508199112E+02  0.00000000000E+00 0.  1.
<mgrwt>
<rscale>  2 0.85833859E+02</rscale>
<asrwt>0</asrwt>
<pdfrwt beam="1">  1       21 0.16471026E-01 0.85833859E+02</pdfrwt>
<pdfrwt beam="2">  1       21 0.11050184E-01 0.85833859E+02</pdfrwt>
<totfact> 0.21986714E+06</totfact>
</mgrwt>
</event>
<event>
 5    1  0.1745726E+000  0.8513232E+02  0.7546771E-02  0.1315087E+00
         21   -1    0    0  503  502  0.00000000000E+00  0.00000000000E+00  0.32678240698E+02  0.32678240698E+02  0.00000000000E+00 0.  1.
         21   -1    0    0  501  503 -0.00000000000E+00 -0.00000000000E+00 -0.23967277410E+03  0.23967277410E+03  0.00000000000E+00 0. -1.
         24    1    1    2    0    0 -0.29955557364E+02  0.71058801227E+01 -0.12768142828E+03  0.15400516884E+03  0.80419002446E+02 0. -1.
          1    1    1    2  501    0  0.29086141183E+02 -0.40988652749E+02 -0.63392002554E+02  0.80898821073E+02  0.00000000000E+00 0. -1.
         -2    1    1    2    0  502  0.86941618022E+00  0.33882772626E+02 -0.15921102567E+02  0.37447024879E+02  0.00000000000E+00 0.  1.
<mgrwt>
<rscale>  2 0.85132318E+02</rscale>
<asrwt>0</asrwt>
<pdfrwt beam="1">  1       21 0.50274216E-02 0.85132318E+02</pdfrwt>
<pdfrwt beam="2">  1       21 0.36872735E-01 0.85132318E+02</pdfrwt>
<totfact> 0.18588131E+06</totfact>
</mgrwt>
</event>
<event>
 5    1  0.1745726E+000  0.7000869E+02  0.7546771E-02  0.1360064E+00
         21   -1    0    0  501  502  0.00000000000E+00  0.00000000000E+00  0.76986584826E+03  0.76986584826E+03  0.00000000000E+00 0.  1.
         21   -1    0    0  502  503 -0.00000000000E+00 -0.00000000000E+00 -0.68078343915E+01  0.68078343915E+01  0.00000000000E+00 0.  1.
         24    1    1    2    0    0  0.10242639010E+02 -0.45243941058E+02  0.58383999710E+03  0.59117534118E+03  0.80419002446E+02 0.  1.
          1    1    1    2  501    0 -0.86154997408E+01  0.18755428890E+02  0.94199294854E+02  0.96433915712E+02  0.00000000000E+00 0. -1.
         -2    1    1    2    0  503 -0.16271392690E+01  0.26488512168E+02  0.85018721917E+02  0.89064425758E+02  0.00000000000E+00 0.  1.
<mgrwt>
<rscale>  2 0.70008686E+02</rscale>
<asrwt>0</asrwt>
<pdfrwt beam="1">  1       21 0.11844083E+00 0.70008686E+02</pdfrwt>
<pdfrwt beam="2">  1       21 0.10473597E-02 0.70008686E+02</pdfrwt>
<totfact> 0.18850142E+06</totfact>
</mgrwt>
</event>
<event>
 5    1  0.1745726E+000  0.9276323E+02  0.7546771E-02  0.1296295E+00
         21   -1    0    0  503  502  0.00000000000E+00  0.00000000000E+00  0.10801998444E+04  0.10801998444E+04  0.00000000000E+00 0.  1.
         21   -1    0    0  501  503 -0.00000000000E+00 -0.00000000000E+00 -0.10384229970E+02  0.10384229970E+02  0.00000000000E+00 0.  1.
         24    1    1    2    0    0 -0.58713771401E+02 -0.13277356430E+02  0.32169039894E+03  0.33700967919E+03  0.80419002446E+02 0.  1.
          1    1    1    2  501    0  0.45580023352E+02 -0.19641009583E+02  0.30275187246E+03  0.30679309651E+03  0.00000000000E+00 0. -1.
         -2    1    1    2    0  502  0.13133748049E+02  0.32918366014E+02  0.44537334305E+03  0.44678129869E+03  0.00000000000E+00 0.  1.
<mgrwt>
<rscale>  2 0.92763226E+02</rscale>
<asrwt>0</asrwt>
<pdfrwt beam="1">  1       21 0.16618450E+00 0.92763226E+02</pdfrwt>
<pdfrwt beam="2">  1       21 0.15975747E-02 0.92763226E+02</pdfrwt>
<totfact> 0.41636875E+05</totfact>
</mgrwt>
</event>
<event>
 5    1  0.1745726E+000  0.8987167E+02  0.7546771E-02  0.1303163E+00
         21   -1    0    0  501  502  0.00000000000E+00  0.00000000000E+00  0.12740610202E+03  0.12740610202E+03  0.00000000000E+00 0. -1.
         21   -1    0    0  502  503 -0.00000000000E+00 -0.00000000000E+00 -0.74156691047E+02  0.74156691047E+02  0.00000000000E+00 0.  1.
         24    1    1    2    0    0 -0.60063226315E+02  0.21363925971E+02 -0.73628912029E+01  0.10288555102E+03  0.80419002446E+02 0.  0.
          1    1    1    2  501    0  0.30673826062E+02  0.11749405316E+02  0.32640240809E+02  0.46306775429E+02  0.00000000000E+00 0. -1.
         -2    1    1    2    0  503  0.29389400253E+02 -0.33113331287E+02  0.27972061365E+02  0.52370466612E+02  0.00000000000E+00 0.  1.
<mgrwt>
<rscale>  2 0.89871668E+02</rscale>
<asrwt>0</asrwt>
<pdfrwt beam="1">  1       21 0.19600939E-01 0.89871668E+02</pdfrwt>
<pdfrwt beam="2">  1       21 0.11408722E-01 0.89871668E+02</pdfrwt>
<totfact> 0.15202098E+06</totfact>
</mgrwt>
</event>
<event>
 5    1  0.1745726E+000  0.7017879E+02  0.7546771E-02  0.1359486E+00
         21   -1    0    0  503  502  0.00000000000E+00  0.00000000000E+00  0.15956123671E+03  0.15956123671E+03  0.00000000000E+00 0.  1.
         21   -1    0    0  501  503 -0.00000000000E+00 -0.00000000000E+00 -0.93427169195E+02  0.93427169195E+02  0.00000000000E+00 0.  1.
         24    1    1    2    0    0  0.32425329086E+02  0.97264024859E+01 -0.34222945483E+02  0.93725294470E+02  0.80419002446E+02 0.  1.
          1    1    1    2  501    0 -0.19937060028E+02 -0.25890628162E+02 -0.19249016377E+02  0.37925395458E+02  0.00000000000E+00 0. -1.
         -2    1    1    2    0  502 -0.12488269057E+02  0.16164225676E+02  0.11960602937E+03  0.12133771598E+03  0.00000000000E+00 0.  1.
<mgrwt>
<rscale>  2 0.70178790E+02</rscale>
<asrwt>0</asrwt>
<pdfrwt beam="1">  1       21 0.24547883E-01 0.70178790E+02</pdfrwt>
<pdfrwt beam="2">  1       21 0.14373411E-01 0.70178790E+02</pdfrwt>
<totfact> 0.66555013E+05</totfact>
</mgrwt>
</event>
<event>
 5    1  0.1745726E+000  0.9515689E+02  0.7546771E-02  0.1290823E+00
         21   -1    0    0  503  502  0.00000000000E+00  0.00000000000E+00  0.24045245454E+03  0.24045245454E+03  0.00000000000E+00 0. -1.
         21   -1    0    0  501  503 -0.00000000000E+00 -0.00000000000E+00 -0.47273865158E+02  0.47273865158E+02  0.00000000000E+00 0. -1.
         24    1    1    2    0    0  0.60729523675E+01 -0.53455927554E+02  0.15759171798E+03  0.18492372069E+03  0.80419002446E+02 0. -1.
          1    1    1    2  501    0  0.33489208886E+02  0.39077300319E+02  0.70442130435E+01  0.51944041520E+02  0.00000000000E+00 0. -1.
         -2    1    1    2    0  502 -0.39562161253E+02  0.14378627235E+02  0.28542658354E+02  0.50858557491E+02  0.00000000000E+00 0.  1.
<mgrwt>
<rscale>  2 0.95156887E+02</rscale>
<asrwt>0</asrwt>
<pdfrwt beam="1">  1       21 0.36992685E-01 0.95156887E+02</pdfrwt>
<pdfrwt beam="2">  1       21 0.72729024E-02 0.95156887E+02</pdfrwt>
<totfact> 0.99586374E+05</totfact>
</mgrwt>
</event>
<event>
 5    1  0.1745726E+000  0.1118418E+03  0.7546771E-02  0.1257197E+00
         21   -1    0    0  503  502  0.00000000000E+00  0.00000000000E+00  0.14567659933E+03  0.14567659933E+03  0.00000000000E+00 0.  1.
         21   -1    0    0  501  503 -0.00000000000E+00 -0.00000000000E+00 -0.27070589590E+03  0.27070589590E+03  0.00000000000E+00 0. -1.
         24    1    1    2    0    0  0.16557306374E+02  0.30231278150E+02 -0.30712001016E+02  0.92728191688E+02  0.80419002446E+02 0.  1.
          1    1    1    2  501    0 -0.49902381702E+02  0.36341068466E+02 -0.19151346003E+03  0.20121711242E+03  0.00000000000E+00 0. -1.
         -2    1    1    2    0  502  0.33345075328E+02 -0.66572346616E+02  0.97196164471E+02  0.12243719112E+03  0.00000000000E+00 0.  1.
<mgrwt>
<rscale>  2 0.11184184E+03</rscale>
<asrwt>0</asrwt>
<pdfrwt beam="1">  1       21 0.22411785E-01 0.11184184E+03</pdfrwt>
<pdfrwt beam="2">  1       21 0.41647061E-01 0.11184184E+03</pdfrwt>
<totfact> 0.10673697E+05</totfact>
</mgrwt>
</event>
<event>
 5    1  0.1745726E+000  0.6534720E+02  0.7546771E-02  0.1376670E+00
         21   -1    0    0  503  502  0.00000000000E+00  0.00000000000E+00  0.90341652166E+03  0.90341652166E+03  0.00000000000E+00 0.  1.
         21   -1    0    0  501  503 -0.00000000000E+00 -0.00000000000E+00 -0.59916940921E+01  0.59916940921E+01  0.00000000000E+00 0. -1.
         24    1    1    2    0    0 -0.16344215665E+02  0.18284576942E+01  0.67059321206E+03  0.67559821540E+03  0.80419002446E+02 0.  1.
          1    1    1    2  501    0  0.14253375662E+02 -0.23150593331E+02  0.63441578546E+02  0.69021319733E+02  0.00000000000E+00 0. -1.
         -2    1    1    2    0  502  0.20908400026E+01  0.21322135636E+02  0.16339003697E+03  0.16478868062E+03  0.00000000000E+00 0.  1.
<mgrwt>
<rscale>  2 0.65347203E+02</rscale>
<asrwt>0</asrwt>
<pdfrwt beam="1">  1       21 0.13898705E+00 0.65347203E+02</pdfrwt>
<pdfrwt beam="2">  1       21 0.92179981E-03 0.65347203E+02</pdfrwt>
<totfact> 0.15581233E+06</totfact>
</mgrwt>
</event>
<event>
 5    1  0.1745726E+000  0.7109360E+02  0.7546771E-02  0.1356413E+00
         21   -1    0    0  501  502  0.00000000000E+00  0.00000000000E+00  0.39938166919E+03  0.39938166919E+03  0.00000000000E+00 0.  1.
         21   -1    0    0  502  503 -0.00000000000E+00 -0.00000000000E+00 -0.33833998193E+02  0.33833998193E+02  0.00000000000E+00 0.  1.
         24    1    1    2    0    0  0.16419015893E+02  0.11951530200E+02  0.21921633006E+03  0.23438310194E+03  0.80419002446E+02 0.  1.
          1    1    1    2  501    0 -0.30447035517E+02  0.10976020852E+02  0.16367492285E+03  0.16684416495E+03  0.00000000000E+00 0. -1.
         -2    1    1    2    0  503  0.14028019624E+02 -0.22927551052E+02 -0.17343581922E+02  0.31988400487E+02  0.00000000000E+00 0.  1.
<mgrwt>
<rscale>  2 0.71093598E+02</rscale>
<asrwt>0</asrwt>
<pdfrwt beam="1">  1       21 0.61443330E-01 0.71093598E+02</pdfrwt>
<pdfrwt beam="2">  1       21 0.52052308E-02 0.71093598E+02</pdfrwt>
<totfact> 0.62279187E+05</totfact>
</mgrwt>
</event>
<event>
 5    1  0.1745726E+000  0.6350088E+02  0.7546771E-02  0.1383701E+00
         21   -1    0    0  503  502  0.00000000000E+00  0.00000000000E+00  0.79359765086E+02  0.79359765086E+02  0.00000000000E+00 0.  1.
         21   -1    0    0  501  503 -0.00000000000E+00 -0.00000000000E+00 -0.70565530429E+02  0.70565530429E+02  0.00000000000E+00 0. -1.
         24    1    1    2    0    0  0.14926060017E+01  0.86718430928E+00 -0.16943641349E+02  0.82202693495E+02  0.80419002446E+02 0.  0.
          1    1    1    2  501    0  0.23558224894E+01  0.22630853555E+02 -0.99393434756E+01  0.24829337103E+02  0.00000000000E+00 0. -1.
         -2    1    1    2    0  502 -0.38484284912E+01 -0.23498037865E+02  0.35677219481E+02  0.42893264917E+02  0.00000000000E+00 0.  1.
<mgrwt>
<rscale>  2 0.63500881E+02</rscale>
<asrwt>0</asrwt>
<pdfrwt beam="1">  1       21 0.12209195E-01 0.63500881E+02</pdfrwt>
<pdfrwt beam="2">  1       21 0.10856235E-01 0.63500881E+02</pdfrwt>
<totfact> 0.37814219E+06</totfact>
</mgrwt>
</event>
<event>
 5    1  0.1745726E+000  0.7462083E+02  0.7546771E-02  0.1345049E+00
         21   -1    0    0  503  502  0.00000000000E+00  0.00000000000E+00  0.40973918808E+01  0.40973918808E+01  0.00000000000E+00 0. -1.
         21   -1    0    0  501  503 -0.00000000000E+00 -0.00000000000E+00 -0.16326331759E+04  0.16326331759E+04  0.00000000000E+00 0.  1.
         24    1    1    2    0    0  0.18119390285E+02  0.47592530647E+02 -0.70445778624E+03  0.71085958516E+03  0.80419002446E+02 0. -1.
          1    1    1    2  501    0 -0.16991271418E+01 -0.29779642578E+02 -0.66321942206E+03  0.66388983720E+03  0.00000000000E+00 0. -1.
         -2    1    1    2    0  502 -0.16420263143E+02 -0.17812888070E+02 -0.26085857572E+03  0.26198114540E+03  0.00000000000E+00 0.  1.
<mgrwt>
<rscale>  2 0.74620828E+02</rscale>
<asrwt>0</asrwt>
<pdfrwt beam="1">  1       21 0.63036851E-03 0.74620828E+02</pdfrwt>
<pdfrwt beam="2">  1       21 0.25117413E+00 0.74620828E+02</pdfrwt>
<totfact> 0.54834995E+05</totfact>
</mgrwt>
</event>
<event>
 5    1  0.1745726E+000  0.8179066E+02  0.7546771E-02  0.1324045E+00
         21   -1    0    0  501  502  0.00000000000E+00  0.00000000000E+00  0.16929174928E+02  0.16929174928E+02  0.00000000000E+00 0. -1.
         21   -1    0    0  502  503 -0.00000000000E+00 -0.00000000000E+00 -0.62645896278E+03  0.62645896278E+03  0.00000000000E+00 0.  1.
         24    1    1    2    0    0  0.28640649232E+02 -0.17933744740E+02 -0.32753532609E+03  0.33895207889E+03  0.80419002446E+02 0.  0.
          1    1    1    2  501    0  0.25802304882E+01  0.38744265496E+02 -0.28466892763E+02  0.48147063065E+02  0.00000000000E+00 0. -1.
         -2    1    1    2    0  503 -0.31220879720E+02 -0.20810520756E+02 -0.25352756900E+03  0.25628899576E+03  0.00000000000E+00 0.  1.
<mgrwt>
<rscale>  2 0.81790655E+02</rscale>
<asrwt>0</asrwt>
<pdfrwt beam="1">  1       21 0.26044887E-02 0.81790655E+02</pdfrwt>
<pdfrwt beam="2">  1       21 0.96378293E-01 0.81790655E+02</pdfrwt>
<totfact> 0.72266517E+05</totfact>
</mgrwt>
</event>
<event>
 5    1  0.1745726E+000  0.7368817E+02  0.7546771E-02  0.1347982E+00
         21   -1    0    0  501  502  0.00000000000E+00  0.00000000000E+00  0.16337666649E+03  0.16337666649E+03  0.00000000000E+00 0. -1.
         21   -1    0    0  502  503 -0.00000000000E+00 -0.00000000000E+00 -0.80989590053E+02  0.80989590053E+02  0.00000000000E+00 0.  1.
         24    1    1    2    0    0 -0.72124183686E+01 -0.48023863576E+02  0.76157455930E+02  0.12093586937E+03  0.80419002446E+02 0.  1.
          1    1    1    2  501    0 -0.80391553428E+01  0.19370646970E+02  0.58363527169E+02  0.62017346656E+02  0.00000000000E+00 0. -1.
         -2    1    1    2    0  503  0.15251573711E+02  0.28653216606E+02 -0.52133906660E+02  0.61413040522E+02  0.00000000000E+00 0.  1.
<mgrwt>
<rscale>  2 0.73688173E+02</rscale>
<asrwt>0</asrwt>
<pdfrwt beam="1">  1       21 0.25134872E-01 0.73688173E+02</pdfrwt>
<pdfrwt beam="2">  1       21 0.12459937E-01 0.73688173E+02</pdfrwt>
<totfact> 0.81959672E+05</totfact>
</mgrwt>
</event>
<event>
 5    1  0.1745726E+000  0.6334253E+02  0.7546771E-02  0.1384317E+00
         21   -1    0    0  503  502  0.00000000000E+00  0.00000000000E+00  0.49339510775E+02  0.49339510775E+02  0.00000000000E+00 0.  1.
         21   -1    0    0  501  503 -0.00000000000E+00 -0.00000000000E+00 -0.14456476872E+03  0.14456476872E+03  0.00000000000E+00 0. -1.
         24    1    1    2    0    0 -0.37304482532E+01 -0.22159370649E+01 -0.42977303493E+02  0.91285766641E+02  0.80419002446E+02 0.  1.
          1    1    1    2  501    0 -0.12985670232E+02 -0.16537777717E+02 -0.69191871958E+02  0.72316255906E+02  0.00000000000E+00 0. -1.
         -2    1    1    2    0  502  0.16716118486E+02  0.18753714782E+02  0.16943917510E+02  0.30302256945E+02  0.00000000000E+00 0.  1.
<mgrwt>
<rscale>  2 0.63342533E+02</rscale>
<asrwt>0</asrwt>
<pdfrwt beam="1">  1       21 0.75906942E-02 0.63342533E+02</pdfrwt>
<pdfrwt beam="2">  1       21 0.22240733E-01 0.63342533E+02</pdfrwt>
<totfact> 0.23900454E+06</totfact>
</mgrwt>
</event>
<event>
 5    1  0.1745726E+000  0.8465905E+02  0.7546771E-02  0.1316327E+00
         21   -1    0    0  501  502  0.00000000000E+00  0.00000000000E+00  0.19330308558E+03  0.19330308558E+03  0.00000000000E+00 0. -1.
         21   -1    0    0  502  503 -0.00000000000E+00 -0.00000000000E+00 -0.80777583456E+02  0.80777583456E+02  0.00000000000E+00 0.  1.
         24    1    1    2    0    0 -0.14229719207E+02 -0.49001705392E+01 -0.36775836341E+01  0.81897723752E+02  0.80419002446E+02 0. -1.
          1    1    1    2  501    0  0.50638625465E+02  0.65282983253E+01  0.13975522797E+03  0.14878982766E+03  0.00000000000E+00 0. -1.
         -2    1    1    2    0  503 -0.36408906258E+02 -0.16281277861E+01 -0.23552142212E+02  0.43393117632E+02  0.00000000000E+00 0.  1.
<mgrwt>
<rscale>  2 0.84659053E+02</rscale>
<asrwt>0</asrwt>
<pdfrwt beam="1">  1       21 0.29738936E-01 0.84659053E+02</pdfrwt>
<pdfrwt beam="2">  1       21 0.12427321E-01 0.84659053E+02</pdfrwt>
<totfact> 0.60101330E+05</totfact>
</mgrwt>
</event>
<event>
 5    1  0.1745726E+000  0.8417337E+02  0.7546771E-02  0.1317609E+00
         21   -1    0    0  503  502  0.00000000000E+00  0.00000000000E+00  0.65786340135E+03  0.65786340135E+03  0.00000000000E+00 0. -1.
         21   -1    0    0  501  503 -0.00000000000E+00 -0.00000000000E+00 -0.13671725293E+02  0.13671725293E+02  0.00000000000E+00 0.  1.
         24    1    1    2    0    0 -0.57895189660E+02  0.20803926251E+02  0.23337997804E+03  0.25439749692E+03  0.80419002446E+02 0.  0.
          1    1    1    2  501    0  0.29131426892E+02 -0.24539703709E+02  0.15175486772E+03  0.15646206239E+03  0.00000000000E+00 0. -1.
         -2    1    1    2    0  502  0.28763762769E+02  0.37357774580E+01  0.25905683029E+03  0.26067556733E+03  0.00000000000E+00 0.  1.
<mgrwt>
<rscale>  2 0.84173366E+02</rscale>
<asrwt>0</asrwt>
<pdfrwt beam="1">  1       21 0.10120973E+00 0.84173366E+02</pdfrwt>
<pdfrwt beam="2">  1       21 0.21033429E-02 0.84173366E+02</pdfrwt>
<totfact> 0.91034048E+05</totfact>
</mgrwt>
</event>
<event>
 5    1  0.1745726E+000  0.9409732E+02  0.7546771E-02  0.1293222E+00
         21   -1    0    0  501  502  0.00000000000E+00  0.00000000000E+00  0.48122579048E+02  0.48122579048E+02  0.00000000000E+00 0. -1.
         21   -1    0    0  502  503 -0.00000000000E+00 -0.00000000000E+00 -0.34522097430E+03  0.34522097430E+03  0.00000000000E+00 0. -1.
         24    1    1    2    0    0  0.72082449691E+02 -0.21952907607E+02 -0.14816403482E+03  0.18465537327E+03  0.80419002446E+02 0. -1.
          1    1    1    2  501    0 -0.21458267929E+02  0.16509133030E+02  0.19084231863E+02  0.33124260622E+02  0.00000000000E+00 0. -1.
         -2    1    1    2    0  503 -0.50624181762E+02  0.54437745769E+01 -0.16801859229E+03  0.17556391946E+03  0.00000000000E+00 0.  1.
<mgrwt>
<rscale>  2 0.94097320E+02</rscale>
<asrwt>0</asrwt>
<pdfrwt beam="1">  1       21 0.74034734E-02 0.94097320E+02</pdfrwt>
<pdfrwt beam="2">  1       21 0.53110921E-01 0.94097320E+02</pdfrwt>
<totfact> 0.46691913E+05</totfact>
</mgrwt>
</event>
<event>
 5    1  0.1745726E+000  0.8008844E+02  0.7546771E-02  0.1328801E+00
         21   -1    0    0  501  502  0.00000000000E+00  0.00000000000E+00  0.16836397170E+02  0.16836397170E+02  0.00000000000E+00 0. -1.
         21   -1    0    0  502  503 -0.00000000000E+00 -0.00000000000E+00 -0.53621739375E+03  0.53621739375E+03  0.00000000000E+00 0. -1.
         24    1    1    2    0    0 -0.48390533786E+01 -0.27101142665E+02 -0.17753002331E+03  0.19682991008E+03  0.80419002446E+02 0.  0.
          1    1    1    2  501    0 -0.31746221452E+02  0.42211031809E+01 -0.39699551150E+02  0.51006809840E+02  0.00000000000E+00 0. -1.
         -2    1    1    2    0  503  0.36585274831E+02  0.22880039484E+02 -0.30215142211E+03  0.30521707100E+03  0.00000000000E+00 0.  1.
<mgrwt>
<rscale>  2 0.80088441E+02</rscale>
<asrwt>0</asrwt>
<pdfrwt beam="1">  1       21 0.25902154E-02 0.80088441E+02</pdfrwt>
<pdfrwt beam="2">  1       21 0.82494969E-01 0.80088441E+02</pdfrwt>
<totfact> 0.10340714E+06</totfact>
</mgrwt>
</event>
<event>
 5    1  0.2529811E+000  0.1302541E+03  0.7546771E-02  0.1227079E+00
         21   -1    0    0  503  502  0.00000000000E+00  0.00000000000E+00  0.19406447680E+03  0.19406447680E+03  0.00000000000E+00 0.  1.
         21   -1    0    0  501  503 -0.00000000000E+00 -0.00000000000E+00 -0.33605533313E+03  0.33605533313E+03  0.00000000000E+00 0. -1.
         24    1    1    2    0    0 -0.56387646127E+02  0.52922992504E+02  0.14308329198E+03  0.18143994645E+03  0.80419002446E+02 0.  1.
          1    1    1    2  501    0  0.96809724074E+02 -0.25561354656E+02 -0.28259053760E+03  0.29980479894E+03  0.00000000000E+00 0. -1.
         -2    1    1    2    0  502 -0.40422077947E+02 -0.27361637849E+02 -0.24836107000E+01  0.48875064536E+02  0.00000000000E+00 0.  1.
<mgrwt>
<rscale>  2 0.13025415E+03</rscale>
<asrwt>0</asrwt>
<pdfrwt beam="1">  1       21 0.29856074E-01 0.13025415E+03</pdfrwt>
<pdfrwt beam="2">  1       21 0.51700820E-01 0.13025415E+03</pdfrwt>
<totfact> 0.39524161E+04</totfact>
</mgrwt>
</event>
<event>
 5    1  0.2587656E+000  0.8622187E+02  0.7546771E-02  0.1312268E+00
         21   -1    0    0  503  502  0.00000000000E+00  0.00000000000E+00  0.20894654648E+03  0.20894654648E+03  0.00000000000E+00 0.  1.
         21   -1    0    0  501  503 -0.00000000000E+00 -0.00000000000E+00 -0.60580891845E+03  0.60580891845E+03  0.00000000000E+00 0. -1.
         24    1    1    2    0    0 -0.13937346107E+02  0.10527492268E+02  0.26246732973E+02  0.86378149182E+02  0.80419002446E+02 0.  0.
          1    1    1    2  501    0  0.24747703550E+02  0.35274186398E+02 -0.57128506315E+03  0.57290779401E+03  0.00000000000E+00 0. -1.
         -2    1    1    2    0  502 -0.10810357443E+02 -0.45801678666E+02  0.14817595821E+03  0.15546952174E+03  0.00000000000E+00 0.  1.
<mgrwt>
<rscale>  2 0.86221868E+02</rscale>
<asrwt>0</asrwt>
<pdfrwt beam="1">  1       21 0.32145623E-01 0.86221868E+02</pdfrwt>
<pdfrwt beam="2">  1       21 0.93201372E-01 0.86221868E+02</pdfrwt>
<totfact> 0.99485123E+03</totfact>
</mgrwt>
</event>
<event>
 5    1  0.1745726E+000  0.1739340E+03  0.7546771E-02  0.1173806E+00
         21   -1    0    0  503  502  0.00000000000E+00  0.00000000000E+00  0.74098006505E+02  0.74098006505E+02  0.00000000000E+00 0. -1.
         21   -1    0    0  501  503 -0.00000000000E+00 -0.00000000000E+00 -0.62021103177E+03  0.62021103177E+03  0.00000000000E+00 0.  1.
         24    1    1    2    0    0  0.66276059940E+02 -0.77604063892E+02 -0.64138210849E+02  0.14489938888E+03  0.80419002446E+02 0. -1.
          1    1    1    2  501    0  0.68511084001E+02  0.20127390955E+02 -0.33254162215E+03  0.34012175902E+03  0.00000000000E+00 0. -1.
         -2    1    1    2    0  502 -0.13478714394E+03  0.57476672937E+02 -0.14943319226E+03  0.20928789036E+03  0.00000000000E+00 0.  1.
<mgrwt>
<rscale>  2 0.17393401E+03</rscale>
<asrwt>0</asrwt>
<pdfrwt beam="1">  1       21 0.11399693E-01 0.17393401E+03</pdfrwt>
<pdfrwt beam="2">  1       21 0.95417083E-01 0.17393401E+03</pdfrwt>
<totfact> 0.59500205E+04</totfact>
</mgrwt>
</event>
<event>
 5    1  0.1745726E+000  0.1379285E+03  0.7546771E-02  0.1216144E+00
         21   -1    0    0  503  502  0.00000000000E+00  0.00000000000E+00  0.37926731103E+02  0.37926731103E+02  0.00000000000E+00 0.  1.
         21   -1    0    0  501  503 -0.00000000000E+00 -0.00000000000E+00 -0.54124517843E+03  0.54124517843E+03  0.00000000000E+00 0.  1.
         24    1    1    2    0    0 -0.14257753619E+02 -0.10723154213E+03 -0.26625145093E+03  0.29842744217E+03  0.80419002446E+02 0.  1.
          1    1    1    2  501    0 -0.21926695379E+02 -0.55517126013E+01 -0.85188168870E+02  0.88139807116E+02  0.00000000000E+00 0. -1.
         -2    1    1    2    0  502  0.36184448998E+02  0.11278325473E+03 -0.15187882753E+03  0.19260466025E+03  0.00000000000E+00 0.  1.
<mgrwt>
<rscale>  2 0.13792855E+03</rscale>
<asrwt>0</asrwt>
<pdfrwt beam="1">  1       21 0.58348824E-02 0.13792855E+03</pdfrwt>
<pdfrwt beam="2">  1       21 0.83268479E-01 0.13792855E+03</pdfrwt>
<totfact> 0.26351939E+05</totfact>
</mgrwt>
</event>
<event>
 5    1  0.1745726E+000  0.8642079E+02  0.7546771E-02  0.1311758E+00
         21   -1    0    0  501  502  0.00000000000E+00  0.00000000000E+00  0.15818643400E+03  0.15818643400E+03  0.00000000000E+00 0. -1.
         21   -1    0    0  502  503 -0.00000000000E+00 -0.00000000000E+00 -0.67937456750E+02  0.67937456750E+02  0.00000000000E+00 0.  1.
         24    1    1    2    0    0  0.12789726113E+02 -0.25634623078E+01  0.71484736083E+02  0.10838557044E+03  0.80419002446E+02 0.  1.
          1    1    1    2  501    0  0.13078411224E+02  0.42122165160E+02  0.45554870791E+02  0.63407948166E+02  0.00000000000E+00 0. -1.
         -2    1    1    2    0  503 -0.25868137337E+02 -0.39558702852E+02 -0.26790629628E+02  0.54330372136E+02  0.00000000000E+00 0.  1.
<mgrwt>
<rscale>  2 0.86420788E+02</rscale>
<asrwt>0</asrwt>
<pdfrwt beam="1">  1       21 0.24336374E-01 0.86420788E+02</pdfrwt>
<pdfrwt beam="2">  1       21 0.10451916E-01 0.86420788E+02</pdfrwt>
<totfact> 0.11864624E+06</totfact>
</mgrwt>
</event>
<event>
 5    1  0.1745726E+000  0.7609265E+02  0.7546771E-02  0.1340520E+00
         21   -1    0    0  501  502  0.00000000000E+00  0.00000000000E+00  0.40498029096E+02  0.40498029096E+02  0.00000000000E+00 0. -1.
         21   -1    0    0  502  503 -0.00000000000E+00 -0.00000000000E+00 -0.14376815701E+03  0.14376815701E+03  0.00000000000E+00 0.  1.
         24    1    1    2    0    0 -0.21024202045E+02  0.29611665997E+01 -0.62564350917E+02  0.10407833367E+03  0.80419002446E+02 0.  0.
          1    1    1    2  501    0 -0.23575522304E+02  0.38696587418E+01 -0.12304309590E+02  0.26873324044E+02  0.00000000000E+00 0. -1.
         -2    1    1    2    0  503  0.44599724349E+02 -0.68308253415E+01 -0.28401467406E+02  0.53314528392E+02  0.00000000000E+00 0.  1.
<mgrwt>
<rscale>  2 0.76092654E+02</rscale>
<asrwt>0</asrwt>
<pdfrwt beam="1">  1       21 0.62304661E-02 0.76092654E+02</pdfrwt>
<pdfrwt beam="2">  1       21 0.22118178E-01 0.76092654E+02</pdfrwt>
<totfact> 0.34019737E+06</totfact>
</mgrwt>
</event>
<event>
 5    1  0.1745726E+000  0.7488602E+02  0.7546771E-02  0.1344224E+00
         21   -1    0    0  503  502  0.00000000000E+00  0.00000000000E+00  0.22244004968E+03  0.22244004968E+03  0.00000000000E+00 0. -1.
         21   -1    0    0  501  503 -0.00000000000E+00 -0.00000000000E+00 -0.26483616043E+02  0.26483616043E+02  0.00000000000E+00 0.  1.
         24    1    1    2    0    0  0.13242672719E+02 -0.38726431437E+02  0.14317475152E+03  0.16923749673E+03  0.80419002446E+02 0. -1.
          1    1    1    2  501    0  0.10201944275E+02  0.34161523912E+02  0.28704486308E+02  0.45771573244E+02  0.00000000000E+00 0. -1.
         -2    1    1    2    0  502 -0.23444616993E+02  0.45649075247E+01  0.24077195804E+02  0.33914595744E+02  0.00000000000E+00 0.  1.
<mgrwt>
<rscale>  2 0.74886025E+02</rscale>
<asrwt>0</asrwt>
<pdfrwt beam="1">  1       21 0.34221545E-01 0.74886025E+02</pdfrwt>
<pdfrwt beam="2">  1       21 0.40744026E-02 0.74886025E+02</pdfrwt>
<totfact> 0.30219448E+06</totfact>
</mgrwt>
</event>
<event>
 5    1  0.1745726E+000  0.8849611E+02  0.7546771E-02  0.1306535E+00
         21   -1    0    0  503  502  0.00000000000E+00  0.00000000000E+00  0.31108052899E+02  0.31108052899E+02  0.00000000000E+00 0. -1.
         21   -1    0    0  501  503 -0.00000000000E+00 -0.00000000000E+00 -0.49169652996E+03  0.49169652996E+03  0.00000000000E+00 0. -1.
         24    1    1    2    0    0  0.15270661754E+02  0.99659854048E+01 -0.69346047543E+02  0.10774323292E+03  0.80419002446E+02 0. -1.
          1    1    1    2  501    0 -0.34802802457E+02 -0.43509211161E+02 -0.36251451444E+03  0.36677112712E+03  0.00000000000E+00 0. -1.
         -2    1    1    2    0  502  0.19532140703E+02  0.33543225756E+02 -0.28727915077E+02  0.48290222812E+02  0.00000000000E+00 0.  1.
<mgrwt>
<rscale>  2 0.88496111E+02</rscale>
<asrwt>0</asrwt>
<pdfrwt beam="1">  1       21 0.47858549E-02 0.88496111E+02</pdfrwt>
<pdfrwt beam="2">  1       21 0.75645611E-01 0.88496111E+02</pdfrwt>
<totfact> 0.45898890E+05</totfact>
</mgrwt>
</event>
<event>
 5    1  0.1745726E+000  0.1049098E+03  0.7546771E-02  0.1270297E+00
         21   -1    0    0  503  502  0.00000000000E+00  0.00000000000E+00  0.55674226147E+02  0.55674226147E+02  0.00000000000E+00 0.  1.
         21   -1    0    0  501  503 -0.00000000000E+00 -0.00000000000E+00 -0.38961777282E+03  0.38961777282E+03  0.00000000000E+00 0. -1.
         24    1    1    2    0    0  0.29335224044E+02 -0.25613910350E+02 -0.10420909027E+03  0.13727118497E+03  0.80419002446E+02 0.  1.
          1    1    1    2  501    0  0.34085500559E+02 -0.22516547098E+02 -0.22455042409E+03  0.22823608216E+03  0.00000000000E+00 0. -1.
         -2    1    1    2    0  502 -0.63420724603E+02  0.48130457448E+02 -0.51840323112E+01  0.79784731837E+02  0.00000000000E+00 0.  1.
<mgrwt>
<rscale>  2 0.10490982E+03</rscale>
<asrwt>0</asrwt>
<pdfrwt beam="1">  1       21 0.85652657E-02 0.10490982E+03</pdfrwt>
<pdfrwt beam="2">  1       21 0.59941195E-01 0.10490982E+03</pdfrwt>
<totfact> 0.28219910E+05</totfact>
</mgrwt>
</event>
<event>
 5    1  0.1745726E+000  0.1531507E+03  0.7546771E-02  0.1196654E+00
         21   -1    0    0  503  502  0.00000000000E+00  0.00000000000E+00  0.86234362884E+02  0.86234362884E+02  0.00000000000E+00 0.  1.
         21   -1    0    0  501  503 -0.00000000000E+00 -0.00000000000E+00 -0.36655837368E+03  0.36655837368E+03  0.00000000000E+00 0. -1.
         24    1    1    2    0    0  0.11672739702E+03 -0.92124197706E+01 -0.21312026264E+03  0.25612031585E+03  0.80419002446E+02 0. -1.
          1    1    1    2  501    0 -0.13592386740E+03 -0.11013036042E+02 -0.87637916418E+02  0.16210178619E+03  0.00000000000E+00 0. -1.
         -2    1    1    2    0  502  0.19196470385E+02  0.20225455813E+02  0.20434168262E+02  0.34570634513E+02  0.00000000000E+00 0.  1.
<mgrwt>
<rscale>  2 0.15315069E+03</rscale>
<asrwt>0</asrwt>
<pdfrwt beam="1">  1       21 0.13266825E-01 0.15315069E+03</pdfrwt>
<pdfrwt beam="2">  1       21 0.56393597E-01 0.15315069E+03</pdfrwt>
<totfact> 0.14689932E+05</totfact>
</mgrwt>
</event>
<event>
 5    1  0.1745726E+000  0.1133816E+03  0.7546771E-02  0.1254433E+00
         21   -1    0    0  501  502  0.00000000000E+00  0.00000000000E+00  0.22617858250E+02  0.22617858250E+02  0.00000000000E+00 0. -1.
         21   -1    0    0  502  503 -0.00000000000E+00 -0.00000000000E+00 -0.13390986056E+04  0.13390986056E+04  0.00000000000E+00 0.  1.
         24    1    1    2    0    0 -0.27037730321E+02  0.66850285967E+02 -0.49799243660E+03  0.50957205816E+03  0.80419002446E+02 0.  1.
          1    1    1    2  501    0 -0.16732973535E+01  0.23698084427E+02  0.40838896400E+01  0.24105544676E+02  0.00000000000E+00 0. -1.
         -2    1    1    2    0  503  0.28711027674E+02 -0.90548370393E+02 -0.82257220039E+03  0.82803886102E+03  0.00000000000E+00 0.  1.
<mgrwt>
<rscale>  2 0.11338159E+03</rscale>
<asrwt>0</asrwt>
<pdfrwt beam="1">  1       21 0.34796704E-02 0.11338159E+03</pdfrwt>
<pdfrwt beam="2">  1       21 0.20601518E+00 0.11338159E+03</pdfrwt>
<totfact> 0.64424106E+04</totfact>
</mgrwt>
</event>
<event>
 5    1  0.1745726E+000  0.1252974E+03  0.7546771E-02  0.1234605E+00
         21   -1    0    0  501  502  0.00000000000E+00  0.00000000000E+00  0.10830644403E+03  0.10830644403E+03  0.00000000000E+00 0.  1.
         21   -1    0    0  502  503 -0.00000000000E+00 -0.00000000000E+00 -0.21748129996E+03  0.21748129996E+03  0.00000000000E+00 0. -1.
         24    1    1    2    0    0 -0.94261829216E+01  0.91460705704E+01  0.24629820644E+02  0.85125481207E+02  0.80419002446E+02 0.  1.
          1    1    1    2  501    0 -0.78009400365E+02  0.12576953175E+02  0.40436674866E+00  0.79017781600E+02  0.00000000000E+00 0. -1.
         -2    1    1    2    0  503  0.87435583287E+02 -0.21723023745E+02 -0.13420904333E+03  0.16164448118E+03  0.00000000000E+00 0.  1.
<mgrwt>
<rscale>  2 0.12529745E+03</rscale>
<asrwt>0</asrwt>
<pdfrwt beam="1">  1       21 0.16662530E-01 0.12529745E+03</pdfrwt>
<pdfrwt beam="2">  1       21 0.33458661E-01 0.12529745E+03</pdfrwt>
<totfact> 0.28256351E+05</totfact>
</mgrwt>
</event>
<event>
 5    1  0.1745726E+000  0.8649347E+02  0.7546771E-02  0.1311573E+00
         21   -1    0    0  501  502  0.00000000000E+00  0.00000000000E+00  0.13374942887E+04  0.13374942887E+04  0.00000000000E+00 0. -1.
         21   -1    0    0  502  503 -0.00000000000E+00 -0.00000000000E+00 -0.56026602949E+01  0.56026602949E+01  0.00000000000E+00 0.  1.
         24    1    1    2    0    0  0.64777762010E+01 -0.16718022526E+02  0.65765604261E+03  0.66279720896E+03  0.80419002446E+02 0. -1.
          1    1    1    2  501    0  0.41189318626E+02  0.48711783957E+01  0.31854459334E+03  0.32123347630E+03  0.00000000000E+00 0. -1.
         -2    1    1    2    0  503 -0.47667094827E+02  0.11846844130E+02  0.35569099246E+03  0.35906626375E+03  0.00000000000E+00 0.  1.
<mgrwt>
<rscale>  2 0.86493473E+02</rscale>
<asrwt>0</asrwt>
<pdfrwt beam="1">  1       21 0.20576810E+00 0.86493473E+02</pdfrwt>
<pdfrwt beam="2">  1       21 0.86194881E-03 0.86493473E+02</pdfrwt>
<totfact> 0.61197442E+05</totfact>
</mgrwt>
</event>
<event>
 5    1  0.1779708E+000  0.7482560E+02  0.7546771E-02  0.1344412E+00
         21   -1    0    0  501  502  0.00000000000E+00  0.00000000000E+00  0.40232709482E+02  0.40232709482E+02  0.00000000000E+00 0. -1.
         21   -1    0    0  502  503 -0.00000000000E+00 -0.00000000000E+00 -0.12026546635E+04  0.12026546635E+04  0.00000000000E+00 0.  1.
         24    1    1    2    0    0  0.48588012298E+01  0.27007047354E+01 -0.11875898676E+03  0.14353332243E+03  0.80419002446E+02 0.  0.
          1    1    1    2  501    0 -0.98901856537E+01  0.32248376667E+02  0.17227883933E+02  0.37875764741E+02  0.00000000000E+00 0. -1.
         -2    1    1    2    0  503  0.50313844239E+01 -0.34949081403E+02 -0.10608908512E+04  0.10614782858E+04  0.00000000000E+00 0.  1.
<mgrwt>
<rscale>  2 0.74825597E+02</rscale>
<asrwt>0</asrwt>
<pdfrwt beam="1">  1       21 0.61896471E-02 0.74825597E+02</pdfrwt>
<pdfrwt beam="2">  1       21 0.18502381E+00 0.74825597E+02</pdfrwt>
<totfact> 0.34984721E+04</totfact>
</mgrwt>
</event>
<event>
 5    1  0.1745726E+000  0.9515150E+02  0.7546771E-02  0.1290835E+00
         21   -1    0    0  501  502  0.00000000000E+00  0.00000000000E+00  0.92297121019E+01  0.92297121019E+01  0.00000000000E+00 0. -1.
         21   -1    0    0  502  503 -0.00000000000E+00 -0.00000000000E+00 -0.11028736148E+04  0.11028736148E+04  0.00000000000E+00 0.  1.
         24    1    1    2    0    0 -0.45668061422E+02 -0.94784702631E+01 -0.37691582217E+03  0.38821149672E+03  0.80419002446E+02 0. -1.
          1    1    1    2  501    0  0.56876790339E+02 -0.24223465005E+02 -0.34719053231E+03  0.35265140190E+03  0.00000000000E+00 0. -1.
         -2    1    1    2    0  503 -0.11208728917E+02  0.33701935269E+02 -0.36953754824E+03  0.37124042830E+03  0.00000000000E+00 0.  1.
<mgrwt>
<rscale>  2 0.95151496E+02</rscale>
<asrwt>0</asrwt>
<pdfrwt beam="1">  1       21 0.14199562E-02 0.95151496E+02</pdfrwt>
<pdfrwt beam="2">  1       21 0.16967281E+00 0.95151496E+02</pdfrwt>
<totfact> 0.47461055E+05</totfact>
</mgrwt>
</event>
<event>
 5    1  0.1745726E+000  0.7518651E+02  0.7546771E-02  0.1343294E+00
         21   -1    0    0  501  502  0.00000000000E+00  0.00000000000E+00  0.42720509314E+02  0.42720509314E+02  0.00000000000E+00 0. -1.
         21   -1    0    0  502  503 -0.00000000000E+00 -0.00000000000E+00 -0.64007491821E+03  0.64007491821E+03  0.00000000000E+00 0.  1.
         24    1    1    2    0    0  0.49151269180E+01 -0.92788688434E+01 -0.20854684006E+03  0.22376160603E+03  0.80419002446E+02 0.  0.
          1    1    1    2  501    0  0.23587931564E+02  0.26887619349E+02  0.25148645925E+02  0.43724009213E+02  0.00000000000E+00 0. -1.
         -2    1    1    2    0  503 -0.28503058482E+02 -0.17608750506E+02 -0.41395621477E+03  0.41530981229E+03  0.00000000000E+00 0.  1.
<mgrwt>
<rscale>  2 0.75186510E+02</rscale>
<asrwt>0</asrwt>
<pdfrwt beam="1">  1       21 0.65723864E-02 0.75186510E+02</pdfrwt>
<pdfrwt beam="2">  1       21 0.98473059E-01 0.75186510E+02</pdfrwt>
<totfact> 0.15045705E+05</totfact>
</mgrwt>
</event>
<event>
 5    1  0.1745726E+000  0.1237631E+03  0.7546771E-02  0.1237015E+00
         21   -1    0    0  503  502  0.00000000000E+00  0.00000000000E+00  0.12618534105E+03  0.12618534105E+03  0.00000000000E+00 0. -1.
         21   -1    0    0  501  503 -0.00000000000E+00 -0.00000000000E+00 -0.13887849151E+03  0.13887849151E+03  0.00000000000E+00 0. -1.
         24    1    1    2    0    0  0.56353980065E+02  0.77958072292E+02 -0.53043742710E+02  0.13613995262E+03  0.80419002446E+02 0. -1.
          1    1    1    2  501    0 -0.31024474501E+02 -0.89193779718E+02  0.27350998230E+02  0.98316455706E+02  0.00000000000E+00 0. -1.
         -2    1    1    2    0  502 -0.25329505565E+02  0.11235707425E+02  0.12999594016E+02  0.30607424231E+02  0.00000000000E+00 0.  1.
<mgrwt>
<rscale>  2 0.12376314E+03</rscale>
<asrwt>0</asrwt>
<pdfrwt beam="1">  1       21 0.19413129E-01 0.12376314E+03</pdfrwt>
<pdfrwt beam="2">  1       21 0.21365922E-01 0.12376314E+03</pdfrwt>
<totfact> 0.50180359E+05</totfact>
</mgrwt>
</event>
<event>
 5    1  0.1745726E+000  0.6741015E+02  0.7546771E-02  0.1369128E+00
         21   -1    0    0  501  502  0.00000000000E+00  0.00000000000E+00  0.91395275098E+02  0.91395275098E+02  0.00000000000E+00 0. -1.
         21   -1    0    0  502  503 -0.00000000000E+00 -0.00000000000E+00 -0.28820360249E+03  0.28820360249E+03  0.00000000000E+00 0. -1.
         24    1    1    2    0    0 -0.71591625419E+00  0.10991500401E+02 -0.96140946891E+02  0.12582377852E+03  0.80419002446E+02 0. -1.
          1    1    1    2  501    0  0.26008915797E+02  0.15718623940E+00  0.73221117077E+02  0.77703413017E+02  0.00000000000E+00 0. -1.
         -2    1    1    2    0  503 -0.25292999543E+02 -0.11148686640E+02 -0.17388849757E+03  0.17607168605E+03  0.00000000000E+00 0.  1.
<mgrwt>
<rscale>  2 0.67410149E+02</rscale>
<asrwt>0</asrwt>
<pdfrwt beam="1">  1       21 0.14060812E-01 0.67410149E+02</pdfrwt>
<pdfrwt beam="2">  1       21 0.44339015E-01 0.67410149E+02</pdfrwt>
<totfact> 0.22273090E+05</totfact>
</mgrwt>
</event>
<event>
 5    1  0.1745726E+000  0.8372243E+02  0.7546771E-02  0.1318808E+00
         21   -1    0    0  501  502  0.00000000000E+00  0.00000000000E+00  0.76293360620E+02  0.76293360620E+02  0.00000000000E+00 0. -1.
         21   -1    0    0  502  503 -0.00000000000E+00 -0.00000000000E+00 -0.24421407905E+03  0.24421407905E+03  0.00000000000E+00 0. -1.
         24    1    1    2    0    0 -0.27621686156E+02 -0.23937744163E+02 -0.13896208875E+03  0.16466223370E+03  0.80419002446E+02 0. -1.
          1    1    1    2  501    0 -0.18464347550E+01  0.43628627650E+02  0.51741421776E+02  0.67705547774E+02  0.00000000000E+00 0. -1.
         -2    1    1    2    0  503  0.29468120911E+02 -0.19690883487E+02 -0.80700051460E+02  0.88139658203E+02  0.00000000000E+00 0.  1.
<mgrwt>
<rscale>  2 0.83722430E+02</rscale>
<asrwt>0</asrwt>
<pdfrwt beam="1">  1       21 0.11737440E-01 0.83722430E+02</pdfrwt>
<pdfrwt beam="2">  1       21 0.37571397E-01 0.83722430E+02</pdfrwt>
<totfact> 0.42301354E+05</totfact>
</mgrwt>
</event>
<event>
 5    1  0.1813707E+000  0.8073483E+02  0.7546771E-02  0.1326979E+00
         21   -1    0    0  501  502  0.00000000000E+00  0.00000000000E+00  0.10791413240E+03  0.10791413240E+03  0.00000000000E+00 0. -1.
         21   -1    0    0  502  503 -0.00000000000E+00 -0.00000000000E+00 -0.31392020710E+03  0.31392020710E+03  0.00000000000E+00 0.  1.
         24    1    1    2    0    0  0.14012928653E+01  0.47246557427E+01  0.82458982366E+01  0.80990720368E+02  0.80419002446E+02 0.  0.
          1    1    1    2  501    0  0.27138862475E+02 -0.31629890280E+02  0.54855988196E+02  0.68892287352E+02  0.00000000000E+00 0. -1.
         -2    1    1    2    0  503 -0.28540155341E+02  0.26905234538E+02 -0.26910796113E+03  0.27195133178E+03  0.00000000000E+00 0.  1.
<mgrwt>
<rscale>  2 0.80734828E+02</rscale>
<asrwt>0</asrwt>
<pdfrwt beam="1">  1       21 0.16602175E-01 0.80734828E+02</pdfrwt>
<pdfrwt beam="2">  1       21 0.48295416E-01 0.80734828E+02</pdfrwt>
<totfact> 0.13898029E+05</totfact>
</mgrwt>
</event>
<event>
 5    1  0.1745726E+000  0.9627880E+02  0.7546771E-02  0.1288322E+00
         21   -1    0    0  503  502  0.00000000000E+00  0.00000000000E+00  0.83283163333E+01  0.83283163333E+01  0.00000000000E+00 0. -1.
         21   -1    0    0  501  503 -0.00000000000E+00 -0.00000000000E+00 -0.16929207403E+04  0.16929207403E+04  0.00000000000E+00 0. -1.
         24    1    1    2    0    0  0.25116277897E+02 -0.23462019966E+02 -0.30287075648E+03  0.31524467462E+03  0.80419002446E+02 0. -1.
          1    1    1    2  501    0 -0.21187663893E+02 -0.38003595777E+02 -0.75841487573E+03  0.75966197359E+03  0.00000000000E+00 0. -1.
         -2    1    1    2    0  502 -0.39286140039E+01  0.61465615743E+02 -0.62330679178E+03  0.62634240843E+03  0.00000000000E+00 0.  1.
<mgrwt>
<rscale>  2 0.96278802E+02</rscale>
<asrwt>0</asrwt>
<pdfrwt beam="1">  1       21 0.12812805E-02 0.96278802E+02</pdfrwt>
<pdfrwt beam="2">  1       21 0.26044913E+00 0.96278802E+02</pdfrwt>
<totfact> 0.15799513E+05</totfact>
</mgrwt>
</event>
<event>
 5    1  0.1745726E+000  0.9316495E+02  0.7546771E-02  0.1295363E+00
         21   -1    0    0  503  502  0.00000000000E+00  0.00000000000E+00  0.13348823995E+03  0.13348823995E+03  0.00000000000E+00 0.  1.
         21   -1    0    0  501  503 -0.00000000000E+00 -0.00000000000E+00 -0.14568250043E+03  0.14568250043E+03  0.00000000000E+00 0. -1.
         24    1    1    2    0    0 -0.24060773252E+02 -0.72344032354E+01  0.94790259435E+02  0.12682139661E+03  0.80419002446E+02 0.  1.
          1    1    1    2  501    0  0.56601091151E+02  0.28332255597E+02 -0.89958531972E+02  0.10999517126E+03  0.00000000000E+00 0. -1.
         -2    1    1    2    0  502 -0.32540317899E+02 -0.21097852361E+02 -0.17025987947E+02  0.42354172508E+02  0.00000000000E+00 0.  1.
<mgrwt>
<rscale>  2 0.93164950E+02</rscale>
<asrwt>0</asrwt>
<pdfrwt beam="1">  1       21 0.20536652E-01 0.93164950E+02</pdfrwt>
<pdfrwt beam="2">  1       21 0.22412692E-01 0.93164950E+02</pdfrwt>
<totfact> 0.41495881E+05</totfact>
</mgrwt>
</event>
<event>
 5    1  0.1745726E+000  0.7495133E+02  0.7546771E-02  0.1344022E+00
         21   -1    0    0  501  502  0.00000000000E+00  0.00000000000E+00  0.22347232986E+02  0.22347232986E+02  0.00000000000E+00 0. -1.
         21   -1    0    0  502  503 -0.00000000000E+00 -0.00000000000E+00 -0.25250720581E+03  0.25250720581E+03  0.00000000000E+00 0.  1.
         24    1    1    2    0    0 -0.16372605138E+02 -0.57861218298E+01 -0.11718733683E+03  0.14318390019E+03  0.80419002446E+02 0.  0.
          1    1    1    2  501    0  0.13307877212E+02  0.35420401002E+02 -0.63868050373E+02  0.74234980040E+02  0.00000000000E+00 0. -1.
         -2    1    1    2    0  503  0.30647279261E+01 -0.29634279173E+02 -0.49104585619E+02  0.57435558569E+02  0.00000000000E+00 0.  1.
<mgrwt>
<rscale>  2 0.74951330E+02</rscale>
<asrwt>0</asrwt>
<pdfrwt beam="1">  1       21 0.34380358E-02 0.74951330E+02</pdfrwt>
<pdfrwt beam="2">  1       21 0.38847263E-01 0.74951330E+02</pdfrwt>
<totfact> 0.31169637E+06</totfact>
</mgrwt>
</event>
<event>
 5    1  0.1745726E+000  0.1123525E+03  0.7546771E-02  0.1256274E+00
         21   -1    0    0  503  502  0.00000000000E+00  0.00000000000E+00  0.21618113216E+03  0.21618113216E+03  0.00000000000E+00 0.  1.
         21   -1    0    0  501  503 -0.00000000000E+00 -0.00000000000E+00 -0.77524650542E+02  0.77524650542E+02  0.00000000000E+00 0. -1.
         24    1    1    2    0    0  0.85864229445E+02  0.11047905040E+01  0.14265987622E+03  0.18491333834E+03  0.80419002446E+02 0.  1.
          1    1    1    2  501    0 -0.51687028598E+02  0.30912175912E+02 -0.11647365884E+02  0.61341443388E+02  0.00000000000E+00 0. -1.
         -2    1    1    2    0  502 -0.34177200848E+02 -0.32016966416E+02  0.76439712848E+01  0.47451000972E+02  0.00000000000E+00 0.  1.
<mgrwt>
<rscale>  2 0.11235249E+03</rscale>
<asrwt>0</asrwt>
<pdfrwt beam="1">  1       21 0.33258635E-01 0.11235249E+03</pdfrwt>
<pdfrwt beam="2">  1       21 0.11926869E-01 0.11235249E+03</pdfrwt>
<totfact> 0.52104412E+05</totfact>
</mgrwt>
</event>
<event>
 5    1  0.1745726E+000  0.8689369E+02  0.7546771E-02  0.1310553E+00
         21   -1    0    0  501  502  0.00000000000E+00  0.00000000000E+00  0.26207865926E+02  0.26207865926E+02  0.00000000000E+00 0.  1.
         21   -1    0    0  502  503 -0.00000000000E+00 -0.00000000000E+00 -0.11667295341E+04  0.11667295341E+04  0.00000000000E+00 0.  1.
         24    1    1    2    0    0  0.67391091441E+01 -0.50898547691E+02 -0.10500284289E+03  0.14187632191E+03  0.80419002446E+02 0.  1.
          1    1    1    2  501    0  0.21265086742E+02  0.11609673862E+01 -0.92711595956E+01  0.23227271894E+02  0.00000000000E+00 0. -1.
         -2    1    1    2    0  503 -0.28004195886E+02  0.49737580305E+02 -0.10262476657E+04  0.10278338062E+04  0.00000000000E+00 0.  1.
<mgrwt>
<rscale>  2 0.86893686E+02</rscale>
<asrwt>0</asrwt>
<pdfrwt beam="1">  1       21 0.40319786E-02 0.86893686E+02</pdfrwt>
<pdfrwt beam="2">  1       21 0.17949688E+00 0.86893686E+02</pdfrwt>
<totfact> 0.76276574E+04</totfact>
</mgrwt>
</event>
<event>
 5    1  0.1745726E+000  0.6783909E+02  0.7546771E-02  0.1367599E+00
         21   -1    0    0  503  502  0.00000000000E+00  0.00000000000E+00  0.66883466967E+01  0.66883466967E+01  0.00000000000E+00 0. -1.
         21   -1    0    0  501  503 -0.00000000000E+00 -0.00000000000E+00 -0.83124003954E+03  0.83124003954E+03  0.00000000000E+00 0.  1.
         24    1    1    2    0    0  0.17293766775E+02  0.63096972529E+01 -0.38135416804E+03  0.39017573488E+03  0.80419002446E+02 0. -1.
          1    1    1    2  501    0 -0.10939215983E+02  0.21783606322E+02 -0.33171410191E+03  0.33260853470E+03  0.00000000000E+00 0. -1.
         -2    1    1    2    0  502 -0.63545507929E+01 -0.28093303575E+02 -0.11148342289E+03  0.11514411666E+03  0.00000000000E+00 0.  1.
<mgrwt>
<rscale>  2 0.67839090E+02</rscale>
<asrwt>0</asrwt>
<pdfrwt beam="1">  1       21 0.10289771E-02 0.67839090E+02</pdfrwt>
<pdfrwt beam="2">  1       21 0.12788300E+00 0.67839090E+02</pdfrwt>
<totfact> 0.16106015E+06</totfact>
</mgrwt>
</event>
<event>
 5    1  0.1745726E+000  0.8800729E+02  0.7546771E-02  0.1307750E+00
         21   -1    0    0  501  502  0.00000000000E+00  0.00000000000E+00  0.60142470202E+02  0.60142470202E+02  0.00000000000E+00 0.  1.
         21   -1    0    0  502  503 -0.00000000000E+00 -0.00000000000E+00 -0.15074225573E+03  0.15074225573E+03  0.00000000000E+00 0. -1.
         24    1    1    2    0    0 -0.64672037785E+01 -0.10964241409E+02 -0.22863969503E+01  0.81452335017E+02  0.80419002446E+02 0.  0.
          1    1    1    2  501    0 -0.37071457289E+02  0.29398951496E+02 -0.42582746446E+02  0.63654391754E+02  0.00000000000E+00 0. -1.
         -2    1    1    2    0  503  0.43538661068E+02 -0.18434710087E+02 -0.45730642127E+02  0.65777999156E+02  0.00000000000E+00 0.  1.
<mgrwt>
<rscale>  2 0.88007288E+02</rscale>
<asrwt>0</asrwt>
<pdfrwt beam="1">  1       21 0.92526877E-02 0.88007288E+02</pdfrwt>
<pdfrwt beam="2">  1       21 0.23191116E-01 0.88007288E+02</pdfrwt>
<totfact> 0.16030775E+06</totfact>
</mgrwt>
</event>
<event>
 5    1  0.1745726E+000  0.7008188E+02  0.7546771E-02  0.1359815E+00
         21   -1    0    0  503  502  0.00000000000E+00  0.00000000000E+00  0.51483895414E+02  0.51483895414E+02  0.00000000000E+00 0.  1.
         21   -1    0    0  501  503 -0.00000000000E+00 -0.00000000000E+00 -0.29631232014E+03  0.29631232014E+03  0.00000000000E+00 0.  1.
         24    1    1    2    0    0  0.36318162288E+02  0.29670256958E+02 -0.11549181389E+03  0.14834051399E+03  0.80419002446E+02 0.  1.
          1    1    1    2  501    0 -0.18403630207E+02 -0.17624608023E+02 -0.15996620328E+03  0.16198304419E+03  0.00000000000E+00 0. -1.
         -2    1    1    2    0  502 -0.17914532081E+02 -0.12045648935E+02  0.30629592443E+02  0.37472657380E+02  0.00000000000E+00 0.  1.
<mgrwt>
<rscale>  2 0.70081876E+02</rscale>
<asrwt>0</asrwt>
<pdfrwt beam="1">  1       21 0.79205994E-02 0.70081876E+02</pdfrwt>
<pdfrwt beam="2">  1       21 0.45586510E-01 0.70081876E+02</pdfrwt>
<totfact> 0.56745924E+05</totfact>
</mgrwt>
</event>
<event>
 5    1  0.1745726E+000  0.1128199E+03  0.7546771E-02  0.1255435E+00
         21   -1    0    0  501  502  0.00000000000E+00  0.00000000000E+00  0.91391654448E+02  0.91391654448E+02  0.00000000000E+00 0. -1.
         21   -1    0    0  502  503 -0.00000000000E+00 -0.00000000000E+00 -0.31103115273E+03  0.31103115273E+03  0.00000000000E+00 0.  1.
         24    1    1    2    0    0  0.79500813755E+02  0.55665857451E+02 -0.26455847760E+03  0.29304858146E+03  0.80419002446E+02 0.  1.
          1    1    1    2  501    0 -0.64264946804E+02 -0.32877611212E+02  0.30078760918E+02  0.78202637840E+02  0.00000000000E+00 0. -1.
         -2    1    1    2    0  503 -0.15235866951E+02 -0.22788246239E+02  0.14840218400E+02  0.31171587874E+02  0.00000000000E+00 0.  1.
<mgrwt>
<rscale>  2 0.11281992E+03</rscale>
<asrwt>0</asrwt>
<pdfrwt beam="1">  1       21 0.14060254E-01 0.11281992E+03</pdfrwt>
<pdfrwt beam="2">  1       21 0.47850947E-01 0.11281992E+03</pdfrwt>
<totfact> 0.18849124E+05</totfact>
</mgrwt>
</event>
<event>
 5    1  0.1745726E+000  0.1070074E+03  0.7546771E-02  0.1266214E+00
         21   -1    0    0  501  502  0.00000000000E+00  0.00000000000E+00  0.33385354556E+03  0.33385354556E+03  0.00000000000E+00 0. -1.
         21   -1    0    0  502  503 -0.00000000000E+00 -0.00000000000E+00 -0.50460699220E+02  0.50460699220E+02  0.00000000000E+00 0.  1.
         24    1    1    2    0    0  0.13630988755E+02 -0.43726765234E+02  0.16696919430E+03  0.19090249252E+03  0.80419002446E+02 0. -1.
          1    1    1    2  501    0  0.41727024800E+02  0.50709699047E+02  0.12074488915E+03  0.13744797719E+03  0.00000000000E+00 0. -1.
         -2    1    1    2    0  503 -0.55358013556E+02 -0.69829338137E+01 -0.43212371158E+01  0.55963775067E+02  0.00000000000E+00 0.  1.
<mgrwt>
<rscale>  2 0.10700739E+03</rscale>
<asrwt>0</asrwt>
<pdfrwt beam="1">  1       21 0.51362083E-01 0.10700739E+03</pdfrwt>
<pdfrwt beam="2">  1       21 0.77631847E-02 0.10700739E+03</pdfrwt>
<totfact> 0.46090789E+05</totfact>
</mgrwt>
</event>
<event>
 5    1  0.1745726E+000  0.7712424E+02  0.7546771E-02  0.1337416E+00
         21   -1    0    0  501  502  0.00000000000E+00  0.00000000000E+00  0.14354265500E+02  0.14354265500E+02  0.00000000000E+00 0. -1.
         21   -1    0    0  502  503 -0.00000000000E+00 -0.00000000000E+00 -0.19498327036E+04  0.19498327036E+04  0.00000000000E+00 0.  1.
         24    1    1    2    0    0  0.24451082399E+02  0.23674577132E+02 -0.16989555546E+04  0.17011982640E+04  0.80419002446E+02 0.  1.
          1    1    1    2  501    0  0.18181144000E+02 -0.14645441644E+02 -0.89323090808E+00  0.23363236495E+02  0.00000000000E+00 0. -1.
         -2    1    1    2    0  503 -0.42632226399E+02 -0.90291354881E+01 -0.23562965259E+03  0.23962546858E+03  0.00000000000E+00 0.  1.
<mgrwt>
<rscale>  2 0.77124237E+02</rscale>
<asrwt>0</asrwt>
<pdfrwt beam="1">  1       21 0.22083495E-02 0.77124237E+02</pdfrwt>
<pdfrwt beam="2">  1       21 0.29997413E+00 0.77124237E+02</pdfrwt>
<totfact> 0.41654444E+04</totfact>
</mgrwt>
</event>
<event>
 5    1  0.1745726E+000  0.7646218E+02  0.7546771E-02  0.1339402E+00
         21   -1    0    0  501  502  0.00000000000E+00  0.00000000000E+00  0.84504202495E+03  0.84504202495E+03  0.00000000000E+00 0.  1.
         21   -1    0    0  502  503 -0.00000000000E+00 -0.00000000000E+00 -0.13070090411E+02  0.13070090411E+02  0.00000000000E+00 0.  1.
         24    1    1    2    0    0  0.27585306333E+02 -0.23180553727E+02  0.64541043628E+03  0.65139859871E+03  0.80419002446E+02 0.  1.
          1    1    1    2  501    0  0.15287741778E+02  0.14477071449E+02  0.14449926773E+03  0.14602513147E+03  0.00000000000E+00 0. -1.
         -2    1    1    2    0  503 -0.42873048111E+02  0.87034822781E+01  0.42062230533E+02  0.60688385178E+02  0.00000000000E+00 0.  1.
<mgrwt>
<rscale>  2 0.76462178E+02</rscale>
<asrwt>0</asrwt>
<pdfrwt beam="1">  1       21 0.13000642E+00 0.76462178E+02</pdfrwt>
<pdfrwt beam="2">  1       21 0.20107838E-02 0.76462178E+02</pdfrwt>
<totfact> 0.54004533E+05</totfact>
</mgrwt>
</event>
<event>
 5    1  0.1745726E+000  0.9769323E+02  0.7546771E-02  0.1285223E+00
         21   -1    0    0  501  502  0.00000000000E+00  0.00000000000E+00  0.13372026810E+03  0.13372026810E+03  0.00000000000E+00 0.  1.
         21   -1    0    0  502  503 -0.00000000000E+00 -0.00000000000E+00 -0.77824799810E+02  0.77824799810E+02  0.00000000000E+00 0. -1.
         24    1    1    2    0    0  0.32281600108E+02  0.31260632338E+02  0.43744116496E+02  0.10198084390E+03  0.80419002446E+02 0.  1.
          1    1    1    2  501    0 -0.48143941596E+02  0.18087214415E+02  0.23432744915E+02  0.56516192122E+02  0.00000000000E+00 0. -1.
         -2    1    1    2    0  503  0.15862341488E+02 -0.49347846753E+02 -0.11281393122E+02  0.53048031890E+02  0.00000000000E+00 0.  1.
<mgrwt>
<rscale>  2 0.97693229E+02</rscale>
<asrwt>0</asrwt>
<pdfrwt beam="1">  1       21 0.20572349E-01 0.97693229E+02</pdfrwt>
<pdfrwt beam="2">  1       21 0.11973046E-01 0.97693229E+02</pdfrwt>
<totfact> 0.12810995E+06</totfact>
</mgrwt>
</event>
<event>
 5    1  0.1745726E+000  0.1100755E+03  0.7546771E-02  0.1260430E+00
         21   -1    0    0  503  502  0.00000000000E+00  0.00000000000E+00  0.59519938576E+03  0.59519938576E+03  0.00000000000E+00 0. -1.
         21   -1    0    0  501  503 -0.00000000000E+00 -0.00000000000E+00 -0.25519334476E+02  0.25519334476E+02  0.00000000000E+00 0. -1.
         24    1    1    2    0    0 -0.30951063668E+02  0.78160722387E+02  0.34165093176E+03  0.36091500660E+03  0.80419002446E+02 0. -1.
          1    1    1    2  501    0  0.46912300560E+02 -0.37258719971E+02  0.55121058002E+02  0.81408274720E+02  0.00000000000E+00 0. -1.
         -2    1    1    2    0  502 -0.15961236892E+02 -0.40902002417E+02  0.17290806152E+03  0.17839543891E+03  0.00000000000E+00 0.  1.
<mgrwt>
<rscale>  2 0.11007549E+03</rscale>
<asrwt>0</asrwt>
<pdfrwt beam="1">  1       21 0.91569126E-01 0.11007549E+03</pdfrwt>
<pdfrwt beam="2">  1       21 0.39260519E-02 0.11007549E+03</pdfrwt>
<totfact> 0.41474389E+05</totfact>
</mgrwt>
</event>
<event>
 5    1  0.1745726E+000  0.7680381E+02  0.7546771E-02  0.1338374E+00
         21   -1    0    0  503  502  0.00000000000E+00  0.00000000000E+00  0.43415817314E+02  0.43415817314E+02  0.00000000000E+00 0. -1.
         21   -1    0    0  501  503 -0.00000000000E+00 -0.00000000000E+00 -0.19240486643E+03  0.19240486643E+03  0.00000000000E+00 0. -1.
         24    1    1    2    0    0 -0.40852193872E+02  0.29485529104E+02 -0.11185855073E+03  0.14668963664E+03  0.80419002446E+02 0. -1.
          1    1    1    2  501    0  0.30682127603E+02 -0.35927315767E+01 -0.49768437050E+02  0.58576428713E+02  0.00000000000E+00 0. -1.
         -2    1    1    2    0  502  0.10170066269E+02 -0.25892797528E+02  0.12637938661E+02  0.30554618396E+02  0.00000000000E+00 0.  1.
<mgrwt>
<rscale>  2 0.76803807E+02</rscale>
<asrwt>0</asrwt>
<pdfrwt beam="1">  1       21 0.66793566E-02 0.76803807E+02</pdfrwt>
<pdfrwt beam="2">  1       21 0.29600748E-01 0.76803807E+02</pdfrwt>
<totfact> 0.17574697E+06</totfact>
</mgrwt>
</event>
<event>
 5    1  0.1745726E+000  0.8117282E+02  0.7546771E-02  0.1325756E+00
         21   -1    0    0  501  502  0.00000000000E+00  0.00000000000E+00  0.42103420611E+03  0.42103420611E+03  0.00000000000E+00 0. -1.
         21   -1    0    0  502  503 -0.00000000000E+00 -0.00000000000E+00 -0.29624606069E+02  0.29624606069E+02  0.00000000000E+00 0.  1.
         24    1    1    2    0    0  0.77523517988E+01  0.10639396724E+02  0.75460354879E+02  0.11106204047E+03  0.80419002446E+02 0. -1.
          1    1    1    2  501    0 -0.23985237337E+02 -0.40384416893E+02  0.29716163132E+03  0.30085083990E+03  0.00000000000E+00 0. -1.
         -2    1    1    2    0  503  0.16232885539E+02  0.29745020168E+02  0.18787613839E+02  0.38745931805E+02  0.00000000000E+00 0.  1.
<mgrwt>
<rscale>  2 0.81172817E+02</rscale>
<asrwt>0</asrwt>
<pdfrwt beam="1">  1       21 0.64774489E-01 0.81172817E+02</pdfrwt>
<pdfrwt beam="2">  1       21 0.45576320E-02 0.81172817E+02</pdfrwt>
<totfact> 0.69499657E+05</totfact>
</mgrwt>
</event>
<event>
 5    1  0.1745726E+000  0.8846095E+02  0.7546771E-02  0.1306622E+00
         21   -1    0    0  503  502  0.00000000000E+00  0.00000000000E+00  0.14306325340E+04  0.14306325340E+04  0.00000000000E+00 0. -1.
         21   -1    0    0  501  503 -0.00000000000E+00 -0.00000000000E+00 -0.63604613890E+01  0.63604613890E+01  0.00000000000E+00 0. -1.
         24    1    1    2    0    0 -0.67259084936E+02  0.19541271924E+02  0.90849970932E+03  0.91473743970E+03  0.80419002446E+02 0. -1.
          1    1    1    2  501    0  0.46087364315E+02 -0.10568035295E+02  0.19463802764E+03  0.20029900230E+03  0.00000000000E+00 0. -1.
         -2    1    1    2    0  502  0.21171720621E+02 -0.89732366291E+01  0.32113433566E+03  0.32195655339E+03  0.00000000000E+00 0.  1.
<mgrwt>
<rscale>  2 0.88460955E+02</rscale>
<asrwt>0</asrwt>
<pdfrwt beam="1">  1       21 0.22009706E+00 0.88460955E+02</pdfrwt>
<pdfrwt beam="2">  1       21 0.97853366E-03 0.88460955E+02</pdfrwt>
<totfact> 0.41220364E+05</totfact>
</mgrwt>
</event>
<event>
 5    1  0.1745726E+000  0.9243049E+02  0.7546771E-02  0.1297070E+00
         21   -1    0    0  503  502  0.00000000000E+00  0.00000000000E+00  0.96136450116E+02  0.96136450116E+02  0.00000000000E+00 0.  1.
         21   -1    0    0  501  503 -0.00000000000E+00 -0.00000000000E+00 -0.15437433239E+03  0.15437433239E+03  0.00000000000E+00 0.  1.
         24    1    1    2    0    0 -0.42549019249E+02 -0.41767210737E+02 -0.79374395483E+02  0.12775926403E+03  0.80419002446E+02 0.  1.
          1    1    1    2  501    0  0.14261176301E+02 -0.15386586318E+02 -0.32997495371E+02  0.39101955051E+02  0.00000000000E+00 0. -1.
         -2    1    1    2    0  502  0.28287842948E+02  0.57153797055E+02  0.54134008582E+02  0.83649563427E+02  0.00000000000E+00 0.  1.
<mgrwt>
<rscale>  2 0.92430494E+02</rscale>
<asrwt>0</asrwt>
<pdfrwt beam="1">  1       21 0.14790223E-01 0.92430494E+02</pdfrwt>
<pdfrwt beam="2">  1       21 0.23749897E-01 0.92430494E+02</pdfrwt>
<totfact> 0.67490135E+05</totfact>
</mgrwt>
</event>
<event>
 5    1  0.1745726E+000  0.7175754E+02  0.7546771E-02  0.1354216E+00
         21   -1    0    0  503  502  0.00000000000E+00  0.00000000000E+00  0.67711822347E+02  0.67711822347E+02  0.00000000000E+00 0.  1.
         21   -1    0    0  501  503 -0.00000000000E+00 -0.00000000000E+00 -0.17491653649E+03  0.17491653649E+03  0.00000000000E+00 0.  1.
         24    1    1    2    0    0  0.23523223918E+02  0.39542318100E+02 -0.84778049284E+02  0.12558451568E+03  0.80419002446E+02 0.  1.
          1    1    1    2  501    0 -0.50052044816E+01 -0.29256326586E+02 -0.63909399012E+02  0.70465566054E+02  0.00000000000E+00 0. -1.
         -2    1    1    2    0  502 -0.18518019437E+02 -0.10285991514E+02  0.41482734151E+02  0.46578277103E+02  0.00000000000E+00 0.  1.
<mgrwt>
<rscale>  2 0.71757536E+02</rscale>
<asrwt>0</asrwt>
<pdfrwt beam="1">  1       21 0.10417204E-01 0.71757536E+02</pdfrwt>
<pdfrwt beam="2">  1       21 0.26910236E-01 0.71757536E+02</pdfrwt>
<totfact> 0.98419522E+05</totfact>
</mgrwt>
</event>
<event>
 5    1  0.1745726E+000  0.8105322E+02  0.7546771E-02  0.1326089E+00
         21   -1    0    0  501  502  0.00000000000E+00  0.00000000000E+00  0.84038609062E+03  0.84038609062E+03  0.00000000000E+00 0. -1.
         21   -1    0    0  502  503 -0.00000000000E+00 -0.00000000000E+00 -0.21237481957E+02  0.21237481957E+02  0.00000000000E+00 0. -1.
         24    1    1    2    0    0 -0.23104245120E+02  0.11842507534E+02  0.81657684648E+02  0.11751274205E+03  0.80419002446E+02 0. -1.
          1    1    1    2  501    0  0.45568864429E+02  0.95730898800E+01  0.64234948864E+03  0.64403496101E+03  0.00000000000E+00 0. -1.
         -2    1    1    2    0  503 -0.22464619309E+02 -0.21415597414E+02  0.95141435375E+02  0.10007586951E+03  0.00000000000E+00 0.  1.
<mgrwt>
<rscale>  2 0.81053223E+02</rscale>
<asrwt>0</asrwt>
<pdfrwt beam="1">  1       21 0.12929014E+00 0.81053223E+02</pdfrwt>
<pdfrwt beam="2">  1       21 0.32673056E-02 0.81053223E+02</pdfrwt>
<totfact> 0.25025407E+05</totfact>
</mgrwt>
</event>
<event>
 5    1  0.1745726E+000  0.6700877E+02  0.7546771E-02  0.1370571E+00
         21   -1    0    0  501  502  0.00000000000E+00  0.00000000000E+00  0.13567753155E+03  0.13567753155E+03  0.00000000000E+00 0. -1.
         21   -1    0    0  502  503 -0.00000000000E+00 -0.00000000000E+00 -0.11671105573E+03  0.11671105573E+03  0.00000000000E+00 0.  1.
         24    1    1    2    0    0  0.20573388455E+02  0.21058846999E+02 -0.16706482036E+02  0.87252861534E+02  0.80419002446E+02 0. -1.
          1    1    1    2  501    0  0.37115390862E+01 -0.23665346754E+02  0.96583976919E+02  0.99510244482E+02  0.00000000000E+00 0. -1.
         -2    1    1    2    0  503 -0.24284927542E+02  0.26064997545E+01 -0.60911019069E+02  0.65625481261E+02  0.00000000000E+00 0.  1.
<mgrwt>
<rscale>  2 0.67008774E+02</rscale>
<asrwt>0</asrwt>
<pdfrwt beam="1">  1       21 0.20873466E-01 0.67008774E+02</pdfrwt>
<pdfrwt beam="2">  1       21 0.17955547E-01 0.67008774E+02</pdfrwt>
<totfact> 0.60278102E+05</totfact>
</mgrwt>
</event>
<event>
 5    1  0.1745726E+000  0.7239966E+02  0.7546771E-02  0.1352118E+00
         21   -1    0    0  501  502  0.00000000000E+00  0.00000000000E+00  0.85472441149E+02  0.85472441149E+02  0.00000000000E+00 0. -1.
         21   -1    0    0  502  503 -0.00000000000E+00 -0.00000000000E+00 -0.13893812538E+03  0.13893812538E+03  0.00000000000E+00 0.  1.
         24    1    1    2    0    0  0.15093380707E+02 -0.12391550312E+02  0.71834254355E+01  0.83067311355E+02  0.80419002446E+02 0.  0.
          1    1    1    2  501    0 -0.11367114237E+02  0.36201116009E+02  0.29478624504E+02  0.48049155966E+02  0.00000000000E+00 0. -1.
         -2    1    1    2    0  503 -0.37262664704E+01 -0.23809565697E+02 -0.90127734174E+02  0.93294099212E+02  0.00000000000E+00 0.  1.
<mgrwt>
<rscale>  2 0.72399658E+02</rscale>
<asrwt>0</asrwt>
<pdfrwt beam="1">  1       21 0.13149606E-01 0.72399658E+02</pdfrwt>
<pdfrwt beam="2">  1       21 0.21375096E-01 0.72399658E+02</pdfrwt>
<totfact> 0.10051940E+06</totfact>
</mgrwt>
</event>
<event>
 5    1  0.1745726E+000  0.7418580E+02  0.7546771E-02  0.1346411E+00
         21   -1    0    0  503  502  0.00000000000E+00  0.00000000000E+00  0.18170269134E+03  0.18170269134E+03  0.00000000000E+00 0.  1.
         21   -1    0    0  501  503 -0.00000000000E+00 -0.00000000000E+00 -0.61271117293E+03  0.61271117293E+03  0.00000000000E+00 0. -1.
         24    1    1    2    0    0 -0.20897697296E+02  0.66799841465E+01 -0.48021318052E+03  0.48739434818E+03  0.80419002446E+02 0.  0.
          1    1    1    2  501    0  0.13213093245E+02  0.27217913309E+02 -0.12539515755E+03  0.12899358967E+03  0.00000000000E+00 0. -1.
         -2    1    1    2    0  502  0.76846040506E+01 -0.33897897456E+02  0.17459985649E+03  0.17802592642E+03  0.00000000000E+00 0.  1.
<mgrwt>
<rscale>  2 0.74185796E+02</rscale>
<asrwt>0</asrwt>
<pdfrwt beam="1">  1       21 0.27954261E-01 0.74185796E+02</pdfrwt>
<pdfrwt beam="2">  1       21 0.94263256E-01 0.74185796E+02</pdfrwt>
<totfact> 0.12867193E+04</totfact>
</mgrwt>
</event>
<event>
 5    1  0.1745726E+000  0.9301076E+02  0.7546771E-02  0.1295720E+00
         21   -1    0    0  503  502  0.00000000000E+00  0.00000000000E+00  0.11639744112E+03  0.11639744112E+03  0.00000000000E+00 0.  1.
         21   -1    0    0  501  503 -0.00000000000E+00 -0.00000000000E+00 -0.76077263201E+02  0.76077263201E+02  0.00000000000E+00 0.  1.
         24    1    1    2    0    0  0.36819017966E+02 -0.15694377109E+02  0.33753460741E+02  0.95960750431E+02  0.80419002446E+02 0.  1.
          1    1    1    2  501    0  0.28677680760E+02 -0.66011902570E+00  0.39460725813E+01  0.28955424702E+02  0.00000000000E+00 0. -1.
         -2    1    1    2    0  502 -0.65496698726E+02  0.16354496135E+02  0.26206445958E+01  0.67558529187E+02  0.00000000000E+00 0.  1.
<mgrwt>
<rscale>  2 0.93010758E+02</rscale>
<asrwt>0</asrwt>
<pdfrwt beam="1">  1       21 0.17907299E-01 0.93010758E+02</pdfrwt>
<pdfrwt beam="2">  1       21 0.11704194E-01 0.93010758E+02</pdfrwt>
<totfact> 0.17154484E+06</totfact>
</mgrwt>
</event>
<event>
 5    1  0.1745726E+000  0.6568494E+02  0.7546771E-02  0.1375413E+00
         21   -1    0    0  503  502  0.00000000000E+00  0.00000000000E+00  0.73786217576E+03  0.73786217576E+03  0.00000000000E+00 0. -1.
         21   -1    0    0  501  503 -0.00000000000E+00 -0.00000000000E+00 -0.15970605577E+02  0.15970605577E+02  0.00000000000E+00 0. -1.
         24    1    1    2    0    0 -0.40085791407E+01 -0.25706516728E+02  0.42880101519E+03  0.43705196521E+03  0.80419002446E+02 0. -1.
          1    1    1    2  501    0  0.21585858611E+02  0.14012589261E+02  0.29846270252E+01  0.25907719858E+02  0.00000000000E+00 0. -1.
         -2    1    1    2    0  502 -0.17577279470E+02  0.11693927468E+02  0.29010592796E+03  0.29087309626E+03  0.00000000000E+00 0.  1.
<mgrwt>
<rscale>  2 0.65684939E+02</rscale>
<asrwt>0</asrwt>
<pdfrwt beam="1">  1       21 0.11351723E+00 0.65684939E+02</pdfrwt>
<pdfrwt beam="2">  1       21 0.24570168E-02 0.65684939E+02</pdfrwt>
<totfact> 0.54288009E+05</totfact>
</mgrwt>
</event>
<event>
 5    1  0.1745726E+000  0.8144850E+02  0.7546771E-02  0.1324990E+00
         21   -1    0    0  503  502  0.00000000000E+00  0.00000000000E+00  0.25895207834E+02  0.25895207834E+02  0.00000000000E+00 0.  1.
         21   -1    0    0  501  503 -0.00000000000E+00 -0.00000000000E+00 -0.47002441795E+03  0.47002441795E+03  0.00000000000E+00 0.  1.
         24    1    1    2    0    0  0.50046908887E+02  0.13418825963E+02 -0.33039778030E+03  0.34396899157E+03  0.80419002446E+02 0.  1.
          1    1    1    2  501    0 -0.26546314976E+02 -0.28781470761E+02 -0.11728692697E+03  0.12364992170E+03  0.00000000000E+00 0. -1.
         -2    1    1    2    0  502 -0.23500593911E+02  0.15362644799E+02  0.35554971469E+01  0.28300712523E+02  0.00000000000E+00 0.  1.
<mgrwt>
<rscale>  2 0.81448497E+02</rscale>
<asrwt>0</asrwt>
<pdfrwt beam="1">  1       21 0.39838784E-02 0.81448497E+02</pdfrwt>
<pdfrwt beam="2">  1       21 0.72311445E-01 0.81448497E+02</pdfrwt>
<totfact> 0.68523665E+05</totfact>
</mgrwt>
</event>
<event>
 5    1  0.1745726E+000  0.6678280E+02  0.7546771E-02  0.1371388E+00
         21   -1    0    0  501  502  0.00000000000E+00  0.00000000000E+00  0.47825535786E+03  0.47825535786E+03  0.00000000000E+00 0.  1.
         21   -1    0    0  502  503 -0.00000000000E+00 -0.00000000000E+00 -0.18474531218E+02  0.18474531218E+02  0.00000000000E+00 0.  1.
         24    1    1    2    0    0  0.41860953753E+02  0.44128640744E+01  0.31818574729E+03  0.33087943204E+03  0.80419002446E+02 0.  1.
          1    1    1    2  501    0 -0.21095542368E+02  0.16615482352E+01  0.14262893033E+03  0.14419013288E+03  0.00000000000E+00 0. -1.
         -2    1    1    2    0  503 -0.20765411385E+02 -0.60744123096E+01 -0.10338509785E+01  0.21660324160E+02  0.00000000000E+00 0.  1.
<mgrwt>
<rscale>  2 0.66782804E+02</rscale>
<asrwt>0</asrwt>
<pdfrwt beam="1">  1       21 0.73577738E-01 0.66782804E+02</pdfrwt>
<pdfrwt beam="2">  1       21 0.28422359E-02 0.66782804E+02</pdfrwt>
<totfact> 0.11387259E+06</totfact>
</mgrwt>
</event>
<event>
 5    1  0.1745726E+000  0.6884987E+02  0.7546771E-02  0.1364048E+00
         21   -1    0    0  501  502  0.00000000000E+00  0.00000000000E+00  0.16467542818E+04  0.16467542818E+04  0.00000000000E+00 0. -1.
         21   -1    0    0  502  503 -0.00000000000E+00 -0.00000000000E+00 -0.45546851690E+01  0.45546851690E+01  0.00000000000E+00 0. -1.
         24    1    1    2    0    0 -0.37078946739E+02 -0.74069709425E+01  0.60338005311E+03  0.60988885541E+03  0.80419002446E+02 0. -1.
          1    1    1    2  501    0  0.10975951209E+02  0.17658086966E+02  0.87287820921E+03  0.87312579142E+03  0.00000000000E+00 0. -1.
         -2    1    1    2    0  503  0.26102995530E+02 -0.10251116023E+02  0.16594133428E+03  0.16829432010E+03  0.00000000000E+00 0.  1.
<mgrwt>
<rscale>  2 0.68849869E+02</rscale>
<asrwt>0</asrwt>
<pdfrwt beam="1">  1       21 0.25334634E+00 0.68849869E+02</pdfrwt>
<pdfrwt beam="2">  1       21 0.70072211E-03 0.68849869E+02</pdfrwt>
<totfact> 0.45612136E+05</totfact>
</mgrwt>
</event>
<event>
 5    1  0.1745726E+000  0.8526860E+02  0.7546771E-02  0.1314732E+00
         21   -1    0    0  503  502  0.00000000000E+00  0.00000000000E+00  0.61897053026E+03  0.61897053026E+03  0.00000000000E+00 0. -1.
         21   -1    0    0  501  503 -0.00000000000E+00 -0.00000000000E+00 -0.23692025819E+02  0.23692025819E+02  0.00000000000E+00 0. -1.
         24    1    1    2    0    0 -0.35288958233E+02  0.38629871765E+02  0.39873463845E+03  0.41011474665E+03  0.80419002446E+02 0. -1.
          1    1    1    2  501    0  0.36884878920E+02 -0.96559976503E+00  0.48883433792E+01  0.37219921774E+02  0.00000000000E+00 0. -1.
         -2    1    1    2    0  502 -0.15959206866E+01 -0.37664272000E+02  0.19165552261E+03  0.19532788765E+03  0.00000000000E+00 0.  1.
<mgrwt>
<rscale>  2 0.85268600E+02</rscale>
<asrwt>0</asrwt>
<pdfrwt beam="1">  1       21 0.95226223E-01 0.85268600E+02</pdfrwt>
<pdfrwt beam="2">  1       21 0.36449275E-02 0.85268600E+02</pdfrwt>
<totfact> 0.43023610E+05</totfact>
</mgrwt>
</event>
<event>
 5    1  0.1745726E+000  0.9929925E+02  0.7546771E-02  0.1281776E+00
         21   -1    0    0  501  502  0.00000000000E+00  0.00000000000E+00  0.33989059823E+02  0.33989059823E+02  0.00000000000E+00 0.  1.
         21   -1    0    0  502  503 -0.00000000000E+00 -0.00000000000E+00 -0.35472260331E+03  0.35472260331E+03  0.00000000000E+00 0.  1.
         24    1    1    2    0    0 -0.61207825039E+02 -0.55891462067E+02 -0.12330671005E+03  0.16894381929E+03  0.80419002446E+02 0.  1.
          1    1    1    2  501    0  0.19902694901E+02  0.14411604770E+02 -0.16478460986E+02  0.29586336253E+02  0.00000000000E+00 0. -1.
         -2    1    1    2    0  503  0.41305130138E+02  0.41479857297E+02 -0.18094837245E+03  0.19018150759E+03  0.00000000000E+00 0.  1.
<mgrwt>
<rscale>  2 0.99299248E+02</rscale>
<asrwt>0</asrwt>
<pdfrwt beam="1">  1       21 0.52290861E-02 0.99299248E+02</pdfrwt>
<pdfrwt beam="2">  1       21 0.54572708E-01 0.99299248E+02</pdfrwt>
<totfact> 0.79352399E+05</totfact>
</mgrwt>
</event>
<event>
 5    1  0.1745726E+000  0.7542584E+02  0.7546771E-02  0.1342557E+00
         21   -1    0    0  501  502  0.00000000000E+00  0.00000000000E+00  0.89541416757E+02  0.89541416757E+02  0.00000000000E+00 0. -1.
         21   -1    0    0  502  503 -0.00000000000E+00 -0.00000000000E+00 -0.11733720656E+03  0.11733720656E+03  0.00000000000E+00 0. -1.
         24    1    1    2    0    0 -0.29433216119E+02  0.13500909227E+02 -0.11638800104E+02  0.87471517554E+02  0.80419002446E+02 0. -1.
          1    1    1    2  501    0  0.36405637323E+01  0.20870261847E+02  0.42032709693E+02  0.47069844041E+02  0.00000000000E+00 0. -1.
         -2    1    1    2    0  503  0.25792652386E+02 -0.34371171073E+02 -0.58189699396E+02  0.72337261725E+02  0.00000000000E+00 0.  1.
<mgrwt>
<rscale>  2 0.75425840E+02</rscale>
<asrwt>0</asrwt>
<pdfrwt beam="1">  1       21 0.13775603E-01 0.75425840E+02</pdfrwt>
<pdfrwt beam="2">  1       21 0.18051878E-01 0.75425840E+02</pdfrwt>
<totfact> 0.12607375E+06</totfact>
</mgrwt>
</event>
<event>
 5    1  0.1745726E+000  0.9673518E+02  0.7546771E-02  0.1287315E+00
         21   -1    0    0  501  502  0.00000000000E+00  0.00000000000E+00  0.33178915301E+02  0.33178915301E+02  0.00000000000E+00 0. -1.
         21   -1    0    0  502  503 -0.00000000000E+00 -0.00000000000E+00 -0.10919668635E+04  0.10919668635E+04  0.00000000000E+00 0.  1.
         24    1    1    2    0    0 -0.37796067647E+01  0.24218036511E+02 -0.35235645928E+03  0.36224727614E+03  0.80419002446E+02 0.  0.
          1    1    1    2  501    0 -0.27233077412E+02  0.33924144871E+02  0.90122838858E+01  0.44426449007E+02  0.00000000000E+00 0. -1.
         -2    1    1    2    0  503  0.31012684177E+02 -0.58142181382E+02 -0.71544377278E+03  0.71847205363E+03  0.00000000000E+00 0.  1.
<mgrwt>
<rscale>  2 0.96735176E+02</rscale>
<asrwt>0</asrwt>
<pdfrwt beam="1">  1       21 0.51044485E-02 0.96735176E+02</pdfrwt>
<pdfrwt beam="2">  1       21 0.16799490E+00 0.96735176E+02</pdfrwt>
<totfact> 0.61069307E+04</totfact>
</mgrwt>
</event>
<event>
 5    1  0.1745726E+000  0.9648135E+02  0.7546771E-02  0.1287874E+00
         21   -1    0    0  503  502  0.00000000000E+00  0.00000000000E+00  0.15851247455E+04  0.15851247455E+04  0.00000000000E+00 0.  1.
         21   -1    0    0  501  503 -0.00000000000E+00 -0.00000000000E+00 -0.42142296990E+02  0.42142296990E+02  0.00000000000E+00 0.  1.
         24    1    1    2    0    0 -0.17129543694E+02  0.15833978518E+02  0.79921119627E+02  0.11575291556E+03  0.80419002446E+02 0.  1.
          1    1    1    2  501    0  0.62546223000E+02 -0.11627293210E+02  0.18528049861E+02  0.66260943176E+02  0.00000000000E+00 0. -1.
         -2    1    1    2    0  502 -0.45416679306E+02 -0.42066853081E+01  0.14445332790E+04  0.14452531838E+04  0.00000000000E+00 0.  1.
<mgrwt>
<rscale>  2 0.96481348E+02</rscale>
<asrwt>0</asrwt>
<pdfrwt beam="1">  1       21 0.24386530E+00 0.96481348E+02</pdfrwt>
<pdfrwt beam="2">  1       21 0.64834315E-02 0.96481348E+02</pdfrwt>
<totfact> 0.13967219E+04</totfact>
</mgrwt>
</event>
<event>
 5    1  0.1745726E+000  0.7191799E+02  0.7546771E-02  0.1353690E+00
         21   -1    0    0  503  502  0.00000000000E+00  0.00000000000E+00  0.20836907117E+03  0.20836907117E+03  0.00000000000E+00 0.  1.
         21   -1    0    0  501  503 -0.00000000000E+00 -0.00000000000E+00 -0.10562692578E+03  0.10562692578E+03  0.00000000000E+00 0. -1.
         24    1    1    2    0    0  0.54726148346E+01  0.30716284460E+02  0.18027908636E+03  0.19985295739E+03  0.80419002446E+02 0.  1.
          1    1    1    2  501    0 -0.19771861223E+02  0.38736327825E+01 -0.73831356730E+02  0.76531044444E+02  0.00000000000E+00 0. -1.
         -2    1    1    2    0  502  0.14299246388E+02 -0.34589917243E+02 -0.37055842337E+01  0.37611995117E+02  0.00000000000E+00 0.  1.
<mgrwt>
<rscale>  2 0.71917994E+02</rscale>
<asrwt>0</asrwt>
<pdfrwt beam="1">  1       21 0.32056780E-01 0.71917994E+02</pdfrwt>
<pdfrwt beam="2">  1       21 0.16250296E-01 0.71917994E+02</pdfrwt>
<totfact> 0.32397439E+05</totfact>
</mgrwt>
</event>
<event>
 5    1  0.1745726E+000  0.7035929E+02  0.7546771E-02  0.1358876E+00
         21   -1    0    0  503  502  0.00000000000E+00  0.00000000000E+00  0.10192540379E+03  0.10192540379E+03  0.00000000000E+00 0.  1.
         21   -1    0    0  501  503 -0.00000000000E+00 -0.00000000000E+00 -0.64503562494E+02  0.64503562494E+02  0.00000000000E+00 0. -1.
         24    1    1    2    0    0 -0.16073055416E+02 -0.39731211193E+01  0.40847926774E+02  0.91705495353E+02  0.80419002446E+02 0.  1.
          1    1    1    2  501    0 -0.19871006986E+02 -0.69409672529E+01 -0.23976871737E+02  0.31904926318E+02  0.00000000000E+00 0. -1.
         -2    1    1    2    0  502  0.35944062402E+02  0.10914088372E+02  0.20550786258E+02  0.42818544613E+02  0.00000000000E+00 0.  1.
<mgrwt>
<rscale>  2 0.70359291E+02</rscale>
<asrwt>0</asrwt>
<pdfrwt beam="1">  1       21 0.15680831E-01 0.70359291E+02</pdfrwt>
<pdfrwt beam="2">  1       21 0.99236249E-02 0.70359291E+02</pdfrwt>
<totfact> 0.28619116E+06</totfact>
</mgrwt>
</event>
<event>
 5    1  0.1745726E+000  0.1206560E+03  0.7546771E-02  0.1242019E+00
         21   -1    0    0  501  502  0.00000000000E+00  0.00000000000E+00  0.47465856327E+02  0.47465856327E+02  0.00000000000E+00 0.  1.
         21   -1    0    0  502  503 -0.00000000000E+00 -0.00000000000E+00 -0.59678102400E+03  0.59678102400E+03  0.00000000000E+00 0. -1.
         24    1    1    2    0    0  0.82083667586E+01  0.16021518151E+02 -0.44731941364E+03  0.45484716125E+03  0.80419002446E+02 0. -1.
          1    1    1    2  501    0 -0.82932219252E+02 -0.14321131835E+02 -0.45227812166E+02  0.95542675284E+02  0.00000000000E+00 0. -1.
         -2    1    1    2    0  503  0.74723852494E+02 -0.17003863168E+01 -0.56767941873E+02  0.93857043793E+02  0.00000000000E+00 0.  1.
<mgrwt>
<rscale>  2 0.12065604E+03</rscale>
<asrwt>0</asrwt>
<pdfrwt beam="1">  1       21 0.73024390E-02 0.12065604E+03</pdfrwt>
<pdfrwt beam="2">  1       21 0.91812470E-01 0.12065604E+03</pdfrwt>
<totfact> 0.14476787E+05</totfact>
</mgrwt>
</event>
<event>
 5    1  0.1745726E+000  0.7917479E+02  0.7546771E-02  0.1331410E+00
         21   -1    0    0  503  502  0.00000000000E+00  0.00000000000E+00  0.33629692303E+03  0.33629692303E+03  0.00000000000E+00 0.  1.
         21   -1    0    0  501  503 -0.00000000000E+00 -0.00000000000E+00 -0.16480747494E+03  0.16480747494E+03  0.00000000000E+00 0. -1.
         24    1    1    2    0    0 -0.50189516267E+01  0.31854932893E+02  0.29919562641E+02  0.91664184980E+02  0.80419002446E+02 0.  1.
          1    1    1    2  501    0  0.75739817469E+01  0.19172568991E+02 -0.13075199053E+03  0.13236704888E+03  0.00000000000E+00 0. -1.
         -2    1    1    2    0  502 -0.25550301202E+01 -0.51027501883E+02  0.27232187599E+03  0.27707316411E+03  0.00000000000E+00 0.  1.
<mgrwt>
<rscale>  2 0.79174788E+02</rscale>
<asrwt>0</asrwt>
<pdfrwt beam="1">  1       21 0.51737988E-01 0.79174788E+02</pdfrwt>
<pdfrwt beam="2">  1       21 0.25354996E-01 0.79174788E+02</pdfrwt>
<totfact> 0.55740872E+04</totfact>
</mgrwt>
</event>
<event>
 5    1  0.1745726E+000  0.8683323E+02  0.7546771E-02  0.1310707E+00
         21   -1    0    0  501  502  0.00000000000E+00  0.00000000000E+00  0.15547846758E+02  0.15547846758E+02  0.00000000000E+00 0. -1.
         21   -1    0    0  502  503 -0.00000000000E+00 -0.00000000000E+00 -0.11169513547E+04  0.11169513547E+04  0.00000000000E+00 0.  1.
         24    1    1    2    0    0  0.51634192411E+02  0.20153386772E+02 -0.37014798117E+03  0.38281717926E+03  0.80419002446E+02 0.  0.
          1    1    1    2  501    0 -0.16485579081E+02  0.17804056685E+02 -0.94729561438E+01  0.26047949059E+02  0.00000000000E+00 0. -1.
         -2    1    1    2    0  503 -0.35148613330E+02 -0.37957443457E+02 -0.72178257064E+03  0.72363407314E+03  0.00000000000E+00 0.  1.
<mgrwt>
<rscale>  2 0.86833232E+02</rscale>
<asrwt>0</asrwt>
<pdfrwt beam="1">  1       21 0.23919772E-02 0.86833232E+02</pdfrwt>
<pdfrwt beam="2">  1       21 0.17183861E+00 0.86833232E+02</pdfrwt>
<totfact> 0.20049975E+05</totfact>
</mgrwt>
</event>
<event>
 5    1  0.1745726E+000  0.8195149E+02  0.7546771E-02  0.1323603E+00
         21   -1    0    0  503  502  0.00000000000E+00  0.00000000000E+00  0.91099527875E+03  0.91099527875E+03  0.00000000000E+00 0. -1.
         21   -1    0    0  501  503 -0.00000000000E+00 -0.00000000000E+00 -0.89818555003E+01  0.89818555003E+01  0.00000000000E+00 0. -1.
         24    1    1    2    0    0 -0.41296740264E+02 -0.42242726238E+02  0.34137262636E+03  0.35565763686E+03  0.80419002446E+02 0. -1.
          1    1    1    2  501    0  0.10891148980E+02  0.28954886841E+02  0.24765803750E+03  0.24958266394E+03  0.00000000000E+00 0. -1.
         -2    1    1    2    0  502  0.30405591284E+02  0.13287839397E+02  0.31298275939E+03  0.31473683346E+03  0.00000000000E+00 0.  1.
<mgrwt>
<rscale>  2 0.81951488E+02</rscale>
<asrwt>0</asrwt>
<pdfrwt beam="1">  1       21 0.14015305E+00 0.81951488E+02</pdfrwt>
<pdfrwt beam="2">  1       21 0.13818246E-02 0.81951488E+02</pdfrwt>
<totfact> 0.81262081E+05</totfact>
</mgrwt>
</event>
<event>
 5    1  0.1745726E+000  0.8234142E+02  0.7546771E-02  0.1322535E+00
         21   -1    0    0  503  502  0.00000000000E+00  0.00000000000E+00  0.30621827765E+03  0.30621827765E+03  0.00000000000E+00 0. -1.
         21   -1    0    0  501  503 -0.00000000000E+00 -0.00000000000E+00 -0.49859565293E+02  0.49859565293E+02  0.00000000000E+00 0. -1.
         24    1    1    2    0    0 -0.51744651633E+02  0.27784083031E+02  0.96889385148E+01  0.10005276471E+03  0.80419002446E+02 0. -1.
          1    1    1    2  501    0  0.43152046205E+02 -0.84899136303E+01  0.12441713471E+03  0.13196136228E+03  0.00000000000E+00 0. -1.
         -2    1    1    2    0  502  0.85926054279E+01 -0.19294169400E+02  0.12225263913E+03  0.12406371595E+03  0.00000000000E+00 0.  1.
<mgrwt>
<rscale>  2 0.82341423E+02</rscale>
<asrwt>0</asrwt>
<pdfrwt beam="1">  1       21 0.47110503E-01 0.82341423E+02</pdfrwt>
<pdfrwt beam="2">  1       21 0.76707026E-02 0.82341423E+02</pdfrwt>
<totfact> 0.56148356E+05</totfact>
</mgrwt>
</event>
<event>
 5    1  0.1745726E+000  0.6939657E+02  0.7546771E-02  0.1362157E+00
         21   -1    0    0  503  502  0.00000000000E+00  0.00000000000E+00  0.12061843373E+03  0.12061843373E+03  0.00000000000E+00 0. -1.
         21   -1    0    0  501  503 -0.00000000000E+00 -0.00000000000E+00 -0.72653148797E+02  0.72653148797E+02  0.00000000000E+00 0. -1.
         24    1    1    2    0    0 -0.66467413393E+01  0.12501055631E+02  0.53782505231E+02  0.97776425511E+02  0.80419002446E+02 0. -1.
          1    1    1    2  501    0  0.19392835435E+02 -0.29857944518E+02 -0.40965453912E+02  0.54274739348E+02  0.00000000000E+00 0. -1.
         -2    1    1    2    0  502 -0.12746094096E+02  0.17356888887E+02  0.35148233615E+02  0.41220417669E+02  0.00000000000E+00 0.  1.
<mgrwt>
<rscale>  2 0.69396575E+02</rscale>
<asrwt>0</asrwt>
<pdfrwt beam="1">  1       21 0.18556682E-01 0.69396575E+02</pdfrwt>
<pdfrwt beam="2">  1       21 0.11177407E-01 0.69396575E+02</pdfrwt>
<totfact> 0.17226351E+06</totfact>
</mgrwt>
</event>
<event>
 5    1  0.1745726E+000  0.7409127E+02  0.7546771E-02  0.1346708E+00
         21   -1    0    0  503  502  0.00000000000E+00  0.00000000000E+00  0.57531504081E+03  0.57531504081E+03  0.00000000000E+00 0. -1.
         21   -1    0    0  501  503 -0.00000000000E+00 -0.00000000000E+00 -0.10917814542E+02  0.10917814542E+02  0.00000000000E+00 0.  1.
         24    1    1    2    0    0 -0.34591464173E+02 -0.12425509145E+02  0.23907225834E+03  0.25489943769E+03  0.80419002446E+02 0. -1.
          1    1    1    2  501    0  0.38013313496E+02 -0.81724027521E+01  0.15814973821E+03  0.16285926399E+03  0.00000000000E+00 0. -1.
         -2    1    1    2    0  502 -0.34218493228E+01  0.20597911897E+02  0.16717522972E+03  0.16847415368E+03  0.00000000000E+00 0.  1.
<mgrwt>
<rscale>  2 0.74091273E+02</rscale>
<asrwt>0</asrwt>
<pdfrwt beam="1">  1       21 0.88509983E-01 0.74091273E+02</pdfrwt>
<pdfrwt beam="2">  1       21 0.16796642E-02 0.74091273E+02</pdfrwt>
<totfact> 0.17617489E+06</totfact>
</mgrwt>
</event>
<event>
 5    1  0.1745726E+000  0.7700676E+02  0.7546771E-02  0.1337767E+00
         21   -1    0    0  501  502  0.00000000000E+00  0.00000000000E+00  0.10109355253E+03  0.10109355253E+03  0.00000000000E+00 0.  1.
         21   -1    0    0  502  503 -0.00000000000E+00 -0.00000000000E+00 -0.60477533892E+02  0.60477533892E+02  0.00000000000E+00 0. -1.
         24    1    1    2    0    0 -0.19588842742E+02 -0.12302173015E+00  0.19264172003E+02  0.84982716900E+02  0.80419002446E+02 0.  1.
          1    1    1    2  501    0  0.43121658826E+02  0.12169693293E+02  0.22476270497E+02  0.50127453858E+02  0.00000000000E+00 0. -1.
         -2    1    1    2    0  503 -0.23532816085E+02 -0.12046671563E+02 -0.11244238644E+01  0.26460915662E+02  0.00000000000E+00 0.  1.
<mgrwt>
<rscale>  2 0.77006759E+02</rscale>
<asrwt>0</asrwt>
<pdfrwt beam="1">  1       21 0.15552854E-01 0.77006759E+02</pdfrwt>
<pdfrwt beam="2">  1       21 0.93042360E-02 0.77006759E+02</pdfrwt>
<totfact> 0.32620425E+06</totfact>
</mgrwt>
</event>
<event>
 5    1  0.1745726E+000  0.8044955E+02  0.7546771E-02  0.1327780E+00
         21   -1    0    0  501  502  0.00000000000E+00  0.00000000000E+00  0.71775401561E+02  0.71775401561E+02  0.00000000000E+00 0. -1.
         21   -1    0    0  502  503 -0.00000000000E+00 -0.00000000000E+00 -0.95240345710E+02  0.95240345710E+02  0.00000000000E+00 0. -1.
         24    1    1    2    0    0  0.58578744735E+02 -0.13417202139E+02 -0.25791101531E+02  0.10365272558E+03  0.80419002446E+02 0. -1.
          1    1    1    2  501    0 -0.28605425592E+02  0.29465182392E+01  0.10439727581E+02  0.30593140653E+02  0.00000000000E+00 0. -1.
         -2    1    1    2    0  503 -0.29973319143E+02  0.10470683899E+02 -0.81135701985E+01  0.32769881036E+02  0.00000000000E+00 0.  1.
<mgrwt>
<rscale>  2 0.80449554E+02</rscale>
<asrwt>0</asrwt>
<pdfrwt beam="1">  1       21 0.11042369E-01 0.80449554E+02</pdfrwt>
<pdfrwt beam="2">  1       21 0.14652361E-01 0.80449554E+02</pdfrwt>
<totfact> 0.27045411E+06</totfact>
</mgrwt>
</event>
<event>
 5    1  0.1745726E+000  0.7521808E+02  0.7546771E-02  0.1343197E+00
         21   -1    0    0  501  502  0.00000000000E+00  0.00000000000E+00  0.15943917805E+03  0.15943917805E+03  0.00000000000E+00 0.  1.
         21   -1    0    0  502  503 -0.00000000000E+00 -0.00000000000E+00 -0.57165810797E+02  0.57165810797E+02  0.00000000000E+00 0. -1.
         24    1    1    2    0    0  0.10310838756E+02 -0.15925882503E+02  0.10786791450E+02  0.83327774202E+02  0.80419002446E+02 0. -1.
          1    1    1    2  501    0  0.11938265228E+02 -0.21313866348E+02  0.86177907658E+02  0.89573628059E+02  0.00000000000E+00 0. -1.
         -2    1    1    2    0  503 -0.22249103984E+02  0.37239748851E+02  0.53086681401E+01  0.43703586581E+02  0.00000000000E+00 0.  1.
<mgrwt>
<rscale>  2 0.75218084E+02</rscale>
<asrwt>0</asrwt>
<pdfrwt beam="1">  1       21 0.24529104E-01 0.75218084E+02</pdfrwt>
<pdfrwt beam="2">  1       21 0.87947402E-02 0.75218084E+02</pdfrwt>
<totfact> 0.15672688E+06</totfact>
</mgrwt>
</event>
<event>
 5    1  0.1745726E+000  0.9737748E+02  0.7546771E-02  0.1285909E+00
         21   -1    0    0  503  502  0.00000000000E+00  0.00000000000E+00  0.38356759885E+03  0.38356759885E+03  0.00000000000E+00 0. -1.
         21   -1    0    0  501  503 -0.00000000000E+00 -0.00000000000E+00 -0.59159162022E+02  0.59159162022E+02  0.00000000000E+00 0. -1.
         24    1    1    2    0    0  0.41375825618E+02  0.64870290213E+02  0.29657770117E+03  0.31677383460E+03  0.80419002446E+02 0. -1.
          1    1    1    2  501    0  0.29334263261E+01 -0.20647874949E+02 -0.32757627439E+02  0.38832999953E+02  0.00000000000E+00 0. -1.
         -2    1    1    2    0  502 -0.44309251944E+02 -0.44222415265E+02  0.60588363091E+02  0.87119926318E+02  0.00000000000E+00 0.  1.
<mgrwt>
<rscale>  2 0.97377481E+02</rscale>
<asrwt>0</asrwt>
<pdfrwt beam="1">  1       21 0.59010398E-01 0.97377481E+02</pdfrwt>
<pdfrwt beam="2">  1       21 0.91014098E-02 0.97377481E+02</pdfrwt>
<totfact> 0.26311719E+05</totfact>
</mgrwt>
</event>
<event>
 5    1  0.1745726E+000  0.6629725E+02  0.7546771E-02  0.1373157E+00
         21   -1    0    0  503  502  0.00000000000E+00  0.00000000000E+00  0.78311600336E+01  0.78311600336E+01  0.00000000000E+00 0. -1.
         21   -1    0    0  501  503 -0.00000000000E+00 -0.00000000000E+00 -0.59057789145E+03  0.59057789145E+03  0.00000000000E+00 0.  1.
         24    1    1    2    0    0  0.21031316953E+02  0.14505584868E+02 -0.30929847282E+03  0.32060176158E+03  0.80419002446E+02 0. -1.
          1    1    1    2  501    0  0.67890389516E+01 -0.18869993292E+02 -0.13921063497E+03  0.14064767536E+03  0.00000000000E+00 0. -1.
         -2    1    1    2    0  502 -0.27820355905E+02  0.43644084245E+01 -0.13423762363E+03  0.13715961454E+03  0.00000000000E+00 0.  1.
<mgrwt>
<rscale>  2 0.66297248E+02</rscale>
<asrwt>0</asrwt>
<pdfrwt beam="1">  1       21 0.12047936E-02 0.66297248E+02</pdfrwt>
<pdfrwt beam="2">  1       21 0.90858156E-01 0.66297248E+02</pdfrwt>
<totfact> 0.27873170E+06</totfact>
</mgrwt>
</event>
<event>
 5    1  0.1745726E+000  0.9107514E+02  0.7546771E-02  0.1300269E+00
         21   -1    0    0  503  502  0.00000000000E+00  0.00000000000E+00  0.16217661116E+04  0.16217661116E+04  0.00000000000E+00 0.  1.
         21   -1    0    0  501  503 -0.00000000000E+00 -0.00000000000E+00 -0.57339458977E+01  0.57339458977E+01  0.00000000000E+00 0.  1.
         24    1    1    2    0    0 -0.29413796831E+02 -0.66553150398E+02  0.10170685289E+04  0.10228343472E+04  0.80419002446E+02 0.  1.
          1    1    1    2  501    0  0.11378327393E+02  0.40096048397E+02  0.19340457502E+03  0.19784460840E+03  0.00000000000E+00 0. -1.
         -2    1    1    2    0  502  0.18035469438E+02  0.26457102001E+02  0.40555906174E+03  0.40682110191E+03  0.00000000000E+00 0.  1.
<mgrwt>
<rscale>  2 0.91075142E+02</rscale>
<asrwt>0</asrwt>
<pdfrwt beam="1">  1       21 0.24950211E+00 0.91075142E+02</pdfrwt>
<pdfrwt beam="2">  1       21 0.88214681E-03 0.91075142E+02</pdfrwt>
<totfact> 0.32820889E+05</totfact>
</mgrwt>
</event>
<event>
 5    1  0.1745726E+000  0.1261809E+03  0.7546771E-02  0.1233235E+00
         21   -1    0    0  503  502  0.00000000000E+00  0.00000000000E+00  0.55793879548E+02  0.55793879548E+02  0.00000000000E+00 0.  1.
         21   -1    0    0  501  503 -0.00000000000E+00 -0.00000000000E+00 -0.43893649075E+03  0.43893649075E+03  0.00000000000E+00 0.  1.
         24    1    1    2    0    0 -0.25262617301E+02 -0.10546230595E+02 -0.22904003198E+03  0.24428666565E+03  0.80419002446E+02 0.  1.
          1    1    1    2  501    0 -0.14292736634E+02 -0.73311808374E+02 -0.13717559503E+03  0.15619234117E+03  0.00000000000E+00 0. -1.
         -2    1    1    2    0  502  0.39555353935E+02  0.83858038969E+02 -0.16926984202E+02  0.94251363485E+02  0.00000000000E+00 0.  1.
<mgrwt>
<rscale>  2 0.12618089E+03</rscale>
<asrwt>0</asrwt>
<pdfrwt beam="1">  1       21 0.85836736E-02 0.12618089E+03</pdfrwt>
<pdfrwt beam="2">  1       21 0.67528692E-01 0.12618089E+03</pdfrwt>
<totfact> 0.21677041E+05</totfact>
</mgrwt>
</event>
<event>
 5    1  0.1745726E+000  0.2257822E+03  0.7546771E-02  0.1129644E+00
         21   -1    0    0  501  502  0.00000000000E+00  0.00000000000E+00  0.41722669397E+03  0.41722669397E+03  0.00000000000E+00 0. -1.
         21   -1    0    0  502  503 -0.00000000000E+00 -0.00000000000E+00 -0.58929695920E+03  0.58929695920E+03  0.00000000000E+00 0.  1.
         24    1    1    2    0    0  0.19925401361E+03 -0.32622802016E+02 -0.11207496279E+03  0.24452898068E+03  0.80419002446E+02 0. -1.
          1    1    1    2  501    0 -0.20221575032E+03  0.74584392355E+00  0.32114759697E+03  0.37950961121E+03  0.00000000000E+00 0. -1.
         -2    1    1    2    0  503  0.29617367047E+01  0.31876958093E+02 -0.38114289940E+03  0.38248506129E+03  0.00000000000E+00 0.  1.
<mgrwt>
<rscale>  2 0.22578218E+03</rscale>
<asrwt>0</asrwt>
<pdfrwt beam="1">  1       21 0.64188722E-01 0.22578218E+03</pdfrwt>
<pdfrwt beam="2">  1       21 0.90661070E-01 0.22578218E+03</pdfrwt>
<totfact> 0.22496381E+03</totfact>
</mgrwt>
</event>
<event>
 5    1  0.1745726E+000  0.1133188E+03  0.7546771E-02  0.1254544E+00
         21   -1    0    0  501  502  0.00000000000E+00  0.00000000000E+00  0.10087841719E+02  0.10087841719E+02  0.00000000000E+00 0. -1.
         21   -1    0    0  502  503 -0.00000000000E+00 -0.00000000000E+00 -0.13978909226E+04  0.13978909226E+04  0.00000000000E+00 0. -1.
         24    1    1    2    0    0 -0.19365780553E+02  0.96442357285E+02 -0.73300575274E+03  0.74393602631E+03  0.80419002446E+02 0. -1.
          1    1    1    2  501    0  0.14924884575E+01 -0.46720781044E+02 -0.16785492235E+03  0.17424217015E+03  0.00000000000E+00 0. -1.
         -2    1    1    2    0  503  0.17873292095E+02 -0.49721576241E+02 -0.48694240577E+03  0.48980056784E+03  0.00000000000E+00 0.  1.
<mgrwt>
<rscale>  2 0.11331882E+03</rscale>
<asrwt>0</asrwt>
<pdfrwt beam="1">  1       21 0.15519765E-02 0.11331882E+03</pdfrwt>
<pdfrwt beam="2">  1       21 0.21506003E+00 0.11331882E+03</pdfrwt>
<totfact> 0.20971685E+05</totfact>
</mgrwt>
</event>
<event>
 5    1  0.1745726E+000  0.7846857E+02  0.7546771E-02  0.1333454E+00
         21   -1    0    0  503  502  0.00000000000E+00  0.00000000000E+00  0.66283600203E+03  0.66283600203E+03  0.00000000000E+00 0.  1.
         21   -1    0    0  501  503 -0.00000000000E+00 -0.00000000000E+00 -0.64483391180E+02  0.64483391180E+02  0.00000000000E+00 0. -1.
         24    1    1    2    0    0 -0.39675390795E+02 -0.89898280466E+01  0.12941545942E+03  0.15770393380E+03  0.80419002446E+02 0.  0.
          1    1    1    2  501    0  0.30767706691E+02  0.30628417761E+02 -0.40660204930E+02  0.59481123177E+02  0.00000000000E+00 0. -1.
         -2    1    1    2    0  502  0.89076841041E+01 -0.21638589714E+02  0.50959735636E+03  0.51013433624E+03  0.00000000000E+00 0.  1.
<mgrwt>
<rscale>  2 0.78468569E+02</rscale>
<asrwt>0</asrwt>
<pdfrwt beam="1">  1       21 0.10197476E+00 0.78468569E+02</pdfrwt>
<pdfrwt beam="2">  1       21 0.99205222E-02 0.78468569E+02</pdfrwt>
<totfact> 0.68744706E+04</totfact>
</mgrwt>
</event>
<event>
 5    1  0.1766593E+000  0.1196318E+03  0.7546771E-02  0.1243706E+00
         21   -1    0    0  501  502  0.00000000000E+00  0.00000000000E+00  0.27921747948E+03  0.27921747948E+03  0.00000000000E+00 0. -1.
         21   -1    0    0  502  503 -0.00000000000E+00 -0.00000000000E+00 -0.30812817430E+03  0.30812817430E+03  0.00000000000E+00 0.  1.
         24    1    1    2    0    0 -0.73133874625E+02 -0.39867621509E+02  0.48111205248E+02  0.12537900497E+03  0.80419002446E+02 0. -1.
          1    1    1    2  501    0  0.81603579012E+02 -0.11381123889E+01  0.18206417999E+03  0.19951893404E+03  0.00000000000E+00 0. -1.
         -2    1    1    2    0  503 -0.84697043873E+01  0.41005733898E+02 -0.25908608006E+03  0.26244771476E+03  0.00000000000E+00 0.  1.
<mgrwt>
<rscale>  2 0.11963184E+03</rscale>
<asrwt>0</asrwt>
<pdfrwt beam="1">  1       21 0.42956535E-01 0.11963184E+03</pdfrwt>
<pdfrwt beam="2">  1       21 0.47404335E-01 0.11963184E+03</pdfrwt>
<totfact> 0.23247938E+04</totfact>
</mgrwt>
</event>
<event>
 5    1  0.1745726E+000  0.1165216E+03  0.7546771E-02  0.1248948E+00
         21   -1    0    0  503  502  0.00000000000E+00  0.00000000000E+00  0.12787080639E+03  0.12787080639E+03  0.00000000000E+00 0.  1.
         21   -1    0    0  501  503 -0.00000000000E+00 -0.00000000000E+00 -0.42991503242E+03  0.42991503242E+03  0.00000000000E+00 0. -1.
         24    1    1    2    0    0  0.70561791961E+02  0.28507702662E+02 -0.16469999184E+03  0.19845644072E+03  0.80419002446E+02 0.  1.
          1    1    1    2  501    0 -0.19990537001E+01  0.31286208970E+02 -0.22844347018E+03  0.23058456617E+03  0.00000000000E+00 0. -1.
         -2    1    1    2    0  502 -0.68562738261E+02 -0.59793911632E+02  0.91099235995E+02  0.12874483192E+03  0.00000000000E+00 0.  1.
<mgrwt>
<rscale>  2 0.11652160E+03</rscale>
<asrwt>0</asrwt>
<pdfrwt beam="1">  1       21 0.19672432E-01 0.11652160E+03</pdfrwt>
<pdfrwt beam="2">  1       21 0.66140773E-01 0.11652160E+03</pdfrwt>
<totfact> 0.51948381E+04</totfact>
</mgrwt>
</event>
<event>
 5    1  0.1745726E+000  0.7541430E+02  0.7546771E-02  0.1342593E+00
         21   -1    0    0  503  502  0.00000000000E+00  0.00000000000E+00  0.20751696621E+03  0.20751696621E+03  0.00000000000E+00 0.  1.
         21   -1    0    0  501  503 -0.00000000000E+00 -0.00000000000E+00 -0.56694530438E+02  0.56694530438E+02  0.00000000000E+00 0. -1.
         24    1    1    2    0    0  0.29181727888E+02  0.43363392078E+02 -0.75110940660E+01  0.96205974365E+02  0.80419002446E+02 0. -1.
          1    1    1    2  501    0 -0.43091497118E+01 -0.21098635279E+02  0.45519881149E+02  0.50356536434E+02  0.00000000000E+00 0. -1.
         -2    1    1    2    0  502 -0.24872578177E+02 -0.22264756799E+02  0.11281364869E+03  0.11764898584E+03  0.00000000000E+00 0.  1.
<mgrwt>
<rscale>  2 0.75414302E+02</rscale>
<asrwt>0</asrwt>
<pdfrwt beam="1">  1       21 0.31925687E-01 0.75414302E+02</pdfrwt>
<pdfrwt beam="2">  1       21 0.87222356E-02 0.75414302E+02</pdfrwt>
<totfact> 0.96742974E+05</totfact>
</mgrwt>
</event>
<event>
 5    1  0.1745726E+000  0.1009383E+03  0.7546771E-02  0.1278335E+00
         21   -1    0    0  501  502  0.00000000000E+00  0.00000000000E+00  0.56039792219E+03  0.56039792219E+03  0.00000000000E+00 0. -1.
         21   -1    0    0  502  503 -0.00000000000E+00 -0.00000000000E+00 -0.28870202497E+02  0.28870202497E+02  0.00000000000E+00 0. -1.
         24    1    1    2    0    0 -0.28076983959E+02  0.79607489921E+02  0.23360643202E+03  0.26108399131E+03  0.80419002446E+02 0. -1.
          1    1    1    2  501    0  0.12306973617E+02 -0.18807797789E+02  0.24506112968E+03  0.24608972375E+03  0.00000000000E+00 0. -1.
         -2    1    1    2    0  503  0.15770010342E+02 -0.60799692132E+02  0.52860157996E+02  0.82094409633E+02  0.00000000000E+00 0.  1.
<mgrwt>
<rscale>  2 0.10093833E+03</rscale>
<asrwt>0</asrwt>
<pdfrwt beam="1">  1       21 0.86215057E-01 0.10093833E+03</pdfrwt>
<pdfrwt beam="2">  1       21 0.44415700E-02 0.10093833E+03</pdfrwt>
<totfact> 0.38813147E+05</totfact>
</mgrwt>
</event>
<event>
 5    1  0.1745726E+000  0.1057243E+03  0.7546771E-02  0.1268699E+00
         21   -1    0    0  501  502  0.00000000000E+00  0.00000000000E+00  0.57928904816E+03  0.57928904816E+03  0.00000000000E+00 0. -1.
         21   -1    0    0  502  503 -0.00000000000E+00 -0.00000000000E+00 -0.22050269811E+02  0.22050269811E+02  0.00000000000E+00 0. -1.
         24    1    1    2    0    0  0.56771210481E+02  0.53654064892E+02  0.30452376783E+03  0.32450526983E+03  0.80419002446E+02 0. -1.
          1    1    1    2  501    0 -0.16623603109E+02 -0.56688111606E+02  0.20993046931E+03  0.21808413084E+03  0.00000000000E+00 0. -1.
         -2    1    1    2    0  503 -0.40147607371E+02  0.30340467137E+01  0.42784541210E+02  0.58749917307E+02  0.00000000000E+00 0.  1.
<mgrwt>
<rscale>  2 0.10572433E+03</rscale>
<asrwt>0</asrwt>
<pdfrwt beam="1">  1       21 0.89121380E-01 0.10572433E+03</pdfrwt>
<pdfrwt beam="2">  1       21 0.33923496E-02 0.10572433E+03</pdfrwt>
<totfact> 0.56142584E+05</totfact>
</mgrwt>
</event>
<event>
 5    1  0.1745726E+000  0.6838118E+02  0.7546771E-02  0.1365686E+00
         21   -1    0    0  503  502  0.00000000000E+00  0.00000000000E+00  0.60156772592E+03  0.60156772592E+03  0.00000000000E+00 0.  1.
         21   -1    0    0  501  503 -0.00000000000E+00 -0.00000000000E+00 -0.87233195551E+01  0.87233195551E+01  0.00000000000E+00 0. -1.
         24    1    1    2    0    0  0.16827334924E+02  0.40656669529E+02  0.29110128022E+03  0.30519386508E+03  0.80419002446E+02 0.  1.
          1    1    1    2  501    0 -0.31874255386E+01 -0.20551846291E+02  0.13437820622E+03  0.13597808785E+03  0.00000000000E+00 0. -1.
         -2    1    1    2    0  502 -0.13639909385E+02 -0.20104823239E+02  0.16736491992E+03  0.16911909255E+03  0.00000000000E+00 0.  1.
<mgrwt>
<rscale>  2 0.68381183E+02</rscale>
<asrwt>0</asrwt>
<pdfrwt beam="1">  1       21 0.92548848E-01 0.68381183E+02</pdfrwt>
<pdfrwt beam="2">  1       21 0.13420496E-02 0.68381183E+02</pdfrwt>
<totfact> 0.22623757E+06</totfact>
</mgrwt>
</event>
<event>
 5    1  0.1745726E+000  0.1181968E+03  0.7546771E-02  0.1246102E+00
         21   -1    0    0  501  502  0.00000000000E+00  0.00000000000E+00  0.26692694800E+03  0.26692694800E+03  0.00000000000E+00 0. -1.
         21   -1    0    0  502  503 -0.00000000000E+00 -0.00000000000E+00 -0.11210133615E+03  0.11210133615E+03  0.00000000000E+00 0. -1.
         24    1    1    2    0    0 -0.81888095979E+02  0.62430275383E+02  0.76336338252E+01  0.13087661314E+03  0.80419002446E+02 0. -1.
          1    1    1    2  501    0  0.69490725773E+02 -0.40185347581E+02  0.18551563629E+03  0.20213825575E+03  0.00000000000E+00 0. -1.
         -2    1    1    2    0  503  0.12397370205E+02 -0.22244927802E+02 -0.38323658264E+02  0.46013415257E+02  0.00000000000E+00 0.  1.
<mgrwt>
<rscale>  2 0.11819676E+03</rscale>
<asrwt>0</asrwt>
<pdfrwt beam="1">  1       21 0.41065684E-01 0.11819676E+03</pdfrwt>
<pdfrwt beam="2">  1       21 0.17246360E-01 0.11819676E+03</pdfrwt>
<totfact> 0.17737413E+05</totfact>
</mgrwt>
</event>
<event>
 5    1  0.1745726E+000  0.1606641E+03  0.7546771E-02  0.1187949E+00
         21   -1    0    0  503  502  0.00000000000E+00  0.00000000000E+00  0.15342917204E+03  0.15342917204E+03  0.00000000000E+00 0.  1.
         21   -1    0    0  501  503 -0.00000000000E+00 -0.00000000000E+00 -0.33807395514E+03  0.33807395514E+03  0.00000000000E+00 0. -1.
         24    1    1    2    0    0  0.67032217358E+02  0.72579933910E+02  0.38582889350E+02  0.13310529770E+03  0.80419002446E+02 0.  0.
          1    1    1    2  501    0  0.55101978390E+02 -0.38228440485E+02 -0.22158778256E+03  0.23151411850E+03  0.00000000000E+00 0. -1.
         -2    1    1    2    0  502 -0.12213419575E+03 -0.34351493424E+02 -0.16398898824E+01  0.12688371097E+03  0.00000000000E+00 0.  1.
<mgrwt>
<rscale>  2 0.16066412E+03</rscale>
<asrwt>0</asrwt>
<pdfrwt beam="1">  1       21 0.23604488E-01 0.16066412E+03</pdfrwt>
<pdfrwt beam="2">  1       21 0.52011377E-01 0.16066412E+03</pdfrwt>
<totfact> 0.60183204E+04</totfact>
</mgrwt>
</event>
<event>
 5    1  0.1745726E+000  0.8765417E+02  0.7546771E-02  0.1308634E+00
         21   -1    0    0  501  502  0.00000000000E+00  0.00000000000E+00  0.44001295542E+03  0.44001295542E+03  0.00000000000E+00 0.  1.
         21   -1    0    0  502  503 -0.00000000000E+00 -0.00000000000E+00 -0.30760842047E+02  0.30760842047E+02  0.00000000000E+00 0.  1.
         24    1    1    2    0    0  0.22312469672E+02 -0.60207444407E+02  0.33160967444E+03  0.34721027462E+03  0.80419002446E+02 0.  1.
          1    1    1    2  501    0  0.23609776421E+01  0.41167012091E+02  0.82299398721E+02  0.92051551480E+02  0.00000000000E+00 0. -1.
         -2    1    1    2    0  503 -0.24673447314E+02  0.19040432316E+02 -0.46569597868E+01  0.31511971369E+02  0.00000000000E+00 0.  1.
<mgrwt>
<rscale>  2 0.87654169E+02</rscale>
<asrwt>0</asrwt>
<pdfrwt beam="1">  1       21 0.67694296E-01 0.87654169E+02</pdfrwt>
<pdfrwt beam="2">  1       21 0.47324376E-02 0.87654169E+02</pdfrwt>
<totfact> 0.59464946E+05</totfact>
</mgrwt>
</event>
<event>
 5    1  0.1745726E+000  0.1153600E+03  0.7546771E-02  0.1250954E+00
         21   -1    0    0  503  502  0.00000000000E+00  0.00000000000E+00  0.22061525234E+03  0.22061525234E+03  0.00000000000E+00 0.  1.
         21   -1    0    0  501  503 -0.00000000000E+00 -0.00000000000E+00 -0.61217559315E+02  0.61217559315E+02  0.00000000000E+00 0.  1.
         24    1    1    2    0    0  0.24473173028E+02 -0.56737415001E+02  0.87094957654E+02  0.13368177910E+03  0.80419002446E+02 0.  1.
          1    1    1    2  501    0  0.25091568790E+02 -0.23899250312E+02  0.18734360694E+02  0.39392096421E+02  0.00000000000E+00 0. -1.
         -2    1    1    2    0  502 -0.49564741817E+02  0.80636665313E+02  0.53568374675E+02  0.10875893614E+03  0.00000000000E+00 0.  1.
<mgrwt>
<rscale>  2 0.11536003E+03</rscale>
<asrwt>0</asrwt>
<pdfrwt beam="1">  1       21 0.33940808E-01 0.11536003E+03</pdfrwt>
<pdfrwt beam="2">  1       21 0.94180862E-02 0.11536003E+03</pdfrwt>
<totfact> 0.75721931E+05</totfact>
</mgrwt>
</event>
<event>
 5    1  0.1745726E+000  0.1509771E+03  0.7546771E-02  0.1199277E+00
         21   -1    0    0  503  502  0.00000000000E+00  0.00000000000E+00  0.19299992832E+03  0.19299992832E+03  0.00000000000E+00 0.  1.
         21   -1    0    0  501  503 -0.00000000000E+00 -0.00000000000E+00 -0.73231417259E+03  0.73231417259E+03  0.00000000000E+00 0. -1.
         24    1    1    2    0    0 -0.11127393150E+03 -0.27267555913E+02 -0.23318374795E+03  0.27196926977E+03  0.80419002446E+02 0.  1.
          1    1    1    2  501    0 -0.21183591319E+02 -0.11317764503E+02 -0.45195905321E+03  0.45259675443E+03  0.00000000000E+00 0. -1.
         -2    1    1    2    0  502  0.13245752282E+03  0.38585320416E+02  0.14582855689E+03  0.20074807672E+03  0.00000000000E+00 0.  1.
<mgrwt>
<rscale>  2 0.15097709E+03</rscale>
<asrwt>0</asrwt>
<pdfrwt beam="1">  1       21 0.29692297E-01 0.15097709E+03</pdfrwt>
<pdfrwt beam="2">  1       21 0.11266372E+00 0.15097709E+03</pdfrwt>
<totfact> 0.69333589E+03</totfact>
</mgrwt>
</event>
<event>
 5    1  0.1745726E+000  0.1089776E+03  0.7546771E-02  0.1262475E+00
         21   -1    0    0  503  502  0.00000000000E+00  0.00000000000E+00  0.15638471295E+04  0.15638471295E+04  0.00000000000E+00 0.  1.
         21   -1    0    0  501  503 -0.00000000000E+00 -0.00000000000E+00 -0.21925729564E+02  0.21925729564E+02  0.00000000000E+00 0. -1.
         24    1    1    2    0    0  0.85022438691E+02  0.19297868243E+00  0.21787800392E+03  0.24731941466E+03  0.80419002446E+02 0.  0.
          1    1    1    2  501    0 -0.15999267257E+02 -0.23188222725E+02  0.25886181314E+02  0.38259176793E+02  0.00000000000E+00 0. -1.
         -2    1    1    2    0  502 -0.69023171434E+02  0.22995244042E+02  0.12981572147E+04  0.13001942676E+04  0.00000000000E+00 0.  1.
<mgrwt>
<rscale>  2 0.10897761E+03</rscale>
<asrwt>0</asrwt>
<pdfrwt beam="1">  1       21 0.24059178E+00 0.10897761E+03</pdfrwt>
<pdfrwt beam="2">  1       21 0.33731904E-02 0.10897761E+03</pdfrwt>
<totfact> 0.42508812E+04</totfact>
</mgrwt>
</event>
<event>
 5    1  0.1745726E+000  0.8126059E+02  0.7546771E-02  0.1325512E+00
         21   -1    0    0  501  502  0.00000000000E+00  0.00000000000E+00  0.30858376359E+02  0.30858376359E+02  0.00000000000E+00 0. -1.
         21   -1    0    0  502  503 -0.00000000000E+00 -0.00000000000E+00 -0.25969267372E+03  0.25969267372E+03  0.00000000000E+00 0. -1.
         24    1    1    2    0    0  0.19975053955E+02 -0.56023698107E+02 -0.11343261344E+03  0.15123435878E+03  0.80419002446E+02 0. -1.
          1    1    1    2  501    0 -0.19804407772E+02  0.27061731041E+02 -0.18752926703E+02  0.38421662042E+02  0.00000000000E+00 0. -1.
         -2    1    1    2    0  503 -0.17064618311E+00  0.28961967066E+02 -0.96648757216E+02  0.10089502925E+03  0.00000000000E+00 0.  1.
<mgrwt>
<rscale>  2 0.81260586E+02</rscale>
<asrwt>0</asrwt>
<pdfrwt beam="1">  1       21 0.47474425E-02 0.81260586E+02</pdfrwt>
<pdfrwt beam="2">  1       21 0.39952719E-01 0.81260586E+02</pdfrwt>
<totfact> 0.17433536E+06</totfact>
</mgrwt>
</event>
<event>
 5    1  0.1745726E+000  0.7049732E+02  0.7546771E-02  0.1358410E+00
         21   -1    0    0  501  502  0.00000000000E+00  0.00000000000E+00  0.11414368703E+02  0.11414368703E+02  0.00000000000E+00 0.  1.
         21   -1    0    0  502  503 -0.00000000000E+00 -0.00000000000E+00 -0.54376989982E+03  0.54376989982E+03  0.00000000000E+00 0. -1.
         24    1    1    2    0    0 -0.11728402394E+02  0.67064633111E+01 -0.29883773701E+03  0.30976400870E+03  0.80419002446E+02 0. -1.
          1    1    1    2  501    0 -0.19367808114E+02 -0.17925926158E+02 -0.33288373646E+02  0.42480191146E+02  0.00000000000E+00 0. -1.
         -2    1    1    2    0  503  0.31096210508E+02  0.11219462847E+02 -0.20022942047E+03  0.20294006868E+03  0.00000000000E+00 0.  1.
<mgrwt>
<rscale>  2 0.70497317E+02</rscale>
<asrwt>0</asrwt>
<pdfrwt beam="1">  1       21 0.17560574E-02 0.70497317E+02</pdfrwt>
<pdfrwt beam="2">  1       21 0.83656876E-01 0.70497317E+02</pdfrwt>
<totfact> 0.18581603E+06</totfact>
</mgrwt>
</event>
<event>
 5    1  0.1745726E+000  0.7113237E+02  0.7546771E-02  0.1356284E+00
         21   -1    0    0  501  502  0.00000000000E+00  0.00000000000E+00  0.44908021845E+02  0.44908021845E+02  0.00000000000E+00 0. -1.
         21   -1    0    0  502  503 -0.00000000000E+00 -0.00000000000E+00 -0.40502235847E+03  0.40502235847E+03  0.00000000000E+00 0. -1.
         24    1    1    2    0    0 -0.33956194649E+02 -0.10044797277E+02 -0.16919048401E+03  0.19064772997E+03  0.80419002446E+02 0. -1.
          1    1    1    2  501    0  0.23480047091E+02 -0.14576950102E+02  0.27640161910E+02  0.39086808978E+02  0.00000000000E+00 0. -1.
         -2    1    1    2    0  503  0.10476147558E+02  0.24621747379E+02 -0.21856401452E+03  0.22019584137E+03  0.00000000000E+00 0.  1.
<mgrwt>
<rscale>  2 0.71132369E+02</rscale>
<asrwt>0</asrwt>
<pdfrwt beam="1">  1       21 0.69089267E-02 0.71132369E+02</pdfrwt>
<pdfrwt beam="2">  1       21 0.62311129E-01 0.71132369E+02</pdfrwt>
<totfact> 0.37698300E+05</totfact>
</mgrwt>
</event>
<event>
 5    1  0.1745726E+000  0.8313134E+02  0.7546771E-02  0.1320393E+00
         21   -1    0    0  503  502  0.00000000000E+00  0.00000000000E+00  0.66273974041E+02  0.66273974041E+02  0.00000000000E+00 0. -1.
         21   -1    0    0  501  503 -0.00000000000E+00 -0.00000000000E+00 -0.39613140285E+03  0.39613140285E+03  0.00000000000E+00 0. -1.
         24    1    1    2    0    0  0.16730281521E+01 -0.54690904131E+02 -0.66387822523E+02  0.11776439594E+03  0.80419002446E+02 0. -1.
          1    1    1    2  501    0  0.19463674420E+02  0.35300827013E+02 -0.29745221788E+03  0.30017129265E+03  0.00000000000E+00 0. -1.
         -2    1    1    2    0  502 -0.21136702572E+02  0.19390077118E+02  0.33982611597E+02  0.44469688296E+02  0.00000000000E+00 0.  1.
<mgrwt>
<rscale>  2 0.83131339E+02</rscale>
<asrwt>0</asrwt>
<pdfrwt beam="1">  1       21 0.10195996E-01 0.83131339E+02</pdfrwt>
<pdfrwt beam="2">  1       21 0.60943290E-01 0.83131339E+02</pdfrwt>
<totfact> 0.20285506E+05</totfact>
</mgrwt>
</event>
<event>
 5    1  0.1745726E+000  0.7826958E+02  0.7546771E-02  0.1334035E+00
         21   -1    0    0  503  502  0.00000000000E+00  0.00000000000E+00  0.68759066423E+03  0.68759066423E+03  0.00000000000E+00 0.  1.
         21   -1    0    0  501  503 -0.00000000000E+00 -0.00000000000E+00 -0.46500054342E+02  0.46500054342E+02  0.00000000000E+00 0. -1.
         24    1    1    2    0    0 -0.23306927307E+02 -0.82437630072E+01  0.89946851359E+02  0.12316178187E+03  0.80419002446E+02 0.  1.
          1    1    1    2  501    0 -0.24245964059E+02  0.68129501343E+00 -0.23794415391E+02  0.33978009651E+02  0.00000000000E+00 0. -1.
         -2    1    1    2    0  502  0.47552891365E+02  0.75624679938E+01  0.57493817391E+03  0.57695092705E+03  0.00000000000E+00 0.  1.
<mgrwt>
<rscale>  2 0.78269585E+02</rscale>
<asrwt>0</asrwt>
<pdfrwt beam="1">  1       21 0.10578317E+00 0.78269585E+02</pdfrwt>
<pdfrwt beam="2">  1       21 0.71538551E-02 0.78269585E+02</pdfrwt>
<totfact> 0.11032443E+05</totfact>
</mgrwt>
</event>
<event>
 5    1  0.1745726E+000  0.6921094E+02  0.7546771E-02  0.1362797E+00
         21   -1    0    0  503  502  0.00000000000E+00  0.00000000000E+00  0.29504275173E+03  0.29504275173E+03  0.00000000000E+00 0.  1.
         21   -1    0    0  501  503 -0.00000000000E+00 -0.00000000000E+00 -0.25371834995E+02  0.25371834995E+02  0.00000000000E+00 0. -1.
         24    1    1    2    0    0  0.33061515306E+01  0.43646975375E+02  0.25554579838E+03  0.27145323745E+03  0.80419002446E+02 0.  1.
          1    1    1    2  501    0  0.65720888841E+01 -0.23827742337E+02  0.67814661637E+01  0.25630878652E+02  0.00000000000E+00 0. -1.
         -2    1    1    2    0  502 -0.98782404147E+01 -0.19819233039E+02  0.73436521903E+01  0.23330470622E+02  0.00000000000E+00 0.  1.
<mgrwt>
<rscale>  2 0.69210941E+02</rscale>
<asrwt>0</asrwt>
<pdfrwt beam="1">  1       21 0.45391190E-01 0.69210941E+02</pdfrwt>
<pdfrwt beam="2">  1       21 0.39033594E-02 0.69210941E+02</pdfrwt>
<totfact> 0.18549188E+06</totfact>
</mgrwt>
</event>
<event>
 5    1  0.1745726E+000  0.7961707E+02  0.7546771E-02  0.1330142E+00
         21   -1    0    0  503  502  0.00000000000E+00  0.00000000000E+00  0.39297624556E+03  0.39297624556E+03  0.00000000000E+00 0.  1.
         21   -1    0    0  501  503 -0.00000000000E+00 -0.00000000000E+00 -0.26429172811E+02  0.26429172811E+02  0.00000000000E+00 0. -1.
         24    1    1    2    0    0 -0.42356760535E+02  0.14487344483E+02  0.26949007486E+03  0.28477376058E+03  0.80419002446E+02 0.  1.
          1    1    1    2  501    0  0.39836646830E+02  0.11202567367E+02  0.83115068676E+01  0.42208258584E+02  0.00000000000E+00 0. -1.
         -2    1    1    2    0  502  0.25201137048E+01 -0.25689911850E+02  0.88745491014E+02  0.92423399198E+02  0.00000000000E+00 0.  1.
<mgrwt>
<rscale>  2 0.79617073E+02</rscale>
<asrwt>0</asrwt>
<pdfrwt beam="1">  1       21 0.60457880E-01 0.79617073E+02</pdfrwt>
<pdfrwt beam="2">  1       21 0.40660269E-02 0.79617073E+02</pdfrwt>
<totfact> 0.96978371E+05</totfact>
</mgrwt>
</event>
<event>
 5    1  0.1745726E+000  0.8400610E+02  0.7546771E-02  0.1318052E+00
         21   -1    0    0  503  502  0.00000000000E+00  0.00000000000E+00  0.10740096035E+03  0.10740096035E+03  0.00000000000E+00 0.  1.
         21   -1    0    0  501  503 -0.00000000000E+00 -0.00000000000E+00 -0.88808571804E+02  0.88808571804E+02  0.00000000000E+00 0. -1.
         24    1    1    2    0    0 -0.27757321482E+02 -0.54381503979E+02  0.22861653172E+02  0.10352626725E+03  0.80419002446E+02 0. -1.
          1    1    1    2  501    0  0.30786243892E+02  0.31810846983E+02 -0.33581201237E+02  0.55564555926E+02  0.00000000000E+00 0. -1.
         -2    1    1    2    0  502 -0.30289224099E+01  0.22570656996E+02  0.29311936612E+02  0.37118708977E+02  0.00000000000E+00 0.  1.
<mgrwt>
<rscale>  2 0.84006099E+02</rscale>
<asrwt>0</asrwt>
<pdfrwt beam="1">  1       21 0.16523225E-01 0.84006099E+02</pdfrwt>
<pdfrwt beam="2">  1       21 0.13662857E-01 0.84006099E+02</pdfrwt>
<totfact> 0.15051206E+06</totfact>
</mgrwt>
</event>
<event>
 5    1  0.1745726E+000  0.6540139E+02  0.7546771E-02  0.1376468E+00
         21   -1    0    0  501  502  0.00000000000E+00  0.00000000000E+00  0.80310144135E+03  0.80310144135E+03  0.00000000000E+00 0.  1.
         21   -1    0    0  502  503 -0.00000000000E+00 -0.00000000000E+00 -0.70321128807E+01  0.70321128807E+01  0.00000000000E+00 0. -1.
         24    1    1    2    0    0 -0.33180360125E+02  0.52116551590E+01  0.57708266046E+03  0.58362634502E+03  0.80419002446E+02 0.  1.
          1    1    1    2  501    0  0.16636314239E+02 -0.16651169868E+02  0.18862201109E+03  0.19008495858E+03  0.00000000000E+00 0. -1.
         -2    1    1    2    0  503  0.16544045886E+02  0.11439514709E+02  0.30364656911E+02  0.36422250623E+02  0.00000000000E+00 0.  1.
<mgrwt>
<rscale>  2 0.65401390E+02</rscale>
<asrwt>0</asrwt>
<pdfrwt beam="1">  1       21 0.12355400E+00 0.65401390E+02</pdfrwt>
<pdfrwt beam="2">  1       21 0.10818642E-02 0.65401390E+02</pdfrwt>
<totfact> 0.16172102E+06</totfact>
</mgrwt>
</event>
<event>
 5    1  0.1745726E+000  0.9482980E+02  0.7546771E-02  0.1291560E+00
         21   -1    0    0  501  502  0.00000000000E+00  0.00000000000E+00  0.48831278506E+02  0.48831278506E+02  0.00000000000E+00 0.  1.
         21   -1    0    0  502  503 -0.00000000000E+00 -0.00000000000E+00 -0.23031705506E+03  0.23031705506E+03  0.00000000000E+00 0.  1.
         24    1    1    2    0    0 -0.62478634426E+02  0.39824627571E+02 -0.50535426297E+02  0.12046005971E+03  0.80419002446E+02 0.  1.
          1    1    1    2  501    0  0.39791554763E+02 -0.41586632472E+02 -0.55787972186E+02  0.80156806769E+02  0.00000000000E+00 0. -1.
         -2    1    1    2    0  503  0.22687079663E+02  0.17620049010E+01 -0.75162378067E+02  0.78531467079E+02  0.00000000000E+00 0.  1.
<mgrwt>
<rscale>  2 0.94829802E+02</rscale>
<asrwt>0</asrwt>
<pdfrwt beam="1">  1       21 0.75125045E-02 0.94829802E+02</pdfrwt>
<pdfrwt beam="2">  1       21 0.35433393E-01 0.94829802E+02</pdfrwt>
<totfact> 0.10251577E+06</totfact>
</mgrwt>
</event>
<event>
 5    1  0.1745726E+000  0.8024463E+02  0.7546771E-02  0.1328359E+00
         21   -1    0    0  501  502  0.00000000000E+00  0.00000000000E+00  0.11252163227E+03  0.11252163227E+03  0.00000000000E+00 0. -1.
         21   -1    0    0  502  503 -0.00000000000E+00 -0.00000000000E+00 -0.82544038720E+02  0.82544038720E+02  0.00000000000E+00 0. -1.
         24    1    1    2    0    0 -0.28508848233E+02 -0.12194999847E+02  0.39953272744E+02  0.94999749506E+02  0.80419002446E+02 0. -1.
          1    1    1    2  501    0  0.26508719699E+02 -0.25363246337E+02  0.28352042224E+02  0.46366418701E+02  0.00000000000E+00 0. -1.
         -2    1    1    2    0  503  0.20001285342E+01  0.37558246184E+02 -0.38327721415E+02  0.53699502786E+02  0.00000000000E+00 0.  1.
<mgrwt>
<rscale>  2 0.80244633E+02</rscale>
<asrwt>0</asrwt>
<pdfrwt beam="1">  1       21 0.17311020E-01 0.80244633E+02</pdfrwt>
<pdfrwt beam="2">  1       21 0.12699083E-01 0.80244633E+02</pdfrwt>
<totfact> 0.15721627E+06</totfact>
</mgrwt>
</event>
<event>
 5    1  0.1745726E+000  0.7610429E+02  0.7546771E-02  0.1340485E+00
         21   -1    0    0  501  502  0.00000000000E+00  0.00000000000E+00  0.26581030109E+03  0.26581030109E+03  0.00000000000E+00 0.  1.
         21   -1    0    0  502  503 -0.00000000000E+00 -0.00000000000E+00 -0.31069773645E+02  0.31069773645E+02  0.00000000000E+00 0.  1.
         24    1    1    2    0    0 -0.64191782357E+01 -0.22079915878E+02  0.17953104594E+03  0.19805893301E+03  0.80419002446E+02 0.  1.
          1    1    1    2  501    0  0.13214270397E+02  0.43830700137E+02  0.60065225415E+02  0.75522039967E+02  0.00000000000E+00 0. -1.
         -2    1    1    2    0  503 -0.67950921610E+01 -0.21750784259E+02 -0.48557439182E+01  0.23299101750E+02  0.00000000000E+00 0.  1.
<mgrwt>
<rscale>  2 0.76104294E+02</rscale>
<asrwt>0</asrwt>
<pdfrwt beam="1">  1       21 0.40893891E-01 0.76104294E+02</pdfrwt>
<pdfrwt beam="2">  1       21 0.47799654E-02 0.76104294E+02</pdfrwt>
<totfact> 0.16425459E+06</totfact>
</mgrwt>
</event>
<event>
 5    1  0.1745726E+000  0.1006293E+03  0.7546771E-02  0.1278978E+00
         21   -1    0    0  503  502  0.00000000000E+00  0.00000000000E+00  0.25535407880E+04  0.25535407880E+04  0.00000000000E+00 0. -1.
         21   -1    0    0  501  503 -0.00000000000E+00 -0.00000000000E+00 -0.67838038601E+01  0.67838038601E+01  0.00000000000E+00 0. -1.
         24    1    1    2    0    0 -0.82302068559E+02 -0.16062211092E+02  0.15166699446E+04  0.15211135927E+04  0.80419002446E+02 0. -1.
          1    1    1    2  501    0  0.56106620280E+02  0.17686546705E+02  0.19426496668E+03  0.20297695448E+03  0.00000000000E+00 0. -1.
         -2    1    1    2    0  502  0.26195448279E+02 -0.16243356133E+01  0.83582207288E+03  0.83623404468E+03  0.00000000000E+00 0.  1.
<mgrwt>
<rscale>  2 0.10062928E+03</rscale>
<asrwt>0</asrwt>
<pdfrwt beam="1">  1       21 0.39285166E+00 0.10062928E+03</pdfrwt>
<pdfrwt beam="2">  1       21 0.10436642E-02 0.10062928E+03</pdfrwt>
<totfact> 0.38829310E+04</totfact>
</mgrwt>
</event>
<event>
 5    1  0.1745726E+000  0.1155198E+03  0.7546771E-02  0.1250676E+00
         21   -1    0    0  503  502  0.00000000000E+00  0.00000000000E+00  0.10045003139E+03  0.10045003139E+03  0.00000000000E+00 0.  1.
         21   -1    0    0  501  503 -0.00000000000E+00 -0.00000000000E+00 -0.22313491783E+03  0.22313491783E+03  0.00000000000E+00 0. -1.
         24    1    1    2    0    0  0.28324376822E+02  0.34390692739E+02 -0.14516361604E+03  0.17182747582E+03  0.80419002446E+02 0.  0.
          1    1    1    2  501    0  0.52296845434E+02 -0.24911779188E+02 -0.18519143290E+02  0.60815421177E+02  0.00000000000E+00 0. -1.
         -2    1    1    2    0  502 -0.80621222257E+02 -0.94789135504E+01  0.40997872890E+02  0.90942052219E+02  0.00000000000E+00 0.  1.
<mgrwt>
<rscale>  2 0.11551980E+03</rscale>
<asrwt>0</asrwt>
<pdfrwt beam="1">  1       21 0.15453851E-01 0.11551980E+03</pdfrwt>
<pdfrwt beam="2">  1       21 0.34328449E-01 0.11551980E+03</pdfrwt>
<totfact> 0.30854245E+05</totfact>
</mgrwt>
</event>
<event>
 5    1  0.1745726E+000  0.8149818E+02  0.7546771E-02  0.1324853E+00
         21   -1    0    0  503  502  0.00000000000E+00  0.00000000000E+00  0.43265135872E+02  0.43265135872E+02  0.00000000000E+00 0.  1.
         21   -1    0    0  501  503 -0.00000000000E+00 -0.00000000000E+00 -0.11189941835E+04  0.11189941835E+04  0.00000000000E+00 0.  1.
         24    1    1    2    0    0  0.52875947239E+02  0.23156096739E+02 -0.87516292800E+03  0.88074368412E+03  0.80419002446E+02 0.  1.
          1    1    1    2  501    0 -0.31723423169E+02 -0.27991085731E+02 -0.23611099192E+03  0.23987137587E+03  0.00000000000E+00 0. -1.
         -2    1    1    2    0  502 -0.21152524070E+02  0.48349889917E+01  0.35544872292E+02  0.41644259381E+02  0.00000000000E+00 0.  1.
<mgrwt>
<rscale>  2 0.81498175E+02</rscale>
<asrwt>0</asrwt>
<pdfrwt beam="1">  1       21 0.66561750E-02 0.81498175E+02</pdfrwt>
<pdfrwt beam="2">  1       21 0.17215294E+00 0.81498175E+02</pdfrwt>
<totfact> 0.37259107E+04</totfact>
</mgrwt>
</event>
<event>
 5    1  0.1745726E+000  0.8300861E+02  0.7546771E-02  0.1320724E+00
         21   -1    0    0  503  502  0.00000000000E+00  0.00000000000E+00  0.48037493413E+03  0.48037493413E+03  0.00000000000E+00 0.  1.
         21   -1    0    0  501  503 -0.00000000000E+00 -0.00000000000E+00 -0.19364690204E+02  0.19364690204E+02  0.00000000000E+00 0. -1.
         24    1    1    2    0    0 -0.61058165070E+01 -0.50073461222E+02  0.36720194340E+03  0.37927445960E+03  0.80419002446E+02 0.  1.
          1    1    1    2  501    0  0.26420130582E+02  0.14542042301E+02  0.20373103198E+02  0.36394472495E+02  0.00000000000E+00 0. -1.
         -2    1    1    2    0  502 -0.20314314075E+02  0.35531418921E+02  0.73435197322E+02  0.84070692234E+02  0.00000000000E+00 0.  1.
<mgrwt>
<rscale>  2 0.83008607E+02</rscale>
<asrwt>0</asrwt>
<pdfrwt beam="1">  1       21 0.73903827E-01 0.83008607E+02</pdfrwt>
<pdfrwt beam="2">  1       21 0.29791835E-02 0.83008607E+02</pdfrwt>
<totfact> 0.10503303E+06</totfact>
</mgrwt>
</event>
<event>
 5    1  0.1745726E+000  0.8589908E+02  0.7546771E-02  0.1313098E+00
         21   -1    0    0  501  502  0.00000000000E+00  0.00000000000E+00  0.16414021919E+02  0.16414021919E+02  0.00000000000E+00 0.  1.
         21   -1    0    0  502  503 -0.00000000000E+00 -0.00000000000E+00 -0.80112160965E+03  0.80112160965E+03  0.00000000000E+00 0. -1.
         24    1    1    2    0    0  0.11848127410E+02  0.50345579068E+01 -0.12956188047E+03  0.15303340067E+03  0.80419002446E+02 0.  1.
          1    1    1    2  501    0 -0.46776413797E+02 -0.21805622113E+02 -0.16631669520E+03  0.17414006186E+03  0.00000000000E+00 0. -1.
         -2    1    1    2    0  503  0.34928286387E+02  0.16771064206E+02 -0.48882901207E+03  0.49036216904E+03  0.00000000000E+00 0.  1.
<mgrwt>
<rscale>  2 0.85899084E+02</rscale>
<asrwt>0</asrwt>
<pdfrwt beam="1">  1       21 0.25252341E-02 0.85899084E+02</pdfrwt>
<pdfrwt beam="2">  1       21 0.12324948E+00 0.85899084E+02</pdfrwt>
<totfact> 0.42601194E+05</totfact>
</mgrwt>
</event>
<event>
 5    1  0.1745726E+000  0.8744995E+02  0.7546771E-02  0.1309147E+00
         21   -1    0    0  503  502  0.00000000000E+00  0.00000000000E+00  0.13032551923E+03  0.13032551923E+03  0.00000000000E+00 0.  1.
         21   -1    0    0  501  503 -0.00000000000E+00 -0.00000000000E+00 -0.13952175703E+03  0.13952175703E+03  0.00000000000E+00 0. -1.
         24    1    1    2    0    0  0.98711611907E+00  0.16886320872E+02 -0.23733507327E+02  0.85537229060E+02  0.80419002446E+02 0.  0.
          1    1    1    2  501    0  0.20456355137E+02 -0.49573361470E+02 -0.71751812386E+02  0.89578475168E+02  0.00000000000E+00 0. -1.
         -2    1    1    2    0  502 -0.21443471256E+02  0.32687040598E+02  0.86289081911E+02  0.94731572032E+02  0.00000000000E+00 0.  1.
<mgrwt>
<rscale>  2 0.87449949E+02</rscale>
<asrwt>0</asrwt>
<pdfrwt beam="1">  1       21 0.20050080E-01 0.87449949E+02</pdfrwt>
<pdfrwt beam="2">  1       21 0.21464886E-01 0.87449949E+02</pdfrwt>
<totfact> 0.46973007E+05</totfact>
</mgrwt>
</event>
<event>
 5    1  0.1745726E+000  0.7023319E+02  0.7546771E-02  0.1359302E+00
         21   -1    0    0  501  502  0.00000000000E+00  0.00000000000E+00  0.10205860086E+03  0.10205860086E+03  0.00000000000E+00 0.  1.
         21   -1    0    0  502  503 -0.00000000000E+00 -0.00000000000E+00 -0.72142628802E+02  0.72142628802E+02  0.00000000000E+00 0.  1.
         24    1    1    2    0    0  0.31276374081E+02  0.33974558204E+02  0.11728859708E+02  0.93473334622E+02  0.80419002446E+02 0.  1.
          1    1    1    2  501    0 -0.18052787727E+02 -0.10762868786E+02  0.40690943254E+02  0.45798420847E+02  0.00000000000E+00 0. -1.
         -2    1    1    2    0  503 -0.13223586355E+02 -0.23211689419E+02 -0.22503830907E+02  0.34929474190E+02  0.00000000000E+00 0.  1.
<mgrwt>
<rscale>  2 0.70233189E+02</rscale>
<asrwt>0</asrwt>
<pdfrwt beam="1">  1       21 0.15701323E-01 0.70233189E+02</pdfrwt>
<pdfrwt beam="2">  1       21 0.11098866E-01 0.70233189E+02</pdfrwt>
<totfact> 0.23534694E+06</totfact>
</mgrwt>
</event>
<event>
 5    1  0.1745726E+000  0.7433198E+02  0.7546771E-02  0.1345952E+00
         21   -1    0    0  503  502  0.00000000000E+00  0.00000000000E+00  0.15143755318E+03  0.15143755318E+03  0.00000000000E+00 0. -1.
         21   -1    0    0  501  503 -0.00000000000E+00 -0.00000000000E+00 -0.40453709360E+02  0.40453709360E+02  0.00000000000E+00 0.  1.
         24    1    1    2    0    0 -0.26917672197E+02 -0.17235753636E+02  0.37616583683E+02  0.94360243759E+02  0.80419002446E+02 0.  0.
          1    1    1    2  501    0  0.28934170605E+02 -0.13072752487E+02  0.24977597825E+02  0.40397567740E+02  0.00000000000E+00 0. -1.
         -2    1    1    2    0  502 -0.20164984072E+01  0.30308506123E+02  0.48389662310E+02  0.57133451040E+02  0.00000000000E+00 0.  1.
<mgrwt>
<rscale>  2 0.74331985E+02</rscale>
<asrwt>0</asrwt>
<pdfrwt beam="1">  1       21 0.23298085E-01 0.74331985E+02</pdfrwt>
<pdfrwt beam="2">  1       21 0.62236476E-02 0.74331985E+02</pdfrwt>
<totfact> 0.30925011E+06</totfact>
</mgrwt>
</event>
<event>
 5    1  0.1745726E+000  0.1054754E+03  0.7546771E-02  0.1269186E+00
         21   -1    0    0  503  502  0.00000000000E+00  0.00000000000E+00  0.16491927295E+03  0.16491927295E+03  0.00000000000E+00 0.  1.
         21   -1    0    0  501  503 -0.00000000000E+00 -0.00000000000E+00 -0.18608937367E+03  0.18608937367E+03  0.00000000000E+00 0. -1.
         24    1    1    2    0    0  0.38715679755E+02  0.72163222415E+02  0.52284671076E+02  0.12612429311E+03  0.80419002446E+02 0.  0.
          1    1    1    2  501    0  0.94568698500E-01 -0.52803280461E+02 -0.13763918564E+03  0.14742028624E+03  0.00000000000E+00 0. -1.
         -2    1    1    2    0  502 -0.38810248454E+02 -0.19359941954E+02  0.64184413847E+02  0.77464067272E+02  0.00000000000E+00 0.  1.
<mgrwt>
<rscale>  2 0.10547544E+03</rscale>
<asrwt>0</asrwt>
<pdfrwt beam="1">  1       21 0.25372196E-01 0.10547544E+03</pdfrwt>
<pdfrwt beam="2">  1       21 0.28629134E-01 0.10547544E+03</pdfrwt>
<totfact> 0.17635292E+05</totfact>
</mgrwt>
</event>
<event>
 5    1  0.1745726E+000  0.9355981E+02  0.7546771E-02  0.1294453E+00
         21   -1    0    0  503  502  0.00000000000E+00  0.00000000000E+00  0.73751614415E+02  0.73751614415E+02  0.00000000000E+00 0. -1.
         21   -1    0    0  501  503 -0.00000000000E+00 -0.00000000000E+00 -0.19555204624E+03  0.19555204624E+03  0.00000000000E+00 0.  1.
         24    1    1    2    0    0 -0.52592220302E+02 -0.15445099578E+02 -0.11329407623E+03  0.14935613948E+03  0.80419002446E+02 0.  1.
          1    1    1    2  501    0  0.44001313280E+01 -0.25917473158E+02 -0.40926802321E+02  0.48642365473E+02  0.00000000000E+00 0. -1.
         -2    1    1    2    0  502  0.48192088974E+02  0.41362572736E+02  0.32420446729E+02  0.71305155698E+02  0.00000000000E+00 0.  1.
<mgrwt>
<rscale>  2 0.93559810E+02</rscale>
<asrwt>0</asrwt>
<pdfrwt beam="1">  1       21 0.11346402E-01 0.93559810E+02</pdfrwt>
<pdfrwt beam="2">  1       21 0.30084930E-01 0.93559810E+02</pdfrwt>
<totfact> 0.69005341E+05</totfact>
</mgrwt>
</event>
<event>
 5    1  0.1745726E+000  0.6698375E+02  0.7546771E-02  0.1370661E+00
         21   -1    0    0  503  502  0.00000000000E+00  0.00000000000E+00  0.85368989149E+02  0.85368989149E+02  0.00000000000E+00 0. -1.
         21   -1    0    0  501  503 -0.00000000000E+00 -0.00000000000E+00 -0.11645090573E+03  0.11645090573E+03  0.00000000000E+00 0. -1.
         24    1    1    2    0    0  0.12895095789E+02  0.69692443073E+01  0.51012080519E+02  0.96355083804E+02  0.80419002446E+02 0. -1.
          1    1    1    2  501    0  0.15762094607E+02 -0.15718865000E+02 -0.69472717185E+02  0.72951934699E+02  0.00000000000E+00 0. -1.
         -2    1    1    2    0  502 -0.28657190396E+02  0.87496206923E+01 -0.12621279917E+02  0.32512876378E+02  0.00000000000E+00 0.  1.
<mgrwt>
<rscale>  2 0.66983750E+02</rscale>
<asrwt>0</asrwt>
<pdfrwt beam="1">  1       21 0.13133691E-01 0.66983750E+02</pdfrwt>
<pdfrwt beam="2">  1       21 0.17915524E-01 0.66983750E+02</pdfrwt>
<totfact> 0.13836362E+06</totfact>
</mgrwt>
</event>
<event>
 5    1  0.1745726E+000  0.6754915E+02  0.7546771E-02  0.1368631E+00
         21   -1    0    0  503  502  0.00000000000E+00  0.00000000000E+00  0.84826474927E+01  0.84826474927E+01  0.00000000000E+00 0.  1.
         21   -1    0    0  501  503 -0.00000000000E+00 -0.00000000000E+00 -0.80503331490E+03  0.80503331490E+03  0.00000000000E+00 0.  1.
         24    1    1    2    0    0  0.32882884202E+01 -0.37887022629E+02 -0.40763377798E+03  0.41722745862E+03  0.80419002446E+02 0.  0.
          1    1    1    2  501    0 -0.14788261867E+02  0.19939829251E+02 -0.35727648663E+03  0.35813793066E+03  0.00000000000E+00 0. -1.
         -2    1    1    2    0  502  0.11499973447E+02  0.17947193378E+02 -0.31640402804E+02  0.38150573116E+02  0.00000000000E+00 0.  1.
<mgrwt>
<rscale>  2 0.67549148E+02</rscale>
<asrwt>0</asrwt>
<pdfrwt beam="1">  1       21 0.13050229E-02 0.67549148E+02</pdfrwt>
<pdfrwt beam="2">  1       21 0.12385126E+00 0.67549148E+02</pdfrwt>
<totfact> 0.12010704E+06</totfact>
</mgrwt>
</event>
<event>
 5    1  0.1745726E+000  0.8185729E+02  0.7546771E-02  0.1323862E+00
         21   -1    0    0  503  502  0.00000000000E+00  0.00000000000E+00  0.71629188526E+02  0.71629188526E+02  0.00000000000E+00 0.  1.
         21   -1    0    0  501  503 -0.00000000000E+00 -0.00000000000E+00 -0.13686670099E+03  0.13686670099E+03  0.00000000000E+00 0.  1.
         24    1    1    2    0    0  0.35084798089E+02 -0.31132767752E+02 -0.78089705402E+02  0.12151300477E+03  0.80419002446E+02 0.  1.
          1    1    1    2  501    0 -0.26991199528E+02 -0.99322656714E+01 -0.18927609909E+02  0.34430062013E+02  0.00000000000E+00 0. -1.
         -2    1    1    2    0  502 -0.80935985611E+01  0.41065033423E+02  0.31779802847E+02  0.52552822729E+02  0.00000000000E+00 0.  1.
<mgrwt>
<rscale>  2 0.81857295E+02</rscale>
<asrwt>0</asrwt>
<pdfrwt beam="1">  1       21 0.11019875E-01 0.81857295E+02</pdfrwt>
<pdfrwt beam="2">  1       21 0.21056415E-01 0.81857295E+02</pdfrwt>
<totfact> 0.14120873E+06</totfact>
</mgrwt>
</event>
<event>
 5    1  0.1745726E+000  0.1210645E+03  0.7546771E-02  0.1241351E+00
         21   -1    0    0  503  502  0.00000000000E+00  0.00000000000E+00  0.29734873171E+02  0.29734873171E+02  0.00000000000E+00 0.  1.
         21   -1    0    0  501  503 -0.00000000000E+00 -0.00000000000E+00 -0.84493548006E+03  0.84493548006E+03  0.00000000000E+00 0. -1.
         24    1    1    2    0    0 -0.30602600551E+02 -0.44078187578E+02 -0.14910526324E+03  0.17770481496E+03  0.80419002446E+02 0.  1.
          1    1    1    2  501    0 -0.26926343779E+02 -0.37169881211E+02 -0.50845036271E+03  0.51051777579E+03  0.00000000000E+00 0. -1.
         -2    1    1    2    0  502  0.57528944330E+02  0.81248068788E+02 -0.15764498094E+03  0.18644776248E+03  0.00000000000E+00 0.  1.
<mgrwt>
<rscale>  2 0.12106454E+03</rscale>
<asrwt>0</asrwt>
<pdfrwt beam="1">  1       21 0.45745964E-02 0.12106454E+03</pdfrwt>
<pdfrwt beam="2">  1       21 0.12999006E+00 0.12106454E+03</pdfrwt>
<totfact> 0.13930603E+05</totfact>
</mgrwt>
</event>
<event>
 5    1  0.1745726E+000  0.8181913E+02  0.7546771E-02  0.1323967E+00
         21   -1    0    0  501  502  0.00000000000E+00  0.00000000000E+00  0.12161252842E+02  0.12161252842E+02  0.00000000000E+00 0. -1.
         21   -1    0    0  502  503 -0.00000000000E+00 -0.00000000000E+00 -0.62049981130E+03  0.62049981130E+03  0.00000000000E+00 0.  1.
         24    1    1    2    0    0  0.53931981035E+02  0.23892266607E+02 -0.29309756404E+03  0.30960119021E+03  0.80419002446E+02 0.  0.
          1    1    1    2  501    0 -0.19826229791E+02 -0.22189840667E+02 -0.80032057468E+02  0.85385002425E+02  0.00000000000E+00 0. -1.
         -2    1    1    2    0  503 -0.34105751245E+02 -0.17024259397E+01 -0.23520893695E+03  0.23767487150E+03  0.00000000000E+00 0.  1.
<mgrwt>
<rscale>  2 0.81819127E+02</rscale>
<asrwt>0</asrwt>
<pdfrwt beam="1">  1       21 0.18709615E-02 0.81819127E+02</pdfrwt>
<pdfrwt beam="2">  1       21 0.95461535E-01 0.81819127E+02</pdfrwt>
<totfact> 0.12546166E+06</totfact>
</mgrwt>
</event>
<event>
 5    1  0.1745726E+000  0.6155888E+02  0.7546771E-02  0.1391404E+00
         21   -1    0    0  503  502  0.00000000000E+00  0.00000000000E+00  0.23454905668E+03  0.23454905668E+03  0.00000000000E+00 0. -1.
         21   -1    0    0  501  503 -0.00000000000E+00 -0.00000000000E+00 -0.11691765353E+03  0.11691765353E+03  0.00000000000E+00 0. -1.
         24    1    1    2    0    0 -0.83265043900E+01 -0.49604684380E+01  0.21674147783E+03  0.23138284528E+03  0.80419002446E+02 0. -1.
          1    1    1    2  501    0 -0.60459936821E+01  0.20249560913E+02 -0.96676489545E+02  0.98959296620E+02  0.00000000000E+00 0. -1.
         -2    1    1    2    0  502  0.14372498072E+02 -0.15289092475E+02 -0.24335851418E+01  0.21124568308E+02  0.00000000000E+00 0.  1.
<mgrwt>
<rscale>  2 0.61558875E+02</rscale>
<asrwt>0</asrwt>
<pdfrwt beam="1">  1       21 0.36084470E-01 0.61558875E+02</pdfrwt>
<pdfrwt beam="2">  1       21 0.17987331E-01 0.61558875E+02</pdfrwt>
<totfact> 0.21563021E+05</totfact>
</mgrwt>
</event>
<event>
 5    1  0.1745726E+000  0.6213149E+02  0.7546771E-02  0.1389098E+00
         21   -1    0    0  501  502  0.00000000000E+00  0.00000000000E+00  0.29811169707E+02  0.29811169707E+02  0.00000000000E+00 0. -1.
         21   -1    0    0  502  503 -0.00000000000E+00 -0.00000000000E+00 -0.13332753259E+03  0.13332753259E+03  0.00000000000E+00 0. -1.
         24    1    1    2    0    0 -0.90085407211E+01  0.60462597047E+01 -0.59273404370E+02  0.10049011634E+03  0.80419002446E+02 0.  0.
          1    1    1    2  501    0 -0.46319858635E+01 -0.21794366754E+02 -0.30173980375E+02  0.37508916366E+02  0.00000000000E+00 0. -1.
         -2    1    1    2    0  503  0.13640526585E+02  0.15748107050E+02 -0.14068978133E+02  0.25139669585E+02  0.00000000000E+00 0.  1.
<mgrwt>
<rscale>  2 0.62131493E+02</rscale>
<asrwt>0</asrwt>
<pdfrwt beam="1">  1       21 0.45863337E-02 0.62131493E+02</pdfrwt>
<pdfrwt beam="2">  1       21 0.20511929E-01 0.62131493E+02</pdfrwt>
<totfact> 0.63896582E+06</totfact>
</mgrwt>
</event>
<event>
 5    1  0.1745726E+000  0.1279960E+03  0.7546771E-02  0.1230460E+00
         21   -1    0    0  503  502  0.00000000000E+00  0.00000000000E+00  0.12938905906E+04  0.12938905906E+04  0.00000000000E+00 0. -1.
         21   -1    0    0  501  503 -0.00000000000E+00 -0.00000000000E+00 -0.26068158412E+02  0.26068158412E+02  0.00000000000E+00 0.  1.
         24    1    1    2    0    0  0.43575337184E+02 -0.98332793063E+02  0.33630466282E+03  0.36212731240E+03  0.80419002446E+02 0.  1.
          1    1    1    2  501    0 -0.52640037764E+02  0.50275442017E+02  0.94009400874E+02  0.11889643013E+03  0.00000000000E+00 0. -1.
         -2    1    1    2    0  502  0.90647005805E+01  0.48057351047E+02  0.83750836853E+03  0.83893500651E+03  0.00000000000E+00 0.  1.
<mgrwt>
<rscale>  2 0.12799602E+03</rscale>
<asrwt>0</asrwt>
<pdfrwt beam="1">  1       21 0.19906004E+00 0.12799602E+03</pdfrwt>
<pdfrwt beam="2">  1       21 0.40104869E-02 0.12799602E+03</pdfrwt>
<totfact> 0.55586141E+04</totfact>
</mgrwt>
</event>
<event>
 5    1  0.1745726E+000  0.1074764E+03  0.7546771E-02  0.1265316E+00
         21   -1    0    0  501  502  0.00000000000E+00  0.00000000000E+00  0.52503227538E+02  0.52503227538E+02  0.00000000000E+00 0. -1.
         21   -1    0    0  502  503 -0.00000000000E+00 -0.00000000000E+00 -0.31773361780E+03  0.31773361780E+03  0.00000000000E+00 0.  1.
         24    1    1    2    0    0  0.45793249512E+01  0.31249955875E+02 -0.13487927225E+03  0.16017853788E+03  0.80419002446E+02 0.  1.
          1    1    1    2  501    0 -0.11811906036E+02  0.47767465736E+02  0.86915480020E+01  0.49967938858E+02  0.00000000000E+00 0. -1.
         -2    1    1    2    0  503  0.72325810843E+01 -0.79017421612E+02 -0.13904266601E+03  0.16009036860E+03  0.00000000000E+00 0.  1.
<mgrwt>
<rscale>  2 0.10747636E+03</rscale>
<asrwt>0</asrwt>
<pdfrwt beam="1">  1       21 0.80774197E-02 0.10747636E+03</pdfrwt>
<pdfrwt beam="2">  1       21 0.48882094E-01 0.10747636E+03</pdfrwt>
<totfact> 0.47661972E+05</totfact>
</mgrwt>
</event>
<event>
 5    1  0.1745726E+000  0.9382276E+02  0.7546771E-02  0.1293850E+00
         21   -1    0    0  503  502  0.00000000000E+00  0.00000000000E+00  0.30702080341E+03  0.30702080341E+03  0.00000000000E+00 0. -1.
         21   -1    0    0  501  503 -0.00000000000E+00 -0.00000000000E+00 -0.87568787052E+02  0.87568787052E+02  0.00000000000E+00 0. -1.
         24    1    1    2    0    0 -0.44474256503E+02  0.36987001496E+02  0.17477399393E+03  0.20089590011E+03  0.80419002446E+02 0. -1.
          1    1    1    2  501    0  0.62342186040E+02 -0.25585558811E+02 -0.57963091044E+02  0.88886944504E+02  0.00000000000E+00 0. -1.
         -2    1    1    2    0  502 -0.17867929537E+02 -0.11401442686E+02  0.10264111347E+03  0.10480674585E+03  0.00000000000E+00 0.  1.
<mgrwt>
<rscale>  2 0.93822759E+02</rscale>
<asrwt>0</asrwt>
<pdfrwt beam="1">  1       21 0.47233969E-01 0.93822759E+02</pdfrwt>
<pdfrwt beam="2">  1       21 0.13472121E-01 0.93822759E+02</pdfrwt>
<totfact> 0.21001246E+05</totfact>
</mgrwt>
</event>
<event>
 5    1  0.1745726E+000  0.7916034E+02  0.7546771E-02  0.1331451E+00
         21   -1    0    0  503  502  0.00000000000E+00  0.00000000000E+00  0.17083515708E+02  0.17083515708E+02  0.00000000000E+00 0.  1.
         21   -1    0    0  501  503 -0.00000000000E+00 -0.00000000000E+00 -0.36806644727E+04  0.36806644727E+04  0.00000000000E+00 0.  1.
         24    1    1    2    0    0 -0.38998761586E+02 -0.80357819793E+01 -0.33076821747E+04  0.33088992221E+04  0.80419002446E+02 0.  1.
          1    1    1    2  501    0  0.27228218414E+02 -0.22840815922E+02 -0.35396869184E+03  0.35574838517E+03  0.00000000000E+00 0. -1.
         -2    1    1    2    0  502  0.11770543172E+02  0.30876597902E+02 -0.19300904841E+01  0.33100381173E+02  0.00000000000E+00 0.  1.
<mgrwt>
<rscale>  2 0.79160340E+02</rscale>
<asrwt>0</asrwt>
<pdfrwt beam="1">  1       21 0.26282327E-02 0.79160340E+02</pdfrwt>
<pdfrwt beam="2">  1       21 0.56625619E+00 0.79160340E+02</pdfrwt>
<totfact> 0.65011230E+02</totfact>
</mgrwt>
</event>
<event>
 5    1  0.1745726E+000  0.8004976E+02  0.7546771E-02  0.1328910E+00
         21   -1    0    0  501  502  0.00000000000E+00  0.00000000000E+00  0.34828772275E+03  0.34828772275E+03  0.00000000000E+00 0.  1.
         21   -1    0    0  502  503 -0.00000000000E+00 -0.00000000000E+00 -0.32349037456E+02  0.32349037456E+02  0.00000000000E+00 0.  1.
         24    1    1    2    0    0  0.35776122349E+02 -0.46135943079E+02  0.21885277228E+03  0.24035849904E+03  0.80419002446E+02 0.  1.
          1    1    1    2  501    0 -0.89471333059E+01  0.25049226773E+02  0.10235069962E+03  0.10575055872E+03  0.00000000000E+00 0. -1.
         -2    1    1    2    0  503 -0.26828989043E+02  0.21086716306E+02 -0.52647866108E+01  0.34527702438E+02  0.00000000000E+00 0.  1.
<mgrwt>
<rscale>  2 0.80049762E+02</rscale>
<asrwt>0</asrwt>
<pdfrwt beam="1">  1       21 0.53582724E-01 0.80049762E+02</pdfrwt>
<pdfrwt beam="2">  1       21 0.49767752E-02 0.80049762E+02</pdfrwt>
<totfact> 0.89263104E+05</totfact>
</mgrwt>
</event>
<event>
 5    1  0.1745726E+000  0.7347312E+02  0.7546771E-02  0.1348666E+00
         21   -1    0    0  501  502  0.00000000000E+00  0.00000000000E+00  0.28292228428E+03  0.28292228428E+03  0.00000000000E+00 0. -1.
         21   -1    0    0  502  503 -0.00000000000E+00 -0.00000000000E+00 -0.19867109599E+02  0.19867109599E+02  0.00000000000E+00 0. -1.
         24    1    1    2    0    0  0.14445451089E+02  0.45411823361E+02  0.13699796477E+03  0.16585102671E+03  0.80419002446E+02 0. -1.
          1    1    1    2  501    0 -0.18509550889E+02 -0.18213226832E+02  0.59069620816E+02  0.64525539200E+02  0.00000000000E+00 0. -1.
         -2    1    1    2    0  503  0.40640998000E+01 -0.27198596529E+02  0.66987589100E+02  0.72412827964E+02  0.00000000000E+00 0.  1.
<mgrwt>
<rscale>  2 0.73473121E+02</rscale>
<asrwt>0</asrwt>
<pdfrwt beam="1">  1       21 0.43526502E-01 0.73473121E+02</pdfrwt>
<pdfrwt beam="2">  1       21 0.30564786E-02 0.73473121E+02</pdfrwt>
<totfact> 0.30101347E+06</totfact>
</mgrwt>
</event>
<event>
 5    1  0.1745726E+000  0.1035782E+03  0.7546771E-02  0.1272947E+00
         21   -1    0    0  501  502  0.00000000000E+00  0.00000000000E+00  0.21046076655E+03  0.21046076655E+03  0.00000000000E+00 0. -1.
         21   -1    0    0  502  503 -0.00000000000E+00 -0.00000000000E+00 -0.14198238138E+03  0.14198238138E+03  0.00000000000E+00 0.  1.
         24    1    1    2    0    0 -0.43821975927E+02 -0.75855932203E+02  0.16747878394E+03  0.20540410670E+03  0.80419002446E+02 0. -1.
          1    1    1    2  501    0  0.14408775493E+02  0.35392957611E+02 -0.24413388632E+01  0.38291440232E+02  0.00000000000E+00 0. -1.
         -2    1    1    2    0  503  0.29413200435E+02  0.40462974593E+02 -0.96559059910E+02  0.10874760100E+03  0.00000000000E+00 0.  1.
<mgrwt>
<rscale>  2 0.10357816E+03</rscale>
<asrwt>0</asrwt>
<pdfrwt beam="1">  1       21 0.32378579E-01 0.10357816E+03</pdfrwt>
<pdfrwt beam="2">  1       21 0.21843443E-01 0.10357816E+03</pdfrwt>
<totfact> 0.18425440E+05</totfact>
</mgrwt>
</event>
<event>
 5    1  0.1745726E+000  0.7955909E+02  0.7546771E-02  0.1330307E+00
         21   -1    0    0  501  502  0.00000000000E+00  0.00000000000E+00  0.49770361914E+03  0.49770361914E+03  0.00000000000E+00 0.  1.
         21   -1    0    0  502  503 -0.00000000000E+00 -0.00000000000E+00 -0.15977403084E+02  0.15977403084E+02  0.00000000000E+00 0.  1.
         24    1    1    2    0    0 -0.34653320587E+02 -0.86218574770E+01  0.21611968876E+03  0.23334550537E+03  0.80419002446E+02 0.  1.
          1    1    1    2  501    0  0.36914736387E+02 -0.20292482979E+02  0.23265761659E+03  0.23644037131E+03  0.00000000000E+00 0. -1.
         -2    1    1    2    0  503 -0.22614158001E+01  0.28914340456E+02  0.32948910710E+02  0.43895145545E+02  0.00000000000E+00 0.  1.
<mgrwt>
<rscale>  2 0.79559092E+02</rscale>
<asrwt>0</asrwt>
<pdfrwt beam="1">  1       21 0.76569776E-01 0.79559092E+02</pdfrwt>
<pdfrwt beam="2">  1       21 0.24580624E-02 0.79559092E+02</pdfrwt>
<totfact> 0.13250585E+06</totfact>
</mgrwt>
</event>
<event>
 5    1  0.1745726E+000  0.6747494E+02  0.7546771E-02  0.1368896E+00
         21   -1    0    0  503  502  0.00000000000E+00  0.00000000000E+00  0.61149670181E+03  0.61149670181E+03  0.00000000000E+00 0.  1.
         21   -1    0    0  501  503 -0.00000000000E+00 -0.00000000000E+00 -0.24156339623E+02  0.24156339623E+02  0.00000000000E+00 0. -1.
         24    1    1    2    0    0 -0.50502849206E+01  0.12441685679E+02  0.81873934453E+02  0.11554591303E+03  0.80419002446E+02 0.  0.
          1    1    1    2  501    0 -0.12686218983E+02 -0.27413636297E+02  0.25362372886E+02  0.39442332151E+02  0.00000000000E+00 0. -1.
         -2    1    1    2    0  502  0.17736503904E+02  0.14971950617E+02  0.48010405485E+03  0.48066479625E+03  0.00000000000E+00 0.  1.
<mgrwt>
<rscale>  2 0.67474944E+02</rscale>
<asrwt>0</asrwt>
<pdfrwt beam="1">  1       21 0.94076404E-01 0.67474944E+02</pdfrwt>
<pdfrwt beam="2">  1       21 0.37163604E-02 0.67474944E+02</pdfrwt>
<totfact> 0.42926917E+05</totfact>
</mgrwt>
</event>
<event>
 5    1  0.1745726E+000  0.1050024E+03  0.7546771E-02  0.1270115E+00
         21   -1    0    0  503  502  0.00000000000E+00  0.00000000000E+00  0.97086145615E+03  0.97086145615E+03  0.00000000000E+00 0.  1.
         21   -1    0    0  501  503 -0.00000000000E+00 -0.00000000000E+00 -0.19278062821E+02  0.19278062821E+02  0.00000000000E+00 0.  1.
         24    1    1    2    0    0 -0.61677635460E+02 -0.12179383933E+02  0.22945111437E+03  0.25113243110E+03  0.80419002446E+02 0.  1.
          1    1    1    2  501    0 -0.14845052014E+02  0.26217251458E+02  0.30004571447E+02  0.42520514473E+02  0.00000000000E+00 0. -1.
         -2    1    1    2    0  502  0.76522687474E+02 -0.14037867525E+02  0.69212770752E+03  0.69648657341E+03  0.00000000000E+00 0.  1.
<mgrwt>
<rscale>  2 0.10500244E+03</rscale>
<asrwt>0</asrwt>
<pdfrwt beam="1">  1       21 0.14936326E+00 0.10500244E+03</pdfrwt>
<pdfrwt beam="2">  1       21 0.29658566E-02 0.10500244E+03</pdfrwt>
<totfact> 0.20208825E+05</totfact>
</mgrwt>
</event>
